Protein in INSANE! Membrane UpperLeaflet>POPC=1.0 LowerLeaflet>POPC=1.0
247980
   14AUC    AUC    1  -1.734  19.551   7.501
   15AUC    AUC    2  -1.489  19.551   7.349
   16AUC    AUC    3  -1.489  19.551   7.652
   17AUC    AUC    4  -1.980  19.551   7.349
   18AUC    AUC    5  -1.980  19.551   7.652
   19AUC    AUC    6  -1.886  19.796   7.501
   20AUC    AUC    7  -1.583  19.796   7.501
   21AUC    AUC    8  -1.886  19.305   7.501
   22AUC    AUC    9  -1.583  19.305   7.501
   23AUC    AUC   10  -1.734  19.399   7.746
   24AUC    AUC   11  -1.734  19.702   7.746
   25AUC    AUC   12  -1.734  19.399   7.255
   26AUC    AUC   13  -1.734  19.702   7.255
   27AUC    AUC   14  -1.243  19.551   7.197
   28AUC    AUC   15  -1.243  19.551   7.501
   29AUC    AUC   16  -1.243  19.551   7.804
   30AUC    AUC   17  -2.225  19.551   7.197
   31AUC    AUC   18  -2.225  19.551   7.501
   32AUC    AUC   19  -2.225  19.551   7.804
   33AUC    AUC   20  -2.038  20.041   7.501
   34AUC    AUC   21  -1.734  20.041   7.501
   35AUC    AUC   22  -1.431  20.041   7.501
   36AUC    AUC   23  -2.038  19.060   7.501
   37AUC    AUC   24  -1.734  19.060   7.501
   38AUC    AUC   25  -1.431  19.060   7.501
   39AUC    AUC   26  -1.734  19.247   7.991
   40AUC    AUC   27  -1.734  19.551   7.991
   41AUC    AUC   28  -1.734  19.854   7.991
   42AUC    AUC   29  -1.734  19.247   7.010
   43AUC    AUC   30  -1.734  19.551   7.010
   44AUC    AUC   31  -1.734  19.854   7.010
   45AUC    AUC   32  -1.489  19.399   7.898
   46AUC    AUC   33  -1.489  19.702   7.898
   47AUC    AUC   34  -1.489  19.399   7.103
   48AUC    AUC   35  -1.489  19.702   7.103
   49AUC    AUC   36  -1.980  19.399   7.898
   50AUC    AUC   37  -1.980  19.702   7.898
   51AUC    AUC   38  -1.980  19.399   7.103
   52AUC    AUC   39  -1.980  19.702   7.103
   53AUC    AUC   40  -1.337  19.796   7.349
   54AUC    AUC   41  -1.337  19.796   7.652
   55AUC    AUC   42  -2.131  19.796   7.349
   56AUC    AUC   43  -2.131  19.796   7.652
   57AUC    AUC   44  -1.337  19.305   7.349
   58AUC    AUC   45  -1.337  19.305   7.652
   59AUC    AUC   46  -2.131  19.305   7.349
   60AUC    AUC   47  -2.131  19.305   7.652
   61AUC    AUC   48  -1.886  19.948   7.746
   62AUC    AUC   49  -1.583  19.948   7.746
   63AUC    AUC   50  -1.886  19.154   7.746
   64AUC    AUC   51  -1.583  19.154   7.746
   65AUC    AUC   52  -1.886  19.948   7.255
   66AUC    AUC   53  -1.583  19.948   7.255
   67AUC    AUC   54  -1.886  19.154   7.255
   68AUC    AUC   55  -1.583  19.154   7.255
   69AUSL   AUS   56  -1.325  19.551   8.081
   70AUSL   AUS   57  -1.469  19.134   8.011
   71AUL    AUL   58  -1.243  19.247   8.295
   72THSLK    S   59  -1.342  18.946   8.163
   73ETHY    C1   60  -1.184  18.625   8.456
   74ETHY    C1   61  -0.936  18.312   8.845
   75THSLK    S   62  -1.220  19.511   8.333
   76ETHY    C1   63  -0.977  19.444   8.720
   77ETHY    C1   64  -0.684  19.463   9.194
   78AUSL   AUS   65  -1.571  19.399   8.174
   79AUSL   AUS   66  -1.898  19.702   8.174
   80AUL    AUL   67  -1.734  19.551   8.482
   81THSLK    S   68  -1.484  19.353   8.426
   82ETHY    C1   69  -1.371  19.212   8.852
   83ETHY    C1   70  -1.222  19.141   9.385
   84THSLK    S   71  -1.986  19.671   8.439
   85ETHY    C1   72  -2.091  19.682   8.889
   86ETHY    C1   73  -2.241  19.790   9.415
   87AUSL   AUS   74  -1.571  19.702   8.174
   88AUSL   AUS   75  -1.224  19.815   7.917
   89AUL    AUL   76  -1.243  19.854   8.295
   90THSLK    S   77  -1.483  19.748   8.426
   91ETHY    C1   78  -1.377  19.888   8.854
   92ETHY    C1   79  -1.227  19.960   9.386
   93THSLK    S   80  -1.044  19.931   8.082
   94ETHY    C1   81  -0.699  20.066   8.358
   95ETHY    C1   82  -0.324  20.320   8.683
   96AUSL   AUS   83  -1.325  19.551   6.921
   97AUSL   AUS   84  -1.469  19.967   6.990
   98AUL    AUL   85  -1.243  19.854   6.706
   99THSLK    S   86  -1.219  19.511   6.668
  100ETHY    C1   87  -0.982  19.444   6.278
  101ETHY    C1   88  -0.689  19.463   5.804
  102THSLK    S   89  -1.294  20.095   6.816
  103ETHY    C1   90  -1.063  20.313   6.480
  104ETHY    C1   91  -0.837  20.655   6.102
  105AUSL   AUS   92  -1.571  19.399   6.827
  106AUSL   AUS   93  -1.224  19.286   7.084
  107AUL    AUL   94  -1.243  19.247   6.706
  108THSLK    S   95  -1.078  19.099   6.932
  109ETHY    C1   96  -0.794  18.845   6.670
  110ETHY    C1   97  -0.402  18.625   6.340
  111THSLK    S   98  -1.483  19.353   6.575
  112ETHY    C1   99  -1.377  19.213   6.147
  113ETHY    C1  100  -1.227  19.141   5.615
  114AUSL   AUS  101  -1.571  19.702   6.827
  115AUSL   AUS  102  -1.898  19.399   6.827
  116AUL    AUL  103  -1.734  19.551   6.519
  117THSLK    S  104  -1.998  19.353   6.579
  118ETHY    C1  105  -2.132  19.215   6.158
  119ETHY    C1  106  -2.275  19.143   5.624
  120THSLK    S  107  -1.470  19.670   6.566
  121ETHY    C1  108  -1.343  19.679   6.121
  122ETHY    C1  109  -1.199  19.788   5.594
  123AUSL   AUS  110  -2.143  19.551   8.081
  124AUSL   AUS  111  -1.999  19.967   8.011
  125AUL    AUL  112  -2.225  19.854   8.295
  126THSLK    S  113  -2.249  19.511   8.333
  127ETHY    C1  114  -2.486  19.444   8.723
  128ETHY    C1  115  -2.780  19.463   9.197
  129THSLK    S  116  -2.127  20.109   8.202
  130ETHY    C1  117  -2.280  20.354   8.563
  131ETHY    C1  118  -2.528  20.689   8.933
  132AUSL   AUS  119  -1.898  19.399   8.174
  133AUSL   AUS  120  -2.244  19.286   7.917
  134AUL    AUL  121  -2.225  19.247   8.295
  135THSLK    S  122  -2.425  19.118   8.043
  136ETHY    C1  123  -2.766  18.892   8.259
  137ETHY    C1  124  -3.142  18.664   8.602
  138THSLK    S  125  -1.998  19.353   8.422
  139ETHY    C1  126  -2.126  19.214   8.844
  140ETHY    C1  127  -2.270  19.142   9.378
  141AUSL   AUS  128  -2.143  19.551   6.921
  142AUSL   AUS  129  -1.999  19.134   6.990
  143AUL    AUL  130  -2.225  19.247   6.706
  144THSLK    S  131  -2.248  19.511   6.668
  145ETHY    C1  132  -2.492  19.444   6.281
  146ETHY    C1  133  -2.784  19.463   5.807
  147THSLK    S  134  -2.173  18.960   6.855
  148ETHY    C1  135  -2.410  18.667   6.587
  149ETHY    C1  136  -2.635  18.346   6.190
  150AUSL   AUS  137  -1.898  19.702   6.827
  151AUSL   AUS  138  -2.244  19.815   7.084
  152AUL    AUL  139  -2.225  19.854   6.706
  153THSLK    S  140  -2.390  19.950   6.894
  154ETHY    C1  141  -2.679  20.114   6.572
  155ETHY    C1  142  -3.070  20.359   6.259
  156THSLK    S  143  -1.985  19.671   6.562
  157ETHY    C1  144  -2.098  19.681   6.114
  158ETHY    C1  145  -2.246  19.789   5.587
  159AUSL   AUS  146  -1.154  19.960   7.501
  160AUSL   AUS  147  -1.224  19.815   7.084
  161AUL    AUL  148  -0.940  20.041   7.197
  162THSLK    S  149  -1.044  19.932   6.920
  163ETHY    C1  150  -0.703  20.065   6.638
  164ETHY    C1  151  -0.327  20.319   6.314
  165THSLK    S  152  -0.881  20.031   7.501
  166ETHY    C1  153  -0.457  20.215   7.497
  167ETHY    C1  154   0.007  20.524   7.498
  168AUSL   AUS  155  -1.060  19.714   7.349
  169AUSL   AUS  156  -1.060  19.387   7.652
  170AUL    AUL  157  -0.753  19.551   7.501
  171THSLK    S  158  -0.793  19.769   7.341
  172ETHY    C1  159  -0.341  19.825   7.262
  173ETHY    C1  160   0.184  19.990   7.172
  174THSLK    S  161  -0.814  19.255   7.659
  175ETHY    C1  162  -0.397  19.070   7.728
  176ETHY    C1  163   0.139  18.942   7.820
  177AUSL   AUS  164  -1.060  19.714   7.652
  178AUSL   AUS  165  -1.318  20.061   7.765
  179AUL    AUL  166  -0.940  20.041   7.804
  180THSLK    S  167  -1.132  20.196   7.925
  181ETHY    C1  168  -0.816  20.464   8.128
  182ETHY    C1  169  -0.501  20.861   8.362
  183THSLK    S  170  -0.793  19.769   7.661
  184ETHY    C1  171  -0.341  19.825   7.733
  185ETHY    C1  172   0.185  19.990   7.824
  186AUSL   AUS  173  -2.314  19.960   7.501
  187AUSL   AUS  174  -2.244  19.815   7.917
  188AUL    AUL  175  -2.528  20.041   7.804
  189THSLK    S  176  -2.391  19.950   8.107
  190ETHY    C1  177  -2.675  20.119   8.430
  191ETHY    C1  178  -3.067  20.364   8.743
  192THSLK    S  179  -2.545  20.098   7.501
  193ETHY    C1  180  -2.899  20.396   7.497
  194ETHY    C1  181  -3.383  20.673   7.498
  195AUSL   AUS  182  -2.408  19.714   7.349
  196AUSL   AUS  183  -2.151  20.061   7.236
  197AUL    AUL  184  -2.528  20.041   7.197
  198THSLK    S  185  -2.654  19.824   7.307
  199ETHY    C1  186  -3.072  19.969   7.173
  200ETHY    C1  187  -3.607  20.109   7.099
  201THSLK    S  188  -2.282  20.230   7.056
  202ETHY    C1  189  -2.506  20.552   6.812
  203ETHY    C1  190  -2.846  20.934   6.589
  204AUSL   AUS  191  -2.408  19.714   7.652
  205AUSL   AUS  192  -2.408  19.387   7.349
  206AUL    AUL  193  -2.716  19.551   7.501
  207THSLK    S  194  -2.675  19.309   7.377
  208ETHY    C1  195  -3.128  19.220   7.359
  209ETHY    C1  196  -3.653  19.065   7.252
  210THSLK    S  197  -2.654  19.824   7.694
  211ETHY    C1  198  -3.071  19.975   7.825
  212ETHY    C1  199  -3.606  20.113   7.900
  213AUSL   AUS  200  -1.154  19.142   7.501
  214AUSL   AUS  201  -1.224  19.286   7.917
  215AUL    AUL  202  -0.940  19.060   7.804
  216THSLK    S  203  -0.923  19.003   7.501
  217ETHY    C1  204  -0.569  18.705   7.497
  218ETHY    C1  205  -0.085  18.428   7.498
  219THSLK    S  206  -1.078  19.099   8.070
  220ETHY    C1  207  -0.790  18.844   8.326
  221ETHY    C1  208  -0.398  18.624   8.657
  222AUSL   AUS  209  -1.060  19.387   7.349
  223AUSL   AUS  210  -1.318  19.040   7.236
  224AUL    AUL  211  -0.940  19.060   7.197
  225THSLK    S  212  -0.814  19.255   7.343
  226ETHY    C1  213  -0.398  19.070   7.266
  227ETHY    C1  214   0.138  18.942   7.176
  228THSLK    S  215  -1.186  18.849   7.092
  229ETHY    C1  216  -0.965  18.488   6.907
  230ETHY    C1  217  -0.624  18.118   6.667
  231AUSL   AUS  218  -2.314  19.142   7.501
  232AUSL   AUS  219  -2.244  19.286   7.084
  233AUL    AUL  220  -2.528  19.060   7.197
  234THSLK    S  221  -2.424  19.118   6.958
  235ETHY    C1  222  -2.770  18.898   6.743
  236ETHY    C1  223  -3.145  18.668   6.400
  237THSLK    S  224  -2.587  19.070   7.501
  238ETHY    C1  225  -3.011  18.887   7.497
  239ETHY    C1  226  -3.475  18.577   7.498
  240AUSL   AUS  227  -2.408  19.387   7.652
  241AUSL   AUS  228  -2.151  19.040   7.765
  242AUL    AUL  229  -2.528  19.060   7.804
  243THSLK    S  230  -2.337  18.883   7.889
  244ETHY    C1  231  -2.650  18.577   8.033
  245ETHY    C1  232  -2.965  18.190   8.284
  246THSLK    S  233  -2.675  19.310   7.625
  247ETHY    C1  234  -3.127  19.214   7.639
  248ETHY    C1  235  -3.652  19.061   7.746
  249AUSL   AUS  236  -1.734  20.131   7.910
  250AUSL   AUS  237  -2.151  20.061   7.765
  251AUL    AUL  238  -2.038  20.345   7.991
  252THSLK    S  239  -2.282  20.229   7.945
  253ETHY    C1  240  -2.503  20.557   8.185
  254ETHY    C1  241  -2.844  20.937   8.409
  255THSLK    S  242  -1.700  20.372   8.033
  256ETHY    C1  243  -1.642  20.744   8.301
  257ETHY    C1  244  -1.658  21.223   8.586
  258AUSL   AUS  245  -1.886  20.224   7.664
  259AUSL   AUS  246  -1.583  20.224   7.337
  260AUL    AUL  247  -1.734  20.532   7.501
  261THSLK    S  248  -1.855  20.484   7.770
  262ETHY    C1  249  -1.865  20.925   7.907
  263ETHY    C1  250  -1.974  21.454   8.048
  264THSLK    S  251  -1.538  20.473   7.235
  265ETHY    C1  252  -1.400  20.891   7.097
  266ETHY    C1  253  -1.328  21.426   6.955
  267AUSL   AUS  254  -1.583  20.224   7.664
  268AUSL   AUS  255  -1.469  19.967   8.011
  269AUL    AUL  256  -1.431  20.345   7.991
  270THSLK    S  257  -1.295  20.095   8.185
  271ETHY    C1  258  -1.059  20.314   8.517
  272ETHY    C1  259  -0.833  20.656   8.895
  273THSLK    S  260  -1.538  20.472   7.767
  274ETHY    C1  261  -1.399  20.893   7.898
  275ETHY    C1  262  -1.326  21.427   8.041
  276AUSL   AUS  263  -1.734  18.971   7.910
  277AUSL   AUS  264  -1.318  19.040   7.765
  278AUL    AUL  265  -1.431  18.756   7.991
  279THSLK    S  266  -1.768  18.707   7.997
  280ETHY    C1  267  -1.823  18.298   8.205
  281ETHY    C1  268  -1.808  17.830   8.507
  282THSLK    S  269  -1.186  18.849   7.910
  283ETHY    C1  270  -0.963  18.487   8.089
  284ETHY    C1  271  -0.622  18.117   8.330
  285AUSL   AUS  272  -1.886  18.877   7.664
  286AUSL   AUS  273  -1.999  19.134   8.011
  287AUL    AUL  274  -2.038  18.756   7.991
  288THSLK    S  275  -1.931  18.624   7.746
  289ETHY    C1  276  -2.068  18.193   7.843
  290ETHY    C1  277  -2.141  17.661   7.996
  291THSLK    S  278  -2.174  18.960   8.146
  292ETHY    C1  279  -2.405  18.662   8.413
  293ETHY    C1  280  -2.632  18.342   8.810
  294AUSL   AUS  281  -1.583  18.877   7.664
  295AUSL   AUS  282  -1.886  18.877   7.337
  296AUL    AUL  283  -1.734  18.569   7.501
  297THSLK    S  284  -1.931  18.624   7.255
  298ETHY    C1  285  -2.070  18.195   7.152
  299ETHY    C1  286  -2.142  17.663   7.001
  300THSLK    S  287  -1.614  18.612   7.750
  301ETHY    C1  288  -1.601  18.161   7.852
  302ETHY    C1  289  -1.493  17.635   8.003
  303AUSL   AUS  290  -1.734  20.131   7.092
  304AUSL   AUS  291  -1.318  20.061   7.236
  305AUL    AUL  292  -1.431  20.345   7.010
  306THSLK    S  293  -1.700  20.372   6.969
  307ETHY    C1  294  -1.645  20.741   6.696
  308ETHY    C1  295  -1.661  21.220   6.412
  309THSLK    S  296  -1.131  20.196   7.077
  310ETHY    C1  297  -0.818  20.463   6.868
  311ETHY    C1  298  -0.503  20.860   6.634
  312AUSL   AUS  299  -1.886  20.224   7.337
  313AUSL   AUS  300  -1.999  19.967   6.990
  314AUL    AUL  301  -2.038  20.345   7.010
  315THSLK    S  302  -1.855  20.485   7.232
  316ETHY    C1  303  -1.867  20.923   7.088
  317ETHY    C1  304  -1.975  21.452   6.948
  318THSLK    S  305  -2.126  20.110   6.799
  319ETHY    C1  306  -2.284  20.350   6.437
  320ETHY    C1  307  -2.532  20.685   6.067
  321AUSL   AUS  308  -1.734  18.971   7.092
  322AUSL   AUS  309  -2.151  19.040   7.236
  323AUL    AUL  310  -2.038  18.756   7.010
  324THSLK    S  311  -2.337  18.883   7.113
  325ETHY    C1  312  -2.653  18.581   6.964
  326ETHY    C1  313  -2.967  18.194   6.714
  327THSLK    S  314  -1.768  18.707   7.004
  328ETHY    C1  315  -1.827  18.302   6.791
  329ETHY    C1  316  -1.810  17.832   6.490
  330AUSL   AUS  317  -1.583  18.877   7.337
  331AUSL   AUS  318  -1.469  19.134   6.990
  332AUL    AUL  319  -1.431  18.756   7.010
  333THSLK    S  320  -1.613  18.611   7.252
  334ETHY    C1  321  -1.603  18.163   7.143
  335ETHY    C1  322  -1.495  17.636   6.993
  336THSLK    S  323  -1.341  18.945   6.839
  337ETHY    C1  324  -1.189  18.627   6.541
  338ETHY    C1  325  -0.940  18.313   6.152
  339AUC    AUC  326  16.858  22.280   7.501
  340AUC    AUC  327  17.103  22.280   7.349
  341AUC    AUC  328  17.103  22.280   7.652
  342AUC    AUC  329  16.612  22.280   7.349
  343AUC    AUC  330  16.612  22.280   7.652
  344AUC    AUC  331  16.706  22.525   7.501
  345AUC    AUC  332  17.009  22.525   7.501
  346AUC    AUC  333  16.706  22.034   7.501
  347AUC    AUC  334  17.009  22.034   7.501
  348AUC    AUC  335  16.858  22.128   7.746
  349AUC    AUC  336  16.858  22.431   7.746
  350AUC    AUC  337  16.858  22.128   7.255
  351AUC    AUC  338  16.858  22.431   7.255
  352AUC    AUC  339  17.349  22.280   7.197
  353AUC    AUC  340  17.349  22.280   7.501
  354AUC    AUC  341  17.349  22.280   7.804
  355AUC    AUC  342  16.367  22.280   7.197
  356AUC    AUC  343  16.367  22.280   7.501
  357AUC    AUC  344  16.367  22.280   7.804
  358AUC    AUC  345  16.554  22.770   7.501
  359AUC    AUC  346  16.858  22.770   7.501
  360AUC    AUC  347  17.161  22.770   7.501
  361AUC    AUC  348  16.554  21.789   7.501
  362AUC    AUC  349  16.858  21.789   7.501
  363AUC    AUC  350  17.161  21.789   7.501
  364AUC    AUC  351  16.858  21.976   7.991
  365AUC    AUC  352  16.858  22.280   7.991
  366AUC    AUC  353  16.858  22.583   7.991
  367AUC    AUC  354  16.858  21.976   7.010
  368AUC    AUC  355  16.858  22.280   7.010
  369AUC    AUC  356  16.858  22.583   7.010
  370AUC    AUC  357  17.103  22.128   7.898
  371AUC    AUC  358  17.103  22.431   7.898
  372AUC    AUC  359  17.103  22.128   7.103
  373AUC    AUC  360  17.103  22.431   7.103
  374AUC    AUC  361  16.612  22.128   7.898
  375AUC    AUC  362  16.612  22.431   7.898
  376AUC    AUC  363  16.612  22.128   7.103
  377AUC    AUC  364  16.612  22.431   7.103
  378AUC    AUC  365  17.255  22.525   7.349
  379AUC    AUC  366  17.255  22.525   7.652
  380AUC    AUC  367  16.461  22.525   7.349
  381AUC    AUC  368  16.461  22.525   7.652
  382AUC    AUC  369  17.255  22.034   7.349
  383AUC    AUC  370  17.255  22.034   7.652
  384AUC    AUC  371  16.461  22.034   7.349
  385AUC    AUC  372  16.461  22.034   7.652
  386AUC    AUC  373  16.706  22.677   7.746
  387AUC    AUC  374  17.009  22.677   7.746
  388AUC    AUC  375  16.706  21.883   7.746
  389AUC    AUC  376  17.009  21.883   7.746
  390AUC    AUC  377  16.706  22.677   7.255
  391AUC    AUC  378  17.009  22.677   7.255
  392AUC    AUC  379  16.706  21.883   7.255
  393AUC    AUC  380  17.009  21.883   7.255
  394AUSL   AUS  381  17.267  22.280   8.081
  395AUSL   AUS  382  17.123  21.863   8.011
  396AUL    AUL  383  17.349  21.976   8.295
  397THSLK    S  384  17.250  21.675   8.163
  398ETHY    C1  385  17.408  21.354   8.456
  399ETHY    C1  386  17.656  21.041   8.845
  400THSLK    S  387  17.372  22.240   8.333
  401ETHY    C1  388  17.615  22.173   8.720
  402ETHY    C1  389  17.908  22.192   9.194
  403AUSL   AUS  390  17.021  22.128   8.174
  404AUSL   AUS  391  16.694  22.431   8.174
  405AUL    AUL  392  16.858  22.280   8.482
  406THSLK    S  393  17.108  22.082   8.426
  407ETHY    C1  394  17.221  21.941   8.852
  408ETHY    C1  395  17.370  21.870   9.385
  409THSLK    S  396  16.606  22.400   8.439
  410ETHY    C1  397  16.501  22.411   8.889
  411ETHY    C1  398  16.351  22.519   9.415
  412AUSL   AUS  399  17.021  22.431   8.174
  413AUSL   AUS  400  17.368  22.544   7.917
  414AUL    AUL  401  17.349  22.583   8.295
  415THSLK    S  402  17.109  22.477   8.426
  416ETHY    C1  403  17.215  22.617   8.854
  417ETHY    C1  404  17.365  22.689   9.386
  418THSLK    S  405  17.548  22.660   8.082
  419ETHY    C1  406  17.893  22.795   8.358
  420ETHY    C1  407  18.268  23.049   8.683
  421AUSL   AUS  408  17.267  22.280   6.921
  422AUSL   AUS  409  17.123  22.696   6.990
  423AUL    AUL  410  17.349  22.583   6.706
  424THSLK    S  411  17.373  22.240   6.668
  425ETHY    C1  412  17.610  22.173   6.278
  426ETHY    C1  413  17.903  22.192   5.804
  427THSLK    S  414  17.298  22.824   6.816
  428ETHY    C1  415  17.529  23.042   6.480
  429ETHY    C1  416  17.755  23.384   6.102
  430AUSL   AUS  417  17.021  22.128   6.827
  431AUSL   AUS  418  17.368  22.015   7.084
  432AUL    AUL  419  17.349  21.976   6.706
  433THSLK    S  420  17.514  21.828   6.932
  434ETHY    C1  421  17.798  21.574   6.670
  435ETHY    C1  422  18.190  21.354   6.340
  436THSLK    S  423  17.109  22.082   6.575
  437ETHY    C1  424  17.215  21.942   6.147
  438ETHY    C1  425  17.365  21.870   5.615
  439AUSL   AUS  426  17.021  22.431   6.827
  440AUSL   AUS  427  16.694  22.128   6.827
  441AUL    AUL  428  16.858  22.280   6.519
  442THSLK    S  429  16.594  22.082   6.579
  443ETHY    C1  430  16.460  21.944   6.158
  444ETHY    C1  431  16.317  21.872   5.624
  445THSLK    S  432  17.122  22.399   6.566
  446ETHY    C1  433  17.249  22.408   6.121
  447ETHY    C1  434  17.393  22.517   5.594
  448AUSL   AUS  435  16.449  22.280   8.081
  449AUSL   AUS  436  16.593  22.696   8.011
  450AUL    AUL  437  16.367  22.583   8.295
  451THSLK    S  438  16.343  22.240   8.333
  452ETHY    C1  439  16.106  22.173   8.723
  453ETHY    C1  440  15.812  22.192   9.197
  454THSLK    S  441  16.465  22.838   8.202
  455ETHY    C1  442  16.312  23.083   8.563
  456ETHY    C1  443  16.064  23.418   8.933
  457AUSL   AUS  444  16.694  22.128   8.174
  458AUSL   AUS  445  16.348  22.015   7.917
  459AUL    AUL  446  16.367  21.976   8.295
  460THSLK    S  447  16.167  21.847   8.043
  461ETHY    C1  448  15.826  21.621   8.259
  462ETHY    C1  449  15.450  21.393   8.602
  463THSLK    S  450  16.594  22.082   8.422
  464ETHY    C1  451  16.466  21.943   8.844
  465ETHY    C1  452  16.322  21.871   9.378
  466AUSL   AUS  453  16.449  22.280   6.921
  467AUSL   AUS  454  16.593  21.863   6.990
  468AUL    AUL  455  16.367  21.976   6.706
  469THSLK    S  456  16.344  22.240   6.668
  470ETHY    C1  457  16.100  22.173   6.281
  471ETHY    C1  458  15.808  22.192   5.807
  472THSLK    S  459  16.419  21.689   6.855
  473ETHY    C1  460  16.182  21.396   6.587
  474ETHY    C1  461  15.957  21.075   6.190
  475AUSL   AUS  462  16.694  22.431   6.827
  476AUSL   AUS  463  16.348  22.544   7.084
  477AUL    AUL  464  16.367  22.583   6.706
  478THSLK    S  465  16.202  22.679   6.894
  479ETHY    C1  466  15.913  22.843   6.572
  480ETHY    C1  467  15.522  23.088   6.259
  481THSLK    S  468  16.607  22.400   6.562
  482ETHY    C1  469  16.494  22.410   6.114
  483ETHY    C1  470  16.346  22.518   5.587
  484AUSL   AUS  471  17.438  22.689   7.501
  485AUSL   AUS  472  17.368  22.544   7.084
  486AUL    AUL  473  17.652  22.770   7.197
  487THSLK    S  474  17.548  22.661   6.920
  488ETHY    C1  475  17.889  22.794   6.638
  489ETHY    C1  476  18.265  23.048   6.314
  490THSLK    S  477  17.711  22.760   7.501
  491ETHY    C1  478  18.135  22.944   7.497
  492ETHY    C1  479  18.599  23.253   7.498
  493AUSL   AUS  480  17.532  22.443   7.349
  494AUSL   AUS  481  17.532  22.116   7.652
  495AUL    AUL  482  17.839  22.280   7.501
  496THSLK    S  483  17.799  22.498   7.341
  497ETHY    C1  484  18.251  22.554   7.262
  498ETHY    C1  485  18.776  22.719   7.172
  499THSLK    S  486  17.778  21.984   7.659
  500ETHY    C1  487  18.195  21.799   7.728
  501ETHY    C1  488  18.731  21.671   7.820
  502AUSL   AUS  489  17.532  22.443   7.652
  503AUSL   AUS  490  17.274  22.790   7.765
  504AUL    AUL  491  17.652  22.770   7.804
  505THSLK    S  492  17.460  22.925   7.925
  506ETHY    C1  493  17.776  23.193   8.128
  507ETHY    C1  494  18.091  23.590   8.362
  508THSLK    S  495  17.799  22.498   7.661
  509ETHY    C1  496  18.251  22.554   7.733
  510ETHY    C1  497  18.777  22.719   7.824
  511AUSL   AUS  498  16.278  22.689   7.501
  512AUSL   AUS  499  16.348  22.544   7.917
  513AUL    AUL  500  16.064  22.770   7.804
  514THSLK    S  501  16.201  22.679   8.107
  515ETHY    C1  502  15.917  22.848   8.430
  516ETHY    C1  503  15.525  23.093   8.743
  517THSLK    S  504  16.047  22.827   7.501
  518ETHY    C1  505  15.693  23.125   7.497
  519ETHY    C1  506  15.209  23.402   7.498
  520AUSL   AUS  507  16.184  22.443   7.349
  521AUSL   AUS  508  16.441  22.790   7.236
  522AUL    AUL  509  16.064  22.770   7.197
  523THSLK    S  510  15.938  22.553   7.307
  524ETHY    C1  511  15.520  22.698   7.173
  525ETHY    C1  512  14.985  22.838   7.099
  526THSLK    S  513  16.310  22.959   7.056
  527ETHY    C1  514  16.086  23.281   6.812
  528ETHY    C1  515  15.746  23.663   6.589
  529AUSL   AUS  516  16.184  22.443   7.652
  530AUSL   AUS  517  16.184  22.116   7.349
  531AUL    AUL  518  15.876  22.280   7.501
  532THSLK    S  519  15.917  22.038   7.377
  533ETHY    C1  520  15.464  21.949   7.359
  534ETHY    C1  521  14.939  21.794   7.252
  535THSLK    S  522  15.938  22.553   7.694
  536ETHY    C1  523  15.521  22.704   7.825
  537ETHY    C1  524  14.986  22.842   7.900
  538AUSL   AUS  525  17.438  21.871   7.501
  539AUSL   AUS  526  17.368  22.015   7.917
  540AUL    AUL  527  17.652  21.789   7.804
  541THSLK    S  528  17.669  21.732   7.501
  542ETHY    C1  529  18.023  21.434   7.497
  543ETHY    C1  530  18.507  21.157   7.498
  544THSLK    S  531  17.514  21.828   8.070
  545ETHY    C1  532  17.802  21.573   8.326
  546ETHY    C1  533  18.194  21.353   8.657
  547AUSL   AUS  534  17.532  22.116   7.349
  548AUSL   AUS  535  17.274  21.769   7.236
  549AUL    AUL  536  17.652  21.789   7.197
  550THSLK    S  537  17.778  21.984   7.343
  551ETHY    C1  538  18.194  21.799   7.266
  552ETHY    C1  539  18.730  21.671   7.176
  553THSLK    S  540  17.406  21.578   7.092
  554ETHY    C1  541  17.627  21.217   6.907
  555ETHY    C1  542  17.968  20.847   6.667
  556AUSL   AUS  543  16.278  21.871   7.501
  557AUSL   AUS  544  16.348  22.015   7.084
  558AUL    AUL  545  16.064  21.789   7.197
  559THSLK    S  546  16.168  21.847   6.958
  560ETHY    C1  547  15.822  21.627   6.743
  561ETHY    C1  548  15.447  21.397   6.400
  562THSLK    S  549  16.005  21.799   7.501
  563ETHY    C1  550  15.581  21.616   7.497
  564ETHY    C1  551  15.117  21.306   7.498
  565AUSL   AUS  552  16.184  22.116   7.652
  566AUSL   AUS  553  16.441  21.769   7.765
  567AUL    AUL  554  16.064  21.789   7.804
  568THSLK    S  555  16.255  21.612   7.889
  569ETHY    C1  556  15.942  21.306   8.033
  570ETHY    C1  557  15.627  20.919   8.284
  571THSLK    S  558  15.917  22.039   7.625
  572ETHY    C1  559  15.465  21.943   7.639
  573ETHY    C1  560  14.940  21.790   7.746
  574AUSL   AUS  561  16.858  22.860   7.910
  575AUSL   AUS  562  16.441  22.790   7.765
  576AUL    AUL  563  16.554  23.074   7.991
  577THSLK    S  564  16.310  22.958   7.945
  578ETHY    C1  565  16.089  23.286   8.185
  579ETHY    C1  566  15.748  23.666   8.409
  580THSLK    S  567  16.892  23.101   8.033
  581ETHY    C1  568  16.950  23.473   8.301
  582ETHY    C1  569  16.934  23.952   8.586
  583AUSL   AUS  570  16.706  22.953   7.664
  584AUSL   AUS  571  17.009  22.953   7.337
  585AUL    AUL  572  16.858  23.261   7.501
  586THSLK    S  573  16.737  23.213   7.770
  587ETHY    C1  574  16.727  23.654   7.907
  588ETHY    C1  575  16.618  24.183   8.048
  589THSLK    S  576  17.054  23.202   7.235
  590ETHY    C1  577  17.192  23.620   7.097
  591ETHY    C1  578  17.264  24.155   6.955
  592AUSL   AUS  579  17.009  22.953   7.664
  593AUSL   AUS  580  17.123  22.696   8.011
  594AUL    AUL  581  17.161  23.074   7.991
  595THSLK    S  582  17.297  22.824   8.185
  596ETHY    C1  583  17.533  23.043   8.517
  597ETHY    C1  584  17.759  23.385   8.895
  598THSLK    S  585  17.054  23.201   7.767
  599ETHY    C1  586  17.193  23.622   7.898
  600ETHY    C1  587  17.266  24.156   8.041
  601AUSL   AUS  588  16.858  21.700   7.910
  602AUSL   AUS  589  17.274  21.769   7.765
  603AUL    AUL  590  17.161  21.485   7.991
  604THSLK    S  591  16.824  21.436   7.997
  605ETHY    C1  592  16.769  21.027   8.205
  606ETHY    C1  593  16.784  20.559   8.507
  607THSLK    S  594  17.406  21.578   7.910
  608ETHY    C1  595  17.629  21.216   8.089
  609ETHY    C1  596  17.970  20.846   8.330
  610AUSL   AUS  597  16.706  21.606   7.664
  611AUSL   AUS  598  16.593  21.863   8.011
  612AUL    AUL  599  16.554  21.485   7.991
  613THSLK    S  600  16.661  21.353   7.746
  614ETHY    C1  601  16.524  20.922   7.843
  615ETHY    C1  602  16.451  20.390   7.996
  616THSLK    S  603  16.418  21.689   8.146
  617ETHY    C1  604  16.187  21.391   8.413
  618ETHY    C1  605  15.960  21.071   8.810
  619AUSL   AUS  606  17.009  21.606   7.664
  620AUSL   AUS  607  16.706  21.606   7.337
  621AUL    AUL  608  16.858  21.298   7.501
  622THSLK    S  609  16.661  21.353   7.255
  623ETHY    C1  610  16.522  20.924   7.152
  624ETHY    C1  611  16.450  20.392   7.001
  625THSLK    S  612  16.978  21.341   7.750
  626ETHY    C1  613  16.991  20.890   7.852
  627ETHY    C1  614  17.099  20.364   8.003
  628AUSL   AUS  615  16.858  22.860   7.092
  629AUSL   AUS  616  17.274  22.790   7.236
  630AUL    AUL  617  17.161  23.074   7.010
  631THSLK    S  618  16.892  23.101   6.969
  632ETHY    C1  619  16.947  23.470   6.696
  633ETHY    C1  620  16.931  23.949   6.412
  634THSLK    S  621  17.461  22.925   7.077
  635ETHY    C1  622  17.774  23.192   6.868
  636ETHY    C1  623  18.089  23.589   6.634
  637AUSL   AUS  624  16.706  22.953   7.337
  638AUSL   AUS  625  16.593  22.696   6.990
  639AUL    AUL  626  16.554  23.074   7.010
  640THSLK    S  627  16.737  23.214   7.232
  641ETHY    C1  628  16.725  23.652   7.088
  642ETHY    C1  629  16.617  24.181   6.948
  643THSLK    S  630  16.466  22.839   6.799
  644ETHY    C1  631  16.308  23.079   6.437
  645ETHY    C1  632  16.060  23.414   6.067
  646AUSL   AUS  633  16.858  21.700   7.092
  647AUSL   AUS  634  16.441  21.769   7.236
  648AUL    AUL  635  16.554  21.485   7.010
  649THSLK    S  636  16.255  21.612   7.113
  650ETHY    C1  637  15.939  21.310   6.964
  651ETHY    C1  638  15.625  20.923   6.714
  652THSLK    S  639  16.824  21.436   7.004
  653ETHY    C1  640  16.765  21.031   6.791
  654ETHY    C1  641  16.782  20.561   6.490
  655AUSL   AUS  642  17.009  21.606   7.337
  656AUSL   AUS  643  17.123  21.863   6.990
  657AUL    AUL  644  17.161  21.485   7.010
  658THSLK    S  645  16.979  21.340   7.252
  659ETHY    C1  646  16.989  20.892   7.143
  660ETHY    C1  647  17.097  20.365   6.993
  661THSLK    S  648  17.251  21.674   6.839
  662ETHY    C1  649  17.403  21.356   6.541
  663ETHY    C1  650  17.652  21.042   6.152
  664AUC    AUC  651  13.439  39.435   7.501
  665AUC    AUC  652  13.684  39.435   7.349
  666AUC    AUC  653  13.684  39.435   7.652
  667AUC    AUC  654  13.193  39.435   7.349
  668AUC    AUC  655  13.193  39.435   7.652
  669AUC    AUC  656  13.287  39.680   7.501
  670AUC    AUC  657  13.590  39.680   7.501
  671AUC    AUC  658  13.287  39.189   7.501
  672AUC    AUC  659  13.590  39.189   7.501
  673AUC    AUC  660  13.439  39.283   7.746
  674AUC    AUC  661  13.439  39.586   7.746
  675AUC    AUC  662  13.439  39.283   7.255
  676AUC    AUC  663  13.439  39.586   7.255
  677AUC    AUC  664  13.930  39.435   7.197
  678AUC    AUC  665  13.930  39.435   7.501
  679AUC    AUC  666  13.930  39.435   7.804
  680AUC    AUC  667  12.948  39.435   7.197
  681AUC    AUC  668  12.948  39.435   7.501
  682AUC    AUC  669  12.948  39.435   7.804
  683AUC    AUC  670  13.135  39.925   7.501
  684AUC    AUC  671  13.439  39.925   7.501
  685AUC    AUC  672  13.742  39.925   7.501
  686AUC    AUC  673  13.135  38.944   7.501
  687AUC    AUC  674  13.439  38.944   7.501
  688AUC    AUC  675  13.742  38.944   7.501
  689AUC    AUC  676  13.439  39.131   7.991
  690AUC    AUC  677  13.439  39.435   7.991
  691AUC    AUC  678  13.439  39.738   7.991
  692AUC    AUC  679  13.439  39.131   7.010
  693AUC    AUC  680  13.439  39.435   7.010
  694AUC    AUC  681  13.439  39.738   7.010
  695AUC    AUC  682  13.684  39.283   7.898
  696AUC    AUC  683  13.684  39.586   7.898
  697AUC    AUC  684  13.684  39.283   7.103
  698AUC    AUC  685  13.684  39.586   7.103
  699AUC    AUC  686  13.193  39.283   7.898
  700AUC    AUC  687  13.193  39.586   7.898
  701AUC    AUC  688  13.193  39.283   7.103
  702AUC    AUC  689  13.193  39.586   7.103
  703AUC    AUC  690  13.836  39.680   7.349
  704AUC    AUC  691  13.836  39.680   7.652
  705AUC    AUC  692  13.042  39.680   7.349
  706AUC    AUC  693  13.042  39.680   7.652
  707AUC    AUC  694  13.836  39.189   7.349
  708AUC    AUC  695  13.836  39.189   7.652
  709AUC    AUC  696  13.042  39.189   7.349
  710AUC    AUC  697  13.042  39.189   7.652
  711AUC    AUC  698  13.287  39.832   7.746
  712AUC    AUC  699  13.590  39.832   7.746
  713AUC    AUC  700  13.287  39.038   7.746
  714AUC    AUC  701  13.590  39.038   7.746
  715AUC    AUC  702  13.287  39.832   7.255
  716AUC    AUC  703  13.590  39.832   7.255
  717AUC    AUC  704  13.287  39.038   7.255
  718AUC    AUC  705  13.590  39.038   7.255
  719AUSL   AUS  706  13.848  39.435   8.081
  720AUSL   AUS  707  13.704  39.018   8.011
  721AUL    AUL  708  13.930  39.131   8.295
  722THSLK    S  709  13.831  38.830   8.163
  723ETHY    C1  710  13.989  38.509   8.456
  724ETHY    C1  711  14.237  38.196   8.845
  725THSLK    S  712  13.953  39.395   8.333
  726ETHY    C1  713  14.196  39.328   8.720
  727ETHY    C1  714  14.489  39.347   9.194
  728AUSL   AUS  715  13.602  39.283   8.174
  729AUSL   AUS  716  13.275  39.586   8.174
  730AUL    AUL  717  13.439  39.435   8.482
  731THSLK    S  718  13.689  39.237   8.426
  732ETHY    C1  719  13.802  39.096   8.852
  733ETHY    C1  720  13.951  39.025   9.385
  734THSLK    S  721  13.187  39.555   8.439
  735ETHY    C1  722  13.082  39.566   8.889
  736ETHY    C1  723  12.932  39.674   9.415
  737AUSL   AUS  724  13.602  39.586   8.174
  738AUSL   AUS  725  13.949  39.699   7.917
  739AUL    AUL  726  13.930  39.738   8.295
  740THSLK    S  727  13.690  39.632   8.426
  741ETHY    C1  728  13.796  39.772   8.854
  742ETHY    C1  729  13.946  39.844   9.386
  743THSLK    S  730  14.129  39.815   8.082
  744ETHY    C1  731  14.474  39.950   8.358
  745ETHY    C1  732  14.849  40.204   8.683
  746AUSL   AUS  733  13.848  39.435   6.921
  747AUSL   AUS  734  13.704  39.851   6.990
  748AUL    AUL  735  13.930  39.738   6.706
  749THSLK    S  736  13.954  39.395   6.668
  750ETHY    C1  737  14.191  39.328   6.278
  751ETHY    C1  738  14.484  39.347   5.804
  752THSLK    S  739  13.879  39.979   6.816
  753ETHY    C1  740  14.110  40.197   6.480
  754ETHY    C1  741  14.336  40.539   6.102
  755AUSL   AUS  742  13.602  39.283   6.827
  756AUSL   AUS  743  13.949  39.170   7.084
  757AUL    AUL  744  13.930  39.131   6.706
  758THSLK    S  745  14.095  38.983   6.932
  759ETHY    C1  746  14.379  38.729   6.670
  760ETHY    C1  747  14.771  38.509   6.340
  761THSLK    S  748  13.690  39.237   6.575
  762ETHY    C1  749  13.796  39.097   6.147
  763ETHY    C1  750  13.946  39.025   5.615
  764AUSL   AUS  751  13.602  39.586   6.827
  765AUSL   AUS  752  13.275  39.283   6.827
  766AUL    AUL  753  13.439  39.435   6.519
  767THSLK    S  754  13.175  39.237   6.579
  768ETHY    C1  755  13.041  39.099   6.158
  769ETHY    C1  756  12.898  39.027   5.624
  770THSLK    S  757  13.703  39.554   6.566
  771ETHY    C1  758  13.830  39.563   6.121
  772ETHY    C1  759  13.974  39.672   5.594
  773AUSL   AUS  760  13.030  39.435   8.081
  774AUSL   AUS  761  13.174  39.851   8.011
  775AUL    AUL  762  12.948  39.738   8.295
  776THSLK    S  763  12.924  39.395   8.333
  777ETHY    C1  764  12.687  39.328   8.723
  778ETHY    C1  765  12.393  39.347   9.197
  779THSLK    S  766  13.046  39.993   8.202
  780ETHY    C1  767  12.893  40.238   8.563
  781ETHY    C1  768  12.645  40.573   8.933
  782AUSL   AUS  769  13.275  39.283   8.174
  783AUSL   AUS  770  12.929  39.170   7.917
  784AUL    AUL  771  12.948  39.131   8.295
  785THSLK    S  772  12.748  39.002   8.043
  786ETHY    C1  773  12.407  38.776   8.259
  787ETHY    C1  774  12.031  38.548   8.602
  788THSLK    S  775  13.175  39.237   8.422
  789ETHY    C1  776  13.047  39.098   8.844
  790ETHY    C1  777  12.903  39.026   9.378
  791AUSL   AUS  778  13.030  39.435   6.921
  792AUSL   AUS  779  13.174  39.018   6.990
  793AUL    AUL  780  12.948  39.131   6.706
  794THSLK    S  781  12.925  39.395   6.668
  795ETHY    C1  782  12.681  39.328   6.281
  796ETHY    C1  783  12.389  39.347   5.807
  797THSLK    S  784  13.000  38.844   6.855
  798ETHY    C1  785  12.763  38.551   6.587
  799ETHY    C1  786  12.538  38.230   6.190
  800AUSL   AUS  787  13.275  39.586   6.827
  801AUSL   AUS  788  12.929  39.699   7.084
  802AUL    AUL  789  12.948  39.738   6.706
  803THSLK    S  790  12.783  39.834   6.894
  804ETHY    C1  791  12.494  39.998   6.572
  805ETHY    C1  792  12.103  40.243   6.259
  806THSLK    S  793  13.188  39.555   6.562
  807ETHY    C1  794  13.075  39.565   6.114
  808ETHY    C1  795  12.927  39.673   5.587
  809AUSL   AUS  796  14.019  39.844   7.501
  810AUSL   AUS  797  13.949  39.699   7.084
  811AUL    AUL  798  14.233  39.925   7.197
  812THSLK    S  799  14.129  39.816   6.920
  813ETHY    C1  800  14.470  39.949   6.638
  814ETHY    C1  801  14.846  40.203   6.314
  815THSLK    S  802  14.292  39.915   7.501
  816ETHY    C1  803  14.716  40.099   7.497
  817ETHY    C1  804  15.180  40.408   7.498
  818AUSL   AUS  805  14.113  39.598   7.349
  819AUSL   AUS  806  14.113  39.271   7.652
  820AUL    AUL  807  14.420  39.435   7.501
  821THSLK    S  808  14.380  39.653   7.341
  822ETHY    C1  809  14.832  39.709   7.262
  823ETHY    C1  810  15.357  39.874   7.172
  824THSLK    S  811  14.359  39.139   7.659
  825ETHY    C1  812  14.776  38.954   7.728
  826ETHY    C1  813  15.312  38.826   7.820
  827AUSL   AUS  814  14.113  39.598   7.652
  828AUSL   AUS  815  13.855  39.945   7.765
  829AUL    AUL  816  14.233  39.925   7.804
  830THSLK    S  817  14.041  40.080   7.925
  831ETHY    C1  818  14.357  40.348   8.128
  832ETHY    C1  819  14.672  40.745   8.362
  833THSLK    S  820  14.380  39.653   7.661
  834ETHY    C1  821  14.832  39.709   7.733
  835ETHY    C1  822  15.358  39.874   7.824
  836AUSL   AUS  823  12.859  39.844   7.501
  837AUSL   AUS  824  12.929  39.699   7.917
  838AUL    AUL  825  12.645  39.925   7.804
  839THSLK    S  826  12.782  39.834   8.107
  840ETHY    C1  827  12.498  40.003   8.430
  841ETHY    C1  828  12.106  40.248   8.743
  842THSLK    S  829  12.628  39.982   7.501
  843ETHY    C1  830  12.274  40.280   7.497
  844ETHY    C1  831  11.790  40.557   7.498
  845AUSL   AUS  832  12.765  39.598   7.349
  846AUSL   AUS  833  13.022  39.945   7.236
  847AUL    AUL  834  12.645  39.925   7.197
  848THSLK    S  835  12.519  39.708   7.307
  849ETHY    C1  836  12.101  39.853   7.173
  850ETHY    C1  837  11.566  39.993   7.099
  851THSLK    S  838  12.891  40.114   7.056
  852ETHY    C1  839  12.667  40.436   6.812
  853ETHY    C1  840  12.327  40.818   6.589
  854AUSL   AUS  841  12.765  39.598   7.652
  855AUSL   AUS  842  12.765  39.271   7.349
  856AUL    AUL  843  12.457  39.435   7.501
  857THSLK    S  844  12.498  39.193   7.377
  858ETHY    C1  845  12.045  39.104   7.359
  859ETHY    C1  846  11.520  38.949   7.252
  860THSLK    S  847  12.519  39.708   7.694
  861ETHY    C1  848  12.102  39.859   7.825
  862ETHY    C1  849  11.567  39.997   7.900
  863AUSL   AUS  850  14.019  39.026   7.501
  864AUSL   AUS  851  13.949  39.170   7.917
  865AUL    AUL  852  14.233  38.944   7.804
  866THSLK    S  853  14.250  38.887   7.501
  867ETHY    C1  854  14.604  38.589   7.497
  868ETHY    C1  855  15.088  38.312   7.498
  869THSLK    S  856  14.095  38.983   8.070
  870ETHY    C1  857  14.383  38.728   8.326
  871ETHY    C1  858  14.775  38.508   8.657
  872AUSL   AUS  859  14.113  39.271   7.349
  873AUSL   AUS  860  13.855  38.924   7.236
  874AUL    AUL  861  14.233  38.944   7.197
  875THSLK    S  862  14.359  39.139   7.343
  876ETHY    C1  863  14.775  38.954   7.266
  877ETHY    C1  864  15.311  38.826   7.176
  878THSLK    S  865  13.987  38.733   7.092
  879ETHY    C1  866  14.208  38.372   6.907
  880ETHY    C1  867  14.549  38.002   6.667
  881AUSL   AUS  868  12.859  39.026   7.501
  882AUSL   AUS  869  12.929  39.170   7.084
  883AUL    AUL  870  12.645  38.944   7.197
  884THSLK    S  871  12.749  39.002   6.958
  885ETHY    C1  872  12.403  38.782   6.743
  886ETHY    C1  873  12.028  38.552   6.400
  887THSLK    S  874  12.586  38.954   7.501
  888ETHY    C1  875  12.162  38.771   7.497
  889ETHY    C1  876  11.698  38.461   7.498
  890AUSL   AUS  877  12.765  39.271   7.652
  891AUSL   AUS  878  13.022  38.924   7.765
  892AUL    AUL  879  12.645  38.944   7.804
  893THSLK    S  880  12.836  38.767   7.889
  894ETHY    C1  881  12.523  38.461   8.033
  895ETHY    C1  882  12.208  38.074   8.284
  896THSLK    S  883  12.498  39.194   7.625
  897ETHY    C1  884  12.046  39.098   7.639
  898ETHY    C1  885  11.521  38.945   7.746
  899AUSL   AUS  886  13.439  40.015   7.910
  900AUSL   AUS  887  13.022  39.945   7.765
  901AUL    AUL  888  13.135  40.229   7.991
  902THSLK    S  889  12.891  40.113   7.945
  903ETHY    C1  890  12.670  40.441   8.185
  904ETHY    C1  891  12.329  40.821   8.409
  905THSLK    S  892  13.473  40.256   8.033
  906ETHY    C1  893  13.531  40.628   8.301
  907ETHY    C1  894  13.515  41.107   8.586
  908AUSL   AUS  895  13.287  40.108   7.664
  909AUSL   AUS  896  13.590  40.108   7.337
  910AUL    AUL  897  13.439  40.416   7.501
  911THSLK    S  898  13.318  40.368   7.770
  912ETHY    C1  899  13.308  40.809   7.907
  913ETHY    C1  900  13.199  41.338   8.048
  914THSLK    S  901  13.635  40.357   7.235
  915ETHY    C1  902  13.773  40.775   7.097
  916ETHY    C1  903  13.845  41.310   6.955
  917AUSL   AUS  904  13.590  40.108   7.664
  918AUSL   AUS  905  13.704  39.851   8.011
  919AUL    AUL  906  13.742  40.229   7.991
  920THSLK    S  907  13.878  39.979   8.185
  921ETHY    C1  908  14.114  40.198   8.517
  922ETHY    C1  909  14.340  40.540   8.895
  923THSLK    S  910  13.635  40.356   7.767
  924ETHY    C1  911  13.774  40.777   7.898
  925ETHY    C1  912  13.847  41.311   8.041
  926AUSL   AUS  913  13.439  38.855   7.910
  927AUSL   AUS  914  13.855  38.924   7.765
  928AUL    AUL  915  13.742  38.640   7.991
  929THSLK    S  916  13.405  38.591   7.997
  930ETHY    C1  917  13.350  38.182   8.205
  931ETHY    C1  918  13.365  37.714   8.507
  932THSLK    S  919  13.987  38.733   7.910
  933ETHY    C1  920  14.210  38.371   8.089
  934ETHY    C1  921  14.551  38.001   8.330
  935AUSL   AUS  922  13.287  38.761   7.664
  936AUSL   AUS  923  13.174  39.018   8.011
  937AUL    AUL  924  13.135  38.640   7.991
  938THSLK    S  925  13.242  38.508   7.746
  939ETHY    C1  926  13.105  38.077   7.843
  940ETHY    C1  927  13.032  37.545   7.996
  941THSLK    S  928  12.999  38.844   8.146
  942ETHY    C1  929  12.768  38.546   8.413
  943ETHY    C1  930  12.541  38.226   8.810
  944AUSL   AUS  931  13.590  38.761   7.664
  945AUSL   AUS  932  13.287  38.761   7.337
  946AUL    AUL  933  13.439  38.453   7.501
  947THSLK    S  934  13.242  38.508   7.255
  948ETHY    C1  935  13.103  38.079   7.152
  949ETHY    C1  936  13.031  37.547   7.001
  950THSLK    S  937  13.559  38.496   7.750
  951ETHY    C1  938  13.572  38.045   7.852
  952ETHY    C1  939  13.680  37.519   8.003
  953AUSL   AUS  940  13.439  40.015   7.092
  954AUSL   AUS  941  13.855  39.945   7.236
  955AUL    AUL  942  13.742  40.229   7.010
  956THSLK    S  943  13.473  40.256   6.969
  957ETHY    C1  944  13.528  40.625   6.696
  958ETHY    C1  945  13.512  41.104   6.412
  959THSLK    S  946  14.042  40.080   7.077
  960ETHY    C1  947  14.355  40.347   6.868
  961ETHY    C1  948  14.670  40.744   6.634
  962AUSL   AUS  949  13.287  40.108   7.337
  963AUSL   AUS  950  13.174  39.851   6.990
  964AUL    AUL  951  13.135  40.229   7.010
  965THSLK    S  952  13.318  40.369   7.232
  966ETHY    C1  953  13.306  40.807   7.088
  967ETHY    C1  954  13.198  41.336   6.948
  968THSLK    S  955  13.047  39.994   6.799
  969ETHY    C1  956  12.889  40.234   6.437
  970ETHY    C1  957  12.641  40.569   6.067
  971AUSL   AUS  958  13.439  38.855   7.092
  972AUSL   AUS  959  13.022  38.924   7.236
  973AUL    AUL  960  13.135  38.640   7.010
  974THSLK    S  961  12.836  38.767   7.113
  975ETHY    C1  962  12.520  38.465   6.964
  976ETHY    C1  963  12.206  38.078   6.714
  977THSLK    S  964  13.405  38.591   7.004
  978ETHY    C1  965  13.346  38.186   6.791
  979ETHY    C1  966  13.363  37.716   6.490
  980AUSL   AUS  967  13.590  38.761   7.337
  981AUSL   AUS  968  13.704  39.018   6.990
  982AUL    AUL  969  13.742  38.640   7.010
  983THSLK    S  970  13.560  38.495   7.252
  984ETHY    C1  971  13.570  38.047   7.143
  985ETHY    C1  972  13.678  37.520   6.993
  986THSLK    S  973  13.832  38.829   6.839
  987ETHY    C1  974  13.984  38.511   6.541
  988ETHY    C1  975  14.233  38.197   6.152
  989AUC    AUC  976  16.435  33.149   7.501
  990AUC    AUC  977  16.680  33.149   7.349
  991AUC    AUC  978  16.680  33.149   7.652
  992AUC    AUC  979  16.189  33.149   7.349
  993AUC    AUC  980  16.189  33.149   7.652
  994AUC    AUC  981  16.283  33.394   7.501
  995AUC    AUC  982  16.586  33.394   7.501
  996AUC    AUC  983  16.283  32.903   7.501
  997AUC    AUC  984  16.586  32.903   7.501
  998AUC    AUC  985  16.435  32.997   7.746
  999AUC    AUC  986  16.435  33.300   7.746
 1000AUC    AUC  987  16.435  32.997   7.255
 1001AUC    AUC  988  16.435  33.300   7.255
 1002AUC    AUC  989  16.926  33.149   7.197
 1003AUC    AUC  990  16.926  33.149   7.501
 1004AUC    AUC  991  16.926  33.149   7.804
 1005AUC    AUC  992  15.944  33.149   7.197
 1006AUC    AUC  993  15.944  33.149   7.501
 1007AUC    AUC  994  15.944  33.149   7.804
 1008AUC    AUC  995  16.131  33.639   7.501
 1009AUC    AUC  996  16.435  33.639   7.501
 1010AUC    AUC  997  16.738  33.639   7.501
 1011AUC    AUC  998  16.131  32.658   7.501
 1012AUC    AUC  999  16.435  32.658   7.501
 1013AUC    AUC 1000  16.738  32.658   7.501
 1014AUC    AUC 1001  16.435  32.845   7.991
 1015AUC    AUC 1002  16.435  33.149   7.991
 1016AUC    AUC 1003  16.435  33.452   7.991
 1017AUC    AUC 1004  16.435  32.845   7.010
 1018AUC    AUC 1005  16.435  33.149   7.010
 1019AUC    AUC 1006  16.435  33.452   7.010
 1020AUC    AUC 1007  16.680  32.997   7.898
 1021AUC    AUC 1008  16.680  33.300   7.898
 1022AUC    AUC 1009  16.680  32.997   7.103
 1023AUC    AUC 1010  16.680  33.300   7.103
 1024AUC    AUC 1011  16.189  32.997   7.898
 1025AUC    AUC 1012  16.189  33.300   7.898
 1026AUC    AUC 1013  16.189  32.997   7.103
 1027AUC    AUC 1014  16.189  33.300   7.103
 1028AUC    AUC 1015  16.832  33.394   7.349
 1029AUC    AUC 1016  16.832  33.394   7.652
 1030AUC    AUC 1017  16.038  33.394   7.349
 1031AUC    AUC 1018  16.038  33.394   7.652
 1032AUC    AUC 1019  16.832  32.903   7.349
 1033AUC    AUC 1020  16.832  32.903   7.652
 1034AUC    AUC 1021  16.038  32.903   7.349
 1035AUC    AUC 1022  16.038  32.903   7.652
 1036AUC    AUC 1023  16.283  33.546   7.746
 1037AUC    AUC 1024  16.586  33.546   7.746
 1038AUC    AUC 1025  16.283  32.752   7.746
 1039AUC    AUC 1026  16.586  32.752   7.746
 1040AUC    AUC 1027  16.283  33.546   7.255
 1041AUC    AUC 1028  16.586  33.546   7.255
 1042AUC    AUC 1029  16.283  32.752   7.255
 1043AUC    AUC 1030  16.586  32.752   7.255
 1044AUSL   AUS 1031  16.844  33.149   8.081
 1045AUSL   AUS 1032  16.700  32.732   8.011
 1046AUL    AUL 1033  16.926  32.845   8.295
 1047THSLK    S 1034  16.827  32.544   8.163
 1048ETHY    C1 1035  16.985  32.223   8.456
 1049ETHY    C1 1036  17.233  31.910   8.845
 1050THSLK    S 1037  16.949  33.109   8.333
 1051ETHY    C1 1038  17.192  33.042   8.720
 1052ETHY    C1 1039  17.485  33.061   9.194
 1053AUSL   AUS 1040  16.598  32.997   8.174
 1054AUSL   AUS 1041  16.271  33.300   8.174
 1055AUL    AUL 1042  16.435  33.149   8.482
 1056THSLK    S 1043  16.685  32.951   8.426
 1057ETHY    C1 1044  16.798  32.810   8.852
 1058ETHY    C1 1045  16.947  32.739   9.385
 1059THSLK    S 1046  16.183  33.269   8.439
 1060ETHY    C1 1047  16.078  33.280   8.889
 1061ETHY    C1 1048  15.928  33.388   9.415
 1062AUSL   AUS 1049  16.598  33.300   8.174
 1063AUSL   AUS 1050  16.945  33.413   7.917
 1064AUL    AUL 1051  16.926  33.452   8.295
 1065THSLK    S 1052  16.686  33.346   8.426
 1066ETHY    C1 1053  16.792  33.486   8.854
 1067ETHY    C1 1054  16.942  33.558   9.386
 1068THSLK    S 1055  17.125  33.529   8.082
 1069ETHY    C1 1056  17.470  33.664   8.358
 1070ETHY    C1 1057  17.845  33.918   8.683
 1071AUSL   AUS 1058  16.844  33.149   6.921
 1072AUSL   AUS 1059  16.700  33.565   6.990
 1073AUL    AUL 1060  16.926  33.452   6.706
 1074THSLK    S 1061  16.950  33.109   6.668
 1075ETHY    C1 1062  17.187  33.042   6.278
 1076ETHY    C1 1063  17.480  33.061   5.804
 1077THSLK    S 1064  16.875  33.693   6.816
 1078ETHY    C1 1065  17.106  33.911   6.480
 1079ETHY    C1 1066  17.332  34.253   6.102
 1080AUSL   AUS 1067  16.598  32.997   6.827
 1081AUSL   AUS 1068  16.945  32.884   7.084
 1082AUL    AUL 1069  16.926  32.845   6.706
 1083THSLK    S 1070  17.091  32.697   6.932
 1084ETHY    C1 1071  17.375  32.443   6.670
 1085ETHY    C1 1072  17.767  32.223   6.340
 1086THSLK    S 1073  16.686  32.951   6.575
 1087ETHY    C1 1074  16.792  32.811   6.147
 1088ETHY    C1 1075  16.942  32.739   5.615
 1089AUSL   AUS 1076  16.598  33.300   6.827
 1090AUSL   AUS 1077  16.271  32.997   6.827
 1091AUL    AUL 1078  16.435  33.149   6.519
 1092THSLK    S 1079  16.171  32.951   6.579
 1093ETHY    C1 1080  16.037  32.813   6.158
 1094ETHY    C1 1081  15.894  32.741   5.624
 1095THSLK    S 1082  16.699  33.268   6.566
 1096ETHY    C1 1083  16.826  33.277   6.121
 1097ETHY    C1 1084  16.970  33.386   5.594
 1098AUSL   AUS 1085  16.026  33.149   8.081
 1099AUSL   AUS 1086  16.170  33.565   8.011
 1100AUL    AUL 1087  15.944  33.452   8.295
 1101THSLK    S 1088  15.920  33.109   8.333
 1102ETHY    C1 1089  15.683  33.042   8.723
 1103ETHY    C1 1090  15.389  33.061   9.197
 1104THSLK    S 1091  16.042  33.707   8.202
 1105ETHY    C1 1092  15.889  33.952   8.563
 1106ETHY    C1 1093  15.641  34.287   8.933
 1107AUSL   AUS 1094  16.271  32.997   8.174
 1108AUSL   AUS 1095  15.925  32.884   7.917
 1109AUL    AUL 1096  15.944  32.845   8.295
 1110THSLK    S 1097  15.744  32.716   8.043
 1111ETHY    C1 1098  15.403  32.490   8.259
 1112ETHY    C1 1099  15.027  32.262   8.602
 1113THSLK    S 1100  16.171  32.951   8.422
 1114ETHY    C1 1101  16.043  32.812   8.844
 1115ETHY    C1 1102  15.899  32.740   9.378
 1116AUSL   AUS 1103  16.026  33.149   6.921
 1117AUSL   AUS 1104  16.170  32.732   6.990
 1118AUL    AUL 1105  15.944  32.845   6.706
 1119THSLK    S 1106  15.921  33.109   6.668
 1120ETHY    C1 1107  15.677  33.042   6.281
 1121ETHY    C1 1108  15.385  33.061   5.807
 1122THSLK    S 1109  15.996  32.558   6.855
 1123ETHY    C1 1110  15.759  32.265   6.587
 1124ETHY    C1 1111  15.534  31.944   6.190
 1125AUSL   AUS 1112  16.271  33.300   6.827
 1126AUSL   AUS 1113  15.925  33.413   7.084
 1127AUL    AUL 1114  15.944  33.452   6.706
 1128THSLK    S 1115  15.779  33.548   6.894
 1129ETHY    C1 1116  15.490  33.712   6.572
 1130ETHY    C1 1117  15.099  33.957   6.259
 1131THSLK    S 1118  16.184  33.269   6.562
 1132ETHY    C1 1119  16.071  33.279   6.114
 1133ETHY    C1 1120  15.923  33.387   5.587
 1134AUSL   AUS 1121  17.015  33.558   7.501
 1135AUSL   AUS 1122  16.945  33.413   7.084
 1136AUL    AUL 1123  17.229  33.639   7.197
 1137THSLK    S 1124  17.125  33.530   6.920
 1138ETHY    C1 1125  17.466  33.663   6.638
 1139ETHY    C1 1126  17.842  33.917   6.314
 1140THSLK    S 1127  17.288  33.629   7.501
 1141ETHY    C1 1128  17.712  33.813   7.497
 1142ETHY    C1 1129  18.176  34.122   7.498
 1143AUSL   AUS 1130  17.109  33.312   7.349
 1144AUSL   AUS 1131  17.109  32.985   7.652
 1145AUL    AUL 1132  17.416  33.149   7.501
 1146THSLK    S 1133  17.376  33.367   7.341
 1147ETHY    C1 1134  17.828  33.423   7.262
 1148ETHY    C1 1135  18.353  33.588   7.172
 1149THSLK    S 1136  17.355  32.853   7.659
 1150ETHY    C1 1137  17.772  32.668   7.728
 1151ETHY    C1 1138  18.308  32.540   7.820
 1152AUSL   AUS 1139  17.109  33.312   7.652
 1153AUSL   AUS 1140  16.851  33.659   7.765
 1154AUL    AUL 1141  17.229  33.639   7.804
 1155THSLK    S 1142  17.037  33.794   7.925
 1156ETHY    C1 1143  17.353  34.062   8.128
 1157ETHY    C1 1144  17.668  34.459   8.362
 1158THSLK    S 1145  17.376  33.367   7.661
 1159ETHY    C1 1146  17.828  33.423   7.733
 1160ETHY    C1 1147  18.354  33.588   7.824
 1161AUSL   AUS 1148  15.855  33.558   7.501
 1162AUSL   AUS 1149  15.925  33.413   7.917
 1163AUL    AUL 1150  15.641  33.639   7.804
 1164THSLK    S 1151  15.778  33.548   8.107
 1165ETHY    C1 1152  15.494  33.717   8.430
 1166ETHY    C1 1153  15.102  33.962   8.743
 1167THSLK    S 1154  15.624  33.696   7.501
 1168ETHY    C1 1155  15.270  33.994   7.497
 1169ETHY    C1 1156  14.786  34.271   7.498
 1170AUSL   AUS 1157  15.761  33.312   7.349
 1171AUSL   AUS 1158  16.018  33.659   7.236
 1172AUL    AUL 1159  15.641  33.639   7.197
 1173THSLK    S 1160  15.515  33.422   7.307
 1174ETHY    C1 1161  15.097  33.567   7.173
 1175ETHY    C1 1162  14.562  33.707   7.099
 1176THSLK    S 1163  15.887  33.828   7.056
 1177ETHY    C1 1164  15.663  34.150   6.812
 1178ETHY    C1 1165  15.323  34.532   6.589
 1179AUSL   AUS 1166  15.761  33.312   7.652
 1180AUSL   AUS 1167  15.761  32.985   7.349
 1181AUL    AUL 1168  15.453  33.149   7.501
 1182THSLK    S 1169  15.494  32.907   7.377
 1183ETHY    C1 1170  15.041  32.818   7.359
 1184ETHY    C1 1171  14.516  32.663   7.252
 1185THSLK    S 1172  15.515  33.422   7.694
 1186ETHY    C1 1173  15.098  33.573   7.825
 1187ETHY    C1 1174  14.563  33.711   7.900
 1188AUSL   AUS 1175  17.015  32.740   7.501
 1189AUSL   AUS 1176  16.945  32.884   7.917
 1190AUL    AUL 1177  17.229  32.658   7.804
 1191THSLK    S 1178  17.246  32.601   7.501
 1192ETHY    C1 1179  17.600  32.303   7.497
 1193ETHY    C1 1180  18.084  32.026   7.498
 1194THSLK    S 1181  17.091  32.697   8.070
 1195ETHY    C1 1182  17.379  32.442   8.326
 1196ETHY    C1 1183  17.771  32.222   8.657
 1197AUSL   AUS 1184  17.109  32.985   7.349
 1198AUSL   AUS 1185  16.851  32.638   7.236
 1199AUL    AUL 1186  17.229  32.658   7.197
 1200THSLK    S 1187  17.355  32.853   7.343
 1201ETHY    C1 1188  17.771  32.668   7.266
 1202ETHY    C1 1189  18.307  32.540   7.176
 1203THSLK    S 1190  16.983  32.447   7.092
 1204ETHY    C1 1191  17.204  32.086   6.907
 1205ETHY    C1 1192  17.545  31.716   6.667
 1206AUSL   AUS 1193  15.855  32.740   7.501
 1207AUSL   AUS 1194  15.925  32.884   7.084
 1208AUL    AUL 1195  15.641  32.658   7.197
 1209THSLK    S 1196  15.745  32.716   6.958
 1210ETHY    C1 1197  15.399  32.496   6.743
 1211ETHY    C1 1198  15.024  32.266   6.400
 1212THSLK    S 1199  15.582  32.668   7.501
 1213ETHY    C1 1200  15.158  32.485   7.497
 1214ETHY    C1 1201  14.694  32.175   7.498
 1215AUSL   AUS 1202  15.761  32.985   7.652
 1216AUSL   AUS 1203  16.018  32.638   7.765
 1217AUL    AUL 1204  15.641  32.658   7.804
 1218THSLK    S 1205  15.832  32.481   7.889
 1219ETHY    C1 1206  15.519  32.175   8.033
 1220ETHY    C1 1207  15.204  31.788   8.284
 1221THSLK    S 1208  15.494  32.908   7.625
 1222ETHY    C1 1209  15.042  32.812   7.639
 1223ETHY    C1 1210  14.517  32.659   7.746
 1224AUSL   AUS 1211  16.435  33.729   7.910
 1225AUSL   AUS 1212  16.018  33.659   7.765
 1226AUL    AUL 1213  16.131  33.943   7.991
 1227THSLK    S 1214  15.887  33.827   7.945
 1228ETHY    C1 1215  15.666  34.155   8.185
 1229ETHY    C1 1216  15.325  34.535   8.409
 1230THSLK    S 1217  16.469  33.970   8.033
 1231ETHY    C1 1218  16.527  34.342   8.301
 1232ETHY    C1 1219  16.511  34.821   8.586
 1233AUSL   AUS 1220  16.283  33.822   7.664
 1234AUSL   AUS 1221  16.586  33.822   7.337
 1235AUL    AUL 1222  16.435  34.130   7.501
 1236THSLK    S 1223  16.314  34.082   7.770
 1237ETHY    C1 1224  16.304  34.523   7.907
 1238ETHY    C1 1225  16.195  35.052   8.048
 1239THSLK    S 1226  16.631  34.071   7.235
 1240ETHY    C1 1227  16.769  34.489   7.097
 1241ETHY    C1 1228  16.841  35.024   6.955
 1242AUSL   AUS 1229  16.586  33.822   7.664
 1243AUSL   AUS 1230  16.700  33.565   8.011
 1244AUL    AUL 1231  16.738  33.943   7.991
 1245THSLK    S 1232  16.874  33.693   8.185
 1246ETHY    C1 1233  17.110  33.912   8.517
 1247ETHY    C1 1234  17.336  34.254   8.895
 1248THSLK    S 1235  16.631  34.070   7.767
 1249ETHY    C1 1236  16.770  34.491   7.898
 1250ETHY    C1 1237  16.843  35.025   8.041
 1251AUSL   AUS 1238  16.435  32.569   7.910
 1252AUSL   AUS 1239  16.851  32.638   7.765
 1253AUL    AUL 1240  16.738  32.354   7.991
 1254THSLK    S 1241  16.401  32.305   7.997
 1255ETHY    C1 1242  16.346  31.896   8.205
 1256ETHY    C1 1243  16.361  31.428   8.507
 1257THSLK    S 1244  16.983  32.447   7.910
 1258ETHY    C1 1245  17.206  32.085   8.089
 1259ETHY    C1 1246  17.547  31.715   8.330
 1260AUSL   AUS 1247  16.283  32.475   7.664
 1261AUSL   AUS 1248  16.170  32.732   8.011
 1262AUL    AUL 1249  16.131  32.354   7.991
 1263THSLK    S 1250  16.238  32.222   7.746
 1264ETHY    C1 1251  16.101  31.791   7.843
 1265ETHY    C1 1252  16.028  31.259   7.996
 1266THSLK    S 1253  15.995  32.558   8.146
 1267ETHY    C1 1254  15.764  32.260   8.413
 1268ETHY    C1 1255  15.537  31.940   8.810
 1269AUSL   AUS 1256  16.586  32.475   7.664
 1270AUSL   AUS 1257  16.283  32.475   7.337
 1271AUL    AUL 1258  16.435  32.167   7.501
 1272THSLK    S 1259  16.238  32.222   7.255
 1273ETHY    C1 1260  16.099  31.793   7.152
 1274ETHY    C1 1261  16.027  31.261   7.001
 1275THSLK    S 1262  16.555  32.210   7.750
 1276ETHY    C1 1263  16.568  31.759   7.852
 1277ETHY    C1 1264  16.676  31.233   8.003
 1278AUSL   AUS 1265  16.435  33.729   7.092
 1279AUSL   AUS 1266  16.851  33.659   7.236
 1280AUL    AUL 1267  16.738  33.943   7.010
 1281THSLK    S 1268  16.469  33.970   6.969
 1282ETHY    C1 1269  16.524  34.339   6.696
 1283ETHY    C1 1270  16.508  34.818   6.412
 1284THSLK    S 1271  17.038  33.794   7.077
 1285ETHY    C1 1272  17.351  34.061   6.868
 1286ETHY    C1 1273  17.666  34.458   6.634
 1287AUSL   AUS 1274  16.283  33.822   7.337
 1288AUSL   AUS 1275  16.170  33.565   6.990
 1289AUL    AUL 1276  16.131  33.943   7.010
 1290THSLK    S 1277  16.314  34.083   7.232
 1291ETHY    C1 1278  16.302  34.521   7.088
 1292ETHY    C1 1279  16.194  35.050   6.948
 1293THSLK    S 1280  16.043  33.708   6.799
 1294ETHY    C1 1281  15.885  33.948   6.437
 1295ETHY    C1 1282  15.637  34.283   6.067
 1296AUSL   AUS 1283  16.435  32.569   7.092
 1297AUSL   AUS 1284  16.018  32.638   7.236
 1298AUL    AUL 1285  16.131  32.354   7.010
 1299THSLK    S 1286  15.832  32.481   7.113
 1300ETHY    C1 1287  15.516  32.179   6.964
 1301ETHY    C1 1288  15.202  31.792   6.714
 1302THSLK    S 1289  16.401  32.305   7.004
 1303ETHY    C1 1290  16.342  31.900   6.791
 1304ETHY    C1 1291  16.359  31.430   6.490
 1305AUSL   AUS 1292  16.586  32.475   7.337
 1306AUSL   AUS 1293  16.700  32.732   6.990
 1307AUL    AUL 1294  16.738  32.354   7.010
 1308THSLK    S 1295  16.556  32.209   7.252
 1309ETHY    C1 1296  16.566  31.761   7.143
 1310ETHY    C1 1297  16.674  31.234   6.993
 1311THSLK    S 1298  16.828  32.543   6.839
 1312ETHY    C1 1299  16.980  32.225   6.541
 1313ETHY    C1 1300  17.229  31.911   6.152
 1314AUC    AUC 1301  10.731  11.142   7.501
 1315AUC    AUC 1302  10.976  11.142   7.349
 1316AUC    AUC 1303  10.976  11.142   7.652
 1317AUC    AUC 1304  10.485  11.142   7.349
 1318AUC    AUC 1305  10.485  11.142   7.652
 1319AUC    AUC 1306  10.579  11.387   7.501
 1320AUC    AUC 1307  10.882  11.387   7.501
 1321AUC    AUC 1308  10.579  10.896   7.501
 1322AUC    AUC 1309  10.882  10.896   7.501
 1323AUC    AUC 1310  10.731  10.990   7.746
 1324AUC    AUC 1311  10.731  11.293   7.746
 1325AUC    AUC 1312  10.731  10.990   7.255
 1326AUC    AUC 1313  10.731  11.293   7.255
 1327AUC    AUC 1314  11.222  11.142   7.197
 1328AUC    AUC 1315  11.222  11.142   7.501
 1329AUC    AUC 1316  11.222  11.142   7.804
 1330AUC    AUC 1317  10.240  11.142   7.197
 1331AUC    AUC 1318  10.240  11.142   7.501
 1332AUC    AUC 1319  10.240  11.142   7.804
 1333AUC    AUC 1320  10.427  11.632   7.501
 1334AUC    AUC 1321  10.731  11.632   7.501
 1335AUC    AUC 1322  11.034  11.632   7.501
 1336AUC    AUC 1323  10.427  10.651   7.501
 1337AUC    AUC 1324  10.731  10.651   7.501
 1338AUC    AUC 1325  11.034  10.651   7.501
 1339AUC    AUC 1326  10.731  10.838   7.991
 1340AUC    AUC 1327  10.731  11.142   7.991
 1341AUC    AUC 1328  10.731  11.445   7.991
 1342AUC    AUC 1329  10.731  10.838   7.010
 1343AUC    AUC 1330  10.731  11.142   7.010
 1344AUC    AUC 1331  10.731  11.445   7.010
 1345AUC    AUC 1332  10.976  10.990   7.898
 1346AUC    AUC 1333  10.976  11.293   7.898
 1347AUC    AUC 1334  10.976  10.990   7.103
 1348AUC    AUC 1335  10.976  11.293   7.103
 1349AUC    AUC 1336  10.485  10.990   7.898
 1350AUC    AUC 1337  10.485  11.293   7.898
 1351AUC    AUC 1338  10.485  10.990   7.103
 1352AUC    AUC 1339  10.485  11.293   7.103
 1353AUC    AUC 1340  11.128  11.387   7.349
 1354AUC    AUC 1341  11.128  11.387   7.652
 1355AUC    AUC 1342  10.334  11.387   7.349
 1356AUC    AUC 1343  10.334  11.387   7.652
 1357AUC    AUC 1344  11.128  10.896   7.349
 1358AUC    AUC 1345  11.128  10.896   7.652
 1359AUC    AUC 1346  10.334  10.896   7.349
 1360AUC    AUC 1347  10.334  10.896   7.652
 1361AUC    AUC 1348  10.579  11.539   7.746
 1362AUC    AUC 1349  10.882  11.539   7.746
 1363AUC    AUC 1350  10.579  10.745   7.746
 1364AUC    AUC 1351  10.882  10.745   7.746
 1365AUC    AUC 1352  10.579  11.539   7.255
 1366AUC    AUC 1353  10.882  11.539   7.255
 1367AUC    AUC 1354  10.579  10.745   7.255
 1368AUC    AUC 1355  10.882  10.745   7.255
 1369AUSL   AUS 1356  11.140  11.142   8.081
 1370AUSL   AUS 1357  10.996  10.725   8.011
 1371AUL    AUL 1358  11.222  10.838   8.295
 1372THSLK    S 1359  11.123  10.537   8.163
 1373ETHY    C1 1360  11.281  10.216   8.456
 1374ETHY    C1 1361  11.529   9.903   8.845
 1375THSLK    S 1362  11.245  11.102   8.333
 1376ETHY    C1 1363  11.488  11.035   8.720
 1377ETHY    C1 1364  11.781  11.054   9.194
 1378AUSL   AUS 1365  10.894  10.990   8.174
 1379AUSL   AUS 1366  10.567  11.293   8.174
 1380AUL    AUL 1367  10.731  11.142   8.482
 1381THSLK    S 1368  10.981  10.944   8.426
 1382ETHY    C1 1369  11.094  10.803   8.852
 1383ETHY    C1 1370  11.243  10.732   9.385
 1384THSLK    S 1371  10.479  11.262   8.439
 1385ETHY    C1 1372  10.374  11.273   8.889
 1386ETHY    C1 1373  10.224  11.381   9.415
 1387AUSL   AUS 1374  10.894  11.293   8.174
 1388AUSL   AUS 1375  11.241  11.406   7.917
 1389AUL    AUL 1376  11.222  11.445   8.295
 1390THSLK    S 1377  10.982  11.339   8.426
 1391ETHY    C1 1378  11.088  11.479   8.854
 1392ETHY    C1 1379  11.238  11.551   9.386
 1393THSLK    S 1380  11.421  11.522   8.082
 1394ETHY    C1 1381  11.766  11.657   8.358
 1395ETHY    C1 1382  12.141  11.911   8.683
 1396AUSL   AUS 1383  11.140  11.142   6.921
 1397AUSL   AUS 1384  10.996  11.558   6.990
 1398AUL    AUL 1385  11.222  11.445   6.706
 1399THSLK    S 1386  11.246  11.102   6.668
 1400ETHY    C1 1387  11.483  11.035   6.278
 1401ETHY    C1 1388  11.776  11.054   5.804
 1402THSLK    S 1389  11.171  11.686   6.816
 1403ETHY    C1 1390  11.402  11.904   6.480
 1404ETHY    C1 1391  11.628  12.246   6.102
 1405AUSL   AUS 1392  10.894  10.990   6.827
 1406AUSL   AUS 1393  11.241  10.877   7.084
 1407AUL    AUL 1394  11.222  10.838   6.706
 1408THSLK    S 1395  11.387  10.690   6.932
 1409ETHY    C1 1396  11.671  10.436   6.670
 1410ETHY    C1 1397  12.063  10.216   6.340
 1411THSLK    S 1398  10.982  10.944   6.575
 1412ETHY    C1 1399  11.088  10.804   6.147
 1413ETHY    C1 1400  11.238  10.732   5.615
 1414AUSL   AUS 1401  10.894  11.293   6.827
 1415AUSL   AUS 1402  10.567  10.990   6.827
 1416AUL    AUL 1403  10.731  11.142   6.519
 1417THSLK    S 1404  10.467  10.944   6.579
 1418ETHY    C1 1405  10.333  10.806   6.158
 1419ETHY    C1 1406  10.190  10.734   5.624
 1420THSLK    S 1407  10.995  11.261   6.566
 1421ETHY    C1 1408  11.122  11.270   6.121
 1422ETHY    C1 1409  11.266  11.379   5.594
 1423AUSL   AUS 1410  10.322  11.142   8.081
 1424AUSL   AUS 1411  10.466  11.558   8.011
 1425AUL    AUL 1412  10.240  11.445   8.295
 1426THSLK    S 1413  10.216  11.102   8.333
 1427ETHY    C1 1414   9.979  11.035   8.723
 1428ETHY    C1 1415   9.685  11.054   9.197
 1429THSLK    S 1416  10.338  11.700   8.202
 1430ETHY    C1 1417  10.185  11.945   8.563
 1431ETHY    C1 1418   9.937  12.280   8.933
 1432AUSL   AUS 1419  10.567  10.990   8.174
 1433AUSL   AUS 1420  10.221  10.877   7.917
 1434AUL    AUL 1421  10.240  10.838   8.295
 1435THSLK    S 1422  10.040  10.709   8.043
 1436ETHY    C1 1423   9.699  10.483   8.259
 1437ETHY    C1 1424   9.323  10.255   8.602
 1438THSLK    S 1425  10.467  10.944   8.422
 1439ETHY    C1 1426  10.339  10.805   8.844
 1440ETHY    C1 1427  10.195  10.733   9.378
 1441AUSL   AUS 1428  10.322  11.142   6.921
 1442AUSL   AUS 1429  10.466  10.725   6.990
 1443AUL    AUL 1430  10.240  10.838   6.706
 1444THSLK    S 1431  10.217  11.102   6.668
 1445ETHY    C1 1432   9.973  11.035   6.281
 1446ETHY    C1 1433   9.681  11.054   5.807
 1447THSLK    S 1434  10.292  10.551   6.855
 1448ETHY    C1 1435  10.055  10.258   6.587
 1449ETHY    C1 1436   9.830   9.937   6.190
 1450AUSL   AUS 1437  10.567  11.293   6.827
 1451AUSL   AUS 1438  10.221  11.406   7.084
 1452AUL    AUL 1439  10.240  11.445   6.706
 1453THSLK    S 1440  10.075  11.541   6.894
 1454ETHY    C1 1441   9.786  11.705   6.572
 1455ETHY    C1 1442   9.395  11.950   6.259
 1456THSLK    S 1443  10.480  11.262   6.562
 1457ETHY    C1 1444  10.367  11.272   6.114
 1458ETHY    C1 1445  10.219  11.380   5.587
 1459AUSL   AUS 1446  11.311  11.551   7.501
 1460AUSL   AUS 1447  11.241  11.406   7.084
 1461AUL    AUL 1448  11.525  11.632   7.197
 1462THSLK    S 1449  11.421  11.523   6.920
 1463ETHY    C1 1450  11.762  11.656   6.638
 1464ETHY    C1 1451  12.138  11.910   6.314
 1465THSLK    S 1452  11.584  11.622   7.501
 1466ETHY    C1 1453  12.008  11.806   7.497
 1467ETHY    C1 1454  12.472  12.115   7.498
 1468AUSL   AUS 1455  11.405  11.305   7.349
 1469AUSL   AUS 1456  11.405  10.978   7.652
 1470AUL    AUL 1457  11.712  11.142   7.501
 1471THSLK    S 1458  11.672  11.360   7.341
 1472ETHY    C1 1459  12.124  11.416   7.262
 1473ETHY    C1 1460  12.649  11.581   7.172
 1474THSLK    S 1461  11.651  10.846   7.659
 1475ETHY    C1 1462  12.068  10.661   7.728
 1476ETHY    C1 1463  12.604  10.533   7.820
 1477AUSL   AUS 1464  11.405  11.305   7.652
 1478AUSL   AUS 1465  11.147  11.652   7.765
 1479AUL    AUL 1466  11.525  11.632   7.804
 1480THSLK    S 1467  11.333  11.787   7.925
 1481ETHY    C1 1468  11.649  12.055   8.128
 1482ETHY    C1 1469  11.964  12.452   8.362
 1483THSLK    S 1470  11.672  11.360   7.661
 1484ETHY    C1 1471  12.124  11.416   7.733
 1485ETHY    C1 1472  12.650  11.581   7.824
 1486AUSL   AUS 1473  10.151  11.551   7.501
 1487AUSL   AUS 1474  10.221  11.406   7.917
 1488AUL    AUL 1475   9.937  11.632   7.804
 1489THSLK    S 1476  10.074  11.541   8.107
 1490ETHY    C1 1477   9.790  11.710   8.430
 1491ETHY    C1 1478   9.398  11.955   8.743
 1492THSLK    S 1479   9.920  11.689   7.501
 1493ETHY    C1 1480   9.566  11.987   7.497
 1494ETHY    C1 1481   9.082  12.264   7.498
 1495AUSL   AUS 1482  10.057  11.305   7.349
 1496AUSL   AUS 1483  10.314  11.652   7.236
 1497AUL    AUL 1484   9.937  11.632   7.197
 1498THSLK    S 1485   9.811  11.415   7.307
 1499ETHY    C1 1486   9.393  11.560   7.173
 1500ETHY    C1 1487   8.858  11.700   7.099
 1501THSLK    S 1488  10.183  11.821   7.056
 1502ETHY    C1 1489   9.959  12.143   6.812
 1503ETHY    C1 1490   9.619  12.525   6.589
 1504AUSL   AUS 1491  10.057  11.305   7.652
 1505AUSL   AUS 1492  10.057  10.978   7.349
 1506AUL    AUL 1493   9.749  11.142   7.501
 1507THSLK    S 1494   9.790  10.900   7.377
 1508ETHY    C1 1495   9.337  10.811   7.359
 1509ETHY    C1 1496   8.812  10.656   7.252
 1510THSLK    S 1497   9.811  11.415   7.694
 1511ETHY    C1 1498   9.394  11.566   7.825
 1512ETHY    C1 1499   8.859  11.704   7.900
 1513AUSL   AUS 1500  11.311  10.733   7.501
 1514AUSL   AUS 1501  11.241  10.877   7.917
 1515AUL    AUL 1502  11.525  10.651   7.804
 1516THSLK    S 1503  11.542  10.594   7.501
 1517ETHY    C1 1504  11.896  10.296   7.497
 1518ETHY    C1 1505  12.380  10.019   7.498
 1519THSLK    S 1506  11.387  10.690   8.070
 1520ETHY    C1 1507  11.675  10.435   8.326
 1521ETHY    C1 1508  12.067  10.215   8.657
 1522AUSL   AUS 1509  11.405  10.978   7.349
 1523AUSL   AUS 1510  11.147  10.631   7.236
 1524AUL    AUL 1511  11.525  10.651   7.197
 1525THSLK    S 1512  11.651  10.846   7.343
 1526ETHY    C1 1513  12.067  10.661   7.266
 1527ETHY    C1 1514  12.603  10.533   7.176
 1528THSLK    S 1515  11.279  10.440   7.092
 1529ETHY    C1 1516  11.500  10.079   6.907
 1530ETHY    C1 1517  11.841   9.709   6.667
 1531AUSL   AUS 1518  10.151  10.733   7.501
 1532AUSL   AUS 1519  10.221  10.877   7.084
 1533AUL    AUL 1520   9.937  10.651   7.197
 1534THSLK    S 1521  10.041  10.709   6.958
 1535ETHY    C1 1522   9.695  10.489   6.743
 1536ETHY    C1 1523   9.320  10.259   6.400
 1537THSLK    S 1524   9.878  10.661   7.501
 1538ETHY    C1 1525   9.454  10.478   7.497
 1539ETHY    C1 1526   8.990  10.168   7.498
 1540AUSL   AUS 1527  10.057  10.978   7.652
 1541AUSL   AUS 1528  10.314  10.631   7.765
 1542AUL    AUL 1529   9.937  10.651   7.804
 1543THSLK    S 1530  10.128  10.474   7.889
 1544ETHY    C1 1531   9.815  10.168   8.033
 1545ETHY    C1 1532   9.500   9.781   8.284
 1546THSLK    S 1533   9.790  10.901   7.625
 1547ETHY    C1 1534   9.338  10.805   7.639
 1548ETHY    C1 1535   8.813  10.652   7.746
 1549AUSL   AUS 1536  10.731  11.722   7.910
 1550AUSL   AUS 1537  10.314  11.652   7.765
 1551AUL    AUL 1538  10.427  11.936   7.991
 1552THSLK    S 1539  10.183  11.820   7.945
 1553ETHY    C1 1540   9.962  12.148   8.185
 1554ETHY    C1 1541   9.621  12.528   8.409
 1555THSLK    S 1542  10.765  11.963   8.033
 1556ETHY    C1 1543  10.823  12.335   8.301
 1557ETHY    C1 1544  10.807  12.814   8.586
 1558AUSL   AUS 1545  10.579  11.815   7.664
 1559AUSL   AUS 1546  10.882  11.815   7.337
 1560AUL    AUL 1547  10.731  12.123   7.501
 1561THSLK    S 1548  10.610  12.075   7.770
 1562ETHY    C1 1549  10.600  12.516   7.907
 1563ETHY    C1 1550  10.491  13.045   8.048
 1564THSLK    S 1551  10.927  12.064   7.235
 1565ETHY    C1 1552  11.065  12.482   7.097
 1566ETHY    C1 1553  11.137  13.017   6.955
 1567AUSL   AUS 1554  10.882  11.815   7.664
 1568AUSL   AUS 1555  10.996  11.558   8.011
 1569AUL    AUL 1556  11.034  11.936   7.991
 1570THSLK    S 1557  11.170  11.686   8.185
 1571ETHY    C1 1558  11.406  11.905   8.517
 1572ETHY    C1 1559  11.632  12.247   8.895
 1573THSLK    S 1560  10.927  12.063   7.767
 1574ETHY    C1 1561  11.066  12.484   7.898
 1575ETHY    C1 1562  11.139  13.018   8.041
 1576AUSL   AUS 1563  10.731  10.562   7.910
 1577AUSL   AUS 1564  11.147  10.631   7.765
 1578AUL    AUL 1565  11.034  10.347   7.991
 1579THSLK    S 1566  10.697  10.298   7.997
 1580ETHY    C1 1567  10.642   9.889   8.205
 1581ETHY    C1 1568  10.657   9.421   8.507
 1582THSLK    S 1569  11.279  10.440   7.910
 1583ETHY    C1 1570  11.502  10.078   8.089
 1584ETHY    C1 1571  11.843   9.708   8.330
 1585AUSL   AUS 1572  10.579  10.468   7.664
 1586AUSL   AUS 1573  10.466  10.725   8.011
 1587AUL    AUL 1574  10.427  10.347   7.991
 1588THSLK    S 1575  10.534  10.215   7.746
 1589ETHY    C1 1576  10.397   9.784   7.843
 1590ETHY    C1 1577  10.324   9.252   7.996
 1591THSLK    S 1578  10.291  10.551   8.146
 1592ETHY    C1 1579  10.060  10.253   8.413
 1593ETHY    C1 1580   9.833   9.933   8.810
 1594AUSL   AUS 1581  10.882  10.468   7.664
 1595AUSL   AUS 1582  10.579  10.468   7.337
 1596AUL    AUL 1583  10.731  10.160   7.501
 1597THSLK    S 1584  10.534  10.215   7.255
 1598ETHY    C1 1585  10.395   9.786   7.152
 1599ETHY    C1 1586  10.323   9.254   7.001
 1600THSLK    S 1587  10.851  10.203   7.750
 1601ETHY    C1 1588  10.864   9.752   7.852
 1602ETHY    C1 1589  10.972   9.226   8.003
 1603AUSL   AUS 1590  10.731  11.722   7.092
 1604AUSL   AUS 1591  11.147  11.652   7.236
 1605AUL    AUL 1592  11.034  11.936   7.010
 1606THSLK    S 1593  10.765  11.963   6.969
 1607ETHY    C1 1594  10.820  12.332   6.696
 1608ETHY    C1 1595  10.804  12.811   6.412
 1609THSLK    S 1596  11.334  11.787   7.077
 1610ETHY    C1 1597  11.647  12.054   6.868
 1611ETHY    C1 1598  11.962  12.451   6.634
 1612AUSL   AUS 1599  10.579  11.815   7.337
 1613AUSL   AUS 1600  10.466  11.558   6.990
 1614AUL    AUL 1601  10.427  11.936   7.010
 1615THSLK    S 1602  10.610  12.076   7.232
 1616ETHY    C1 1603  10.598  12.514   7.088
 1617ETHY    C1 1604  10.490  13.043   6.948
 1618THSLK    S 1605  10.339  11.701   6.799
 1619ETHY    C1 1606  10.181  11.941   6.437
 1620ETHY    C1 1607   9.933  12.276   6.067
 1621AUSL   AUS 1608  10.731  10.562   7.092
 1622AUSL   AUS 1609  10.314  10.631   7.236
 1623AUL    AUL 1610  10.427  10.347   7.010
 1624THSLK    S 1611  10.128  10.474   7.113
 1625ETHY    C1 1612   9.812  10.172   6.964
 1626ETHY    C1 1613   9.498   9.785   6.714
 1627THSLK    S 1614  10.697  10.298   7.004
 1628ETHY    C1 1615  10.638   9.893   6.791
 1629ETHY    C1 1616  10.655   9.423   6.490
 1630AUSL   AUS 1617  10.882  10.468   7.337
 1631AUSL   AUS 1618  10.996  10.725   6.990
 1632AUL    AUL 1619  11.034  10.347   7.010
 1633THSLK    S 1620  10.852  10.202   7.252
 1634ETHY    C1 1621  10.862   9.754   7.143
 1635ETHY    C1 1622  10.970   9.227   6.993
 1636THSLK    S 1623  11.124  10.536   6.839
 1637ETHY    C1 1624  11.276  10.218   6.541
 1638ETHY    C1 1625  11.525   9.904   6.152
 1639AUC    AUC 1626  39.668  -4.009   7.501
 1640AUC    AUC 1627  39.913  -4.009   7.349
 1641AUC    AUC 1628  39.913  -4.009   7.652
 1642AUC    AUC 1629  39.422  -4.009   7.349
 1643AUC    AUC 1630  39.422  -4.009   7.652
 1644AUC    AUC 1631  39.516  -3.764   7.501
 1645AUC    AUC 1632  39.819  -3.764   7.501
 1646AUC    AUC 1633  39.516  -4.255   7.501
 1647AUC    AUC 1634  39.819  -4.255   7.501
 1648AUC    AUC 1635  39.668  -4.161   7.746
 1649AUC    AUC 1636  39.668  -3.858   7.746
 1650AUC    AUC 1637  39.668  -4.161   7.255
 1651AUC    AUC 1638  39.668  -3.858   7.255
 1652AUC    AUC 1639  40.159  -4.009   7.197
 1653AUC    AUC 1640  40.159  -4.009   7.501
 1654AUC    AUC 1641  40.159  -4.009   7.804
 1655AUC    AUC 1642  39.177  -4.009   7.197
 1656AUC    AUC 1643  39.177  -4.009   7.501
 1657AUC    AUC 1644  39.177  -4.009   7.804
 1658AUC    AUC 1645  39.364  -3.519   7.501
 1659AUC    AUC 1646  39.668  -3.519   7.501
 1660AUC    AUC 1647  39.971  -3.519   7.501
 1661AUC    AUC 1648  39.364  -4.500   7.501
 1662AUC    AUC 1649  39.668  -4.500   7.501
 1663AUC    AUC 1650  39.971  -4.500   7.501
 1664AUC    AUC 1651  39.668  -4.313   7.991
 1665AUC    AUC 1652  39.668  -4.009   7.991
 1666AUC    AUC 1653  39.668  -3.706   7.991
 1667AUC    AUC 1654  39.668  -4.313   7.010
 1668AUC    AUC 1655  39.668  -4.009   7.010
 1669AUC    AUC 1656  39.668  -3.706   7.010
 1670AUC    AUC 1657  39.913  -4.161   7.898
 1671AUC    AUC 1658  39.913  -3.858   7.898
 1672AUC    AUC 1659  39.913  -4.161   7.103
 1673AUC    AUC 1660  39.913  -3.858   7.103
 1674AUC    AUC 1661  39.422  -4.161   7.898
 1675AUC    AUC 1662  39.422  -3.858   7.898
 1676AUC    AUC 1663  39.422  -4.161   7.103
 1677AUC    AUC 1664  39.422  -3.858   7.103
 1678AUC    AUC 1665  40.065  -3.764   7.349
 1679AUC    AUC 1666  40.065  -3.764   7.652
 1680AUC    AUC 1667  39.271  -3.764   7.349
 1681AUC    AUC 1668  39.271  -3.764   7.652
 1682AUC    AUC 1669  40.065  -4.255   7.349
 1683AUC    AUC 1670  40.065  -4.255   7.652
 1684AUC    AUC 1671  39.271  -4.255   7.349
 1685AUC    AUC 1672  39.271  -4.255   7.652
 1686AUC    AUC 1673  39.516  -3.612   7.746
 1687AUC    AUC 1674  39.819  -3.612   7.746
 1688AUC    AUC 1675  39.516  -4.406   7.746
 1689AUC    AUC 1676  39.819  -4.406   7.746
 1690AUC    AUC 1677  39.516  -3.612   7.255
 1691AUC    AUC 1678  39.819  -3.612   7.255
 1692AUC    AUC 1679  39.516  -4.406   7.255
 1693AUC    AUC 1680  39.819  -4.406   7.255
 1694AUSL   AUS 1681  40.077  -4.009   8.081
 1695AUSL   AUS 1682  39.933  -4.426   8.011
 1696AUL    AUL 1683  40.159  -4.313   8.295
 1697THSLK    S 1684  40.060  -4.614   8.163
 1698ETHY    C1 1685  40.218  -4.935   8.456
 1699ETHY    C1 1686  40.466  -5.248   8.845
 1700THSLK    S 1687  40.182  -4.049   8.333
 1701ETHY    C1 1688  40.425  -4.116   8.720
 1702ETHY    C1 1689  40.718  -4.097   9.194
 1703AUSL   AUS 1690  39.831  -4.161   8.174
 1704AUSL   AUS 1691  39.504  -3.858   8.174
 1705AUL    AUL 1692  39.668  -4.009   8.482
 1706THSLK    S 1693  39.918  -4.207   8.426
 1707ETHY    C1 1694  40.031  -4.348   8.852
 1708ETHY    C1 1695  40.180  -4.419   9.385
 1709THSLK    S 1696  39.416  -3.889   8.439
 1710ETHY    C1 1697  39.311  -3.878   8.889
 1711ETHY    C1 1698  39.161  -3.770   9.415
 1712AUSL   AUS 1699  39.831  -3.858   8.174
 1713AUSL   AUS 1700  40.178  -3.745   7.917
 1714AUL    AUL 1701  40.159  -3.706   8.295
 1715THSLK    S 1702  39.919  -3.812   8.426
 1716ETHY    C1 1703  40.025  -3.672   8.854
 1717ETHY    C1 1704  40.175  -3.600   9.386
 1718THSLK    S 1705  40.358  -3.629   8.082
 1719ETHY    C1 1706  40.703  -3.494   8.358
 1720ETHY    C1 1707  41.078  -3.240   8.683
 1721AUSL   AUS 1708  40.077  -4.009   6.921
 1722AUSL   AUS 1709  39.933  -3.593   6.990
 1723AUL    AUL 1710  40.159  -3.706   6.706
 1724THSLK    S 1711  40.183  -4.049   6.668
 1725ETHY    C1 1712  40.420  -4.116   6.278
 1726ETHY    C1 1713  40.713  -4.097   5.804
 1727THSLK    S 1714  40.108  -3.465   6.816
 1728ETHY    C1 1715  40.339  -3.247   6.480
 1729ETHY    C1 1716  40.565  -2.905   6.102
 1730AUSL   AUS 1717  39.831  -4.161   6.827
 1731AUSL   AUS 1718  40.178  -4.274   7.084
 1732AUL    AUL 1719  40.159  -4.313   6.706
 1733THSLK    S 1720  40.324  -4.461   6.932
 1734ETHY    C1 1721  40.608  -4.715   6.670
 1735ETHY    C1 1722  41.000  -4.935   6.340
 1736THSLK    S 1723  39.919  -4.207   6.575
 1737ETHY    C1 1724  40.025  -4.347   6.147
 1738ETHY    C1 1725  40.175  -4.419   5.615
 1739AUSL   AUS 1726  39.831  -3.858   6.827
 1740AUSL   AUS 1727  39.504  -4.161   6.827
 1741AUL    AUL 1728  39.668  -4.009   6.519
 1742THSLK    S 1729  39.404  -4.207   6.579
 1743ETHY    C1 1730  39.270  -4.345   6.158
 1744ETHY    C1 1731  39.127  -4.417   5.624
 1745THSLK    S 1732  39.932  -3.890   6.566
 1746ETHY    C1 1733  40.059  -3.881   6.121
 1747ETHY    C1 1734  40.203  -3.772   5.594
 1748AUSL   AUS 1735  39.259  -4.009   8.081
 1749AUSL   AUS 1736  39.403  -3.593   8.011
 1750AUL    AUL 1737  39.177  -3.706   8.295
 1751THSLK    S 1738  39.153  -4.049   8.333
 1752ETHY    C1 1739  38.916  -4.116   8.723
 1753ETHY    C1 1740  38.622  -4.097   9.197
 1754THSLK    S 1741  39.275  -3.451   8.202
 1755ETHY    C1 1742  39.122  -3.206   8.563
 1756ETHY    C1 1743  38.874  -2.871   8.933
 1757AUSL   AUS 1744  39.504  -4.161   8.174
 1758AUSL   AUS 1745  39.158  -4.274   7.917
 1759AUL    AUL 1746  39.177  -4.313   8.295
 1760THSLK    S 1747  38.977  -4.442   8.043
 1761ETHY    C1 1748  38.636  -4.668   8.259
 1762ETHY    C1 1749  38.260  -4.896   8.602
 1763THSLK    S 1750  39.404  -4.207   8.422
 1764ETHY    C1 1751  39.276  -4.346   8.844
 1765ETHY    C1 1752  39.132  -4.418   9.378
 1766AUSL   AUS 1753  39.259  -4.009   6.921
 1767AUSL   AUS 1754  39.403  -4.426   6.990
 1768AUL    AUL 1755  39.177  -4.313   6.706
 1769THSLK    S 1756  39.154  -4.049   6.668
 1770ETHY    C1 1757  38.910  -4.116   6.281
 1771ETHY    C1 1758  38.618  -4.097   5.807
 1772THSLK    S 1759  39.229  -4.600   6.855
 1773ETHY    C1 1760  38.992  -4.893   6.587
 1774ETHY    C1 1761  38.767  -5.214   6.190
 1775AUSL   AUS 1762  39.504  -3.858   6.827
 1776AUSL   AUS 1763  39.158  -3.745   7.084
 1777AUL    AUL 1764  39.177  -3.706   6.706
 1778THSLK    S 1765  39.012  -3.610   6.894
 1779ETHY    C1 1766  38.723  -3.446   6.572
 1780ETHY    C1 1767  38.332  -3.201   6.259
 1781THSLK    S 1768  39.417  -3.889   6.562
 1782ETHY    C1 1769  39.304  -3.879   6.114
 1783ETHY    C1 1770  39.156  -3.771   5.587
 1784AUSL   AUS 1771  40.248  -3.600   7.501
 1785AUSL   AUS 1772  40.178  -3.745   7.084
 1786AUL    AUL 1773  40.462  -3.519   7.197
 1787THSLK    S 1774  40.358  -3.628   6.920
 1788ETHY    C1 1775  40.699  -3.495   6.638
 1789ETHY    C1 1776  41.075  -3.241   6.314
 1790THSLK    S 1777  40.521  -3.529   7.501
 1791ETHY    C1 1778  40.945  -3.345   7.497
 1792ETHY    C1 1779  41.409  -3.036   7.498
 1793AUSL   AUS 1780  40.342  -3.846   7.349
 1794AUSL   AUS 1781  40.342  -4.173   7.652
 1795AUL    AUL 1782  40.649  -4.009   7.501
 1796THSLK    S 1783  40.609  -3.791   7.341
 1797ETHY    C1 1784  41.061  -3.735   7.262
 1798ETHY    C1 1785  41.586  -3.570   7.172
 1799THSLK    S 1786  40.588  -4.305   7.659
 1800ETHY    C1 1787  41.005  -4.490   7.728
 1801ETHY    C1 1788  41.541  -4.618   7.820
 1802AUSL   AUS 1789  40.342  -3.846   7.652
 1803AUSL   AUS 1790  40.084  -3.499   7.765
 1804AUL    AUL 1791  40.462  -3.519   7.804
 1805THSLK    S 1792  40.270  -3.364   7.925
 1806ETHY    C1 1793  40.586  -3.096   8.128
 1807ETHY    C1 1794  40.901  -2.699   8.362
 1808THSLK    S 1795  40.609  -3.791   7.661
 1809ETHY    C1 1796  41.061  -3.735   7.733
 1810ETHY    C1 1797  41.587  -3.570   7.824
 1811AUSL   AUS 1798  39.088  -3.600   7.501
 1812AUSL   AUS 1799  39.158  -3.745   7.917
 1813AUL    AUL 1800  38.874  -3.519   7.804
 1814THSLK    S 1801  39.011  -3.610   8.107
 1815ETHY    C1 1802  38.727  -3.441   8.430
 1816ETHY    C1 1803  38.335  -3.196   8.743
 1817THSLK    S 1804  38.857  -3.462   7.501
 1818ETHY    C1 1805  38.503  -3.164   7.497
 1819ETHY    C1 1806  38.019  -2.887   7.498
 1820AUSL   AUS 1807  38.994  -3.846   7.349
 1821AUSL   AUS 1808  39.251  -3.499   7.236
 1822AUL    AUL 1809  38.874  -3.519   7.197
 1823THSLK    S 1810  38.748  -3.736   7.307
 1824ETHY    C1 1811  38.330  -3.591   7.173
 1825ETHY    C1 1812  37.795  -3.451   7.099
 1826THSLK    S 1813  39.120  -3.330   7.056
 1827ETHY    C1 1814  38.896  -3.008   6.812
 1828ETHY    C1 1815  38.556  -2.626   6.589
 1829AUSL   AUS 1816  38.994  -3.846   7.652
 1830AUSL   AUS 1817  38.994  -4.173   7.349
 1831AUL    AUL 1818  38.686  -4.009   7.501
 1832THSLK    S 1819  38.727  -4.251   7.377
 1833ETHY    C1 1820  38.274  -4.340   7.359
 1834ETHY    C1 1821  37.749  -4.495   7.252
 1835THSLK    S 1822  38.748  -3.736   7.694
 1836ETHY    C1 1823  38.331  -3.585   7.825
 1837ETHY    C1 1824  37.796  -3.447   7.900
 1838AUSL   AUS 1825  40.248  -4.418   7.501
 1839AUSL   AUS 1826  40.178  -4.274   7.917
 1840AUL    AUL 1827  40.462  -4.500   7.804
 1841THSLK    S 1828  40.479  -4.557   7.501
 1842ETHY    C1 1829  40.833  -4.855   7.497
 1843ETHY    C1 1830  41.317  -5.132   7.498
 1844THSLK    S 1831  40.324  -4.461   8.070
 1845ETHY    C1 1832  40.612  -4.716   8.326
 1846ETHY    C1 1833  41.004  -4.936   8.657
 1847AUSL   AUS 1834  40.342  -4.173   7.349
 1848AUSL   AUS 1835  40.084  -4.520   7.236
 1849AUL    AUL 1836  40.462  -4.500   7.197
 1850THSLK    S 1837  40.588  -4.305   7.343
 1851ETHY    C1 1838  41.004  -4.490   7.266
 1852ETHY    C1 1839  41.540  -4.618   7.176
 1853THSLK    S 1840  40.216  -4.711   7.092
 1854ETHY    C1 1841  40.437  -5.072   6.907
 1855ETHY    C1 1842  40.778  -5.442   6.667
 1856AUSL   AUS 1843  39.088  -4.418   7.501
 1857AUSL   AUS 1844  39.158  -4.274   7.084
 1858AUL    AUL 1845  38.874  -4.500   7.197
 1859THSLK    S 1846  38.978  -4.442   6.958
 1860ETHY    C1 1847  38.632  -4.662   6.743
 1861ETHY    C1 1848  38.257  -4.892   6.400
 1862THSLK    S 1849  38.815  -4.490   7.501
 1863ETHY    C1 1850  38.391  -4.673   7.497
 1864ETHY    C1 1851  37.927  -4.983   7.498
 1865AUSL   AUS 1852  38.994  -4.173   7.652
 1866AUSL   AUS 1853  39.251  -4.520   7.765
 1867AUL    AUL 1854  38.874  -4.500   7.804
 1868THSLK    S 1855  39.065  -4.677   7.889
 1869ETHY    C1 1856  38.752  -4.983   8.033
 1870ETHY    C1 1857  38.437  -5.370   8.284
 1871THSLK    S 1858  38.727  -4.250   7.625
 1872ETHY    C1 1859  38.275  -4.346   7.639
 1873ETHY    C1 1860  37.750  -4.499   7.746
 1874AUSL   AUS 1861  39.668  -3.429   7.910
 1875AUSL   AUS 1862  39.251  -3.499   7.765
 1876AUL    AUL 1863  39.364  -3.215   7.991
 1877THSLK    S 1864  39.120  -3.331   7.945
 1878ETHY    C1 1865  38.899  -3.003   8.185
 1879ETHY    C1 1866  38.558  -2.623   8.409
 1880THSLK    S 1867  39.702  -3.188   8.033
 1881ETHY    C1 1868  39.760  -2.816   8.301
 1882ETHY    C1 1869  39.744  -2.337   8.586
 1883AUSL   AUS 1870  39.516  -3.336   7.664
 1884AUSL   AUS 1871  39.819  -3.336   7.337
 1885AUL    AUL 1872  39.668  -3.028   7.501
 1886THSLK    S 1873  39.547  -3.076   7.770
 1887ETHY    C1 1874  39.537  -2.635   7.907
 1888ETHY    C1 1875  39.428  -2.106   8.048
 1889THSLK    S 1876  39.864  -3.087   7.235
 1890ETHY    C1 1877  40.002  -2.669   7.097
 1891ETHY    C1 1878  40.074  -2.134   6.955
 1892AUSL   AUS 1879  39.819  -3.336   7.664
 1893AUSL   AUS 1880  39.933  -3.593   8.011
 1894AUL    AUL 1881  39.971  -3.215   7.991
 1895THSLK    S 1882  40.107  -3.465   8.185
 1896ETHY    C1 1883  40.343  -3.246   8.517
 1897ETHY    C1 1884  40.569  -2.904   8.895
 1898THSLK    S 1885  39.864  -3.088   7.767
 1899ETHY    C1 1886  40.003  -2.667   7.898
 1900ETHY    C1 1887  40.076  -2.133   8.041
 1901AUSL   AUS 1888  39.668  -4.589   7.910
 1902AUSL   AUS 1889  40.084  -4.520   7.765
 1903AUL    AUL 1890  39.971  -4.804   7.991
 1904THSLK    S 1891  39.634  -4.853   7.997
 1905ETHY    C1 1892  39.579  -5.262   8.205
 1906ETHY    C1 1893  39.594  -5.730   8.507
 1907THSLK    S 1894  40.216  -4.711   7.910
 1908ETHY    C1 1895  40.439  -5.073   8.089
 1909ETHY    C1 1896  40.780  -5.443   8.330
 1910AUSL   AUS 1897  39.516  -4.683   7.664
 1911AUSL   AUS 1898  39.403  -4.426   8.011
 1912AUL    AUL 1899  39.364  -4.804   7.991
 1913THSLK    S 1900  39.471  -4.936   7.746
 1914ETHY    C1 1901  39.334  -5.367   7.843
 1915ETHY    C1 1902  39.261  -5.899   7.996
 1916THSLK    S 1903  39.228  -4.600   8.146
 1917ETHY    C1 1904  38.997  -4.898   8.413
 1918ETHY    C1 1905  38.770  -5.218   8.810
 1919AUSL   AUS 1906  39.819  -4.683   7.664
 1920AUSL   AUS 1907  39.516  -4.683   7.337
 1921AUL    AUL 1908  39.668  -4.991   7.501
 1922THSLK    S 1909  39.471  -4.936   7.255
 1923ETHY    C1 1910  39.332  -5.365   7.152
 1924ETHY    C1 1911  39.260  -5.897   7.001
 1925THSLK    S 1912  39.788  -4.948   7.750
 1926ETHY    C1 1913  39.801  -5.399   7.852
 1927ETHY    C1 1914  39.909  -5.925   8.003
 1928AUSL   AUS 1915  39.668  -3.429   7.092
 1929AUSL   AUS 1916  40.084  -3.499   7.236
 1930AUL    AUL 1917  39.971  -3.215   7.010
 1931THSLK    S 1918  39.702  -3.188   6.969
 1932ETHY    C1 1919  39.757  -2.819   6.696
 1933ETHY    C1 1920  39.741  -2.340   6.412
 1934THSLK    S 1921  40.271  -3.364   7.077
 1935ETHY    C1 1922  40.584  -3.097   6.868
 1936ETHY    C1 1923  40.899  -2.700   6.634
 1937AUSL   AUS 1924  39.516  -3.336   7.337
 1938AUSL   AUS 1925  39.403  -3.593   6.990
 1939AUL    AUL 1926  39.364  -3.215   7.010
 1940THSLK    S 1927  39.547  -3.075   7.232
 1941ETHY    C1 1928  39.535  -2.637   7.088
 1942ETHY    C1 1929  39.427  -2.108   6.948
 1943THSLK    S 1930  39.276  -3.450   6.799
 1944ETHY    C1 1931  39.118  -3.210   6.437
 1945ETHY    C1 1932  38.870  -2.875   6.067
 1946AUSL   AUS 1933  39.668  -4.589   7.092
 1947AUSL   AUS 1934  39.251  -4.520   7.236
 1948AUL    AUL 1935  39.364  -4.804   7.010
 1949THSLK    S 1936  39.065  -4.677   7.113
 1950ETHY    C1 1937  38.749  -4.979   6.964
 1951ETHY    C1 1938  38.435  -5.366   6.714
 1952THSLK    S 1939  39.634  -4.853   7.004
 1953ETHY    C1 1940  39.575  -5.258   6.791
 1954ETHY    C1 1941  39.592  -5.728   6.490
 1955AUSL   AUS 1942  39.819  -4.683   7.337
 1956AUSL   AUS 1943  39.933  -4.426   6.990
 1957AUL    AUL 1944  39.971  -4.804   7.010
 1958THSLK    S 1945  39.789  -4.949   7.252
 1959ETHY    C1 1946  39.799  -5.397   7.143
 1960ETHY    C1 1947  39.907  -5.924   6.993
 1961THSLK    S 1948  40.061  -4.615   6.839
 1962ETHY    C1 1949  40.213  -4.933   6.541
 1963ETHY    C1 1950  40.462  -5.247   6.152
 1964AUC    AUC 1951  32.550  40.607   7.501
 1965AUC    AUC 1952  32.795  40.607   7.349
 1966AUC    AUC 1953  32.795  40.607   7.652
 1967AUC    AUC 1954  32.304  40.607   7.349
 1968AUC    AUC 1955  32.304  40.607   7.652
 1969AUC    AUC 1956  32.398  40.852   7.501
 1970AUC    AUC 1957  32.701  40.852   7.501
 1971AUC    AUC 1958  32.398  40.361   7.501
 1972AUC    AUC 1959  32.701  40.361   7.501
 1973AUC    AUC 1960  32.550  40.455   7.746
 1974AUC    AUC 1961  32.550  40.758   7.746
 1975AUC    AUC 1962  32.550  40.455   7.255
 1976AUC    AUC 1963  32.550  40.758   7.255
 1977AUC    AUC 1964  33.041  40.607   7.197
 1978AUC    AUC 1965  33.041  40.607   7.501
 1979AUC    AUC 1966  33.041  40.607   7.804
 1980AUC    AUC 1967  32.059  40.607   7.197
 1981AUC    AUC 1968  32.059  40.607   7.501
 1982AUC    AUC 1969  32.059  40.607   7.804
 1983AUC    AUC 1970  32.246  41.097   7.501
 1984AUC    AUC 1971  32.550  41.097   7.501
 1985AUC    AUC 1972  32.853  41.097   7.501
 1986AUC    AUC 1973  32.246  40.116   7.501
 1987AUC    AUC 1974  32.550  40.116   7.501
 1988AUC    AUC 1975  32.853  40.116   7.501
 1989AUC    AUC 1976  32.550  40.303   7.991
 1990AUC    AUC 1977  32.550  40.607   7.991
 1991AUC    AUC 1978  32.550  40.910   7.991
 1992AUC    AUC 1979  32.550  40.303   7.010
 1993AUC    AUC 1980  32.550  40.607   7.010
 1994AUC    AUC 1981  32.550  40.910   7.010
 1995AUC    AUC 1982  32.795  40.455   7.898
 1996AUC    AUC 1983  32.795  40.758   7.898
 1997AUC    AUC 1984  32.795  40.455   7.103
 1998AUC    AUC 1985  32.795  40.758   7.103
 1999AUC    AUC 1986  32.304  40.455   7.898
 2000AUC    AUC 1987  32.304  40.758   7.898
 2001AUC    AUC 1988  32.304  40.455   7.103
 2002AUC    AUC 1989  32.304  40.758   7.103
 2003AUC    AUC 1990  32.947  40.852   7.349
 2004AUC    AUC 1991  32.947  40.852   7.652
 2005AUC    AUC 1992  32.153  40.852   7.349
 2006AUC    AUC 1993  32.153  40.852   7.652
 2007AUC    AUC 1994  32.947  40.361   7.349
 2008AUC    AUC 1995  32.947  40.361   7.652
 2009AUC    AUC 1996  32.153  40.361   7.349
 2010AUC    AUC 1997  32.153  40.361   7.652
 2011AUC    AUC 1998  32.398  41.004   7.746
 2012AUC    AUC 1999  32.701  41.004   7.746
 2013AUC    AUC 2000  32.398  40.210   7.746
 2014AUC    AUC 2001  32.701  40.210   7.746
 2015AUC    AUC 2002  32.398  41.004   7.255
 2016AUC    AUC 2003  32.701  41.004   7.255
 2017AUC    AUC 2004  32.398  40.210   7.255
 2018AUC    AUC 2005  32.701  40.210   7.255
 2019AUSL   AUS 2006  32.959  40.607   8.081
 2020AUSL   AUS 2007  32.815  40.190   8.011
 2021AUL    AUL 2008  33.041  40.303   8.295
 2022THSLK    S 2009  32.942  40.002   8.163
 2023ETHY    C1 2010  33.100  39.681   8.456
 2024ETHY    C1 2011  33.348  39.368   8.845
 2025THSLK    S 2012  33.064  40.567   8.333
 2026ETHY    C1 2013  33.307  40.500   8.720
 2027ETHY    C1 2014  33.600  40.519   9.194
 2028AUSL   AUS 2015  32.713  40.455   8.174
 2029AUSL   AUS 2016  32.386  40.758   8.174
 2030AUL    AUL 2017  32.550  40.607   8.482
 2031THSLK    S 2018  32.800  40.409   8.426
 2032ETHY    C1 2019  32.913  40.268   8.852
 2033ETHY    C1 2020  33.062  40.197   9.385
 2034THSLK    S 2021  32.298  40.727   8.439
 2035ETHY    C1 2022  32.193  40.738   8.889
 2036ETHY    C1 2023  32.043  40.846   9.415
 2037AUSL   AUS 2024  32.713  40.758   8.174
 2038AUSL   AUS 2025  33.060  40.871   7.917
 2039AUL    AUL 2026  33.041  40.910   8.295
 2040THSLK    S 2027  32.801  40.804   8.426
 2041ETHY    C1 2028  32.907  40.944   8.854
 2042ETHY    C1 2029  33.057  41.016   9.386
 2043THSLK    S 2030  33.240  40.987   8.082
 2044ETHY    C1 2031  33.585  41.122   8.358
 2045ETHY    C1 2032  33.960  41.376   8.683
 2046AUSL   AUS 2033  32.959  40.607   6.921
 2047AUSL   AUS 2034  32.815  41.023   6.990
 2048AUL    AUL 2035  33.041  40.910   6.706
 2049THSLK    S 2036  33.065  40.567   6.668
 2050ETHY    C1 2037  33.302  40.500   6.278
 2051ETHY    C1 2038  33.595  40.519   5.804
 2052THSLK    S 2039  32.990  41.151   6.816
 2053ETHY    C1 2040  33.221  41.369   6.480
 2054ETHY    C1 2041  33.447  41.711   6.102
 2055AUSL   AUS 2042  32.713  40.455   6.827
 2056AUSL   AUS 2043  33.060  40.342   7.084
 2057AUL    AUL 2044  33.041  40.303   6.706
 2058THSLK    S 2045  33.206  40.155   6.932
 2059ETHY    C1 2046  33.490  39.901   6.670
 2060ETHY    C1 2047  33.882  39.681   6.340
 2061THSLK    S 2048  32.801  40.409   6.575
 2062ETHY    C1 2049  32.907  40.269   6.147
 2063ETHY    C1 2050  33.057  40.197   5.615
 2064AUSL   AUS 2051  32.713  40.758   6.827
 2065AUSL   AUS 2052  32.386  40.455   6.827
 2066AUL    AUL 2053  32.550  40.607   6.519
 2067THSLK    S 2054  32.286  40.409   6.579
 2068ETHY    C1 2055  32.152  40.271   6.158
 2069ETHY    C1 2056  32.009  40.199   5.624
 2070THSLK    S 2057  32.814  40.726   6.566
 2071ETHY    C1 2058  32.941  40.735   6.121
 2072ETHY    C1 2059  33.085  40.844   5.594
 2073AUSL   AUS 2060  32.141  40.607   8.081
 2074AUSL   AUS 2061  32.285  41.023   8.011
 2075AUL    AUL 2062  32.059  40.910   8.295
 2076THSLK    S 2063  32.035  40.567   8.333
 2077ETHY    C1 2064  31.798  40.500   8.723
 2078ETHY    C1 2065  31.504  40.519   9.197
 2079THSLK    S 2066  32.157  41.165   8.202
 2080ETHY    C1 2067  32.004  41.410   8.563
 2081ETHY    C1 2068  31.756  41.745   8.933
 2082AUSL   AUS 2069  32.386  40.455   8.174
 2083AUSL   AUS 2070  32.040  40.342   7.917
 2084AUL    AUL 2071  32.059  40.303   8.295
 2085THSLK    S 2072  31.859  40.174   8.043
 2086ETHY    C1 2073  31.518  39.948   8.259
 2087ETHY    C1 2074  31.142  39.720   8.602
 2088THSLK    S 2075  32.286  40.409   8.422
 2089ETHY    C1 2076  32.158  40.270   8.844
 2090ETHY    C1 2077  32.014  40.198   9.378
 2091AUSL   AUS 2078  32.141  40.607   6.921
 2092AUSL   AUS 2079  32.285  40.190   6.990
 2093AUL    AUL 2080  32.059  40.303   6.706
 2094THSLK    S 2081  32.036  40.567   6.668
 2095ETHY    C1 2082  31.792  40.500   6.281
 2096ETHY    C1 2083  31.500  40.519   5.807
 2097THSLK    S 2084  32.111  40.016   6.855
 2098ETHY    C1 2085  31.874  39.723   6.587
 2099ETHY    C1 2086  31.649  39.402   6.190
 2100AUSL   AUS 2087  32.386  40.758   6.827
 2101AUSL   AUS 2088  32.040  40.871   7.084
 2102AUL    AUL 2089  32.059  40.910   6.706
 2103THSLK    S 2090  31.894  41.006   6.894
 2104ETHY    C1 2091  31.605  41.170   6.572
 2105ETHY    C1 2092  31.214  41.415   6.259
 2106THSLK    S 2093  32.299  40.727   6.562
 2107ETHY    C1 2094  32.186  40.737   6.114
 2108ETHY    C1 2095  32.038  40.845   5.587
 2109AUSL   AUS 2096  33.130  41.016   7.501
 2110AUSL   AUS 2097  33.060  40.871   7.084
 2111AUL    AUL 2098  33.344  41.097   7.197
 2112THSLK    S 2099  33.240  40.988   6.920
 2113ETHY    C1 2100  33.581  41.121   6.638
 2114ETHY    C1 2101  33.957  41.375   6.314
 2115THSLK    S 2102  33.403  41.087   7.501
 2116ETHY    C1 2103  33.827  41.271   7.497
 2117ETHY    C1 2104  34.291  41.580   7.498
 2118AUSL   AUS 2105  33.224  40.770   7.349
 2119AUSL   AUS 2106  33.224  40.443   7.652
 2120AUL    AUL 2107  33.531  40.607   7.501
 2121THSLK    S 2108  33.491  40.825   7.341
 2122ETHY    C1 2109  33.943  40.881   7.262
 2123ETHY    C1 2110  34.468  41.046   7.172
 2124THSLK    S 2111  33.470  40.311   7.659
 2125ETHY    C1 2112  33.887  40.126   7.728
 2126ETHY    C1 2113  34.423  39.998   7.820
 2127AUSL   AUS 2114  33.224  40.770   7.652
 2128AUSL   AUS 2115  32.966  41.117   7.765
 2129AUL    AUL 2116  33.344  41.097   7.804
 2130THSLK    S 2117  33.152  41.252   7.925
 2131ETHY    C1 2118  33.468  41.520   8.128
 2132ETHY    C1 2119  33.783  41.917   8.362
 2133THSLK    S 2120  33.491  40.825   7.661
 2134ETHY    C1 2121  33.943  40.881   7.733
 2135ETHY    C1 2122  34.469  41.046   7.824
 2136AUSL   AUS 2123  31.970  41.016   7.501
 2137AUSL   AUS 2124  32.040  40.871   7.917
 2138AUL    AUL 2125  31.756  41.097   7.804
 2139THSLK    S 2126  31.893  41.006   8.107
 2140ETHY    C1 2127  31.609  41.175   8.430
 2141ETHY    C1 2128  31.217  41.420   8.743
 2142THSLK    S 2129  31.739  41.154   7.501
 2143ETHY    C1 2130  31.385  41.452   7.497
 2144ETHY    C1 2131  30.901  41.729   7.498
 2145AUSL   AUS 2132  31.876  40.770   7.349
 2146AUSL   AUS 2133  32.133  41.117   7.236
 2147AUL    AUL 2134  31.756  41.097   7.197
 2148THSLK    S 2135  31.630  40.880   7.307
 2149ETHY    C1 2136  31.212  41.025   7.173
 2150ETHY    C1 2137  30.677  41.165   7.099
 2151THSLK    S 2138  32.002  41.286   7.056
 2152ETHY    C1 2139  31.778  41.608   6.812
 2153ETHY    C1 2140  31.438  41.990   6.589
 2154AUSL   AUS 2141  31.876  40.770   7.652
 2155AUSL   AUS 2142  31.876  40.443   7.349
 2156AUL    AUL 2143  31.568  40.607   7.501
 2157THSLK    S 2144  31.609  40.365   7.377
 2158ETHY    C1 2145  31.156  40.276   7.359
 2159ETHY    C1 2146  30.631  40.121   7.252
 2160THSLK    S 2147  31.630  40.880   7.694
 2161ETHY    C1 2148  31.213  41.031   7.825
 2162ETHY    C1 2149  30.678  41.169   7.900
 2163AUSL   AUS 2150  33.130  40.198   7.501
 2164AUSL   AUS 2151  33.060  40.342   7.917
 2165AUL    AUL 2152  33.344  40.116   7.804
 2166THSLK    S 2153  33.361  40.059   7.501
 2167ETHY    C1 2154  33.715  39.761   7.497
 2168ETHY    C1 2155  34.199  39.484   7.498
 2169THSLK    S 2156  33.206  40.155   8.070
 2170ETHY    C1 2157  33.494  39.900   8.326
 2171ETHY    C1 2158  33.886  39.680   8.657
 2172AUSL   AUS 2159  33.224  40.443   7.349
 2173AUSL   AUS 2160  32.966  40.096   7.236
 2174AUL    AUL 2161  33.344  40.116   7.197
 2175THSLK    S 2162  33.470  40.311   7.343
 2176ETHY    C1 2163  33.886  40.126   7.266
 2177ETHY    C1 2164  34.422  39.998   7.176
 2178THSLK    S 2165  33.098  39.905   7.092
 2179ETHY    C1 2166  33.319  39.544   6.907
 2180ETHY    C1 2167  33.660  39.174   6.667
 2181AUSL   AUS 2168  31.970  40.198   7.501
 2182AUSL   AUS 2169  32.040  40.342   7.084
 2183AUL    AUL 2170  31.756  40.116   7.197
 2184THSLK    S 2171  31.860  40.174   6.958
 2185ETHY    C1 2172  31.514  39.954   6.743
 2186ETHY    C1 2173  31.139  39.724   6.400
 2187THSLK    S 2174  31.697  40.126   7.501
 2188ETHY    C1 2175  31.273  39.943   7.497
 2189ETHY    C1 2176  30.809  39.633   7.498
 2190AUSL   AUS 2177  31.876  40.443   7.652
 2191AUSL   AUS 2178  32.133  40.096   7.765
 2192AUL    AUL 2179  31.756  40.116   7.804
 2193THSLK    S 2180  31.947  39.939   7.889
 2194ETHY    C1 2181  31.634  39.633   8.033
 2195ETHY    C1 2182  31.319  39.246   8.284
 2196THSLK    S 2183  31.609  40.366   7.625
 2197ETHY    C1 2184  31.157  40.270   7.639
 2198ETHY    C1 2185  30.632  40.117   7.746
 2199AUSL   AUS 2186  32.550  41.187   7.910
 2200AUSL   AUS 2187  32.133  41.117   7.765
 2201AUL    AUL 2188  32.246  41.401   7.991
 2202THSLK    S 2189  32.002  41.285   7.945
 2203ETHY    C1 2190  31.781  41.613   8.185
 2204ETHY    C1 2191  31.440  41.993   8.409
 2205THSLK    S 2192  32.584  41.428   8.033
 2206ETHY    C1 2193  32.642  41.800   8.301
 2207ETHY    C1 2194  32.626  42.279   8.586
 2208AUSL   AUS 2195  32.398  41.280   7.664
 2209AUSL   AUS 2196  32.701  41.280   7.337
 2210AUL    AUL 2197  32.550  41.588   7.501
 2211THSLK    S 2198  32.429  41.540   7.770
 2212ETHY    C1 2199  32.419  41.981   7.907
 2213ETHY    C1 2200  32.310  42.510   8.048
 2214THSLK    S 2201  32.746  41.529   7.235
 2215ETHY    C1 2202  32.884  41.947   7.097
 2216ETHY    C1 2203  32.956  42.482   6.955
 2217AUSL   AUS 2204  32.701  41.280   7.664
 2218AUSL   AUS 2205  32.815  41.023   8.011
 2219AUL    AUL 2206  32.853  41.401   7.991
 2220THSLK    S 2207  32.989  41.151   8.185
 2221ETHY    C1 2208  33.225  41.370   8.517
 2222ETHY    C1 2209  33.451  41.712   8.895
 2223THSLK    S 2210  32.746  41.528   7.767
 2224ETHY    C1 2211  32.885  41.949   7.898
 2225ETHY    C1 2212  32.958  42.483   8.041
 2226AUSL   AUS 2213  32.550  40.027   7.910
 2227AUSL   AUS 2214  32.966  40.096   7.765
 2228AUL    AUL 2215  32.853  39.812   7.991
 2229THSLK    S 2216  32.516  39.763   7.997
 2230ETHY    C1 2217  32.461  39.354   8.205
 2231ETHY    C1 2218  32.476  38.886   8.507
 2232THSLK    S 2219  33.098  39.905   7.910
 2233ETHY    C1 2220  33.321  39.543   8.089
 2234ETHY    C1 2221  33.662  39.173   8.330
 2235AUSL   AUS 2222  32.398  39.933   7.664
 2236AUSL   AUS 2223  32.285  40.190   8.011
 2237AUL    AUL 2224  32.246  39.812   7.991
 2238THSLK    S 2225  32.353  39.680   7.746
 2239ETHY    C1 2226  32.216  39.249   7.843
 2240ETHY    C1 2227  32.143  38.717   7.996
 2241THSLK    S 2228  32.110  40.016   8.146
 2242ETHY    C1 2229  31.879  39.718   8.413
 2243ETHY    C1 2230  31.652  39.398   8.810
 2244AUSL   AUS 2231  32.701  39.933   7.664
 2245AUSL   AUS 2232  32.398  39.933   7.337
 2246AUL    AUL 2233  32.550  39.625   7.501
 2247THSLK    S 2234  32.353  39.680   7.255
 2248ETHY    C1 2235  32.214  39.251   7.152
 2249ETHY    C1 2236  32.142  38.719   7.001
 2250THSLK    S 2237  32.670  39.668   7.750
 2251ETHY    C1 2238  32.683  39.217   7.852
 2252ETHY    C1 2239  32.791  38.691   8.003
 2253AUSL   AUS 2240  32.550  41.187   7.092
 2254AUSL   AUS 2241  32.966  41.117   7.236
 2255AUL    AUL 2242  32.853  41.401   7.010
 2256THSLK    S 2243  32.584  41.428   6.969
 2257ETHY    C1 2244  32.639  41.797   6.696
 2258ETHY    C1 2245  32.623  42.276   6.412
 2259THSLK    S 2246  33.153  41.252   7.077
 2260ETHY    C1 2247  33.466  41.519   6.868
 2261ETHY    C1 2248  33.781  41.916   6.634
 2262AUSL   AUS 2249  32.398  41.280   7.337
 2263AUSL   AUS 2250  32.285  41.023   6.990
 2264AUL    AUL 2251  32.246  41.401   7.010
 2265THSLK    S 2252  32.429  41.541   7.232
 2266ETHY    C1 2253  32.417  41.979   7.088
 2267ETHY    C1 2254  32.309  42.508   6.948
 2268THSLK    S 2255  32.158  41.166   6.799
 2269ETHY    C1 2256  32.000  41.406   6.437
 2270ETHY    C1 2257  31.752  41.741   6.067
 2271AUSL   AUS 2258  32.550  40.027   7.092
 2272AUSL   AUS 2259  32.133  40.096   7.236
 2273AUL    AUL 2260  32.246  39.812   7.010
 2274THSLK    S 2261  31.947  39.939   7.113
 2275ETHY    C1 2262  31.631  39.637   6.964
 2276ETHY    C1 2263  31.317  39.250   6.714
 2277THSLK    S 2264  32.516  39.763   7.004
 2278ETHY    C1 2265  32.457  39.358   6.791
 2279ETHY    C1 2266  32.474  38.888   6.490
 2280AUSL   AUS 2267  32.701  39.933   7.337
 2281AUSL   AUS 2268  32.815  40.190   6.990
 2282AUL    AUL 2269  32.853  39.812   7.010
 2283THSLK    S 2270  32.671  39.667   7.252
 2284ETHY    C1 2271  32.681  39.219   7.143
 2285ETHY    C1 2272  32.789  38.692   6.993
 2286THSLK    S 2273  32.943  40.001   6.839
 2287ETHY    C1 2274  33.095  39.683   6.541
 2288ETHY    C1 2275  33.344  39.369   6.152
 2289AUC    AUC 2276  24.274  17.521   7.501
 2290AUC    AUC 2277  24.519  17.521   7.349
 2291AUC    AUC 2278  24.519  17.521   7.652
 2292AUC    AUC 2279  24.028  17.521   7.349
 2293AUC    AUC 2280  24.028  17.521   7.652
 2294AUC    AUC 2281  24.122  17.766   7.501
 2295AUC    AUC 2282  24.425  17.766   7.501
 2296AUC    AUC 2283  24.122  17.275   7.501
 2297AUC    AUC 2284  24.425  17.275   7.501
 2298AUC    AUC 2285  24.274  17.369   7.746
 2299AUC    AUC 2286  24.274  17.672   7.746
 2300AUC    AUC 2287  24.274  17.369   7.255
 2301AUC    AUC 2288  24.274  17.672   7.255
 2302AUC    AUC 2289  24.765  17.521   7.197
 2303AUC    AUC 2290  24.765  17.521   7.501
 2304AUC    AUC 2291  24.765  17.521   7.804
 2305AUC    AUC 2292  23.783  17.521   7.197
 2306AUC    AUC 2293  23.783  17.521   7.501
 2307AUC    AUC 2294  23.783  17.521   7.804
 2308AUC    AUC 2295  23.970  18.011   7.501
 2309AUC    AUC 2296  24.274  18.011   7.501
 2310AUC    AUC 2297  24.577  18.011   7.501
 2311AUC    AUC 2298  23.970  17.030   7.501
 2312AUC    AUC 2299  24.274  17.030   7.501
 2313AUC    AUC 2300  24.577  17.030   7.501
 2314AUC    AUC 2301  24.274  17.217   7.991
 2315AUC    AUC 2302  24.274  17.521   7.991
 2316AUC    AUC 2303  24.274  17.824   7.991
 2317AUC    AUC 2304  24.274  17.217   7.010
 2318AUC    AUC 2305  24.274  17.521   7.010
 2319AUC    AUC 2306  24.274  17.824   7.010
 2320AUC    AUC 2307  24.519  17.369   7.898
 2321AUC    AUC 2308  24.519  17.672   7.898
 2322AUC    AUC 2309  24.519  17.369   7.103
 2323AUC    AUC 2310  24.519  17.672   7.103
 2324AUC    AUC 2311  24.028  17.369   7.898
 2325AUC    AUC 2312  24.028  17.672   7.898
 2326AUC    AUC 2313  24.028  17.369   7.103
 2327AUC    AUC 2314  24.028  17.672   7.103
 2328AUC    AUC 2315  24.671  17.766   7.349
 2329AUC    AUC 2316  24.671  17.766   7.652
 2330AUC    AUC 2317  23.877  17.766   7.349
 2331AUC    AUC 2318  23.877  17.766   7.652
 2332AUC    AUC 2319  24.671  17.275   7.349
 2333AUC    AUC 2320  24.671  17.275   7.652
 2334AUC    AUC 2321  23.877  17.275   7.349
 2335AUC    AUC 2322  23.877  17.275   7.652
 2336AUC    AUC 2323  24.122  17.918   7.746
 2337AUC    AUC 2324  24.425  17.918   7.746
 2338AUC    AUC 2325  24.122  17.124   7.746
 2339AUC    AUC 2326  24.425  17.124   7.746
 2340AUC    AUC 2327  24.122  17.918   7.255
 2341AUC    AUC 2328  24.425  17.918   7.255
 2342AUC    AUC 2329  24.122  17.124   7.255
 2343AUC    AUC 2330  24.425  17.124   7.255
 2344AUSL   AUS 2331  24.683  17.521   8.081
 2345AUSL   AUS 2332  24.539  17.104   8.011
 2346AUL    AUL 2333  24.765  17.217   8.295
 2347THSLK    S 2334  24.666  16.916   8.163
 2348ETHY    C1 2335  24.824  16.595   8.456
 2349ETHY    C1 2336  25.072  16.282   8.845
 2350THSLK    S 2337  24.788  17.481   8.333
 2351ETHY    C1 2338  25.031  17.414   8.720
 2352ETHY    C1 2339  25.324  17.433   9.194
 2353AUSL   AUS 2340  24.437  17.369   8.174
 2354AUSL   AUS 2341  24.110  17.672   8.174
 2355AUL    AUL 2342  24.274  17.521   8.482
 2356THSLK    S 2343  24.524  17.323   8.426
 2357ETHY    C1 2344  24.637  17.182   8.852
 2358ETHY    C1 2345  24.786  17.111   9.385
 2359THSLK    S 2346  24.022  17.641   8.439
 2360ETHY    C1 2347  23.917  17.652   8.889
 2361ETHY    C1 2348  23.767  17.760   9.415
 2362AUSL   AUS 2349  24.437  17.672   8.174
 2363AUSL   AUS 2350  24.784  17.785   7.917
 2364AUL    AUL 2351  24.765  17.824   8.295
 2365THSLK    S 2352  24.525  17.718   8.426
 2366ETHY    C1 2353  24.631  17.858   8.854
 2367ETHY    C1 2354  24.781  17.930   9.386
 2368THSLK    S 2355  24.964  17.901   8.082
 2369ETHY    C1 2356  25.309  18.036   8.358
 2370ETHY    C1 2357  25.684  18.290   8.683
 2371AUSL   AUS 2358  24.683  17.521   6.921
 2372AUSL   AUS 2359  24.539  17.937   6.990
 2373AUL    AUL 2360  24.765  17.824   6.706
 2374THSLK    S 2361  24.789  17.481   6.668
 2375ETHY    C1 2362  25.026  17.414   6.278
 2376ETHY    C1 2363  25.319  17.433   5.804
 2377THSLK    S 2364  24.714  18.065   6.816
 2378ETHY    C1 2365  24.945  18.283   6.480
 2379ETHY    C1 2366  25.171  18.625   6.102
 2380AUSL   AUS 2367  24.437  17.369   6.827
 2381AUSL   AUS 2368  24.784  17.256   7.084
 2382AUL    AUL 2369  24.765  17.217   6.706
 2383THSLK    S 2370  24.930  17.069   6.932
 2384ETHY    C1 2371  25.214  16.815   6.670
 2385ETHY    C1 2372  25.606  16.595   6.340
 2386THSLK    S 2373  24.525  17.323   6.575
 2387ETHY    C1 2374  24.631  17.183   6.147
 2388ETHY    C1 2375  24.781  17.111   5.615
 2389AUSL   AUS 2376  24.437  17.672   6.827
 2390AUSL   AUS 2377  24.110  17.369   6.827
 2391AUL    AUL 2378  24.274  17.521   6.519
 2392THSLK    S 2379  24.010  17.323   6.579
 2393ETHY    C1 2380  23.876  17.185   6.158
 2394ETHY    C1 2381  23.733  17.113   5.624
 2395THSLK    S 2382  24.538  17.640   6.566
 2396ETHY    C1 2383  24.665  17.649   6.121
 2397ETHY    C1 2384  24.809  17.758   5.594
 2398AUSL   AUS 2385  23.865  17.521   8.081
 2399AUSL   AUS 2386  24.009  17.937   8.011
 2400AUL    AUL 2387  23.783  17.824   8.295
 2401THSLK    S 2388  23.759  17.481   8.333
 2402ETHY    C1 2389  23.522  17.414   8.723
 2403ETHY    C1 2390  23.228  17.433   9.197
 2404THSLK    S 2391  23.881  18.079   8.202
 2405ETHY    C1 2392  23.728  18.324   8.563
 2406ETHY    C1 2393  23.480  18.659   8.933
 2407AUSL   AUS 2394  24.110  17.369   8.174
 2408AUSL   AUS 2395  23.764  17.256   7.917
 2409AUL    AUL 2396  23.783  17.217   8.295
 2410THSLK    S 2397  23.583  17.088   8.043
 2411ETHY    C1 2398  23.242  16.862   8.259
 2412ETHY    C1 2399  22.866  16.634   8.602
 2413THSLK    S 2400  24.010  17.323   8.422
 2414ETHY    C1 2401  23.882  17.184   8.844
 2415ETHY    C1 2402  23.738  17.112   9.378
 2416AUSL   AUS 2403  23.865  17.521   6.921
 2417AUSL   AUS 2404  24.009  17.104   6.990
 2418AUL    AUL 2405  23.783  17.217   6.706
 2419THSLK    S 2406  23.760  17.481   6.668
 2420ETHY    C1 2407  23.516  17.414   6.281
 2421ETHY    C1 2408  23.224  17.433   5.807
 2422THSLK    S 2409  23.835  16.930   6.855
 2423ETHY    C1 2410  23.598  16.637   6.587
 2424ETHY    C1 2411  23.373  16.316   6.190
 2425AUSL   AUS 2412  24.110  17.672   6.827
 2426AUSL   AUS 2413  23.764  17.785   7.084
 2427AUL    AUL 2414  23.783  17.824   6.706
 2428THSLK    S 2415  23.618  17.920   6.894
 2429ETHY    C1 2416  23.329  18.084   6.572
 2430ETHY    C1 2417  22.938  18.329   6.259
 2431THSLK    S 2418  24.023  17.641   6.562
 2432ETHY    C1 2419  23.910  17.651   6.114
 2433ETHY    C1 2420  23.762  17.759   5.587
 2434AUSL   AUS 2421  24.854  17.930   7.501
 2435AUSL   AUS 2422  24.784  17.785   7.084
 2436AUL    AUL 2423  25.068  18.011   7.197
 2437THSLK    S 2424  24.964  17.902   6.920
 2438ETHY    C1 2425  25.305  18.035   6.638
 2439ETHY    C1 2426  25.681  18.289   6.314
 2440THSLK    S 2427  25.127  18.001   7.501
 2441ETHY    C1 2428  25.551  18.185   7.497
 2442ETHY    C1 2429  26.015  18.494   7.498
 2443AUSL   AUS 2430  24.948  17.684   7.349
 2444AUSL   AUS 2431  24.948  17.357   7.652
 2445AUL    AUL 2432  25.255  17.521   7.501
 2446THSLK    S 2433  25.215  17.739   7.341
 2447ETHY    C1 2434  25.667  17.795   7.262
 2448ETHY    C1 2435  26.192  17.960   7.172
 2449THSLK    S 2436  25.194  17.225   7.659
 2450ETHY    C1 2437  25.611  17.040   7.728
 2451ETHY    C1 2438  26.147  16.912   7.820
 2452AUSL   AUS 2439  24.948  17.684   7.652
 2453AUSL   AUS 2440  24.690  18.031   7.765
 2454AUL    AUL 2441  25.068  18.011   7.804
 2455THSLK    S 2442  24.876  18.166   7.925
 2456ETHY    C1 2443  25.192  18.434   8.128
 2457ETHY    C1 2444  25.507  18.831   8.362
 2458THSLK    S 2445  25.215  17.739   7.661
 2459ETHY    C1 2446  25.667  17.795   7.733
 2460ETHY    C1 2447  26.193  17.960   7.824
 2461AUSL   AUS 2448  23.694  17.930   7.501
 2462AUSL   AUS 2449  23.764  17.785   7.917
 2463AUL    AUL 2450  23.480  18.011   7.804
 2464THSLK    S 2451  23.617  17.920   8.107
 2465ETHY    C1 2452  23.333  18.089   8.430
 2466ETHY    C1 2453  22.941  18.334   8.743
 2467THSLK    S 2454  23.463  18.068   7.501
 2468ETHY    C1 2455  23.109  18.366   7.497
 2469ETHY    C1 2456  22.625  18.643   7.498
 2470AUSL   AUS 2457  23.600  17.684   7.349
 2471AUSL   AUS 2458  23.857  18.031   7.236
 2472AUL    AUL 2459  23.480  18.011   7.197
 2473THSLK    S 2460  23.354  17.794   7.307
 2474ETHY    C1 2461  22.936  17.939   7.173
 2475ETHY    C1 2462  22.401  18.079   7.099
 2476THSLK    S 2463  23.726  18.200   7.056
 2477ETHY    C1 2464  23.502  18.522   6.812
 2478ETHY    C1 2465  23.162  18.904   6.589
 2479AUSL   AUS 2466  23.600  17.684   7.652
 2480AUSL   AUS 2467  23.600  17.357   7.349
 2481AUL    AUL 2468  23.292  17.521   7.501
 2482THSLK    S 2469  23.333  17.279   7.377
 2483ETHY    C1 2470  22.880  17.190   7.359
 2484ETHY    C1 2471  22.355  17.035   7.252
 2485THSLK    S 2472  23.354  17.794   7.694
 2486ETHY    C1 2473  22.937  17.945   7.825
 2487ETHY    C1 2474  22.402  18.083   7.900
 2488AUSL   AUS 2475  24.854  17.112   7.501
 2489AUSL   AUS 2476  24.784  17.256   7.917
 2490AUL    AUL 2477  25.068  17.030   7.804
 2491THSLK    S 2478  25.085  16.973   7.501
 2492ETHY    C1 2479  25.439  16.675   7.497
 2493ETHY    C1 2480  25.923  16.398   7.498
 2494THSLK    S 2481  24.930  17.069   8.070
 2495ETHY    C1 2482  25.218  16.814   8.326
 2496ETHY    C1 2483  25.610  16.594   8.657
 2497AUSL   AUS 2484  24.948  17.357   7.349
 2498AUSL   AUS 2485  24.690  17.010   7.236
 2499AUL    AUL 2486  25.068  17.030   7.197
 2500THSLK    S 2487  25.194  17.225   7.343
 2501ETHY    C1 2488  25.610  17.040   7.266
 2502ETHY    C1 2489  26.146  16.912   7.176
 2503THSLK    S 2490  24.822  16.819   7.092
 2504ETHY    C1 2491  25.043  16.458   6.907
 2505ETHY    C1 2492  25.384  16.088   6.667
 2506AUSL   AUS 2493  23.694  17.112   7.501
 2507AUSL   AUS 2494  23.764  17.256   7.084
 2508AUL    AUL 2495  23.480  17.030   7.197
 2509THSLK    S 2496  23.584  17.088   6.958
 2510ETHY    C1 2497  23.238  16.868   6.743
 2511ETHY    C1 2498  22.863  16.638   6.400
 2512THSLK    S 2499  23.421  17.040   7.501
 2513ETHY    C1 2500  22.997  16.857   7.497
 2514ETHY    C1 2501  22.533  16.547   7.498
 2515AUSL   AUS 2502  23.600  17.357   7.652
 2516AUSL   AUS 2503  23.857  17.010   7.765
 2517AUL    AUL 2504  23.480  17.030   7.804
 2518THSLK    S 2505  23.671  16.853   7.889
 2519ETHY    C1 2506  23.358  16.547   8.033
 2520ETHY    C1 2507  23.043  16.160   8.284
 2521THSLK    S 2508  23.333  17.280   7.625
 2522ETHY    C1 2509  22.881  17.184   7.639
 2523ETHY    C1 2510  22.356  17.031   7.746
 2524AUSL   AUS 2511  24.274  18.101   7.910
 2525AUSL   AUS 2512  23.857  18.031   7.765
 2526AUL    AUL 2513  23.970  18.315   7.991
 2527THSLK    S 2514  23.726  18.199   7.945
 2528ETHY    C1 2515  23.505  18.527   8.185
 2529ETHY    C1 2516  23.164  18.907   8.409
 2530THSLK    S 2517  24.308  18.342   8.033
 2531ETHY    C1 2518  24.366  18.714   8.301
 2532ETHY    C1 2519  24.350  19.193   8.586
 2533AUSL   AUS 2520  24.122  18.194   7.664
 2534AUSL   AUS 2521  24.425  18.194   7.337
 2535AUL    AUL 2522  24.274  18.502   7.501
 2536THSLK    S 2523  24.153  18.454   7.770
 2537ETHY    C1 2524  24.143  18.895   7.907
 2538ETHY    C1 2525  24.034  19.424   8.048
 2539THSLK    S 2526  24.470  18.443   7.235
 2540ETHY    C1 2527  24.608  18.861   7.097
 2541ETHY    C1 2528  24.680  19.396   6.955
 2542AUSL   AUS 2529  24.425  18.194   7.664
 2543AUSL   AUS 2530  24.539  17.937   8.011
 2544AUL    AUL 2531  24.577  18.315   7.991
 2545THSLK    S 2532  24.713  18.065   8.185
 2546ETHY    C1 2533  24.949  18.284   8.517
 2547ETHY    C1 2534  25.175  18.626   8.895
 2548THSLK    S 2535  24.470  18.442   7.767
 2549ETHY    C1 2536  24.609  18.863   7.898
 2550ETHY    C1 2537  24.682  19.397   8.041
 2551AUSL   AUS 2538  24.274  16.941   7.910
 2552AUSL   AUS 2539  24.690  17.010   7.765
 2553AUL    AUL 2540  24.577  16.726   7.991
 2554THSLK    S 2541  24.240  16.677   7.997
 2555ETHY    C1 2542  24.185  16.268   8.205
 2556ETHY    C1 2543  24.200  15.800   8.507
 2557THSLK    S 2544  24.822  16.819   7.910
 2558ETHY    C1 2545  25.045  16.457   8.089
 2559ETHY    C1 2546  25.386  16.087   8.330
 2560AUSL   AUS 2547  24.122  16.847   7.664
 2561AUSL   AUS 2548  24.009  17.104   8.011
 2562AUL    AUL 2549  23.970  16.726   7.991
 2563THSLK    S 2550  24.077  16.594   7.746
 2564ETHY    C1 2551  23.940  16.163   7.843
 2565ETHY    C1 2552  23.867  15.631   7.996
 2566THSLK    S 2553  23.834  16.930   8.146
 2567ETHY    C1 2554  23.603  16.632   8.413
 2568ETHY    C1 2555  23.376  16.312   8.810
 2569AUSL   AUS 2556  24.425  16.847   7.664
 2570AUSL   AUS 2557  24.122  16.847   7.337
 2571AUL    AUL 2558  24.274  16.539   7.501
 2572THSLK    S 2559  24.077  16.594   7.255
 2573ETHY    C1 2560  23.938  16.165   7.152
 2574ETHY    C1 2561  23.866  15.633   7.001
 2575THSLK    S 2562  24.394  16.582   7.750
 2576ETHY    C1 2563  24.407  16.131   7.852
 2577ETHY    C1 2564  24.515  15.605   8.003
 2578AUSL   AUS 2565  24.274  18.101   7.092
 2579AUSL   AUS 2566  24.690  18.031   7.236
 2580AUL    AUL 2567  24.577  18.315   7.010
 2581THSLK    S 2568  24.308  18.342   6.969
 2582ETHY    C1 2569  24.363  18.711   6.696
 2583ETHY    C1 2570  24.347  19.190   6.412
 2584THSLK    S 2571  24.877  18.166   7.077
 2585ETHY    C1 2572  25.190  18.433   6.868
 2586ETHY    C1 2573  25.505  18.830   6.634
 2587AUSL   AUS 2574  24.122  18.194   7.337
 2588AUSL   AUS 2575  24.009  17.937   6.990
 2589AUL    AUL 2576  23.970  18.315   7.010
 2590THSLK    S 2577  24.153  18.455   7.232
 2591ETHY    C1 2578  24.141  18.893   7.088
 2592ETHY    C1 2579  24.033  19.422   6.948
 2593THSLK    S 2580  23.882  18.080   6.799
 2594ETHY    C1 2581  23.724  18.320   6.437
 2595ETHY    C1 2582  23.476  18.655   6.067
 2596AUSL   AUS 2583  24.274  16.941   7.092
 2597AUSL   AUS 2584  23.857  17.010   7.236
 2598AUL    AUL 2585  23.970  16.726   7.010
 2599THSLK    S 2586  23.671  16.853   7.113
 2600ETHY    C1 2587  23.355  16.551   6.964
 2601ETHY    C1 2588  23.041  16.164   6.714
 2602THSLK    S 2589  24.240  16.677   7.004
 2603ETHY    C1 2590  24.181  16.272   6.791
 2604ETHY    C1 2591  24.198  15.802   6.490
 2605AUSL   AUS 2592  24.425  16.847   7.337
 2606AUSL   AUS 2593  24.539  17.104   6.990
 2607AUL    AUL 2594  24.577  16.726   7.010
 2608THSLK    S 2595  24.395  16.581   7.252
 2609ETHY    C1 2596  24.405  16.133   7.143
 2610ETHY    C1 2597  24.513  15.606   6.993
 2611THSLK    S 2598  24.667  16.915   6.839
 2612ETHY    C1 2599  24.819  16.597   6.541
 2613ETHY    C1 2600  25.068  16.283   6.152
 2614AUC    AUC 2601  46.991  17.913   7.501
 2615AUC    AUC 2602  47.236  17.913   7.349
 2616AUC    AUC 2603  47.236  17.913   7.652
 2617AUC    AUC 2604  46.745  17.913   7.349
 2618AUC    AUC 2605  46.745  17.913   7.652
 2619AUC    AUC 2606  46.839  18.158   7.501
 2620AUC    AUC 2607  47.142  18.158   7.501
 2621AUC    AUC 2608  46.839  17.667   7.501
 2622AUC    AUC 2609  47.142  17.667   7.501
 2623AUC    AUC 2610  46.991  17.761   7.746
 2624AUC    AUC 2611  46.991  18.064   7.746
 2625AUC    AUC 2612  46.991  17.761   7.255
 2626AUC    AUC 2613  46.991  18.064   7.255
 2627AUC    AUC 2614  47.482  17.913   7.197
 2628AUC    AUC 2615  47.482  17.913   7.501
 2629AUC    AUC 2616  47.482  17.913   7.804
 2630AUC    AUC 2617  46.500  17.913   7.197
 2631AUC    AUC 2618  46.500  17.913   7.501
 2632AUC    AUC 2619  46.500  17.913   7.804
 2633AUC    AUC 2620  46.687  18.403   7.501
 2634AUC    AUC 2621  46.991  18.403   7.501
 2635AUC    AUC 2622  47.294  18.403   7.501
 2636AUC    AUC 2623  46.687  17.422   7.501
 2637AUC    AUC 2624  46.991  17.422   7.501
 2638AUC    AUC 2625  47.294  17.422   7.501
 2639AUC    AUC 2626  46.991  17.609   7.991
 2640AUC    AUC 2627  46.991  17.913   7.991
 2641AUC    AUC 2628  46.991  18.216   7.991
 2642AUC    AUC 2629  46.991  17.609   7.010
 2643AUC    AUC 2630  46.991  17.913   7.010
 2644AUC    AUC 2631  46.991  18.216   7.010
 2645AUC    AUC 2632  47.236  17.761   7.898
 2646AUC    AUC 2633  47.236  18.064   7.898
 2647AUC    AUC 2634  47.236  17.761   7.103
 2648AUC    AUC 2635  47.236  18.064   7.103
 2649AUC    AUC 2636  46.745  17.761   7.898
 2650AUC    AUC 2637  46.745  18.064   7.898
 2651AUC    AUC 2638  46.745  17.761   7.103
 2652AUC    AUC 2639  46.745  18.064   7.103
 2653AUC    AUC 2640  47.388  18.158   7.349
 2654AUC    AUC 2641  47.388  18.158   7.652
 2655AUC    AUC 2642  46.594  18.158   7.349
 2656AUC    AUC 2643  46.594  18.158   7.652
 2657AUC    AUC 2644  47.388  17.667   7.349
 2658AUC    AUC 2645  47.388  17.667   7.652
 2659AUC    AUC 2646  46.594  17.667   7.349
 2660AUC    AUC 2647  46.594  17.667   7.652
 2661AUC    AUC 2648  46.839  18.310   7.746
 2662AUC    AUC 2649  47.142  18.310   7.746
 2663AUC    AUC 2650  46.839  17.516   7.746
 2664AUC    AUC 2651  47.142  17.516   7.746
 2665AUC    AUC 2652  46.839  18.310   7.255
 2666AUC    AUC 2653  47.142  18.310   7.255
 2667AUC    AUC 2654  46.839  17.516   7.255
 2668AUC    AUC 2655  47.142  17.516   7.255
 2669AUSL   AUS 2656  47.400  17.913   8.081
 2670AUSL   AUS 2657  47.256  17.496   8.011
 2671AUL    AUL 2658  47.482  17.609   8.295
 2672THSLK    S 2659  47.383  17.308   8.163
 2673ETHY    C1 2660  47.541  16.987   8.456
 2674ETHY    C1 2661  47.789  16.674   8.845
 2675THSLK    S 2662  47.505  17.873   8.333
 2676ETHY    C1 2663  47.748  17.806   8.720
 2677ETHY    C1 2664  48.041  17.825   9.194
 2678AUSL   AUS 2665  47.154  17.761   8.174
 2679AUSL   AUS 2666  46.827  18.064   8.174
 2680AUL    AUL 2667  46.991  17.913   8.482
 2681THSLK    S 2668  47.241  17.715   8.426
 2682ETHY    C1 2669  47.354  17.574   8.852
 2683ETHY    C1 2670  47.503  17.503   9.385
 2684THSLK    S 2671  46.739  18.033   8.439
 2685ETHY    C1 2672  46.634  18.044   8.889
 2686ETHY    C1 2673  46.484  18.152   9.415
 2687AUSL   AUS 2674  47.154  18.064   8.174
 2688AUSL   AUS 2675  47.501  18.177   7.917
 2689AUL    AUL 2676  47.482  18.216   8.295
 2690THSLK    S 2677  47.242  18.110   8.426
 2691ETHY    C1 2678  47.348  18.250   8.854
 2692ETHY    C1 2679  47.498  18.322   9.386
 2693THSLK    S 2680  47.681  18.293   8.082
 2694ETHY    C1 2681  48.026  18.428   8.358
 2695ETHY    C1 2682  48.401  18.682   8.683
 2696AUSL   AUS 2683  47.400  17.913   6.921
 2697AUSL   AUS 2684  47.256  18.329   6.990
 2698AUL    AUL 2685  47.482  18.216   6.706
 2699THSLK    S 2686  47.506  17.873   6.668
 2700ETHY    C1 2687  47.743  17.806   6.278
 2701ETHY    C1 2688  48.036  17.825   5.804
 2702THSLK    S 2689  47.431  18.457   6.816
 2703ETHY    C1 2690  47.662  18.675   6.480
 2704ETHY    C1 2691  47.888  19.017   6.102
 2705AUSL   AUS 2692  47.154  17.761   6.827
 2706AUSL   AUS 2693  47.501  17.648   7.084
 2707AUL    AUL 2694  47.482  17.609   6.706
 2708THSLK    S 2695  47.647  17.461   6.932
 2709ETHY    C1 2696  47.931  17.207   6.670
 2710ETHY    C1 2697  48.323  16.987   6.340
 2711THSLK    S 2698  47.242  17.715   6.575
 2712ETHY    C1 2699  47.348  17.575   6.147
 2713ETHY    C1 2700  47.498  17.503   5.615
 2714AUSL   AUS 2701  47.154  18.064   6.827
 2715AUSL   AUS 2702  46.827  17.761   6.827
 2716AUL    AUL 2703  46.991  17.913   6.519
 2717THSLK    S 2704  46.727  17.715   6.579
 2718ETHY    C1 2705  46.593  17.577   6.158
 2719ETHY    C1 2706  46.450  17.505   5.624
 2720THSLK    S 2707  47.255  18.032   6.566
 2721ETHY    C1 2708  47.382  18.041   6.121
 2722ETHY    C1 2709  47.526  18.150   5.594
 2723AUSL   AUS 2710  46.582  17.913   8.081
 2724AUSL   AUS 2711  46.726  18.329   8.011
 2725AUL    AUL 2712  46.500  18.216   8.295
 2726THSLK    S 2713  46.476  17.873   8.333
 2727ETHY    C1 2714  46.239  17.806   8.723
 2728ETHY    C1 2715  45.945  17.825   9.197
 2729THSLK    S 2716  46.598  18.471   8.202
 2730ETHY    C1 2717  46.445  18.716   8.563
 2731ETHY    C1 2718  46.197  19.051   8.933
 2732AUSL   AUS 2719  46.827  17.761   8.174
 2733AUSL   AUS 2720  46.481  17.648   7.917
 2734AUL    AUL 2721  46.500  17.609   8.295
 2735THSLK    S 2722  46.300  17.480   8.043
 2736ETHY    C1 2723  45.959  17.254   8.259
 2737ETHY    C1 2724  45.583  17.026   8.602
 2738THSLK    S 2725  46.727  17.715   8.422
 2739ETHY    C1 2726  46.599  17.576   8.844
 2740ETHY    C1 2727  46.455  17.504   9.378
 2741AUSL   AUS 2728  46.582  17.913   6.921
 2742AUSL   AUS 2729  46.726  17.496   6.990
 2743AUL    AUL 2730  46.500  17.609   6.706
 2744THSLK    S 2731  46.477  17.873   6.668
 2745ETHY    C1 2732  46.233  17.806   6.281
 2746ETHY    C1 2733  45.941  17.825   5.807
 2747THSLK    S 2734  46.552  17.322   6.855
 2748ETHY    C1 2735  46.315  17.029   6.587
 2749ETHY    C1 2736  46.090  16.708   6.190
 2750AUSL   AUS 2737  46.827  18.064   6.827
 2751AUSL   AUS 2738  46.481  18.177   7.084
 2752AUL    AUL 2739  46.500  18.216   6.706
 2753THSLK    S 2740  46.335  18.312   6.894
 2754ETHY    C1 2741  46.046  18.476   6.572
 2755ETHY    C1 2742  45.655  18.721   6.259
 2756THSLK    S 2743  46.740  18.033   6.562
 2757ETHY    C1 2744  46.627  18.043   6.114
 2758ETHY    C1 2745  46.479  18.151   5.587
 2759AUSL   AUS 2746  47.571  18.322   7.501
 2760AUSL   AUS 2747  47.501  18.177   7.084
 2761AUL    AUL 2748  47.785  18.403   7.197
 2762THSLK    S 2749  47.681  18.294   6.920
 2763ETHY    C1 2750  48.022  18.427   6.638
 2764ETHY    C1 2751  48.398  18.681   6.314
 2765THSLK    S 2752  47.844  18.393   7.501
 2766ETHY    C1 2753  48.268  18.577   7.497
 2767ETHY    C1 2754  48.732  18.886   7.498
 2768AUSL   AUS 2755  47.665  18.076   7.349
 2769AUSL   AUS 2756  47.665  17.749   7.652
 2770AUL    AUL 2757  47.972  17.913   7.501
 2771THSLK    S 2758  47.932  18.131   7.341
 2772ETHY    C1 2759  48.384  18.187   7.262
 2773ETHY    C1 2760  48.909  18.352   7.172
 2774THSLK    S 2761  47.911  17.617   7.659
 2775ETHY    C1 2762  48.328  17.432   7.728
 2776ETHY    C1 2763  48.864  17.304   7.820
 2777AUSL   AUS 2764  47.665  18.076   7.652
 2778AUSL   AUS 2765  47.407  18.423   7.765
 2779AUL    AUL 2766  47.785  18.403   7.804
 2780THSLK    S 2767  47.593  18.558   7.925
 2781ETHY    C1 2768  47.909  18.826   8.128
 2782ETHY    C1 2769  48.224  19.223   8.362
 2783THSLK    S 2770  47.932  18.131   7.661
 2784ETHY    C1 2771  48.384  18.187   7.733
 2785ETHY    C1 2772  48.910  18.352   7.824
 2786AUSL   AUS 2773  46.411  18.322   7.501
 2787AUSL   AUS 2774  46.481  18.177   7.917
 2788AUL    AUL 2775  46.197  18.403   7.804
 2789THSLK    S 2776  46.334  18.312   8.107
 2790ETHY    C1 2777  46.050  18.481   8.430
 2791ETHY    C1 2778  45.658  18.726   8.743
 2792THSLK    S 2779  46.180  18.460   7.501
 2793ETHY    C1 2780  45.826  18.758   7.497
 2794ETHY    C1 2781  45.342  19.035   7.498
 2795AUSL   AUS 2782  46.317  18.076   7.349
 2796AUSL   AUS 2783  46.574  18.423   7.236
 2797AUL    AUL 2784  46.197  18.403   7.197
 2798THSLK    S 2785  46.071  18.186   7.307
 2799ETHY    C1 2786  45.653  18.331   7.173
 2800ETHY    C1 2787  45.118  18.471   7.099
 2801THSLK    S 2788  46.443  18.592   7.056
 2802ETHY    C1 2789  46.219  18.914   6.812
 2803ETHY    C1 2790  45.879  19.296   6.589
 2804AUSL   AUS 2791  46.317  18.076   7.652
 2805AUSL   AUS 2792  46.317  17.749   7.349
 2806AUL    AUL 2793  46.009  17.913   7.501
 2807THSLK    S 2794  46.050  17.671   7.377
 2808ETHY    C1 2795  45.597  17.582   7.359
 2809ETHY    C1 2796  45.072  17.427   7.252
 2810THSLK    S 2797  46.071  18.186   7.694
 2811ETHY    C1 2798  45.654  18.337   7.825
 2812ETHY    C1 2799  45.119  18.475   7.900
 2813AUSL   AUS 2800  47.571  17.504   7.501
 2814AUSL   AUS 2801  47.501  17.648   7.917
 2815AUL    AUL 2802  47.785  17.422   7.804
 2816THSLK    S 2803  47.802  17.365   7.501
 2817ETHY    C1 2804  48.156  17.067   7.497
 2818ETHY    C1 2805  48.640  16.790   7.498
 2819THSLK    S 2806  47.647  17.461   8.070
 2820ETHY    C1 2807  47.935  17.206   8.326
 2821ETHY    C1 2808  48.327  16.986   8.657
 2822AUSL   AUS 2809  47.665  17.749   7.349
 2823AUSL   AUS 2810  47.407  17.402   7.236
 2824AUL    AUL 2811  47.785  17.422   7.197
 2825THSLK    S 2812  47.911  17.617   7.343
 2826ETHY    C1 2813  48.327  17.432   7.266
 2827ETHY    C1 2814  48.863  17.304   7.176
 2828THSLK    S 2815  47.539  17.211   7.092
 2829ETHY    C1 2816  47.760  16.850   6.907
 2830ETHY    C1 2817  48.101  16.480   6.667
 2831AUSL   AUS 2818  46.411  17.504   7.501
 2832AUSL   AUS 2819  46.481  17.648   7.084
 2833AUL    AUL 2820  46.197  17.422   7.197
 2834THSLK    S 2821  46.301  17.480   6.958
 2835ETHY    C1 2822  45.955  17.260   6.743
 2836ETHY    C1 2823  45.580  17.030   6.400
 2837THSLK    S 2824  46.138  17.432   7.501
 2838ETHY    C1 2825  45.714  17.249   7.497
 2839ETHY    C1 2826  45.250  16.939   7.498
 2840AUSL   AUS 2827  46.317  17.749   7.652
 2841AUSL   AUS 2828  46.574  17.402   7.765
 2842AUL    AUL 2829  46.197  17.422   7.804
 2843THSLK    S 2830  46.388  17.245   7.889
 2844ETHY    C1 2831  46.075  16.939   8.033
 2845ETHY    C1 2832  45.760  16.552   8.284
 2846THSLK    S 2833  46.050  17.672   7.625
 2847ETHY    C1 2834  45.598  17.576   7.639
 2848ETHY    C1 2835  45.073  17.423   7.746
 2849AUSL   AUS 2836  46.991  18.493   7.910
 2850AUSL   AUS 2837  46.574  18.423   7.765
 2851AUL    AUL 2838  46.687  18.707   7.991
 2852THSLK    S 2839  46.443  18.591   7.945
 2853ETHY    C1 2840  46.222  18.919   8.185
 2854ETHY    C1 2841  45.881  19.299   8.409
 2855THSLK    S 2842  47.025  18.734   8.033
 2856ETHY    C1 2843  47.083  19.106   8.301
 2857ETHY    C1 2844  47.067  19.585   8.586
 2858AUSL   AUS 2845  46.839  18.586   7.664
 2859AUSL   AUS 2846  47.142  18.586   7.337
 2860AUL    AUL 2847  46.991  18.894   7.501
 2861THSLK    S 2848  46.870  18.846   7.770
 2862ETHY    C1 2849  46.860  19.287   7.907
 2863ETHY    C1 2850  46.751  19.816   8.048
 2864THSLK    S 2851  47.187  18.835   7.235
 2865ETHY    C1 2852  47.325  19.253   7.097
 2866ETHY    C1 2853  47.397  19.788   6.955
 2867AUSL   AUS 2854  47.142  18.586   7.664
 2868AUSL   AUS 2855  47.256  18.329   8.011
 2869AUL    AUL 2856  47.294  18.707   7.991
 2870THSLK    S 2857  47.430  18.457   8.185
 2871ETHY    C1 2858  47.666  18.676   8.517
 2872ETHY    C1 2859  47.892  19.018   8.895
 2873THSLK    S 2860  47.187  18.834   7.767
 2874ETHY    C1 2861  47.326  19.255   7.898
 2875ETHY    C1 2862  47.399  19.789   8.041
 2876AUSL   AUS 2863  46.991  17.333   7.910
 2877AUSL   AUS 2864  47.407  17.402   7.765
 2878AUL    AUL 2865  47.294  17.118   7.991
 2879THSLK    S 2866  46.957  17.069   7.997
 2880ETHY    C1 2867  46.902  16.660   8.205
 2881ETHY    C1 2868  46.917  16.192   8.507
 2882THSLK    S 2869  47.539  17.211   7.910
 2883ETHY    C1 2870  47.762  16.849   8.089
 2884ETHY    C1 2871  48.103  16.479   8.330
 2885AUSL   AUS 2872  46.839  17.239   7.664
 2886AUSL   AUS 2873  46.726  17.496   8.011
 2887AUL    AUL 2874  46.687  17.118   7.991
 2888THSLK    S 2875  46.794  16.986   7.746
 2889ETHY    C1 2876  46.657  16.555   7.843
 2890ETHY    C1 2877  46.584  16.023   7.996
 2891THSLK    S 2878  46.551  17.322   8.146
 2892ETHY    C1 2879  46.320  17.024   8.413
 2893ETHY    C1 2880  46.093  16.704   8.810
 2894AUSL   AUS 2881  47.142  17.239   7.664
 2895AUSL   AUS 2882  46.839  17.239   7.337
 2896AUL    AUL 2883  46.991  16.931   7.501
 2897THSLK    S 2884  46.794  16.986   7.255
 2898ETHY    C1 2885  46.655  16.557   7.152
 2899ETHY    C1 2886  46.583  16.025   7.001
 2900THSLK    S 2887  47.111  16.974   7.750
 2901ETHY    C1 2888  47.124  16.523   7.852
 2902ETHY    C1 2889  47.232  15.997   8.003
 2903AUSL   AUS 2890  46.991  18.493   7.092
 2904AUSL   AUS 2891  47.407  18.423   7.236
 2905AUL    AUL 2892  47.294  18.707   7.010
 2906THSLK    S 2893  47.025  18.734   6.969
 2907ETHY    C1 2894  47.080  19.103   6.696
 2908ETHY    C1 2895  47.064  19.582   6.412
 2909THSLK    S 2896  47.594  18.558   7.077
 2910ETHY    C1 2897  47.907  18.825   6.868
 2911ETHY    C1 2898  48.222  19.222   6.634
 2912AUSL   AUS 2899  46.839  18.586   7.337
 2913AUSL   AUS 2900  46.726  18.329   6.990
 2914AUL    AUL 2901  46.687  18.707   7.010
 2915THSLK    S 2902  46.870  18.847   7.232
 2916ETHY    C1 2903  46.858  19.285   7.088
 2917ETHY    C1 2904  46.750  19.814   6.948
 2918THSLK    S 2905  46.599  18.472   6.799
 2919ETHY    C1 2906  46.441  18.712   6.437
 2920ETHY    C1 2907  46.193  19.047   6.067
 2921AUSL   AUS 2908  46.991  17.333   7.092
 2922AUSL   AUS 2909  46.574  17.402   7.236
 2923AUL    AUL 2910  46.687  17.118   7.010
 2924THSLK    S 2911  46.388  17.245   7.113
 2925ETHY    C1 2912  46.072  16.943   6.964
 2926ETHY    C1 2913  45.758  16.556   6.714
 2927THSLK    S 2914  46.957  17.069   7.004
 2928ETHY    C1 2915  46.898  16.664   6.791
 2929ETHY    C1 2916  46.915  16.194   6.490
 2930AUSL   AUS 2917  47.142  17.239   7.337
 2931AUSL   AUS 2918  47.256  17.496   6.990
 2932AUL    AUL 2919  47.294  17.118   7.010
 2933THSLK    S 2920  47.112  16.973   7.252
 2934ETHY    C1 2921  47.122  16.525   7.143
 2935ETHY    C1 2922  47.230  15.998   6.993
 2936THSLK    S 2923  47.384  17.307   6.839
 2937ETHY    C1 2924  47.536  16.989   6.541
 2938ETHY    C1 2925  47.785  16.675   6.152
 2939AUC    AUC 2926  25.788  27.599   7.501
 2940AUC    AUC 2927  26.033  27.599   7.349
 2941AUC    AUC 2928  26.033  27.599   7.652
 2942AUC    AUC 2929  25.542  27.599   7.349
 2943AUC    AUC 2930  25.542  27.599   7.652
 2944AUC    AUC 2931  25.636  27.844   7.501
 2945AUC    AUC 2932  25.939  27.844   7.501
 2946AUC    AUC 2933  25.636  27.353   7.501
 2947AUC    AUC 2934  25.939  27.353   7.501
 2948AUC    AUC 2935  25.788  27.447   7.746
 2949AUC    AUC 2936  25.788  27.750   7.746
 2950AUC    AUC 2937  25.788  27.447   7.255
 2951AUC    AUC 2938  25.788  27.750   7.255
 2952AUC    AUC 2939  26.279  27.599   7.197
 2953AUC    AUC 2940  26.279  27.599   7.501
 2954AUC    AUC 2941  26.279  27.599   7.804
 2955AUC    AUC 2942  25.297  27.599   7.197
 2956AUC    AUC 2943  25.297  27.599   7.501
 2957AUC    AUC 2944  25.297  27.599   7.804
 2958AUC    AUC 2945  25.484  28.089   7.501
 2959AUC    AUC 2946  25.788  28.089   7.501
 2960AUC    AUC 2947  26.091  28.089   7.501
 2961AUC    AUC 2948  25.484  27.108   7.501
 2962AUC    AUC 2949  25.788  27.108   7.501
 2963AUC    AUC 2950  26.091  27.108   7.501
 2964AUC    AUC 2951  25.788  27.295   7.991
 2965AUC    AUC 2952  25.788  27.599   7.991
 2966AUC    AUC 2953  25.788  27.902   7.991
 2967AUC    AUC 2954  25.788  27.295   7.010
 2968AUC    AUC 2955  25.788  27.599   7.010
 2969AUC    AUC 2956  25.788  27.902   7.010
 2970AUC    AUC 2957  26.033  27.447   7.898
 2971AUC    AUC 2958  26.033  27.750   7.898
 2972AUC    AUC 2959  26.033  27.447   7.103
 2973AUC    AUC 2960  26.033  27.750   7.103
 2974AUC    AUC 2961  25.542  27.447   7.898
 2975AUC    AUC 2962  25.542  27.750   7.898
 2976AUC    AUC 2963  25.542  27.447   7.103
 2977AUC    AUC 2964  25.542  27.750   7.103
 2978AUC    AUC 2965  26.185  27.844   7.349
 2979AUC    AUC 2966  26.185  27.844   7.652
 2980AUC    AUC 2967  25.391  27.844   7.349
 2981AUC    AUC 2968  25.391  27.844   7.652
 2982AUC    AUC 2969  26.185  27.353   7.349
 2983AUC    AUC 2970  26.185  27.353   7.652
 2984AUC    AUC 2971  25.391  27.353   7.349
 2985AUC    AUC 2972  25.391  27.353   7.652
 2986AUC    AUC 2973  25.636  27.996   7.746
 2987AUC    AUC 2974  25.939  27.996   7.746
 2988AUC    AUC 2975  25.636  27.202   7.746
 2989AUC    AUC 2976  25.939  27.202   7.746
 2990AUC    AUC 2977  25.636  27.996   7.255
 2991AUC    AUC 2978  25.939  27.996   7.255
 2992AUC    AUC 2979  25.636  27.202   7.255
 2993AUC    AUC 2980  25.939  27.202   7.255
 2994AUSL   AUS 2981  26.197  27.599   8.081
 2995AUSL   AUS 2982  26.053  27.182   8.011
 2996AUL    AUL 2983  26.279  27.295   8.295
 2997THSLK    S 2984  26.180  26.994   8.163
 2998ETHY    C1 2985  26.338  26.673   8.456
 2999ETHY    C1 2986  26.586  26.360   8.845
 3000THSLK    S 2987  26.302  27.559   8.333
 3001ETHY    C1 2988  26.545  27.492   8.720
 3002ETHY    C1 2989  26.838  27.511   9.194
 3003AUSL   AUS 2990  25.951  27.447   8.174
 3004AUSL   AUS 2991  25.624  27.750   8.174
 3005AUL    AUL 2992  25.788  27.599   8.482
 3006THSLK    S 2993  26.038  27.401   8.426
 3007ETHY    C1 2994  26.151  27.260   8.852
 3008ETHY    C1 2995  26.300  27.189   9.385
 3009THSLK    S 2996  25.536  27.719   8.439
 3010ETHY    C1 2997  25.431  27.730   8.889
 3011ETHY    C1 2998  25.281  27.838   9.415
 3012AUSL   AUS 2999  25.951  27.750   8.174
 3013AUSL   AUS 3000  26.298  27.863   7.917
 3014AUL    AUL 3001  26.279  27.902   8.295
 3015THSLK    S 3002  26.039  27.796   8.426
 3016ETHY    C1 3003  26.145  27.936   8.854
 3017ETHY    C1 3004  26.295  28.008   9.386
 3018THSLK    S 3005  26.478  27.979   8.082
 3019ETHY    C1 3006  26.823  28.114   8.358
 3020ETHY    C1 3007  27.198  28.368   8.683
 3021AUSL   AUS 3008  26.197  27.599   6.921
 3022AUSL   AUS 3009  26.053  28.015   6.990
 3023AUL    AUL 3010  26.279  27.902   6.706
 3024THSLK    S 3011  26.303  27.559   6.668
 3025ETHY    C1 3012  26.540  27.492   6.278
 3026ETHY    C1 3013  26.833  27.511   5.804
 3027THSLK    S 3014  26.228  28.143   6.816
 3028ETHY    C1 3015  26.459  28.361   6.480
 3029ETHY    C1 3016  26.685  28.703   6.102
 3030AUSL   AUS 3017  25.951  27.447   6.827
 3031AUSL   AUS 3018  26.298  27.334   7.084
 3032AUL    AUL 3019  26.279  27.295   6.706
 3033THSLK    S 3020  26.444  27.147   6.932
 3034ETHY    C1 3021  26.728  26.893   6.670
 3035ETHY    C1 3022  27.120  26.673   6.340
 3036THSLK    S 3023  26.039  27.401   6.575
 3037ETHY    C1 3024  26.145  27.261   6.147
 3038ETHY    C1 3025  26.295  27.189   5.615
 3039AUSL   AUS 3026  25.951  27.750   6.827
 3040AUSL   AUS 3027  25.624  27.447   6.827
 3041AUL    AUL 3028  25.788  27.599   6.519
 3042THSLK    S 3029  25.524  27.401   6.579
 3043ETHY    C1 3030  25.390  27.263   6.158
 3044ETHY    C1 3031  25.247  27.191   5.624
 3045THSLK    S 3032  26.052  27.718   6.566
 3046ETHY    C1 3033  26.179  27.727   6.121
 3047ETHY    C1 3034  26.323  27.836   5.594
 3048AUSL   AUS 3035  25.379  27.599   8.081
 3049AUSL   AUS 3036  25.523  28.015   8.011
 3050AUL    AUL 3037  25.297  27.902   8.295
 3051THSLK    S 3038  25.273  27.559   8.333
 3052ETHY    C1 3039  25.036  27.492   8.723
 3053ETHY    C1 3040  24.742  27.511   9.197
 3054THSLK    S 3041  25.395  28.157   8.202
 3055ETHY    C1 3042  25.242  28.402   8.563
 3056ETHY    C1 3043  24.994  28.737   8.933
 3057AUSL   AUS 3044  25.624  27.447   8.174
 3058AUSL   AUS 3045  25.278  27.334   7.917
 3059AUL    AUL 3046  25.297  27.295   8.295
 3060THSLK    S 3047  25.097  27.166   8.043
 3061ETHY    C1 3048  24.756  26.940   8.259
 3062ETHY    C1 3049  24.380  26.712   8.602
 3063THSLK    S 3050  25.524  27.401   8.422
 3064ETHY    C1 3051  25.396  27.262   8.844
 3065ETHY    C1 3052  25.252  27.190   9.378
 3066AUSL   AUS 3053  25.379  27.599   6.921
 3067AUSL   AUS 3054  25.523  27.182   6.990
 3068AUL    AUL 3055  25.297  27.295   6.706
 3069THSLK    S 3056  25.274  27.559   6.668
 3070ETHY    C1 3057  25.030  27.492   6.281
 3071ETHY    C1 3058  24.738  27.511   5.807
 3072THSLK    S 3059  25.349  27.008   6.855
 3073ETHY    C1 3060  25.112  26.715   6.587
 3074ETHY    C1 3061  24.887  26.394   6.190
 3075AUSL   AUS 3062  25.624  27.750   6.827
 3076AUSL   AUS 3063  25.278  27.863   7.084
 3077AUL    AUL 3064  25.297  27.902   6.706
 3078THSLK    S 3065  25.132  27.998   6.894
 3079ETHY    C1 3066  24.843  28.162   6.572
 3080ETHY    C1 3067  24.452  28.407   6.259
 3081THSLK    S 3068  25.537  27.719   6.562
 3082ETHY    C1 3069  25.424  27.729   6.114
 3083ETHY    C1 3070  25.276  27.837   5.587
 3084AUSL   AUS 3071  26.368  28.008   7.501
 3085AUSL   AUS 3072  26.298  27.863   7.084
 3086AUL    AUL 3073  26.582  28.089   7.197
 3087THSLK    S 3074  26.478  27.980   6.920
 3088ETHY    C1 3075  26.819  28.113   6.638
 3089ETHY    C1 3076  27.195  28.367   6.314
 3090THSLK    S 3077  26.641  28.079   7.501
 3091ETHY    C1 3078  27.065  28.263   7.497
 3092ETHY    C1 3079  27.529  28.572   7.498
 3093AUSL   AUS 3080  26.462  27.762   7.349
 3094AUSL   AUS 3081  26.462  27.435   7.652
 3095AUL    AUL 3082  26.769  27.599   7.501
 3096THSLK    S 3083  26.729  27.817   7.341
 3097ETHY    C1 3084  27.181  27.873   7.262
 3098ETHY    C1 3085  27.706  28.038   7.172
 3099THSLK    S 3086  26.708  27.303   7.659
 3100ETHY    C1 3087  27.125  27.118   7.728
 3101ETHY    C1 3088  27.661  26.990   7.820
 3102AUSL   AUS 3089  26.462  27.762   7.652
 3103AUSL   AUS 3090  26.204  28.109   7.765
 3104AUL    AUL 3091  26.582  28.089   7.804
 3105THSLK    S 3092  26.390  28.244   7.925
 3106ETHY    C1 3093  26.706  28.512   8.128
 3107ETHY    C1 3094  27.021  28.909   8.362
 3108THSLK    S 3095  26.729  27.817   7.661
 3109ETHY    C1 3096  27.181  27.873   7.733
 3110ETHY    C1 3097  27.707  28.038   7.824
 3111AUSL   AUS 3098  25.208  28.008   7.501
 3112AUSL   AUS 3099  25.278  27.863   7.917
 3113AUL    AUL 3100  24.994  28.089   7.804
 3114THSLK    S 3101  25.131  27.998   8.107
 3115ETHY    C1 3102  24.847  28.167   8.430
 3116ETHY    C1 3103  24.455  28.412   8.743
 3117THSLK    S 3104  24.977  28.146   7.501
 3118ETHY    C1 3105  24.623  28.444   7.497
 3119ETHY    C1 3106  24.139  28.721   7.498
 3120AUSL   AUS 3107  25.114  27.762   7.349
 3121AUSL   AUS 3108  25.371  28.109   7.236
 3122AUL    AUL 3109  24.994  28.089   7.197
 3123THSLK    S 3110  24.868  27.872   7.307
 3124ETHY    C1 3111  24.450  28.017   7.173
 3125ETHY    C1 3112  23.915  28.157   7.099
 3126THSLK    S 3113  25.240  28.278   7.056
 3127ETHY    C1 3114  25.016  28.600   6.812
 3128ETHY    C1 3115  24.676  28.982   6.589
 3129AUSL   AUS 3116  25.114  27.762   7.652
 3130AUSL   AUS 3117  25.114  27.435   7.349
 3131AUL    AUL 3118  24.806  27.599   7.501
 3132THSLK    S 3119  24.847  27.357   7.377
 3133ETHY    C1 3120  24.394  27.268   7.359
 3134ETHY    C1 3121  23.869  27.113   7.252
 3135THSLK    S 3122  24.868  27.872   7.694
 3136ETHY    C1 3123  24.451  28.023   7.825
 3137ETHY    C1 3124  23.916  28.161   7.900
 3138AUSL   AUS 3125  26.368  27.190   7.501
 3139AUSL   AUS 3126  26.298  27.334   7.917
 3140AUL    AUL 3127  26.582  27.108   7.804
 3141THSLK    S 3128  26.599  27.051   7.501
 3142ETHY    C1 3129  26.953  26.753   7.497
 3143ETHY    C1 3130  27.437  26.476   7.498
 3144THSLK    S 3131  26.444  27.147   8.070
 3145ETHY    C1 3132  26.732  26.892   8.326
 3146ETHY    C1 3133  27.124  26.672   8.657
 3147AUSL   AUS 3134  26.462  27.435   7.349
 3148AUSL   AUS 3135  26.204  27.088   7.236
 3149AUL    AUL 3136  26.582  27.108   7.197
 3150THSLK    S 3137  26.708  27.303   7.343
 3151ETHY    C1 3138  27.124  27.118   7.266
 3152ETHY    C1 3139  27.660  26.990   7.176
 3153THSLK    S 3140  26.336  26.897   7.092
 3154ETHY    C1 3141  26.557  26.536   6.907
 3155ETHY    C1 3142  26.898  26.166   6.667
 3156AUSL   AUS 3143  25.208  27.190   7.501
 3157AUSL   AUS 3144  25.278  27.334   7.084
 3158AUL    AUL 3145  24.994  27.108   7.197
 3159THSLK    S 3146  25.098  27.166   6.958
 3160ETHY    C1 3147  24.752  26.946   6.743
 3161ETHY    C1 3148  24.377  26.716   6.400
 3162THSLK    S 3149  24.935  27.118   7.501
 3163ETHY    C1 3150  24.511  26.935   7.497
 3164ETHY    C1 3151  24.047  26.625   7.498
 3165AUSL   AUS 3152  25.114  27.435   7.652
 3166AUSL   AUS 3153  25.371  27.088   7.765
 3167AUL    AUL 3154  24.994  27.108   7.804
 3168THSLK    S 3155  25.185  26.931   7.889
 3169ETHY    C1 3156  24.872  26.625   8.033
 3170ETHY    C1 3157  24.557  26.238   8.284
 3171THSLK    S 3158  24.847  27.358   7.625
 3172ETHY    C1 3159  24.395  27.262   7.639
 3173ETHY    C1 3160  23.870  27.109   7.746
 3174AUSL   AUS 3161  25.788  28.179   7.910
 3175AUSL   AUS 3162  25.371  28.109   7.765
 3176AUL    AUL 3163  25.484  28.393   7.991
 3177THSLK    S 3164  25.240  28.277   7.945
 3178ETHY    C1 3165  25.019  28.605   8.185
 3179ETHY    C1 3166  24.678  28.985   8.409
 3180THSLK    S 3167  25.822  28.420   8.033
 3181ETHY    C1 3168  25.880  28.792   8.301
 3182ETHY    C1 3169  25.864  29.271   8.586
 3183AUSL   AUS 3170  25.636  28.272   7.664
 3184AUSL   AUS 3171  25.939  28.272   7.337
 3185AUL    AUL 3172  25.788  28.580   7.501
 3186THSLK    S 3173  25.667  28.532   7.770
 3187ETHY    C1 3174  25.657  28.973   7.907
 3188ETHY    C1 3175  25.548  29.502   8.048
 3189THSLK    S 3176  25.984  28.521   7.235
 3190ETHY    C1 3177  26.122  28.939   7.097
 3191ETHY    C1 3178  26.194  29.474   6.955
 3192AUSL   AUS 3179  25.939  28.272   7.664
 3193AUSL   AUS 3180  26.053  28.015   8.011
 3194AUL    AUL 3181  26.091  28.393   7.991
 3195THSLK    S 3182  26.227  28.143   8.185
 3196ETHY    C1 3183  26.463  28.362   8.517
 3197ETHY    C1 3184  26.689  28.704   8.895
 3198THSLK    S 3185  25.984  28.520   7.767
 3199ETHY    C1 3186  26.123  28.941   7.898
 3200ETHY    C1 3187  26.196  29.475   8.041
 3201AUSL   AUS 3188  25.788  27.019   7.910
 3202AUSL   AUS 3189  26.204  27.088   7.765
 3203AUL    AUL 3190  26.091  26.804   7.991
 3204THSLK    S 3191  25.754  26.755   7.997
 3205ETHY    C1 3192  25.699  26.346   8.205
 3206ETHY    C1 3193  25.714  25.878   8.507
 3207THSLK    S 3194  26.336  26.897   7.910
 3208ETHY    C1 3195  26.559  26.535   8.089
 3209ETHY    C1 3196  26.900  26.165   8.330
 3210AUSL   AUS 3197  25.636  26.925   7.664
 3211AUSL   AUS 3198  25.523  27.182   8.011
 3212AUL    AUL 3199  25.484  26.804   7.991
 3213THSLK    S 3200  25.591  26.672   7.746
 3214ETHY    C1 3201  25.454  26.241   7.843
 3215ETHY    C1 3202  25.381  25.709   7.996
 3216THSLK    S 3203  25.348  27.008   8.146
 3217ETHY    C1 3204  25.117  26.710   8.413
 3218ETHY    C1 3205  24.890  26.390   8.810
 3219AUSL   AUS 3206  25.939  26.925   7.664
 3220AUSL   AUS 3207  25.636  26.925   7.337
 3221AUL    AUL 3208  25.788  26.617   7.501
 3222THSLK    S 3209  25.591  26.672   7.255
 3223ETHY    C1 3210  25.452  26.243   7.152
 3224ETHY    C1 3211  25.380  25.711   7.001
 3225THSLK    S 3212  25.908  26.660   7.750
 3226ETHY    C1 3213  25.921  26.209   7.852
 3227ETHY    C1 3214  26.029  25.683   8.003
 3228AUSL   AUS 3215  25.788  28.179   7.092
 3229AUSL   AUS 3216  26.204  28.109   7.236
 3230AUL    AUL 3217  26.091  28.393   7.010
 3231THSLK    S 3218  25.822  28.420   6.969
 3232ETHY    C1 3219  25.877  28.789   6.696
 3233ETHY    C1 3220  25.861  29.268   6.412
 3234THSLK    S 3221  26.391  28.244   7.077
 3235ETHY    C1 3222  26.704  28.511   6.868
 3236ETHY    C1 3223  27.019  28.908   6.634
 3237AUSL   AUS 3224  25.636  28.272   7.337
 3238AUSL   AUS 3225  25.523  28.015   6.990
 3239AUL    AUL 3226  25.484  28.393   7.010
 3240THSLK    S 3227  25.667  28.533   7.232
 3241ETHY    C1 3228  25.655  28.971   7.088
 3242ETHY    C1 3229  25.547  29.500   6.948
 3243THSLK    S 3230  25.396  28.158   6.799
 3244ETHY    C1 3231  25.238  28.398   6.437
 3245ETHY    C1 3232  24.990  28.733   6.067
 3246AUSL   AUS 3233  25.788  27.019   7.092
 3247AUSL   AUS 3234  25.371  27.088   7.236
 3248AUL    AUL 3235  25.484  26.804   7.010
 3249THSLK    S 3236  25.185  26.931   7.113
 3250ETHY    C1 3237  24.869  26.629   6.964
 3251ETHY    C1 3238  24.555  26.242   6.714
 3252THSLK    S 3239  25.754  26.755   7.004
 3253ETHY    C1 3240  25.695  26.350   6.791
 3254ETHY    C1 3241  25.712  25.880   6.490
 3255AUSL   AUS 3242  25.939  26.925   7.337
 3256AUSL   AUS 3243  26.053  27.182   6.990
 3257AUL    AUL 3244  26.091  26.804   7.010
 3258THSLK    S 3245  25.909  26.659   7.252
 3259ETHY    C1 3246  25.919  26.211   7.143
 3260ETHY    C1 3247  26.027  25.684   6.993
 3261THSLK    S 3248  26.181  26.993   6.839
 3262ETHY    C1 3249  26.333  26.675   6.541
 3263ETHY    C1 3250  26.582  26.361   6.152
 3264POPC   NC3 3251   2.736  12.066   9.450
 3264POPC   PO4 3252   2.758  12.116   9.150
 3264POPC   GL1 3253   2.776  12.102   8.850
 3264POPC   GL2 3254   2.685  12.148   8.850
 3264POPC   C1A 3255   2.755  12.042   8.550
 3264POPC   D2A 3256   2.749  12.047   8.250
 3264POPC   C3A 3257   2.809  12.079   7.950
 3264POPC   C4A 3258   2.811  12.123   7.650
 3264POPC   C1B 3259   2.539  12.272   8.550
 3264POPC   C2B 3260   2.552  12.234   8.250
 3264POPC   C3B 3261   2.570  12.219   7.950
 3264POPC   C4B 3262   2.571  12.238   7.650
 3265POPC   NC3 3263  36.105  24.454   9.450
 3265POPC   PO4 3264  36.110  24.499   9.150
 3265POPC   GL1 3265  36.176  24.453   8.850
 3265POPC   GL2 3266  35.982  24.463   8.850
 3265POPC   C1A 3267  36.112  24.503   8.550
 3265POPC   D2A 3268  36.157  24.494   8.250
 3265POPC   C3A 3269  36.177  24.467   7.950
 3265POPC   C4A 3270  36.096  24.511   7.650
 3265POPC   C1B 3271  35.887  24.483   8.550
 3265POPC   C2B 3272  35.906  24.497   8.250
 3265POPC   C3B 3273  35.919  24.488   7.950
 3265POPC   C4B 3274  35.880  24.523   7.650
 3266POPC   NC3 3275  14.402  10.485   9.450
 3266POPC   PO4 3276  14.401  10.564   9.150
 3266POPC   GL1 3277  14.395  10.512   8.850
 3266POPC   GL2 3278  14.334  10.470   8.850
 3266POPC   C1A 3279  14.389  10.496   8.550
 3266POPC   D2A 3280  14.422  10.499   8.250
 3266POPC   C3A 3281  14.436  10.509   7.950
 3266POPC   C4A 3282  14.396  10.515   7.650
 3266POPC   C1B 3283  14.213  10.295   8.550
 3266POPC   C2B 3284  14.210  10.316   8.250
 3266POPC   C3B 3285  14.208  10.302   7.950
 3266POPC   C4B 3286  14.286  10.305   7.650
 3267POPC   NC3 3287  40.746  23.697   9.450
 3267POPC   PO4 3288  40.744  23.707   9.150
 3267POPC   GL1 3289  40.787  23.722   8.850
 3267POPC   GL2 3290  40.851  23.660   8.850
 3267POPC   C1A 3291  40.749  23.759   8.550
 3267POPC   D2A 3292  40.832  23.723   8.250
 3267POPC   C3A 3293  40.805  23.759   7.950
 3267POPC   C4A 3294  40.760  23.672   7.650
 3267POPC   C1B 3295  40.989  23.652   8.550
 3267POPC   C2B 3296  40.979  23.583   8.250
 3267POPC   C3B 3297  40.983  23.590   7.950
 3267POPC   C4B 3298  40.991  23.608   7.650
 3268POPC   NC3 3299   5.829   2.748   9.450
 3268POPC   PO4 3300   5.833   2.726   9.150
 3268POPC   GL1 3301   5.895   2.760   8.850
 3268POPC   GL2 3302   5.775   2.763   8.850
 3268POPC   C1A 3303   5.877   2.723   8.550
 3268POPC   D2A 3304   5.829   2.729   8.250
 3268POPC   C3A 3305   5.868   2.777   7.950
 3268POPC   C4A 3306   5.841   2.719   7.650
 3268POPC   C1B 3307   5.602   2.765   8.550
 3268POPC   C2B 3308   5.611   2.735   8.250
 3268POPC   C3B 3309   5.663   2.730   7.950
 3268POPC   C4B 3310   5.646   2.774   7.650
 3269POPC   NC3 3311  41.588  15.192   9.450
 3269POPC   PO4 3312  41.601  15.169   9.150
 3269POPC   GL1 3313  41.602  15.212   8.850
 3269POPC   GL2 3314  41.461  15.312   8.850
 3269POPC   C1A 3315  41.541  15.160   8.550
 3269POPC   D2A 3316  41.528  15.195   8.250
 3269POPC   C3A 3317  41.580  15.222   7.950
 3269POPC   C4A 3318  41.556  15.175   7.650
 3269POPC   C1B 3319  41.479  15.442   8.550
 3269POPC   C2B 3320  41.435  15.360   8.250
 3269POPC   C3B 3321  41.470  15.364   7.950
 3269POPC   C4B 3322  41.447  15.379   7.650
 3270POPC   NC3 3323   2.743  35.338   9.450
 3270POPC   PO4 3324   2.734  35.378   9.150
 3270POPC   GL1 3325   2.778  35.397   8.850
 3270POPC   GL2 3326   2.886  35.237   8.850
 3270POPC   C1A 3327   2.718  35.371   8.550
 3270POPC   D2A 3328   2.792  35.310   8.250
 3270POPC   C3A 3329   2.813  35.359   7.950
 3270POPC   C4A 3330   2.786  35.305   7.650
 3270POPC   C1B 3331   2.923  35.172   8.550
 3270POPC   C2B 3332   2.963  35.212   8.250
 3270POPC   C3B 3333   2.951  35.250   7.950
 3270POPC   C4B 3334   2.982  35.191   7.650
 3271POPC   NC3 3335  43.157   9.792   9.450
 3271POPC   PO4 3336  43.143   9.701   9.150
 3271POPC   GL1 3337  43.129   9.773   8.850
 3271POPC   GL2 3338  42.989   9.833   8.850
 3271POPC   C1A 3339  43.154   9.790   8.550
 3271POPC   D2A 3340  43.160   9.719   8.250
 3271POPC   C3A 3341  43.120   9.722   7.950
 3271POPC   C4A 3342  43.123   9.745   7.650
 3271POPC   C1B 3343  42.862   9.863   8.550
 3271POPC   C2B 3344  42.898   9.862   8.250
 3271POPC   C3B 3345  42.857   9.885   7.950
 3271POPC   C4B 3346  42.920   9.856   7.650
 3272POPC   NC3 3347  40.788   6.612   9.450
 3272POPC   PO4 3348  40.750   6.622   9.150
 3272POPC   GL1 3349  40.830   6.665   8.850
 3272POPC   GL2 3350  40.777   6.546   8.850
 3272POPC   C1A 3351  40.830   6.606   8.550
 3272POPC   D2A 3352  40.734   6.625   8.250
 3272POPC   C3A 3353  40.822   6.598   7.950
 3272POPC   C4A 3354  40.753   6.637   7.650
 3272POPC   C1B 3355  40.722   6.431   8.550
 3272POPC   C2B 3356  40.715   6.364   8.250
 3272POPC   C3B 3357  40.764   6.447   7.950
 3272POPC   C4B 3358  40.699   6.413   7.650
 3273POPC   NC3 3359  19.797  25.305   9.450
 3273POPC   PO4 3360  19.825  25.279   9.150
 3273POPC   GL1 3361  19.859  25.310   8.850
 3273POPC   GL2 3362  19.946  25.253   8.850
 3273POPC   C1A 3363  19.810  25.276   8.550
 3273POPC   D2A 3364  19.843  25.233   8.250
 3273POPC   C3A 3365  19.836  25.261   7.950
 3273POPC   C4A 3366  19.851  25.302   7.650
 3273POPC   C1B 3367  20.050  25.341   8.550
 3273POPC   C2B 3368  20.041  25.314   8.250
 3273POPC   C3B 3369  20.089  25.290   7.950
 3273POPC   C4B 3370  20.078  25.353   7.650
 3274POPC   NC3 3371  38.454  22.912   9.450
 3274POPC   PO4 3372  38.428  22.959   9.150
 3274POPC   GL1 3373  38.477  22.947   8.850
 3274POPC   GL2 3374  38.533  22.874   8.850
 3274POPC   C1A 3375  38.430  22.975   8.550
 3274POPC   D2A 3376  38.416  22.957   8.250
 3274POPC   C3A 3377  38.457  22.980   7.950
 3274POPC   C4A 3378  38.452  22.911   7.650
 3274POPC   C1B 3379  38.659  22.904   8.550
 3274POPC   C2B 3380  38.722  22.841   8.250
 3274POPC   C3B 3381  38.669  22.860   7.950
 3274POPC   C4B 3382  38.667  22.816   7.650
 3275POPC   NC3 3383  37.683  32.982   9.450
 3275POPC   PO4 3384  37.687  33.028   9.150
 3275POPC   GL1 3385  37.664  33.058   8.850
 3275POPC   GL2 3386  37.801  33.097   8.850
 3275POPC   C1A 3387  37.651  33.028   8.550
 3275POPC   D2A 3388  37.719  33.055   8.250
 3275POPC   C3A 3389  37.689  33.010   7.950
 3275POPC   C4A 3390  37.728  32.985   7.650
 3275POPC   C1B 3391  37.881  33.226   8.550
 3275POPC   C2B 3392  37.829  33.157   8.250
 3275POPC   C3B 3393  37.892  33.208   7.950
 3275POPC   C4B 3394  37.825  33.215   7.650
 3276POPC   NC3 3395  20.592   0.467   9.450
 3276POPC   PO4 3396  20.561   0.412   9.150
 3276POPC   GL1 3397  20.653   0.443   8.850
 3276POPC   GL2 3398  20.550   0.532   8.850
 3276POPC   C1A 3399  20.628   0.388   8.550
 3276POPC   D2A 3400  20.619   0.456   8.250
 3276POPC   C3A 3401  20.636   0.396   7.950
 3276POPC   C4A 3402  20.597   0.486   7.650
 3276POPC   C1B 3403  20.433   0.639   8.550
 3276POPC   C2B 3404  20.459   0.599   8.250
 3276POPC   C3B 3405  20.383   0.628   7.950
 3276POPC   C4B 3406  20.463   0.576   7.650
 3277POPC   NC3 3407  39.976  27.552   9.450
 3277POPC   PO4 3408  40.029  27.566   9.150
 3277POPC   GL1 3409  39.998  27.638   8.850
 3277POPC   GL2 3410  39.901  27.525   8.850
 3277POPC   C1A 3411  40.045  27.616   8.550
 3277POPC   D2A 3412  40.055  27.553   8.250
 3277POPC   C3A 3413  40.040  27.620   7.950
 3277POPC   C4A 3414  40.023  27.596   7.650
 3277POPC   C1B 3415  39.749  27.546   8.550
 3277POPC   C2B 3416  39.793  27.507   8.250
 3277POPC   C3B 3417  39.717  27.501   7.950
 3277POPC   C4B 3418  39.796  27.562   7.650
 3278POPC   NC3 3419   0.418   0.438   9.450
 3278POPC   PO4 3420   0.433   0.427   9.150
 3278POPC   GL1 3421   0.406   0.443   8.850
 3278POPC   GL2 3422   0.561   0.508   8.850
 3278POPC   C1A 3423   0.388   0.468   8.550
 3278POPC   D2A 3424   0.440   0.388   8.250
 3278POPC   C3A 3425   0.473   0.426   7.950
 3278POPC   C4A 3426   0.476   0.483   7.650
 3278POPC   C1B 3427   0.657   0.541   8.550
 3278POPC   C2B 3428   0.648   0.576   8.250
 3278POPC   C3B 3429   0.623   0.535   7.950
 3278POPC   C4B 3430   0.683   0.518   7.650
 3279POPC   NC3 3431  29.882  29.952   9.450
 3279POPC   PO4 3432  29.877  29.924   9.150
 3279POPC   GL1 3433  29.948  29.885   8.850
 3279POPC   GL2 3434  30.044  29.988   8.850
 3279POPC   C1A 3435  29.927  29.961   8.550
 3279POPC   D2A 3436  29.873  29.966   8.250
 3279POPC   C3A 3437  29.875  29.962   7.950
 3279POPC   C4A 3438  29.930  29.933   7.650
 3279POPC   C1B 3439  30.070  30.120   8.550
 3279POPC   C2B 3440  30.114  30.106   8.250
 3279POPC   C3B 3441  30.093  30.111   7.950
 3279POPC   C4B 3442  30.124  30.031   7.650
 3280POPC   NC3 3443  15.979  19.069   9.450
 3280POPC   PO4 3444  15.970  19.027   9.150
 3280POPC   GL1 3445  16.002  19.016   8.850
 3280POPC   GL2 3446  15.863  19.128   8.850
 3280POPC   C1A 3447  15.982  19.093   8.550
 3280POPC   D2A 3448  15.905  19.079   8.250
 3280POPC   C3A 3449  15.925  19.043   7.950
 3280POPC   C4A 3450  15.997  19.075   7.650
 3280POPC   C1B 3451  15.772  19.144   8.550
 3280POPC   C2B 3452  15.721  19.212   8.250
 3280POPC   C3B 3453  15.774  19.149   7.950
 3280POPC   C4B 3454  15.714  19.177   7.650
 3281POPC   NC3 3455  27.570  36.889   9.450
 3281POPC   PO4 3456  27.600  36.922   9.150
 3281POPC   GL1 3457  27.552  36.898   8.850
 3281POPC   GL2 3458  27.504  36.935   8.850
 3281POPC   C1A 3459  27.583  36.929   8.550
 3281POPC   D2A 3460  27.621  36.897   8.250
 3281POPC   C3A 3461  27.603  36.889   7.950
 3281POPC   C4A 3462  27.595  36.946   7.650
 3281POPC   C1B 3463  27.330  36.943   8.550
 3281POPC   C2B 3464  27.314  36.903   8.250
 3281POPC   C3B 3465  27.381  36.894   7.950
 3281POPC   C4B 3466  27.304  36.960   7.650
 3282POPC   NC3 3467  26.054  33.797   9.450
 3282POPC   PO4 3468  26.065  33.807   9.150
 3282POPC   GL1 3469  26.059  33.777   8.850
 3282POPC   GL2 3470  26.066  33.641   8.850
 3282POPC   C1A 3471  26.002  33.811   8.550
 3282POPC   D2A 3472  26.077  33.826   8.250
 3282POPC   C3A 3473  26.085  33.769   7.950
 3282POPC   C4A 3474  26.053  33.826   7.650
 3282POPC   C1B 3475  26.118  33.602   8.550
 3282POPC   C2B 3476  26.199  33.618   8.250
 3282POPC   C3B 3477  26.126  33.602   7.950
 3282POPC   C4B 3478  26.161  33.585   7.650
 3283POPC   NC3 3479  23.725  20.598   9.450
 3283POPC   PO4 3480  23.667  20.576   9.150
 3283POPC   GL1 3481  23.758  20.566   8.850
 3283POPC   GL2 3482  23.566  20.656   8.850
 3283POPC   C1A 3483  23.763  20.564   8.550
 3283POPC   D2A 3484  23.674  20.621   8.250
 3283POPC   C3A 3485  23.710  20.640   7.950
 3283POPC   C4A 3486  23.664  20.652   7.650
 3283POPC   C1B 3487  23.512  20.739   8.550
 3283POPC   C2B 3488  23.518  20.763   8.250
 3283POPC   C3B 3489  23.502  20.782   7.950
 3283POPC   C4B 3490  23.458  20.707   7.650
 3284POPC   NC3 3491   7.398  15.197   9.450
 3284POPC   PO4 3492   7.391  15.213   9.150
 3284POPC   GL1 3493   7.381  15.156   8.850
 3284POPC   GL2 3494   7.332  15.284   8.850
 3284POPC   C1A 3495   7.470  15.131   8.550
 3284POPC   D2A 3496   7.454  15.161   8.250
 3284POPC   C3A 3497   7.405  15.212   7.950
 3284POPC   C4A 3498   7.380  15.173   7.650
 3284POPC   C1B 3499   7.236  15.301   8.550
 3284POPC   C2B 3500   7.225  15.308   8.250
 3284POPC   C3B 3501   7.250  15.284   7.950
 3284POPC   C4B 3502   7.181  15.302   7.650
 3285POPC   NC3 3503  33.016  37.656   9.450
 3285POPC   PO4 3504  33.073  37.642   9.150
 3285POPC   GL1 3505  32.985  37.710   8.850
 3285POPC   GL2 3506  33.002  37.556   8.850
 3285POPC   C1A 3507  32.979  37.679   8.550
 3285POPC   D2A 3508  33.065  37.640   8.250
 3285POPC   C3A 3509  33.047  37.722   7.950
 3285POPC   C4A 3510  33.054  37.728   7.650
 3285POPC   C1B 3511  32.944  37.436   8.550
 3285POPC   C2B 3512  32.949  37.447   8.250
 3285POPC   C3B 3513  32.920  37.499   7.950
 3285POPC   C4B 3514  32.906  37.451   7.650
 3286POPC   NC3 3515  10.497  23.752   9.450
 3286POPC   PO4 3516  10.536  23.706   9.150
 3286POPC   GL1 3517  10.499  23.686   8.850
 3286POPC   GL2 3518  10.398  23.628   8.850
 3286POPC   C1A 3519  10.565  23.705   8.550
 3286POPC   D2A 3520  10.565  23.674   8.250
 3286POPC   C3A 3521  10.507  23.715   7.950
 3286POPC   C4A 3522  10.567  23.700   7.650
 3286POPC   C1B 3523  10.353  23.528   8.550
 3286POPC   C2B 3524  10.383  23.515   8.250
 3286POPC   C3B 3525  10.325  23.535   7.950
 3286POPC   C4B 3526  10.291  23.530   7.650
 3287POPC   NC3 3527  16.743  11.294   9.450
 3287POPC   PO4 3528  16.750  11.320   9.150
 3287POPC   GL1 3529  16.756  11.326   8.850
 3287POPC   GL2 3530  16.759  11.397   8.850
 3287POPC   C1A 3531  16.760  11.314   8.550
 3287POPC   D2A 3532  16.702  11.329   8.250
 3287POPC   C3A 3533  16.690  11.309   7.950
 3287POPC   C4A 3534  16.730  11.270   7.650
 3287POPC   C1B 3535  16.830  11.524   8.550
 3287POPC   C2B 3536  16.897  11.473   8.250
 3287POPC   C3B 3537  16.865  11.539   7.950
 3287POPC   C4B 3538  16.904  11.507   7.650
 3288POPC   NC3 3539  26.851  36.085   9.450
 3288POPC   PO4 3540  26.828  36.123   9.150
 3288POPC   GL1 3541  26.800  36.165   8.850
 3288POPC   GL2 3542  26.831  36.296   8.850
 3288POPC   C1A 3543  26.796  36.097   8.550
 3288POPC   D2A 3544  26.801  36.158   8.250
 3288POPC   C3A 3545  26.837  36.164   7.950
 3288POPC   C4A 3546  26.859  36.100   7.650
 3288POPC   C1B 3547  26.856  36.335   8.550
 3288POPC   C2B 3548  26.811  36.335   8.250
 3288POPC   C3B 3549  26.823  36.377   7.950
 3288POPC   C4B 3550  26.811  36.336   7.650
 3289POPC   NC3 3551   2.030  14.446   9.450
 3289POPC   PO4 3552   2.018  14.410   9.150
 3289POPC   GL1 3553   1.988  14.374   8.850
 3289POPC   GL2 3554   1.924  14.567   8.850
 3289POPC   C1A 3555   1.952  14.379   8.550
 3289POPC   D2A 3556   1.972  14.407   8.250
 3289POPC   C3A 3557   2.022  14.438   7.950
 3289POPC   C4A 3558   1.995  14.402   7.650
 3289POPC   C1B 3559   1.910  14.591   8.550
 3289POPC   C2B 3560   1.942  14.627   8.250
 3289POPC   C3B 3561   1.862  14.657   7.950
 3289POPC   C4B 3562   1.936  14.682   7.650
 3290POPC   NC3 3563   0.440  22.978   9.450
 3290POPC   PO4 3564   0.463  22.959   9.150
 3290POPC   GL1 3565   0.454  22.950   8.850
 3290POPC   GL2 3566   0.516  22.842   8.850
 3290POPC   C1A 3567   0.466  22.987   8.550
 3290POPC   D2A 3568   0.448  22.891   8.250
 3290POPC   C3A 3569   0.401  22.896   7.950
 3290POPC   C4A 3570   0.473  22.945   7.650
 3290POPC   C1B 3571   0.657  22.833   8.550
 3290POPC   C2B 3572   0.649  22.845   8.250
 3290POPC   C3B 3573   0.672  22.791   7.950
 3290POPC   C4B 3574   0.618  22.831   7.650
 3291POPC   NC3 3575   6.638  43.070   9.450
 3291POPC   PO4 3576   6.683  43.120   9.150
 3291POPC   GL1 3577   6.671  43.151   8.850
 3291POPC   GL2 3578   6.728  43.243   8.850
 3291POPC   C1A 3579   6.641  43.101   8.550
 3291POPC   D2A 3580   6.694  43.149   8.250
 3291POPC   C3A 3581   6.683  43.112   7.950
 3291POPC   C4A 3582   6.662  43.061   7.650
 3291POPC   C1B 3583   6.809  43.270   8.550
 3291POPC   C2B 3584   6.839  43.304   8.250
 3291POPC   C3B 3585   6.813  43.276   7.950
 3291POPC   C4B 3586   6.820  43.339   7.650
 3292POPC   NC3 3587  42.370  34.577   9.450
 3292POPC   PO4 3588  42.335  34.574   9.150
 3292POPC   GL1 3589  42.323  34.593   8.850
 3292POPC   GL2 3590  42.492  34.579   8.850
 3292POPC   C1A 3591  42.326  34.545   8.550
 3292POPC   D2A 3592  42.325  34.594   8.250
 3292POPC   C3A 3593  42.330  34.619   7.950
 3292POPC   C4A 3594  42.356  34.543   7.650
 3292POPC   C1B 3595  42.530  34.608   8.550
 3292POPC   C2B 3596  42.618  34.605   8.250
 3292POPC   C3B 3597  42.557  34.687   7.950
 3292POPC   C4B 3598  42.551  34.621   7.650
 3293POPC   NC3 3599   2.786   0.451   9.450
 3293POPC   PO4 3600   2.734   0.390   9.150
 3293POPC   GL1 3601   2.753   0.478   8.850
 3293POPC   GL2 3602   2.828   0.359   8.850
 3293POPC   C1A 3603   2.742   0.460   8.550
 3293POPC   D2A 3604   2.790   0.397   8.250
 3293POPC   C3A 3605   2.781   0.414   7.950
 3293POPC   C4A 3606   2.794   0.474   7.650
 3293POPC   C1B 3607   2.907   0.248   8.550
 3293POPC   C2B 3608   2.924   0.259   8.250
 3293POPC   C3B 3609   2.897   0.238   7.950
 3293POPC   C4B 3610   2.919   0.296   7.650
 3294POPC   NC3 3611   5.120  23.712   9.450
 3294POPC   PO4 3612   5.084  23.760   9.150
 3294POPC   GL1 3613   5.061  23.702   8.850
 3294POPC   GL2 3614   5.167  23.636   8.850
 3294POPC   C1A 3615   5.117  23.686   8.550
 3294POPC   D2A 3616   5.065  23.695   8.250
 3294POPC   C3A 3617   5.128  23.667   7.950
 3294POPC   C4A 3618   5.139  23.760   7.650
 3294POPC   C1B 3619   5.201  23.500   8.550
 3294POPC   C2B 3620   5.191  23.445   8.250
 3294POPC   C3B 3621   5.114  23.456   7.950
 3294POPC   C4B 3622   5.173  23.506   7.650
 3295POPC   NC3 3623  11.317  26.768   9.450
 3295POPC   PO4 3624  11.340  26.843   9.150
 3295POPC   GL1 3625  11.334  26.853   8.850
 3295POPC   GL2 3626  11.448  26.796   8.850
 3295POPC   C1A 3627  11.264  26.792   8.550
 3295POPC   D2A 3628  11.297  26.772   8.250
 3295POPC   C3A 3629  11.341  26.842   7.950
 3295POPC   C4A 3630  11.348  26.825   7.650
 3295POPC   C1B 3631  11.479  26.707   8.550
 3295POPC   C2B 3632  11.520  26.708   8.250
 3295POPC   C3B 3633  11.561  26.741   7.950
 3295POPC   C4B 3634  11.491  26.727   7.650
 3296POPC   NC3 3635  40.751   3.514   9.450
 3296POPC   PO4 3636  40.802   3.498   9.150
 3296POPC   GL1 3637  40.824   3.530   8.850
 3296POPC   GL2 3638  40.873   3.545   8.850
 3296POPC   C1A 3639  40.751   3.507   8.550
 3296POPC   D2A 3640  40.802   3.579   8.250
 3296POPC   C3A 3641  40.801   3.577   7.950
 3296POPC   C4A 3642  40.807   3.573   7.650
 3296POPC   C1B 3643  41.043   3.586   8.550
 3296POPC   C2B 3644  41.074   3.506   8.250
 3296POPC   C3B 3645  40.996   3.523   7.950
 3296POPC   C4B 3646  40.998   3.536   7.650
 3297POPC   NC3 3647  36.862  39.255   9.450
 3297POPC   PO4 3648  36.855  39.245   9.150
 3297POPC   GL1 3649  36.905  39.200   8.850
 3297POPC   GL2 3650  36.821  39.141   8.850
 3297POPC   C1A 3651  36.878  39.208   8.550
 3297POPC   D2A 3652  36.869  39.268   8.250
 3297POPC   C3A 3653  36.901  39.236   7.950
 3297POPC   C4A 3654  36.925  39.214   7.650
 3297POPC   C1B 3655  36.711  39.042   8.550
 3297POPC   C2B 3656  36.711  39.060   8.250
 3297POPC   C3B 3657  36.730  39.053   7.950
 3297POPC   C4B 3658  36.761  39.071   7.650
 3298POPC   NC3 3659   8.178  15.962   9.450
 3298POPC   PO4 3660   8.195  15.997   9.150
 3298POPC   GL1 3661   8.155  15.977   8.850
 3298POPC   GL2 3662   8.045  16.006   8.850
 3298POPC   C1A 3663   8.175  15.997   8.550
 3298POPC   D2A 3664   8.218  15.924   8.250
 3298POPC   C3A 3665   8.246  15.937   7.950
 3298POPC   C4A 3666   8.158  15.916   7.650
 3298POPC   C1B 3667   7.935  16.070   8.550
 3298POPC   C2B 3668   8.004  16.086   8.250
 3298POPC   C3B 3669   7.999  16.059   7.950
 3298POPC   C4B 3670   7.994  16.030   7.650
 3299POPC   NC3 3671  36.170   0.446   9.450
 3299POPC   PO4 3672  36.092   0.405   9.150
 3299POPC   GL1 3673  36.124   0.438   8.850
 3299POPC   GL2 3674  36.136   0.555   8.850
 3299POPC   C1A 3675  36.122   0.459   8.550
 3299POPC   D2A 3676  36.095   0.408   8.250
 3299POPC   C3A 3677  36.164   0.403   7.950
 3299POPC   C4A 3678  36.086   0.457   7.650
 3299POPC   C1B 3679  36.181   0.704   8.550
 3299POPC   C2B 3680  36.132   0.646   8.250
 3299POPC   C3B 3681  36.161   0.674   7.950
 3299POPC   C4B 3682  36.202   0.669   7.650
 3300POPC   NC3 3683  11.337  29.111   9.450
 3300POPC   PO4 3684  11.312  29.192   9.150
 3300POPC   GL1 3685  11.300  29.170   8.850
 3300POPC   GL2 3686  11.265  29.036   8.850
 3300POPC   C1A 3687  11.257  29.095   8.550
 3300POPC   D2A 3688  11.347  29.123   8.250
 3300POPC   C3A 3689  11.309  29.126   7.950
 3300POPC   C4A 3690  11.326  29.096   7.650
 3300POPC   C1B 3691  11.204  28.940   8.550
 3300POPC   C2B 3692  11.235  28.872   8.250
 3300POPC   C3B 3693  11.270  28.907   7.950
 3300POPC   C4B 3694  11.235  28.957   7.650
 3301POPC   NC3 3695  41.517  33.042   9.450
 3301POPC   PO4 3696  41.567  32.975   9.150
 3301POPC   GL1 3697  41.582  33.014   8.850
 3301POPC   GL2 3698  41.696  33.082   8.850
 3301POPC   C1A 3699  41.560  33.023   8.550
 3301POPC   D2A 3700  41.519  33.071   8.250
 3301POPC   C3A 3701  41.577  33.027   7.950
 3301POPC   C4A 3702  41.544  33.015   7.650
 3301POPC   C1B 3703  41.819  33.148   8.550
 3301POPC   C2B 3704  41.823  33.091   8.250
 3301POPC   C3B 3705  41.763  33.082   7.950
 3301POPC   C4B 3706  41.752  33.117   7.650
 3302POPC   NC3 3707  23.751  22.155   9.450
 3302POPC   PO4 3708  23.676  22.168   9.150
 3302POPC   GL1 3709  23.669  22.123   8.850
 3302POPC   GL2 3710  23.815  22.106   8.850
 3302POPC   C1A 3711  23.717  22.194   8.550
 3302POPC   D2A 3712  23.721  22.184   8.250
 3302POPC   C3A 3713  23.695  22.165   7.950
 3302POPC   C4A 3714  23.749  22.113   7.650
 3302POPC   C1B 3715  23.979  22.087   8.550
 3302POPC   C2B 3716  23.928  22.085   8.250
 3302POPC   C3B 3717  23.918  22.039   7.950
 3302POPC   C4B 3718  23.937  22.062   7.650
 3303POPC   NC3 3719   8.983  31.469   9.450
 3303POPC   PO4 3720   9.007  31.522   9.150
 3303POPC   GL1 3721   8.992  31.440   8.850
 3303POPC   GL2 3722   8.888  31.594   8.850
 3303POPC   C1A 3723   8.998  31.446   8.550
 3303POPC   D2A 3724   8.952  31.429   8.250
 3303POPC   C3A 3725   8.936  31.457   7.950
 3303POPC   C4A 3726   8.931  31.506   7.650
 3303POPC   C1B 3727   8.880  31.732   8.550
 3303POPC   C2B 3728   8.869  31.660   8.250
 3303POPC   C3B 3729   8.849  31.656   7.950
 3303POPC   C4B 3730   8.898  31.697   7.650
 3304POPC   NC3 3731  41.586  40.778   9.450
 3304POPC   PO4 3732  41.546  40.808   9.150
 3304POPC   GL1 3733  41.517  40.791   8.850
 3304POPC   GL2 3734  41.600  40.860   8.850
 3304POPC   C1A 3735  41.567  40.772   8.550
 3304POPC   D2A 3736  41.558  40.767   8.250
 3304POPC   C3A 3737  41.551  40.757   7.950
 3304POPC   C4A 3738  41.572  40.750   7.650
 3304POPC   C1B 3739  41.679  41.047   8.550
 3304POPC   C2B 3740  41.665  40.958   8.250
 3304POPC   C3B 3741  41.671  41.020   7.950
 3304POPC   C4B 3742  41.704  40.997   7.650
 3305POPC   NC3 3743  22.145  32.985   9.450
 3305POPC   PO4 3744  22.207  33.040   9.150
 3305POPC   GL1 3745  22.161  32.984   8.850
 3305POPC   GL2 3746  22.032  33.011   8.850
 3305POPC   C1A 3747  22.152  32.993   8.550
 3305POPC   D2A 3748  22.117  33.000   8.250
 3305POPC   C3A 3749  22.133  33.010   7.950
 3305POPC   C4A 3750  22.134  33.010   7.650
 3305POPC   C1B 3751  21.887  33.080   8.550
 3305POPC   C2B 3752  21.937  33.049   8.250
 3305POPC   C3B 3753  21.915  33.051   7.950
 3305POPC   C4B 3754  21.909  33.056   7.650
 3306POPC   NC3 3755  38.426  43.884   9.450
 3306POPC   PO4 3756  38.459  43.927   9.150
 3306POPC   GL1 3757  38.433  43.887   8.850
 3306POPC   GL2 3758  38.566  43.968   8.850
 3306POPC   C1A 3759  38.431  43.912   8.550
 3306POPC   D2A 3760  38.417  43.892   8.250
 3306POPC   C3A 3761  38.449  43.855   7.950
 3306POPC   C4A 3762  38.497  43.895   7.650
 3306POPC   C1B 3763  38.725  43.987   8.550
 3306POPC   C2B 3764  38.727  43.963   8.250
 3306POPC   C3B 3765  38.684  44.007   7.950
 3306POPC   C4B 3766  38.656  44.013   7.650
 3307POPC   NC3 3767  36.086  44.660   9.450
 3307POPC   PO4 3768  36.095  44.616   9.150
 3307POPC   GL1 3769  36.095  44.695   8.850
 3307POPC   GL2 3770  36.172  44.726   8.850
 3307POPC   C1A 3771  36.156  44.638   8.550
 3307POPC   D2A 3772  36.162  44.626   8.250
 3307POPC   C3A 3773  36.143  44.670   7.950
 3307POPC   C4A 3774  36.102  44.657   7.650
 3307POPC   C1B 3775  36.351  44.841   8.550
 3307POPC   C2B 3776  36.288  44.841   8.250
 3307POPC   C3B 3777  36.339  44.866   7.950
 3307POPC   C4B 3778  36.341  44.877   7.650
 3308POPC   NC3 3779  21.397  14.359   9.450
 3308POPC   PO4 3780  21.429  14.422   9.150
 3308POPC   GL1 3781  21.421  14.357   8.850
 3308POPC   GL2 3782  21.285  14.413   8.850
 3308POPC   C1A 3783  21.435  14.374   8.550
 3308POPC   D2A 3784  21.414  14.440   8.250
 3308POPC   C3A 3785  21.425  14.450   7.950
 3308POPC   C4A 3786  21.342  14.437   7.650
 3308POPC   C1B 3787  21.205  14.540   8.550
 3308POPC   C2B 3788  21.192  14.504   8.250
 3308POPC   C3B 3789  21.187  14.538   7.950
 3308POPC   C4B 3790  21.150  14.519   7.650
 3309POPC   NC3 3791  36.095  38.466   9.450
 3309POPC   PO4 3792  36.110  38.480   9.150
 3309POPC   GL1 3793  36.116  38.423   8.850
 3309POPC   GL2 3794  35.997  38.533   8.850
 3309POPC   C1A 3795  36.089  38.411   8.550
 3309POPC   D2A 3796  36.095  38.457   8.250
 3309POPC   C3A 3797  36.176  38.504   7.950
 3309POPC   C4A 3798  36.150  38.421   7.650
 3309POPC   C1B 3799  35.933  38.600   8.550
 3309POPC   C2B 3800  35.915  38.618   8.250
 3309POPC   C3B 3801  35.985  38.688   7.950
 3309POPC   C4B 3802  35.983  38.605   7.650
 3310POPC   NC3 3803   6.607  20.618   9.450
 3310POPC   PO4 3804   6.601  20.599   9.150
 3310POPC   GL1 3805   6.628  20.586   8.850
 3310POPC   GL2 3806   6.573  20.545   8.850
 3310POPC   C1A 3807   6.638  20.602   8.550
 3310POPC   D2A 3808   6.618  20.610   8.250
 3310POPC   C3A 3809   6.637  20.639   7.950
 3310POPC   C4A 3810   6.600  20.634   7.650
 3310POPC   C1B 3811   6.420  20.528   8.550
 3310POPC   C2B 3812   6.422  20.467   8.250
 3310POPC   C3B 3813   6.379  20.510   7.950
 3310POPC   C4B 3814   6.440  20.530   7.650
 3311POPC   NC3 3815  37.657  29.174   9.450
 3311POPC   PO4 3816  37.668  29.151   9.150
 3311POPC   GL1 3817  37.705  29.190   8.850
 3311POPC   GL2 3818  37.640  28.973   8.850
 3311POPC   C1A 3819  37.679  29.108   8.550
 3311POPC   D2A 3820  37.695  29.173   8.250
 3311POPC   C3A 3821  37.654  29.128   7.950
 3311POPC   C4A 3822  37.727  29.141   7.650
 3311POPC   C1B 3823  37.637  28.887   8.550
 3311POPC   C2B 3824  37.696  28.905   8.250
 3311POPC   C3B 3825  37.697  28.855   7.950
 3311POPC   C4B 3826  37.631  28.891   7.650
 3312POPC   NC3 3827  17.546   5.903   9.450
 3312POPC   PO4 3828  17.529   5.918   9.150
 3312POPC   GL1 3829  17.539   5.863   8.850
 3312POPC   GL2 3830  17.553   5.808   8.850
 3312POPC   C1A 3831  17.526   5.881   8.550
 3312POPC   D2A 3832  17.556   5.863   8.250
 3312POPC   C3A 3833  17.539   5.878   7.950
 3312POPC   C4A 3834  17.500   5.897   7.650
 3312POPC   C1B 3835  17.647   5.666   8.550
 3312POPC   C2B 3836  17.662   5.698   8.250
 3312POPC   C3B 3837  17.603   5.695   7.950
 3312POPC   C4B 3838  17.664   5.657   7.650
 3313POPC   NC3 3839  30.710  12.026   9.450
 3313POPC   PO4 3840  30.698  12.086   9.150
 3313POPC   GL1 3841  30.668  12.062   8.850
 3313POPC   GL2 3842  30.659  12.149   8.850
 3313POPC   C1A 3843  30.679  12.110   8.550
 3313POPC   D2A 3844  30.699  12.111   8.250
 3313POPC   C3A 3845  30.677  12.101   7.950
 3313POPC   C4A 3846  30.698  12.104   7.650
 3313POPC   C1B 3847  30.535  12.328   8.550
 3313POPC   C2B 3848  30.574  12.312   8.250
 3313POPC   C3B 3849  30.538  12.323   7.950
 3313POPC   C4B 3850  30.571  12.267   7.650
 3314POPC   NC3 3851  24.472  30.698   9.450
 3314POPC   PO4 3852  24.525  30.704   9.150
 3314POPC   GL1 3853  24.504  30.654   8.850
 3314POPC   GL2 3854  24.571  30.803   8.850
 3314POPC   C1A 3855  24.493  30.647   8.550
 3314POPC   D2A 3856  24.475  30.653   8.250
 3314POPC   C3A 3857  24.467  30.696   7.950
 3314POPC   C4A 3858  24.486  30.656   7.650
 3314POPC   C1B 3859  24.614  30.899   8.550
 3314POPC   C2B 3860  24.611  30.901   8.250
 3314POPC   C3B 3861  24.618  30.886   7.950
 3314POPC   C4B 3862  24.667  30.874   7.650
 3315POPC   NC3 3863  25.267  23.701   9.450
 3315POPC   PO4 3864  25.275  23.677   9.150
 3315POPC   GL1 3865  25.228  23.731   8.850
 3315POPC   GL2 3866  25.279  23.884   8.850
 3315POPC   C1A 3867  25.304  23.670   8.550
 3315POPC   D2A 3868  25.303  23.693   8.250
 3315POPC   C3A 3869  25.299  23.708   7.950
 3315POPC   C4A 3870  25.226  23.715   7.650
 3315POPC   C1B 3871  25.357  23.969   8.550
 3315POPC   C2B 3872  25.341  23.963   8.250
 3315POPC   C3B 3873  25.372  23.962   7.950
 3315POPC   C4B 3874  25.289  23.948   7.650
 3316POPC   NC3 3875  40.831  10.547   9.450
 3316POPC   PO4 3876  40.777  10.513   9.150
 3316POPC   GL1 3877  40.735  10.476   8.850
 3316POPC   GL2 3878  40.876  10.567   8.850
 3316POPC   C1A 3879  40.813  10.499   8.550
 3316POPC   D2A 3880  40.740  10.482   8.250
 3316POPC   C3A 3881  40.780  10.554   7.950
 3316POPC   C4A 3882  40.746  10.556   7.650
 3316POPC   C1B 3883  41.002  10.521   8.550
 3316POPC   C2B 3884  41.021  10.564   8.250
 3316POPC   C3B 3885  41.004  10.538   7.950
 3316POPC   C4B 3886  41.069  10.566   7.650
 3317POPC   NC3 3887  26.787  39.252   9.450
 3317POPC   PO4 3888  26.835  39.214   9.150
 3317POPC   GL1 3889  26.818  39.232   8.850
 3317POPC   GL2 3890  26.967  39.238   8.850
 3317POPC   C1A 3891  26.773  39.225   8.550
 3317POPC   D2A 3892  26.857  39.204   8.250
 3317POPC   C3A 3893  26.781  39.184   7.950
 3317POPC   C4A 3894  26.785  39.209   7.650
 3317POPC   C1B 3895  27.082  39.155   8.550
 3317POPC   C2B 3896  27.036  39.173   8.250
 3317POPC   C3B 3897  27.043  39.174   7.950
 3317POPC   C4B 3898  27.102  39.190   7.650
 3318POPC   NC3 3899   9.728  25.307   9.450
 3318POPC   PO4 3900   9.715  25.224   9.150
 3318POPC   GL1 3901   9.759  25.241   8.850
 3318POPC   GL2 3902   9.831  25.381   8.850
 3318POPC   C1A 3903   9.755  25.234   8.550
 3318POPC   D2A 3904   9.747  25.291   8.250
 3318POPC   C3A 3905   9.719  25.310   7.950
 3318POPC   C4A 3906   9.774  25.279   7.650
 3318POPC   C1B 3907   9.861  25.477   8.550
 3318POPC   C2B 3908   9.793  25.493   8.250
 3318POPC   C3B 3909   9.861  25.501   7.950
 3318POPC   C4B 3910   9.827  25.500   7.650
 3319POPC   NC3 3911  19.100  19.021   9.450
 3319POPC   PO4 3912  19.062  19.024   9.150
 3319POPC   GL1 3913  19.097  19.016   8.850
 3319POPC   GL2 3914  19.140  19.157   8.850
 3319POPC   C1A 3915  19.070  19.107   8.550
 3319POPC   D2A 3916  19.101  19.097   8.250
 3319POPC   C3A 3917  19.104  19.068   7.950
 3319POPC   C4A 3918  19.015  19.061   7.650
 3319POPC   C1B 3919  19.301  19.210   8.550
 3319POPC   C2B 3920  19.265  19.238   8.250
 3319POPC   C3B 3921  19.228  19.187   7.950
 3319POPC   C4B 3922  19.213  19.177   7.650
 3320POPC   NC3 3923  28.370  35.375   9.450
 3320POPC   PO4 3924  28.389  35.398   9.150
 3320POPC   GL1 3925  28.395  35.334   8.850
 3320POPC   GL2 3926  28.299  35.346   8.850
 3320POPC   C1A 3927  28.397  35.313   8.550
 3320POPC   D2A 3928  28.414  35.364   8.250
 3320POPC   C3A 3929  28.413  35.399   7.950
 3320POPC   C4A 3930  28.400  35.342   7.650
 3320POPC   C1B 3931  28.137  35.241   8.550
 3320POPC   C2B 3932  28.106  35.255   8.250
 3320POPC   C3B 3933  28.140  35.309   7.950
 3320POPC   C4B 3934  28.143  35.297   7.650
 3321POPC   NC3 3935  15.998   3.499   9.450
 3321POPC   PO4 3936  15.940   3.539   9.150
 3321POPC   GL1 3937  15.927   3.561   8.850
 3321POPC   GL2 3938  16.099   3.602   8.850
 3321POPC   C1A 3939  15.972   3.564   8.550
 3321POPC   D2A 3940  15.912   3.586   8.250
 3321POPC   C3A 3941  15.957   3.586   7.950
 3321POPC   C4A 3942  15.922   3.529   7.650
 3321POPC   C1B 3943  16.246   3.624   8.550
 3321POPC   C2B 3944  16.246   3.576   8.250
 3321POPC   C3B 3945  16.235   3.526   7.950
 3321POPC   C4B 3946  16.204   3.540   7.650
 3322POPC   NC3 3947  28.325  15.159   9.450
 3322POPC   PO4 3948  28.361  15.166   9.150
 3322POPC   GL1 3949  28.413  15.195   8.850
 3322POPC   GL2 3950  28.324  15.030   8.850
 3322POPC   C1A 3951  28.405  15.222   8.550
 3322POPC   D2A 3952  28.405  15.219   8.250
 3322POPC   C3A 3953  28.359  15.162   7.950
 3322POPC   C4A 3954  28.396  15.202   7.650
 3322POPC   C1B 3955  28.272  14.973   8.550
 3322POPC   C2B 3956  28.283  14.963   8.250
 3322POPC   C3B 3957  28.369  14.980   7.950
 3322POPC   C4B 3958  28.333  14.918   7.650
 3323POPC   NC3 3959  21.351  17.539   9.450
 3323POPC   PO4 3960  21.404  17.542   9.150
 3323POPC   GL1 3961  21.385  17.482   8.850
 3323POPC   GL2 3962  21.317  17.597   8.850
 3323POPC   C1A 3963  21.358  17.533   8.550
 3323POPC   D2A 3964  21.433  17.550   8.250
 3323POPC   C3A 3965  21.339  17.465   7.950
 3323POPC   C4A 3966  21.358  17.465   7.650
 3323POPC   C1B 3967  21.135  17.643   8.550
 3323POPC   C2B 3968  21.199  17.650   8.250
 3323POPC   C3B 3969  21.153  17.682   7.950
 3323POPC   C4B 3970  21.148  17.635   7.650
 3324POPC   NC3 3971  42.321  26.814   9.450
 3324POPC   PO4 3972  42.301  26.850   9.150
 3324POPC   GL1 3973  42.289  26.843   8.850
 3324POPC   GL2 3974  42.351  26.668   8.850
 3324POPC   C1A 3975  42.360  26.850   8.550
 3324POPC   D2A 3976  42.312  26.771   8.250
 3324POPC   C3A 3977  42.380  26.797   7.950
 3324POPC   C4A 3978  42.328  26.774   7.650
 3324POPC   C1B 3979  42.275  26.533   8.550
 3324POPC   C2B 3980  42.321  26.573   8.250
 3324POPC   C3B 3981  42.253  26.605   7.950
 3324POPC   C4B 3982  42.289  26.584   7.650
 3325POPC   NC3 3983  43.093  36.167   9.450
 3325POPC   PO4 3984  43.142  36.080   9.150
 3325POPC   GL1 3985  43.085  36.176   8.850
 3325POPC   GL2 3986  43.112  36.050   8.850
 3325POPC   C1A 3987  43.148  36.161   8.550
 3325POPC   D2A 3988  43.139  36.106   8.250
 3325POPC   C3A 3989  43.146  36.094   7.950
 3325POPC   C4A 3990  43.083  36.139   7.650
 3325POPC   C1B 3991  43.090  35.856   8.550
 3325POPC   C2B 3992  43.141  35.915   8.250
 3325POPC   C3B 3993  43.176  35.879   7.950
 3325POPC   C4B 3994  43.120  35.858   7.650
 3326POPC   NC3 3995  21.428  28.405   9.450
 3326POPC   PO4 3996  21.400  28.395   9.150
 3326POPC   GL1 3997  21.434  28.413   8.850
 3326POPC   GL2 3998  21.460  28.491   8.850
 3326POPC   C1A 3999  21.428  28.401   8.550
 3326POPC   D2A 4000  21.357  28.416   8.250
 3326POPC   C3A 4001  21.374  28.384   7.950
 3326POPC   C4A 4002  21.425  28.390   7.650
 3326POPC   C1B 4003  21.489  28.598   8.550
 3326POPC   C2B 4004  21.467  28.567   8.250
 3326POPC   C3B 4005  21.493  28.606   7.950
 3326POPC   C4B 4006  21.507  28.625   7.650
 3327POPC   NC3 4007  41.536  10.549   9.450
 3327POPC   PO4 4008  41.534  10.484   9.150
 3327POPC   GL1 4009  41.538  10.535   8.850
 3327POPC   GL2 4010  41.696  10.611   8.850
 3327POPC   C1A 4011  41.533  10.513   8.550
 3327POPC   D2A 4012  41.599  10.499   8.250
 3327POPC   C3A 4013  41.526  10.486   7.950
 3327POPC   C4A 4014  41.593  10.504   7.650
 3327POPC   C1B 4015  41.702  10.677   8.550
 3327POPC   C2B 4016  41.723  10.719   8.250
 3327POPC   C3B 4017  41.693  10.701   7.950
 3327POPC   C4B 4018  41.766  10.657   7.650
 3328POPC   NC3 4019  35.385   4.299   9.450
 3328POPC   PO4 4020  35.312   4.325   9.150
 3328POPC   GL1 4021  35.373   4.348   8.850
 3328POPC   GL2 4022  35.513   4.336   8.850
 3328POPC   C1A 4023  35.371   4.280   8.550
 3328POPC   D2A 4024  35.340   4.361   8.250
 3328POPC   C3A 4025  35.345   4.358   7.950
 3328POPC   C4A 4026  35.312   4.300   7.650
 3328POPC   C1B 4027  35.543   4.473   8.550
 3328POPC   C2B 4028  35.583   4.477   8.250
 3328POPC   C3B 4029  35.613   4.387   7.950
 3328POPC   C4B 4030  35.616   4.404   7.650
 3329POPC   NC3 4031  26.811  32.231   9.450
 3329POPC   PO4 4032  26.821  32.246   9.150
 3329POPC   GL1 4033  26.814  32.228   8.850
 3329POPC   GL2 4034  26.901  32.333   8.850
 3329POPC   C1A 4035  26.847  32.239   8.550
 3329POPC   D2A 4036  26.827  32.272   8.250
 3329POPC   C3A 4037  26.815  32.257   7.950
 3329POPC   C4A 4038  26.772  32.254   7.650
 3329POPC   C1B 4039  27.009  32.349   8.550
 3329POPC   C2B 4040  27.050  32.369   8.250
 3329POPC   C3B 4041  27.090  32.354   7.950
 3329POPC   C4B 4042  27.029  32.300   7.650
 3330POPC   NC3 4043  29.970  13.659   9.450
 3330POPC   PO4 4044  29.908  13.616   9.150
 3330POPC   GL1 4045  29.953  13.602   8.850
 3330POPC   GL2 4046  29.856  13.696   8.850
 3330POPC   C1A 4047  29.886  13.618   8.550
 3330POPC   D2A 4048  29.943  13.631   8.250
 3330POPC   C3A 4049  29.970  13.581   7.950
 3330POPC   C4A 4050  29.952  13.644   7.650
 3330POPC   C1B 4051  29.785  13.852   8.550
 3330POPC   C2B 4052  29.791  13.842   8.250
 3330POPC   C3B 4053  29.719  13.854   7.950
 3330POPC   C4B 4054  29.719  13.827   7.650
 3331POPC   NC3 4055   8.202  24.508   9.450
 3331POPC   PO4 4056   8.192  24.522   9.150
 3331POPC   GL1 4057   8.184  24.471   8.850
 3331POPC   GL2 4058   8.224  24.378   8.850
 3331POPC   C1A 4059   8.166  24.511   8.550
 3331POPC   D2A 4060   8.163  24.492   8.250
 3331POPC   C3A 4061   8.239  24.469   7.950
 3331POPC   C4A 4062   8.232  24.471   7.650
 3331POPC   C1B 4063   8.300  24.198   8.550
 3331POPC   C2B 4064   8.237  24.228   8.250
 3331POPC   C3B 4065   8.233  24.275   7.950
 3331POPC   C4B 4066   8.224  24.249   7.650
 3332POPC   NC3 4067  13.653  21.382   9.450
 3332POPC   PO4 4068  13.641  21.381   9.150
 3332POPC   GL1 4069  13.615  21.378   8.850
 3332POPC   GL2 4070  13.503  21.472   8.850
 3332POPC   C1A 4071  13.592  21.396   8.550
 3332POPC   D2A 4072  13.630  21.375   8.250
 3332POPC   C3A 4073  13.656  21.415   7.950
 3332POPC   C4A 4074  13.593  21.349   7.650
 3332POPC   C1B 4075  13.385  21.450   8.550
 3332POPC   C2B 4076  13.451  21.471   8.250
 3332POPC   C3B 4077  13.449  21.535   7.950
 3332POPC   C4B 4078  13.423  21.524   7.650
 3333POPC   NC3 4079  34.553   9.713   9.450
 3333POPC   PO4 4080  34.581   9.771   9.150
 3333POPC   GL1 4081  34.573   9.711   8.850
 3333POPC   GL2 4082  34.449   9.658   8.850
 3333POPC   C1A 4083  34.611   9.760   8.550
 3333POPC   D2A 4084  34.526   9.734   8.250
 3333POPC   C3A 4085  34.612   9.724   7.950
 3333POPC   C4A 4086  34.568   9.770   7.650
 3333POPC   C1B 4087  34.305   9.605   8.550
 3333POPC   C2B 4088  34.329   9.654   8.250
 3333POPC   C3B 4089  34.393   9.695   7.950
 3333POPC   C4B 4090  34.385   9.624   7.650
 3334POPC   NC3 4091  11.303  19.854   9.450
 3334POPC   PO4 4092  11.343  19.824   9.150
 3334POPC   GL1 4093  11.293  19.829   8.850
 3334POPC   GL2 4094  11.264  19.986   8.850
 3334POPC   C1A 4095  11.290  19.800   8.550
 3334POPC   D2A 4096  11.296  19.831   8.250
 3334POPC   C3A 4097  11.270  19.845   7.950
 3334POPC   C4A 4098  11.252  19.793   7.650
 3334POPC   C1B 4099  11.169  20.047   8.550
 3334POPC   C2B 4100  11.179  20.024   8.250
 3334POPC   C3B 4101  11.167  20.006   7.950
 3334POPC   C4B 4102  11.139  20.028   7.650
 3335POPC   NC3 4103  33.833  11.318   9.450
 3335POPC   PO4 4104  33.835  11.265   9.150
 3335POPC   GL1 4105  33.838  11.285   8.850
 3335POPC   GL2 4106  33.695  11.216   8.850
 3335POPC   C1A 4107  33.766  11.262   8.550
 3335POPC   D2A 4108  33.814  11.338   8.250
 3335POPC   C3A 4109  33.818  11.271   7.950
 3335POPC   C4A 4110  33.780  11.303   7.650
 3335POPC   C1B 4111  33.672  11.064   8.550
 3335POPC   C2B 4112  33.705  11.068   8.250
 3335POPC   C3B 4113  33.689  11.112   7.950
 3335POPC   C4B 4114  33.684  11.041   7.650
 3336POPC   NC3 4115   1.985  40.012   9.450
 3336POPC   PO4 4116   1.970  40.021   9.150
 3336POPC   GL1 4117   1.965  39.972   8.850
 3336POPC   GL2 4118   1.912  39.909   8.850
 3336POPC   C1A 4119   2.012  40.002   8.550
 3336POPC   D2A 4120   2.018  39.991   8.250
 3336POPC   C3A 4121   1.964  39.964   7.950
 3336POPC   C4A 4122   2.023  40.052   7.650
 3336POPC   C1B 4123   1.900  39.734   8.550
 3336POPC   C2B 4124   1.869  39.734   8.250
 3336POPC   C3B 4125   1.917  39.776   7.950
 3336POPC   C4B 4126   1.860  39.791   7.650
 3337POPC   NC3 4127  13.666  28.407   9.450
 3337POPC   PO4 4128  13.610  28.336   9.150
 3337POPC   GL1 4129  13.668  28.400   8.850
 3337POPC   GL2 4130  13.743  28.436   8.850
 3337POPC   C1A 4131  13.589  28.374   8.550
 3337POPC   D2A 4132  13.675  28.355   8.250
 3337POPC   C3A 4133  13.654  28.410   7.950
 3337POPC   C4A 4134  13.590  28.335   7.650
 3337POPC   C1B 4135  13.811  28.537   8.550
 3337POPC   C2B 4136  13.796  28.472   8.250
 3337POPC   C3B 4137  13.871  28.531   7.950
 3337POPC   C4B 4138  13.840  28.563   7.650
 3338POPC   NC3 4139  37.646  39.206   9.450
 3338POPC   PO4 4140  37.712  39.205   9.150
 3338POPC   GL1 4141  37.713  39.214   8.850
 3338POPC   GL2 4142  37.731  39.355   8.850
 3338POPC   C1A 4143  37.694  39.262   8.550
 3338POPC   D2A 4144  37.648  39.213   8.250
 3338POPC   C3A 4145  37.649  39.250   7.950
 3338POPC   C4A 4146  37.691  39.223   7.650
 3338POPC   C1B 4147  37.914  39.387   8.550
 3338POPC   C2B 4148  37.922  39.413   8.250
 3338POPC   C3B 4149  37.843  39.376   7.950
 3338POPC   C4B 4150  37.855  39.371   7.650
 3339POPC   NC3 4151  39.990   3.514   9.450
 3339POPC   PO4 4152  39.992   3.566   9.150
 3339POPC   GL1 4153  39.961   3.537   8.850
 3339POPC   GL2 4154  39.922   3.545   8.850
 3339POPC   C1A 4155  39.980   3.532   8.550
 3339POPC   D2A 4156  40.004   3.513   8.250
 3339POPC   C3A 4157  39.958   3.538   7.950
 3339POPC   C4A 4158  40.033   3.554   7.650
 3339POPC   C1B 4159  39.732   3.414   8.550
 3339POPC   C2B 4160  39.788   3.446   8.250
 3339POPC   C3B 4161  39.768   3.476   7.950
 3339POPC   C4B 4162  39.743   3.423   7.650
 3340POPC   NC3 4163  44.627  13.645   9.450
 3340POPC   PO4 4164  44.645  13.579   9.150
 3340POPC   GL1 4165  44.671  13.588   8.850
 3340POPC   GL2 4166  44.549  13.581   8.850
 3340POPC   C1A 4167  44.678  13.598   8.550
 3340POPC   D2A 4168  44.645  13.656   8.250
 3340POPC   C3A 4169  44.677  13.670   7.950
 3340POPC   C4A 4170  44.652  13.625   7.650
 3340POPC   C1B 4171  44.412  13.518   8.550
 3340POPC   C2B 4172  44.419  13.557   8.250
 3340POPC   C3B 4173  44.395  13.541   7.950
 3340POPC   C4B 4174  44.452  13.536   7.650
 3341POPC   NC3 4175   8.160  18.260   9.450
 3341POPC   PO4 4176   8.215  18.272   9.150
 3341POPC   GL1 4177   8.219  18.324   8.850
 3341POPC   GL2 4178   8.215  18.366   8.850
 3341POPC   C1A 4179   8.169  18.305   8.550
 3341POPC   D2A 4180   8.213  18.266   8.250
 3341POPC   C3A 4181   8.218  18.316   7.950
 3341POPC   C4A 4182   8.183  18.321   7.650
 3341POPC   C1B 4183   8.347  18.462   8.550
 3341POPC   C2B 4184   8.355  18.464   8.250
 3341POPC   C3B 4185   8.347  18.504   7.950
 3341POPC   C4B 4186   8.298  18.543   7.650
 3342POPC   NC3 4187  39.960  31.476   9.450
 3342POPC   PO4 4188  40.003  31.467   9.150
 3342POPC   GL1 4189  39.960  31.433   8.850
 3342POPC   GL2 4190  40.107  31.571   8.850
 3342POPC   C1A 4191  40.003  31.473   8.550
 3342POPC   D2A 4192  39.996  31.462   8.250
 3342POPC   C3A 4193  40.030  31.494   7.950
 3342POPC   C4A 4194  40.039  31.431   7.650
 3342POPC   C1B 4195  40.252  31.603   8.550
 3342POPC   C2B 4196  40.206  31.537   8.250
 3342POPC   C3B 4197  40.222  31.547   7.950
 3342POPC   C4B 4198  40.226  31.572   7.650
 3343POPC   NC3 4199  12.039  34.591   9.450
 3343POPC   PO4 4200  12.105  34.583   9.150
 3343POPC   GL1 4201  12.034  34.580   8.850
 3343POPC   GL2 4202  12.066  34.471   8.850
 3343POPC   C1A 4203  12.028  34.533   8.550
 3343POPC   D2A 4204  12.068  34.572   8.250
 3343POPC   C3A 4205  12.100  34.592   7.950
 3343POPC   C4A 4206  12.086  34.570   7.650
 3343POPC   C1B 4207  12.057  34.281   8.550
 3343POPC   C2B 4208  12.051  34.321   8.250
 3343POPC   C3B 4209  12.066  34.326   7.950
 3343POPC   C4B 4210  12.113  34.313   7.650
 3344POPC   NC3 4211  38.452  40.042   9.450
 3344POPC   PO4 4212  38.424  40.011   9.150
 3344POPC   GL1 4213  38.435  40.055   8.850
 3344POPC   GL2 4214  38.449  39.876   8.850
 3344POPC   C1A 4215  38.446  40.018   8.550
 3344POPC   D2A 4216  38.443  40.023   8.250
 3344POPC   C3A 4217  38.440  39.982   7.950
 3344POPC   C4A 4218  38.487  40.028   7.650
 3344POPC   C1B 4219  38.415  39.726   8.550
 3344POPC   C2B 4220  38.412  39.791   8.250
 3344POPC   C3B 4221  38.377  39.726   7.950
 3344POPC   C4B 4222  38.380  39.715   7.650
 3345POPC   NC3 4223  16.730  17.483   9.450
 3345POPC   PO4 4224  16.777  17.548   9.150
 3345POPC   GL1 4225  16.745  17.495   8.850
 3345POPC   GL2 4226  16.810  17.523   8.850
 3345POPC   C1A 4227  16.727  17.462   8.550
 3345POPC   D2A 4228  16.740  17.499   8.250
 3345POPC   C3A 4229  16.744  17.484   7.950
 3345POPC   C4A 4230  16.716  17.556   7.650
 3345POPC   C1B 4231  16.987  17.487   8.550
 3345POPC   C2B 4232  17.016  17.466   8.250
 3345POPC   C3B 4233  17.001  17.545   7.950
 3345POPC   C4B 4234  17.004  17.518   7.650
 3346POPC   NC3 4235  24.521   6.689   9.450
 3346POPC   PO4 4236  24.480   6.676   9.150
 3346POPC   GL1 4237  24.504   6.614   8.850
 3346POPC   GL2 4238  24.588   6.790   8.850
 3346POPC   C1A 4239  24.529   6.633   8.550
 3346POPC   D2A 4240  24.450   6.681   8.250
 3346POPC   C3A 4241  24.540   6.645   7.950
 3346POPC   C4A 4242  24.448   6.597   7.650
 3346POPC   C1B 4243  24.592   6.857   8.550
 3346POPC   C2B 4244  24.644   6.828   8.250
 3346POPC   C3B 4245  24.676   6.855   7.950
 3346POPC   C4B 4246  24.622   6.819   7.650
 3347POPC   NC3 4247  19.061  39.982   9.450
 3347POPC   PO4 4248  19.009  39.964   9.150
 3347POPC   GL1 4249  19.092  40.010   8.850
 3347POPC   GL2 4250  18.976  40.132   8.850
 3347POPC   C1A 4251  19.057  40.050   8.550
 3347POPC   D2A 4252  19.038  40.056   8.250
 3347POPC   C3A 4253  19.049  40.019   7.950
 3347POPC   C4A 4254  19.088  39.991   7.650
 3347POPC   C1B 4255  19.017  40.254   8.550
 3347POPC   C2B 4256  18.997  40.263   8.250
 3347POPC   C3B 4257  19.018  40.257   7.950
 3347POPC   C4B 4258  18.950  40.200   7.650
 3348POPC   NC3 4259   3.497   2.809   9.450
 3348POPC   PO4 4260   3.557   2.790   9.150
 3348POPC   GL1 4261   3.538   2.782   8.850
 3348POPC   GL2 4262   3.661   2.845   8.850
 3348POPC   C1A 4263   3.561   2.750   8.550
 3348POPC   D2A 4264   3.546   2.799   8.250
 3348POPC   C3A 4265   3.582   2.740   7.950
 3348POPC   C4A 4266   3.589   2.743   7.650
 3348POPC   C1B 4267   3.796   2.859   8.550
 3348POPC   C2B 4268   3.781   2.870   8.250
 3348POPC   C3B 4269   3.798   2.839   7.950
 3348POPC   C4B 4270   3.794   2.853   7.650
 3349POPC   NC3 4271  22.940  22.129   9.450
 3349POPC   PO4 4272  22.936  22.167   9.150
 3349POPC   GL1 4273  22.890  22.149   8.850
 3349POPC   GL2 4274  22.942  22.312   8.850
 3349POPC   C1A 4275  22.923  22.155   8.550
 3349POPC   D2A 4276  22.975  22.134   8.250
 3349POPC   C3A 4277  22.911  22.147   7.950
 3349POPC   C4A 4278  22.919  22.126   7.650
 3349POPC   C1B 4279  22.916  22.400   8.550
 3349POPC   C2B 4280  22.879  22.452   8.250
 3349POPC   C3B 4281  22.878  22.358   7.950
 3349POPC   C4B 4282  22.876  22.374   7.650
 3350POPC   NC3 4283  41.595  19.803   9.450
 3350POPC   PO4 4284  41.518  19.842   9.150
 3350POPC   GL1 4285  41.538  19.804   8.850
 3350POPC   GL2 4286  41.510  19.912   8.850
 3350POPC   C1A 4287  41.533  19.839   8.550
 3350POPC   D2A 4288  41.575  19.869   8.250
 3350POPC   C3A 4289  41.591  19.850   7.950
 3350POPC   C4A 4290  41.596  19.856   7.650
 3350POPC   C1B 4291  41.484  20.081   8.550
 3350POPC   C2B 4292  41.520  20.064   8.250
 3350POPC   C3B 4293  41.495  20.026   7.950
 3350POPC   C4B 4294  41.504  20.031   7.650
 3351POPC   NC3 4295   2.767  31.471   9.450
 3351POPC   PO4 4296   2.791  31.469   9.150
 3351POPC   GL1 4297   2.728  31.482   8.850
 3351POPC   GL2 4298   2.752  31.406   8.850
 3351POPC   C1A 4299   2.804  31.492   8.550
 3351POPC   D2A 4300   2.739  31.482   8.250
 3351POPC   C3A 4301   2.765  31.455   7.950
 3351POPC   C4A 4302   2.806  31.492   7.650
 3351POPC   C1B 4303   2.620  31.219   8.550
 3351POPC   C2B 4304   2.640  31.211   8.250
 3351POPC   C3B 4305   2.673  31.223   7.950
 3351POPC   C4B 4306   2.659  31.202   7.650
 3352POPC   NC3 4307   0.476  43.062   9.450
 3352POPC   PO4 4308   0.435  43.081   9.150
 3352POPC   GL1 4309   0.454  43.078   8.850
 3352POPC   GL2 4310   0.531  42.992   8.850
 3352POPC   C1A 4311   0.394  43.155   8.550
 3352POPC   D2A 4312   0.479  43.144   8.250
 3352POPC   C3A 4313   0.446  43.133   7.950
 3352POPC   C4A 4314   0.458  43.153   7.650
 3352POPC   C1B 4315   0.578  42.938   8.550
 3352POPC   C2B 4316   0.590  42.910   8.250
 3352POPC   C3B 4317   0.591  42.880   7.950
 3352POPC   C4B 4318   0.538  42.845   7.650
 3353POPC   NC3 4319   4.336  34.619   9.450
 3353POPC   PO4 4320   4.268  34.611   9.150
 3353POPC   GL1 4321   4.298  34.528   8.850
 3353POPC   GL2 4322   4.170  34.531   8.850
 3353POPC   C1A 4323   4.268  34.607   8.550
 3353POPC   D2A 4324   4.290  34.592   8.250
 3353POPC   C3A 4325   4.299  34.542   7.950
 3353POPC   C4A 4326   4.289  34.534   7.650
 3353POPC   C1B 4327   4.075  34.469   8.550
 3353POPC   C2B 4328   4.126  34.468   8.250
 3353POPC   C3B 4329   4.108  34.425   7.950
 3353POPC   C4B 4330   4.113  34.399   7.650
 3354POPC   NC3 4331  23.745  21.353   9.450
 3354POPC   PO4 4332  23.709  21.432   9.150
 3354POPC   GL1 4333  23.705  21.364   8.850
 3354POPC   GL2 4334  23.745  21.541   8.850
 3354POPC   C1A 4335  23.729  21.419   8.550
 3354POPC   D2A 4336  23.698  21.368   8.250
 3354POPC   C3A 4337  23.678  21.414   7.950
 3354POPC   C4A 4338  23.695  21.363   7.650
 3354POPC   C1B 4339  23.787  21.558   8.550
 3354POPC   C2B 4340  23.795  21.581   8.250
 3354POPC   C3B 4341  23.838  21.628   7.950
 3354POPC   C4B 4342  23.793  21.636   7.650
 3355POPC   NC3 4343  23.670  34.562   9.450
 3355POPC   PO4 4344  23.694  34.553   9.150
 3355POPC   GL1 4345  23.719  34.564   8.850
 3355POPC   GL2 4346  23.756  34.420   8.850
 3355POPC   C1A 4347  23.670  34.614   8.550
 3355POPC   D2A 4348  23.736  34.625   8.250
 3355POPC   C3A 4349  23.723  34.575   7.950
 3355POPC   C4A 4350  23.738  34.593   7.650
 3355POPC   C1B 4351  23.693  34.320   8.550
 3355POPC   C2B 4352  23.745  34.355   8.250
 3355POPC   C3B 4353  23.768  34.373   7.950
 3355POPC   C4B 4354  23.755  34.331   7.650
 3356POPC   NC3 4355  10.552   2.769   9.450
 3356POPC   PO4 4356  10.496   2.779   9.150
 3356POPC   GL1 4357  10.566   2.782   8.850
 3356POPC   GL2 4358  10.584   2.680   8.850
 3356POPC   C1A 4359  10.493   2.729   8.550
 3356POPC   D2A 4360  10.561   2.752   8.250
 3356POPC   C3A 4361  10.525   2.813   7.950
 3356POPC   C4A 4362  10.507   2.719   7.650
 3356POPC   C1B 4363  10.690   2.565   8.550
 3356POPC   C2B 4364  10.723   2.579   8.250
 3356POPC   C3B 4365  10.735   2.629   7.950
 3356POPC   C4B 4366  10.734   2.572   7.650
 3357POPC   NC3 4367  19.790   0.472   9.450
 3357POPC   PO4 4368  19.807   0.471   9.150
 3357POPC   GL1 4369  19.870   0.448   8.850
 3357POPC   GL2 4370  19.692   0.546   8.850
 3357POPC   C1A 4371  19.794   0.472   8.550
 3357POPC   D2A 4372  19.823   0.391   8.250
 3357POPC   C3A 4373  19.873   0.465   7.950
 3357POPC   C4A 4374  19.826   0.427   7.650
 3357POPC   C1B 4375  19.655   0.542   8.550
 3357POPC   C2B 4376  19.586   0.607   8.250
 3357POPC   C3B 4377  19.656   0.609   7.950
 3357POPC   C4B 4378  19.584   0.612   7.650
 3358POPC   NC3 4379  10.484  15.926   9.450
 3358POPC   PO4 4380  10.574  15.949   9.150
 3358POPC   GL1 4381  10.538  15.918   8.850
 3358POPC   GL2 4382  10.627  15.918   8.850
 3358POPC   C1A 4383  10.484  15.918   8.550
 3358POPC   D2A 4384  10.510  15.915   8.250
 3358POPC   C3A 4385  10.529  15.913   7.950
 3358POPC   C4A 4386  10.478  15.993   7.650
 3358POPC   C1B 4387  10.739  15.966   8.550
 3358POPC   C2B 4388  10.806  15.947   8.250
 3358POPC   C3B 4389  10.730  15.953   7.950
 3358POPC   C4B 4390  10.803  16.004   7.650
 3359POPC   NC3 4391  42.314  40.046   9.450
 3359POPC   PO4 4392  42.369  40.010   9.150
 3359POPC   GL1 4393  42.289  40.011   8.850
 3359POPC   GL2 4394  42.390  39.921   8.850
 3359POPC   C1A 4395  42.376  40.028   8.550
 3359POPC   D2A 4396  42.343  39.990   8.250
 3359POPC   C3A 4397  42.330  39.976   7.950
 3359POPC   C4A 4398  42.325  40.049   7.650
 3359POPC   C1B 4399  42.373  39.733   8.550
 3359POPC   C2B 4400  42.388  39.773   8.250
 3359POPC   C3B 4401  42.464  39.768   7.950
 3359POPC   C4B 4402  42.459  39.742   7.650
 3360POPC   NC3 4403  40.809  35.337   9.450
 3360POPC   PO4 4404  40.754  35.363   9.150
 3360POPC   GL1 4405  40.830  35.397   8.850
 3360POPC   GL2 4406  40.802  35.233   8.850
 3360POPC   C1A 4407  40.739  35.309   8.550
 3360POPC   D2A 4408  40.786  35.332   8.250
 3360POPC   C3A 4409  40.739  35.363   7.950
 3360POPC   C4A 4410  40.830  35.376   7.650
 3360POPC   C1B 4411  40.891  35.106   8.550
 3360POPC   C2B 4412  40.885  35.110   8.250
 3360POPC   C3B 4413  40.889  35.077   7.950
 3360POPC   C4B 4414  40.873  35.067   7.650
 3361POPC   NC3 4415  33.054  14.375   9.450
 3361POPC   PO4 4416  33.003  14.385   9.150
 3361POPC   GL1 4417  33.009  14.415   8.850
 3361POPC   GL2 4418  33.094  14.257   8.850
 3361POPC   C1A 4419  33.026  14.387   8.550
 3361POPC   D2A 4420  32.995  14.389   8.250
 3361POPC   C3A 4421  33.024  14.426   7.950
 3361POPC   C4A 4422  33.073  14.358   7.650
 3361POPC   C1B 4423  33.177  14.197   8.550
 3361POPC   C2B 4424  33.164  14.232   8.250
 3361POPC   C3B 4425  33.118  14.156   7.950
 3361POPC   C4B 4426  33.123  14.212   7.650
 3362POPC   NC3 4427  41.536  16.734   9.450
 3362POPC   PO4 4428  41.593  16.756   9.150
 3362POPC   GL1 4429  41.605  16.777   8.850
 3362POPC   GL2 4430  41.705  16.834   8.850
 3362POPC   C1A 4431  41.537  16.764   8.550
 3362POPC   D2A 4432  41.515  16.698   8.250
 3362POPC   C3A 4433  41.602  16.708   7.950
 3362POPC   C4A 4434  41.560  16.774   7.650
 3362POPC   C1B 4435  41.735  16.894   8.550
 3362POPC   C2B 4436  41.766  16.892   8.250
 3362POPC   C3B 4437  41.753  16.868   7.950
 3362POPC   C4B 4438  41.809  16.832   7.650
 3363POPC   NC3 4439  29.124  43.844   9.450
 3363POPC   PO4 4440  29.154  43.883   9.150
 3363POPC   GL1 4441  29.132  43.857   8.850
 3363POPC   GL2 4442  29.058  44.024   8.850
 3363POPC   C1A 4443  29.161  43.894   8.550
 3363POPC   D2A 4444  29.194  43.895   8.250
 3363POPC   C3A 4445  29.133  43.839   7.950
 3363POPC   C4A 4446  29.191  43.862   7.650
 3363POPC   C1B 4447  28.928  44.065   8.550
 3363POPC   C2B 4448  28.981  44.089   8.250
 3363POPC   C3B 4449  28.935  44.078   7.950
 3363POPC   C4B 4450  28.937  44.100   7.650
 3364POPC   NC3 4451  29.873  29.112   9.450
 3364POPC   PO4 4452  29.896  29.106   9.150
 3364POPC   GL1 4453  29.935  29.193   8.850
 3364POPC   GL2 4454  29.773  29.167   8.850
 3364POPC   C1A 4455  29.896  29.097   8.550
 3364POPC   D2A 4456  29.936  29.178   8.250
 3364POPC   C3A 4457  29.952  29.148   7.950
 3364POPC   C4A 4458  29.929  29.153   7.650
 3364POPC   C1B 4459  29.704  29.091   8.550
 3364POPC   C2B 4460  29.648  29.056   8.250
 3364POPC   C3B 4461  29.670  29.144   7.950
 3364POPC   C4B 4462  29.659  29.075   7.650
 3365POPC   NC3 4463  31.515  37.683   9.450
 3365POPC   PO4 4464  31.520  37.727   9.150
 3365POPC   GL1 4465  31.425  37.723   8.850
 3365POPC   GL2 4466  31.384  37.529   8.850
 3365POPC   C1A 4467  31.472  37.636   8.550
 3365POPC   D2A 4468  31.474  37.633   8.250
 3365POPC   C3A 4469  31.440  37.697   7.950
 3365POPC   C4A 4470  31.477  37.691   7.650
 3365POPC   C1B 4471  31.303  37.512   8.550
 3365POPC   C2B 4472  31.355  37.454   8.250
 3365POPC   C3B 4473  31.372  37.504   7.950
 3365POPC   C4B 4474  31.340  37.498   7.650
 3366POPC   NC3 4475  29.927  28.405   9.450
 3366POPC   PO4 4476  29.958  28.354   9.150
 3366POPC   GL1 4477  29.961  28.391   8.850
 3366POPC   GL2 4478  30.016  28.425   8.850
 3366POPC   C1A 4479  29.927  28.407   8.550
 3366POPC   D2A 4480  29.872  28.387   8.250
 3366POPC   C3A 4481  29.943  28.394   7.950
 3366POPC   C4A 4482  29.901  28.345   7.650
 3366POPC   C1B 4483  30.131  28.475   8.550
 3366POPC   C2B 4484  30.159  28.421   8.250
 3366POPC   C3B 4485  30.181  28.436   7.950
 3366POPC   C4B 4486  30.120  28.480   7.650
 3367POPC   NC3 4487  40.738  18.295   9.450
 3367POPC   PO4 4488  40.758  18.277   9.150
 3367POPC   GL1 4489  40.826  18.279   8.850
 3367POPC   GL2 4490  40.899  18.404   8.850
 3367POPC   C1A 4491  40.793  18.293   8.550
 3367POPC   D2A 4492  40.829  18.267   8.250
 3367POPC   C3A 4493  40.733  18.316   7.950
 3367POPC   C4A 4494  40.802  18.322   7.650
 3367POPC   C1B 4495  40.941  18.469   8.550
 3367POPC   C2B 4496  40.900  18.495   8.250
 3367POPC   C3B 4497  40.886  18.444   7.950
 3367POPC   C4B 4498  40.935  18.485   7.650
 3368POPC   NC3 4499  12.872  42.368   9.450
 3368POPC   PO4 4500  12.815  42.291   9.150
 3368POPC   GL1 4501  12.843  42.352   8.850
 3368POPC   GL2 4502  12.745  42.401   8.850
 3368POPC   C1A 4503  12.859  42.339   8.550
 3368POPC   D2A 4504  12.870  42.368   8.250
 3368POPC   C3A 4505  12.834  42.330   7.950
 3368POPC   C4A 4506  12.879  42.307   7.650
 3368POPC   C1B 4507  12.641  42.473   8.550
 3368POPC   C2B 4508  12.617  42.501   8.250
 3368POPC   C3B 4509  12.604  42.471   7.950
 3368POPC   C4B 4510  12.646  42.437   7.650
 3369POPC   NC3 4511  39.963  22.198   9.450
 3369POPC   PO4 4512  40.057  22.113   9.150
 3369POPC   GL1 4513  40.056  22.205   8.850
 3369POPC   GL2 4514  40.050  22.296   8.850
 3369POPC   C1A 4515  40.052  22.209   8.550
 3369POPC   D2A 4516  39.959  22.148   8.250
 3369POPC   C3A 4517  39.988  22.184   7.950
 3369POPC   C4A 4518  39.958  22.205   7.650
 3369POPC   C1B 4519  40.190  22.337   8.550
 3369POPC   C2B 4520  40.146  22.348   8.250
 3369POPC   C3B 4521  40.094  22.422   7.950
 3369POPC   C4B 4522  40.158  22.418   7.650
 3370POPC   NC3 4523  21.391  41.606   9.450
 3370POPC   PO4 4524  21.349  41.562   9.150
 3370POPC   GL1 4525  21.341  41.525   8.850
 3370POPC   GL2 4526  21.314  41.522   8.850
 3370POPC   C1A 4527  21.375  41.510   8.550
 3370POPC   D2A 4528  21.362  41.537   8.250
 3370POPC   C3A 4529  21.392  41.603   7.950
 3370POPC   C4A 4530  21.363  41.520   7.650
 3370POPC   C1B 4531  21.217  41.386   8.550
 3370POPC   C2B 4532  21.172  41.366   8.250
 3370POPC   C3B 4533  21.178  41.415   7.950
 3370POPC   C4B 4534  21.185  41.425   7.650
 3371POPC   NC3 4535   2.029   3.497   9.450
 3371POPC   PO4 4536   1.964   3.543   9.150
 3371POPC   GL1 4537   2.021   3.561   8.850
 3371POPC   GL2 4538   1.971   3.458   8.850
 3371POPC   C1A 4539   2.025   3.582   8.550
 3371POPC   D2A 4540   2.017   3.532   8.250
 3371POPC   C3A 4541   2.033   3.528   7.950
 3371POPC   C4A 4542   2.036   3.561   7.650
 3371POPC   C1B 4543   1.971   3.276   8.550
 3371POPC   C2B 4544   1.928   3.350   8.250
 3371POPC   C3B 4545   1.916   3.269   7.950
 3371POPC   C4B 4546   1.960   3.260   7.650
 3372POPC   NC3 4547  12.859  12.037   9.450
 3372POPC   PO4 4548  12.839  12.124   9.150
 3372POPC   GL1 4549  12.823  12.065   8.850
 3372POPC   GL2 4550  12.939  12.065   8.850
 3372POPC   C1A 4551  12.853  12.063   8.550
 3372POPC   D2A 4552  12.882  12.040   8.250
 3372POPC   C3A 4553  12.836  12.096   7.950
 3372POPC   C4A 4554  12.844  12.084   7.650
 3372POPC   C1B 4555  13.051  12.095   8.550
 3372POPC   C2B 4556  13.061  12.144   8.250
 3372POPC   C3B 4557  13.079  12.143   7.950
 3372POPC   C4B 4558  13.112  12.142   7.650
 3373POPC   NC3 4559  39.207  10.565   9.450
 3373POPC   PO4 4560  39.203  10.510   9.150
 3373POPC   GL1 4561  39.263  10.492   8.850
 3373POPC   GL2 4562  39.230  10.380   8.850
 3373POPC   C1A 4563  39.229  10.494   8.550
 3373POPC   D2A 4564  39.261  10.535   8.250
 3373POPC   C3A 4565  39.258  10.509   7.950
 3373POPC   C4A 4566  39.191  10.494   7.650
 3373POPC   C1B 4567  39.233  10.255   8.550
 3373POPC   C2B 4568  39.196  10.324   8.250
 3373POPC   C3B 4569  39.258  10.272   7.950
 3373POPC   C4B 4570  39.255  10.266   7.650
 3374POPC   NC3 4571  26.848  41.583   9.450
 3374POPC   PO4 4572  26.830  41.546   9.150
 3374POPC   GL1 4573  26.852  41.512   8.850
 3374POPC   GL2 4574  26.891  41.595   8.850
 3374POPC   C1A 4575  26.830  41.540   8.550
 3374POPC   D2A 4576  26.798  41.529   8.250
 3374POPC   C3A 4577  26.808  41.531   7.950
 3374POPC   C4A 4578  26.826  41.552   7.650
 3374POPC   C1B 4579  27.089  41.615   8.550
 3374POPC   C2B 4580  27.109  41.586   8.250
 3374POPC   C3B 4581  27.096  41.590   7.950
 3374POPC   C4B 4582  27.060  41.598   7.650
 3375POPC   NC3 4583  31.477   1.215   9.450
 3375POPC   PO4 4584  31.492   1.179   9.150
 3375POPC   GL1 4585  31.448   1.261   8.850
 3375POPC   GL2 4586  31.317   1.221   8.850
 3375POPC   C1A 4587  31.520   1.254   8.550
 3375POPC   D2A 4588  31.455   1.186   8.250
 3375POPC   C3A 4589  31.509   1.183   7.950
 3375POPC   C4A 4590  31.484   1.212   7.650
 3375POPC   C1B 4591  31.261   1.343   8.550
 3375POPC   C2B 4592  31.189   1.303   8.250
 3375POPC   C3B 4593  31.248   1.254   7.950
 3375POPC   C4B 4594  31.271   1.282   7.650
 3376POPC   NC3 4595  36.117   2.024   9.450
 3376POPC   PO4 4596  36.090   1.945   9.150
 3376POPC   GL1 4597  36.140   2.019   8.850
 3376POPC   GL2 4598  36.060   1.839   8.850
 3376POPC   C1A 4599  36.105   2.007   8.550
 3376POPC   D2A 4600  36.159   1.942   8.250
 3376POPC   C3A 4601  36.154   1.967   7.950
 3376POPC   C4A 4602  36.108   1.973   7.650
 3376POPC   C1B 4603  36.022   1.792   8.550
 3376POPC   C2B 4604  36.041   1.755   8.250
 3376POPC   C3B 4605  35.957   1.783   7.950
 3376POPC   C4B 4606  35.978   1.820   7.650
 3377POPC   NC3 4607  29.904  37.690   9.450
 3377POPC   PO4 4608  29.899  37.707   9.150
 3377POPC   GL1 4609  29.911  37.679   8.850
 3377POPC   GL2 4610  29.952  37.789   8.850
 3377POPC   C1A 4611  29.931  37.673   8.550
 3377POPC   D2A 4612  29.903  37.695   8.250
 3377POPC   C3A 4613  29.887  37.680   7.950
 3377POPC   C4A 4614  29.946  37.726   7.650
 3377POPC   C1B 4615  29.922  37.901   8.550
 3377POPC   C2B 4616  29.979  37.887   8.250
 3377POPC   C3B 4617  29.987  37.962   7.950
 3377POPC   C4B 4618  29.968  37.904   7.650
 3378POPC   NC3 4619   6.600  36.952   9.450
 3378POPC   PO4 4620   6.603  36.877   9.150
 3378POPC   GL1 4621   6.651  36.864   8.850
 3378POPC   GL2 4622   6.529  36.845   8.850
 3378POPC   C1A 4623   6.668  36.896   8.550
 3378POPC   D2A 4624   6.622  36.880   8.250
 3378POPC   C3A 4625   6.615  36.950   7.950
 3378POPC   C4A 4626   6.678  36.895   7.650
 3378POPC   C1B 4627   6.387  36.722   8.550
 3378POPC   C2B 4628   6.391  36.746   8.250
 3378POPC   C3B 4629   6.449  36.738   7.950
 3378POPC   C4B 4630   6.405  36.756   7.650
 3379POPC   NC3 4631  39.254  12.083   9.450
 3379POPC   PO4 4632  39.278  12.095   9.150
 3379POPC   GL1 4633  39.189  12.067   8.850
 3379POPC   GL2 4634  39.161  12.135   8.850
 3379POPC   C1A 4635  39.196  12.039   8.550
 3379POPC   D2A 4636  39.258  12.051   8.250
 3379POPC   C3A 4637  39.260  12.126   7.950
 3379POPC   C4A 4638  39.229  12.126   7.650
 3379POPC   C1B 4639  39.002  12.172   8.550
 3379POPC   C2B 4640  38.996  12.238   8.250
 3379POPC   C3B 4641  39.020  12.192   7.950
 3379POPC   C4B 4642  39.049  12.214   7.650
 3380POPC   NC3 4643  14.443   9.715   9.450
 3380POPC   PO4 4644  14.450   9.784   9.150
 3380POPC   GL1 4645  14.360   9.793   8.850
 3380POPC   GL2 4646  14.371   9.626   8.850
 3380POPC   C1A 4647  14.452   9.702   8.550
 3380POPC   D2A 4648  14.368   9.794   8.250
 3380POPC   C3A 4649  14.445   9.743   7.950
 3380POPC   C4A 4650  14.433   9.760   7.650
 3380POPC   C1B 4651  14.444   9.450   8.550
 3380POPC   C2B 4652  14.435   9.486   8.250
 3380POPC   C3B 4653  14.415   9.544   7.950
 3380POPC   C4B 4654  14.468   9.531   7.650
 3381POPC   NC3 4655  17.485  35.341   9.450
 3381POPC   PO4 4656  17.511  35.372   9.150
 3381POPC   GL1 4657  17.531  35.328   8.850
 3381POPC   GL2 4658  17.385  35.418   8.850
 3381POPC   C1A 4659  17.494  35.397   8.550
 3381POPC   D2A 4660  17.546  35.320   8.250
 3381POPC   C3A 4661  17.551  35.398   7.950
 3381POPC   C4A 4662  17.557  35.375   7.650
 3381POPC   C1B 4663  17.318  35.581   8.550
 3381POPC   C2B 4664  17.318  35.584   8.250
 3381POPC   C3B 4665  17.388  35.572   7.950
 3381POPC   C4B 4666  17.349  35.565   7.650
 3382POPC   NC3 4667   8.243  37.686   9.450
 3382POPC   PO4 4668   8.177  37.663   9.150
 3382POPC   GL1 4669   8.240  37.717   8.850
 3382POPC   GL2 4670   8.102  37.761   8.850
 3382POPC   C1A 4671   8.157  37.722   8.550
 3382POPC   D2A 4672   8.232  37.662   8.250
 3382POPC   C3A 4673   8.184  37.699   7.950
 3382POPC   C4A 4674   8.219  37.644   7.650
 3382POPC   C1B 4675   7.921  37.822   8.550
 3382POPC   C2B 4676   7.937  37.762   8.250
 3382POPC   C3B 4677   7.917  37.757   7.950
 3382POPC   C4B 4678   8.013  37.800   7.650
 3383POPC   NC3 4679   8.940  14.394   9.450
 3383POPC   PO4 4680   8.965  14.366   9.150
 3383POPC   GL1 4681   9.006  14.412   8.850
 3383POPC   GL2 4682   8.900  14.280   8.850
 3383POPC   C1A 4683   8.939  14.418   8.550
 3383POPC   D2A 4684   8.996  14.405   8.250
 3383POPC   C3A 4685   8.940  14.408   7.950
 3383POPC   C4A 4686   9.019  14.413   7.650
 3383POPC   C1B 4687   8.829  14.200   8.550
 3383POPC   C2B 4688   8.920  14.154   8.250
 3383POPC   C3B 4689   8.856  14.215   7.950
 3383POPC   C4B 4690   8.827  14.202   7.650
 3384POPC   NC3 4691   5.050  15.930   9.450
 3384POPC   PO4 4692   5.097  15.988   9.150
 3384POPC   GL1 4693   5.071  15.987   8.850
 3384POPC   GL2 4694   5.179  15.866   8.850
 3384POPC   C1A 4695   5.119  15.944   8.550
 3384POPC   D2A 4696   5.111  15.989   8.250
 3384POPC   C3A 4697   5.087  15.973   7.950
 3384POPC   C4A 4698   5.060  15.991   7.650
 3384POPC   C1B 4699   5.202  15.794   8.550
 3384POPC   C2B 4700   5.270  15.736   8.250
 3384POPC   C3B 4701   5.208  15.713   7.950
 3384POPC   C4B 4702   5.282  15.791   7.650
 3385POPC   NC3 4703  36.093  13.636   9.450
 3385POPC   PO4 4704  36.151  13.588   9.150
 3385POPC   GL1 4705  36.175  13.649   8.850
 3385POPC   GL2 4706  36.032  13.637   8.850
 3385POPC   C1A 4707  36.153  13.626   8.550
 3385POPC   D2A 4708  36.150  13.605   8.250
 3385POPC   C3A 4709  36.131  13.672   7.950
 3385POPC   C4A 4710  36.114  13.635   7.650
 3385POPC   C1B 4711  35.908  13.747   8.550
 3385POPC   C2B 4712  35.918  13.737   8.250
 3385POPC   C3B 4713  35.902  13.713   7.950
 3385POPC   C4B 4714  35.949  13.756   7.650
 3386POPC   NC3 4715  36.916  19.814   9.450
 3386POPC   PO4 4716  36.953  19.800   9.150
 3386POPC   GL1 4717  36.857  19.787   8.850
 3386POPC   GL2 4718  36.975  19.708   8.850
 3386POPC   C1A 4719  36.898  19.843   8.550
 3386POPC   D2A 4720  36.926  19.874   8.250
 3386POPC   C3A 4721  36.917  19.833   7.950
 3386POPC   C4A 4722  36.855  19.853   7.650
 3386POPC   C1B 4723  36.995  19.628   8.550
 3386POPC   C2B 4724  37.053  19.574   8.250
 3386POPC   C3B 4725  37.042  19.607   7.950
 3386POPC   C4B 4726  37.016  19.634   7.650
 3387POPC   NC3 4727   5.837  33.066   9.450
 3387POPC   PO4 4728   5.884  33.004   9.150
 3387POPC   GL1 4729   5.838  33.058   8.850
 3387POPC   GL2 4730   6.008  33.087   8.850
 3387POPC   C1A 4731   5.914  33.025   8.550
 3387POPC   D2A 4732   5.893  32.985   8.250
 3387POPC   C3A 4733   5.905  33.007   7.950
 3387POPC   C4A 4734   5.888  33.013   7.650
 3387POPC   C1B 4735   6.141  33.069   8.550
 3387POPC   C2B 4736   6.070  33.037   8.250
 3387POPC   C3B 4737   6.065  33.115   7.950
 3387POPC   C4B 4738   6.140  33.064   7.650
 3388POPC   NC3 4739  12.854   3.511   9.450
 3388POPC   PO4 4740  12.826   3.551   9.150
 3388POPC   GL1 4741  12.849   3.558   8.850
 3388POPC   GL2 4742  12.779   3.631   8.850
 3388POPC   C1A 4743  12.849   3.560   8.550
 3388POPC   D2A 4744  12.821   3.513   8.250
 3388POPC   C3A 4745  12.896   3.586   7.950
 3388POPC   C4A 4746  12.893   3.495   7.650
 3388POPC   C1B 4747  12.602   3.639   8.550
 3388POPC   C2B 4748  12.671   3.697   8.250
 3388POPC   C3B 4749  12.643   3.658   7.950
 3388POPC   C4B 4750  12.609   3.647   7.650
 3389POPC   NC3 4751  40.033  34.542   9.450
 3389POPC   PO4 4752  40.048  34.547   9.150
 3389POPC   GL1 4753  39.999  34.589   8.850
 3389POPC   GL2 4754  40.072  34.438   8.850
 3389POPC   C1A 4755  40.014  34.611   8.550
 3389POPC   D2A 4756  39.963  34.597   8.250
 3389POPC   C3A 4757  40.047  34.604   7.950
 3389POPC   C4A 4758  40.005  34.589   7.650
 3389POPC   C1B 4759  40.082  34.332   8.550
 3389POPC   C2B 4760  40.098  34.336   8.250
 3389POPC   C3B 4761  40.173  34.378   7.950
 3389POPC   C4B 4762  40.111  34.365   7.650
 3390POPC   NC3 4763  29.184  27.578   9.450
 3390POPC   PO4 4764  29.124  27.586   9.150
 3390POPC   GL1 4765  29.181  27.638   8.850
 3390POPC   GL2 4766  29.245  27.472   8.850
 3390POPC   C1A 4767  29.160  27.626   8.550
 3390POPC   D2A 4768  29.149  27.624   8.250
 3390POPC   C3A 4769  29.194  27.636   7.950
 3390POPC   C4A 4770  29.163  27.549   7.650
 3390POPC   C1B 4771  29.321  27.448   8.550
 3390POPC   C2B 4772  29.338  27.461   8.250
 3390POPC   C3B 4773  29.312  27.447   7.950
 3390POPC   C4B 4774  29.355  27.433   7.650
 3391POPC   NC3 4775   7.454  40.748   9.450
 3391POPC   PO4 4776   7.410  40.751   9.150
 3391POPC   GL1 4777   7.379  40.776   8.850
 3391POPC   GL2 4778   7.397  40.691   8.850
 3391POPC   C1A 4779   7.383  40.803   8.550
 3391POPC   D2A 4780   7.374  40.738   8.250
 3391POPC   C3A 4781   7.407  40.818   7.950
 3391POPC   C4A 4782   7.448  40.830   7.650
 3391POPC   C1B 4783   7.313  40.562   8.550
 3391POPC   C2B 4784   7.284  40.581   8.250
 3391POPC   C3B 4785   7.300  40.543   7.950
 3391POPC   C4B 4786   7.284  40.568   7.650
 3392POPC   NC3 4787  25.258  20.605   9.450
 3392POPC   PO4 4788  25.259  20.577   9.150
 3392POPC   GL1 4789  25.234  20.600   8.850
 3392POPC   GL2 4790  25.405  20.704   8.850
 3392POPC   C1A 4791  25.244  20.636   8.550
 3392POPC   D2A 4792  25.221  20.563   8.250
 3392POPC   C3A 4793  25.262  20.587   7.950
 3392POPC   C4A 4794  25.312  20.583   7.650
 3392POPC   C1B 4795  25.507  20.770   8.550
 3392POPC   C2B 4796  25.521  20.737   8.250
 3392POPC   C3B 4797  25.445  20.739   7.950
 3392POPC   C4B 4798  25.488  20.760   7.650
 3393POPC   NC3 4799  36.892  42.365   9.450
 3393POPC   PO4 4800  36.915  42.335   9.150
 3393POPC   GL1 4801  36.926  42.347   8.850
 3393POPC   GL2 4802  36.991  42.463   8.850
 3393POPC   C1A 4803  36.927  42.333   8.550
 3393POPC   D2A 4804  36.935  42.325   8.250
 3393POPC   C3A 4805  36.869  42.296   7.950
 3393POPC   C4A 4806  36.897  42.365   7.650
 3393POPC   C1B 4807  37.104  42.540   8.550
 3393POPC   C2B 4808  37.085  42.529   8.250
 3393POPC   C3B 4809  37.065  42.493   7.950
 3393POPC   C4B 4810  37.038  42.493   7.650
 3394POPC   NC3 4811  19.842   7.448   9.450
 3394POPC   PO4 4812  19.845   7.458   9.150
 3394POPC   GL1 4813  19.881   7.386   8.850
 3394POPC   GL2 4814  19.853   7.528   8.850
 3394POPC   C1A 4815  19.829   7.404   8.550
 3394POPC   D2A 4816  19.797   7.469   8.250
 3394POPC   C3A 4817  19.796   7.412   7.950
 3394POPC   C4A 4818  19.831   7.451   7.650
 3394POPC   C1B 4819  19.837   7.679   8.550
 3394POPC   C2B 4820  19.807   7.655   8.250
 3394POPC   C3B 4821  19.861   7.699   7.950
 3394POPC   C4B 4822  19.837   7.629   7.650
 3395POPC   NC3 4823  21.375  12.122   9.450
 3395POPC   PO4 4824  21.396  12.108   9.150
 3395POPC   GL1 4825  21.391  12.034   8.850
 3395POPC   GL2 4826  21.425  11.960   8.850
 3395POPC   C1A 4827  21.342  12.092   8.550
 3395POPC   D2A 4828  21.354  12.056   8.250
 3395POPC   C3A 4829  21.397  12.032   7.950
 3395POPC   C4A 4830  21.412  12.075   7.650
 3395POPC   C1B 4831  21.452  11.820   8.550
 3395POPC   C2B 4832  21.418  11.847   8.250
 3395POPC   C3B 4833  21.369  11.820   7.950
 3395POPC   C4B 4834  21.408  11.813   7.650
 3396POPC   NC3 4835   5.058  19.019   9.450
 3396POPC   PO4 4836   5.049  19.053   9.150
 3396POPC   GL1 4837   5.049  19.055   8.850
 3396POPC   GL2 4838   5.159  19.098   8.850
 3396POPC   C1A 4839   5.103  19.044   8.550
 3396POPC   D2A 4840   5.095  19.030   8.250
 3396POPC   C3A 4841   5.082  19.056   7.950
 3396POPC   C4A 4842   5.115  19.106   7.650
 3396POPC   C1B 4843   5.290  19.131   8.550
 3396POPC   C2B 4844   5.281  19.222   8.250
 3396POPC   C3B 4845   5.309  19.128   7.950
 3396POPC   C4B 4846   5.324  19.152   7.650
 3397POPC   NC3 4847  24.531  32.204   9.450
 3397POPC   PO4 4848  24.448  32.257   9.150
 3397POPC   GL1 4849  24.441  32.204   8.850
 3397POPC   GL2 4850  24.383  32.236   8.850
 3397POPC   C1A 4851  24.496  32.205   8.550
 3397POPC   D2A 4852  24.534  32.241   8.250
 3397POPC   C3A 4853  24.488  32.265   7.950
 3397POPC   C4A 4854  24.478  32.215   7.650
 3397POPC   C1B 4855  24.289  32.265   8.550
 3397POPC   C2B 4856  24.276  32.313   8.250
 3397POPC   C3B 4857  24.215  32.293   7.950
 3397POPC   C4B 4858  24.295  32.343   7.650
 3398POPC   NC3 4859  44.699  44.665   9.450
 3398POPC   PO4 4860  44.618  44.646   9.150
 3398POPC   GL1 4861  44.633  44.686   8.850
 3398POPC   GL2 4862  44.547  44.697   8.850
 3398POPC   C1A 4863  44.674  44.648   8.550
 3398POPC   D2A 4864  44.653  44.708   8.250
 3398POPC   C3A 4865  44.636  44.712   7.950
 3398POPC   C4A 4866  44.700  44.690   7.650
 3398POPC   C1B 4867  44.478  44.837   8.550
 3398POPC   C2B 4868  44.468  44.858   8.250
 3398POPC   C3B 4869  44.488  44.765   7.950
 3398POPC   C4B 4870  44.490  44.795   7.650
 3399POPC   NC3 4871   8.182   9.728   9.450
 3399POPC   PO4 4872   8.214   9.788   9.150
 3399POPC   GL1 4873   8.227   9.736   8.850
 3399POPC   GL2 4874   8.163   9.847   8.850
 3399POPC   C1A 4875   8.234   9.742   8.550
 3399POPC   D2A 4876   8.186   9.734   8.250
 3399POPC   C3A 4877   8.185   9.758   7.950
 3399POPC   C4A 4878   8.165   9.770   7.650
 3399POPC   C1B 4879   8.225  10.011   8.550
 3399POPC   C2B 4880   8.190   9.992   8.250
 3399POPC   C3B 4881   8.239  10.014   7.950
 3399POPC   C4B 4882   8.231  10.029   7.650
 3400POPC   NC3 4883  19.023  17.545   9.450
 3400POPC   PO4 4884  19.074  17.496   9.150
 3400POPC   GL1 4885  19.020  17.546   8.850
 3400POPC   GL2 4886  19.226  17.492   8.850
 3400POPC   C1A 4887  19.074  17.544   8.550
 3400POPC   D2A 4888  19.107  17.541   8.250
 3400POPC   C3A 4889  19.081  17.502   7.950
 3400POPC   C4A 4890  19.056  17.481   7.650
 3400POPC   C1B 4891  19.268  17.478   8.550
 3400POPC   C2B 4892  19.263  17.436   8.250
 3400POPC   C3B 4893  19.282  17.439   7.950
 3400POPC   C4B 4894  19.276  17.458   7.650
 3401POPC   NC3 4895  35.375   8.979   9.450
 3401POPC   PO4 4896  35.401   8.997   9.150
 3401POPC   GL1 4897  35.392   8.985   8.850
 3401POPC   GL2 4898  35.512   8.971   8.850
 3401POPC   C1A 4899  35.330   8.927   8.550
 3401POPC   D2A 4900  35.321   8.951   8.250
 3401POPC   C3A 4901  35.355   8.977   7.950
 3401POPC   C4A 4902  35.361   8.951   7.650
 3401POPC   C1B 4903  35.570   9.022   8.550
 3401POPC   C2B 4904  35.574   9.065   8.250
 3401POPC   C3B 4905  35.587   9.048   7.950
 3401POPC   C4B 4906  35.557   8.986   7.650
 3402POPC   NC3 4907   0.429  41.576   9.450
 3402POPC   PO4 4908   0.458  41.571   9.150
 3402POPC   GL1 4909   0.478  41.527   8.850
 3402POPC   GL2 4910   0.322  41.637   8.850
 3402POPC   C1A 4911   0.401  41.573   8.550
 3402POPC   D2A 4912   0.399  41.588   8.250
 3402POPC   C3A 4913   0.480  41.541   7.950
 3402POPC   C4A 4914   0.412  41.540   7.650
 3402POPC   C1B 4915   0.245  41.766   8.550
 3402POPC   C2B 4916   0.273  41.764   8.250
 3402POPC   C3B 4917   0.290  41.748   7.950
 3402POPC   C4B 4918   0.277  41.791   7.650
 3403POPC   NC3 4919  23.727  43.091   9.450
 3403POPC   PO4 4920  23.703  43.127   9.150
 3403POPC   GL1 4921  23.753  43.083   8.850
 3403POPC   GL2 4922  23.764  43.211   8.850
 3403POPC   C1A 4923  23.688  43.065   8.550
 3403POPC   D2A 4924  23.735  43.101   8.250
 3403POPC   C3A 4925  23.711  43.156   7.950
 3403POPC   C4A 4926  23.731  43.076   7.650
 3403POPC   C1B 4927  23.785  43.374   8.550
 3403POPC   C2B 4928  23.799  43.335   8.250
 3403POPC   C3B 4929  23.883  43.366   7.950
 3403POPC   C4B 4930  23.811  43.361   7.650
 3404POPC   NC3 4931  13.645  12.094   9.450
 3404POPC   PO4 4932  13.664  12.108   9.150
 3404POPC   GL1 4933  13.611  12.120   8.850
 3404POPC   GL2 4934  13.543  11.952   8.850
 3404POPC   C1A 4935  13.598  12.101   8.550
 3404POPC   D2A 4936  13.627  12.061   8.250
 3404POPC   C3A 4937  13.634  12.027   7.950
 3404POPC   C4A 4938  13.608  12.074   7.650
 3404POPC   C1B 4939  13.576  11.874   8.550
 3404POPC   C2B 4940  13.525  11.842   8.250
 3404POPC   C3B 4941  13.539  11.825   7.950
 3404POPC   C4B 4942  13.552  11.886   7.650
 3405POPC   NC3 4943  14.385  27.604   9.450
 3405POPC   PO4 4944  14.452  27.618   9.150
 3405POPC   GL1 4945  14.371  27.563   8.850
 3405POPC   GL2 4946  14.275  27.627   8.850
 3405POPC   C1A 4947  14.400  27.597   8.550
 3405POPC   D2A 4948  14.391  27.560   8.250
 3405POPC   C3A 4949  14.440  27.632   7.950
 3405POPC   C4A 4950  14.358  27.642   7.650
 3405POPC   C1B 4951  14.210  27.716   8.550
 3405POPC   C2B 4952  14.245  27.740   8.250
 3405POPC   C3B 4953  14.205  27.788   7.950
 3405POPC   C4B 4954  14.190  27.765   7.650
 3406POPC   NC3 4955   5.875  25.217   9.450
 3406POPC   PO4 4956   5.910  25.264   9.150
 3406POPC   GL1 4957   5.907  25.273   8.850
 3406POPC   GL2 4958   6.001  25.200   8.850
 3406POPC   C1A 4959   5.908  25.299   8.550
 3406POPC   D2A 4960   5.838  25.286   8.250
 3406POPC   C3A 4961   5.862  25.217   7.950
 3406POPC   C4A 4962   5.877  25.276   7.650
 3406POPC   C1B 4963   6.143  25.243   8.550
 3406POPC   C2B 4964   6.109  25.264   8.250
 3406POPC   C3B 4965   6.147  25.222   7.950
 3406POPC   C4B 4966   6.081  25.266   7.650
 3407POPC   NC3 4967   7.456  40.025   9.450
 3407POPC   PO4 4968   7.388  40.036   9.150
 3407POPC   GL1 4969   7.412  39.994   8.850
 3407POPC   GL2 4970   7.459  39.892   8.850
 3407POPC   C1A 4971   7.448  40.025   8.550
 3407POPC   D2A 4972   7.424  39.991   8.250
 3407POPC   C3A 4973   7.444  40.041   7.950
 3407POPC   C4A 4974   7.423  40.053   7.650
 3407POPC   C1B 4975   7.452  39.736   8.550
 3407POPC   C2B 4976   7.428  39.730   8.250
 3407POPC   C3B 4977   7.480  39.741   7.950
 3407POPC   C4B 4978   7.461  39.742   7.650
 3408POPC   NC3 4979  24.466   7.386   9.450
 3408POPC   PO4 4980  24.468   7.375   9.150
 3408POPC   GL1 4981  24.496   7.460   8.850
 3408POPC   GL2 4982  24.566   7.324   8.850
 3408POPC   C1A 4983  24.452   7.410   8.550
 3408POPC   D2A 4984  24.492   7.398   8.250
 3408POPC   C3A 4985  24.446   7.402   7.950
 3408POPC   C4A 4986  24.492   7.461   7.650
 3408POPC   C1B 4987  24.652   7.161   8.550
 3408POPC   C2B 4988  24.608   7.154   8.250
 3408POPC   C3B 4989  24.596   7.212   7.950
 3408POPC   C4B 4990  24.652   7.152   7.650
 3409POPC   NC3 4991  20.638   8.190   9.450
 3409POPC   PO4 4992  20.613   8.231   9.150
 3409POPC   GL1 4993  20.574   8.149   8.850
 3409POPC   GL2 4994  20.662   8.279   8.850
 3409POPC   C1A 4995  20.631   8.237   8.550
 3409POPC   D2A 4996  20.631   8.220   8.250
 3409POPC   C3A 4997  20.656   8.218   7.950
 3409POPC   C4A 4998  20.585   8.209   7.650
 3409POPC   C1B 4999  20.619   8.479   8.550
 3409POPC   C2B 5000  20.599   8.433   8.250
 3409POPC   C3B 5001  20.651   8.440   7.950
 3409POPC   C4B 5002  20.675   8.406   7.650
 3410POPC   NC3 5003   7.456  35.329   9.450
 3410POPC   PO4 5004   7.464  35.362   9.150
 3410POPC   GL1 5005   7.416  35.349   8.850
 3410POPC   GL2 5006   7.551  35.295   8.850
 3410POPC   C1A 5007   7.441  35.315   8.550
 3410POPC   D2A 5008   7.391  35.335   8.250
 3410POPC   C3A 5009   7.451  35.339   7.950
 3410POPC   C4A 5010   7.446  35.305   7.650
 3410POPC   C1B 5011   7.683  35.242   8.550
 3410POPC   C2B 5012   7.646  35.278   8.250
 3410POPC   C3B 5013   7.635  35.212   7.950
 3410POPC   C4B 5014   7.642  35.220   7.650
 3411POPC   NC3 5015  20.636  10.517   9.450
 3411POPC   PO4 5016  20.646  10.499   9.150
 3411POPC   GL1 5017  20.647  10.527   8.850
 3411POPC   GL2 5018  20.569  10.576   8.850
 3411POPC   C1A 5019  20.622  10.493   8.550
 3411POPC   D2A 5020  20.640  10.549   8.250
 3411POPC   C3A 5021  20.600  10.572   7.950
 3411POPC   C4A 5022  20.588  10.526   7.650
 3411POPC   C1B 5023  20.458  10.678   8.550
 3411POPC   C2B 5024  20.505  10.690   8.250
 3411POPC   C3B 5025  20.465  10.680   7.950
 3411POPC   C4B 5026  20.468  10.773   7.650
 3412POPC   NC3 5027   8.991  23.748   9.450
 3412POPC   PO4 5028   8.928  23.756   9.150
 3412POPC   GL1 5029   9.008  23.687   8.850
 3412POPC   GL2 5030   8.800  23.707   8.850
 3412POPC   C1A 5031   8.992  23.736   8.550
 3412POPC   D2A 5032   8.944  23.698   8.250
 3412POPC   C3A 5033   8.961  23.747   7.950
 3412POPC   C4A 5034   8.974  23.756   7.650
 3412POPC   C1B 5035   8.677  23.668   8.550
 3412POPC   C2B 5036   8.762  23.730   8.250
 3412POPC   C3B 5037   8.745  23.640   7.950
 3412POPC   C4B 5038   8.727  23.662   7.650
 3413POPC   NC3 5039   7.396  24.513   9.450
 3413POPC   PO4 5040   7.374  24.500   9.150
 3413POPC   GL1 5041   7.443  24.524   8.850
 3413POPC   GL2 5042   7.353  24.623   8.850
 3413POPC   C1A 5043   7.459  24.513   8.550
 3413POPC   D2A 5044   7.446  24.503   8.250
 3413POPC   C3A 5045   7.429  24.464   7.950
 3413POPC   C4A 5046   7.397  24.455   7.650
 3413POPC   C1B 5047   7.333  24.695   8.550
 3413POPC   C2B 5048   7.355  24.724   8.250
 3413POPC   C3B 5049   7.322  24.687   7.950
 3413POPC   C4B 5050   7.311  24.665   7.650
 3414POPC   NC3 5051  30.688  29.901   9.450
 3414POPC   PO4 5052  30.736  29.933   9.150
 3414POPC   GL1 5053  30.692  29.941   8.850
 3414POPC   GL2 5054  30.794  29.918   8.850
 3414POPC   C1A 5055  30.733  29.885   8.550
 3414POPC   D2A 5056  30.724  29.882   8.250
 3414POPC   C3A 5057  30.672  29.889   7.950
 3414POPC   C4A 5058  30.704  29.942   7.650
 3414POPC   C1B 5059  30.921  29.811   8.550
 3414POPC   C2B 5060  30.929  29.802   8.250
 3414POPC   C3B 5061  30.941  29.806   7.950
 3414POPC   C4B 5062  30.970  29.852   7.650
 3415POPC   NC3 5063  29.964  22.958   9.450
 3415POPC   PO4 5064  29.933  22.916   9.150
 3415POPC   GL1 5065  29.971  22.973   8.850
 3415POPC   GL2 5066  29.969  22.789   8.850
 3415POPC   C1A 5067  29.926  22.965   8.550
 3415POPC   D2A 5068  29.883  22.916   8.250
 3415POPC   C3A 5069  29.949  22.978   7.950
 3415POPC   C4A 5070  29.953  22.916   7.650
 3415POPC   C1B 5071  29.942  22.653   8.550
 3415POPC   C2B 5072  29.919  22.644   8.250
 3415POPC   C3B 5073  29.994  22.723   7.950
 3415POPC   C4B 5074  29.958  22.697   7.650
 3416POPC   NC3 5075  40.030  18.309   9.450
 3416POPC   PO4 5076  40.018  18.239   9.150
 3416POPC   GL1 5077  40.004  18.241   8.850
 3416POPC   GL2 5078  40.021  18.162   8.850
 3416POPC   C1A 5079  39.985  18.293   8.550
 3416POPC   D2A 5080  39.999  18.258   8.250
 3416POPC   C3A 5081  39.996  18.268   7.950
 3416POPC   C4A 5082  40.052  18.324   7.650
 3416POPC   C1B 5083  40.013  18.024   8.550
 3416POPC   C2B 5084  40.019  18.053   8.250
 3416POPC   C3B 5085  40.002  18.060   7.950
 3416POPC   C4B 5086  40.014  18.014   7.650
 3417POPC   NC3 5087   2.726   3.557   9.450
 3417POPC   PO4 5088   2.734   3.515   9.150
 3417POPC   GL1 5089   2.733   3.508   8.850
 3417POPC   GL2 5090   2.879   3.601   8.850
 3417POPC   C1A 5091   2.771   3.500   8.550
 3417POPC   D2A 5092   2.730   3.556   8.250
 3417POPC   C3A 5093   2.774   3.527   7.950
 3417POPC   C4A 5094   2.745   3.534   7.650
 3417POPC   C1B 5095   2.956   3.639   8.550
 3417POPC   C2B 5096   3.045   3.584   8.250
 3417POPC   C3B 5097   3.012   3.664   7.950
 3417POPC   C4B 5098   3.032   3.674   7.650
 3418POPC   NC3 5099   0.403   2.006   9.450
 3418POPC   PO4 5100   0.397   2.031   9.150
 3418POPC   GL1 5101   0.472   2.035   8.850
 3418POPC   GL2 5102   0.510   2.071   8.850
 3418POPC   C1A 5103   0.395   1.955   8.550
 3418POPC   D2A 5104   0.482   2.030   8.250
 3418POPC   C3A 5105   0.441   1.977   7.950
 3418POPC   C4A 5106   0.469   2.037   7.650
 3418POPC   C1B 5107   0.544   2.259   8.550
 3418POPC   C2B 5108   0.507   2.188   8.250
 3418POPC   C3B 5109   0.508   2.247   7.950
 3418POPC   C4B 5110   0.510   2.229   7.650
 3419POPC   NC3 5111   4.293  29.919   9.450
 3419POPC   PO4 5112   4.320  29.923   9.150
 3419POPC   GL1 5113   4.288  29.874   8.850
 3419POPC   GL2 5114   4.183  29.892   8.850
 3419POPC   C1A 5115   4.280  29.931   8.550
 3419POPC   D2A 5116   4.275  29.940   8.250
 3419POPC   C3A 5117   4.329  29.879   7.950
 3419POPC   C4A 5118   4.307  29.933   7.650
 3419POPC   C1B 5119   4.092  29.964   8.550
 3419POPC   C2B 5120   4.048  30.001   8.250
 3419POPC   C3B 5121   4.087  29.975   7.950
 3419POPC   C4B 5122   4.108  29.984   7.650
 3420POPC   NC3 5123  33.030  19.869   9.450
 3420POPC   PO4 5124  33.004  19.839   9.150
 3420POPC   GL1 5125  33.070  19.876   8.850
 3420POPC   GL2 5126  32.873  19.948   8.850
 3420POPC   C1A 5127  33.024  19.805   8.550
 3420POPC   D2A 5128  33.070  19.795   8.250
 3420POPC   C3A 5129  32.977  19.793   7.950
 3420POPC   C4A 5130  33.015  19.805   7.650
 3420POPC   C1B 5131  32.855  19.958   8.550
 3420POPC   C2B 5132  32.792  20.011   8.250
 3420POPC   C3B 5133  32.805  19.946   7.950
 3420POPC   C4B 5134  32.778  20.002   7.650
 3421POPC   NC3 5135   6.595  40.045   9.450
 3421POPC   PO4 5136   6.601  40.019   9.150
 3421POPC   GL1 5137   6.678  40.044   8.850
 3421POPC   GL2 5138   6.500  40.058   8.850
 3421POPC   C1A 5139   6.650  40.045   8.550
 3421POPC   D2A 5140   6.678  40.025   8.250
 3421POPC   C3A 5141   6.604  39.961   7.950
 3421POPC   C4A 5142   6.598  40.015   7.650
 3421POPC   C1B 5143   6.425  40.035   8.550
 3421POPC   C2B 5144   6.408  40.017   8.250
 3421POPC   C3B 5145   6.369  40.034   7.950
 3421POPC   C4B 5146   6.443  39.968   7.650
 3422POPC   NC3 5147  17.464  41.560   9.450
 3422POPC   PO4 5148  17.527  41.583   9.150
 3422POPC   GL1 5149  17.492  41.540   8.850
 3422POPC   GL2 5150  17.541  41.674   8.850
 3422POPC   C1A 5151  17.515  41.552   8.550
 3422POPC   D2A 5152  17.482  41.535   8.250
 3422POPC   C3A 5153  17.527  41.541   7.950
 3422POPC   C4A 5154  17.497  41.550   7.650
 3422POPC   C1B 5155  17.479  41.850   8.550
 3422POPC   C2B 5156  17.514  41.797   8.250
 3422POPC   C3B 5157  17.477  41.786   7.950
 3422POPC   C4B 5158  17.538  41.853   7.650
 3423POPC   NC3 5159  23.664  36.948   9.450
 3423POPC   PO4 5160  23.700  36.883   9.150
 3423POPC   GL1 5161  23.751  36.865   8.850
 3423POPC   GL2 5162  23.773  36.982   8.850
 3423POPC   C1A 5163  23.694  36.943   8.550
 3423POPC   D2A 5164  23.670  36.888   8.250
 3423POPC   C3A 5165  23.724  36.922   7.950
 3423POPC   C4A 5166  23.724  36.931   7.650
 3423POPC   C1B 5167  23.759  37.124   8.550
 3423POPC   C2B 5168  23.846  37.169   8.250
 3423POPC   C3B 5169  23.771  37.142   7.950
 3423POPC   C4B 5170  23.817  37.183   7.650
 3424POPC   NC3 5171   3.577   7.377   9.450
 3424POPC   PO4 5172   3.495   7.441   9.150
 3424POPC   GL1 5173   3.572   7.455   8.850
 3424POPC   GL2 5174   3.419   7.316   8.850
 3424POPC   C1A 5175   3.580   7.373   8.550
 3424POPC   D2A 5176   3.577   7.408   8.250
 3424POPC   C3A 5177   3.583   7.387   7.950
 3424POPC   C4A 5178   3.586   7.456   7.650
 3424POPC   C1B 5179   3.350   7.237   8.550
 3424POPC   C2B 5180   3.346   7.269   8.250
 3424POPC   C3B 5181   3.352   7.243   7.950
 3424POPC   C4B 5182   3.376   7.263   7.650
 3425POPC   NC3 5183   6.659  22.185   9.450
 3425POPC   PO4 5184   6.680  22.152   9.150
 3425POPC   GL1 5185   6.671  22.211   8.850
 3425POPC   GL2 5186   6.759  22.191   8.850
 3425POPC   C1A 5187   6.640  22.182   8.550
 3425POPC   D2A 5188   6.684  22.172   8.250
 3425POPC   C3A 5189   6.638  22.204   7.950
 3425POPC   C4A 5190   6.687  22.155   7.650
 3425POPC   C1B 5191   6.936  22.177   8.550
 3425POPC   C2B 5192   6.929  22.200   8.250
 3425POPC   C3B 5193   6.880  22.227   7.950
 3425POPC   C4B 5194   6.937  22.145   7.650
 3426POPC   NC3 5195  15.226  20.564   9.450
 3426POPC   PO4 5196  15.143  20.572   9.150
 3426POPC   GL1 5197  15.145  20.629   8.850
 3426POPC   GL2 5198  15.149  20.527   8.850
 3426POPC   C1A 5199  15.170  20.617   8.550
 3426POPC   D2A 5200  15.157  20.593   8.250
 3426POPC   C3A 5201  15.130  20.626   7.950
 3426POPC   C4A 5202  15.213  20.617   7.650
 3426POPC   C1B 5203  15.072  20.322   8.550
 3426POPC   C2B 5204  15.119  20.349   8.250
 3426POPC   C3B 5205  15.109  20.374   7.950
 3426POPC   C4B 5206  15.087  20.341   7.650
 3427POPC   NC3 5207  43.877  16.742   9.450
 3427POPC   PO4 5208  43.852  16.736   9.150
 3427POPC   GL1 5209  43.912  16.721   8.850
 3427POPC   GL2 5210  43.894  16.818   8.850
 3427POPC   C1A 5211  43.898  16.702   8.550
 3427POPC   D2A 5212  43.884  16.764   8.250
 3427POPC   C3A 5213  43.843  16.770   7.950
 3427POPC   C4A 5214  43.887  16.698   7.650
 3427POPC   C1B 5215  43.933  16.925   8.550
 3427POPC   C2B 5216  43.935  16.988   8.250
 3427POPC   C3B 5217  43.952  16.922   7.950
 3427POPC   C4B 5218  43.932  16.960   7.650
 3428POPC   NC3 5219   7.434  16.697   9.450
 3428POPC   PO4 5220   7.458  16.732   9.150
 3428POPC   GL1 5221   7.438  16.768   8.850
 3428POPC   GL2 5222   7.315  16.740   8.850
 3428POPC   C1A 5223   7.430  16.778   8.550
 3428POPC   D2A 5224   7.375  16.707   8.250
 3428POPC   C3A 5225   7.430  16.765   7.950
 3428POPC   C4A 5226   7.415  16.704   7.650
 3428POPC   C1B 5227   7.170  16.666   8.550
 3428POPC   C2B 5228   7.181  16.685   8.250
 3428POPC   C3B 5229   7.149  16.662   7.950
 3428POPC   C4B 5230   7.156  16.683   7.650
 3429POPC   NC3 5231  27.565   8.204   9.450
 3429POPC   PO4 5232  27.615   8.170   9.150
 3429POPC   GL1 5233  27.629   8.172   8.850
 3429POPC   GL2 5234  27.715   8.255   8.850
 3429POPC   C1A 5235  27.588   8.232   8.550
 3429POPC   D2A 5236  27.605   8.195   8.250
 3429POPC   C3A 5237  27.608   8.204   7.950
 3429POPC   C4A 5238  27.596   8.183   7.650
 3429POPC   C1B 5239  27.805   8.251   8.550
 3429POPC   C2B 5240  27.853   8.256   8.250
 3429POPC   C3B 5241  27.853   8.304   7.950
 3429POPC   C4B 5242  27.848   8.315   7.650
 3430POPC   NC3 5243  30.677  15.197   9.450
 3430POPC   PO4 5244  30.719  15.173   9.150
 3430POPC   GL1 5245  30.648  15.217   8.850
 3430POPC   GL2 5246  30.623  15.148   8.850
 3430POPC   C1A 5247  30.659  15.203   8.550
 3430POPC   D2A 5248  30.671  15.131   8.250
 3430POPC   C3A 5249  30.681  15.199   7.950
 3430POPC   C4A 5250  30.679  15.216   7.650
 3430POPC   C1B 5251  30.430  15.080   8.550
 3430POPC   C2B 5252  30.448  15.115   8.250
 3430POPC   C3B 5253  30.464  15.076   7.950
 3430POPC   C4B 5254  30.454  15.046   7.650
 3431POPC   NC3 5255  17.466  13.633   9.450
 3431POPC   PO4 5256  17.517  13.656   9.150
 3431POPC   GL1 5257  17.494  13.614   8.850
 3431POPC   GL2 5258  17.366  13.671   8.850
 3431POPC   C1A 5259  17.555  13.661   8.550
 3431POPC   D2A 5260  17.549  13.617   8.250
 3431POPC   C3A 5261  17.554  13.629   7.950
 3431POPC   C4A 5262  17.523  13.587   7.650
 3431POPC   C1B 5263  17.267  13.671   8.550
 3431POPC   C2B 5264  17.297  13.718   8.250
 3431POPC   C3B 5265  17.221  13.657   7.950
 3431POPC   C4B 5266  17.289  13.681   7.650
 3432POPC   NC3 5267  10.479  15.226   9.450
 3432POPC   PO4 5268  10.535  15.211   9.150
 3432POPC   GL1 5269  10.516  15.201   8.850
 3432POPC   GL2 5270  10.544  15.287   8.850
 3432POPC   C1A 5271  10.477  15.171   8.550
 3432POPC   D2A 5272  10.523  15.219   8.250
 3432POPC   C3A 5273  10.514  15.150   7.950
 3432POPC   C4A 5274  10.525  15.138   7.650
 3432POPC   C1B 5275  10.470  15.458   8.550
 3432POPC   C2B 5276  10.468  15.449   8.250
 3432POPC   C3B 5277  10.462  15.384   7.950
 3432POPC   C4B 5278  10.526  15.471   7.650
 3433POPC   NC3 5279  19.084  43.877   9.450
 3433POPC   PO4 5280  19.103  43.926   9.150
 3433POPC   GL1 5281  19.090  43.845   8.850
 3433POPC   GL2 5282  18.951  43.968   8.850
 3433POPC   C1A 5283  19.089  43.930   8.550
 3433POPC   D2A 5284  19.098  43.936   8.250
 3433POPC   C3A 5285  19.076  43.872   7.950
 3433POPC   C4A 5286  19.100  43.862   7.650
 3433POPC   C1B 5287  18.857  44.042   8.550
 3433POPC   C2B 5288  18.866  44.079   8.250
 3433POPC   C3B 5289  18.880  44.059   7.950
 3433POPC   C4B 5290  18.946  44.091   7.650
 3434POPC   NC3 5291  43.099  10.490   9.450
 3434POPC   PO4 5292  43.085  10.569   9.150
 3434POPC   GL1 5293  43.070  10.493   8.850
 3434POPC   GL2 5294  43.053  10.443   8.850
 3434POPC   C1A 5295  43.144  10.493   8.550
 3434POPC   D2A 5296  43.127  10.475   8.250
 3434POPC   C3A 5297  43.097  10.516   7.950
 3434POPC   C4A 5298  43.139  10.503   7.650
 3434POPC   C1B 5299  43.052  10.322   8.550
 3434POPC   C2B 5300  43.058  10.313   8.250
 3434POPC   C3B 5301  43.052  10.249   7.950
 3434POPC   C4B 5302  43.026  10.262   7.650
 3435POPC   NC3 5303  41.589   5.887   9.450
 3435POPC   PO4 5304  41.597   5.853   9.150
 3435POPC   GL1 5305  41.535   5.832   8.850
 3435POPC   GL2 5306  41.522   5.969   8.850
 3435POPC   C1A 5307  41.552   5.899   8.550
 3435POPC   D2A 5308  41.537   5.848   8.250
 3435POPC   C3A 5309  41.545   5.838   7.950
 3435POPC   C4A 5310  41.588   5.825   7.650
 3435POPC   C1B 5311  41.367   6.024   8.550
 3435POPC   C2B 5312  41.368   6.036   8.250
 3435POPC   C3B 5313  41.416   6.074   7.950
 3435POPC   C4B 5314  41.381   6.112   7.650
 3436POPC   NC3 5315  16.762   1.205   9.450
 3436POPC   PO4 5316  16.696   1.253   9.150
 3436POPC   GL1 5317  16.737   1.220   8.850
 3436POPC   GL2 5318  16.689   1.119   8.850
 3436POPC   C1A 5319  16.717   1.236   8.550
 3436POPC   D2A 5320  16.746   1.216   8.250
 3436POPC   C3A 5321  16.724   1.218   7.950
 3436POPC   C4A 5322  16.735   1.193   7.650
 3436POPC   C1B 5323  16.603   1.037   8.550
 3436POPC   C2B 5324  16.596   1.052   8.250
 3436POPC   C3B 5325  16.587   1.049   7.950
 3436POPC   C4B 5326  16.636   1.040   7.650
 3437POPC   NC3 5327   5.909  10.489   9.450
 3437POPC   PO4 5328   5.849  10.534   9.150
 3437POPC   GL1 5329   5.841  10.552   8.850
 3437POPC   GL2 5330   5.905  10.434   8.850
 3437POPC   C1A 5331   5.841  10.514   8.550
 3437POPC   D2A 5332   5.837  10.498   8.250
 3437POPC   C3A 5333   5.848  10.475   7.950
 3437POPC   C4A 5334   5.850  10.530   7.650
 3437POPC   C1B 5335   5.921  10.284   8.550
 3437POPC   C2B 5336   5.952  10.241   8.250
 3437POPC   C3B 5337   5.984  10.333   7.950
 3437POPC   C4B 5338   5.899  10.254   7.650
 3438POPC   NC3 5339  34.558  15.170   9.450
 3438POPC   PO4 5340  34.587  15.193   9.150
 3438POPC   GL1 5341  34.564  15.192   8.850
 3438POPC   GL2 5342  34.465  15.161   8.850
 3438POPC   C1A 5343  34.530  15.193   8.550
 3438POPC   D2A 5344  34.538  15.161   8.250
 3438POPC   C3A 5345  34.557  15.131   7.950
 3438POPC   C4A 5346  34.593  15.211   7.650
 3438POPC   C1B 5347  34.367  15.193   8.550
 3438POPC   C2B 5348  34.357  15.199   8.250
 3438POPC   C3B 5349  34.322  15.221   7.950
 3438POPC   C4B 5350  34.359  15.160   7.650
 3439POPC   NC3 5351  19.824   5.846   9.450
 3439POPC   PO4 5352  19.864   5.901   9.150
 3439POPC   GL1 5353  19.844   5.867   8.850
 3439POPC   GL2 5354  19.926   5.762   8.850
 3439POPC   C1A 5355  19.844   5.852   8.550
 3439POPC   D2A 5356  19.866   5.914   8.250
 3439POPC   C3A 5357  19.814   5.846   7.950
 3439POPC   C4A 5358  19.878   5.853   7.650
 3439POPC   C1B 5359  19.966   5.663   8.550
 3439POPC   C2B 5360  19.908   5.618   8.250
 3439POPC   C3B 5361  19.956   5.598   7.950
 3439POPC   C4B 5362  19.920   5.667   7.650
 3440POPC   NC3 5363  38.460  27.605   9.450
 3440POPC   PO4 5364  38.431  27.622   9.150
 3440POPC   GL1 5365  38.425  27.641   8.850
 3440POPC   GL2 5366  38.317  27.685   8.850
 3440POPC   C1A 5367  38.493  27.631   8.550
 3440POPC   D2A 5368  38.501  27.598   8.250
 3440POPC   C3A 5369  38.431  27.579   7.950
 3440POPC   C4A 5370  38.480  27.545   7.650
 3440POPC   C1B 5371  38.256  27.750   8.550
 3440POPC   C2B 5372  38.229  27.675   8.250
 3440POPC   C3B 5373  38.255  27.683   7.950
 3440POPC   C4B 5374  38.269  27.682   7.650
 3441POPC   NC3 5375  35.366  22.169   9.450
 3441POPC   PO4 5376  35.340  22.166   9.150
 3441POPC   GL1 5377  35.307  22.131   8.850
 3441POPC   GL2 5378  35.284  22.242   8.850
 3441POPC   C1A 5379  35.373  22.116   8.550
 3441POPC   D2A 5380  35.379  22.135   8.250
 3441POPC   C3A 5381  35.361  22.123   7.950
 3441POPC   C4A 5382  35.326  22.170   7.650
 3441POPC   C1B 5383  35.189  22.317   8.550
 3441POPC   C2B 5384  35.159  22.313   8.250
 3441POPC   C3B 5385  35.124  22.319   7.950
 3441POPC   C4B 5386  35.134  22.308   7.650
 3442POPC   NC3 5387  33.794  22.896   9.450
 3442POPC   PO4 5388  33.760  22.986   9.150
 3442POPC   GL1 5389  33.795  22.892   8.850
 3442POPC   GL2 5390  33.671  22.965   8.850
 3442POPC   C1A 5391  33.776  22.938   8.550
 3442POPC   D2A 5392  33.799  22.932   8.250
 3442POPC   C3A 5393  33.771  22.986   7.950
 3442POPC   C4A 5394  33.806  22.967   7.650
 3442POPC   C1B 5395  33.569  22.937   8.550
 3442POPC   C2B 5396  33.548  22.982   8.250
 3442POPC   C3B 5397  33.544  22.919   7.950
 3442POPC   C4B 5398  33.505  22.926   7.650
 3443POPC   NC3 5399  42.363   5.901   9.450
 3443POPC   PO4 5400  42.303   5.893   9.150
 3443POPC   GL1 5401  42.320   5.851   8.850
 3443POPC   GL2 5402  42.414   5.959   8.850
 3443POPC   C1A 5403  42.345   5.869   8.550
 3443POPC   D2A 5404  42.295   5.866   8.250
 3443POPC   C3A 5405  42.382   5.913   7.950
 3443POPC   C4A 5406  42.332   5.880   7.650
 3443POPC   C1B 5407  42.509   6.029   8.550
 3443POPC   C2B 5408  42.525   6.063   8.250
 3443POPC   C3B 5409  42.489   6.029   7.950
 3443POPC   C4B 5410  42.521   6.104   7.650
 3444POPC   NC3 5411  15.216  23.683   9.450
 3444POPC   PO4 5412  15.193  23.675   9.150
 3444POPC   GL1 5413  15.197  23.745   8.850
 3444POPC   GL2 5414  15.297  23.799   8.850
 3444POPC   C1A 5415  15.199  23.695   8.550
 3444POPC   D2A 5416  15.193  23.700   8.250
 3444POPC   C3A 5417  15.206  23.731   7.950
 3444POPC   C4A 5418  15.215  23.681   7.650
 3444POPC   C1B 5419  15.423  23.871   8.550
 3444POPC   C2B 5420  15.416  23.880   8.250
 3444POPC   C3B 5421  15.386  23.879   7.950
 3444POPC   C4B 5422  15.387  23.842   7.650
 3445POPC   NC3 5423  24.449   5.076   9.450
 3445POPC   PO4 5424  24.446   5.121   9.150
 3445POPC   GL1 5425  24.514   5.111   8.850
 3445POPC   GL2 5426  24.580   5.027   8.850
 3445POPC   C1A 5427  24.533   5.067   8.550
 3445POPC   D2A 5428  24.455   5.064   8.250
 3445POPC   C3A 5429  24.520   5.081   7.950
 3445POPC   C4A 5430  24.444   5.101   7.650
 3445POPC   C1B 5431  24.711   4.938   8.550
 3445POPC   C2B 5432  24.738   4.942   8.250
 3445POPC   C3B 5433  24.718   4.971   7.950
 3445POPC   C4B 5434  24.655   4.910   7.650
 3446POPC   NC3 5435  35.358   2.003   9.450
 3446POPC   PO4 5436  35.328   2.015   9.150
 3446POPC   GL1 5437  35.350   1.986   8.850
 3446POPC   GL2 5438  35.418   2.078   8.850
 3446POPC   C1A 5439  35.346   1.947   8.550
 3446POPC   D2A 5440  35.317   1.989   8.250
 3446POPC   C3A 5441  35.313   1.982   7.950
 3446POPC   C4A 5442  35.366   1.980   7.650
 3446POPC   C1B 5443  35.519   2.217   8.550
 3446POPC   C2B 5444  35.465   2.219   8.250
 3446POPC   C3B 5445  35.535   2.171   7.950
 3446POPC   C4B 5446  35.501   2.191   7.650
 3447POPC   NC3 5447  18.242   1.186   9.450
 3447POPC   PO4 5448  18.317   1.242   9.150
 3447POPC   GL1 5449  18.332   1.200   8.850
 3447POPC   GL2 5450  18.324   1.292   8.850
 3447POPC   C1A 5451  18.271   1.196   8.550
 3447POPC   D2A 5452  18.271   1.224   8.250
 3447POPC   C3A 5453  18.279   1.236   7.950
 3447POPC   C4A 5454  18.300   1.260   7.650
 3447POPC   C1B 5455  18.480   1.421   8.550
 3447POPC   C2B 5456  18.460   1.372   8.250
 3447POPC   C3B 5457  18.432   1.408   7.950
 3447POPC   C4B 5458  18.485   1.371   7.650
 3448POPC   NC3 5459  36.171  14.425   9.450
 3448POPC   PO4 5460  36.158  14.356   9.150
 3448POPC   GL1 5461  36.138  14.443   8.850
 3448POPC   GL2 5462  36.276  14.393   8.850
 3448POPC   C1A 5463  36.175  14.434   8.550
 3448POPC   D2A 5464  36.134  14.394   8.250
 3448POPC   C3A 5465  36.108  14.363   7.950
 3448POPC   C4A 5466  36.093  14.414   7.650
 3448POPC   C1B 5467  36.385  14.269   8.550
 3448POPC   C2B 5468  36.301  14.305   8.250
 3448POPC   C3B 5469  36.316  14.339   7.950
 3448POPC   C4B 5470  36.378  14.332   7.650
 3449POPC   NC3 5471  13.591  43.083   9.450
 3449POPC   PO4 5472  13.601  43.140   9.150
 3449POPC   GL1 5473  13.581  43.100   8.850
 3449POPC   GL2 5474  13.761  43.115   8.850
 3449POPC   C1A 5475  13.607  43.127   8.550
 3449POPC   D2A 5476  13.659  43.157   8.250
 3449POPC   C3A 5477  13.587  43.110   7.950
 3449POPC   C4A 5478  13.615  43.060   7.650
 3449POPC   C1B 5479  13.860  43.073   8.550
 3449POPC   C2B 5480  13.882  43.145   8.250
 3449POPC   C3B 5481  13.863  43.079   7.950
 3449POPC   C4B 5482  13.828  43.095   7.650
 3450POPC   NC3 5483  41.576  20.574   9.450
 3450POPC   PO4 5484  41.572  20.644   9.150
 3450POPC   GL1 5485  41.596  20.562   8.850
 3450POPC   GL2 5486  41.574  20.463   8.850
 3450POPC   C1A 5487  41.552  20.641   8.550
 3450POPC   D2A 5488  41.581  20.627   8.250
 3450POPC   C3A 5489  41.564  20.605   7.950
 3450POPC   C4A 5490  41.551  20.591   7.650
 3450POPC   C1B 5491  41.647  20.380   8.550
 3450POPC   C2B 5492  41.617  20.337   8.250
 3450POPC   C3B 5493  41.705  20.411   7.950
 3450POPC   C4B 5494  41.633  20.372   7.650
 3451POPC   NC3 5495   8.941   4.289   9.450
 3451POPC   PO4 5496   8.948   4.304   9.150
 3451POPC   GL1 5497   8.968   4.270   8.850
 3451POPC   GL2 5498   9.020   4.429   8.850
 3451POPC   C1A 5499   8.951   4.322   8.550
 3451POPC   D2A 5500   8.935   4.327   8.250
 3451POPC   C3A 5501   8.939   4.340   7.950
 3451POPC   C4A 5502   8.959   4.279   7.650
 3451POPC   C1B 5503   9.181   4.536   8.550
 3451POPC   C2B 5504   9.127   4.443   8.250
 3451POPC   C3B 5505   9.197   4.468   7.950
 3451POPC   C4B 5506   9.114   4.514   7.650
 3452POPC   NC3 5507  21.433  42.359   9.450
 3452POPC   PO4 5508  21.417  42.290   9.150
 3452POPC   GL1 5509  21.396  42.371   8.850
 3452POPC   GL2 5510  21.394  42.238   8.850
 3452POPC   C1A 5511  21.343  42.326   8.550
 3452POPC   D2A 5512  21.427  42.293   8.250
 3452POPC   C3A 5513  21.434  42.329   7.950
 3452POPC   C4A 5514  21.424  42.368   7.650
 3452POPC   C1B 5515  21.343  42.072   8.550
 3452POPC   C2B 5516  21.264  42.063   8.250
 3452POPC   C3B 5517  21.325  42.147   7.950
 3452POPC   C4B 5518  21.276  42.083   7.650
 3453POPC   NC3 5519  30.718  39.240   9.450
 3453POPC   PO4 5520  30.739  39.185   9.150
 3453POPC   GL1 5521  30.700  39.191   8.850
 3453POPC   GL2 5522  30.809  39.244   8.850
 3453POPC   C1A 5523  30.742  39.216   8.550
 3453POPC   D2A 5524  30.741  39.198   8.250
 3453POPC   C3A 5525  30.731  39.218   7.950
 3453POPC   C4A 5526  30.703  39.182   7.650
 3453POPC   C1B 5527  30.922  39.287   8.550
 3453POPC   C2B 5528  30.907  39.244   8.250
 3453POPC   C3B 5529  30.904  39.290   7.950
 3453POPC   C4B 5530  30.946  39.302   7.650
 3454POPC   NC3 5531   6.660   8.210   9.450
 3454POPC   PO4 5532   6.610   8.241   9.150
 3454POPC   GL1 5533   6.684   8.179   8.850
 3454POPC   GL2 5534   6.645   8.362   8.850
 3454POPC   C1A 5535   6.690   8.239   8.550
 3454POPC   D2A 5536   6.684   8.217   8.250
 3454POPC   C3A 5537   6.688   8.179   7.950
 3454POPC   C4A 5538   6.631   8.227   7.650
 3454POPC   C1B 5539   6.568   8.424   8.550
 3454POPC   C2B 5540   6.589   8.428   8.250
 3454POPC   C3B 5541   6.615   8.454   7.950
 3454POPC   C4B 5542   6.586   8.484   7.650
 3455POPC   NC3 5543  41.603  27.553   9.450
 3455POPC   PO4 5544  41.584  27.563   9.150
 3455POPC   GL1 5545  41.568  27.615   8.850
 3455POPC   GL2 5546  41.648  27.567   8.850
 3455POPC   C1A 5547  41.604  27.579   8.550
 3455POPC   D2A 5548  41.600  27.610   8.250
 3455POPC   C3A 5549  41.544  27.549   7.950
 3455POPC   C4A 5550  41.559  27.631   7.650
 3455POPC   C1B 5551  41.801  27.607   8.550
 3455POPC   C2B 5552  41.820  27.592   8.250
 3455POPC   C3B 5553  41.841  27.606   7.950
 3455POPC   C4B 5554  41.810  27.590   7.650
 3456POPC   NC3 5555  18.243  12.809   9.450
 3456POPC   PO4 5556  18.321  12.804   9.150
 3456POPC   GL1 5557  18.291  12.861   8.850
 3456POPC   GL2 5558  18.142  12.952   8.850
 3456POPC   C1A 5559  18.289  12.872   8.550
 3456POPC   D2A 5560  18.299  12.899   8.250
 3456POPC   C3A 5561  18.321  12.819   7.950
 3456POPC   C4A 5562  18.291  12.828   7.650
 3456POPC   C1B 5563  18.058  13.044   8.550
 3456POPC   C2B 5564  18.122  12.996   8.250
 3456POPC   C3B 5565  18.122  13.000   7.950
 3456POPC   C4B 5566  18.119  13.054   7.650
 3457POPC   NC3 5567  34.611  33.022   9.450
 3457POPC   PO4 5568  34.604  32.988   9.150
 3457POPC   GL1 5569  34.538  32.989   8.850
 3457POPC   GL2 5570  34.650  33.079   8.850
 3457POPC   C1A 5571  34.574  32.997   8.550
 3457POPC   D2A 5572  34.528  33.060   8.250
 3457POPC   C3A 5573  34.591  33.064   7.950
 3457POPC   C4A 5574  34.547  33.016   7.650
 3457POPC   C1B 5575  34.853  33.067   8.550
 3457POPC   C2B 5576  34.852  33.122   8.250
 3457POPC   C3B 5577  34.813  33.049   7.950
 3457POPC   C4B 5578  34.774  33.105   7.650
 3458POPC   NC3 5579  35.361  19.102   9.450
 3458POPC   PO4 5580  35.333  19.014   9.150
 3458POPC   GL1 5581  35.330  19.094   8.850
 3458POPC   GL2 5582  35.494  18.984   8.850
 3458POPC   C1A 5583  35.311  19.082   8.550
 3458POPC   D2A 5584  35.306  19.013   8.250
 3458POPC   C3A 5585  35.354  19.080   7.950
 3458POPC   C4A 5586  35.308  19.072   7.650
 3458POPC   C1B 5587  35.497  18.851   8.550
 3458POPC   C2B 5588  35.551  18.893   8.250
 3458POPC   C3B 5589  35.504  18.947   7.950
 3458POPC   C4B 5590  35.585  18.862   7.650
 3459POPC   NC3 5591  35.331  26.053   9.450
 3459POPC   PO4 5592  35.360  26.017   9.150
 3459POPC   GL1 5593  35.356  26.051   8.850
 3459POPC   GL2 5594  35.200  26.114   8.850
 3459POPC   C1A 5595  35.328  26.029   8.550
 3459POPC   D2A 5596  35.349  26.042   8.250
 3459POPC   C3A 5597  35.356  26.029   7.950
 3459POPC   C4A 5598  35.382  25.995   7.650
 3459POPC   C1B 5599  35.077  26.073   8.550
 3459POPC   C2B 5600  35.070  26.103   8.250
 3459POPC   C3B 5601  35.150  26.112   7.950
 3459POPC   C4B 5602  35.112  26.105   7.650
 3460POPC   NC3 5603  19.822  26.793   9.450
 3460POPC   PO4 5604  19.867  26.776   9.150
 3460POPC   GL1 5605  19.814  26.804   8.850
 3460POPC   GL2 5606  19.806  26.668   8.850
 3460POPC   C1A 5607  19.800  26.818   8.550
 3460POPC   D2A 5608  19.852  26.847   8.250
 3460POPC   C3A 5609  19.796  26.846   7.950
 3460POPC   C4A 5610  19.798  26.842   7.650
 3460POPC   C1B 5611  19.807  26.583   8.550
 3460POPC   C2B 5612  19.803  26.578   8.250
 3460POPC   C3B 5613  19.725  26.533   7.950
 3460POPC   C4B 5614  19.739  26.582   7.650
 3461POPC   NC3 5615  30.707   3.532   9.450
 3461POPC   PO4 5616  30.712   3.569   9.150
 3461POPC   GL1 5617  30.714   3.535   8.850
 3461POPC   GL2 5618  30.743   3.621   8.850
 3461POPC   C1A 5619  30.701   3.545   8.550
 3461POPC   D2A 5620  30.696   3.498   8.250
 3461POPC   C3A 5621  30.664   3.567   7.950
 3461POPC   C4A 5622  30.683   3.520   7.650
 3461POPC   C1B 5623  30.771   3.811   8.550
 3461POPC   C2B 5624  30.752   3.791   8.250
 3461POPC   C3B 5625  30.749   3.813   7.950
 3461POPC   C4B 5626  30.820   3.793   7.650
 3462POPC   NC3 5627  24.460   1.233   9.450
 3462POPC   PO4 5628  24.489   1.178   9.150
 3462POPC   GL1 5629  24.520   1.166   8.850
 3462POPC   GL2 5630  24.599   1.114   8.850
 3462POPC   C1A 5631  24.528   1.234   8.550
 3462POPC   D2A 5632  24.533   1.187   8.250
 3462POPC   C3A 5633  24.458   1.229   7.950
 3462POPC   C4A 5634  24.483   1.179   7.650
 3462POPC   C1B 5635  24.684   0.971   8.550
 3462POPC   C2B 5636  24.666   1.038   8.250
 3462POPC   C3B 5637  24.613   1.057   7.950
 3462POPC   C4B 5638  24.669   1.045   7.650
 3463POPC   NC3 5639  19.077   0.481   9.450
 3463POPC   PO4 5640  19.046   0.478   9.150
 3463POPC   GL1 5641  19.024   0.454   8.850
 3463POPC   GL2 5642  19.193   0.477   8.850
 3463POPC   C1A 5643  19.023   0.475   8.550
 3463POPC   D2A 5644  19.073   0.429   8.250
 3463POPC   C3A 5645  19.076   0.448   7.950
 3463POPC   C4A 5646  19.102   0.427   7.650
 3463POPC   C1B 5647  19.266   0.468   8.550
 3463POPC   C2B 5648  19.269   0.504   8.250
 3463POPC   C3B 5649  19.283   0.454   7.950
 3463POPC   C4B 5650  19.312   0.494   7.650
 3464POPC   NC3 5651  29.912  25.301   9.450
 3464POPC   PO4 5652  29.903  25.220   9.150
 3464POPC   GL1 5653  29.883  25.296   8.850
 3464POPC   GL2 5654  30.000  25.130   8.850
 3464POPC   C1A 5655  29.882  25.284   8.550
 3464POPC   D2A 5656  29.927  25.312   8.250
 3464POPC   C3A 5657  29.919  25.270   7.950
 3464POPC   C4A 5658  29.916  25.311   7.650
 3464POPC   C1B 5659  29.992  25.007   8.550
 3464POPC   C2B 5660  29.959  25.045   8.250
 3464POPC   C3B 5661  30.006  25.004   7.950
 3464POPC   C4B 5662  29.957  24.976   7.650
 3465POPC   NC3 5663   3.557  12.050   9.450
 3465POPC   PO4 5664   3.580  12.042   9.150
 3465POPC   GL1 5665   3.547  12.103   8.850
 3465POPC   GL2 5666   3.520  12.217   8.850
 3465POPC   C1A 5667   3.538  12.102   8.550
 3465POPC   D2A 5668   3.571  12.029   8.250
 3465POPC   C3A 5669   3.549  12.026   7.950
 3465POPC   C4A 5670   3.500  12.116   7.650
 3465POPC   C1B 5671   3.546  12.362   8.550
 3465POPC   C2B 5672   3.555  12.279   8.250
 3465POPC   C3B 5673   3.535  12.321   7.950
 3465POPC   C4B 5674   3.517  12.352   7.650
 3466POPC   NC3 5675   8.239  15.152   9.450
 3466POPC   PO4 5676   8.158  15.145   9.150
 3466POPC   GL1 5677   8.147  15.141   8.850
 3466POPC   GL2 5678   8.176  15.078   8.850
 3466POPC   C1A 5679   8.151  15.186   8.550
 3466POPC   D2A 5680   8.204  15.151   8.250
 3466POPC   C3A 5681   8.181  15.138   7.950
 3466POPC   C4A 5682   8.213  15.206   7.650
 3466POPC   C1B 5683   8.196  14.885   8.550
 3466POPC   C2B 5684   8.126  14.961   8.250
 3466POPC   C3B 5685   8.126  14.898   7.950
 3466POPC   C4B 5686   8.175  14.976   7.650
 3467POPC   NC3 5687  30.732  17.486   9.450
 3467POPC   PO4 5688  30.647  17.490   9.150
 3467POPC   GL1 5689  30.743  17.482   8.850
 3467POPC   GL2 5690  30.783  17.574   8.850
 3467POPC   C1A 5691  30.679  17.468   8.550
 3467POPC   D2A 5692  30.672  17.543   8.250
 3467POPC   C3A 5693  30.655  17.481   7.950
 3467POPC   C4A 5694  30.743  17.480   7.650
 3467POPC   C1B 5695  30.893  17.592   8.550
 3467POPC   C2B 5696  30.959  17.620   8.250
 3467POPC   C3B 5697  30.916  17.641   7.950
 3467POPC   C4B 5698  30.959  17.649   7.650
 3468POPC   NC3 5699   0.474  38.455   9.450
 3468POPC   PO4 5700   0.441  38.432   9.150
 3468POPC   GL1 5701   0.437  38.444   8.850
 3468POPC   GL2 5702   0.529  38.563   8.850
 3468POPC   C1A 5703   0.450  38.495   8.550
 3468POPC   D2A 5704   0.457  38.458   8.250
 3468POPC   C3A 5705   0.466  38.440   7.950
 3468POPC   C4A 5706   0.478  38.454   7.650
 3468POPC   C1B 5707   0.576  38.655   8.550
 3468POPC   C2B 5708   0.545  38.629   8.250
 3468POPC   C3B 5709   0.554  38.714   7.950
 3468POPC   C4B 5710   0.601  38.694   7.650
 3469POPC   NC3 5711  39.273  39.238   9.450
 3469POPC   PO4 5712  39.275  39.190   9.150
 3469POPC   GL1 5713  39.228  39.275   8.850
 3469POPC   GL2 5714  39.252  39.319   8.850
 3469POPC   C1A 5715  39.278  39.270   8.550
 3469POPC   D2A 5716  39.252  39.223   8.250
 3469POPC   C3A 5717  39.187  39.271   7.950
 3469POPC   C4A 5718  39.205  39.209   7.650
 3469POPC   C1B 5719  39.363  39.484   8.550
 3469POPC   C2B 5720  39.382  39.403   8.250
 3469POPC   C3B 5721  39.385  39.415   7.950
 3469POPC   C4B 5722  39.348  39.466   7.650
 3470POPC   NC3 5723   4.338  24.442   9.450
 3470POPC   PO4 5724   4.304  24.479   9.150
 3470POPC   GL1 5725   4.291  24.471   8.850
 3470POPC   GL2 5726   4.431  24.576   8.850
 3470POPC   C1A 5727   4.313  24.486   8.550
 3470POPC   D2A 5728   4.277  24.516   8.250
 3470POPC   C3A 5729   4.289  24.490   7.950
 3470POPC   C4A 5730   4.365  24.520   7.650
 3470POPC   C1B 5731   4.517  24.634   8.550
 3470POPC   C2B 5732   4.594  24.600   8.250
 3470POPC   C3B 5733   4.543  24.552   7.950
 3470POPC   C4B 5734   4.589  24.591   7.650
 3471POPC   NC3 5735  15.989   5.873   9.450
 3471POPC   PO4 5736  15.969   5.877   9.150
 3471POPC   GL1 5737  15.962   5.918   8.850
 3471POPC   GL2 5738  16.037   5.899   8.850
 3471POPC   C1A 5739  15.939   5.879   8.550
 3471POPC   D2A 5740  15.931   5.849   8.250
 3471POPC   C3A 5741  15.906   5.908   7.950
 3471POPC   C4A 5742  15.944   5.881   7.650
 3471POPC   C1B 5743  16.213   5.863   8.550
 3471POPC   C2B 5744  16.188   5.920   8.250
 3471POPC   C3B 5745  16.203   5.913   7.950
 3471POPC   C4B 5746  16.196   5.829   7.650
 3472POPC   NC3 5747  13.638  11.346   9.450
 3472POPC   PO4 5748  13.611  11.273   9.150
 3472POPC   GL1 5749  13.616  11.285   8.850
 3472POPC   GL2 5750  13.555  11.302   8.850
 3472POPC   C1A 5751  13.632  11.343   8.550
 3472POPC   D2A 5752  13.587  11.349   8.250
 3472POPC   C3A 5753  13.642  11.265   7.950
 3472POPC   C4A 5754  13.629  11.268   7.650
 3472POPC   C1B 5755  13.353  11.200   8.550
 3472POPC   C2B 5756  13.361  11.190   8.250
 3472POPC   C3B 5757  13.434  11.272   7.950
 3472POPC   C4B 5758  13.429  11.241   7.650
 3473POPC   NC3 5759  38.474   1.168   9.450
 3473POPC   PO4 5760  38.427   1.249   9.150
 3473POPC   GL1 5761  38.417   1.222   8.850
 3473POPC   GL2 5762  38.428   1.282   8.850
 3473POPC   C1A 5763  38.414   1.196   8.550
 3473POPC   D2A 5764  38.409   1.238   8.250
 3473POPC   C3A 5765  38.454   1.255   7.950
 3473POPC   C4A 5766  38.447   1.224   7.650
 3473POPC   C1B 5767  38.344   1.487   8.550
 3473POPC   C2B 5768  38.389   1.480   8.250
 3473POPC   C3B 5769  38.322   1.455   7.950
 3473POPC   C4B 5770  38.365   1.441   7.650
 3474POPC   NC3 5771  39.987  39.271   9.450
 3474POPC   PO4 5772  40.042  39.260   9.150
 3474POPC   GL1 5773  39.980  39.279   8.850
 3474POPC   GL2 5774  40.170  39.238   8.850
 3474POPC   C1A 5775  39.997  39.275   8.550
 3474POPC   D2A 5776  39.966  39.267   8.250
 3474POPC   C3A 5777  40.020  39.260   7.950
 3474POPC   C4A 5778  40.022  39.198   7.650
 3474POPC   C1B 5779  40.228  39.296   8.550
 3474POPC   C2B 5780  40.250  39.333   8.250
 3474POPC   C3B 5781  40.193  39.299   7.950
 3474POPC   C4B 5782  40.250  39.289   7.650
 3475POPC   NC3 5783  10.520  35.345   9.450
 3475POPC   PO4 5784  10.549  35.333   9.150
 3475POPC   GL1 5785  10.490  35.400   8.850
 3475POPC   GL2 5786  10.441  35.317   8.850
 3475POPC   C1A 5787  10.480  35.332   8.550
 3475POPC   D2A 5788  10.494  35.316   8.250
 3475POPC   C3A 5789  10.498  35.378   7.950
 3475POPC   C4A 5790  10.561  35.375   7.650
 3475POPC   C1B 5791  10.326  35.312   8.550
 3475POPC   C2B 5792  10.319  35.325   8.250
 3475POPC   C3B 5793  10.257  35.306   7.950
 3475POPC   C4B 5794  10.267  35.294   7.650
 3476POPC   NC3 5795   0.485  30.740   9.450
 3476POPC   PO4 5796   0.395  30.700   9.150
 3476POPC   GL1 5797   0.482  30.654   8.850
 3476POPC   GL2 5798   0.318  30.631   8.850
 3476POPC   C1A 5799   0.418  30.706   8.550
 3476POPC   D2A 5800   0.434  30.684   8.250
 3476POPC   C3A 5801   0.401  30.741   7.950
 3476POPC   C4A 5802   0.450  30.714   7.650
 3476POPC   C1B 5803   0.295  30.521   8.550
 3476POPC   C2B 5804   0.303  30.554   8.250
 3476POPC   C3B 5805   0.294  30.535   7.950
 3476POPC   C4B 5806   0.278  30.576   7.650
 3477POPC   NC3 5807  39.253   2.768   9.450
 3477POPC   PO4 5808  39.183   2.799   9.150
 3477POPC   GL1 5809  39.213   2.789   8.850
 3477POPC   GL2 5810  39.331   2.863   8.850
 3477POPC   C1A 5811  39.184   2.770   8.550
 3477POPC   D2A 5812  39.220   2.788   8.250
 3477POPC   C3A 5813  39.256   2.815   7.950
 3477POPC   C4A 5814  39.230   2.788   7.650
 3477POPC   C1B 5815  39.329   2.973   8.550
 3477POPC   C2B 5816  39.399   2.950   8.250
 3477POPC   C3B 5817  39.355   2.958   7.950
 3477POPC   C4B 5818  39.414   2.987   7.650
 3478POPC   NC3 5819  25.254   5.894   9.450
 3478POPC   PO4 5820  25.233   5.874   9.150
 3478POPC   GL1 5821  25.262   5.826   8.850
 3478POPC   GL2 5822  25.162   6.014   8.850
 3478POPC   C1A 5823  25.255   5.854   8.550
 3478POPC   D2A 5824  25.252   5.919   8.250
 3478POPC   C3A 5825  25.230   5.906   7.950
 3478POPC   C4A 5826  25.275   5.883   7.650
 3478POPC   C1B 5827  25.144   6.090   8.550
 3478POPC   C2B 5828  25.080   6.057   8.250
 3478POPC   C3B 5829  25.095   6.039   7.950
 3478POPC   C4B 5830  25.179   6.037   7.650
 3479POPC   NC3 5831  20.622  43.134   9.450
 3479POPC   PO4 5832  20.583  43.060   9.150
 3479POPC   GL1 5833  20.574  43.136   8.850
 3479POPC   GL2 5834  20.658  43.014   8.850
 3479POPC   C1A 5835  20.627  43.109   8.550
 3479POPC   D2A 5836  20.658  43.089   8.250
 3479POPC   C3A 5837  20.609  43.156   7.950
 3479POPC   C4A 5838  20.578  43.157   7.650
 3479POPC   C1B 5839  20.674  42.908   8.550
 3479POPC   C2B 5840  20.692  42.914   8.250
 3479POPC   C3B 5841  20.673  42.848   7.950
 3479POPC   C4B 5842  20.743  42.873   7.650
 3480POPC   NC3 5843   9.708  17.506   9.450
 3480POPC   PO4 5844   9.779  17.475   9.150
 3480POPC   GL1 5845   9.745  17.461   8.850
 3480POPC   GL2 5846   9.616  17.456   8.850
 3480POPC   C1A 5847   9.753  17.487   8.550
 3480POPC   D2A 5848   9.775  17.554   8.250
 3480POPC   C3A 5849   9.781  17.485   7.950
 3480POPC   C4A 5850   9.715  17.469   7.650
 3480POPC   C1B 5851   9.487  17.397   8.550
 3480POPC   C2B 5852   9.563  17.424   8.250
 3480POPC   C3B 5853   9.564  17.333   7.950
 3480POPC   C4B 5854   9.540  17.423   7.650
 3481POPC   NC3 5855  30.648  16.753   9.450
 3481POPC   PO4 5856  30.667  16.719   9.150
 3481POPC   GL1 5857  30.697  16.754   8.850
 3481POPC   GL2 5858  30.776  16.715   8.850
 3481POPC   C1A 5859  30.723  16.708   8.550
 3481POPC   D2A 5860  30.655  16.684   8.250
 3481POPC   C3A 5861  30.734  16.719   7.950
 3481POPC   C4A 5862  30.686  16.765   7.650
 3481POPC   C1B 5863  30.903  16.680   8.550
 3481POPC   C2B 5864  30.893  16.663   8.250
 3481POPC   C3B 5865  30.965  16.669   7.950
 3481POPC   C4B 5866  30.942  16.674   7.650
 3482POPC   NC3 5867  24.464   2.772   9.450
 3482POPC   PO4 5868  24.537   2.782   9.150
 3482POPC   GL1 5869  24.515   2.734   8.850
 3482POPC   GL2 5870  24.644   2.777   8.850
 3482POPC   C1A 5871  24.454   2.785   8.550
 3482POPC   D2A 5872  24.498   2.790   8.250
 3482POPC   C3A 5873  24.453   2.788   7.950
 3482POPC   C4A 5874  24.489   2.744   7.650
 3482POPC   C1B 5875  24.764   2.785   8.550
 3482POPC   C2B 5876  24.728   2.768   8.250
 3482POPC   C3B 5877  24.740   2.719   7.950
 3482POPC   C4B 5878  24.732   2.738   7.650
 3483POPC   NC3 5879  16.730  18.280   9.450
 3483POPC   PO4 5880  16.776  18.323   9.150
 3483POPC   GL1 5881  16.747  18.258   8.850
 3483POPC   GL2 5882  16.811  18.409   8.850
 3483POPC   C1A 5883  16.708  18.277   8.550
 3483POPC   D2A 5884  16.775  18.238   8.250
 3483POPC   C3A 5885  16.781  18.304   7.950
 3483POPC   C4A 5886  16.741  18.270   7.650
 3483POPC   C1B 5887  16.793  18.493   8.550
 3483POPC   C2B 5888  16.854  18.550   8.250
 3483POPC   C3B 5889  16.806  18.542   7.950
 3483POPC   C4B 5890  16.820  18.508   7.650
 3484POPC   NC3 5891  25.271  36.862   9.450
 3484POPC   PO4 5892  25.295  36.917   9.150
 3484POPC   GL1 5893  25.240  36.884   8.850
 3484POPC   GL2 5894  25.357  36.975   8.850
 3484POPC   C1A 5895  25.220  36.879   8.550
 3484POPC   D2A 5896  25.285  36.874   8.250
 3484POPC   C3A 5897  25.285  36.903   7.950
 3484POPC   C4A 5898  25.233  36.917   7.650
 3484POPC   C1B 5899  25.412  37.118   8.550
 3484POPC   C2B 5900  25.448  37.034   8.250
 3484POPC   C3B 5901  25.418  37.095   7.950
 3484POPC   C4B 5902  25.421  37.088   7.650
 3485POPC   NC3 5903  19.814  41.603   9.450
 3485POPC   PO4 5904  19.861  41.542   9.150
 3485POPC   GL1 5905  19.864  41.553   8.850
 3485POPC   GL2 5906  19.737  41.634   8.850
 3485POPC   C1A 5907  19.823  41.515   8.550
 3485POPC   D2A 5908  19.793  41.525   8.250
 3485POPC   C3A 5909  19.800  41.582   7.950
 3485POPC   C4A 5910  19.838  41.585   7.650
 3485POPC   C1B 5911  19.646  41.752   8.550
 3485POPC   C2B 5912  19.667  41.778   8.250
 3485POPC   C3B 5913  19.611  41.745   7.950
 3485POPC   C4B 5914  19.649  41.782   7.650
 3486POPC   NC3 5915  39.195  21.354   9.450
 3486POPC   PO4 5916  39.236  21.370   9.150
 3486POPC   GL1 5917  39.222  21.402   8.850
 3486POPC   GL2 5918  39.165  21.240   8.850
 3486POPC   C1A 5919  39.280  21.392   8.550
 3486POPC   D2A 5920  39.217  21.420   8.250
 3486POPC   C3A 5921  39.206  21.368   7.950
 3486POPC   C4A 5922  39.280  21.409   7.650
 3486POPC   C1B 5923  39.063  21.183   8.550
 3486POPC   C2B 5924  39.106  21.204   8.250
 3486POPC   C3B 5925  39.062  21.187   7.950
 3486POPC   C4B 5926  39.061  21.227   7.650
 3487POPC   NC3 5927  41.532  33.827   9.450
 3487POPC   PO4 5928  41.538  33.797   9.150
 3487POPC   GL1 5929  41.539  33.827   8.850
 3487POPC   GL2 5930  41.636  33.852   8.850
 3487POPC   C1A 5931  41.523  33.843   8.550
 3487POPC   D2A 5932  41.517  33.796   8.250
 3487POPC   C3A 5933  41.582  33.794   7.950
 3487POPC   C4A 5934  41.535  33.811   7.650
 3487POPC   C1B 5935  41.813  33.834   8.550
 3487POPC   C2B 5936  41.795  33.918   8.250
 3487POPC   C3B 5937  41.775  33.895   7.950
 3487POPC   C4B 5938  41.826  33.917   7.650
 3488POPC   NC3 5939  40.784  12.048   9.450
 3488POPC   PO4 5940  40.745  12.087   9.150
 3488POPC   GL1 5941  40.787  12.120   8.850
 3488POPC   GL2 5942  40.802  12.223   8.850
 3488POPC   C1A 5943  40.803  12.070   8.550
 3488POPC   D2A 5944  40.790  12.038   8.250
 3488POPC   C3A 5945  40.775  12.097   7.950
 3488POPC   C4A 5946  40.787  12.054   7.650
 3488POPC   C1B 5947  40.898  12.322   8.550
 3488POPC   C2B 5948  40.830  12.345   8.250
 3488POPC   C3B 5949  40.876  12.329   7.950
 3488POPC   C4B 5950  40.903  12.291   7.650
 3489POPC   NC3 5951  19.030  14.441   9.450
 3489POPC   PO4 5952  19.070  14.430   9.150
 3489POPC   GL1 5953  19.094  14.443   8.850
 3489POPC   GL2 5954  19.032  14.270   8.850
 3489POPC   C1A 5955  19.045  14.408   8.550
 3489POPC   D2A 5956  19.060  14.451   8.250
 3489POPC   C3A 5957  19.015  14.414   7.950
 3489POPC   C4A 5958  19.074  14.407   7.650
 3489POPC   C1B 5959  18.963  14.240   8.550
 3489POPC   C2B 5960  18.884  14.241   8.250
 3489POPC   C3B 5961  18.947  14.192   7.950
 3489POPC   C4B 5962  18.900  14.202   7.650
 3490POPC   NC3 5963  14.431  12.806   9.450
 3490POPC   PO4 5964  14.387  12.850   9.150
 3490POPC   GL1 5965  14.365  12.886   8.850
 3490POPC   GL2 5966  14.291  12.752   8.850
 3490POPC   C1A 5967  14.366  12.889   8.550
 3490POPC   D2A 5968  14.391  12.832   8.250
 3490POPC   C3A 5969  14.442  12.872   7.950
 3490POPC   C4A 5970  14.360  12.875   7.650
 3490POPC   C1B 5971  14.250  12.683   8.550
 3490POPC   C2B 5972  14.244  12.635   8.250
 3490POPC   C3B 5973  14.231  12.609   7.950
 3490POPC   C4B 5974  14.309  12.689   7.650
 3491POPC   NC3 5975   8.156  29.946   9.450
 3491POPC   PO4 5976   8.215  29.937   9.150
 3491POPC   GL1 5977   8.168  29.871   8.850
 3491POPC   GL2 5978   8.281  29.888   8.850
 3491POPC   C1A 5979   8.157  29.936   8.550
 3491POPC   D2A 5980   8.174  29.931   8.250
 3491POPC   C3A 5981   8.229  29.969   7.950
 3491POPC   C4A 5982   8.211  29.936   7.650
 3491POPC   C1B 5983   8.395  29.856   8.550
 3491POPC   C2B 5984   8.450  29.916   8.250
 3491POPC   C3B 5985   8.397  29.841   7.950
 3491POPC   C4B 5986   8.438  29.867   7.650
 3492POPC   NC3 5987  16.775  42.381   9.450
 3492POPC   PO4 5988  16.737  42.338   9.150
 3492POPC   GL1 5989  16.717  42.377   8.850
 3492POPC   GL2 5990  16.703  42.406   8.850
 3492POPC   C1A 5991  16.692  42.314   8.550
 3492POPC   D2A 5992  16.686  42.345   8.250
 3492POPC   C3A 5993  16.765  42.365   7.950
 3492POPC   C4A 5994  16.744  42.326   7.650
 3492POPC   C1B 5995  16.654  42.614   8.550
 3492POPC   C2B 5996  16.659  42.620   8.250
 3492POPC   C3B 5997  16.636  42.545   7.950
 3492POPC   C4B 5998  16.621  42.544   7.650
 3493POPC   NC3 5999   8.164   8.998   9.450
 3493POPC   PO4 6000   8.176   8.961   9.150
 3493POPC   GL1 6001   8.172   8.948   8.850
 3493POPC   GL2 6002   8.060   8.969   8.850
 3493POPC   C1A 6003   8.197   8.995   8.550
 3493POPC   D2A 6004   8.201   8.982   8.250
 3493POPC   C3A 6005   8.227   9.011   7.950
 3493POPC   C4A 6006   8.241   8.977   7.650
 3493POPC   C1B 6007   8.002   8.865   8.550
 3493POPC   C2B 6008   7.925   8.851   8.250
 3493POPC   C3B 6009   8.012   8.860   7.950
 3493POPC   C4B 6010   7.936   8.843   7.650
 3494POPC   NC3 6011  43.069  39.196   9.450
 3494POPC   PO4 6012  43.081  39.237   9.150
 3494POPC   GL1 6013  43.115  39.257   8.850
 3494POPC   GL2 6014  43.166  39.371   8.850
 3494POPC   C1A 6015  43.141  39.245   8.550
 3494POPC   D2A 6016  43.103  39.203   8.250
 3494POPC   C3A 6017  43.079  39.275   7.950
 3494POPC   C4A 6018  43.096  39.203   7.650
 3494POPC   C1B 6019  43.123  39.516   8.550
 3494POPC   C2B 6020  43.125  39.485   8.250
 3494POPC   C3B 6021  43.155  39.507   7.950
 3494POPC   C4B 6022  43.176  39.484   7.650
 3495POPC   NC3 6023  26.002  15.168   9.450
 3495POPC   PO4 6024  26.083  15.186   9.150
 3495POPC   GL1 6025  26.073  15.183   8.850
 3495POPC   GL2 6026  26.063  15.038   8.850
 3495POPC   C1A 6027  26.090  15.172   8.550
 3495POPC   D2A 6028  25.992  15.220   8.250
 3495POPC   C3A 6029  26.042  15.137   7.950
 3495POPC   C4A 6030  26.017  15.130   7.650
 3495POPC   C1B 6031  26.075  14.903   8.550
 3495POPC   C2B 6032  26.160  14.911   8.250
 3495POPC   C3B 6033  26.141  14.904   7.950
 3495POPC   C4B 6034  26.130  14.963   7.650
 3496POPC   NC3 6035  32.978   5.057   9.450
 3496POPC   PO4 6036  32.995   5.120   9.150
 3496POPC   GL1 6037  32.995   5.090   8.850
 3496POPC   GL2 6038  32.930   5.160   8.850
 3496POPC   C1A 6039  33.019   5.092   8.550
 3496POPC   D2A 6040  33.039   5.058   8.250
 3496POPC   C3A 6041  32.981   5.112   7.950
 3496POPC   C4A 6042  33.032   5.121   7.650
 3496POPC   C1B 6043  32.819   5.259   8.550
 3496POPC   C2B 6044  32.877   5.245   8.250
 3496POPC   C3B 6045  32.867   5.284   7.950
 3496POPC   C4B 6046  32.835   5.235   7.650
 3497POPC   NC3 6047  15.197  26.046   9.450
 3497POPC   PO4 6048  15.151  26.060   9.150
 3497POPC   GL1 6049  15.161  26.062   8.850
 3497POPC   GL2 6050  15.065  26.150   8.850
 3497POPC   C1A 6051  15.166  26.022   8.550
 3497POPC   D2A 6052  15.223  26.053   8.250
 3497POPC   C3A 6053  15.182  26.053   7.950
 3497POPC   C4A 6054  15.213  26.028   7.650
 3497POPC   C1B 6055  15.009  26.217   8.550
 3497POPC   C2B 6056  14.993  26.211   8.250
 3497POPC   C3B 6057  15.060  26.201   7.950
 3497POPC   C4B 6058  15.008  26.224   7.650
 3498POPC   NC3 6059   6.685  14.379   9.450
 3498POPC   PO4 6060   6.609  14.369   9.150
 3498POPC   GL1 6061   6.618  14.381   8.850
 3498POPC   GL2 6062   6.585  14.312   8.850
 3498POPC   C1A 6063   6.611  14.451   8.550
 3498POPC   D2A 6064   6.641  14.380   8.250
 3498POPC   C3A 6065   6.618  14.358   7.950
 3498POPC   C4A 6066   6.619  14.432   7.650
 3498POPC   C1B 6067   6.536  14.207   8.550
 3498POPC   C2B 6068   6.531  14.208   8.250
 3498POPC   C3B 6069   6.572  14.141   7.950
 3498POPC   C4B 6070   6.575  14.159   7.650
 3499POPC   NC3 6071  26.047  25.272   9.450
 3499POPC   PO4 6072  26.081  25.234   9.150
 3499POPC   GL1 6073  26.036  25.282   8.850
 3499POPC   GL2 6074  25.901  25.291   8.850
 3499POPC   C1A 6075  26.001  25.288   8.550
 3499POPC   D2A 6076  26.077  25.265   8.250
 3499POPC   C3A 6077  26.016  25.218   7.950
 3499POPC   C4A 6078  26.072  25.261   7.650
 3499POPC   C1B 6079  25.743  25.265   8.550
 3499POPC   C2B 6080  25.774  25.266   8.250
 3499POPC   C3B 6081  25.745  25.283   7.950
 3499POPC   C4B 6082  25.768  25.236   7.650
 3500POPC   NC3 6083  15.212  40.811   9.450
 3500POPC   PO4 6084  15.211  40.821   9.150
 3500POPC   GL1 6085  15.217  40.773   8.850
 3500POPC   GL2 6086  15.275  40.791   8.850
 3500POPC   C1A 6087  15.187  40.773   8.550
 3500POPC   D2A 6088  15.186  40.823   8.250
 3500POPC   C3A 6089  15.190  40.824   7.950
 3500POPC   C4A 6090  15.151  40.821   7.650
 3500POPC   C1B 6091  15.460  40.778   8.550
 3500POPC   C2B 6092  15.412  40.754   8.250
 3500POPC   C3B 6093  15.381  40.747   7.950
 3500POPC   C4B 6094  15.455  40.756   7.650
 3501POPC   NC3 6095   0.438  23.670   9.450
 3501POPC   PO4 6096   0.423  23.708   9.150
 3501POPC   GL1 6097   0.422  23.728   8.850
 3501POPC   GL2 6098   0.386  23.847   8.850
 3501POPC   C1A 6099   0.455  23.686   8.550
 3501POPC   D2A 6100   0.450  23.718   8.250
 3501POPC   C3A 6101   0.472  23.671   7.950
 3501POPC   C4A 6102   0.478  23.696   7.650
 3501POPC   C1B 6103   0.418  23.983   8.550
 3501POPC   C2B 6104   0.387  23.955   8.250
 3501POPC   C3B 6105   0.344  23.981   7.950
 3501POPC   C4B 6106   0.341  23.970   7.650
 3502POPC   NC3 6107   6.636  31.502   9.450
 3502POPC   PO4 6108   6.661  31.461   9.150
 3502POPC   GL1 6109   6.655  31.475   8.850
 3502POPC   GL2 6110   6.754  31.577   8.850
 3502POPC   C1A 6111   6.645  31.452   8.550
 3502POPC   D2A 6112   6.661  31.511   8.250
 3502POPC   C3A 6113   6.639  31.503   7.950
 3502POPC   C4A 6114   6.664  31.461   7.650
 3502POPC   C1B 6115   6.812  31.588   8.550
 3502POPC   C2B 6116   6.858  31.560   8.250
 3502POPC   C3B 6117   6.842  31.655   7.950
 3502POPC   C4B 6118   6.897  31.641   7.650
 3503POPC   NC3 6119   3.554  13.626   9.450
 3503POPC   PO4 6120   3.520  13.590   9.150
 3503POPC   GL1 6121   3.539  13.613   8.850
 3503POPC   GL2 6122   3.454  13.541   8.850
 3503POPC   C1A 6123   3.529  13.630   8.550
 3503POPC   D2A 6124   3.558  13.666   8.250
 3503POPC   C3A 6125   3.528  13.601   7.950
 3503POPC   C4A 6126   3.574  13.629   7.650
 3503POPC   C1B 6127   3.313  13.549   8.550
 3503POPC   C2B 6128   3.325  13.466   8.250
 3503POPC   C3B 6129   3.271  13.478   7.950
 3503POPC   C4B 6130   3.286  13.549   7.650
 3504POPC   NC3 6131  29.916   9.775   9.450
 3504POPC   PO4 6132  29.962   9.790   9.150
 3504POPC   GL1 6133  29.966   9.708   8.850
 3504POPC   GL2 6134  30.032   9.840   8.850
 3504POPC   C1A 6135  29.884   9.779   8.550
 3504POPC   D2A 6136  29.890   9.723   8.250
 3504POPC   C3A 6137  29.874   9.741   7.950
 3504POPC   C4A 6138  29.940   9.729   7.650
 3504POPC   C1B 6139  30.195   9.858   8.550
 3504POPC   C2B 6140  30.187   9.890   8.250
 3504POPC   C3B 6141  30.121   9.841   7.950
 3504POPC   C4B 6142  30.119   9.845   7.650
 3505POPC   NC3 6143  38.494  13.623   9.450
 3505POPC   PO4 6144  38.485  13.649   9.150
 3505POPC   GL1 6145  38.459  13.660   8.850
 3505POPC   GL2 6146  38.376  13.559   8.850
 3505POPC   C1A 6147  38.435  13.668   8.550
 3505POPC   D2A 6148  38.430  13.587   8.250
 3505POPC   C3A 6149  38.493  13.597   7.950
 3505POPC   C4A 6150  38.491  13.591   7.650
 3505POPC   C1B 6151  38.280  13.549   8.550
 3505POPC   C2B 6152  38.219  13.542   8.250
 3505POPC   C3B 6153  38.249  13.470   7.950
 3505POPC   C4B 6154  38.212  13.535   7.650
 3506POPC   NC3 6155  14.379  36.119   9.450
 3506POPC   PO4 6156  14.418  36.121   9.150
 3506POPC   GL1 6157  14.376  36.172   8.850
 3506POPC   GL2 6158  14.285  36.012   8.850
 3506POPC   C1A 6159  14.423  36.159   8.550
 3506POPC   D2A 6160  14.395  36.120   8.250
 3506POPC   C3A 6161  14.369  36.171   7.950
 3506POPC   C4A 6162  14.379  36.083   7.650
 3506POPC   C1B 6163  14.270  35.987   8.550
 3506POPC   C2B 6164  14.211  35.972   8.250
 3506POPC   C3B 6165  14.205  35.964   7.950
 3506POPC   C4B 6166  14.208  35.913   7.650
 3507POPC   NC3 6167  44.691  28.390   9.450
 3507POPC   PO4 6168  44.701  28.396   9.150
 3507POPC   GL1 6169  44.645  28.323   8.850
 3507POPC   GL2 6170  44.531  28.492   8.850
 3507POPC   C1A 6171  44.692  28.394   8.550
 3507POPC   D2A 6172  44.651  28.331   8.250
 3507POPC   C3A 6173  44.626  28.382   7.950
 3507POPC   C4A 6174  44.679  28.356   7.650
 3507POPC   C1B 6175  44.451  28.569   8.550
 3507POPC   C2B 6176  44.498  28.545   8.250
 3507POPC   C3B 6177  44.510  28.493   7.950
 3507POPC   C4B 6178  44.505  28.544   7.650
 3508POPC   NC3 6179   9.723  35.396   9.450
 3508POPC   PO4 6180   9.728  35.383   9.150
 3508POPC   GL1 6181   9.775  35.396   8.850
 3508POPC   GL2 6182   9.614  35.272   8.850
 3508POPC   C1A 6183   9.755  35.307   8.550
 3508POPC   D2A 6184   9.700  35.349   8.250
 3508POPC   C3A 6185   9.764  35.381   7.950
 3508POPC   C4A 6186   9.699  35.326   7.650
 3508POPC   C1B 6187   9.623  35.194   8.550
 3508POPC   C2B 6188   9.570  35.137   8.250
 3508POPC   C3B 6189   9.541  35.121   7.950
 3508POPC   C4B 6190   9.530  35.212   7.650
 3509POPC   NC3 6191  15.973  18.326   9.450
 3509POPC   PO4 6192  15.969  18.262   9.150
 3509POPC   GL1 6193  15.912  18.321   8.850
 3509POPC   GL2 6194  16.063  18.293   8.850
 3509POPC   C1A 6195  15.961  18.239   8.550
 3509POPC   D2A 6196  15.996  18.266   8.250
 3509POPC   C3A 6197  15.930  18.306   7.950
 3509POPC   C4A 6198  15.956  18.240   7.650
 3509POPC   C1B 6199  16.212  18.325   8.550
 3509POPC   C2B 6200  16.230  18.400   8.250
 3509POPC   C3B 6201  16.193  18.387   7.950
 3509POPC   C4B 6202  16.185  18.325   7.650
 3510POPC   NC3 6203   9.780  33.818   9.450
 3510POPC   PO4 6204   9.735  33.755   9.150
 3510POPC   GL1 6205   9.766  33.826   8.850
 3510POPC   GL2 6206   9.620  33.796   8.850
 3510POPC   C1A 6207   9.714  33.782   8.550
 3510POPC   D2A 6208   9.734  33.835   8.250
 3510POPC   C3A 6209   9.730  33.797   7.950
 3510POPC   C4A 6210   9.737  33.809   7.650
 3510POPC   C1B 6211   9.505  33.785   8.550
 3510POPC   C2B 6212   9.543  33.769   8.250
 3510POPC   C3B 6213   9.554  33.789   7.950
 3510POPC   C4B 6214   9.456  33.777   7.650
 3511POPC   NC3 6215   5.125  36.859   9.450
 3511POPC   PO4 6216   5.114  36.877   9.150
 3511POPC   GL1 6217   5.137  36.907   8.850
 3511POPC   GL2 6218   5.141  36.794   8.850
 3511POPC   C1A 6219   5.101  36.872   8.550
 3511POPC   D2A 6220   5.102  36.870   8.250
 3511POPC   C3A 6221   5.057  36.953   7.950
 3511POPC   C4A 6222   5.056  36.897   7.650
 3511POPC   C1B 6223   5.263  36.728   8.550
 3511POPC   C2B 6224   5.251  36.744   8.250
 3511POPC   C3B 6225   5.226  36.744   7.950
 3511POPC   C4B 6226   5.252  36.700   7.650
 3512POPC   NC3 6227  18.284  16.743   9.450
 3512POPC   PO4 6228  18.273  16.691   9.150
 3512POPC   GL1 6229  18.253  16.690   8.850
 3512POPC   GL2 6230  18.158  16.714   8.850
 3512POPC   C1A 6231  18.305  16.686   8.550
 3512POPC   D2A 6232  18.277  16.735   8.250
 3512POPC   C3A 6233  18.281  16.761   7.950
 3512POPC   C4A 6234  18.246  16.714   7.650
 3512POPC   C1B 6235  18.083  16.574   8.550
 3512POPC   C2B 6236  18.069  16.572   8.250
 3512POPC   C3B 6237  18.031  16.616   7.950
 3512POPC   C4B 6238  18.021  16.568   7.650
 3513POPC   NC3 6239  20.592  19.052   9.450
 3513POPC   PO4 6240  20.611  19.064   9.150
 3513POPC   GL1 6241  20.651  19.103   8.850
 3513POPC   GL2 6242  20.548  19.159   8.850
 3513POPC   C1A 6243  20.621  19.017   8.550
 3513POPC   D2A 6244  20.561  19.082   8.250
 3513POPC   C3A 6245  20.636  19.053   7.950
 3513POPC   C4A 6246  20.617  19.055   7.650
 3513POPC   C1B 6247  20.594  19.284   8.550
 3513POPC   C2B 6248  20.574  19.290   8.250
 3513POPC   C3B 6249  20.513  19.255   7.950
 3513POPC   C4B 6250  20.536  19.253   7.650
 3514POPC   NC3 6251  42.343   1.999   9.450
 3514POPC   PO4 6252  42.377   2.001   9.150
 3514POPC   GL1 6253  42.329   2.014   8.850
 3514POPC   GL2 6254  42.261   2.044   8.850
 3514POPC   C1A 6255  42.313   2.011   8.550
 3514POPC   D2A 6256  42.324   1.971   8.250
 3514POPC   C3A 6257  42.343   1.959   7.950
 3514POPC   C4A 6258  42.346   2.018   7.650
 3514POPC   C1B 6259  42.170   2.132   8.550
 3514POPC   C2B 6260  42.100   2.148   8.250
 3514POPC   C3B 6261  42.154   2.164   7.950
 3514POPC   C4B 6262  42.108   2.102   7.650
 3515POPC   NC3 6263   9.007  39.185   9.450
 3515POPC   PO4 6264   9.007  39.263   9.150
 3515POPC   GL1 6265   8.963  39.250   8.850
 3515POPC   GL2 6266   8.912  39.331   8.850
 3515POPC   C1A 6267   8.979  39.259   8.550
 3515POPC   D2A 6268   8.937  39.279   8.250
 3515POPC   C3A 6269   8.966  39.240   7.950
 3515POPC   C4A 6270   8.997  39.240   7.650
 3515POPC   C1B 6271   8.855  39.407   8.550
 3515POPC   C2B 6272   8.844  39.430   8.250
 3515POPC   C3B 6273   8.764  39.372   7.950
 3515POPC   C4B 6274   8.784  39.454   7.650
 3516POPC   NC3 6275  40.828  31.479   9.450
 3516POPC   PO4 6276  40.773  31.461   9.150
 3516POPC   GL1 6277  40.792  31.479   8.850
 3516POPC   GL2 6278  40.662  31.420   8.850
 3516POPC   C1A 6279  40.787  31.493   8.550
 3516POPC   D2A 6280  40.783  31.434   8.250
 3516POPC   C3A 6281  40.800  31.486   7.950
 3516POPC   C4A 6282  40.823  31.449   7.650
 3516POPC   C1B 6283  40.558  31.344   8.550
 3516POPC   C2B 6284  40.596  31.305   8.250
 3516POPC   C3B 6285  40.603  31.338   7.950
 3516POPC   C4B 6286  40.557  31.317   7.650
 3517POPC   NC3 6287   4.316  10.522   9.450
 3517POPC   PO4 6288   4.348  10.524   9.150
 3517POPC   GL1 6289   4.273  10.551   8.850
 3517POPC   GL2 6290   4.428  10.437   8.850
 3517POPC   C1A 6291   4.352  10.492   8.550
 3517POPC   D2A 6292   4.269  10.492   8.250
 3517POPC   C3A 6293   4.316  10.534   7.950
 3517POPC   C4A 6294   4.333  10.505   7.650
 3517POPC   C1B 6295   4.448  10.303   8.550
 3517POPC   C2B 6296   4.515  10.325   8.250
 3517POPC   C3B 6297   4.507  10.385   7.950
 3517POPC   C4B 6298   4.453  10.387   7.650
 3518POPC   NC3 6299   7.427   8.960   9.450
 3518POPC   PO4 6300   7.390   8.945   9.150
 3518POPC   GL1 6301   7.391   9.015   8.850
 3518POPC   GL2 6302   7.290   8.984   8.850
 3518POPC   C1A 6303   7.462   8.988   8.550
 3518POPC   D2A 6304   7.412   8.932   8.250
 3518POPC   C3A 6305   7.374   8.998   7.950
 3518POPC   C4A 6306   7.405   9.021   7.650
 3518POPC   C1B 6307   7.140   9.026   8.550
 3518POPC   C2B 6308   7.128   8.989   8.250
 3518POPC   C3B 6309   7.199   8.957   7.950
 3518POPC   C4B 6310   7.198   8.994   7.650
 3519POPC   NC3 6311  35.347  16.751   9.450
 3519POPC   PO4 6312  35.378  16.722   9.150
 3519POPC   GL1 6313  35.334  16.735   8.850
 3519POPC   GL2 6314  35.326  16.847   8.850
 3519POPC   C1A 6315  35.380  16.757   8.550
 3519POPC   D2A 6316  35.359  16.707   8.250
 3519POPC   C3A 6317  35.389  16.777   7.950
 3519POPC   C4A 6318  35.328  16.688   7.650
 3519POPC   C1B 6319  35.277  16.982   8.550
 3519POPC   C2B 6320  35.350  16.974   8.250
 3519POPC   C3B 6321  35.303  16.945   7.950
 3519POPC   C4B 6322  35.361  16.947   7.650
 3520POPC   NC3 6323  19.802  40.047   9.450
 3520POPC   PO4 6324  19.848  40.010   9.150
 3520POPC   GL1 6325  19.865  40.036   8.850
 3520POPC   GL2 6326  19.729  39.968   8.850
 3520POPC   C1A 6327  19.795  39.984   8.550
 3520POPC   D2A 6328  19.874  40.054   8.250
 3520POPC   C3A 6329  19.866  40.030   7.950
 3520POPC   C4A 6330  19.865  40.037   7.650
 3520POPC   C1B 6331  19.571  39.931   8.550
 3520POPC   C2B 6332  19.618  40.001   8.250
 3520POPC   C3B 6333  19.604  40.004   7.950
 3520POPC   C4B 6334  19.597  39.998   7.650
 3521POPC   NC3 6335  27.563  43.095   9.450
 3521POPC   PO4 6336  27.598  43.066   9.150
 3521POPC   GL1 6337  27.583  43.134   8.850
 3521POPC   GL2 6338  27.510  43.219   8.850
 3521POPC   C1A 6339  27.592  43.085   8.550
 3521POPC   D2A 6340  27.590  43.081   8.250
 3521POPC   C3A 6341  27.577  43.110   7.950
 3521POPC   C4A 6342  27.582  43.101   7.650
 3521POPC   C1B 6343  27.472  43.352   8.550
 3521POPC   C2B 6344  27.443  43.287   8.250
 3521POPC   C3B 6345  27.511  43.345   7.950
 3521POPC   C4B 6346  27.492  43.336   7.650
 3522POPC   NC3 6347  36.094   4.345   9.450
 3522POPC   PO4 6348  36.117   4.320   9.150
 3522POPC   GL1 6349  36.176   4.317   8.850
 3522POPC   GL2 6350  35.970   4.356   8.850
 3522POPC   C1A 6351  36.136   4.366   8.550
 3522POPC   D2A 6352  36.089   4.305   8.250
 3522POPC   C3A 6353  36.154   4.291   7.950
 3522POPC   C4A 6354  36.108   4.270   7.650
 3522POPC   C1B 6355  35.838   4.364   8.550
 3522POPC   C2B 6356  35.891   4.330   8.250
 3522POPC   C3B 6357  35.910   4.362   7.950
 3522POPC   C4B 6358  35.872   4.393   7.650
 3523POPC   NC3 6359  32.242  24.491   9.450
 3523POPC   PO4 6360  32.223  24.496   9.150
 3523POPC   GL1 6361  32.270  24.503   8.850
 3523POPC   GL2 6362  32.144  24.462   8.850
 3523POPC   C1A 6363  32.238  24.449   8.550
 3523POPC   D2A 6364  32.261  24.534   8.250
 3523POPC   C3A 6365  32.295  24.534   7.950
 3523POPC   C4A 6366  32.276  24.472   7.650
 3523POPC   C1B 6367  32.077  24.382   8.550
 3523POPC   C2B 6368  32.052  24.316   8.250
 3523POPC   C3B 6369  32.082  24.408   7.950
 3523POPC   C4B 6370  32.033  24.383   7.650
 3524POPC   NC3 6371   6.603   4.339   9.450
 3524POPC   PO4 6372   6.653   4.321   9.150
 3524POPC   GL1 6373   6.689   4.292   8.850
 3524POPC   GL2 6374   6.638   4.429   8.850
 3524POPC   C1A 6375   6.614   4.308   8.550
 3524POPC   D2A 6376   6.598   4.286   8.250
 3524POPC   C3A 6377   6.688   4.269   7.950
 3524POPC   C4A 6378   6.610   4.354   7.650
 3524POPC   C1B 6379   6.578   4.555   8.550
 3524POPC   C2B 6380   6.603   4.588   8.250
 3524POPC   C3B 6381   6.604   4.588   7.950
 3524POPC   C4B 6382   6.625   4.541   7.650
 3525POPC   NC3 6383  14.417  29.886   9.450
 3525POPC   PO4 6384  14.442  29.903   9.150
 3525POPC   GL1 6385  14.397  29.940   8.850
 3525POPC   GL2 6386  14.462  29.879   8.850
 3525POPC   C1A 6387  14.404  29.909   8.550
 3525POPC   D2A 6388  14.443  29.938   8.250
 3525POPC   C3A 6389  14.447  29.934   7.950
 3525POPC   C4A 6390  14.367  29.880   7.650
 3525POPC   C1B 6391  14.562  29.798   8.550
 3525POPC   C2B 6392  14.602  29.760   8.250
 3525POPC   C3B 6393  14.628  29.790   7.950
 3525POPC   C4B 6394  14.633  29.744   7.650
 3526POPC   NC3 6395  29.919   8.994   9.450
 3526POPC   PO4 6396  29.934   8.926   9.150
 3526POPC   GL1 6397  29.893   8.945   8.850
 3526POPC   GL2 6398  29.836   8.851   8.850
 3526POPC   C1A 6399  29.906   8.937   8.550
 3526POPC   D2A 6400  29.914   8.979   8.250
 3526POPC   C3A 6401  29.925   8.973   7.950
 3526POPC   C4A 6402  29.948   8.939   7.650
 3526POPC   C1B 6403  29.720   8.840   8.550
 3526POPC   C2B 6404  29.760   8.858   8.250
 3526POPC   C3B 6405  29.694   8.846   7.950
 3526POPC   C4B 6406  29.746   8.853   7.650
 3527POPC   NC3 6407  32.989  25.292   9.450
 3527POPC   PO4 6408  32.988  25.291   9.150
 3527POPC   GL1 6409  33.019  25.270   8.850
 3527POPC   GL2 6410  33.156  25.315   8.850
 3527POPC   C1A 6411  32.977  25.295   8.550
 3527POPC   D2A 6412  32.999  25.297   8.250
 3527POPC   C3A 6413  32.998  25.304   7.950
 3527POPC   C4A 6414  33.072  25.303   7.650
 3527POPC   C1B 6415  33.208  25.394   8.550
 3527POPC   C2B 6416  33.246  25.383   8.250
 3527POPC   C3B 6417  33.267  25.374   7.950
 3527POPC   C4B 6418  33.289  25.381   7.650
 3528POPC   NC3 6419  29.126  35.328   9.450
 3528POPC   PO4 6420  29.113  35.332   9.150
 3528POPC   GL1 6421  29.164  35.313   8.850
 3528POPC   GL2 6422  29.063  35.460   8.850
 3528POPC   C1A 6423  29.154  35.322   8.550
 3528POPC   D2A 6424  29.099  35.365   8.250
 3528POPC   C3A 6425  29.176  35.393   7.950
 3528POPC   C4A 6426  29.163  35.399   7.650
 3528POPC   C1B 6427  28.929  35.441   8.550
 3528POPC   C2B 6428  28.936  35.492   8.250
 3528POPC   C3B 6429  28.933  35.470   7.950
 3528POPC   C4B 6430  28.900  35.437   7.650
 3529POPC   NC3 6431  34.566  41.542   9.450
 3529POPC   PO4 6432  34.624  41.562   9.150
 3529POPC   GL1 6433  34.561  41.529   8.850
 3529POPC   GL2 6434  34.635  41.473   8.850
 3529POPC   C1A 6435  34.536  41.536   8.550
 3529POPC   D2A 6436  34.550  41.586   8.250
 3529POPC   C3A 6437  34.579  41.529   7.950
 3529POPC   C4A 6438  34.581  41.587   7.650
 3529POPC   C1B 6439  34.723  41.405   8.550
 3529POPC   C2B 6440  34.731  41.368   8.250
 3529POPC   C3B 6441  34.771  41.401   7.950
 3529POPC   C4B 6442  34.700  41.361   7.650
 3530POPC   NC3 6443  25.225   2.038   9.450
 3530POPC   PO4 6444  25.301   2.017   9.150
 3530POPC   GL1 6445  25.272   1.954   8.850
 3530POPC   GL2 6446  25.323   1.892   8.850
 3530POPC   C1A 6447  25.295   1.985   8.550
 3530POPC   D2A 6448  25.239   2.038   8.250
 3530POPC   C3A 6449  25.310   1.955   7.950
 3530POPC   C4A 6450  25.273   2.004   7.650
 3530POPC   C1B 6451  25.515   1.885   8.550
 3530POPC   C2B 6452  25.502   1.902   8.250
 3530POPC   C3B 6453  25.481   1.813   7.950
 3530POPC   C4B 6454  25.520   1.860   7.650
 3531POPC   NC3 6455   7.452  34.616   9.450
 3531POPC   PO4 6456   7.417  34.616   9.150
 3531POPC   GL1 6457   7.386  34.592   8.850
 3531POPC   GL2 6458   7.527  34.554   8.850
 3531POPC   C1A 6459   7.402  34.575   8.550
 3531POPC   D2A 6460   7.446  34.603   8.250
 3531POPC   C3A 6461   7.386  34.562   7.950
 3531POPC   C4A 6462   7.371  34.539   7.650
 3531POPC   C1B 6463   7.692  34.524   8.550
 3531POPC   C2B 6464   7.715  34.563   8.250
 3531POPC   C3B 6465   7.629  34.601   7.950
 3531POPC   C4B 6466   7.624  34.578   7.650
 3532POPC   NC3 6467   8.164  12.111   9.450
 3532POPC   PO4 6468   8.186  12.118   9.150
 3532POPC   GL1 6469   8.196  12.051   8.850
 3532POPC   GL2 6470   8.026  12.044   8.850
 3532POPC   C1A 6471   8.217  12.112   8.550
 3532POPC   D2A 6472   8.197  12.089   8.250
 3532POPC   C3A 6473   8.235  12.086   7.950
 3532POPC   C4A 6474   8.193  12.102   7.650
 3532POPC   C1B 6475   7.958  12.067   8.550
 3532POPC   C2B 6476   7.990  12.008   8.250
 3532POPC   C3B 6477   7.944  12.024   7.950
 3532POPC   C4B 6478   7.898  12.098   7.650
 3533POPC   NC3 6479  40.764   1.208   9.450
 3533POPC   PO4 6480  40.829   1.249   9.150
 3533POPC   GL1 6481  40.755   1.209   8.850
 3533POPC   GL2 6482  40.784   1.378   8.850
 3533POPC   C1A 6483  40.777   1.248   8.550
 3533POPC   D2A 6484  40.805   1.245   8.250
 3533POPC   C3A 6485  40.759   1.231   7.950
 3533POPC   C4A 6486  40.745   1.178   7.650
 3533POPC   C1B 6487  40.814   1.501   8.550
 3533POPC   C2B 6488  40.862   1.477   8.250
 3533POPC   C3B 6489  40.849   1.474   7.950
 3533POPC   C4B 6490  40.823   1.438   7.650
 3534POPC   NC3 6491  18.297   5.086   9.450
 3534POPC   PO4 6492  18.332   5.099   9.150
 3534POPC   GL1 6493  18.251   5.076   8.850
 3534POPC   GL2 6494  18.238   5.198   8.850
 3534POPC   C1A 6495  18.287   5.063   8.550
 3534POPC   D2A 6496  18.238   5.067   8.250
 3534POPC   C3A 6497  18.260   5.111   7.950
 3534POPC   C4A 6498  18.250   5.122   7.650
 3534POPC   C1B 6499  18.181   5.324   8.550
 3534POPC   C2B 6500  18.213   5.359   8.250
 3534POPC   C3B 6501  18.179   5.290   7.950
 3534POPC   C4B 6502  18.168   5.339   7.650
 3535POPC   NC3 6503  40.027   6.644   9.450
 3535POPC   PO4 6504  39.960   6.602   9.150
 3535POPC   GL1 6505  40.047   6.621   8.850
 3535POPC   GL2 6506  40.096   6.713   8.850
 3535POPC   C1A 6507  40.001   6.631   8.550
 3535POPC   D2A 6508  40.050   6.681   8.250
 3535POPC   C3A 6509  40.021   6.679   7.950
 3535POPC   C4A 6510  40.030   6.654   7.650
 3535POPC   C1B 6511  40.260   6.699   8.550
 3535POPC   C2B 6512  40.191   6.707   8.250
 3535POPC   C3B 6513  40.263   6.775   7.950
 3535POPC   C4B 6514  40.252   6.709   7.650
 3536POPC   NC3 6515  15.999  29.160   9.450
 3536POPC   PO4 6516  15.981  29.112   9.150
 3536POPC   GL1 6517  15.971  29.107   8.850
 3536POPC   GL2 6518  16.046  29.260   8.850
 3536POPC   C1A 6519  15.957  29.178   8.550
 3536POPC   D2A 6520  15.940  29.119   8.250
 3536POPC   C3A 6521  15.981  29.150   7.950
 3536POPC   C4A 6522  15.944  29.155   7.650
 3536POPC   C1B 6523  16.057  29.313   8.550
 3536POPC   C2B 6524  16.058  29.345   8.250
 3536POPC   C3B 6525  16.056  29.323   7.950
 3536POPC   C4B 6526  16.086  29.340   7.650
 3537POPC   NC3 6527   6.664   9.719   9.450
 3537POPC   PO4 6528   6.643   9.707   9.150
 3537POPC   GL1 6529   6.655   9.722   8.850
 3537POPC   GL2 6530   6.778   9.707   8.850
 3537POPC   C1A 6531   6.650   9.798   8.550
 3537POPC   D2A 6532   6.636   9.740   8.250
 3537POPC   C3A 6533   6.636   9.761   7.950
 3537POPC   C4A 6534   6.604   9.706   7.650
 3537POPC   C1B 6535   6.862   9.625   8.550
 3537POPC   C2B 6536   6.870   9.600   8.250
 3537POPC   C3B 6537   6.854   9.597   7.950
 3537POPC   C4B 6538   6.794   9.595   7.650
 3538POPC   NC3 6539  15.918  40.032   9.450
 3538POPC   PO4 6540  15.941  40.025   9.150
 3538POPC   GL1 6541  15.933  39.996   8.850
 3538POPC   GL2 6542  15.844  39.952   8.850
 3538POPC   C1A 6543  16.005  39.977   8.550
 3538POPC   D2A 6544  15.949  40.025   8.250
 3538POPC   C3A 6545  15.923  40.017   7.950
 3538POPC   C4A 6546  15.968  39.959   7.650
 3538POPC   C1B 6547  15.741  39.947   8.550
 3538POPC   C2B 6548  15.688  39.933   8.250
 3538POPC   C3B 6549  15.726  40.021   7.950
 3538POPC   C4B 6550  15.717  40.004   7.650
 3539POPC   NC3 6551  26.863  15.225   9.450
 3539POPC   PO4 6552  26.827  15.145   9.150
 3539POPC   GL1 6553  26.797  15.218   8.850
 3539POPC   GL2 6554  26.823  15.078   8.850
 3539POPC   C1A 6555  26.845  15.178   8.550
 3539POPC   D2A 6556  26.836  15.174   8.250
 3539POPC   C3A 6557  26.855  15.215   7.950
 3539POPC   C4A 6558  26.815  15.195   7.650
 3539POPC   C1B 6559  26.901  14.903   8.550
 3539POPC   C2B 6560  26.810  14.942   8.250
 3539POPC   C3B 6561  26.902  14.917   7.950
 3539POPC   C4B 6562  26.844  14.895   7.650
 3540POPC   NC3 6563  44.619  35.381   9.450
 3540POPC   PO4 6564  44.708  35.315   9.150
 3540POPC   GL1 6565  44.623  35.302   8.850
 3540POPC   GL2 6566  44.717  35.254   8.850
 3540POPC   C1A 6567  44.639  35.302   8.550
 3540POPC   D2A 6568  44.633  35.390   8.250
 3540POPC   C3A 6569  44.621  35.306   7.950
 3540POPC   C4A 6570  44.690  35.394   7.650
 3540POPC   C1B 6571  44.889  35.208   8.550
 3540POPC   C2B 6572  44.811  35.187   8.250
 3540POPC   C3B 6573  44.824  35.182   7.950
 3540POPC   C4B 6574  44.862  35.151   7.650
 3541POPC   NC3 6575  26.058  13.609   9.450
 3541POPC   PO4 6576  25.996  13.578   9.150
 3541POPC   GL1 6577  25.994  13.641   8.850
 3541POPC   GL2 6578  26.171  13.708   8.850
 3541POPC   C1A 6579  26.006  13.611   8.550
 3541POPC   D2A 6580  26.091  13.668   8.250
 3541POPC   C3A 6581  25.999  13.584   7.950
 3541POPC   C4A 6582  26.051  13.629   7.650
 3541POPC   C1B 6583  26.250  13.713   8.550
 3541POPC   C2B 6584  26.258  13.754   8.250
 3541POPC   C3B 6585  26.221  13.788   7.950
 3541POPC   C4B 6586  26.289  13.717   7.650
 3542POPC   NC3 6587  22.902  42.320   9.450
 3542POPC   PO4 6588  22.984  42.356   9.150
 3542POPC   GL1 6589  22.890  42.299   8.850
 3542POPC   GL2 6590  22.917  42.162   8.850
 3542POPC   C1A 6591  22.911  42.288   8.550
 3542POPC   D2A 6592  22.898  42.318   8.250
 3542POPC   C3A 6593  22.968  42.302   7.950
 3542POPC   C4A 6594  22.942  42.381   7.650
 3542POPC   C1B 6595  22.926  42.096   8.550
 3542POPC   C2B 6596  22.949  42.099   8.250
 3542POPC   C3B 6597  22.912  42.111   7.950
 3542POPC   C4B 6598  22.982  42.090   7.650
 3543POPC   NC3 6599  38.459  11.347   9.450
 3543POPC   PO4 6600  38.497  11.295   9.150
 3543POPC   GL1 6601  38.496  11.337   8.850
 3543POPC   GL2 6602  38.336  11.329   8.850
 3543POPC   C1A 6603  38.413  11.274   8.550
 3543POPC   D2A 6604  38.485  11.313   8.250
 3543POPC   C3A 6605  38.484  11.329   7.950
 3543POPC   C4A 6606  38.467  11.269   7.650
 3543POPC   C1B 6607  38.250  11.424   8.550
 3543POPC   C2B 6608  38.237  11.435   8.250
 3543POPC   C3B 6609  38.245  11.455   7.950
 3543POPC   C4B 6610  38.274  11.436   7.650
 3544POPC   NC3 6611  19.832  32.215   9.450
 3544POPC   PO4 6612  19.829  32.270   9.150
 3544POPC   GL1 6613  19.789  32.207   8.850
 3544POPC   GL2 6614  19.727  32.272   8.850
 3544POPC   C1A 6615  19.834  32.284   8.550
 3544POPC   D2A 6616  19.875  32.253   8.250
 3544POPC   C3A 6617  19.830  32.250   7.950
 3544POPC   C4A 6618  19.832  32.256   7.650
 3544POPC   C1B 6619  19.605  32.221   8.550
 3544POPC   C2B 6620  19.578  32.223   8.250
 3544POPC   C3B 6621  19.585  32.265   7.950
 3544POPC   C4B 6622  19.589  32.206   7.650
 3545POPC   NC3 6623  28.410  32.268   9.450
 3545POPC   PO4 6624  28.406  32.214   9.150
 3545POPC   GL1 6625  28.376  32.200   8.850
 3545POPC   GL2 6626  28.541  32.181   8.850
 3545POPC   C1A 6627  28.337  32.241   8.550
 3545POPC   D2A 6628  28.404  32.230   8.250
 3545POPC   C3A 6629  28.349  32.215   7.950
 3545POPC   C4A 6630  28.377  32.297   7.650
 3545POPC   C1B 6631  28.600  32.221   8.550
 3545POPC   C2B 6632  28.603  32.196   8.250
 3545POPC   C3B 6633  28.586  32.216   7.950
 3545POPC   C4B 6634  28.597  32.225   7.650
 3546POPC   NC3 6635   5.090  40.039   9.450
 3546POPC   PO4 6636   5.092  40.004   9.150
 3546POPC   GL1 6637   5.139  40.028   8.850
 3546POPC   GL2 6638   5.018  39.967   8.850
 3546POPC   C1A 6639   5.136  39.979   8.550
 3546POPC   D2A 6640   5.118  40.003   8.250
 3546POPC   C3A 6641   5.107  40.011   7.950
 3546POPC   C4A 6642   5.115  40.041   7.650
 3546POPC   C1B 6643   4.890  39.958   8.550
 3546POPC   C2B 6644   4.856  39.904   8.250
 3546POPC   C3B 6645   4.870  39.918   7.950
 3546POPC   C4B 6646   4.837  39.963   7.650
 3547POPC   NC3 6647  29.959  36.090   9.450
 3547POPC   PO4 6648  29.909  36.093   9.150
 3547POPC   GL1 6649  29.961  36.081   8.850
 3547POPC   GL2 6650  29.785  36.127   8.850
 3547POPC   C1A 6651  29.914  36.101   8.550
 3547POPC   D2A 6652  29.903  36.121   8.250
 3547POPC   C3A 6653  29.912  36.140   7.950
 3547POPC   C4A 6654  29.935  36.144   7.650
 3547POPC   C1B 6655  29.667  36.113   8.550
 3547POPC   C2B 6656  29.676  36.062   8.250
 3547POPC   C3B 6657  29.672  36.099   7.950
 3547POPC   C4B 6658  29.694  36.048   7.650
 3548POPC   NC3 6659  41.514  31.497   9.450
 3548POPC   PO4 6660  41.521  31.478   9.150
 3548POPC   GL1 6661  41.522  31.484   8.850
 3548POPC   GL2 6662  41.729  31.456   8.850
 3548POPC   C1A 6663  41.529  31.521   8.550
 3548POPC   D2A 6664  41.599  31.487   8.250
 3548POPC   C3A 6665  41.548  31.480   7.950
 3548POPC   C4A 6666  41.531  31.439   7.650
 3548POPC   C1B 6667  41.786  31.471   8.550
 3548POPC   C2B 6668  41.798  31.490   8.250
 3548POPC   C3B 6669  41.844  31.469   7.950
 3548POPC   C4B 6670  41.764  31.463   7.650
 3549POPC   NC3 6671  39.249  31.462   9.450
 3549POPC   PO4 6672  39.256  31.427   9.150
 3549POPC   GL1 6673  39.273  31.519   8.850
 3549POPC   GL2 6674  39.100  31.527   8.850
 3549POPC   C1A 6675  39.260  31.470   8.550
 3549POPC   D2A 6676  39.222  31.460   8.250
 3549POPC   C3A 6677  39.242  31.463   7.950
 3549POPC   C4A 6678  39.263  31.522   7.650
 3549POPC   C1B 6679  39.033  31.621   8.550
 3549POPC   C2B 6680  39.006  31.658   8.250
 3549POPC   C3B 6681  39.070  31.670   7.950
 3549POPC   C4B 6682  39.053  31.621   7.650
 3550POPC   NC3 6683  39.188   0.392   9.450
 3550POPC   PO4 6684  39.207   0.398   9.150
 3550POPC   GL1 6685  39.229   0.425   8.850
 3550POPC   GL2 6686  39.262   0.339   8.850
 3550POPC   C1A 6687  39.261   0.429   8.550
 3550POPC   D2A 6688  39.270   0.436   8.250
 3550POPC   C3A 6689  39.199   0.464   7.950
 3550POPC   C4A 6690  39.242   0.407   7.650
 3550POPC   C1B 6691  39.302   0.259   8.550
 3550POPC   C2B 6692  39.350   0.182   8.250
 3550POPC   C3B 6693  39.365   0.199   7.950
 3550POPC   C4B 6694  39.304   0.232   7.650
 3551POPC   NC3 6695   5.867  21.370   9.450
 3551POPC   PO4 6696   5.877  21.398   9.150
 3551POPC   GL1 6697   5.876  21.415   8.850
 3551POPC   GL2 6698   5.898  21.314   8.850
 3551POPC   C1A 6699   5.905  21.399   8.550
 3551POPC   D2A 6700   5.826  21.393   8.250
 3551POPC   C3A 6701   5.855  21.361   7.950
 3551POPC   C4A 6702   5.877  21.345   7.650
 3551POPC   C1B 6703   5.966  21.168   8.550
 3551POPC   C2B 6704   5.875  21.105   8.250
 3551POPC   C3B 6705   5.962  21.153   7.950
 3551POPC   C4B 6706   5.949  21.151   7.650
 3552POPC   NC3 6707  16.697   3.515   9.450
 3552POPC   PO4 6708  16.720   3.574   9.150
 3552POPC   GL1 6709  16.717   3.544   8.850
 3552POPC   GL2 6710  16.669   3.491   8.850
 3552POPC   C1A 6711  16.732   3.586   8.550
 3552POPC   D2A 6712  16.711   3.511   8.250
 3552POPC   C3A 6713  16.705   3.508   7.950
 3552POPC   C4A 6714  16.775   3.545   7.650
 3552POPC   C1B 6715  16.545   3.335   8.550
 3552POPC   C2B 6716  16.539   3.371   8.250
 3552POPC   C3B 6717  16.519   3.420   7.950
 3552POPC   C4B 6718  16.519   3.345   7.650
 3553POPC   NC3 6719  32.251  34.600   9.450
 3553POPC   PO4 6720  32.218  34.567   9.150
 3553POPC   GL1 6721  32.231  34.580   8.850
 3553POPC   GL2 6722  32.214  34.714   8.850
 3553POPC   C1A 6723  32.266  34.595   8.550
 3553POPC   D2A 6724  32.230  34.617   8.250
 3553POPC   C3A 6725  32.290  34.605   7.950
 3553POPC   C4A 6726  32.212  34.621   7.650
 3553POPC   C1B 6727  32.226  34.780   8.550
 3553POPC   C2B 6728  32.193  34.857   8.250
 3553POPC   C3B 6729  32.192  34.792   7.950
 3553POPC   C4B 6730  32.236  34.847   7.650
 3554POPC   NC3 6731   8.229  27.629   9.450
 3554POPC   PO4 6732   8.231  27.577   9.150
 3554POPC   GL1 6733   8.204  27.630   8.850
 3554POPC   GL2 6734   8.120  27.612   8.850
 3554POPC   C1A 6735   8.218  27.636   8.550
 3554POPC   D2A 6736   8.231  27.601   8.250
 3554POPC   C3A 6737   8.175  27.635   7.950
 3554POPC   C4A 6738   8.241  27.555   7.650
 3554POPC   C1B 6739   7.959  27.636   8.550
 3554POPC   C2B 6740   7.959  27.545   8.250
 3554POPC   C3B 6741   7.936  27.610   7.950
 3554POPC   C4B 6742   7.907  27.626   7.650
 3555POPC   NC3 6743   9.001  19.868   9.450
 3555POPC   PO4 6744   8.955  19.830   9.150
 3555POPC   GL1 6745   8.976  19.883   8.850
 3555POPC   GL2 6746   9.077  19.859   8.850
 3555POPC   C1A 6747   8.976  19.843   8.550
 3555POPC   D2A 6748   8.984  19.812   8.250
 3555POPC   C3A 6749   9.011  19.801   7.950
 3555POPC   C4A 6750   8.989  19.792   7.650
 3555POPC   C1B 6751   9.173  19.763   8.550
 3555POPC   C2B 6752   9.186  19.831   8.250
 3555POPC   C3B 6753   9.179  19.806   7.950
 3555POPC   C4B 6754   9.190  19.748   7.650
 3556POPC   NC3 6755  22.922  12.083   9.450
 3556POPC   PO4 6756  22.979  12.026   9.150
 3556POPC   GL1 6757  22.983  12.092   8.850
 3556POPC   GL2 6758  23.004  12.054   8.850
 3556POPC   C1A 6759  22.963  12.120   8.550
 3556POPC   D2A 6760  22.967  12.047   8.250
 3556POPC   C3A 6761  22.913  12.095   7.950
 3556POPC   C4A 6762  22.951  12.061   7.650
 3556POPC   C1B 6763  23.128  11.926   8.550
 3556POPC   C2B 6764  23.115  11.958   8.250
 3556POPC   C3B 6765  23.143  11.913   7.950
 3556POPC   C4B 6766  23.209  11.963   7.650
 3557POPC   NC3 6767  25.273  44.631   9.450
 3557POPC   PO4 6768  25.220  44.663   9.150
 3557POPC   GL1 6769  25.257  44.644   8.850
 3557POPC   GL2 6770  25.140  44.600   8.850
 3557POPC   C1A 6771  25.284  44.614   8.550
 3557POPC   D2A 6772  25.257  44.675   8.250
 3557POPC   C3A 6773  25.232  44.632   7.950
 3557POPC   C4A 6774  25.256  44.628   7.650
 3557POPC   C1B 6775  25.111  44.480   8.550
 3557POPC   C2B 6776  25.028  44.526   8.250
 3557POPC   C3B 6777  25.091  44.506   7.950
 3557POPC   C4B 6778  25.104  44.527   7.650
 3558POPC   NC3 6779  37.683  34.540   9.450
 3558POPC   PO4 6780  37.685  34.595   9.150
 3558POPC   GL1 6781  37.637  34.552   8.850
 3558POPC   GL2 6782  37.578  34.594   8.850
 3558POPC   C1A 6783  37.695  34.560   8.550
 3558POPC   D2A 6784  37.728  34.623   8.250
 3558POPC   C3A 6785  37.727  34.565   7.950
 3558POPC   C4A 6786  37.704  34.553   7.650
 3558POPC   C1B 6787  37.483  34.708   8.550
 3558POPC   C2B 6788  37.495  34.716   8.250
 3558POPC   C3B 6789  37.494  34.645   7.950
 3558POPC   C4B 6790  37.486  34.706   7.650
 3559POPC   NC3 6791  36.866   9.725   9.450
 3559POPC   PO4 6792  36.927   9.756   9.150
 3559POPC   GL1 6793  36.857   9.748   8.850
 3559POPC   GL2 6794  36.911   9.672   8.850
 3559POPC   C1A 6795  36.928   9.707   8.550
 3559POPC   D2A 6796  36.952   9.770   8.250
 3559POPC   C3A 6797  36.874   9.745   7.950
 3559POPC   C4A 6798  36.864   9.727   7.650
 3559POPC   C1B 6799  36.850   9.542   8.550
 3559POPC   C2B 6800  36.908   9.467   8.250
 3559POPC   C3B 6801  36.849   9.460   7.950
 3559POPC   C4B 6802  36.895   9.538   7.650
 3560POPC   NC3 6803   1.194  12.072   9.450
 3560POPC   PO4 6804   1.181  12.039   9.150
 3560POPC   GL1 6805   1.226  12.076   8.850
 3560POPC   GL2 6806   1.130  11.961   8.850
 3560POPC   C1A 6807   1.216  12.087   8.550
 3560POPC   D2A 6808   1.188  12.122   8.250
 3560POPC   C3A 6809   1.239  12.098   7.950
 3560POPC   C4A 6810   1.180  12.090   7.650
 3560POPC   C1B 6811   1.085  11.841   8.550
 3560POPC   C2B 6812   1.072  11.838   8.250
 3560POPC   C3B 6813   1.020  11.919   7.950
 3560POPC   C4B 6814   1.044  11.847   7.650
 3561POPC   NC3 6815  27.642   1.226   9.450
 3561POPC   PO4 6816  27.599   1.236   9.150
 3561POPC   GL1 6817  27.576   1.191   8.850
 3561POPC   GL2 6818  27.648   1.362   8.850
 3561POPC   C1A 6819  27.626   1.231   8.550
 3561POPC   D2A 6820  27.556   1.225   8.250
 3561POPC   C3A 6821  27.551   1.176   7.950
 3561POPC   C4A 6822  27.615   1.214   7.650
 3561POPC   C1B 6823  27.668   1.506   8.550
 3561POPC   C2B 6824  27.649   1.470   8.250
 3561POPC   C3B 6825  27.641   1.430   7.950
 3561POPC   C4B 6826  27.634   1.463   7.650
 3562POPC   NC3 6827   8.208  17.555   9.450
 3562POPC   PO4 6828   8.209  17.507   9.150
 3562POPC   GL1 6829   8.235  17.483   8.850
 3562POPC   GL2 6830   8.290  17.615   8.850
 3562POPC   C1A 6831   8.195  17.460   8.550
 3562POPC   D2A 6832   8.219  17.546   8.250
 3562POPC   C3A 6833   8.199  17.469   7.950
 3562POPC   C4A 6834   8.190  17.547   7.650
 3562POPC   C1B 6835   8.318  17.761   8.550
 3562POPC   C2B 6836   8.341  17.692   8.250
 3562POPC   C3B 6837   8.300  17.685   7.950
 3562POPC   C4B 6838   8.304  17.690   7.650
 3563POPC   NC3 6839   8.219  42.286   9.450
 3563POPC   PO4 6840   8.221  42.287   9.150
 3563POPC   GL1 6841   8.221  42.331   8.850
 3563POPC   GL2 6842   8.099  42.194   8.850
 3563POPC   C1A 6843   8.181  42.324   8.550
 3563POPC   D2A 6844   8.219  42.349   8.250
 3563POPC   C3A 6845   8.153  42.312   7.950
 3563POPC   C4A 6846   8.173  42.308   7.650
 3563POPC   C1B 6847   8.043  42.146   8.550
 3563POPC   C2B 6848   8.099  42.120   8.250
 3563POPC   C3B 6849   8.065  42.129   7.950
 3563POPC   C4B 6850   8.103  42.065   7.650
 3564POPC   NC3 6851  39.257  36.164   9.450
 3564POPC   PO4 6852  39.196  36.121   9.150
 3564POPC   GL1 6853  39.209  36.108   8.850
 3564POPC   GL2 6854  39.108  36.269   8.850
 3564POPC   C1A 6855  39.238  36.151   8.550
 3564POPC   D2A 6856  39.261  36.081   8.250
 3564POPC   C3A 6857  39.228  36.168   7.950
 3564POPC   C4A 6858  39.229  36.165   7.650
 3564POPC   C1B 6859  39.090  36.349   8.550
 3564POPC   C2B 6860  39.079  36.271   8.250
 3564POPC   C3B 6861  39.033  36.292   7.950
 3564POPC   C4B 6862  39.106  36.353   7.650
 3565POPC   NC3 6863  35.343   3.497   9.450
 3565POPC   PO4 6864  35.356   3.510   9.150
 3565POPC   GL1 6865  35.346   3.516   8.850
 3565POPC   GL2 6866  35.200   3.552   8.850
 3565POPC   C1A 6867  35.322   3.586   8.550
 3565POPC   D2A 6868  35.376   3.509   8.250
 3565POPC   C3A 6869  35.373   3.500   7.950
 3565POPC   C4A 6870  35.310   3.564   7.650
 3565POPC   C1B 6871  35.161   3.514   8.550
 3565POPC   C2B 6872  35.066   3.494   8.250
 3565POPC   C3B 6873  35.083   3.488   7.950
 3565POPC   C4B 6874  35.079   3.518   7.650
 3566POPC   NC3 6875  23.684   8.218   9.450
 3566POPC   PO4 6876  23.735   8.164   9.150
 3566POPC   GL1 6877  23.748   8.187   8.850
 3566POPC   GL2 6878  23.784   8.116   8.850
 3566POPC   C1A 6879  23.759   8.206   8.550
 3566POPC   D2A 6880  23.688   8.214   8.250
 3566POPC   C3A 6881  23.670   8.161   7.950
 3566POPC   C4A 6882  23.735   8.218   7.650
 3566POPC   C1B 6883  23.955   8.042   8.550
 3566POPC   C2B 6884  23.948   8.120   8.250
 3566POPC   C3B 6885  23.894   8.123   7.950
 3566POPC   C4B 6886  23.963   8.093   7.650
 3567POPC   NC3 6887   3.556  26.050   9.450
 3567POPC   PO4 6888   3.579  26.077   9.150
 3567POPC   GL1 6889   3.552  26.047   8.850
 3567POPC   GL2 6890   3.503  25.884   8.850
 3567POPC   C1A 6891   3.576  26.055   8.550
 3567POPC   D2A 6892   3.551  26.079   8.250
 3567POPC   C3A 6893   3.525  26.078   7.950
 3567POPC   C4A 6894   3.583  26.067   7.650
 3567POPC   C1B 6895   3.534  25.828   8.550
 3567POPC   C2B 6896   3.527  25.819   8.250
 3567POPC   C3B 6897   3.524  25.750   7.950
 3567POPC   C4B 6898   3.517  25.769   7.650
 3568POPC   NC3 6899  11.279  43.146   9.450
 3568POPC   PO4 6900  11.297  43.159   9.150
 3568POPC   GL1 6901  11.257  43.093   8.850
 3568POPC   GL2 6902  11.221  43.236   8.850
 3568POPC   C1A 6903  11.334  43.067   8.550
 3568POPC   D2A 6904  11.304  43.141   8.250
 3568POPC   C3A 6905  11.293  43.074   7.950
 3568POPC   C4A 6906  11.329  43.150   7.650
 3568POPC   C1B 6907  11.164  43.366   8.550
 3568POPC   C2B 6908  11.216  43.306   8.250
 3568POPC   C3B 6909  11.176  43.356   7.950
 3568POPC   C4B 6910  11.161  43.314   7.650
 3569POPC   NC3 6911   9.795  16.002   9.450
 3569POPC   PO4 6912   9.789  15.929   9.150
 3569POPC   GL1 6913   9.794  15.949   8.850
 3569POPC   GL2 6914   9.738  15.848   8.850
 3569POPC   C1A 6915   9.792  15.965   8.550
 3569POPC   D2A 6916   9.742  15.985   8.250
 3569POPC   C3A 6917   9.756  15.932   7.950
 3569POPC   C4A 6918   9.754  16.000   7.650
 3569POPC   C1B 6919   9.803  15.741   8.550
 3569POPC   C2B 6920   9.780  15.677   8.250
 3569POPC   C3B 6921   9.763  15.687   7.950
 3569POPC   C4B 6922   9.857  15.685   7.650
 3570POPC   NC3 6923  18.302  19.794   9.450
 3570POPC   PO4 6924  18.305  19.859   9.150
 3570POPC   GL1 6925  18.265  19.855   8.850
 3570POPC   GL2 6926  18.206  19.946   8.850
 3570POPC   C1A 6927  18.285  19.878   8.550
 3570POPC   D2A 6928  18.287  19.796   8.250
 3570POPC   C3A 6929  18.239  19.853   7.950
 3570POPC   C4A 6930  18.315  19.859   7.650
 3570POPC   C1B 6931  18.083  19.998   8.550
 3570POPC   C2B 6932  18.057  19.945   8.250
 3570POPC   C3B 6933  18.079  19.969   7.950
 3570POPC   C4B 6934  18.040  19.982   7.650
 3571POPC   NC3 6935  35.335  15.202   9.450
 3571POPC   PO4 6936  35.346  15.135   9.150
 3571POPC   GL1 6937  35.374  15.141   8.850
 3571POPC   GL2 6938  35.459  15.094   8.850
 3571POPC   C1A 6939  35.318  15.212   8.550
 3571POPC   D2A 6940  35.333  15.170   8.250
 3571POPC   C3A 6941  35.330  15.190   7.950
 3571POPC   C4A 6942  35.335  15.171   7.650
 3571POPC   C1B 6943  35.508  14.939   8.550
 3571POPC   C2B 6944  35.505  14.938   8.250
 3571POPC   C3B 6945  35.506  14.983   7.950
 3571POPC   C4B 6946  35.479  14.997   7.650
 3572POPC   NC3 6947  18.247  29.920   9.450
 3572POPC   PO4 6948  18.278  29.879   9.150
 3572POPC   GL1 6949  18.317  29.892   8.850
 3572POPC   GL2 6950  18.350  29.781   8.850
 3572POPC   C1A 6951  18.320  29.928   8.550
 3572POPC   D2A 6952  18.268  29.892   8.250
 3572POPC   C3A 6953  18.312  29.887   7.950
 3572POPC   C4A 6954  18.287  29.919   7.650
 3572POPC   C1B 6955  18.347  29.678   8.550
 3572POPC   C2B 6956  18.378  29.662   8.250
 3572POPC   C3B 6957  18.352  29.664   7.950
 3572POPC   C4B 6958  18.413  29.733   7.650
 3573POPC   NC3 6959  22.934  14.435   9.450
 3573POPC   PO4 6960  22.934  14.400   9.150
 3573POPC   GL1 6961  22.903  14.427   8.850
 3573POPC   GL2 6962  22.795  14.298   8.850
 3573POPC   C1A 6963  22.959  14.392   8.550
 3573POPC   D2A 6964  22.975  14.444   8.250
 3573POPC   C3A 6965  22.948  14.396   7.950
 3573POPC   C4A 6966  22.947  14.410   7.650
 3573POPC   C1B 6967  22.737  14.253   8.550
 3573POPC   C2B 6968  22.786  14.294   8.250
 3573POPC   C3B 6969  22.694  14.220   7.950
 3573POPC   C4B 6970  22.765  14.213   7.650
 3574POPC   NC3 6971  15.200  12.901   9.450
 3574POPC   PO4 6972  15.170  12.835   9.150
 3574POPC   GL1 6973  15.165  12.883   8.850
 3574POPC   GL2 6974  15.270  12.882   8.850
 3574POPC   C1A 6975  15.172  12.813   8.550
 3574POPC   D2A 6976  15.144  12.883   8.250
 3574POPC   C3A 6977  15.167  12.811   7.950
 3574POPC   C4A 6978  15.177  12.811   7.650
 3574POPC   C1B 6979  15.330  12.981   8.550
 3574POPC   C2B 6980  15.351  13.045   8.250
 3574POPC   C3B 6981  15.394  13.040   7.950
 3574POPC   C4B 6982  15.333  12.959   7.650
 3575POPC   NC3 6983  22.137   1.950   9.450
 3575POPC   PO4 6984  22.185   1.980   9.150
 3575POPC   GL1 6985  22.152   2.013   8.850
 3575POPC   GL2 6986  22.013   2.002   8.850
 3575POPC   C1A 6987  22.147   1.957   8.550
 3575POPC   D2A 6988  22.169   1.993   8.250
 3575POPC   C3A 6989  22.163   2.020   7.950
 3575POPC   C4A 6990  22.199   1.963   7.650
 3575POPC   C1B 6991  21.943   2.003   8.550
 3575POPC   C2B 6992  21.923   2.041   8.250
 3575POPC   C3B 6993  21.907   2.003   7.950
 3575POPC   C4B 6994  21.866   2.025   7.650
 3576POPC   NC3 6995  30.705  36.158   9.450
 3576POPC   PO4 6996  30.685  36.147   9.150
 3576POPC   GL1 6997  30.655  36.156   8.850
 3576POPC   GL2 6998  30.614  36.183   8.850
 3576POPC   C1A 6999  30.679  36.146   8.550
 3576POPC   D2A 7000  30.668  36.137   8.250
 3576POPC   C3A 7001  30.700  36.152   7.950
 3576POPC   C4A 7002  30.670  36.145   7.650
 3576POPC   C1B 7003  30.545  36.325   8.550
 3576POPC   C2B 7004  30.509  36.306   8.250
 3576POPC   C3B 7005  30.597  36.368   7.950
 3576POPC   C4B 7006  30.588  36.292   7.650
 3577POPC   NC3 7007  42.296   3.529   9.450
 3577POPC   PO4 7008  42.363   3.587   9.150
 3577POPC   GL1 7009  42.379   3.555   8.850
 3577POPC   GL2 7010  42.202   3.564   8.850
 3577POPC   C1A 7011  42.340   3.538   8.550
 3577POPC   D2A 7012  42.349   3.508   8.250
 3577POPC   C3A 7013  42.329   3.514   7.950
 3577POPC   C4A 7014  42.313   3.530   7.650
 3577POPC   C1B 7015  42.071   3.592   8.550
 3577POPC   C2B 7016  42.081   3.575   8.250
 3577POPC   C3B 7017  42.133   3.608   7.950
 3577POPC   C4B 7018  42.067   3.563   7.650
 3578POPC   NC3 7019  33.059  44.671   9.450
 3578POPC   PO4 7020  33.008  44.625   9.150
 3578POPC   GL1 7021  33.048  44.689   8.850
 3578POPC   GL2 7022  33.093  44.766   8.850
 3578POPC   C1A 7023  33.074  44.708   8.550
 3578POPC   D2A 7024  33.042  44.674   8.250
 3578POPC   C3A 7025  32.997  44.671   7.950
 3578POPC   C4A 7026  33.037  44.622   7.650
 3578POPC   C1B 7027  33.092  44.922   8.550
 3578POPC   C2B 7028  33.051  44.935   8.250
 3578POPC   C3B 7029  33.034  44.873   7.950
 3578POPC   C4B 7030  33.064  44.932   7.650
 3579POPC   NC3 7031  33.069  23.755   9.450
 3579POPC   PO4 7032  33.004  23.705   9.150
 3579POPC   GL1 7033  33.049  23.715   8.850
 3579POPC   GL2 7034  32.976  23.783   8.850
 3579POPC   C1A 7035  33.063  23.734   8.550
 3579POPC   D2A 7036  33.035  23.722   8.250
 3579POPC   C3A 7037  33.056  23.763   7.950
 3579POPC   C4A 7038  32.979  23.667   7.650
 3579POPC   C1B 7039  32.919  23.926   8.550
 3579POPC   C2B 7040  32.926  23.921   8.250
 3579POPC   C3B 7041  32.897  23.930   7.950
 3579POPC   C4B 7042  32.924  23.946   7.650
 3580POPC   NC3 7043  28.402  26.843   9.450
 3580POPC   PO4 7044  28.400  26.835   9.150
 3580POPC   GL1 7045  28.390  26.832   8.850
 3580POPC   GL2 7046  28.323  26.712   8.850
 3580POPC   C1A 7047  28.356  26.799   8.550
 3580POPC   D2A 7048  28.393  26.842   8.250
 3580POPC   C3A 7049  28.385  26.790   7.950
 3580POPC   C4A 7050  28.372  26.830   7.650
 3580POPC   C1B 7051  28.153  26.632   8.550
 3580POPC   C2B 7052  28.155  26.614   8.250
 3580POPC   C3B 7053  28.137  26.696   7.950
 3580POPC   C4B 7054  28.174  26.652   7.650
 3581POPC   NC3 7055  15.139  16.701   9.450
 3581POPC   PO4 7056  15.184  16.714   9.150
 3581POPC   GL1 7057  15.222  16.758   8.850
 3581POPC   GL2 7058  15.241  16.636   8.850
 3581POPC   C1A 7059  15.143  16.706   8.550
 3581POPC   D2A 7060  15.172  16.720   8.250
 3581POPC   C3A 7061  15.207  16.686   7.950
 3581POPC   C4A 7062  15.164  16.756   7.650
 3581POPC   C1B 7063  15.206  16.453   8.550
 3581POPC   C2B 7064  15.207  16.464   8.250
 3581POPC   C3B 7065  15.261  16.492   7.950
 3581POPC   C4B 7066  15.266  16.462   7.650
 3582POPC   NC3 7067  19.060  32.235   9.450
 3582POPC   PO4 7068  19.059  32.268   9.150
 3582POPC   GL1 7069  19.102  32.216   8.850
 3582POPC   GL2 7070  19.149  32.344   8.850
 3582POPC   C1A 7071  19.055  32.280   8.550
 3582POPC   D2A 7072  19.077  32.224   8.250
 3582POPC   C3A 7073  19.032  32.206   7.950
 3582POPC   C4A 7074  19.009  32.288   7.650
 3582POPC   C1B 7075  19.297  32.394   8.550
 3582POPC   C2B 7076  19.236  32.394   8.250
 3582POPC   C3B 7077  19.314  32.399   7.950
 3582POPC   C4B 7078  19.239  32.398   7.650
 3583POPC   NC3 7079  35.348  22.975   9.450
 3583POPC   PO4 7080  35.359  22.909   9.150
 3583POPC   GL1 7081  35.383  22.908   8.850
 3583POPC   GL2 7082  35.199  22.911   8.850
 3583POPC   C1A 7083  35.354  22.974   8.550
 3583POPC   D2A 7084  35.332  22.935   8.250
 3583POPC   C3A 7085  35.397  22.927   7.950
 3583POPC   C4A 7086  35.366  22.987   7.650
 3583POPC   C1B 7087  35.117  22.931   8.550
 3583POPC   C2B 7088  35.144  22.932   8.250
 3583POPC   C3B 7089  35.127  22.986   7.950
 3583POPC   C4B 7090  35.080  22.933   7.650
 3584POPC   NC3 7091  31.441   2.719   9.450
 3584POPC   PO4 7092  31.438   2.758   9.150
 3584POPC   GL1 7093  31.521   2.773   8.850
 3584POPC   GL2 7094  31.608   2.797   8.850
 3584POPC   C1A 7095  31.473   2.788   8.550
 3584POPC   D2A 7096  31.478   2.723   8.250
 3584POPC   C3A 7097  31.475   2.781   7.950
 3584POPC   C4A 7098  31.521   2.787   7.650
 3584POPC   C1B 7099  31.698   2.824   8.550
 3584POPC   C2B 7100  31.667   2.847   8.250
 3584POPC   C3B 7101  31.717   2.837   7.950
 3584POPC   C4B 7102  31.674   2.843   7.650
 3585POPC   NC3 7103   6.646  33.023   9.450
 3585POPC   PO4 7104   6.615  33.067   9.150
 3585POPC   GL1 7105   6.619  33.062   8.850
 3585POPC   GL2 7106   6.737  33.079   8.850
 3585POPC   C1A 7107   6.672  33.010   8.550
 3585POPC   D2A 7108   6.672  32.997   8.250
 3585POPC   C3A 7109   6.687  33.049   7.950
 3585POPC   C4A 7110   6.669  32.983   7.650
 3585POPC   C1B 7111   6.903  33.059   8.550
 3585POPC   C2B 7112   6.853  33.100   8.250
 3585POPC   C3B 7113   6.862  33.086   7.950
 3585POPC   C4B 7114   6.922  33.071   7.650
 3586POPC   NC3 7115  18.288  10.541   9.450
 3586POPC   PO4 7116  18.262  10.516   9.150
 3586POPC   GL1 7117  18.301  10.559   8.850
 3586POPC   GL2 7118  18.213  10.445   8.850
 3586POPC   C1A 7119  18.330  10.570   8.550
 3586POPC   D2A 7120  18.268  10.526   8.250
 3586POPC   C3A 7121  18.261  10.558   7.950
 3586POPC   C4A 7122  18.266  10.536   7.650
 3586POPC   C1B 7123  18.179  10.325   8.550
 3586POPC   C2B 7124  18.169  10.282   8.250
 3586POPC   C3B 7125  18.254  10.302   7.950
 3586POPC   C4B 7126  18.255  10.254   7.650
 3587POPC   NC3 7127  19.043  10.516   9.450
 3587POPC   PO4 7128  19.037  10.561   9.150
 3587POPC   GL1 7129  19.095  10.543   8.850
 3587POPC   GL2 7130  19.018  10.430   8.850
 3587POPC   C1A 7131  19.061  10.535   8.550
 3587POPC   D2A 7132  19.096  10.508   8.250
 3587POPC   C3A 7133  19.015  10.518   7.950
 3587POPC   C4A 7134  19.055  10.477   7.650
 3587POPC   C1B 7135  18.964  10.289   8.550
 3587POPC   C2B 7136  18.944  10.331   8.250
 3587POPC   C3B 7137  18.926  10.272   7.950
 3587POPC   C4B 7138  18.967  10.356   7.650
 3588POPC   NC3 7139  41.596  19.036   9.450
 3588POPC   PO4 7140  41.530  19.031   9.150
 3588POPC   GL1 7141  41.591  19.085   8.850
 3588POPC   GL2 7142  41.698  19.158   8.850
 3588POPC   C1A 7143  41.517  19.061   8.550
 3588POPC   D2A 7144  41.528  19.107   8.250
 3588POPC   C3A 7145  41.573  19.017   7.950
 3588POPC   C4A 7146  41.568  19.030   7.650
 3588POPC   C1B 7147  41.803  19.243   8.550
 3588POPC   C2B 7148  41.736  19.149   8.250
 3588POPC   C3B 7149  41.779  19.150   7.950
 3588POPC   C4B 7150  41.786  19.230   7.650
 3589POPC   NC3 7151  26.796  30.659   9.450
 3589POPC   PO4 7152  26.803  30.718   9.150
 3589POPC   GL1 7153  26.850  30.649   8.850
 3589POPC   GL2 7154  26.965  30.635   8.850
 3589POPC   C1A 7155  26.845  30.692   8.550
 3589POPC   D2A 7156  26.852  30.717   8.250
 3589POPC   C3A 7157  26.797  30.667   7.950
 3589POPC   C4A 7158  26.831  30.649   7.650
 3589POPC   C1B 7159  27.015  30.647   8.550
 3589POPC   C2B 7160  27.065  30.647   8.250
 3589POPC   C3B 7161  27.064  30.604   7.950
 3589POPC   C4B 7162  27.062  30.637   7.650
 3590POPC   NC3 7163  43.073  22.896   9.450
 3590POPC   PO4 7164  43.083  22.951   9.150
 3590POPC   GL1 7165  43.104  22.957   8.850
 3590POPC   GL2 7166  43.173  23.019   8.850
 3590POPC   C1A 7167  43.117  22.952   8.550
 3590POPC   D2A 7168  43.078  22.952   8.250
 3590POPC   C3A 7169  43.155  22.948   7.950
 3590POPC   C4A 7170  43.060  22.908   7.650
 3590POPC   C1B 7171  43.287  23.099   8.550
 3590POPC   C2B 7172  43.277  23.065   8.250
 3590POPC   C3B 7173  43.300  23.096   7.950
 3590POPC   C4B 7174  43.352  23.085   7.650
 3591POPC   NC3 7175   0.476  13.599   9.450
 3591POPC   PO4 7176   0.469  13.597   9.150
 3591POPC   GL1 7177   0.486  13.586   8.850
 3591POPC   GL2 7178   0.562  13.624   8.850
 3591POPC   C1A 7179   0.451  13.626   8.550
 3591POPC   D2A 7180   0.455  13.636   8.250
 3591POPC   C3A 7181   0.417  13.649   7.950
 3591POPC   C4A 7182   0.462  13.634   7.650
 3591POPC   C1B 7183   0.672  13.639   8.550
 3591POPC   C2B 7184   0.682  13.623   8.250
 3591POPC   C3B 7185   0.694  13.694   7.950
 3591POPC   C4B 7186   0.668  13.645   7.650
 3592POPC   NC3 7187   5.111   3.540   9.450
 3592POPC   PO4 7188   5.086   3.524   9.150
 3592POPC   GL1 7189   5.088   3.511   8.850
 3592POPC   GL2 7190   5.249   3.478   8.850
 3592POPC   C1A 7191   5.139   3.526   8.550
 3592POPC   D2A 7192   5.118   3.523   8.250
 3592POPC   C3A 7193   5.107   3.514   7.950
 3592POPC   C4A 7194   5.045   3.552   7.650
 3592POPC   C1B 7195   5.353   3.477   8.550
 3592POPC   C2B 7196   5.302   3.447   8.250
 3592POPC   C3B 7197   5.313   3.505   7.950
 3592POPC   C4B 7198   5.378   3.469   7.650
 3593POPC   NC3 7199  42.363  22.169   9.450
 3593POPC   PO4 7200  42.317  22.172   9.150
 3593POPC   GL1 7201  42.310  22.190   8.850
 3593POPC   GL2 7202  42.260  22.259   8.850
 3593POPC   C1A 7203  42.361  22.128   8.550
 3593POPC   D2A 7204  42.335  22.127   8.250
 3593POPC   C3A 7205  42.322  22.211   7.950
 3593POPC   C4A 7206  42.307  22.202   7.650
 3593POPC   C1B 7207  42.203  22.321   8.550
 3593POPC   C2B 7208  42.147  22.311   8.250
 3593POPC   C3B 7209  42.171  22.332   7.950
 3593POPC   C4B 7210  42.131  22.334   7.650
 3594POPC   NC3 7211  39.211  37.642   9.450
 3594POPC   PO4 7212  39.222  37.708   9.150
 3594POPC   GL1 7213  39.224  37.681   8.850
 3594POPC   GL2 7214  39.259  37.530   8.850
 3594POPC   C1A 7215  39.266  37.675   8.550
 3594POPC   D2A 7216  39.259  37.729   8.250
 3594POPC   C3A 7217  39.211  37.728   7.950
 3594POPC   C4A 7218  39.188  37.648   7.650
 3594POPC   C1B 7219  39.335  37.426   8.550
 3594POPC   C2B 7220  39.265  37.447   8.250
 3594POPC   C3B 7221  39.276  37.390   7.950
 3594POPC   C4B 7222  39.305  37.426   7.650
 3595POPC   NC3 7223   8.205  43.083   9.450
 3595POPC   PO4 7224   8.179  43.104   9.150
 3595POPC   GL1 7225   8.174  43.106   8.850
 3595POPC   GL2 7226   8.332  43.046   8.850
 3595POPC   C1A 7227   8.240  43.083   8.550
 3595POPC   D2A 7228   8.237  43.063   8.250
 3595POPC   C3A 7229   8.159  43.124   7.950
 3595POPC   C4A 7230   8.238  43.131   7.650
 3595POPC   C1B 7231   8.438  42.980   8.550
 3595POPC   C2B 7232   8.422  42.987   8.250
 3595POPC   C3B 7233   8.362  43.005   7.950
 3595POPC   C4B 7234   8.357  42.946   7.650
 3596POPC   NC3 7235  36.938  22.114   9.450
 3596POPC   PO4 7236  36.929  22.183   9.150
 3596POPC   GL1 7237  36.907  22.161   8.850
 3596POPC   GL2 7238  36.985  22.231   8.850
 3596POPC   C1A 7239  36.916  22.210   8.550
 3596POPC   D2A 7240  36.854  22.150   8.250
 3596POPC   C3A 7241  36.888  22.195   7.950
 3596POPC   C4A 7242  36.893  22.129   7.650
 3596POPC   C1B 7243  37.017  22.416   8.550
 3596POPC   C2B 7244  36.988  22.364   8.250
 3596POPC   C3B 7245  37.003  22.366   7.950
 3596POPC   C4B 7246  36.983  22.416   7.650
 3597POPC   NC3 7247  39.190  13.628   9.450
 3597POPC   PO4 7248  39.210  13.586   9.150
 3597POPC   GL1 7249  39.234  13.614   8.850
 3597POPC   GL2 7250  39.338  13.562   8.850
 3597POPC   C1A 7251  39.208  13.615   8.550
 3597POPC   D2A 7252  39.222  13.655   8.250
 3597POPC   C3A 7253  39.182  13.651   7.950
 3597POPC   C4A 7254  39.228  13.593   7.650
 3597POPC   C1B 7255  39.437  13.498   8.550
 3597POPC   C2B 7256  39.442  13.461   8.250
 3597POPC   C3B 7257  39.447  13.493   7.950
 3597POPC   C4B 7258  39.391  13.490   7.650
 3598POPC   NC3 7259  40.815  44.685   9.450
 3598POPC   PO4 7260  40.792  44.633   9.150
 3598POPC   GL1 7261  40.747  44.669   8.850
 3598POPC   GL2 7262  40.737  44.773   8.850
 3598POPC   C1A 7263  40.803  44.699   8.550
 3598POPC   D2A 7264  40.763  44.645   8.250
 3598POPC   C3A 7265  40.746  44.630   7.950
 3598POPC   C4A 7266  40.826  44.689   7.650
 3598POPC   C1B 7267  40.635  44.888   8.550
 3598POPC   C2B 7268  40.670  44.913   8.250
 3598POPC   C3B 7269  40.649  44.863   7.950
 3598POPC   C4B 7270  40.683  44.842   7.650
 3599POPC   NC3 7271  37.698  26.051   9.450
 3599POPC   PO4 7272  37.711  26.085   9.150
 3599POPC   GL1 7273  37.666  26.004   8.850
 3599POPC   GL2 7274  37.533  26.014   8.850
 3599POPC   C1A 7275  37.674  26.051   8.550
 3599POPC   D2A 7276  37.718  26.004   8.250
 3599POPC   C3A 7277  37.663  26.089   7.950
 3599POPC   C4A 7278  37.661  26.008   7.650
 3599POPC   C1B 7279  37.417  26.082   8.550
 3599POPC   C2B 7280  37.434  26.023   8.250
 3599POPC   C3B 7281  37.400  26.057   7.950
 3599POPC   C4B 7282  37.433  26.085   7.650
 3600POPC   NC3 7283  44.654  25.253   9.450
 3600POPC   PO4 7284  44.697  25.231   9.150
 3600POPC   GL1 7285  44.631  25.229   8.850
 3600POPC   GL2 7286  44.698  25.369   8.850
 3600POPC   C1A 7287  44.657  25.291   8.550
 3600POPC   D2A 7288  44.626  25.219   8.250
 3600POPC   C3A 7289  44.662  25.218   7.950
 3600POPC   C4A 7290  44.695  25.226   7.650
 3600POPC   C1B 7291  44.634  25.545   8.550
 3600POPC   C2B 7292  44.695  25.500   8.250
 3600POPC   C3B 7293  44.722  25.565   7.950
 3600POPC   C4B 7294  44.631  25.526   7.650
 3601POPC   NC3 7295  33.017  27.602   9.450
 3601POPC   PO4 7296  33.025  27.594   9.150
 3601POPC   GL1 7297  33.067  27.617   8.850
 3601POPC   GL2 7298  32.995  27.726   8.850
 3601POPC   C1A 7299  33.071  27.615   8.550
 3601POPC   D2A 7300  33.058  27.633   8.250
 3601POPC   C3A 7301  33.028  27.597   7.950
 3601POPC   C4A 7302  33.002  27.603   7.650
 3601POPC   C1B 7303  32.950  27.816   8.550
 3601POPC   C2B 7304  32.909  27.866   8.250
 3601POPC   C3B 7305  32.955  27.846   7.950
 3601POPC   C4B 7306  32.956  27.870   7.650
 3602POPC   NC3 7307  15.936   1.243   9.450
 3602POPC   PO4 7308  15.972   1.217   9.150
 3602POPC   GL1 7309  15.939   1.223   8.850
 3602POPC   GL2 7310  16.067   1.084   8.850
 3602POPC   C1A 7311  15.960   1.260   8.550
 3602POPC   D2A 7312  15.952   1.224   8.250
 3602POPC   C3A 7313  15.991   1.171   7.950
 3602POPC   C4A 7314  15.967   1.216   7.650
 3602POPC   C1B 7315  16.178   1.049   8.550
 3602POPC   C2B 7316  16.107   1.030   8.250
 3602POPC   C3B 7317  16.089   1.048   7.950
 3602POPC   C4B 7318  16.159   1.050   7.650
 3603POPC   NC3 7319   1.263  39.983   9.450
 3603POPC   PO4 7320   1.253  40.035   9.150
 3603POPC   GL1 7321   1.221  39.983   8.850
 3603POPC   GL2 7322   1.072  40.043   8.850
 3603POPC   C1A 7323   1.250  40.032   8.550
 3603POPC   D2A 7324   1.197  40.017   8.250
 3603POPC   C3A 7325   1.226  40.046   7.950
 3603POPC   C4A 7326   1.170  40.022   7.650
 3603POPC   C1B 7327   0.993  40.171   8.550
 3603POPC   C2B 7328   1.002  40.078   8.250
 3603POPC   C3B 7329   1.026  40.172   7.950
 3603POPC   C4B 7330   0.980  40.104   7.650
 3604POPC   NC3 7331  29.880  16.728   9.450
 3604POPC   PO4 7332  29.934  16.750   9.150
 3604POPC   GL1 7333  29.917  16.693   8.850
 3604POPC   GL2 7334  29.825  16.582   8.850
 3604POPC   C1A 7335  29.961  16.776   8.550
 3604POPC   D2A 7336  29.883  16.691   8.250
 3604POPC   C3A 7337  29.968  16.777   7.950
 3604POPC   C4A 7338  29.879  16.709   7.650
 3604POPC   C1B 7339  29.827  16.511   8.550
 3604POPC   C2B 7340  29.833  16.471   8.250
 3604POPC   C3B 7341  29.797  16.534   7.950
 3604POPC   C4B 7342  29.791  16.505   7.650
 3605POPC   NC3 7343  43.100  34.532   9.450
 3605POPC   PO4 7344  43.062  34.567   9.150
 3605POPC   GL1 7345  43.135  34.564   8.850
 3605POPC   GL2 7346  43.023  34.466   8.850
 3605POPC   C1A 7347  43.130  34.589   8.550
 3605POPC   D2A 7348  43.092  34.619   8.250
 3605POPC   C3A 7349  43.090  34.617   7.950
 3605POPC   C4A 7350  43.105  34.574   7.650
 3605POPC   C1B 7351  42.992  34.411   8.550
 3605POPC   C2B 7352  42.940  34.380   8.250
 3605POPC   C3B 7353  42.929  34.356   7.950
 3605POPC   C4B 7354  42.946  34.362   7.650
 3606POPC   NC3 7355  38.501  30.740   9.450
 3606POPC   PO4 7356  38.434  30.705   9.150
 3606POPC   GL1 7357  38.406  30.701   8.850
 3606POPC   GL2 7358  38.491  30.617   8.850
 3606POPC   C1A 7359  38.439  30.726   8.550
 3606POPC   D2A 7360  38.435  30.716   8.250
 3606POPC   C3A 7361  38.478  30.671   7.950
 3606POPC   C4A 7362  38.418  30.726   7.650
 3606POPC   C1B 7363  38.600  30.475   8.550
 3606POPC   C2B 7364  38.595  30.535   8.250
 3606POPC   C3B 7365  38.591  30.505   7.950
 3606POPC   C4B 7366  38.601  30.458   7.650
 3607POPC   NC3 7367  25.270  36.173   9.450
 3607POPC   PO4 7368  25.291  36.148   9.150
 3607POPC   GL1 7369  25.223  36.166   8.850
 3607POPC   GL2 7370  25.425  36.176   8.850
 3607POPC   C1A 7371  25.225  36.151   8.550
 3607POPC   D2A 7372  25.257  36.161   8.250
 3607POPC   C3A 7373  25.270  36.127   7.950
 3607POPC   C4A 7374  25.244  36.081   7.650
 3607POPC   C1B 7375  25.501  36.199   8.550
 3607POPC   C2B 7376  25.507  36.279   8.250
 3607POPC   C3B 7377  25.527  36.271   7.950
 3607POPC   C4B 7378  25.536  36.258   7.650
 3608POPC   NC3 7379   6.620  18.238   9.450
 3608POPC   PO4 7380   6.640  18.256   9.150
 3608POPC   GL1 7381   6.599  18.293   8.850
 3608POPC   GL2 7382   6.644  18.402   8.850
 3608POPC   C1A 7383   6.601  18.256   8.550
 3608POPC   D2A 7384   6.629  18.241   8.250
 3608POPC   C3A 7385   6.691  18.284   7.950
 3608POPC   C4A 7386   6.614  18.247   7.650
 3608POPC   C1B 7387   6.579  18.561   8.550
 3608POPC   C2B 7388   6.573  18.530   8.250
 3608POPC   C3B 7389   6.560  18.534   7.950
 3608POPC   C4B 7390   6.611  18.512   7.650
 3609POPC   NC3 7391  25.304   0.469   9.450
 3609POPC   PO4 7392  25.231   0.417   9.150
 3609POPC   GL1 7393  25.270   0.413   8.850
 3609POPC   GL2 7394  25.172   0.297   8.850
 3609POPC   C1A 7395  25.300   0.403   8.550
 3609POPC   D2A 7396  25.315   0.430   8.250
 3609POPC   C3A 7397  25.272   0.456   7.950
 3609POPC   C4A 7398  25.259   0.456   7.650
 3609POPC   C1B 7399  25.125   0.161   8.550
 3609POPC   C2B 7400  25.127   0.218   8.250
 3609POPC   C3B 7401  25.210   0.184   7.950
 3609POPC   C4B 7402  25.193   0.230   7.650
 3610POPC   NC3 7403  15.186   6.665   9.450
 3610POPC   PO4 7404  15.201   6.660   9.150
 3610POPC   GL1 7405  15.163   6.603   8.850
 3610POPC   GL2 7406  15.081   6.653   8.850
 3610POPC   C1A 7407  15.184   6.657   8.550
 3610POPC   D2A 7408  15.214   6.683   8.250
 3610POPC   C3A 7409  15.206   6.661   7.950
 3610POPC   C4A 7410  15.178   6.596   7.650
 3610POPC   C1B 7411  14.960   6.604   8.550
 3610POPC   C2B 7412  14.970   6.565   8.250
 3610POPC   C3B 7413  14.926   6.579   7.950
 3610POPC   C4B 7414  14.983   6.635   7.650
 3611POPC   NC3 7415   6.665  40.750   9.450
 3611POPC   PO4 7416   6.663  40.755   9.150
 3611POPC   GL1 7417   6.619  40.821   8.850
 3611POPC   GL2 7418   6.523  40.886   8.850
 3611POPC   C1A 7419   6.612  40.803   8.550
 3611POPC   D2A 7420   6.631  40.791   8.250
 3611POPC   C3A 7421   6.604  40.816   7.950
 3611POPC   C4A 7422   6.646  40.737   7.650
 3611POPC   C1B 7423   6.479  41.017   8.550
 3611POPC   C2B 7424   6.494  40.963   8.250
 3611POPC   C3B 7425   6.537  41.016   7.950
 3611POPC   C4B 7426   6.478  40.993   7.650
 3612POPC   NC3 7427  13.633  44.643   9.450
 3612POPC   PO4 7428  13.605  44.702   9.150
 3612POPC   GL1 7429  13.672  44.673   8.850
 3612POPC   GL2 7430  13.612  44.550   8.850
 3612POPC   C1A 7431  13.650  44.613   8.550
 3612POPC   D2A 7432  13.635  44.654   8.250
 3612POPC   C3A 7433  13.618  44.683   7.950
 3612POPC   C4A 7434  13.644  44.677   7.650
 3612POPC   C1B 7435  13.606  44.438   8.550
 3612POPC   C2B 7436  13.623  44.377   8.250
 3612POPC   C3B 7437  13.654  44.461   7.950
 3612POPC   C4B 7438  13.615  44.444   7.650
 3613POPC   NC3 7439  34.587  26.019   9.450
 3613POPC   PO4 7440  34.538  26.054   9.150
 3613POPC   GL1 7441  34.582  26.022   8.850
 3613POPC   GL2 7442  34.571  25.935   8.850
 3613POPC   C1A 7443  34.590  26.010   8.550
 3613POPC   D2A 7444  34.580  26.088   8.250
 3613POPC   C3A 7445  34.563  25.997   7.950
 3613POPC   C4A 7446  34.597  26.077   7.650
 3613POPC   C1B 7447  34.508  25.815   8.550
 3613POPC   C2B 7448  34.498  25.768   8.250
 3613POPC   C3B 7449  34.465  25.846   7.950
 3613POPC   C4B 7450  34.458  25.790   7.650
 3614POPC   NC3 7451  26.002   2.027   9.450
 3614POPC   PO4 7452  26.064   1.981   9.150
 3614POPC   GL1 7453  26.078   1.996   8.850
 3614POPC   GL2 7454  26.144   2.004   8.850
 3614POPC   C1A 7455  26.068   1.957   8.550
 3614POPC   D2A 7456  26.031   1.941   8.250
 3614POPC   C3A 7457  26.057   1.951   7.950
 3614POPC   C4A 7458  25.995   2.021   7.650
 3614POPC   C1B 7459  26.235   2.100   8.550
 3614POPC   C2B 7460  26.230   2.092   8.250
 3614POPC   C3B 7461  26.213   2.085   7.950
 3614POPC   C4B 7462  26.278   2.093   7.650
 3615POPC   NC3 7463  33.043   3.541   9.450
 3615POPC   PO4 7464  33.044   3.495   9.150
 3615POPC   GL1 7465  33.010   3.492   8.850
 3615POPC   GL2 7466  33.132   3.570   8.850
 3615POPC   C1A 7467  32.985   3.514   8.550
 3615POPC   D2A 7468  32.996   3.586   8.250
 3615POPC   C3A 7469  32.983   3.528   7.950
 3615POPC   C4A 7470  33.063   3.548   7.650
 3615POPC   C1B 7471  33.292   3.543   8.550
 3615POPC   C2B 7472  33.240   3.596   8.250
 3615POPC   C3B 7473  33.291   3.585   7.950
 3615POPC   C4B 7474  33.287   3.614   7.650
 3616POPC   NC3 7475   3.534  27.580   9.450
 3616POPC   PO4 7476   3.551  27.597   9.150
 3616POPC   GL1 7477   3.588  27.550   8.850
 3616POPC   GL2 7478   3.424  27.453   8.850
 3616POPC   C1A 7479   3.544  27.560   8.550
 3616POPC   D2A 7480   3.520  27.633   8.250
 3616POPC   C3A 7481   3.498  27.547   7.950
 3616POPC   C4A 7482   3.499  27.617   7.650
 3616POPC   C1B 7483   3.391  27.430   8.550
 3616POPC   C2B 7484   3.390  27.395   8.250
 3616POPC   C3B 7485   3.367  27.371   7.950
 3616POPC   C4B 7486   3.414  27.375   7.650
 3617POPC   NC3 7487  42.355  41.537   9.450
 3617POPC   PO4 7488  42.363  41.601   9.150
 3617POPC   GL1 7489  42.297  41.582   8.850
 3617POPC   GL2 7490  42.186  41.586   8.850
 3617POPC   C1A 7491  42.342  41.543   8.550
 3617POPC   D2A 7492  42.313  41.513   8.250
 3617POPC   C3A 7493  42.356  41.537   7.950
 3617POPC   C4A 7494  42.382  41.578   7.650
 3617POPC   C1B 7495  42.096  41.688   8.550
 3617POPC   C2B 7496  42.123  41.699   8.250
 3617POPC   C3B 7497  42.103  41.692   7.950
 3617POPC   C4B 7498  42.123  41.636   7.650
 3618POPC   NC3 7499  24.500  14.422   9.450
 3618POPC   PO4 7500  24.441  14.433   9.150
 3618POPC   GL1 7501  24.460  14.412   8.850
 3618POPC   GL2 7502  24.429  14.459   8.850
 3618POPC   C1A 7503  24.534  14.385   8.550
 3618POPC   D2A 7504  24.530  14.377   8.250
 3618POPC   C3A 7505  24.461  14.398   7.950
 3618POPC   C4A 7506  24.490  14.387   7.650
 3618POPC   C1B 7507  24.308  14.499   8.550
 3618POPC   C2B 7508  24.308  14.520   8.250
 3618POPC   C3B 7509  24.287  14.515   7.950
 3618POPC   C4B 7510  24.304  14.488   7.650
 3619POPC   NC3 7511   7.453  17.527   9.450
 3619POPC   PO4 7512   7.392  17.487   9.150
 3619POPC   GL1 7513   7.469  17.544   8.850
 3619POPC   GL2 7514   7.511  17.389   8.850
 3619POPC   C1A 7515   7.466  17.478   8.550
 3619POPC   D2A 7516   7.401  17.519   8.250
 3619POPC   C3A 7517   7.468  17.523   7.950
 3619POPC   C4A 7518   7.456  17.556   7.650
 3619POPC   C1B 7519   7.514  17.257   8.550
 3619POPC   C2B 7520   7.491  17.320   8.250
 3619POPC   C3B 7521   7.540  17.280   7.950
 3619POPC   C4B 7522   7.543  17.282   7.650
 3620POPC   NC3 7523  19.797   8.938   9.450
 3620POPC   PO4 7524  19.874   8.965   9.150
 3620POPC   GL1 7525  19.787   9.020   8.850
 3620POPC   GL2 7526  19.812   9.072   8.850
 3620POPC   C1A 7527  19.817   8.945   8.550
 3620POPC   D2A 7528  19.849   8.962   8.250
 3620POPC   C3A 7529  19.847   8.973   7.950
 3620POPC   C4A 7530  19.881   8.941   7.650
 3620POPC   C1B 7531  19.749   9.218   8.550
 3620POPC   C2B 7532  19.725   9.222   8.250
 3620POPC   C3B 7533  19.715   9.251   7.950
 3620POPC   C4B 7534  19.791   9.252   7.650
 3621POPC   NC3 7535   9.764  24.473   9.450
 3621POPC   PO4 7536   9.757  24.528   9.150
 3621POPC   GL1 7537   9.719  24.514   8.850
 3621POPC   GL2 7538   9.751  24.408   8.850
 3621POPC   C1A 7539   9.789  24.482   8.550
 3621POPC   D2A 7540   9.715  24.470   8.250
 3621POPC   C3A 7541   9.707  24.446   7.950
 3621POPC   C4A 7542   9.719  24.523   7.650
 3621POPC   C1B 7543   9.782  24.219   8.550
 3621POPC   C2B 7544   9.766  24.253   8.250
 3621POPC   C3B 7545   9.811  24.257   7.950
 3621POPC   C4B 7546   9.791  24.255   7.650
 3622POPC   NC3 7547  31.508  43.853   9.450
 3622POPC   PO4 7548  31.466  43.897   9.150
 3622POPC   GL1 7549  31.430  43.878   8.850
 3622POPC   GL2 7550  31.495  43.806   8.850
 3622POPC   C1A 7551  31.434  43.923   8.550
 3622POPC   D2A 7552  31.458  43.927   8.250
 3622POPC   C3A 7553  31.493  43.846   7.950
 3622POPC   C4A 7554  31.522  43.852   7.650
 3622POPC   C1B 7555  31.471  43.607   8.550
 3622POPC   C2B 7556  31.446  43.642   8.250
 3622POPC   C3B 7557  31.536  43.666   7.950
 3622POPC   C4B 7558  31.533  43.603   7.650
 3623POPC   NC3 7559  38.491   4.356   9.450
 3623POPC   PO4 7560  38.416   4.293   9.150
 3623POPC   GL1 7561  38.466   4.309   8.850
 3623POPC   GL2 7562  38.354   4.312   8.850
 3623POPC   C1A 7563  38.491   4.276   8.550
 3623POPC   D2A 7564  38.409   4.330   8.250
 3623POPC   C3A 7565  38.434   4.364   7.950
 3623POPC   C4A 7566  38.407   4.324   7.650
 3623POPC   C1B 7567  38.199   4.359   8.550
 3623POPC   C2B 7568  38.180   4.336   8.250
 3623POPC   C3B 7569  38.229   4.373   7.950
 3623POPC   C4B 7570  38.192   4.361   7.650
 3624POPC   NC3 7571  26.008  20.593   9.450
 3624POPC   PO4 7572  26.067  20.618   9.150
 3624POPC   GL1 7573  26.039  20.579   8.850
 3624POPC   GL2 7574  25.886  20.606   8.850
 3624POPC   C1A 7575  26.085  20.581   8.550
 3624POPC   D2A 7576  25.995  20.560   8.250
 3624POPC   C3A 7577  26.021  20.561   7.950
 3624POPC   C4A 7578  26.052  20.637   7.650
 3624POPC   C1B 7579  25.808  20.639   8.550
 3624POPC   C2B 7580  25.785  20.601   8.250
 3624POPC   C3B 7581  25.823  20.559   7.950
 3624POPC   C4B 7582  25.835  20.560   7.650
 3625POPC   NC3 7583  36.901  12.878   9.450
 3625POPC   PO4 7584  36.859  12.897   9.150
 3625POPC   GL1 7585  36.857  12.819   8.850
 3625POPC   GL2 7586  36.928  13.024   8.850
 3625POPC   C1A 7587  36.859  12.820   8.550
 3625POPC   D2A 7588  36.889  12.871   8.250
 3625POPC   C3A 7589  36.864  12.862   7.950
 3625POPC   C4A 7590  36.856  12.809   7.650
 3625POPC   C1B 7591  36.881  13.138   8.550
 3625POPC   C2B 7592  36.938  13.085   8.250
 3625POPC   C3B 7593  36.858  13.148   7.950
 3625POPC   C4B 7594  36.907  13.085   7.650
 3626POPC   NC3 7595  12.843  33.764   9.450
 3626POPC   PO4 7596  12.894  33.801   9.150
 3626POPC   GL1 7597  12.807  33.789   8.850
 3626POPC   GL2 7598  12.950  33.713   8.850
 3626POPC   C1A 7599  12.802  33.809   8.550
 3626POPC   D2A 7600  12.816  33.786   8.250
 3626POPC   C3A 7601  12.837  33.836   7.950
 3626POPC   C4A 7602  12.802  33.750   7.650
 3626POPC   C1B 7603  13.079  33.658   8.550
 3626POPC   C2B 7604  13.081  33.720   8.250
 3626POPC   C3B 7605  13.079  33.704   7.950
 3626POPC   C4B 7606  13.079  33.670   7.650
 3627POPC   NC3 7607   9.017   5.089   9.450
 3627POPC   PO4 7608   8.952   5.116   9.150
 3627POPC   GL1 7609   8.937   5.102   8.850
 3627POPC   GL2 7610   8.833   5.186   8.850
 3627POPC   C1A 7611   8.937   5.083   8.550
 3627POPC   D2A 7612   8.951   5.118   8.250
 3627POPC   C3A 7613   8.948   5.117   7.950
 3627POPC   C4A 7614   8.954   5.065   7.650
 3627POPC   C1B 7615   8.841   5.303   8.550
 3627POPC   C2B 7616   8.809   5.280   8.250
 3627POPC   C3B 7617   8.829   5.316   7.950
 3627POPC   C4B 7618   8.761   5.316   7.650
 3628POPC   NC3 7619  16.711  15.931   9.450
 3628POPC   PO4 7620  16.735  15.978   9.150
 3628POPC   GL1 7621  16.780  15.906   8.850
 3628POPC   GL2 7622  16.651  15.873   8.850
 3628POPC   C1A 7623  16.721  15.950   8.550
 3628POPC   D2A 7624  16.763  15.922   8.250
 3628POPC   C3A 7625  16.735  15.906   7.950
 3628POPC   C4A 7626  16.736  15.915   7.650
 3628POPC   C1B 7627  16.513  15.747   8.550
 3628POPC   C2B 7628  16.595  15.769   8.250
 3628POPC   C3B 7629  16.562  15.774   7.950
 3628POPC   C4B 7630  16.597  15.800   7.650
 3629POPC   NC3 7631   1.204   5.099   9.450
 3629POPC   PO4 7632   1.224   5.135   9.150
 3629POPC   GL1 7633   1.180   5.087   8.850
 3629POPC   GL2 7634   1.290   5.148   8.850
 3629POPC   C1A 7635   1.222   5.094   8.550
 3629POPC   D2A 7636   1.254   5.074   8.250
 3629POPC   C3A 7637   1.225   5.105   7.950
 3629POPC   C4A 7638   1.252   5.090   7.650
 3629POPC   C1B 7639   1.450   5.183   8.550
 3629POPC   C2B 7640   1.464   5.182   8.250
 3629POPC   C3B 7641   1.459   5.188   7.950
 3629POPC   C4B 7642   1.500   5.123   7.650
 3630POPC   NC3 7643   7.467  33.074   9.450
 3630POPC   PO4 7644   7.411  33.056   9.150
 3630POPC   GL1 7645   7.430  33.009   8.850
 3630POPC   GL2 7646   7.540  33.131   8.850
 3630POPC   C1A 7647   7.423  32.989   8.550
 3630POPC   D2A 7648   7.469  33.021   8.250
 3630POPC   C3A 7649   7.387  33.058   7.950
 3630POPC   C4A 7650   7.437  32.989   7.650
 3630POPC   C1B 7651   7.631  33.229   8.550
 3630POPC   C2B 7652   7.643  33.193   8.250
 3630POPC   C3B 7653   7.578  33.201   7.950
 3630POPC   C4B 7654   7.605  33.240   7.650
 3631POPC   NC3 7655   6.673  22.921   9.450
 3631POPC   PO4 7656   6.661  22.929   9.150
 3631POPC   GL1 7657   6.609  22.943   8.850
 3631POPC   GL2 7658   6.766  22.830   8.850
 3631POPC   C1A 7659   6.606  22.952   8.550
 3631POPC   D2A 7660   6.616  22.965   8.250
 3631POPC   C3A 7661   6.615  22.969   7.950
 3631POPC   C4A 7662   6.672  22.908   7.650
 3631POPC   C1B 7663   6.759  22.737   8.550
 3631POPC   C2B 7664   6.773  22.776   8.250
 3631POPC   C3B 7665   6.799  22.749   7.950
 3631POPC   C4B 7666   6.850  22.741   7.650
 3632POPC   NC3 7667  22.960  22.912   9.450
 3632POPC   PO4 7668  22.934  22.985   9.150
 3632POPC   GL1 7669  22.958  22.985   8.850
 3632POPC   GL2 7670  23.033  22.864   8.850
 3632POPC   C1A 7671  22.940  22.896   8.550
 3632POPC   D2A 7672  22.936  22.911   8.250
 3632POPC   C3A 7673  22.932  22.915   7.950
 3632POPC   C4A 7674  22.926  22.901   7.650
 3632POPC   C1B 7675  23.088  22.689   8.550
 3632POPC   C2B 7676  23.097  22.710   8.250
 3632POPC   C3B 7677  23.072  22.671   7.950
 3632POPC   C4B 7678  23.073  22.703   7.650
 3633POPC   NC3 7679   1.972   9.754   9.450
 3633POPC   PO4 7680   1.990   9.786   9.150
 3633POPC   GL1 7681   1.953   9.750   8.850
 3633POPC   GL2 7682   2.086   9.729   8.850
 3633POPC   C1A 7683   1.943   9.774   8.550
 3633POPC   D2A 7684   2.001   9.739   8.250
 3633POPC   C3A 7685   2.033   9.794   7.950
 3633POPC   C4A 7686   1.960   9.742   7.650
 3633POPC   C1B 7687   2.253   9.671   8.550
 3633POPC   C2B 7688   2.262   9.702   8.250
 3633POPC   C3B 7689   2.203   9.705   7.950
 3633POPC   C4B 7690   2.281   9.719   7.650
 3634POPC   NC3 7691  36.947  43.913   9.450
 3634POPC   PO4 7692  36.878  43.927   9.150
 3634POPC   GL1 7693  36.912  43.857   8.850
 3634POPC   GL2 7694  36.987  43.756   8.850
 3634POPC   C1A 7695  36.922  43.934   8.550
 3634POPC   D2A 7696  36.951  43.907   8.250
 3634POPC   C3A 7697  36.909  43.888   7.950
 3634POPC   C4A 7698  36.918  43.891   7.650
 3634POPC   C1B 7699  37.033  43.708   8.550
 3634POPC   C2B 7700  37.048  43.745   8.250
 3634POPC   C3B 7701  37.065  43.724   7.950
 3634POPC   C4B 7702  37.023  43.663   7.650
 3635POPC   NC3 7703   4.288  36.947   9.450
 3635POPC   PO4 7704   4.303  36.917   9.150
 3635POPC   GL1 7705   4.301  36.899   8.850
 3635POPC   GL2 7706   4.251  36.788   8.850
 3635POPC   C1A 7707   4.289  36.885   8.550
 3635POPC   D2A 7708   4.310  36.867   8.250
 3635POPC   C3A 7709   4.354  36.936   7.950
 3635POPC   C4A 7710   4.322  36.935   7.650
 3635POPC   C1B 7711   4.066  36.730   8.550
 3635POPC   C2B 7712   4.139  36.746   8.250
 3635POPC   C3B 7713   4.132  36.746   7.950
 3635POPC   C4B 7714   4.104  36.801   7.650
 3636POPC   NC3 7715  20.639   9.786   9.450
 3636POPC   PO4 7716  20.620   9.787   9.150
 3636POPC   GL1 7717  20.613   9.710   8.850
 3636POPC   GL2 7718  20.688   9.709   8.850
 3636POPC   C1A 7719  20.625   9.715   8.550
 3636POPC   D2A 7720  20.620   9.746   8.250
 3636POPC   C3A 7721  20.648   9.743   7.950
 3636POPC   C4A 7722  20.637   9.724   7.650
 3636POPC   C1B 7723  20.842   9.736   8.550
 3636POPC   C2B 7724  20.903   9.669   8.250
 3636POPC   C3B 7725  20.865   9.763   7.950
 3636POPC   C4B 7726  20.820   9.692   7.650
 3637POPC   NC3 7727  36.888   5.110   9.450
 3637POPC   PO4 7728  36.901   5.116   9.150
 3637POPC   GL1 7729  36.882   5.133   8.850
 3637POPC   GL2 7730  36.929   5.204   8.850
 3637POPC   C1A 7731  36.915   5.058   8.550
 3637POPC   D2A 7732  36.908   5.063   8.250
 3637POPC   C3A 7733  36.915   5.060   7.950
 3637POPC   C4A 7734  36.864   5.078   7.650
 3637POPC   C1B 7735  37.080   5.331   8.550
 3637POPC   C2B 7736  37.034   5.302   8.250
 3637POPC   C3B 7737  37.054   5.331   7.950
 3637POPC   C4B 7738  37.024   5.343   7.650
 3638POPC   NC3 7739  35.336  32.275   9.450
 3638POPC   PO4 7740  35.398  32.266   9.150
 3638POPC   GL1 7741  35.371  32.201   8.850
 3638POPC   GL2 7742  35.289  32.370   8.850
 3638POPC   C1A 7743  35.361  32.241   8.550
 3638POPC   D2A 7744  35.311  32.253   8.250
 3638POPC   C3A 7745  35.347  32.228   7.950
 3638POPC   C4A 7746  35.367  32.227   7.650
 3638POPC   C1B 7747  35.265  32.466   8.550
 3638POPC   C2B 7748  35.270  32.473   8.250
 3638POPC   C3B 7749  35.300  32.515   7.950
 3638POPC   C4B 7750  35.283  32.494   7.650
 3639POPC   NC3 7751  12.092  15.970   9.450
 3639POPC   PO4 7752  12.026  15.969   9.150
 3639POPC   GL1 7753  12.040  15.996   8.850
 3639POPC   GL2 7754  12.166  15.860   8.850
 3639POPC   C1A 7755  12.059  15.947   8.550
 3639POPC   D2A 7756  12.126  15.950   8.250
 3639POPC   C3A 7757  12.073  15.992   7.950
 3639POPC   C4A 7758  12.062  15.907   7.650
 3639POPC   C1B 7759  12.304  15.774   8.550
 3639POPC   C2B 7760  12.300  15.773   8.250
 3639POPC   C3B 7761  12.252  15.776   7.950
 3639POPC   C4B 7762  12.300  15.816   7.650
 3640POPC   NC3 7763  20.605  12.073   9.450
 3640POPC   PO4 7764  20.650  12.114   9.150
 3640POPC   GL1 7765  20.570  12.117   8.850
 3640POPC   GL2 7766  20.758  12.190   8.850
 3640POPC   C1A 7767  20.585  12.031   8.550
 3640POPC   D2A 7768  20.634  12.059   8.250
 3640POPC   C3A 7769  20.606  12.048   7.950
 3640POPC   C4A 7770  20.580  12.086   7.650
 3640POPC   C1B 7771  20.786  12.232   8.550
 3640POPC   C2B 7772  20.861  12.179   8.250
 3640POPC   C3B 7773  20.850  12.253   7.950
 3640POPC   C4B 7774  20.860  12.210   7.650
 3641POPC   NC3 7775  36.934  13.599   9.450
 3641POPC   PO4 7776  36.875  13.643   9.150
 3641POPC   GL1 7777  36.885  13.599   8.850
 3641POPC   GL2 7778  36.894  13.720   8.850
 3641POPC   C1A 7779  36.858  13.667   8.550
 3641POPC   D2A 7780  36.924  13.668   8.250
 3641POPC   C3A 7781  36.921  13.644   7.950
 3641POPC   C4A 7782  36.943  13.652   7.650
 3641POPC   C1B 7783  36.919  13.851   8.550
 3641POPC   C2B 7784  36.852  13.883   8.250
 3641POPC   C3B 7785  36.837  13.847   7.950
 3641POPC   C4B 7786  36.855  13.840   7.650
 3642POPC   NC3 7787   2.008   8.164   9.450
 3642POPC   PO4 7788   1.957   8.173   9.150
 3642POPC   GL1 7789   1.958   8.156   8.850
 3642POPC   GL2 7790   1.983   8.367   8.850
 3642POPC   C1A 7791   1.999   8.241   8.550
 3642POPC   D2A 7792   1.956   8.230   8.250
 3642POPC   C3A 7793   1.968   8.186   7.950
 3642POPC   C4A 7794   1.955   8.193   7.650
 3642POPC   C1B 7795   2.057   8.429   8.550
 3642POPC   C2B 7796   1.993   8.403   8.250
 3642POPC   C3B 7797   1.970   8.486   7.950
 3642POPC   C4B 7798   1.980   8.484   7.650
 3643POPC   NC3 7799  39.260  19.009   9.450
 3643POPC   PO4 7800  39.214  19.077   9.150
 3643POPC   GL1 7801  39.265  19.085   8.850
 3643POPC   GL2 7802  39.106  18.981   8.850
 3643POPC   C1A 7803  39.199  19.048   8.550
 3643POPC   D2A 7804  39.229  19.098   8.250
 3643POPC   C3A 7805  39.260  19.045   7.950
 3643POPC   C4A 7806  39.191  19.105   7.650
 3643POPC   C1B 7807  39.095  18.850   8.550
 3643POPC   C2B 7808  39.045  18.868   8.250
 3643POPC   C3B 7809  39.056  18.861   7.950
 3643POPC   C4B 7810  39.034  18.875   7.650
 3644POPC   NC3 7811  14.440  26.047   9.450
 3644POPC   PO4 7812  14.445  25.996   9.150
 3644POPC   GL1 7813  14.374  26.072   8.850
 3644POPC   GL2 7814  14.446  26.190   8.850
 3644POPC   C1A 7815  14.367  25.999   8.550
 3644POPC   D2A 7816  14.372  26.034   8.250
 3644POPC   C3A 7817  14.362  26.010   7.950
 3644POPC   C4A 7818  14.400  26.057   7.650
 3644POPC   C1B 7819  14.567  26.203   8.550
 3644POPC   C2B 7820  14.541  26.216   8.250
 3644POPC   C3B 7821  14.575  26.247   7.950
 3644POPC   C4B 7822  14.568  26.225   7.650
 3645POPC   NC3 7823  15.979  27.561   9.450
 3645POPC   PO4 7824  15.906  27.619   9.150
 3645POPC   GL1 7825  15.957  27.639   8.850
 3645POPC   GL2 7826  15.884  27.562   8.850
 3645POPC   C1A 7827  15.963  27.547   8.550
 3645POPC   D2A 7828  15.938  27.591   8.250
 3645POPC   C3A 7829  15.939  27.628   7.950
 3645POPC   C4A 7830  15.963  27.597   7.650
 3645POPC   C1B 7831  15.787  27.483   8.550
 3645POPC   C2B 7832  15.790  27.492   8.250
 3645POPC   C3B 7833  15.728  27.487   7.950
 3645POPC   C4B 7834  15.780  27.498   7.650
 3646POPC   NC3 7835  22.192  19.085   9.450
 3646POPC   PO4 7836  22.156  19.091   9.150
 3646POPC   GL1 7837  22.188  19.012   8.850
 3646POPC   GL2 7838  22.326  18.964   8.850
 3646POPC   C1A 7839  22.135  19.096   8.550
 3646POPC   D2A 7840  22.203  19.055   8.250
 3646POPC   C3A 7841  22.167  19.010   7.950
 3646POPC   C4A 7842  22.154  19.023   7.650
 3646POPC   C1B 7843  22.421  18.964   8.550
 3646POPC   C2B 7844  22.423  18.926   8.250
 3646POPC   C3B 7845  22.400  18.997   7.950
 3646POPC   C4B 7846  22.358  18.986   7.650
 3647POPC   NC3 7847  39.266  22.979   9.450
 3647POPC   PO4 7848  39.218  22.907   9.150
 3647POPC   GL1 7849  39.211  22.939   8.850
 3647POPC   GL2 7850  39.393  22.963   8.850
 3647POPC   C1A 7851  39.185  22.983   8.550
 3647POPC   D2A 7852  39.212  22.946   8.250
 3647POPC   C3A 7853  39.213  22.927   7.950
 3647POPC   C4A 7854  39.226  22.933   7.650
 3647POPC   C1B 7855  39.495  23.015   8.550
 3647POPC   C2B 7856  39.473  23.005   8.250
 3647POPC   C3B 7857  39.498  22.980   7.950
 3647POPC   C4B 7858  39.492  23.045   7.650
 3648POPC   NC3 7859   4.316  15.160   9.450
 3648POPC   PO4 7860   4.281  15.131   9.150
 3648POPC   GL1 7861   4.274  15.181   8.850
 3648POPC   GL2 7862   4.397  15.103   8.850
 3648POPC   C1A 7863   4.329  15.168   8.550
 3648POPC   D2A 7864   4.357  15.214   8.250
 3648POPC   C3A 7865   4.287  15.171   7.950
 3648POPC   C4A 7866   4.301  15.152   7.650
 3648POPC   C1B 7867   4.441  14.979   8.550
 3648POPC   C2B 7868   4.512  14.980   8.250
 3648POPC   C3B 7869   4.451  14.944   7.950
 3648POPC   C4B 7870   4.498  14.968   7.650
 3649POPC   NC3 7871  43.878   0.475   9.450
 3649POPC   PO4 7872  43.848   0.457   9.150
 3649POPC   GL1 7873  43.836   0.395   8.850
 3649POPC   GL2 7874  43.823   0.504   8.850
 3649POPC   C1A 7875  43.863   0.450   8.550
 3649POPC   D2A 7876  43.858   0.445   8.250
 3649POPC   C3A 7877  43.892   0.480   7.950
 3649POPC   C4A 7878  43.837   0.469   7.650
 3649POPC   C1B 7879  43.649   0.607   8.550
 3649POPC   C2B 7880  43.640   0.567   8.250
 3649POPC   C3B 7881  43.631   0.608   7.950
 3649POPC   C4B 7882  43.695   0.591   7.650
 3650POPC   NC3 7883  28.338  15.915   9.450
 3650POPC   PO4 7884  28.361  15.929   9.150
 3650POPC   GL1 7885  28.406  15.905   8.850
 3650POPC   GL2 7886  28.368  16.054   8.850
 3650POPC   C1A 7887  28.339  15.957   8.550
 3650POPC   D2A 7888  28.329  15.952   8.250
 3650POPC   C3A 7889  28.332  15.950   7.950
 3650POPC   C4A 7890  28.363  15.992   7.650
 3650POPC   C1B 7891  28.463  16.158   8.550
 3650POPC   C2B 7892  28.394  16.181   8.250
 3650POPC   C3B 7893  28.406  16.168   7.950
 3650POPC   C4B 7894  28.393  16.212   7.650
 3651POPC   NC3 7895  43.895  29.162   9.450
 3651POPC   PO4 7896  43.900  29.124   9.150
 3651POPC   GL1 7897  43.854  29.134   8.850
 3651POPC   GL2 7898  43.869  29.062   8.850
 3651POPC   C1A 7899  43.879  29.172   8.550
 3651POPC   D2A 7900  43.842  29.187   8.250
 3651POPC   C3A 7901  43.896  29.194   7.950
 3651POPC   C4A 7902  43.865  29.111   7.650
 3651POPC   C1B 7903  43.737  28.902   8.550
 3651POPC   C2B 7904  43.786  28.881   8.250
 3651POPC   C3B 7905  43.764  28.882   7.950
 3651POPC   C4B 7906  43.730  28.945   7.650
 3652POPC   NC3 7907   5.860  20.634   9.450
 3652POPC   PO4 7908   5.866  20.638   9.150
 3652POPC   GL1 7909   5.841  20.643   8.850
 3652POPC   GL2 7910   5.856  20.744   8.850
 3652POPC   C1A 7911   5.838  20.655   8.550
 3652POPC   D2A 7912   5.863  20.589   8.250
 3652POPC   C3A 7913   5.849  20.646   7.950
 3652POPC   C4A 7914   5.852  20.583   7.650
 3652POPC   C1B 7915   5.945  20.851   8.550
 3652POPC   C2B 7916   5.946  20.896   8.250
 3652POPC   C3B 7917   5.984  20.861   7.950
 3652POPC   C4B 7918   5.976  20.857   7.650
 3653POPC   NC3 7919   0.389   9.742   9.450
 3653POPC   PO4 7920   0.441   9.761   9.150
 3653POPC   GL1 7921   0.403   9.725   8.850
 3653POPC   GL2 7922   0.281   9.838   8.850
 3653POPC   C1A 7923   0.392   9.737   8.550
 3653POPC   D2A 7924   0.484   9.745   8.250
 3653POPC   C3A 7925   0.475   9.755   7.950
 3653POPC   C4A 7926   0.453   9.742   7.650
 3653POPC   C1B 7927   0.172   9.871   8.550
 3653POPC   C2B 7928   0.251   9.848   8.250
 3653POPC   C3B 7929   0.217   9.827   7.950
 3653POPC   C4B 7930   0.228   9.874   7.650
 3654POPC   NC3 7931   0.397  25.242   9.450
 3654POPC   PO4 7932   0.404  25.223   9.150
 3654POPC   GL1 7933   0.458  25.294   8.850
 3654POPC   GL2 7934   0.357  25.338   8.850
 3654POPC   C1A 7935   0.447  25.220   8.550
 3654POPC   D2A 7936   0.450  25.310   8.250
 3654POPC   C3A 7937   0.388  25.292   7.950
 3654POPC   C4A 7938   0.455  25.229   7.650
 3654POPC   C1B 7939   0.209  25.464   8.550
 3654POPC   C2B 7940   0.278  25.465   8.250
 3654POPC   C3B 7941   0.276  25.412   7.950
 3654POPC   C4B 7942   0.218  25.385   7.650
 3655POPC   NC3 7943  32.981  34.580   9.450
 3655POPC   PO4 7944  33.049  34.596   9.150
 3655POPC   GL1 7945  33.068  34.619   8.850
 3655POPC   GL2 7946  32.990  34.440   8.850
 3655POPC   C1A 7947  33.009  34.579   8.550
 3655POPC   D2A 7948  32.989  34.530   8.250
 3655POPC   C3A 7949  33.050  34.622   7.950
 3655POPC   C4A 7950  33.025  34.625   7.650
 3655POPC   C1B 7951  33.063  34.306   8.550
 3655POPC   C2B 7952  33.084  34.293   8.250
 3655POPC   C3B 7953  33.070  34.326   7.950
 3655POPC   C4B 7954  33.086  34.291   7.650
 3656POPC   NC3 7955  25.999  32.231   9.450
 3656POPC   PO4 7956  25.995  32.288   9.150
 3656POPC   GL1 7957  26.002  32.219   8.850
 3656POPC   GL2 7958  26.202  32.229   8.850
 3656POPC   C1A 7959  26.061  32.214   8.550
 3656POPC   D2A 7960  26.076  32.230   8.250
 3656POPC   C3A 7961  26.061  32.264   7.950
 3656POPC   C4A 7962  26.076  32.199   7.650
 3656POPC   C1B 7963  26.298  32.271   8.550
 3656POPC   C2B 7964  26.309  32.293   8.250
 3656POPC   C3B 7965  26.320  32.205   7.950
 3656POPC   C4B 7966  26.269  32.241   7.650
 3657POPC   NC3 7967  43.080  14.373   9.450
 3657POPC   PO4 7968  43.090  14.389   9.150
 3657POPC   GL1 7969  43.159  14.449   8.850
 3657POPC   GL2 7970  43.111  14.564   8.850
 3657POPC   C1A 7971  43.078  14.449   8.550
 3657POPC   D2A 7972  43.082  14.444   8.250
 3657POPC   C3A 7973  43.146  14.359   7.950
 3657POPC   C4A 7974  43.098  14.417   7.650
 3657POPC   C1B 7975  43.013  14.668   8.550
 3657POPC   C2B 7976  43.007  14.625   8.250
 3657POPC   C3B 7977  43.038  14.668   7.950
 3657POPC   C4B 7978  42.990  14.627   7.650
 3658POPC   NC3 7979  41.588  39.205   9.450
 3658POPC   PO4 7980  41.544  39.233   9.150
 3658POPC   GL1 7981  41.578  39.234   8.850
 3658POPC   GL2 7982  41.571  39.141   8.850
 3658POPC   C1A 7983  41.585  39.221   8.550
 3658POPC   D2A 7984  41.527  39.242   8.250
 3658POPC   C3A 7985  41.546  39.194   7.950
 3658POPC   C4A 7986  41.600  39.199   7.650
 3658POPC   C1B 7987  41.478  39.025   8.550
 3658POPC   C2B 7988  41.571  38.934   8.250
 3658POPC   C3B 7989  41.480  38.997   7.950
 3658POPC   C4B 7990  41.511  38.940   7.650
 3659POPC   NC3 7991  40.800  15.965   9.450
 3659POPC   PO4 7992  40.781  15.972   9.150
 3659POPC   GL1 7993  40.756  15.987   8.850
 3659POPC   GL2 7994  40.818  15.844   8.850
 3659POPC   C1A 7995  40.771  15.918   8.550
 3659POPC   D2A 7996  40.740  15.930   8.250
 3659POPC   C3A 7997  40.779  16.002   7.950
 3659POPC   C4A 7998  40.733  15.975   7.650
 3659POPC   C1B 7999  40.878  15.686   8.550
 3659POPC   C2B 8000  40.888  15.715   8.250
 3659POPC   C3B 8001  40.883  15.714   7.950
 3659POPC   C4B 8002  40.833  15.684   7.650
 3660POPC   NC3 8003  41.572  34.616   9.450
 3660POPC   PO4 8004  41.598  34.533   9.150
 3660POPC   GL1 8005  41.511  34.609   8.850
 3660POPC   GL2 8006  41.712  34.535   8.850
 3660POPC   C1A 8007  41.575  34.544   8.550
 3660POPC   D2A 8008  41.528  34.612   8.250
 3660POPC   C3A 8009  41.560  34.600   7.950
 3660POPC   C4A 8010  41.531  34.599   7.650
 3660POPC   C1B 8011  41.804  34.476   8.550
 3660POPC   C2B 8012  41.746  34.497   8.250
 3660POPC   C3B 8013  41.815  34.427   7.950
 3660POPC   C4B 8014  41.741  34.470   7.650
 3661POPC   NC3 8015  22.950  23.754   9.450
 3661POPC   PO4 8016  22.897  23.687   9.150
 3661POPC   GL1 8017  22.899  23.670   8.850
 3661POPC   GL2 8018  22.999  23.669   8.850
 3661POPC   C1A 8019  22.973  23.759   8.550
 3661POPC   D2A 8020  22.979  23.673   8.250
 3661POPC   C3A 8021  22.930  23.735   7.950
 3661POPC   C4A 8022  22.966  23.756   7.650
 3661POPC   C1B 8023  23.158  23.599   8.550
 3661POPC   C2B 8024  23.138  23.581   8.250
 3661POPC   C3B 8025  23.155  23.504   7.950
 3661POPC   C4B 8026  23.133  23.541   7.650
 3662POPC   NC3 8027  15.181  28.413   9.450
 3662POPC   PO4 8028  15.140  28.345   9.150
 3662POPC   GL1 8029  15.162  28.334   8.850
 3662POPC   GL2 8030  15.121  28.441   8.850
 3662POPC   C1A 8031  15.189  28.335   8.550
 3662POPC   D2A 8032  15.184  28.330   8.250
 3662POPC   C3A 8033  15.215  28.382   7.950
 3662POPC   C4A 8034  15.190  28.396   7.650
 3662POPC   C1B 8035  15.100  28.554   8.550
 3662POPC   C2B 8036  15.130  28.591   8.250
 3662POPC   C3B 8037  15.033  28.611   7.950
 3662POPC   C4B 8038  15.075  28.560   7.650
 3663POPC   NC3 8039  15.157  29.919   9.450
 3663POPC   PO4 8040  15.149  29.965   9.150
 3663POPC   GL1 8041  15.136  29.969   8.850
 3663POPC   GL2 8042  15.165  30.081   8.850
 3663POPC   C1A 8043  15.184  29.935   8.550
 3663POPC   D2A 8044  15.172  29.905   8.250
 3663POPC   C3A 8045  15.210  29.917   7.950
 3663POPC   C4A 8046  15.202  29.953   7.650
 3663POPC   C1B 8047  15.183  30.153   8.550
 3663POPC   C2B 8048  15.204  30.123   8.250
 3663POPC   C3B 8049  15.151  30.174   7.950
 3663POPC   C4B 8050  15.150  30.211   7.650
 3664POPC   NC3 8051  18.290  26.816   9.450
 3664POPC   PO4 8052  18.284  26.861   9.150
 3664POPC   GL1 8053  18.249  26.842   8.850
 3664POPC   GL2 8054  18.352  26.737   8.850
 3664POPC   C1A 8055  18.261  26.841   8.550
 3664POPC   D2A 8056  18.242  26.769   8.250
 3664POPC   C3A 8057  18.244  26.805   7.950
 3664POPC   C4A 8058  18.318  26.849   7.650
 3664POPC   C1B 8059  18.463  26.720   8.550
 3664POPC   C2B 8060  18.512  26.667   8.250
 3664POPC   C3B 8061  18.449  26.627   7.950
 3664POPC   C4B 8062  18.464  26.672   7.650
 3665POPC   NC3 8063  29.909  24.530   9.450
 3665POPC   PO4 8064  29.894  24.489   9.150
 3665POPC   GL1 8065  29.955  24.474   8.850
 3665POPC   GL2 8066  30.002  24.635   8.850
 3665POPC   C1A 8067  29.950  24.525   8.550
 3665POPC   D2A 8068  29.890  24.487   8.250
 3665POPC   C3A 8069  29.913  24.483   7.950
 3665POPC   C4A 8070  29.923  24.529   7.650
 3665POPC   C1B 8071  30.034  24.683   8.550
 3665POPC   C2B 8072  30.052  24.715   8.250
 3665POPC   C3B 8073  30.048  24.671   7.950
 3665POPC   C4B 8074  30.066  24.705   7.650
 3666POPC   NC3 8075  41.516  22.930   9.450
 3666POPC   PO4 8076  41.583  22.970   9.150
 3666POPC   GL1 8077  41.509  22.951   8.850
 3666POPC   GL2 8078  41.651  22.911   8.850
 3666POPC   C1A 8079  41.579  22.988   8.550
 3666POPC   D2A 8080  41.542  22.969   8.250
 3666POPC   C3A 8081  41.534  22.945   7.950
 3666POPC   C4A 8082  41.519  22.964   7.650
 3666POPC   C1B 8083  41.823  22.935   8.550
 3666POPC   C2B 8084  41.794  22.855   8.250
 3666POPC   C3B 8085  41.854  22.880   7.950
 3666POPC   C4B 8086  41.798  22.915   7.650
 3667POPC   NC3 8087   2.797  40.757   9.450
 3667POPC   PO4 8088   2.725  40.786   9.150
 3667POPC   GL1 8089   2.744  40.752   8.850
 3667POPC   GL2 8090   2.914  40.842   8.850
 3667POPC   C1A 8091   2.761  40.791   8.550
 3667POPC   D2A 8092   2.806  40.740   8.250
 3667POPC   C3A 8093   2.798  40.768   7.950
 3667POPC   C4A 8094   2.776  40.820   7.650
 3667POPC   C1B 8095   3.029  40.816   8.550
 3667POPC   C2B 8096   3.014  40.828   8.250
 3667POPC   C3B 8097   2.975  40.892   7.950
 3667POPC   C4B 8098   3.044  40.861   7.650
 3668POPC   NC3 8099  17.551   6.604   9.450
 3668POPC   PO4 8100  17.470   6.652   9.150
 3668POPC   GL1 8101  17.542   6.630   8.850
 3668POPC   GL2 8102  17.625   6.709   8.850
 3668POPC   C1A 8103  17.530   6.644   8.550
 3668POPC   D2A 8104  17.513   6.606   8.250
 3668POPC   C3A 8105  17.479   6.619   7.950
 3668POPC   C4A 8106  17.480   6.640   7.650
 3668POPC   C1B 8107  17.707   6.714   8.550
 3668POPC   C2B 8108  17.765   6.696   8.250
 3668POPC   C3B 8109  17.737   6.651   7.950
 3668POPC   C4B 8110  17.706   6.663   7.650
 3669POPC   NC3 8111  42.341  39.254   9.450
 3669POPC   PO4 8112  42.364  39.245   9.150
 3669POPC   GL1 8113  42.374  39.191   8.850
 3669POPC   GL2 8114  42.371  39.349   8.850
 3669POPC   C1A 8115  42.324  39.233   8.550
 3669POPC   D2A 8116  42.348  39.230   8.250
 3669POPC   C3A 8117  42.306  39.197   7.950
 3669POPC   C4A 8118  42.346  39.226   7.650
 3669POPC   C1B 8119  42.400  39.437   8.550
 3669POPC   C2B 8120  42.443  39.483   8.250
 3669POPC   C3B 8121  42.412  39.443   7.950
 3669POPC   C4B 8122  42.426  39.468   7.650
 3670POPC   NC3 8123   9.007  26.071   9.450
 3670POPC   PO4 8124   8.939  26.074   9.150
 3670POPC   GL1 8125   8.941  26.057   8.850
 3670POPC   GL2 8126   8.885  26.118   8.850
 3670POPC   C1A 8127   8.944  26.050   8.550
 3670POPC   D2A 8128   8.955  26.017   8.250
 3670POPC   C3A 8129   8.974  26.084   7.950
 3670POPC   C4A 8130   8.939  26.068   7.650
 3670POPC   C1B 8131   8.771  26.117   8.550
 3670POPC   C2B 8132   8.790  26.146   8.250
 3670POPC   C3B 8133   8.729  26.169   7.950
 3670POPC   C4B 8134   8.706  26.133   7.650
 3671POPC   NC3 8135  28.354  43.101   9.450
 3671POPC   PO4 8136  28.334  43.067   9.150
 3671POPC   GL1 8137  28.339  43.114   8.850
 3671POPC   GL2 8138  28.289  43.081   8.850
 3671POPC   C1A 8139  28.356  43.133   8.550
 3671POPC   D2A 8140  28.365  43.139   8.250
 3671POPC   C3A 8141  28.327  43.128   7.950
 3671POPC   C4A 8142  28.358  43.128   7.650
 3671POPC   C1B 8143  28.147  43.096   8.550
 3671POPC   C2B 8144  28.144  43.063   8.250
 3671POPC   C3B 8145  28.091  43.082   7.950
 3671POPC   C4B 8146  28.121  43.111   7.650
 3672POPC   NC3 8147  16.727  10.510   9.450
 3672POPC   PO4 8148  16.736  10.561   9.150
 3672POPC   GL1 8149  16.735  10.513   8.850
 3672POPC   GL2 8150  16.864  10.587   8.850
 3672POPC   C1A 8151  16.760  10.514   8.550
 3672POPC   D2A 8152  16.684  10.563   8.250
 3672POPC   C3A 8153  16.772  10.518   7.950
 3672POPC   C4A 8154  16.751  10.487   7.650
 3672POPC   C1B 8155  17.022  10.557   8.550
 3672POPC   C2B 8156  17.010  10.524   8.250
 3672POPC   C3B 8157  16.935  10.534   7.950
 3672POPC   C4B 8158  16.946  10.527   7.650
 3673POPC   NC3 8159  23.671  35.332   9.450
 3673POPC   PO4 8160  23.686  35.328   9.150
 3673POPC   GL1 8161  23.742  35.361   8.850
 3673POPC   GL2 8162  23.632  35.459   8.850
 3673POPC   C1A 8163  23.700  35.323   8.550
 3673POPC   D2A 8164  23.758  35.305   8.250
 3673POPC   C3A 8165  23.674  35.379   7.950
 3673POPC   C4A 8166  23.665  35.363   7.650
 3673POPC   C1B 8167  23.498  35.443   8.550
 3673POPC   C2B 8168  23.533  35.517   8.250
 3673POPC   C3B 8169  23.487  35.462   7.950
 3673POPC   C4B 8170  23.458  35.486   7.650
 3674POPC   NC3 8171   3.543  31.493   9.450
 3674POPC   PO4 8172   3.544  31.437   9.150
 3674POPC   GL1 8173   3.583  31.440   8.850
 3674POPC   GL2 8174   3.589  31.588   8.850
 3674POPC   C1A 8175   3.538  31.486   8.550
 3674POPC   D2A 8176   3.496  31.457   8.250
 3674POPC   C3A 8177   3.565  31.522   7.950
 3674POPC   C4A 8178   3.498  31.519   7.650
 3674POPC   C1B 8179   3.669  31.740   8.550
 3674POPC   C2B 8180   3.681  31.659   8.250
 3674POPC   C3B 8181   3.614  31.735   7.950
 3674POPC   C4B 8182   3.660  31.692   7.650
 3675POPC   NC3 8183  38.480   8.235   9.450
 3675POPC   PO4 8184  38.453   8.194   9.150
 3675POPC   GL1 8185  38.484   8.167   8.850
 3675POPC   GL2 8186  38.445   8.298   8.850
 3675POPC   C1A 8187  38.437   8.234   8.550
 3675POPC   D2A 8188  38.470   8.160   8.250
 3675POPC   C3A 8189  38.433   8.173   7.950
 3675POPC   C4A 8190  38.467   8.178   7.650
 3675POPC   C1B 8191  38.386   8.469   8.550
 3675POPC   C2B 8192  38.401   8.476   8.250
 3675POPC   C3B 8193  38.421   8.398   7.950
 3675POPC   C4B 8194  38.450   8.475   7.650
 3676POPC   NC3 8195   3.498  40.791   9.450
 3676POPC   PO4 8196   3.578  40.755   9.150
 3676POPC   GL1 8197   3.515  40.772   8.850
 3676POPC   GL2 8198   3.507  40.920   8.850
 3676POPC   C1A 8199   3.540  40.754   8.550
 3676POPC   D2A 8200   3.590  40.764   8.250
 3676POPC   C3A 8201   3.535  40.801   7.950
 3676POPC   C4A 8202   3.512  40.800   7.650
 3676POPC   C1B 8203   3.414  40.934   8.550
 3676POPC   C2B 8204   3.401  40.938   8.250
 3676POPC   C3B 8205   3.406  40.968   7.950
 3676POPC   C4B 8206   3.375  41.011   7.650
 3677POPC   NC3 8207  21.404   5.079   9.450
 3677POPC   PO4 8208  21.396   5.086   9.150
 3677POPC   GL1 8209  21.419   5.142   8.850
 3677POPC   GL2 8210  21.299   5.253   8.850
 3677POPC   C1A 8211  21.415   5.112   8.550
 3677POPC   D2A 8212  21.353   5.099   8.250
 3677POPC   C3A 8213  21.404   5.109   7.950
 3677POPC   C4A 8214  21.386   5.057   7.650
 3677POPC   C1B 8215  21.287   5.348   8.550
 3677POPC   C2B 8216  21.328   5.298   8.250
 3677POPC   C3B 8217  21.314   5.307   7.950
 3677POPC   C4B 8218  21.342   5.362   7.650
 3678POPC   NC3 8219   6.645  29.909   9.450
 3678POPC   PO4 8220   6.604  29.955   9.150
 3678POPC   GL1 8221   6.596  29.951   8.850
 3678POPC   GL2 8222   6.534  29.847   8.850
 3678POPC   C1A 8223   6.634  29.894   8.550
 3678POPC   D2A 8224   6.615  29.943   8.250
 3678POPC   C3A 8225   6.602  29.959   7.950
 3678POPC   C4A 8226   6.674  29.969   7.650
 3678POPC   C1B 8227   6.421  29.772   8.550
 3678POPC   C2B 8228   6.490  29.721   8.250
 3678POPC   C3B 8229   6.414  29.746   7.950
 3678POPC   C4B 8230   6.492  29.750   7.650
 3679POPC   NC3 8231   5.111  16.780   9.450
 3679POPC   PO4 8232   5.072  16.740   9.150
 3679POPC   GL1 8233   5.084  16.716   8.850
 3679POPC   GL2 8234   5.122  16.841   8.850
 3679POPC   C1A 8235   5.098  16.718   8.550
 3679POPC   D2A 8236   5.103  16.759   8.250
 3679POPC   C3A 8237   5.061  16.713   7.950
 3679POPC   C4A 8238   5.126  16.730   7.650
 3679POPC   C1B 8239   5.274  16.914   8.550
 3679POPC   C2B 8240   5.278  16.971   8.250
 3679POPC   C3B 8241   5.209  16.948   7.950
 3679POPC   C4B 8242   5.250  16.886   7.650
 3680POPC   NC3 8243  18.332  27.556   9.450
 3680POPC   PO4 8244  18.273  27.578   9.150
 3680POPC   GL1 8245  18.236  27.555   8.850
 3680POPC   GL2 8246  18.176  27.605   8.850
 3680POPC   C1A 8247  18.244  27.550   8.550
 3680POPC   D2A 8248  18.247  27.586   8.250
 3680POPC   C3A 8249  18.315  27.545   7.950
 3680POPC   C4A 8250  18.281  27.630   7.650
 3680POPC   C1B 8251  18.024  27.601   8.550
 3680POPC   C2B 8252  18.051  27.576   8.250
 3680POPC   C3B 8253  17.984  27.572   7.950
 3680POPC   C4B 8254  18.070  27.628   7.650
 3681POPC   NC3 8255  40.016  14.448   9.450
 3681POPC   PO4 8256  40.039  14.396   9.150
 3681POPC   GL1 8257  39.970  14.422   8.850
 3681POPC   GL2 8258  40.090  14.456   8.850
 3681POPC   C1A 8259  39.962  14.383   8.550
 3681POPC   D2A 8260  40.032  14.394   8.250
 3681POPC   C3A 8261  40.035  14.449   7.950
 3681POPC   C4A 8262  40.047  14.366   7.650
 3681POPC   C1B 8263  40.160  14.570   8.550
 3681POPC   C2B 8264  40.166  14.604   8.250
 3681POPC   C3B 8265  40.197  14.573   7.950
 3681POPC   C4B 8266  40.189  14.559   7.650
 3682POPC   NC3 8267  22.951  43.070   9.450
 3682POPC   PO4 8268  22.962  43.107   9.150
 3682POPC   GL1 8269  22.958  43.096   8.850
 3682POPC   GL2 8270  22.856  43.225   8.850
 3682POPC   C1A 8271  22.920  43.066   8.550
 3682POPC   D2A 8272  22.923  43.147   8.250
 3682POPC   C3A 8273  22.975  43.077   7.950
 3682POPC   C4A 8274  22.891  43.102   7.650
 3682POPC   C1B 8275  22.761  43.314   8.550
 3682POPC   C2B 8276  22.846  43.321   8.250
 3682POPC   C3B 8277  22.830  43.279   7.950
 3682POPC   C4B 8278  22.821  43.340   7.650
 3683POPC   NC3 8279  30.677  34.559   9.450
 3683POPC   PO4 8280  30.682  34.577   9.150
 3683POPC   GL1 8281  30.705  34.619   8.850
 3683POPC   GL2 8282  30.811  34.632   8.850
 3683POPC   C1A 8283  30.693  34.611   8.550
 3683POPC   D2A 8284  30.686  34.570   8.250
 3683POPC   C3A 8285  30.725  34.600   7.950
 3683POPC   C4A 8286  30.710  34.542   7.650
 3683POPC   C1B 8287  30.861  34.776   8.550
 3683POPC   C2B 8288  30.870  34.752   8.250
 3683POPC   C3B 8289  30.887  34.714   7.950
 3683POPC   C4B 8290  30.888  34.748   7.650
 3684POPC   NC3 8291  23.700  12.042   9.450
 3684POPC   PO4 8292  23.683  12.045   9.150
 3684POPC   GL1 8293  23.679  12.086   8.850
 3684POPC   GL2 8294  23.740  11.942   8.850
 3684POPC   C1A 8295  23.680  12.104   8.550
 3684POPC   D2A 8296  23.678  12.037   8.250
 3684POPC   C3A 8297  23.732  12.048   7.950
 3684POPC   C4A 8298  23.743  12.074   7.650
 3684POPC   C1B 8299  23.793  11.801   8.550
 3684POPC   C2B 8300  23.773  11.855   8.250
 3684POPC   C3B 8301  23.751  11.859   7.950
 3684POPC   C4B 8302  23.749  11.789   7.650
 3685POPC   NC3 8303  29.123  14.425   9.450
 3685POPC   PO4 8304  29.169  14.360   9.150
 3685POPC   GL1 8305  29.175  14.383   8.850
 3685POPC   GL2 8306  29.022  14.290   8.850
 3685POPC   C1A 8307  29.174  14.355   8.550
 3685POPC   D2A 8308  29.151  14.370   8.250
 3685POPC   C3A 8309  29.108  14.416   7.950
 3685POPC   C4A 8310  29.100  14.359   7.650
 3685POPC   C1B 8311  28.928  14.229   8.550
 3685POPC   C2B 8312  28.997  14.247   8.250
 3685POPC   C3B 8313  28.957  14.224   7.950
 3685POPC   C4B 8314  28.919  14.252   7.650
 3686POPC   NC3 8315  13.601  33.021   9.450
 3686POPC   PO4 8316  13.599  33.053   9.150
 3686POPC   GL1 8317  13.591  33.054   8.850
 3686POPC   GL2 8318  13.521  33.080   8.850
 3686POPC   C1A 8319  13.627  33.025   8.550
 3686POPC   D2A 8320  13.659  33.051   8.250
 3686POPC   C3A 8321  13.590  33.036   7.950
 3686POPC   C4A 8322  13.674  32.999   7.650
 3686POPC   C1B 8323  13.416  33.197   8.550
 3686POPC   C2B 8324  13.413  33.187   8.250
 3686POPC   C3B 8325  13.418  33.144   7.950
 3686POPC   C4B 8326  13.393  33.204   7.650
 3687POPC   NC3 8327  15.928  30.732   9.450
 3687POPC   PO4 8328  15.961  30.669   9.150
 3687POPC   GL1 8329  15.908  30.663   8.850
 3687POPC   GL2 8330  16.027  30.593   8.850
 3687POPC   C1A 8331  15.973  30.681   8.550
 3687POPC   D2A 8332  15.934  30.665   8.250
 3687POPC   C3A 8333  15.931  30.716   7.950
 3687POPC   C4A 8334  15.932  30.707   7.650
 3687POPC   C1B 8335  16.032  30.466   8.550
 3687POPC   C2B 8336  16.103  30.498   8.250
 3687POPC   C3B 8337  16.014  30.431   7.950
 3687POPC   C4B 8338  16.046  30.465   7.650
 3688POPC   NC3 8339  32.274  43.110   9.450
 3688POPC   PO4 8340  32.213  43.064   9.150
 3688POPC   GL1 8341  32.219  43.091   8.850
 3688POPC   GL2 8342  32.097  43.136   8.850
 3688POPC   C1A 8343  32.250  43.093   8.550
 3688POPC   D2A 8344  32.241  43.153   8.250
 3688POPC   C3A 8345  32.239  43.093   7.950
 3688POPC   C4A 8346  32.230  43.113   7.650
 3688POPC   C1B 8347  32.036  43.136   8.550
 3688POPC   C2B 8348  31.985  43.206   8.250
 3688POPC   C3B 8349  31.983  43.146   7.950
 3688POPC   C4B 8350  31.991  43.123   7.650
 3689POPC   NC3 8351  24.513   9.006   9.450
 3689POPC   PO4 8352  24.482   8.949   9.150
 3689POPC   GL1 8353  24.453   8.927   8.850
 3689POPC   GL2 8354  24.571   9.025   8.850
 3689POPC   C1A 8355  24.446   9.002   8.550
 3689POPC   D2A 8356  24.478   9.019   8.250
 3689POPC   C3A 8357  24.466   8.967   7.950
 3689POPC   C4A 8358  24.522   8.994   7.650
 3689POPC   C1B 8359  24.767   9.055   8.550
 3689POPC   C2B 8360  24.705   9.080   8.250
 3689POPC   C3B 8361  24.717   9.101   7.950
 3689POPC   C4B 8362  24.720   9.085   7.650
 3690POPC   NC3 8363  12.103  27.587   9.450
 3690POPC   PO4 8364  12.117  27.626   9.150
 3690POPC   GL1 8365  12.058  27.574   8.850
 3690POPC   GL2 8366  12.163  27.614   8.850
 3690POPC   C1A 8367  12.100  27.567   8.550
 3690POPC   D2A 8368  12.027  27.547   8.250
 3690POPC   C3A 8369  12.068  27.582   7.950
 3690POPC   C4A 8370  12.039  27.616   7.650
 3690POPC   C1B 8371  12.357  27.632   8.550
 3690POPC   C2B 8372  12.342  27.562   8.250
 3690POPC   C3B 8373  12.286  27.648   7.950
 3690POPC   C4B 8374  12.334  27.657   7.650
 3691POPC   NC3 8375  10.537  31.510   9.450
 3691POPC   PO4 8376  10.479  31.483   9.150
 3691POPC   GL1 8377  10.514  31.451   8.850
 3691POPC   GL2 8378  10.417  31.547   8.850
 3691POPC   C1A 8379  10.507  31.482   8.550
 3691POPC   D2A 8380  10.482  31.474   8.250
 3691POPC   C3A 8381  10.492  31.515   7.950
 3691POPC   C4A 8382  10.482  31.431   7.650
 3691POPC   C1B 8383  10.381  31.632   8.550
 3691POPC   C2B 8384  10.346  31.630   8.250
 3691POPC   C3B 8385  10.325  31.638   7.950
 3691POPC   C4B 8386  10.368  31.687   7.650
 3692POPC   NC3 8387  12.835  25.219   9.450
 3692POPC   PO4 8388  12.810  25.240   9.150
 3692POPC   GL1 8389  12.852  25.311   8.850
 3692POPC   GL2 8390  12.775  25.241   8.850
 3692POPC   C1A 8391  12.869  25.302   8.550
 3692POPC   D2A 8392  12.839  25.261   8.250
 3692POPC   C3A 8393  12.854  25.314   7.950
 3692POPC   C4A 8394  12.823  25.301   7.650
 3692POPC   C1B 8395  12.628  25.120   8.550
 3692POPC   C2B 8396  12.621  25.123   8.250
 3692POPC   C3B 8397  12.630  25.147   7.950
 3692POPC   C4B 8398  12.600  25.106   7.650
 3693POPC   NC3 8399  19.084  16.732   9.450
 3693POPC   PO4 8400  19.042  16.747   9.150
 3693POPC   GL1 8401  19.063  16.695   8.850
 3693POPC   GL2 8402  18.895  16.710   8.850
 3693POPC   C1A 8403  19.081  16.712   8.550
 3693POPC   D2A 8404  19.014  16.698   8.250
 3693POPC   C3A 8405  19.031  16.697   7.950
 3693POPC   C4A 8406  19.094  16.735   7.650
 3693POPC   C1B 8407  18.818  16.648   8.550
 3693POPC   C2B 8408  18.800  16.643   8.250
 3693POPC   C3B 8409  18.833  16.694   7.950
 3693POPC   C4B 8410  18.765  16.650   7.650
 3694POPC   NC3 8411  22.165  40.018   9.450
 3694POPC   PO4 8412  22.115  39.986   9.150
 3694POPC   GL1 8413  22.196  40.050   8.850
 3694POPC   GL2 8414  22.265  40.083   8.850
 3694POPC   C1A 8415  22.189  40.006   8.550
 3694POPC   D2A 8416  22.210  40.014   8.250
 3694POPC   C3A 8417  22.129  39.990   7.950
 3694POPC   C4A 8418  22.201  40.014   7.650
 3694POPC   C1B 8419  22.343  40.223   8.550
 3694POPC   C2B 8420  22.393  40.209   8.250
 3694POPC   C3B 8421  22.358  40.167   7.950
 3694POPC   C4B 8422  22.298  40.200   7.650
 3695POPC   NC3 8423  26.088  32.999   9.450
 3695POPC   PO4 8424  26.059  33.025   9.150
 3695POPC   GL1 8425  26.058  32.984   8.850
 3695POPC   GL2 8426  26.144  32.967   8.850
 3695POPC   C1A 8427  26.020  33.030   8.550
 3695POPC   D2A 8428  26.078  33.040   8.250
 3695POPC   C3A 8429  26.040  32.991   7.950
 3695POPC   C4A 8430  25.996  33.031   7.650
 3695POPC   C1B 8431  26.181  32.845   8.550
 3695POPC   C2B 8432  26.179  32.815   8.250
 3695POPC   C3B 8433  26.256  32.795   7.950
 3695POPC   C4B 8434  26.169  32.811   7.650
 3696POPC   NC3 8435   2.748   8.954   9.450
 3696POPC   PO4 8436   2.768   8.928   9.150
 3696POPC   GL1 8437   2.802   9.012   8.850
 3696POPC   GL2 8438   2.887   9.120   8.850
 3696POPC   C1A 8439   2.733   9.012   8.550
 3696POPC   D2A 8440   2.719   8.973   8.250
 3696POPC   C3A 8441   2.779   8.987   7.950
 3696POPC   C4A 8442   2.744   9.001   7.650
 3696POPC   C1B 8443   2.949   9.135   8.550
 3696POPC   C2B 8444   2.952   9.203   8.250
 3696POPC   C3B 8445   2.937   9.170   7.950
 3696POPC   C4B 8446   2.892   9.220   7.650
 3697POPC   NC3 8447  22.194  29.888   9.450
 3697POPC   PO4 8448  22.203  29.927   9.150
 3697POPC   GL1 8449  22.137  29.928   8.850
 3697POPC   GL2 8450  22.084  29.821   8.850
 3697POPC   C1A 8451  22.180  29.880   8.550
 3697POPC   D2A 8452  22.204  29.894   8.250
 3697POPC   C3A 8453  22.203  29.872   7.950
 3697POPC   C4A 8454  22.181  29.918   7.650
 3697POPC   C1B 8455  22.059  29.681   8.550
 3697POPC   C2B 8456  22.136  29.725   8.250
 3697POPC   C3B 8457  22.148  29.632   7.950
 3697POPC   C4B 8458  22.068  29.708   7.650
 3698POPC   NC3 8459   6.620  27.625   9.450
 3698POPC   PO4 8460   6.648  27.551   9.150
 3698POPC   GL1 8461   6.682  27.623   8.850
 3698POPC   GL2 8462   6.609  27.727   8.850
 3698POPC   C1A 8463   6.644  27.630   8.550
 3698POPC   D2A 8464   6.648  27.614   8.250
 3698POPC   C3A 8465   6.683  27.544   7.950
 3698POPC   C4A 8466   6.602  27.636   7.650
 3698POPC   C1B 8467   6.546  27.782   8.550
 3698POPC   C2B 8468   6.567  27.841   8.250
 3698POPC   C3B 8469   6.532  27.809   7.950
 3698POPC   C4B 8470   6.497  27.824   7.650
 3699POPC   NC3 8471  39.195  35.318   9.450
 3699POPC   PO4 8472  39.278  35.380   9.150
 3699POPC   GL1 8473  39.183  35.398   8.850
 3699POPC   GL2 8474  39.209  35.230   8.850
 3699POPC   C1A 8475  39.277  35.307   8.550
 3699POPC   D2A 8476  39.190  35.331   8.250
 3699POPC   C3A 8477  39.278  35.390   7.950
 3699POPC   C4A 8478  39.189  35.366   7.650
 3699POPC   C1B 8479  39.261  35.102   8.550
 3699POPC   C2B 8480  39.272  35.125   8.250
 3699POPC   C3B 8481  39.224  35.123   7.950
 3699POPC   C4B 8482  39.282  35.093   7.650
 3700POPC   NC3 8483   9.769  30.746   9.450
 3700POPC   PO4 8484   9.780  30.681   9.150
 3700POPC   GL1 8485   9.731  30.664   8.850
 3700POPC   GL2 8486   9.772  30.797   8.850
 3700POPC   C1A 8487   9.717  30.658   8.550
 3700POPC   D2A 8488   9.703  30.715   8.250
 3700POPC   C3A 8489   9.794  30.742   7.950
 3700POPC   C4A 8490   9.779  30.664   7.650
 3700POPC   C1B 8491   9.860  30.955   8.550
 3700POPC   C2B 8492   9.868  30.871   8.250
 3700POPC   C3B 8493   9.904  30.937   7.950
 3700POPC   C4B 8494   9.865  30.866   7.650
 3701POPC   NC3 8495   8.174   8.237   9.450
 3701POPC   PO4 8496   8.153   8.187   9.150
 3701POPC   GL1 8497   8.208   8.202   8.850
 3701POPC   GL2 8498   8.256   8.102   8.850
 3701POPC   C1A 8499   8.238   8.244   8.550
 3701POPC   D2A 8500   8.166   8.168   8.250
 3701POPC   C3A 8501   8.168   8.153   7.950
 3701POPC   C4A 8502   8.199   8.245   7.650
 3701POPC   C1B 8503   8.384   8.068   8.550
 3701POPC   C2B 8504   8.432   8.109   8.250
 3701POPC   C3B 8505   8.363   8.084   7.950
 3701POPC   C4B 8506   8.393   8.032   7.650
 3702POPC   NC3 8507   3.496  26.787   9.450
 3702POPC   PO4 8508   3.544  26.784   9.150
 3702POPC   GL1 8509   3.528  26.843   8.850
 3702POPC   GL2 8510   3.560  26.648   8.850
 3702POPC   C1A 8511   3.507  26.774   8.550
 3702POPC   D2A 8512   3.584  26.811   8.250
 3702POPC   C3A 8513   3.525  26.830   7.950
 3702POPC   C4A 8514   3.540  26.825   7.650
 3702POPC   C1B 8515   3.595  26.525   8.550
 3702POPC   C2B 8516   3.503  26.566   8.250
 3702POPC   C3B 8517   3.509  26.557   7.950
 3702POPC   C4B 8518   3.513  26.572   7.650
 3703POPC   NC3 8519  15.913  26.839   9.450
 3703POPC   PO4 8520  15.920  26.814   9.150
 3703POPC   GL1 8521  15.949  26.800   8.850
 3703POPC   GL2 8522  16.124  26.824   8.850
 3703POPC   C1A 8523  15.966  26.773   8.550
 3703POPC   D2A 8524  15.935  26.856   8.250
 3703POPC   C3A 8525  15.966  26.862   7.950
 3703POPC   C4A 8526  16.003  26.797   7.650
 3703POPC   C1B 8527  16.187  26.835   8.550
 3703POPC   C2B 8528  16.251  26.867   8.250
 3703POPC   C3B 8529  16.215  26.820   7.950
 3703POPC   C4B 8530  16.191  26.840   7.650
 3704POPC   NC3 8531  26.788  21.398   9.450
 3704POPC   PO4 8532  26.801  21.353   9.150
 3704POPC   GL1 8533  26.771  21.376   8.850
 3704POPC   GL2 8534  26.745  21.459   8.850
 3704POPC   C1A 8535  26.862  21.355   8.550
 3704POPC   D2A 8536  26.786  21.365   8.250
 3704POPC   C3A 8537  26.831  21.354   7.950
 3704POPC   C4A 8538  26.856  21.373   7.650
 3704POPC   C1B 8539  26.634  21.509   8.550
 3704POPC   C2B 8540  26.619  21.559   8.250
 3704POPC   C3B 8541  26.635  21.513   7.950
 3704POPC   C4B 8542  26.666  21.501   7.650
 3705POPC   NC3 8543  32.214  22.173   9.450
 3705POPC   PO4 8544  32.247  22.148   9.150
 3705POPC   GL1 8545  32.218  22.175   8.850
 3705POPC   GL2 8546  32.316  22.047   8.850
 3705POPC   C1A 8547  32.298  22.162   8.550
 3705POPC   D2A 8548  32.214  22.119   8.250
 3705POPC   C3A 8549  32.228  22.187   7.950
 3705POPC   C4A 8550  32.231  22.125   7.650
 3705POPC   C1B 8551  32.446  22.074   8.550
 3705POPC   C2B 8552  32.489  22.063   8.250
 3705POPC   C3B 8553  32.447  22.017   7.950
 3705POPC   C4B 8554  32.479  22.032   7.650
 3706POPC   NC3 8555  39.996  12.093   9.450
 3706POPC   PO4 8556  40.019  12.119   9.150
 3706POPC   GL1 8557  40.039  12.034   8.850
 3706POPC   GL2 8558  39.984  11.972   8.850
 3706POPC   C1A 8559  40.031  12.079   8.550
 3706POPC   D2A 8560  40.039  12.061   8.250
 3706POPC   C3A 8561  39.960  12.061   7.950
 3706POPC   C4A 8562  39.983  12.039   7.650
 3706POPC   C1B 8563  39.885  11.922   8.550
 3706POPC   C2B 8564  39.895  11.865   8.250
 3706POPC   C3B 8565  39.845  11.854   7.950
 3706POPC   C4B 8566  39.820  11.835   7.650
 3707POPC   NC3 8567  42.379  40.817   9.450
 3707POPC   PO4 8568  42.380  40.780   9.150
 3707POPC   GL1 8569  42.289  40.783   8.850
 3707POPC   GL2 8570  42.461  40.809   8.850
 3707POPC   C1A 8571  42.360  40.778   8.550
 3707POPC   D2A 8572  42.349  40.809   8.250
 3707POPC   C3A 8573  42.347  40.831   7.950
 3707POPC   C4A 8574  42.327  40.803   7.650
 3707POPC   C1B 8575  42.509  40.893   8.550
 3707POPC   C2B 8576  42.541  40.887   8.250
 3707POPC   C3B 8577  42.506  40.947   7.950
 3707POPC   C4B 8578  42.542  40.900   7.650
 3708POPC   NC3 8579  36.155  25.274   9.450
 3708POPC   PO4 8580  36.120  25.244   9.150
 3708POPC   GL1 8581  36.146  25.216   8.850
 3708POPC   GL2 8582  36.080  25.139   8.850
 3708POPC   C1A 8583  36.128  25.267   8.550
 3708POPC   D2A 8584  36.121  25.308   8.250
 3708POPC   C3A 8585  36.130  25.217   7.950
 3708POPC   C4A 8586  36.142  25.219   7.650
 3708POPC   C1B 8587  36.142  25.019   8.550
 3708POPC   C2B 8588  36.064  24.978   8.250
 3708POPC   C3B 8589  36.155  24.996   7.950
 3708POPC   C4B 8590  36.080  24.972   7.650
 3709POPC   NC3 8591  36.926   1.941   9.450
 3709POPC   PO4 8592  36.916   1.997   9.150
 3709POPC   GL1 8593  36.872   1.946   8.850
 3709POPC   GL2 8594  36.748   2.058   8.850
 3709POPC   C1A 8595  36.878   2.002   8.550
 3709POPC   D2A 8596  36.874   2.028   8.250
 3709POPC   C3A 8597  36.923   1.974   7.950
 3709POPC   C4A 8598  36.880   1.993   7.650
 3709POPC   C1B 8599  36.659   2.042   8.550
 3709POPC   C2B 8600  36.661   2.076   8.250
 3709POPC   C3B 8601  36.660   2.062   7.950
 3709POPC   C4B 8602  36.651   2.091   7.650
 3710POPC   NC3 8603   1.258  30.680   9.450
 3710POPC   PO4 8604   1.213  30.715   9.150
 3710POPC   GL1 8605   1.256  30.658   8.850
 3710POPC   GL2 8606   1.207  30.553   8.850
 3710POPC   C1A 8607   1.231  30.721   8.550
 3710POPC   D2A 8608   1.175  30.712   8.250
 3710POPC   C3A 8609   1.221  30.715   7.950
 3710POPC   C4A 8610   1.231  30.741   7.650
 3710POPC   C1B 8611   1.207  30.448   8.550
 3710POPC   C2B 8612   1.218  30.464   8.250
 3710POPC   C3B 8613   1.139  30.399   7.950
 3710POPC   C4B 8614   1.208  30.414   7.650
 3711POPC   NC3 8615   1.203  26.067   9.450
 3711POPC   PO4 8616   1.200  26.048   9.150
 3711POPC   GL1 8617   1.214  26.068   8.850
 3711POPC   GL2 8618   1.087  25.977   8.850
 3711POPC   C1A 8619   1.215  26.049   8.550
 3711POPC   D2A 8620   1.179  26.006   8.250
 3711POPC   C3A 8621   1.261  26.032   7.950
 3711POPC   C4A 8622   1.178  26.035   7.650
 3711POPC   C1B 8623   1.020  26.005   8.550
 3711POPC   C2B 8624   0.996  25.932   8.250
 3711POPC   C3B 8625   0.933  25.961   7.950
 3711POPC   C4B 8626   0.938  25.950   7.650
 3712POPC   NC3 8627  28.385  17.493   9.450
 3712POPC   PO4 8628  28.322  17.509   9.150
 3712POPC   GL1 8629  28.418  17.472   8.850
 3712POPC   GL2 8630  28.299  17.429   8.850
 3712POPC   C1A 8631  28.408  17.493   8.550
 3712POPC   D2A 8632  28.405  17.544   8.250
 3712POPC   C3A 8633  28.406  17.538   7.950
 3712POPC   C4A 8634  28.391  17.532   7.650
 3712POPC   C1B 8635  28.143  17.344   8.550
 3712POPC   C2B 8636  28.153  17.369   8.250
 3712POPC   C3B 8637  28.152  17.398   7.950
 3712POPC   C4B 8638  28.178  17.355   7.650
 3713POPC   NC3 8639  11.292  29.943   9.450
 3713POPC   PO4 8640  11.253  29.920   9.150
 3713POPC   GL1 8641  11.301  29.944   8.850
 3713POPC   GL2 8642  11.356  30.040   8.850
 3713POPC   C1A 8643  11.279  29.884   8.550
 3713POPC   D2A 8644  11.334  29.930   8.250
 3713POPC   C3A 8645  11.302  29.896   7.950
 3713POPC   C4A 8646  11.290  29.909   7.650
 3713POPC   C1B 8647  11.463  30.107   8.550
 3713POPC   C2B 8648  11.477  30.056   8.250
 3713POPC   C3B 8649  11.479  30.028   7.950
 3713POPC   C4B 8650  11.540  30.036   7.650
 3714POPC   NC3 8651   2.785  34.573   9.450
 3714POPC   PO4 8652   2.771  34.614   9.150
 3714POPC   GL1 8653   2.740  34.585   8.850
 3714POPC   GL2 8654   2.834  34.596   8.850
 3714POPC   C1A 8655   2.783  34.579   8.550
 3714POPC   D2A 8656   2.740  34.557   8.250
 3714POPC   C3A 8657   2.720  34.526   7.950
 3714POPC   C4A 8658   2.758  34.545   7.650
 3714POPC   C1B 8659   2.951  34.667   8.550
 3714POPC   C2B 8660   2.940  34.742   8.250
 3714POPC   C3B 8661   2.941  34.714   7.950
 3714POPC   C4B 8662   2.996  34.658   7.650
 3715POPC   NC3 8663  25.251  14.438   9.450
 3715POPC   PO4 8664  25.238  14.396   9.150
 3715POPC   GL1 8665  25.293  14.381   8.850
 3715POPC   GL2 8666  25.167  14.454   8.850
 3715POPC   C1A 8667  25.292  14.415   8.550
 3715POPC   D2A 8668  25.218  14.363   8.250
 3715POPC   C3A 8669  25.275  14.445   7.950
 3715POPC   C4A 8670  25.300  14.385   7.650
 3715POPC   C1B 8671  24.989  14.469   8.550
 3715POPC   C2B 8672  24.976  14.407   8.250
 3715POPC   C3B 8673  24.994  14.414   7.950
 3715POPC   C4B 8674  25.037  14.404   7.650
 3716POPC   NC3 8675  34.595  19.039   9.450
 3716POPC   PO4 8676  34.592  19.051   9.150
 3716POPC   GL1 8677  34.557  19.049   8.850
 3716POPC   GL2 8678  34.485  19.156   8.850
 3716POPC   C1A 8679  34.588  19.061   8.550
 3716POPC   D2A 8680  34.564  19.077   8.250
 3716POPC   C3A 8681  34.617  19.030   7.950
 3716POPC   C4A 8682  34.602  19.068   7.650
 3716POPC   C1B 8683  34.398  19.170   8.550
 3716POPC   C2B 8684  34.384  19.166   8.250
 3716POPC   C3B 8685  34.388  19.176   7.950
 3716POPC   C4B 8686  34.406  19.182   7.650
 3717POPC   NC3 8687  26.083   8.150   9.450
 3717POPC   PO4 8688  26.070   8.188   9.150
 3717POPC   GL1 8689  26.044   8.239   8.850
 3717POPC   GL2 8690  25.974   8.109   8.850
 3717POPC   C1A 8691  26.070   8.155   8.550
 3717POPC   D2A 8692  26.046   8.218   8.250
 3717POPC   C3A 8693  26.058   8.225   7.950
 3717POPC   C4A 8694  26.048   8.186   7.650
 3717POPC   C1B 8695  25.903   8.024   8.550
 3717POPC   C2B 8696  25.846   7.963   8.250
 3717POPC   C3B 8697  25.918   7.976   7.950
 3717POPC   C4B 8698  25.882   7.974   7.650
 3718POPC   NC3 8699  32.217   2.801   9.450
 3718POPC   PO4 8700  32.255   2.804   9.150
 3718POPC   GL1 8701  32.286   2.723   8.850
 3718POPC   GL2 8702  32.128   2.665   8.850
 3718POPC   C1A 8703  32.226   2.723   8.550
 3718POPC   D2A 8704  32.256   2.794   8.250
 3718POPC   C3A 8705  32.277   2.810   7.950
 3718POPC   C4A 8706  32.200   2.785   7.650
 3718POPC   C1B 8707  32.002   2.710   8.550
 3718POPC   C2B 8708  32.070   2.644   8.250
 3718POPC   C3B 8709  32.031   2.651   7.950
 3718POPC   C4B 8710  32.051   2.645   7.650
 3719POPC   NC3 8711  19.847   5.105   9.450
 3719POPC   PO4 8712  19.849   5.105   9.150
 3719POPC   GL1 8713  19.804   5.130   8.850
 3719POPC   GL2 8714  19.699   5.196   8.850
 3719POPC   C1A 8715  19.791   5.108   8.550
 3719POPC   D2A 8716  19.865   5.131   8.250
 3719POPC   C3A 8717  19.796   5.061   7.950
 3719POPC   C4A 8718  19.800   5.072   7.650
 3719POPC   C1B 8719  19.651   5.239   8.550
 3719POPC   C2B 8720  19.598   5.192   8.250
 3719POPC   C3B 8721  19.614   5.182   7.950
 3719POPC   C4B 8722  19.612   5.198   7.650
 3720POPC   NC3 8723  26.078  23.751   9.450
 3720POPC   PO4 8724  26.068  23.748   9.150
 3720POPC   GL1 8725  26.053  23.676   8.850
 3720POPC   GL2 8726  26.134  23.796   8.850
 3720POPC   C1A 8727  26.034  23.763   8.550
 3720POPC   D2A 8728  26.010  23.714   8.250
 3720POPC   C3A 8729  26.069  23.739   7.950
 3720POPC   C4A 8730  25.996  23.704   7.650
 3720POPC   C1B 8731  26.196  23.937   8.550
 3720POPC   C2B 8732  26.178  23.873   8.250
 3720POPC   C3B 8733  26.264  23.890   7.950
 3720POPC   C4B 8734  26.245  23.919   7.650
 3721POPC   NC3 8735  31.487  21.413   9.450
 3721POPC   PO4 8736  31.434  21.357   9.150
 3721POPC   GL1 8737  31.518  21.345   8.850
 3721POPC   GL2 8738  31.601  21.273   8.850
 3721POPC   C1A 8739  31.487  21.360   8.550
 3721POPC   D2A 8740  31.477  21.404   8.250
 3721POPC   C3A 8741  31.478  21.344   7.950
 3721POPC   C4A 8742  31.446  21.420   7.650
 3721POPC   C1B 8743  31.653  21.253   8.550
 3721POPC   C2B 8744  31.653  21.256   8.250
 3721POPC   C3B 8745  31.686  21.259   7.950
 3721POPC   C4B 8746  31.688  21.214   7.650
 3722POPC   NC3 8747  13.675   4.314   9.450
 3722POPC   PO4 8748  13.614   4.297   9.150
 3722POPC   GL1 8749  13.669   4.356   8.850
 3722POPC   GL2 8750  13.734   4.475   8.850
 3722POPC   C1A 8751  13.587   4.353   8.550
 3722POPC   D2A 8752  13.635   4.326   8.250
 3722POPC   C3A 8753  13.625   4.277   7.950
 3722POPC   C4A 8754  13.606   4.348   7.650
 3722POPC   C1B 8755  13.795   4.559   8.550
 3722POPC   C2B 8756  13.734   4.559   8.250
 3722POPC   C3B 8757  13.721   4.549   7.950
 3722POPC   C4B 8758  13.772   4.526   7.650
 3723POPC   NC3 8759  32.263  30.711   9.450
 3723POPC   PO4 8760  32.227  30.647   9.150
 3723POPC   GL1 8761  32.261  30.741   8.850
 3723POPC   GL2 8762  32.205  30.794   8.850
 3723POPC   C1A 8763  32.297  30.660   8.550
 3723POPC   D2A 8764  32.203  30.740   8.250
 3723POPC   C3A 8765  32.269  30.737   7.950
 3723POPC   C4A 8766  32.258  30.741   7.650
 3723POPC   C1B 8767  32.113  30.860   8.550
 3723POPC   C2B 8768  32.058  30.893   8.250
 3723POPC   C3B 8769  32.048  30.868   7.950
 3723POPC   C4B 8770  32.096  30.838   7.650
 3724POPC   NC3 8771  43.935  26.799   9.450
 3724POPC   PO4 8772  43.886  26.793   9.150
 3724POPC   GL1 8773  43.918  26.806   8.850
 3724POPC   GL2 8774  43.968  26.772   8.850
 3724POPC   C1A 8775  43.894  26.796   8.550
 3724POPC   D2A 8776  43.889  26.786   8.250
 3724POPC   C3A 8777  43.926  26.781   7.950
 3724POPC   C4A 8778  43.928  26.826   7.650
 3724POPC   C1B 8779  44.147  26.696   8.550
 3724POPC   C2B 8780  44.102  26.683   8.250
 3724POPC   C3B 8781  44.166  26.717   7.950
 3724POPC   C4B 8782  44.168  26.693   7.650
 3725POPC   NC3 8783  31.428  22.977   9.450
 3725POPC   PO4 8784  31.473  22.899   9.150
 3725POPC   GL1 8785  31.512  22.960   8.850
 3725POPC   GL2 8786  31.392  22.885   8.850
 3725POPC   C1A 8787  31.495  22.943   8.550
 3725POPC   D2A 8788  31.433  22.920   8.250
 3725POPC   C3A 8789  31.470  22.940   7.950
 3725POPC   C4A 8790  31.517  22.938   7.650
 3725POPC   C1B 8791  31.289  22.892   8.550
 3725POPC   C2B 8792  31.240  22.812   8.250
 3725POPC   C3B 8793  31.281  22.889   7.950
 3725POPC   C4B 8794  31.252  22.867   7.650
 3726POPC   NC3 8795   5.097  37.680   9.450
 3726POPC   PO4 8796   5.110  37.661   9.150
 3726POPC   GL1 8797   5.070  37.673   8.850
 3726POPC   GL2 8798   5.015  37.631   8.850
 3726POPC   C1A 8799   5.086  37.654   8.550
 3726POPC   D2A 8800   5.135  37.672   8.250
 3726POPC   C3A 8801   5.142  37.652   7.950
 3726POPC   C4A 8802   5.083  37.678   7.650
 3726POPC   C1B 8803   4.817  37.618   8.550
 3726POPC   C2B 8804   4.887  37.613   8.250
 3726POPC   C3B 8805   4.877  37.680   7.950
 3726POPC   C4B 8806   4.842  37.643   7.650
 3727POPC   NC3 8807  42.350  11.321   9.450
 3727POPC   PO4 8808  42.380  11.348   9.150
 3727POPC   GL1 8809  42.329  11.332   8.850
 3727POPC   GL2 8810  42.350  11.430   8.850
 3727POPC   C1A 8811  42.359  11.257   8.550
 3727POPC   D2A 8812  42.366  11.267   8.250
 3727POPC   C3A 8813  42.357  11.326   7.950
 3727POPC   C4A 8814  42.323  11.285   7.650
 3727POPC   C1B 8815  42.289  11.531   8.550
 3727POPC   C2B 8816  42.356  11.563   8.250
 3727POPC   C3B 8817  42.348  11.528   7.950
 3727POPC   C4B 8818  42.333  11.564   7.650
 3728POPC   NC3 8819  22.205  27.549   9.450
 3728POPC   PO4 8820  22.199  27.571   9.150
 3728POPC   GL1 8821  22.163  27.586   8.850
 3728POPC   GL2 8822  22.276  27.521   8.850
 3728POPC   C1A 8823  22.156  27.579   8.550
 3728POPC   D2A 8824  22.206  27.629   8.250
 3728POPC   C3A 8825  22.178  27.551   7.950
 3728POPC   C4A 8826  22.112  27.606   7.650
 3728POPC   C1B 8827  22.306  27.396   8.550
 3728POPC   C2B 8828  22.301  27.422   8.250
 3728POPC   C3B 8829  22.286  27.403   7.950
 3728POPC   C4B 8830  22.322  27.383   7.650
 3729POPC   NC3 8831  27.602  19.105   9.450
 3729POPC   PO4 8832  27.609  19.025   9.150
 3729POPC   GL1 8833  27.556  19.017   8.850
 3729POPC   GL2 8834  27.648  19.214   8.850
 3729POPC   C1A 8835  27.625  19.067   8.550
 3729POPC   D2A 8836  27.616  19.095   8.250
 3729POPC   C3A 8837  27.638  19.101   7.950
 3729POPC   C4A 8838  27.627  19.041   7.650
 3729POPC   C1B 8839  27.656  19.269   8.550
 3729POPC   C2B 8840  27.638  19.278   8.250
 3729POPC   C3B 8841  27.644  19.248   7.950
 3729POPC   C4B 8842  27.696  19.260   7.650
 3730POPC   NC3 8843  22.978   1.238   9.450
 3730POPC   PO4 8844  22.927   1.194   9.150
 3730POPC   GL1 8845  22.889   1.211   8.850
 3730POPC   GL2 8846  23.035   1.200   8.850
 3730POPC   C1A 8847  22.979   1.194   8.550
 3730POPC   D2A 8848  22.952   1.211   8.250
 3730POPC   C3A 8849  22.949   1.179   7.950
 3730POPC   C4A 8850  22.958   1.217   7.650
 3730POPC   C1B 8851  23.152   1.195   8.550
 3730POPC   C2B 8852  23.216   1.203   8.250
 3730POPC   C3B 8853  23.237   1.234   7.950
 3730POPC   C4B 8854  23.223   1.232   7.650
 3731POPC   NC3 8855  26.833  19.035   9.450
 3731POPC   PO4 8856  26.789  19.027   9.150
 3731POPC   GL1 8857  26.846  19.042   8.850
 3731POPC   GL2 8858  26.724  19.032   8.850
 3731POPC   C1A 8859  26.852  19.105   8.550
 3731POPC   D2A 8860  26.828  19.101   8.250
 3731POPC   C3A 8861  26.840  19.079   7.950
 3731POPC   C4A 8862  26.788  19.017   7.650
 3731POPC   C1B 8863  26.600  19.055   8.550
 3731POPC   C2B 8864  26.587  19.033   8.250
 3731POPC   C3B 8865  26.574  18.996   7.950
 3731POPC   C4B 8866  26.539  19.019   7.650
 3732POPC   NC3 8867  22.148  33.786   9.450
 3732POPC   PO4 8868  22.204  33.835   9.150
 3732POPC   GL1 8869  22.150  33.803   8.850
 3732POPC   GL2 8870  22.193  33.886   8.850
 3732POPC   C1A 8871  22.181  33.766   8.550
 3732POPC   D2A 8872  22.143  33.801   8.250
 3732POPC   C3A 8873  22.135  33.836   7.950
 3732POPC   C4A 8874  22.166  33.753   7.650
 3732POPC   C1B 8875  22.240  33.999   8.550
 3732POPC   C2B 8876  22.181  34.031   8.250
 3732POPC   C3B 8877  22.247  34.078   7.950
 3732POPC   C4B 8878  22.180  34.009   7.650
 3733POPC   NC3 8879  40.035  30.663   9.450
 3733POPC   PO4 8880  39.965  30.692   9.150
 3733POPC   GL1 8881  39.958  30.653   8.850
 3733POPC   GL2 8882  39.853  30.714   8.850
 3733POPC   C1A 8883  40.026  30.717   8.550
 3733POPC   D2A 8884  40.043  30.710   8.250
 3733POPC   C3A 8885  40.052  30.657   7.950
 3733POPC   C4A 8886  40.046  30.697   7.650
 3733POPC   C1B 8887  39.800  30.780   8.550
 3733POPC   C2B 8888  39.734  30.730   8.250
 3733POPC   C3B 8889  39.726  30.739   7.950
 3733POPC   C4B 8890  39.766  30.749   7.650
 3734POPC   NC3 8891  38.447  31.451   9.450
 3734POPC   PO4 8892  38.437  31.500   9.150
 3734POPC   GL1 8893  38.410  31.489   8.850
 3734POPC   GL2 8894  38.512  31.388   8.850
 3734POPC   C1A 8895  38.427  31.472   8.550
 3734POPC   D2A 8896  38.491  31.457   8.250
 3734POPC   C3A 8897  38.452  31.492   7.950
 3734POPC   C4A 8898  38.442  31.461   7.650
 3734POPC   C1B 8899  38.619  31.246   8.550
 3734POPC   C2B 8900  38.593  31.251   8.250
 3734POPC   C3B 8901  38.655  31.261   7.950
 3734POPC   C4B 8902  38.628  31.311   7.650
 3735POPC   NC3 8903  28.378  22.925   9.450
 3735POPC   PO4 8904  28.413  22.939   9.150
 3735POPC   GL1 8905  28.326  22.900   8.850
 3735POPC   GL2 8906  28.272  23.003   8.850
 3735POPC   C1A 8907  28.406  22.964   8.550
 3735POPC   D2A 8908  28.407  22.977   8.250
 3735POPC   C3A 8909  28.399  22.957   7.950
 3735POPC   C4A 8910  28.351  22.892   7.650
 3735POPC   C1B 8911  28.177  23.029   8.550
 3735POPC   C2B 8912  28.144  22.972   8.250
 3735POPC   C3B 8913  28.156  23.005   7.950
 3735POPC   C4B 8914  28.143  22.986   7.650
 3736POPC   NC3 8915  28.350   1.185   9.450
 3736POPC   PO4 8916  28.400   1.177   9.150
 3736POPC   GL1 8917  28.352   1.242   8.850
 3736POPC   GL2 8918  28.310   1.304   8.850
 3736POPC   C1A 8919  28.407   1.219   8.550
 3736POPC   D2A 8920  28.334   1.262   8.250
 3736POPC   C3A 8921  28.358   1.240   7.950
 3736POPC   C4A 8922  28.342   1.181   7.650
 3736POPC   C1B 8923  28.263   1.487   8.550
 3736POPC   C2B 8924  28.321   1.469   8.250
 3736POPC   C3B 8925  28.326   1.476   7.950
 3736POPC   C4B 8926  28.267   1.410   7.650
 3737POPC   NC3 8927  36.951  19.102   9.450
 3737POPC   PO4 8928  36.934  19.082   9.150
 3737POPC   GL1 8929  36.927  19.022   8.850
 3737POPC   GL2 8930  36.829  19.049   8.850
 3737POPC   C1A 8931  36.925  19.046   8.550
 3737POPC   D2A 8932  36.863  19.082   8.250
 3737POPC   C3A 8933  36.921  19.022   7.950
 3737POPC   C4A 8934  36.869  19.106   7.650
 3737POPC   C1B 8935  36.694  19.150   8.550
 3737POPC   C2B 8936  36.621  19.086   8.250
 3737POPC   C3B 8937  36.667  19.120   7.950
 3737POPC   C4B 8938  36.707  19.090   7.650
 3738POPC   NC3 8939  17.474  38.414   9.450
 3738POPC   PO4 8940  17.528  38.483   9.150
 3738POPC   GL1 8941  17.470  38.432   8.850
 3738POPC   GL2 8942  17.429  38.441   8.850
 3738POPC   C1A 8943  17.541  38.457   8.550
 3738POPC   D2A 8944  17.509  38.468   8.250
 3738POPC   C3A 8945  17.532  38.411   7.950
 3738POPC   C4A 8946  17.525  38.491   7.650
 3738POPC   C1B 8947  17.289  38.526   8.550
 3738POPC   C2B 8948  17.254  38.552   8.250
 3738POPC   C3B 8949  17.243  38.517   7.950
 3738POPC   C4B 8950  17.266  38.475   7.650
 3739POPC   NC3 8951  36.094   5.095   9.450
 3739POPC   PO4 8952  36.178   5.045   9.150
 3739POPC   GL1 8953  36.157   5.112   8.850
 3739POPC   GL2 8954  36.079   5.241   8.850
 3739POPC   C1A 8955  36.160   5.142   8.550
 3739POPC   D2A 8956  36.092   5.092   8.250
 3739POPC   C3A 8957  36.154   5.073   7.950
 3739POPC   C4A 8958  36.107   5.078   7.650
 3739POPC   C1B 8959  36.121   5.311   8.550
 3739POPC   C2B 8960  36.050   5.382   8.250
 3739POPC   C3B 8961  36.043   5.355   7.950
 3739POPC   C4B 8962  36.116   5.330   7.650
 3740POPC   NC3 8963  34.540  14.432   9.450
 3740POPC   PO4 8964  34.618  14.446   9.150
 3740POPC   GL1 8965  34.626  14.431   8.850
 3740POPC   GL2 8966  34.406  14.459   8.850
 3740POPC   C1A 8967  34.624  14.392   8.550
 3740POPC   D2A 8968  34.569  14.366   8.250
 3740POPC   C3A 8969  34.568  14.358   7.950
 3740POPC   C4A 8970  34.620  14.400   7.650
 3740POPC   C1B 8971  34.366  14.399   8.550
 3740POPC   C2B 8972  34.349  14.479   8.250
 3740POPC   C3B 8973  34.357  14.399   7.950
 3740POPC   C4B 8974  34.307  14.482   7.650
 3741POPC   NC3 8975   4.336   7.446   9.450
 3741POPC   PO4 8976   4.337   7.398   9.150
 3741POPC   GL1 8977   4.307   7.429   8.850
 3741POPC   GL2 8978   4.318   7.336   8.850
 3741POPC   C1A 8979   4.360   7.413   8.550
 3741POPC   D2A 8980   4.278   7.406   8.250
 3741POPC   C3A 8981   4.296   7.416   7.950
 3741POPC   C4A 8982   4.359   7.418   7.650
 3741POPC   C1B 8983   4.298   7.181   8.550
 3741POPC   C2B 8984   4.259   7.149   8.250
 3741POPC   C3B 8985   4.254   7.174   7.950
 3741POPC   C4B 8986   4.308   7.195   7.650
 3742POPC   NC3 8987  43.136  44.621   9.450
 3742POPC   PO4 8988  43.155  44.663   9.150
 3742POPC   GL1 8989  43.087  44.669   8.850
 3742POPC   GL2 8990  43.110  44.761   8.850
 3742POPC   C1A 8991  43.090  44.693   8.550
 3742POPC   D2A 8992  43.095  44.641   8.250
 3742POPC   C3A 8993  43.109  44.649   7.950
 3742POPC   C4A 8994  43.084  44.673   7.650
 3742POPC   C1B 8995  43.188  44.886   8.550
 3742POPC   C2B 8996  43.179  44.883   8.250
 3742POPC   C3B 8997  43.125  44.944   7.950
 3742POPC   C4B 8998  43.112  44.894   7.650
 3743POPC   NC3 8999   1.166  10.516   9.450
 3743POPC   PO4 9000   1.195  10.508   9.150
 3743POPC   GL1 9001   1.174  10.541   8.850
 3743POPC   GL2 9002   1.153  10.426   8.850
 3743POPC   C1A 9003   1.252  10.562   8.550
 3743POPC   D2A 9004   1.237  10.516   8.250
 3743POPC   C3A 9005   1.240  10.511   7.950
 3743POPC   C4A 9006   1.231  10.482   7.650
 3743POPC   C1B 9007   0.981  10.400   8.550
 3743POPC   C2B 9008   0.993  10.366   8.250
 3743POPC   C3B 9009   0.964  10.388   7.950
 3743POPC   C4B 9010   0.988  10.394   7.650
 3744POPC   NC3 9011  22.194   5.107   9.450
 3744POPC   PO4 9012  22.191   5.137   9.150
 3744POPC   GL1 9013  22.121   5.119   8.850
 3744POPC   GL2 9014  22.201   4.997   8.850
 3744POPC   C1A 9015  22.167   5.053   8.550
 3744POPC   D2A 9016  22.138   5.095   8.250
 3744POPC   C3A 9017  22.118   5.104   7.950
 3744POPC   C4A 9018  22.116   5.139   7.650
 3744POPC   C1B 9019  22.273   4.873   8.550
 3744POPC   C2B 9020  22.234   4.914   8.250
 3744POPC   C3B 9021  22.326   4.905   7.950
 3744POPC   C4B 9022  22.285   4.887   7.650
 3745POPC   NC3 9023  12.896   8.244   9.450
 3745POPC   PO4 9024  12.808   8.219   9.150
 3745POPC   GL1 9025  12.871   8.215   8.850
 3745POPC   GL2 9026  12.993   8.141   8.850
 3745POPC   C1A 9027  12.871   8.148   8.550
 3745POPC   D2A 9028  12.823   8.235   8.250
 3745POPC   C3A 9029  12.835   8.210   7.950
 3745POPC   C4A 9030  12.828   8.154   7.650
 3745POPC   C1B 9031  13.123   8.133   8.550
 3745POPC   C2B 9032  13.138   8.083   8.250
 3745POPC   C3B 9033  13.108   8.167   7.950
 3745POPC   C4B 9034  13.127   8.139   7.650
 3746POPC   NC3 9035   3.568   3.574   9.450
 3746POPC   PO4 9036   3.555   3.562   9.150
 3746POPC   GL1 9037   3.575   3.499   8.850
 3746POPC   GL2 9038   3.649   3.542   8.850
 3746POPC   C1A 9039   3.580   3.590   8.550
 3746POPC   D2A 9040   3.508   3.509   8.250
 3746POPC   C3A 9041   3.543   3.545   7.950
 3746POPC   C4A 9042   3.524   3.494   7.650
 3746POPC   C1B 9043   3.809   3.445   8.550
 3746POPC   C2B 9044   3.797   3.512   8.250
 3746POPC   C3B 9045   3.764   3.507   7.950
 3746POPC   C4B 9046   3.755   3.515   7.650
 3747POPC   NC3 9047  17.514  39.963   9.450
 3747POPC   PO4 9048  17.503  40.028   9.150
 3747POPC   GL1 9049  17.469  39.990   8.850
 3747POPC   GL2 9050  17.482  40.111   8.850
 3747POPC   C1A 9051  17.457  40.045   8.550
 3747POPC   D2A 9052  17.495  40.026   8.250
 3747POPC   C3A 9053  17.511  40.033   7.950
 3747POPC   C4A 9054  17.517  40.000   7.650
 3747POPC   C1B 9055  17.477  40.252   8.550
 3747POPC   C2B 9056  17.481  40.281   8.250
 3747POPC   C3B 9057  17.561  40.266   7.950
 3747POPC   C4B 9058  17.494  40.220   7.650
 3748POPC   NC3 9059  27.595  42.325   9.450
 3748POPC   PO4 9060  27.587  42.290   9.150
 3748POPC   GL1 9061  27.630  42.359   8.850
 3748POPC   GL2 9062  27.610  42.252   8.850
 3748POPC   C1A 9063  27.642  42.327   8.550
 3748POPC   D2A 9064  27.626  42.309   8.250
 3748POPC   C3A 9065  27.586  42.315   7.950
 3748POPC   C4A 9066  27.574  42.313   7.650
 3748POPC   C1B 9067  27.689  42.157   8.550
 3748POPC   C2B 9068  27.681  42.151   8.250
 3748POPC   C3B 9069  27.752  42.126   7.950
 3748POPC   C4B 9070  27.724  42.130   7.650
 3749POPC   NC3 9071  21.353  26.792   9.450
 3749POPC   PO4 9072  21.425  26.843   9.150
 3749POPC   GL1 9073  21.372  26.841   8.850
 3749POPC   GL2 9074  21.330  26.740   8.850
 3749POPC   C1A 9075  21.341  26.818   8.550
 3749POPC   D2A 9076  21.354  26.811   8.250
 3749POPC   C3A 9077  21.355  26.866   7.950
 3749POPC   C4A 9078  21.390  26.857   7.650
 3749POPC   C1B 9079  21.318  26.610   8.550
 3749POPC   C2B 9080  21.349  26.581   8.250
 3749POPC   C3B 9081  21.370  26.581   7.950
 3749POPC   C4B 9082  21.287  26.594   7.650
 3750POPC   NC3 9083  25.294  22.923   9.450
 3750POPC   PO4 9084  25.243  22.955   9.150
 3750POPC   GL1 9085  25.276  22.899   8.850
 3750POPC   GL2 9086  25.169  22.813   8.850
 3750POPC   C1A 9087  25.267  22.956   8.550
 3750POPC   D2A 9088  25.260  22.969   8.250
 3750POPC   C3A 9089  25.236  22.918   7.950
 3750POPC   C4A 9090  25.307  22.963   7.650
 3750POPC   C1B 9091  25.159  22.690   8.550
 3750POPC   C2B 9092  25.171  22.679   8.250
 3750POPC   C3B 9093  25.146  22.752   7.950
 3750POPC   C4B 9094  25.127  22.761   7.650
 3751POPC   NC3 9095  43.870  34.565   9.450
 3751POPC   PO4 9096  43.915  34.532   9.150
 3751POPC   GL1 9097  43.890  34.624   8.850
 3751POPC   GL2 9098  43.869  34.467   8.850
 3751POPC   C1A 9099  43.847  34.533   8.550
 3751POPC   D2A 9100  43.844  34.602   8.250
 3751POPC   C3A 9101  43.916  34.554   7.950
 3751POPC   C4A 9102  43.911  34.550   7.650
 3751POPC   C1B 9103  43.960  34.297   8.550
 3751POPC   C2B 9104  43.919  34.287   8.250
 3751POPC   C3B 9105  43.919  34.348   7.950
 3751POPC   C4B 9106  43.943  34.369   7.650
 3752POPC   NC3 9107  28.411  18.304   9.450
 3752POPC   PO4 9108  28.357  18.297   9.150
 3752POPC   GL1 9109  28.342  18.234   8.850
 3752POPC   GL2 9110  28.442  18.360   8.850
 3752POPC   C1A 9111  28.367  18.301   8.550
 3752POPC   D2A 9112  28.338  18.242   8.250
 3752POPC   C3A 9113  28.390  18.274   7.950
 3752POPC   C4A 9114  28.339  18.319   7.650
 3752POPC   C1B 9115  28.471  18.543   8.550
 3752POPC   C2B 9116  28.495  18.458   8.250
 3752POPC   C3B 9117  28.525  18.551   7.950
 3752POPC   C4B 9118  28.450  18.502   7.650
 3753POPC   NC3 9119  35.305  11.327   9.450
 3753POPC   PO4 9120  35.341  11.274   9.150
 3753POPC   GL1 9121  35.367  11.267   8.850
 3753POPC   GL2 9122  35.391  11.419   8.850
 3753POPC   C1A 9123  35.355  11.267   8.550
 3753POPC   D2A 9124  35.342  11.349   8.250
 3753POPC   C3A 9125  35.318  11.280   7.950
 3753POPC   C4A 9126  35.353  11.255   7.650
 3753POPC   C1B 9127  35.552  11.473   8.550
 3753POPC   C2B 9128  35.574  11.520   8.250
 3753POPC   C3B 9129  35.574  11.502   7.950
 3753POPC   C4B 9130  35.536  11.471   7.650
 3754POPC   NC3 9131  39.964  12.822   9.450
 3754POPC   PO4 9132  40.037  12.832   9.150
 3754POPC   GL1 9133  39.993  12.857   8.850
 3754POPC   GL2 9134  40.087  12.943   8.850
 3754POPC   C1A 9135  40.038  12.833   8.550
 3754POPC   D2A 9136  39.969  12.878   8.250
 3754POPC   C3A 9137  39.989  12.860   7.950
 3754POPC   C4A 9138  40.004  12.881   7.650
 3754POPC   C1B 9139  40.221  12.925   8.550
 3754POPC   C2B 9140  40.232  12.973   8.250
 3754POPC   C3B 9141  40.208  12.999   7.950
 3754POPC   C4B 9142  40.241  12.969   7.650
 3755POPC   NC3 9143  18.260  28.361   9.450
 3755POPC   PO4 9144  18.277  28.387   9.150
 3755POPC   GL1 9145  18.322  28.391   8.850
 3755POPC   GL2 9146  18.286  28.294   8.850
 3755POPC   C1A 9147  18.269  28.398   8.550
 3755POPC   D2A 9148  18.288  28.353   8.250
 3755POPC   C3A 9149  18.252  28.370   7.950
 3755POPC   C4A 9150  18.255  28.389   7.650
 3755POPC   C1B 9151  18.385  28.154   8.550
 3755POPC   C2B 9152  18.390  28.109   8.250
 3755POPC   C3B 9153  18.330  28.101   7.950
 3755POPC   C4B 9154  18.415  28.184   7.650
 3756POPC   NC3 9155  28.408  41.540   9.450
 3756POPC   PO4 9156  28.375  41.540   9.150
 3756POPC   GL1 9157  28.362  41.600   8.850
 3756POPC   GL2 9158  28.444  41.600   8.850
 3756POPC   C1A 9159  28.400  41.594   8.550
 3756POPC   D2A 9160  28.367  41.545   8.250
 3756POPC   C3A 9161  28.327  41.583   7.950
 3756POPC   C4A 9162  28.341  41.550   7.650
 3756POPC   C1B 9163  28.585  41.694   8.550
 3756POPC   C2B 9164  28.609  41.702   8.250
 3756POPC   C3B 9165  28.528  41.659   7.950
 3756POPC   C4B 9166  28.574  41.745   7.650
 3757POPC   NC3 9167  17.548  42.381   9.450
 3757POPC   PO4 9168  17.520  42.353   9.150
 3757POPC   GL1 9169  17.549  42.303   8.850
 3757POPC   GL2 9170  17.438  42.392   8.850
 3757POPC   C1A 9171  17.537  42.305   8.550
 3757POPC   D2A 9172  17.466  42.306   8.250
 3757POPC   C3A 9173  17.489  42.318   7.950
 3757POPC   C4A 9174  17.531  42.319   7.650
 3757POPC   C1B 9175  17.245  42.483   8.550
 3757POPC   C2B 9176  17.304  42.420   8.250
 3757POPC   C3B 9177  17.231  42.478   7.950
 3757POPC   C4B 9178  17.268  42.482   7.650
 3758POPC   NC3 9179   1.982  38.411   9.450
 3758POPC   PO4 9180   1.987  38.446   9.150
 3758POPC   GL1 9181   1.957  38.494   8.850
 3758POPC   GL2 9182   2.079  38.474   8.850
 3758POPC   C1A 9183   1.969  38.483   8.550
 3758POPC   D2A 9184   1.950  38.464   8.250
 3758POPC   C3A 9185   1.992  38.503   7.950
 3758POPC   C4A 9186   1.977  38.457   7.650
 3758POPC   C1B 9187   2.278  38.482   8.550
 3758POPC   C2B 9188   2.211  38.560   8.250
 3758POPC   C3B 9189   2.254  38.516   7.950
 3758POPC   C4B 9190   2.258  38.528   7.650
 3759POPC   NC3 9191   9.760   7.381   9.450
 3759POPC   PO4 9192   9.711   7.381   9.150
 3759POPC   GL1 9193   9.701   7.378   8.850
 3759POPC   GL2 9194   9.830   7.310   8.850
 3759POPC   C1A 9195   9.748   7.462   8.550
 3759POPC   D2A 9196   9.701   7.463   8.250
 3759POPC   C3A 9197   9.768   7.438   7.950
 3759POPC   C4A 9198   9.767   7.443   7.650
 3759POPC   C1B 9199   9.900   7.246   8.550
 3759POPC   C2B 9200   9.837   7.169   8.250
 3759POPC   C3B 9201   9.872   7.247   7.950
 3759POPC   C4B 9202   9.842   7.207   7.650
 3760POPC   NC3 9203   1.986  32.234   9.450
 3760POPC   PO4 9204   2.028  32.264   9.150
 3760POPC   GL1 9205   2.025  32.211   8.850
 3760POPC   GL2 9206   1.947  32.100   8.850
 3760POPC   C1A 9207   1.963  32.240   8.550
 3760POPC   D2A 9208   1.975  32.243   8.250
 3760POPC   C3A 9209   2.019  32.262   7.950
 3760POPC   C4A 9210   1.961  32.269   7.650
 3760POPC   C1B 9211   1.947  31.965   8.550
 3760POPC   C2B 9212   1.979  31.977   8.250
 3760POPC   C3B 9213   1.956  31.952   7.950
 3760POPC   C4B 9214   1.994  31.970   7.650
 3761POPC   NC3 9215  29.931  36.903   9.450
 3761POPC   PO4 9216  29.939  36.884   9.150
 3761POPC   GL1 9217  29.903  36.907   8.850
 3761POPC   GL2 9218  29.928  36.801   8.850
 3761POPC   C1A 9219  29.906  36.930   8.550
 3761POPC   D2A 9220  29.883  36.905   8.250
 3761POPC   C3A 9221  29.873  36.881   7.950
 3761POPC   C4A 9222  29.892  36.951   7.650
 3761POPC   C1B 9223  29.970  36.689   8.550
 3761POPC   C2B 9224  29.949  36.609   8.250
 3761POPC   C3B 9225  29.952  36.642   7.950
 3761POPC   C4B 9226  29.923  36.621   7.650
 3762POPC   NC3 9227  42.381   8.164   9.450
 3762POPC   PO4 9228  42.288   8.215   9.150
 3762POPC   GL1 9229  42.325   8.203   8.850
 3762POPC   GL2 9230  42.307   8.038   8.850
 3762POPC   C1A 9231  42.356   8.171   8.550
 3762POPC   D2A 9232  42.286   8.201   8.250
 3762POPC   C3A 9233  42.305   8.157   7.950
 3762POPC   C4A 9234  42.375   8.151   7.650
 3762POPC   C1B 9235  42.285   7.914   8.550
 3762POPC   C2B 9236  42.290   7.965   8.250
 3762POPC   C3B 9237  42.292   8.004   7.950
 3762POPC   C4B 9238  42.276   7.983   7.650
 3763POPC   NC3 9239  24.472   1.984   9.450
 3763POPC   PO4 9240  24.452   2.009   9.150
 3763POPC   GL1 9241  24.453   2.029   8.850
 3763POPC   GL2 9242  24.433   2.120   8.850
 3763POPC   C1A 9243  24.474   1.970   8.550
 3763POPC   D2A 9244  24.479   2.026   8.250
 3763POPC   C3A 9245  24.531   2.012   7.950
 3763POPC   C4A 9246  24.514   1.960   7.650
 3763POPC   C1B 9247  24.374   2.261   8.550
 3763POPC   C2B 9248  24.407   2.214   8.250
 3763POPC   C3B 9249  24.442   2.256   7.950
 3763POPC   C4B 9250  24.399   2.208   7.650
 3764POPC   NC3 9251   9.708  20.643   9.450
 3764POPC   PO4 9252   9.766  20.633   9.150
 3764POPC   GL1 9253   9.748  20.612   8.850
 3764POPC   GL2 9254   9.653  20.544   8.850
 3764POPC   C1A 9255   9.796  20.635   8.550
 3764POPC   D2A 9256   9.790  20.610   8.250
 3764POPC   C3A 9257   9.760  20.624   7.950
 3764POPC   C4A 9258   9.714  20.651   7.650
 3764POPC   C1B 9259   9.531  20.502   8.550
 3764POPC   C2B 9260   9.536  20.539   8.250
 3764POPC   C3B 9261   9.509  20.516   7.950
 3764POPC   C4B 9262   9.543  20.539   7.650
 3765POPC   NC3 9263  16.710  39.250   9.450
 3765POPC   PO4 9264  16.684  39.275   9.150
 3765POPC   GL1 9265  16.749  39.231   8.850
 3765POPC   GL2 9266  16.777  39.159   8.850
 3765POPC   C1A 9267  16.754  39.243   8.550
 3765POPC   D2A 9268  16.690  39.188   8.250
 3765POPC   C3A 9269  16.707  39.231   7.950
 3765POPC   C4A 9270  16.719  39.246   7.650
 3765POPC   C1B 9271  16.897  39.013   8.550
 3765POPC   C2B 9272  16.937  39.040   8.250
 3765POPC   C3B 9273  16.921  39.084   7.950
 3765POPC   C4B 9274  16.944  39.014   7.650
 3766POPC   NC3 9275   4.346  21.365   9.450
 3766POPC   PO4 9276   4.325  21.397   9.150
 3766POPC   GL1 9277   4.348  21.356   8.850
 3766POPC   GL2 9278   4.430  21.307   8.850
 3766POPC   C1A 9279   4.350  21.416   8.550
 3766POPC   D2A 9280   4.366  21.352   8.250
 3766POPC   C3A 9281   4.328  21.416   7.950
 3766POPC   C4A 9282   4.359  21.419   7.650
 3766POPC   C1B 9283   4.528  21.268   8.550
 3766POPC   C2B 9284   4.468  21.247   8.250
 3766POPC   C3B 9285   4.498  21.261   7.950
 3766POPC   C4B 9286   4.504  21.202   7.650
 3767POPC   NC3 9287   9.003  28.347   9.450
 3767POPC   PO4 9288   9.016  28.411   9.150
 3767POPC   GL1 9289   8.970  28.331   8.850
 3767POPC   GL2 9290   8.890  28.374   8.850
 3767POPC   C1A 9291   8.959  28.373   8.550
 3767POPC   D2A 9292   8.935  28.360   8.250
 3767POPC   C3A 9293   9.022  28.394   7.950
 3767POPC   C4A 9294   8.937  28.366   7.650
 3767POPC   C1B 9295   8.764  28.420   8.550
 3767POPC   C2B 9296   8.713  28.451   8.250
 3767POPC   C3B 9297   8.732  28.443   7.950
 3767POPC   C4B 9298   8.736  28.462   7.650
 3768POPC   NC3 9299  14.409  44.698   9.450
 3768POPC   PO4 9300  14.450  44.620   9.150
 3768POPC   GL1 9301  14.443  44.672   8.850
 3768POPC   GL2 9302  14.476  44.562   8.850
 3768POPC   C1A 9303  14.407  44.669   8.550
 3768POPC   D2A 9304  14.380  44.646   8.250
 3768POPC   C3A 9305  14.428  44.687   7.950
 3768POPC   C4A 9306  14.442  44.708   7.650
 3768POPC   C1B 9307  14.588  44.517   8.550
 3768POPC   C2B 9308  14.632  44.543   8.250
 3768POPC   C3B 9309  14.574  44.537   7.950
 3768POPC   C4B 9310  14.607  44.515   7.650
 3769POPC   NC3 9311  31.474  10.568   9.450
 3769POPC   PO4 9312  31.452  10.548   9.150
 3769POPC   GL1 9313  31.465  10.555   8.850
 3769POPC   GL2 9314  31.406  10.614   8.850
 3769POPC   C1A 9315  31.453  10.475   8.550
 3769POPC   D2A 9316  31.459  10.489   8.250
 3769POPC   C3A 9317  31.458  10.486   7.950
 3769POPC   C4A 9318  31.488  10.504   7.650
 3769POPC   C1B 9319  31.250  10.630   8.550
 3769POPC   C2B 9320  31.260  10.610   8.250
 3769POPC   C3B 9321  31.264  10.675   7.950
 3769POPC   C4B 9322  31.208  10.596   7.650
 3770POPC   NC3 9323   5.054  14.422   9.450
 3770POPC   PO4 9324   5.074  14.442   9.150
 3770POPC   GL1 9325   5.131  14.378   8.850
 3770POPC   GL2 9326   5.138  14.247   8.850
 3770POPC   C1A 9327   5.095  14.376   8.550
 3770POPC   D2A 9328   5.079  14.362   8.250
 3770POPC   C3A 9329   5.088  14.386   7.950
 3770POPC   C4A 9330   5.116  14.449   7.650
 3770POPC   C1B 9331   5.129  14.132   8.550
 3770POPC   C2B 9332   5.094  14.177   8.250
 3770POPC   C3B 9333   5.107  14.186   7.950
 3770POPC   C4B 9334   5.178  14.195   7.650
 3771POPC   NC3 9335  34.605  22.114   9.450
 3771POPC   PO4 9336  34.596  22.125   9.150
 3771POPC   GL1 9337  34.614  22.130   8.850
 3771POPC   GL2 9338  34.742  22.117   8.850
 3771POPC   C1A 9339  34.616  22.134   8.550
 3771POPC   D2A 9340  34.552  22.180   8.250
 3771POPC   C3A 9341  34.562  22.157   7.950
 3771POPC   C4A 9342  34.576  22.141   7.650
 3771POPC   C1B 9343  34.861  22.126   8.550
 3771POPC   C2B 9344  34.850  22.091   8.250
 3771POPC   C3B 9345  34.788  22.080   7.950
 3771POPC   C4B 9346  34.832  22.095   7.650
 3772POPC   NC3 9347  39.261  15.987   9.450
 3772POPC   PO4 9348  39.239  15.971   9.150
 3772POPC   GL1 9349  39.187  15.996   8.850
 3772POPC   GL2 9350  39.145  15.994   8.850
 3772POPC   C1A 9351  39.218  15.958   8.550
 3772POPC   D2A 9352  39.182  15.974   8.250
 3772POPC   C3A 9353  39.219  15.964   7.950
 3772POPC   C4A 9354  39.237  15.965   7.650
 3772POPC   C1B 9355  38.993  15.973   8.550
 3772POPC   C2B 9356  39.001  16.019   8.250
 3772POPC   C3B 9357  38.950  16.009   7.950
 3772POPC   C4B 9358  38.939  16.025   7.650
 3773POPC   NC3 9359   3.563  41.571   9.450
 3773POPC   PO4 9360   3.561  41.571   9.150
 3773POPC   GL1 9361   3.558  41.534   8.850
 3773POPC   GL2 9362   3.697  41.541   8.850
 3773POPC   C1A 9363   3.495  41.598   8.550
 3773POPC   D2A 9364   3.545  41.607   8.250
 3773POPC   C3A 9365   3.495  41.589   7.950
 3773POPC   C4A 9366   3.550  41.537   7.650
 3773POPC   C1B 9367   3.742  41.586   8.550
 3773POPC   C2B 9368   3.748  41.541   8.250
 3773POPC   C3B 9369   3.803  41.567   7.950
 3773POPC   C4B 9370   3.805  41.541   7.650
 3774POPC   NC3 9371  35.351   7.414   9.450
 3774POPC   PO4 9372  35.338   7.445   9.150
 3774POPC   GL1 9373  35.356   7.397   8.850
 3774POPC   GL2 9374  35.265   7.483   8.850
 3774POPC   C1A 9375  35.381   7.381   8.550
 3774POPC   D2A 9376  35.318   7.434   8.250
 3774POPC   C3A 9377  35.355   7.394   7.950
 3774POPC   C4A 9378  35.390   7.394   7.650
 3774POPC   C1B 9379  35.090   7.515   8.550
 3774POPC   C2B 9380  35.118   7.460   8.250
 3774POPC   C3B 9381  35.089   7.445   7.950
 3774POPC   C4B 9382  35.152   7.464   7.650
 3775POPC   NC3 9383  32.211  14.362   9.450
 3775POPC   PO4 9384  32.267  14.367   9.150
 3775POPC   GL1 9385  32.254  14.434   8.850
 3775POPC   GL2 9386  32.415  14.393   8.850
 3775POPC   C1A 9387  32.251  14.429   8.550
 3775POPC   D2A 9388  32.200  14.425   8.250
 3775POPC   C3A 9389  32.272  14.430   7.950
 3775POPC   C4A 9390  32.280  14.397   7.650
 3775POPC   C1B 9391  32.442  14.507   8.550
 3775POPC   C2B 9392  32.514  14.477   8.250
 3775POPC   C3B 9393  32.503  14.456   7.950
 3775POPC   C4B 9394  32.518  14.472   7.650
 3776POPC   NC3 9395  42.333  21.395   9.450
 3776POPC   PO4 9396  42.305  21.426   9.150
 3776POPC   GL1 9397  42.304  21.411   8.850
 3776POPC   GL2 9398  42.287  21.473   8.850
 3776POPC   C1A 9399  42.341  21.359   8.550
 3776POPC   D2A 9400  42.294  21.423   8.250
 3776POPC   C3A 9401  42.349  21.375   7.950
 3776POPC   C4A 9402  42.301  21.340   7.650
 3776POPC   C1B 9403  42.248  21.599   8.550
 3776POPC   C2B 9404  42.243  21.632   8.250
 3776POPC   C3B 9405  42.246  21.662   7.950
 3776POPC   C4B 9406  42.245  21.591   7.650
 3777POPC   NC3 9407  31.479  19.032   9.450
 3777POPC   PO4 9408  31.445  19.082   9.150
 3777POPC   GL1 9409  31.474  19.017   8.850
 3777POPC   GL2 9410  31.369  18.995   8.850
 3777POPC   C1A 9411  31.427  19.090   8.550
 3777POPC   D2A 9412  31.472  19.044   8.250
 3777POPC   C3A 9413  31.516  19.053   7.950
 3777POPC   C4A 9414  31.515  19.033   7.650
 3777POPC   C1B 9415  31.260  18.932   8.550
 3777POPC   C2B 9416  31.284  18.986   8.250
 3777POPC   C3B 9417  31.238  18.961   7.950
 3777POPC   C4B 9418  31.228  19.010   7.650
 3778POPC   NC3 9419  36.933  36.135   9.450
 3778POPC   PO4 9420  36.856  36.131   9.150
 3778POPC   GL1 9421  36.867  36.161   8.850
 3778POPC   GL2 9422  36.989  36.244   8.850
 3778POPC   C1A 9423  36.900  36.159   8.550
 3778POPC   D2A 9424  36.862  36.136   8.250
 3778POPC   C3A 9425  36.951  36.167   7.950
 3778POPC   C4A 9426  36.900  36.108   7.650
 3778POPC   C1B 9427  37.028  36.376   8.550
 3778POPC   C2B 9428  37.027  36.370   8.250
 3778POPC   C3B 9429  36.951  36.359   7.950
 3778POPC   C4B 9430  36.954  36.390   7.650
 3779POPC   NC3 9431   0.455   7.381   9.450
 3779POPC   PO4 9432   0.427   7.410   9.150
 3779POPC   GL1 9433   0.482   7.384   8.850
 3779POPC   GL2 9434   0.537   7.480   8.850
 3779POPC   C1A 9435   0.443   7.400   8.550
 3779POPC   D2A 9436   0.424   7.448   8.250
 3779POPC   C3A 9437   0.484   7.464   7.950
 3779POPC   C4A 9438   0.418   7.420   7.650
 3779POPC   C1B 9439   0.586   7.592   8.550
 3779POPC   C2B 9440   0.655   7.607   8.250
 3779POPC   C3B 9441   0.593   7.629   7.950
 3779POPC   C4B 9442   0.633   7.589   7.650
 3780POPC   NC3 9443  22.123  30.715   9.450
 3780POPC   PO4 9444  22.186  30.667   9.150
 3780POPC   GL1 9445  22.140  30.659   8.850
 3780POPC   GL2 9446  22.259  30.832   8.850
 3780POPC   C1A 9447  22.158  30.742   8.550
 3780POPC   D2A 9448  22.130  30.740   8.250
 3780POPC   C3A 9449  22.146  30.722   7.950
 3780POPC   C4A 9450  22.133  30.723   7.650
 3780POPC   C1B 9451  22.213  30.892   8.550
 3780POPC   C2B 9452  22.249  30.913   8.250
 3780POPC   C3B 9453  22.287  30.951   7.950
 3780POPC   C4B 9454  22.232  30.954   7.650
 3781POPC   NC3 9455  26.810  22.196   9.450
 3781POPC   PO4 9456  26.798  22.116   9.150
 3781POPC   GL1 9457  26.821  22.119   8.850
 3781POPC   GL2 9458  26.929  22.244   8.850
 3781POPC   C1A 9459  26.791  22.135   8.550
 3781POPC   D2A 9460  26.791  22.201   8.250
 3781POPC   C3A 9461  26.772  22.201   7.950
 3781POPC   C4A 9462  26.830  22.173   7.650
 3781POPC   C1B 9463  26.943  22.385   8.550
 3781POPC   C2B 9464  27.001  22.369   8.250
 3781POPC   C3B 9465  27.004  22.309   7.950
 3781POPC   C4B 9466  26.946  22.394   7.650
 3782POPC   NC3 9467  29.168  36.166   9.450
 3782POPC   PO4 9468  29.126  36.152   9.150
 3782POPC   GL1 9469  29.129  36.110   8.850
 3782POPC   GL2 9470  28.996  36.153   8.850
 3782POPC   C1A 9471  29.125  36.171   8.550
 3782POPC   D2A 9472  29.175  36.083   8.250
 3782POPC   C3A 9473  29.141  36.109   7.950
 3782POPC   C4A 9474  29.116  36.108   7.650
 3782POPC   C1B 9475  28.920  36.296   8.550
 3782POPC   C2B 9476  28.940  36.319   8.250
 3782POPC   C3B 9477  28.936  36.260   7.950
 3782POPC   C4B 9478  28.897  36.312   7.650
 3783POPC   NC3 9479  28.408  25.284   9.450
 3783POPC   PO4 9480  28.389  25.272   9.150
 3783POPC   GL1 9481  28.334  25.312   8.850
 3783POPC   GL2 9482  28.214  25.190   8.850
 3783POPC   C1A 9483  28.391  25.252   8.550
 3783POPC   D2A 9484  28.326  25.268   8.250
 3783POPC   C3A 9485  28.399  25.290   7.950
 3783POPC   C4A 9486  28.324  25.271   7.650
 3783POPC   C1B 9487  28.100  25.173   8.550
 3783POPC   C2B 9488  28.113  25.107   8.250
 3783POPC   C3B 9489  28.172  25.175   7.950
 3783POPC   C4B 9490  28.159  25.101   7.650
 3784POPC   NC3 9491  41.546  38.485   9.450
 3784POPC   PO4 9492  41.561  38.504   9.150
 3784POPC   GL1 9493  41.566  38.469   8.850
 3784POPC   GL2 9494  41.624  38.495   8.850
 3784POPC   C1A 9495  41.602  38.465   8.550
 3784POPC   D2A 9496  41.588  38.410   8.250
 3784POPC   C3A 9497  41.594  38.484   7.950
 3784POPC   C4A 9498  41.557  38.419   7.650
 3784POPC   C1B 9499  41.780  38.617   8.550
 3784POPC   C2B 9500  41.757  38.551   8.250
 3784POPC   C3B 9501  41.726  38.579   7.950
 3784POPC   C4B 9502  41.734  38.532   7.650
 3785POPC   NC3 9503  43.875  43.156   9.450
 3785POPC   PO4 9504  43.922  43.076   9.150
 3785POPC   GL1 9505  43.883  43.120   8.850
 3785POPC   GL2 9506  43.949  43.058   8.850
 3785POPC   C1A 9507  43.934  43.101   8.550
 3785POPC   D2A 9508  43.846  43.119   8.250
 3785POPC   C3A 9509  43.923  43.070   7.950
 3785POPC   C4A 9510  43.920  43.133   7.650
 3785POPC   C1B 9511  44.008  42.970   8.550
 3785POPC   C2B 9512  44.071  42.917   8.250
 3785POPC   C3B 9513  44.032  42.953   7.950
 3785POPC   C4B 9514  44.098  42.895   7.650
 3786POPC   NC3 9515  30.711  27.585   9.450
 3786POPC   PO4 9516  30.729  27.621   9.150
 3786POPC   GL1 9517  30.669  27.590   8.850
 3786POPC   GL2 9518  30.581  27.485   8.850
 3786POPC   C1A 9519  30.658  27.594   8.550
 3786POPC   D2A 9520  30.737  27.566   8.250
 3786POPC   C3A 9521  30.687  27.593   7.950
 3786POPC   C4A 9522  30.741  27.628   7.650
 3786POPC   C1B 9523  30.502  27.439   8.550
 3786POPC   C2B 9524  30.556  27.422   8.250
 3786POPC   C3B 9525  30.513  27.409   7.950
 3786POPC   C4B 9526  30.567  27.412   7.650
 3787POPC   NC3 9527  26.050   5.863   9.450
 3787POPC   PO4 9528  26.033   5.877   9.150
 3787POPC   GL1 9529  26.069   5.888   8.850
 3787POPC   GL2 9530  25.957   5.798   8.850
 3787POPC   C1A 9531  26.048   5.913   8.550
 3787POPC   D2A 9532  26.087   5.889   8.250
 3787POPC   C3A 9533  26.078   5.837   7.950
 3787POPC   C4A 9534  26.027   5.868   7.650
 3787POPC   C1B 9535  25.962   5.648   8.550
 3787POPC   C2B 9536  25.989   5.627   8.250
 3787POPC   C3B 9537  25.948   5.596   7.950
 3787POPC   C4B 9538  25.896   5.647   7.650
 3788POPC   NC3 9539  14.452  15.141   9.450
 3788POPC   PO4 9540  14.411  15.190   9.150
 3788POPC   GL1 9541  14.418  15.156   8.850
 3788POPC   GL2 9542  14.344  15.293   8.850
 3788POPC   C1A 9543  14.405  15.188   8.550
 3788POPC   D2A 9544  14.393  15.173   8.250
 3788POPC   C3A 9545  14.443  15.132   7.950
 3788POPC   C4A 9546  14.438  15.182   7.650
 3788POPC   C1B 9547  14.226  15.392   8.550
 3788POPC   C2B 9548  14.248  15.313   8.250
 3788POPC   C3B 9549  14.240  15.380   7.950
 3788POPC   C4B 9550  14.220  15.402   7.650
 3789POPC   NC3 9551   9.723  26.852   9.450
 3789POPC   PO4 9552   9.763  26.830   9.150
 3789POPC   GL1 9553   9.798  26.840   8.850
 3789POPC   GL2 9554   9.666  26.942   8.850
 3789POPC   C1A 9555   9.726  26.800   8.550
 3789POPC   D2A 9556   9.795  26.866   8.250
 3789POPC   C3A 9557   9.784  26.797   7.950
 3789POPC   C4A 9558   9.751  26.780   7.650
 3789POPC   C1B 9559   9.586  27.029   8.550
 3789POPC   C2B 9560   9.584  27.039   8.250
 3789POPC   C3B 9561   9.570  27.020   7.950
 3789POPC   C4B 9562   9.631  27.056   7.650
 3790POPC   NC3 9563  24.504  24.459   9.450
 3790POPC   PO4 9564  24.460  24.494   9.150
 3790POPC   GL1 9565  24.529  24.466   8.850
 3790POPC   GL2 9566  24.403  24.434   8.850
 3790POPC   C1A 9567  24.495  24.479   8.550
 3790POPC   D2A 9568  24.492  24.527   8.250
 3790POPC   C3A 9569  24.483  24.538   7.950
 3790POPC   C4A 9570  24.448  24.530   7.650
 3790POPC   C1B 9571  24.225  24.331   8.550
 3790POPC   C2B 9572  24.244  24.330   8.250
 3790POPC   C3B 9573  24.249  24.383   7.950
 3790POPC   C4B 9574  24.224  24.341   7.650
 3791POPC   NC3 9575   5.878  30.671   9.450
 3791POPC   PO4 9576   5.826  30.687   9.150
 3791POPC   GL1 9577   5.871  30.664   8.850
 3791POPC   GL2 9578   5.964  30.677   8.850
 3791POPC   C1A 9579   5.918  30.691   8.550
 3791POPC   D2A 9580   5.900  30.713   8.250
 3791POPC   C3A 9581   5.865  30.716   7.950
 3791POPC   C4A 9582   5.854  30.666   7.650
 3791POPC   C1B 9583   6.081  30.745   8.550
 3791POPC   C2B 9584   6.107  30.709   8.250
 3791POPC   C3B 9585   6.104  30.716   7.950
 3791POPC   C4B 9586   6.111  30.680   7.650
 3792POPC   NC3 9587  43.851  39.279   9.450
 3792POPC   PO4 9588  43.928  39.195   9.150
 3792POPC   GL1 9589  43.895  39.267   8.850
 3792POPC   GL2 9590  43.862  39.373   8.850
 3792POPC   C1A 9591  43.929  39.206   8.550
 3792POPC   D2A 9592  43.889  39.190   8.250
 3792POPC   C3A 9593  43.842  39.182   7.950
 3792POPC   C4A 9594  43.889  39.182   7.650
 3792POPC   C1B 9595  43.786  39.487   8.550
 3792POPC   C2B 9596  43.831  39.473   8.250
 3792POPC   C3B 9597  43.775  39.447   7.950
 3792POPC   C4B 9598  43.823  39.443   7.650
 3793POPC   NC3 9599  26.000   2.801   9.450
 3793POPC   PO4 9600  26.080   2.783   9.150
 3793POPC   GL1 9601  25.998   2.776   8.850
 3793POPC   GL2 9602  25.963   2.752   8.850
 3793POPC   C1A 9603  26.028   2.756   8.550
 3793POPC   D2A 9604  26.061   2.814   8.250
 3793POPC   C3A 9605  25.998   2.743   7.950
 3793POPC   C4A 9606  26.022   2.796   7.650
 3793POPC   C1B 9607  25.852   2.638   8.550
 3793POPC   C2B 9608  25.837   2.629   8.250
 3793POPC   C3B 9609  25.791   2.692   7.950
 3793POPC   C4B 9610  25.851   2.621   7.650
 3794POPC   NC3 9611   5.879  22.195   9.450
 3794POPC   PO4 9612   5.820  22.204   9.150
 3794POPC   GL1 9613   5.895  22.183   8.850
 3794POPC   GL2 9614   5.797  22.121   8.850
 3794POPC   C1A 9615   5.836  22.133   8.550
 3794POPC   D2A 9616   5.884  22.201   8.250
 3794POPC   C3A 9617   5.847  22.115   7.950
 3794POPC   C4A 9618   5.907  22.128   7.650
 3794POPC   C1B 9619   5.671  22.062   8.550
 3794POPC   C2B 9620   5.642  22.065   8.250
 3794POPC   C3B 9621   5.663  22.053   7.950
 3794POPC   C4B 9622   5.611  22.097   7.650
 3795POPC   NC3 9623  21.391  35.370   9.450
 3795POPC   PO4 9624  21.350  35.377   9.150
 3795POPC   GL1 9625  21.406  35.385   8.850
 3795POPC   GL2 9626  21.233  35.405   8.850
 3795POPC   C1A 9627  21.371  35.361   8.550
 3795POPC   D2A 9628  21.403  35.310   8.250
 3795POPC   C3A 9629  21.346  35.383   7.950
 3795POPC   C4A 9630  21.350  35.365   7.650
 3795POPC   C1B 9631  21.120  35.386   8.550
 3795POPC   C2B 9632  21.134  35.333   8.250
 3795POPC   C3B 9633  21.149  35.343   7.950
 3795POPC   C4B 9634  21.097  35.398   7.650
 3796POPC   NC3 9635  41.528  21.357   9.450
 3796POPC   PO4 9636  41.561  21.420   9.150
 3796POPC   GL1 9637  41.579  21.402   8.850
 3796POPC   GL2 9638  41.525  21.235   8.850
 3796POPC   C1A 9639  41.583  21.365   8.550
 3796POPC   D2A 9640  41.521  21.410   8.250
 3796POPC   C3A 9641  41.523  21.417   7.950
 3796POPC   C4A 9642  41.597  21.428   7.650
 3796POPC   C1B 9643  41.463  21.175   8.550
 3796POPC   C2B 9644  41.458  21.140   8.250
 3796POPC   C3B 9645  41.464  21.178   7.950
 3796POPC   C4B 9646  41.465  21.139   7.650
 3797POPC   NC3 9647  37.664  19.880   9.450
 3797POPC   PO4 9648  37.641  19.881   9.150
 3797POPC   GL1 9649  37.719  19.868   8.850
 3797POPC   GL2 9650  37.635  19.938   8.850
 3797POPC   C1A 9651  37.666  19.871   8.550
 3797POPC   D2A 9652  37.718  19.863   8.250
 3797POPC   C3A 9653  37.679  19.800   7.950
 3797POPC   C4A 9654  37.631  19.827   7.650
 3797POPC   C1B 9655  37.586  20.036   8.550
 3797POPC   C2B 9656  37.646  20.027   8.250
 3797POPC   C3B 9657  37.577  20.023   7.950
 3797POPC   C4B 9658  37.571  20.059   7.650
 3798POPC   NC3 9659  12.835  19.809   9.450
 3798POPC   PO4 9660  12.888  19.811   9.150
 3798POPC   GL1 9661  12.836  19.791   8.850
 3798POPC   GL2 9662  12.743  19.947   8.850
 3798POPC   C1A 9663  12.832  19.798   8.550
 3798POPC   D2A 9664  12.802  19.842   8.250
 3798POPC   C3A 9665  12.803  19.883   7.950
 3798POPC   C4A 9666  12.829  19.830   7.650
 3798POPC   C1B 9667  12.776  20.064   8.550
 3798POPC   C2B 9668  12.732  20.022   8.250
 3798POPC   C3B 9669  12.767  20.006   7.950
 3798POPC   C4B 9670  12.752  20.004   7.650
 3799POPC   NC3 9671  19.855  36.914   9.450
 3799POPC   PO4 9672  19.803  36.902   9.150
 3799POPC   GL1 9673  19.790  36.922   8.850
 3799POPC   GL2 9674  19.878  36.998   8.850
 3799POPC   C1A 9675  19.856  36.886   8.550
 3799POPC   D2A 9676  19.872  36.939   8.250
 3799POPC   C3A 9677  19.846  36.854   7.950
 3799POPC   C4A 9678  19.793  36.953   7.650
 3799POPC   C1B 9679  19.980  37.152   8.550
 3799POPC   C2B 9680  19.903  37.168   8.250
 3799POPC   C3B 9681  19.906  37.151   7.950
 3799POPC   C4B 9682  19.962  37.121   7.650
 3800POPC   NC3 9683  33.049   9.723   9.450
 3800POPC   PO4 9684  32.979   9.733   9.150
 3800POPC   GL1 9685  33.004   9.766   8.850
 3800POPC   GL2 9686  33.103   9.732   8.850
 3800POPC   C1A 9687  33.041   9.778   8.550
 3800POPC   D2A 9688  33.062   9.750   8.250
 3800POPC   C3A 9689  33.043   9.798   7.950
 3800POPC   C4A 9690  32.978   9.754   7.650
 3800POPC   C1B 9691  33.278   9.745   8.550
 3800POPC   C2B 9692  33.297   9.709   8.250
 3800POPC   C3B 9693  33.253   9.745   7.950
 3800POPC   C4B 9694  33.291   9.697   7.650
 3801POPC   NC3 9695  27.594  21.385   9.450
 3801POPC   PO4 9696  27.581  21.394   9.150
 3801POPC   GL1 9697  27.607  21.423   8.850
 3801POPC   GL2 9698  27.454  21.287   8.850
 3801POPC   C1A 9699  27.643  21.399   8.550
 3801POPC   D2A 9700  27.545  21.396   8.250
 3801POPC   C3A 9701  27.590  21.346   7.950
 3801POPC   C4A 9702  27.624  21.355   7.650
 3801POPC   C1B 9703  27.428  21.191   8.550
 3801POPC   C2B 9704  27.408  21.189   8.250
 3801POPC   C3B 9705  27.421  21.200   7.950
 3801POPC   C4B 9706  27.407  21.188   7.650
 3802POPC   NC3 9707  15.954  19.874   9.450
 3802POPC   PO4 9708  15.998  19.795   9.150
 3802POPC   GL1 9709  15.943  19.795   8.850
 3802POPC   GL2 9710  16.095  19.913   8.850
 3802POPC   C1A 9711  15.971  19.827   8.550
 3802POPC   D2A 9712  15.939  19.849   8.250
 3802POPC   C3A 9713  15.986  19.829   7.950
 3802POPC   C4A 9714  15.953  19.790   7.650
 3802POPC   C1B 9715  16.166  19.919   8.550
 3802POPC   C2B 9716  16.229  19.976   8.250
 3802POPC   C3B 9717  16.198  19.913   7.950
 3802POPC   C4B 9718  16.225  19.962   7.650
 3803POPC   NC3 9719  15.975  15.937   9.450
 3803POPC   PO4 9720  15.959  15.971   9.150
 3803POPC   GL1 9721  16.001  15.932   8.850
 3803POPC   GL2 9722  15.874  15.969   8.850
 3803POPC   C1A 9723  15.981  15.970   8.550
 3803POPC   D2A 9724  16.001  15.999   8.250
 3803POPC   C3A 9725  15.907  15.970   7.950
 3803POPC   C4A 9726  15.938  15.961   7.650
 3803POPC   C1B 9727  15.741  16.047   8.550
 3803POPC   C2B 9728  15.717  15.998   8.250
 3803POPC   C3B 9729  15.734  16.015   7.950
 3803POPC   C4B 9730  15.715  16.014   7.650
 3804POPC   NC3 9731  21.350   7.464   9.450
 3804POPC   PO4 9732  21.370   7.378   9.150
 3804POPC   GL1 9733  21.347   7.422   8.850
 3804POPC   GL2 9734  21.465   7.266   8.850
 3804POPC   C1A 9735  21.359   7.464   8.550
 3804POPC   D2A 9736  21.352   7.382   8.250
 3804POPC   C3A 9737  21.382   7.382   7.950
 3804POPC   C4A 9738  21.352   7.408   7.650
 3804POPC   C1B 9739  21.441   7.171   8.550
 3804POPC   C2B 9740  21.462   7.176   8.250
 3804POPC   C3B 9741  21.447   7.229   7.950
 3804POPC   C4B 9742  21.458   7.148   7.650
 3805POPC   NC3 9743   8.933   3.515   9.450
 3805POPC   PO4 9744   8.936   3.546   9.150
 3805POPC   GL1 9745   8.964   3.578   8.850
 3805POPC   GL2 9746   8.907   3.669   8.850
 3805POPC   C1A 9747   9.009   3.510   8.550
 3805POPC   D2A 9748   8.974   3.521   8.250
 3805POPC   C3A 9749   8.964   3.580   7.950
 3805POPC   C4A 9750   8.940   3.510   7.650
 3805POPC   C1B 9751   8.811   3.751   8.550
 3805POPC   C2B 9752   8.836   3.764   8.250
 3805POPC   C3B 9753   8.743   3.755   7.950
 3805POPC   C4B 9754   8.810   3.757   7.650
 3806POPC   NC3 9755  16.736   5.098   9.450
 3806POPC   PO4 9756  16.708   5.056   9.150
 3806POPC   GL1 9757  16.757   5.111   8.850
 3806POPC   GL2 9758  16.601   4.992   8.850
 3806POPC   C1A 9759  16.773   5.102   8.550
 3806POPC   D2A 9760  16.690   5.050   8.250
 3806POPC   C3A 9761  16.751   5.044   7.950
 3806POPC   C4A 9762  16.740   5.054   7.650
 3806POPC   C1B 9763  16.502   4.924   8.550
 3806POPC   C2B 9764  16.479   4.979   8.250
 3806POPC   C3B 9765  16.492   4.939   7.950
 3806POPC   C4B 9766  16.533   4.906   7.650
 3807POPC   NC3 9767  42.370   7.381   9.450
 3807POPC   PO4 9768  42.297   7.372   9.150
 3807POPC   GL1 9769  42.328   7.412   8.850
 3807POPC   GL2 9770  42.453   7.310   8.850
 3807POPC   C1A 9771  42.354   7.386   8.550
 3807POPC   D2A 9772  42.328   7.458   8.250
 3807POPC   C3A 9773  42.301   7.425   7.950
 3807POPC   C4A 9774  42.328   7.462   7.650
 3807POPC   C1B 9775  42.527   7.268   8.550
 3807POPC   C2B 9776  42.479   7.212   8.250
 3807POPC   C3B 9777  42.482   7.252   7.950
 3807POPC   C4B 9778  42.530   7.260   7.650
 3808POPC   NC3 9779  16.781  27.575   9.450
 3808POPC   PO4 9780  16.745  27.553   9.150
 3808POPC   GL1 9781  16.732  27.637   8.850
 3808POPC   GL2 9782  16.741  27.477   8.850
 3808POPC   C1A 9783  16.748  27.602   8.550
 3808POPC   D2A 9784  16.766  27.639   8.250
 3808POPC   C3A 9785  16.739  27.596   7.950
 3808POPC   C4A 9786  16.748  27.638   7.650
 3808POPC   C1B 9787  16.646  27.325   8.550
 3808POPC   C2B 9788  16.653  27.364   8.250
 3808POPC   C3B 9789  16.709  27.311   7.950
 3808POPC   C4B 9790  16.713  27.353   7.650
 3809POPC   NC3 9791  41.547  18.262   9.450
 3809POPC   PO4 9792  41.554  18.306   9.150
 3809POPC   GL1 9793  41.606  18.293   8.850
 3809POPC   GL2 9794  41.669  18.160   8.850
 3809POPC   C1A 9795  41.593  18.283   8.550
 3809POPC   D2A 9796  41.592  18.268   8.250
 3809POPC   C3A 9797  41.525  18.276   7.950
 3809POPC   C4A 9798  41.548  18.302   7.650
 3809POPC   C1B 9799  41.687  18.063   8.550
 3809POPC   C2B 9800  41.751  18.067   8.250
 3809POPC   C3B 9801  41.692  18.115   7.950
 3809POPC   C4B 9802  41.752  18.067   7.650
 3810POPC   NC3 9803  40.818  20.569   9.450
 3810POPC   PO4 9804  40.754  20.584   9.150
 3810POPC   GL1 9805  40.767  20.631   8.850
 3810POPC   GL2 9806  40.670  20.614   8.850
 3810POPC   C1A 9807  40.745  20.595   8.550
 3810POPC   D2A 9808  40.753  20.639   8.250
 3810POPC   C3A 9809  40.742  20.633   7.950
 3810POPC   C4A 9810  40.789  20.634   7.650
 3810POPC   C1B 9811  40.521  20.639   8.550
 3810POPC   C2B 9812  40.577  20.653   8.250
 3810POPC   C3B 9813  40.576  20.640   7.950
 3810POPC   C4B 9814  40.540  20.665   7.650
 3811POPC   NC3 9815   2.810  43.080   9.450
 3811POPC   PO4 9816   2.774  43.139   9.150
 3811POPC   GL1 9817   2.799  43.068   8.850
 3811POPC   GL2 9818   2.636  43.087   8.850
 3811POPC   C1A 9819   2.774  43.142   8.550
 3811POPC   D2A 9820   2.738  43.147   8.250
 3811POPC   C3A 9821   2.740  43.088   7.950
 3811POPC   C4A 9822   2.739  43.108   7.650
 3811POPC   C1B 9823   2.531  43.071   8.550
 3811POPC   C2B 9824   2.551  43.049   8.250
 3811POPC   C3B 9825   2.567  43.036   7.950
 3811POPC   C4B 9826   2.539  43.081   7.650
 3812POPC   NC3 9827  15.170  43.923   9.450
 3812POPC   PO4 9828  15.195  43.910   9.150
 3812POPC   GL1 9829  15.148  43.851   8.850
 3812POPC   GL2 9830  15.174  44.003   8.850
 3812POPC   C1A 9831  15.130  43.903   8.550
 3812POPC   D2A 9832  15.140  43.906   8.250
 3812POPC   C3A 9833  15.142  43.867   7.950
 3812POPC   C4A 9834  15.163  43.883   7.650
 3812POPC   C1B 9835  15.209  44.159   8.550
 3812POPC   C2B 9836  15.261  44.094   8.250
 3812POPC   C3B 9837  15.245  44.107   7.950
 3812POPC   C4B 9838  15.166  44.142   7.650
 3813POPC   NC3 9839  29.954   0.402   9.450
 3813POPC   PO4 9840  29.959   0.474   9.150
 3813POPC   GL1 9841  29.970   0.402   8.850
 3813POPC   GL2 9842  29.923   0.290   8.850
 3813POPC   C1A 9843  29.927   0.405   8.550
 3813POPC   D2A 9844  29.900   0.418   8.250
 3813POPC   C3A 9845  29.902   0.480   7.950
 3813POPC   C4A 9846  29.927   0.393   7.650
 3813POPC   C1B 9847  29.951   0.210   8.550
 3813POPC   C2B 9848  29.935   0.211   8.250
 3813POPC   C3B 9849  29.986   0.219   7.950
 3813POPC   C4B 9850  29.989   0.183   7.650
 3814POPC   NC3 9851  33.069   4.284   9.450
 3814POPC   PO4 9852  32.985   4.284   9.150
 3814POPC   GL1 9853  33.063   4.301   8.850
 3814POPC   GL2 9854  33.009   4.163   8.850
 3814POPC   C1A 9855  33.065   4.272   8.550
 3814POPC   D2A 9856  33.036   4.334   8.250
 3814POPC   C3A 9857  33.021   4.300   7.950
 3814POPC   C4A 9858  32.987   4.273   7.650
 3814POPC   C1B 9859  33.047   4.100   8.550
 3814POPC   C2B 9860  33.002   4.085   8.250
 3814POPC   C3B 9861  33.033   4.118   7.950
 3814POPC   C4B 9862  32.997   4.063   7.650
 3815POPC   NC3 9863  14.441  22.192   9.450
 3815POPC   PO4 9864  14.434  22.152   9.150
 3815POPC   GL1 9865  14.367  22.158   8.850
 3815POPC   GL2 9866  14.557  22.246   8.850
 3815POPC   C1A 9867  14.404  22.188   8.550
 3815POPC   D2A 9868  14.370  22.171   8.250
 3815POPC   C3A 9869  14.431  22.142   7.950
 3815POPC   C4A 9870  14.413  22.163   7.650
 3815POPC   C1B 9871  14.685  22.260   8.550
 3815POPC   C2B 9872  14.629  22.261   8.250
 3815POPC   C3B 9873  14.597  22.277   7.950
 3815POPC   C4B 9874  14.632  22.205   7.650
 3816POPC   NC3 9875  10.476  27.579   9.450
 3816POPC   PO4 9876  10.524  27.556   9.150
 3816POPC   GL1 9877  10.572  27.634   8.850
 3816POPC   GL2 9878  10.595  27.632   8.850
 3816POPC   C1A 9879  10.546  27.588   8.550
 3816POPC   D2A 9880  10.531  27.600   8.250
 3816POPC   C3A 9881  10.476  27.572   7.950
 3816POPC   C4A 9882  10.559  27.622   7.650
 3816POPC   C1B 9883  10.793  27.634   8.550
 3816POPC   C2B 9884  10.812  27.654   8.250
 3816POPC   C3B 9885  10.750  27.681   7.950
 3816POPC   C4B 9886  10.762  27.692   7.650
 3817POPC   NC3 9887  27.603  32.288   9.450
 3817POPC   PO4 9888  27.547  32.256   9.150
 3817POPC   GL1 9889  27.626  32.270   8.850
 3817POPC   GL2 9890  27.689  32.223   8.850
 3817POPC   C1A 9891  27.597  32.252   8.550
 3817POPC   D2A 9892  27.631  32.235   8.250
 3817POPC   C3A 9893  27.641  32.266   7.950
 3817POPC   C4A 9894  27.584  32.281   7.650
 3817POPC   C1B 9895  27.783  32.062   8.550
 3817POPC   C2B 9896  27.805  32.143   8.250
 3817POPC   C3B 9897  27.816  32.138   7.950
 3817POPC   C4B 9898  27.783  32.059   7.650
 3818POPC   NC3 9899  38.476  22.192   9.450
 3818POPC   PO4 9900  38.487  22.169   9.150
 3818POPC   GL1 9901  38.455  22.210   8.850
 3818POPC   GL2 9902  38.576  22.221   8.850
 3818POPC   C1A 9903  38.428  22.199   8.550
 3818POPC   D2A 9904  38.454  22.182   8.250
 3818POPC   C3A 9905  38.424  22.113   7.950
 3818POPC   C4A 9906  38.477  22.186   7.650
 3818POPC   C1B 9907  38.618  22.311   8.550
 3818POPC   C2B 9908  38.680  22.272   8.250
 3818POPC   C3B 9909  38.613  22.330   7.950
 3818POPC   C4B 9910  38.603  22.360   7.650
 3819POPC   NC3 9911  17.498  43.911   9.450
 3819POPC   PO4 9912  17.512  43.928   9.150
 3819POPC   GL1 9913  17.484  43.857   8.850
 3819POPC   GL2 9914  17.463  43.786   8.850
 3819POPC   C1A 9915  17.553  43.842   8.550
 3819POPC   D2A 9916  17.475  43.840   8.250
 3819POPC   C3A 9917  17.505  43.844   7.950
 3819POPC   C4A 9918  17.474  43.900   7.650
 3819POPC   C1B 9919  17.472  43.643   8.550
 3819POPC   C2B 9920  17.502  43.664   8.250
 3819POPC   C3B 9921  17.506  43.618   7.950
 3819POPC   C4B 9922  17.527  43.628   7.650
 3820POPC   NC3 9923  22.189  12.108   9.450
 3820POPC   PO4 9924  22.151  12.031   9.150
 3820POPC   GL1 9925  22.149  12.095   8.850
 3820POPC   GL2 9926  22.050  12.016   8.850
 3820POPC   C1A 9927  22.127  12.052   8.550
 3820POPC   D2A 9928  22.182  12.040   8.250
 3820POPC   C3A 9929  22.203  12.041   7.950
 3820POPC   C4A 9930  22.151  12.035   7.650
 3820POPC   C1B 9931  21.891  12.074   8.550
 3820POPC   C2B 9932  21.948  12.002   8.250
 3820POPC   C3B 9933  21.897  12.072   7.950
 3820POPC   C4B 9934  21.893  12.038   7.650
 3821POPC   NC3 9935  12.848  18.319   9.450
 3821POPC   PO4 9936  12.810  18.256   9.150
 3821POPC   GL1 9937  12.884  18.329   8.850
 3821POPC   GL2 9938  12.916  18.232   8.850
 3821POPC   C1A 9939  12.862  18.322   8.550
 3821POPC   D2A 9940  12.883  18.328   8.250
 3821POPC   C3A 9941  12.865  18.272   7.950
 3821POPC   C4A 9942  12.838  18.298   7.650
 3821POPC   C1B 9943  13.029  18.114   8.550
 3821POPC   C2B 9944  13.045  18.157   8.250
 3821POPC   C3B 9945  13.021  18.127   7.950
 3821POPC   C4B 9946  13.092  18.186   7.650
 3822POPC   NC3 9947  33.018   9.008   9.450
 3822POPC   PO4 9948  33.032   9.012   9.150
 3822POPC   GL1 9949  33.036   8.984   8.850
 3822POPC   GL2 9950  33.127   9.028   8.850
 3822POPC   C1A 9951  32.997   8.942   8.550
 3822POPC   D2A 9952  33.016   8.996   8.250
 3822POPC   C3A 9953  33.036   8.963   7.950
 3822POPC   C4A 9954  32.989   8.980   7.650
 3822POPC   C1B 9955  33.244   9.011   8.550
 3822POPC   C2B 9956  33.276   9.040   8.250
 3822POPC   C3B 9957  33.270   9.080   7.950
 3822POPC   C4B 9958  33.257   9.007   7.650
 3823POPC   NC3 9959   9.741  29.871   9.450
 3823POPC   PO4 9960   9.733  29.876   9.150
 3823POPC   GL1 9961   9.741  29.874   8.850
 3823POPC   GL2 9962   9.626  29.820   8.850
 3823POPC   C1A 9963   9.742  29.875   8.550
 3823POPC   D2A 9964   9.761  29.929   8.250
 3823POPC   C3A 9965   9.754  29.886   7.950
 3823POPC   C4A 9966   9.732  29.885   7.650
 3823POPC   C1B 9967   9.560  29.735   8.550
 3823POPC   C2B 9968   9.635  29.672   8.250
 3823POPC   C3B 9969   9.572  29.682   7.950
 3823POPC   C4B 9970   9.597  29.732   7.650
 3824POPC   NC3 9971   5.079  22.134   9.450
 3824POPC   PO4 9972   5.125  22.198   9.150
 3824POPC   GL1 9973   5.076  22.120   8.850
 3824POPC   GL2 9974   5.020  22.223   8.850
 3824POPC   C1A 9975   5.132  22.200   8.550
 3824POPC   D2A 9976   5.116  22.124   8.250
 3824POPC   C3A 9977   5.128  22.137   7.950
 3824POPC   C4A 9978   5.090  22.200   7.650
 3824POPC   C1B 9979   4.856  22.219   8.550
 3824POPC   C2B 9980   4.886  22.245   8.250
 3824POPC   C3B 9981   4.818  22.263   7.950
 3824POPC   C4B 9982   4.835  22.268   7.650
 3825POPC   NC3 9983  43.077  33.841   9.450
 3825POPC   PO4 9984  43.076  33.847   9.150
 3825POPC   GL1 9985  43.088  33.812   8.850
 3825POPC   GL2 9986  43.238  33.747   8.850
 3825POPC   C1A 9987  43.123  33.770   8.550
 3825POPC   D2A 9988  43.153  33.832   8.250
 3825POPC   C3A 9989  43.147  33.755   7.950
 3825POPC   C4A 9990  43.074  33.797   7.650
 3825POPC   C1B 9991  43.353  33.661   8.550
 3825POPC   C2B 9992  43.349  33.675   8.250
 3825POPC   C3B 9993  43.271  33.631   7.950
 3825POPC   C4B 9994  43.293  33.663   7.650
 3826POPC   NC3 9995  15.201   5.114   9.450
 3826POPC   PO4 9996  15.212   5.106   9.150
 3826POPC   GL1 9997  15.187   5.120   8.850
 3826POPC   GL2 9998  15.017   5.098   8.850
 3826POPC   C1A 9999  15.180   5.088   8.550
 3826POPC   D2A10000  15.146   5.130   8.250
 3826POPC   C3A10001  15.224   5.086   7.950
 3826POPC   C4A10002  15.130   5.094   7.650
 3826POPC   C1B10003  14.913   5.188   8.550
 3826POPC   C2B10004  14.924   5.176   8.250
 3826POPC   C3B10005  14.959   5.111   7.950
 3826POPC   C4B10006  14.908   5.184   7.650
 3827POPC   NC310007  32.298   8.196   9.450
 3827POPC   PO410008  32.205   8.159   9.150
 3827POPC   GL110009  32.234   8.158   8.850
 3827POPC   GL210010  32.257   8.323   8.850
 3827POPC   C1A10011  32.295   8.236   8.550
 3827POPC   D2A10012  32.228   8.151   8.250
 3827POPC   C3A10013  32.221   8.195   7.950
 3827POPC   C4A10014  32.297   8.185   7.650
 3827POPC   C1B10015  32.278   8.485   8.550
 3827POPC   C2B10016  32.289   8.404   8.250
 3827POPC   C3B10017  32.253   8.489   7.950
 3827POPC   C4B10018  32.286   8.492   7.650
 3828POPC   NC310019   1.962  34.583   9.450
 3828POPC   PO410020   2.015  34.556   9.150
 3828POPC   GL110021   1.985  34.528   8.850
 3828POPC   GL210022   2.147  34.595   8.850
 3828POPC   C1A10023   2.013  34.620   8.550
 3828POPC   D2A10024   2.011  34.601   8.250
 3828POPC   C3A10025   1.964  34.577   7.950
 3828POPC   C4A10026   1.953  34.602   7.650
 3828POPC   C1B10027   2.218  34.693   8.550
 3828POPC   C2B10028   2.221  34.638   8.250
 3828POPC   C3B10029   2.262  34.644   7.950
 3828POPC   C4B10030   2.203  34.689   7.650
 3829POPC   NC310031  40.798  26.043   9.450
 3829POPC   PO410032  40.822  26.046   9.150
 3829POPC   GL110033  40.816  26.008   8.850
 3829POPC   GL210034  40.732  26.194   8.850
 3829POPC   C1A10035  40.814  26.008   8.550
 3829POPC   D2A10036  40.787  25.995   8.250
 3829POPC   C3A10037  40.797  26.022   7.950
 3829POPC   C4A10038  40.753  26.016   7.650
 3829POPC   C1B10039  40.643  26.305   8.550
 3829POPC   C2B10040  40.672  26.216   8.250
 3829POPC   C3B10041  40.617  26.280   7.950
 3829POPC   C4B10042  40.631  26.258   7.650
 3830POPC   NC310043  43.117   0.404   9.450
 3830POPC   PO410044  43.152   0.457   9.150
 3830POPC   GL110045  43.078   0.448   8.850
 3830POPC   GL210046  43.064   0.550   8.850
 3830POPC   C1A10047  43.089   0.394   8.550
 3830POPC   D2A10048  43.129   0.456   8.250
 3830POPC   C3A10049  43.132   0.400   7.950
 3830POPC   C4A10050  43.128   0.484   7.650
 3830POPC   C1B10051  43.131   0.657   8.550
 3830POPC   C2B10052  43.124   0.645   8.250
 3830POPC   C3B10053  43.059   0.705   7.950
 3830POPC   C4B10054  43.109   0.653   7.650
 3831POPC   NC310055   8.958   8.982   9.450
 3831POPC   PO410056   9.012   8.995   9.150
 3831POPC   GL110057   8.997   8.933   8.850
 3831POPC   GL210058   8.882   8.923   8.850
 3831POPC   C1A10059   8.993   8.948   8.550
 3831POPC   D2A10060   9.013   8.970   8.250
 3831POPC   C3A10061   8.954   8.974   7.950
 3831POPC   C4A10062   8.998   9.016   7.650
 3831POPC   C1B10063   8.779   8.774   8.550
 3831POPC   C2B10064   8.813   8.841   8.250
 3831POPC   C3B10065   8.834   8.762   7.950
 3831POPC   C4B10066   8.747   8.761   7.650
 3832POPC   NC310067   1.943  30.728   9.450
 3832POPC   PO410068   1.948  30.742   9.150
 3832POPC   GL110069   2.009  30.699   8.850
 3832POPC   GL210070   2.071  30.675   8.850
 3832POPC   C1A10071   1.994  30.673   8.550
 3832POPC   D2A10072   2.039  30.716   8.250
 3832POPC   C3A10073   1.977  30.738   7.950
 3832POPC   C4A10074   1.942  30.719   7.650
 3832POPC   C1B10075   2.197  30.594   8.550
 3832POPC   C2B10076   2.238  30.638   8.250
 3832POPC   C3B10077   2.227  30.685   7.950
 3832POPC   C4B10078   2.226  30.679   7.650
 3833POPC   NC310079  30.683  20.564   9.450
 3833POPC   PO410080  30.690  20.590   9.150
 3833POPC   GL110081  30.741  20.595   8.850
 3833POPC   GL210082  30.632  20.757   8.850
 3833POPC   C1A10083  30.678  20.589   8.550
 3833POPC   D2A10084  30.649  20.628   8.250
 3833POPC   C3A10085  30.672  20.642   7.950
 3833POPC   C4A10086  30.737  20.620   7.650
 3833POPC   C1B10087  30.577  20.795   8.550
 3833POPC   C2B10088  30.545  20.836   8.250
 3833POPC   C3B10089  30.556  20.848   7.950
 3833POPC   C4B10090  30.563  20.823   7.650
 3834POPC   NC310091  39.187  30.662   9.450
 3834POPC   PO410092  39.262  30.665   9.150
 3834POPC   GL110093  39.252  30.671   8.850
 3834POPC   GL210094  39.147  30.627   8.850
 3834POPC   C1A10095  39.207  30.687   8.550
 3834POPC   D2A10096  39.247  30.703   8.250
 3834POPC   C3A10097  39.194  30.702   7.950
 3834POPC   C4A10098  39.227  30.690   7.650
 3834POPC   C1B10099  39.024  30.510   8.550
 3834POPC   C2B10100  39.002  30.521   8.250
 3834POPC   C3B10101  38.995  30.517   7.950
 3834POPC   C4B10102  39.021  30.535   7.650
 3835POPC   NC310103  32.980  43.844   9.450
 3835POPC   PO410104  33.059  43.839   9.150
 3835POPC   GL110105  33.008  43.936   8.850
 3835POPC   GL210106  32.895  43.843   8.850
 3835POPC   C1A10107  33.064  43.860   8.550
 3835POPC   D2A10108  33.042  43.906   8.250
 3835POPC   C3A10109  33.031  43.876   7.950
 3835POPC   C4A10110  33.031  43.847   7.650
 3835POPC   C1B10111  32.842  43.735   8.550
 3835POPC   C2B10112  32.865  43.675   8.250
 3835POPC   C3B10113  32.872  43.764   7.950
 3835POPC   C4B10114  32.793  43.769   7.650
 3836POPC   NC310115  26.048  31.473   9.450
 3836POPC   PO410116  26.041  31.440   9.150
 3836POPC   GL110117  26.000  31.477   8.850
 3836POPC   GL210118  26.079  31.402   8.850
 3836POPC   C1A10119  26.001  31.510   8.550
 3836POPC   D2A10120  26.028  31.492   8.250
 3836POPC   C3A10121  26.063  31.451   7.950
 3836POPC   C4A10122  26.025  31.513   7.650
 3836POPC   C1B10123  26.159  31.254   8.550
 3836POPC   C2B10124  26.092  31.257   8.250
 3836POPC   C3B10125  26.091  31.203   7.950
 3836POPC   C4B10126  26.126  31.252   7.650
 3837POPC   NC310127  16.710  16.720   9.450
 3837POPC   PO410128  16.766  16.745   9.150
 3837POPC   GL110129  16.770  16.756   8.850
 3837POPC   GL210130  16.599  16.780   8.850
 3837POPC   C1A10131  16.743  16.759   8.550
 3837POPC   D2A10132  16.736  16.757   8.250
 3837POPC   C3A10133  16.705  16.774   7.950
 3837POPC   C4A10134  16.717  16.744   7.650
 3837POPC   C1B10135  16.496  16.762   8.550
 3837POPC   C2B10136  16.442  16.734   8.250
 3837POPC   C3B10137  16.529  16.722   7.950
 3837POPC   C4B10138  16.447  16.745   7.650
 3838POPC   NC310139  22.921  40.733   9.450
 3838POPC   PO410140  22.952  40.776   9.150
 3838POPC   GL110141  22.913  40.785   8.850
 3838POPC   GL210142  22.904  40.669   8.850
 3838POPC   C1A10143  22.937  40.756   8.550
 3838POPC   D2A10144  22.897  40.802   8.250
 3838POPC   C3A10145  22.948  40.798   7.950
 3838POPC   C4A10146  22.985  40.752   7.650
 3838POPC   C1B10147  22.915  40.503   8.550
 3838POPC   C2B10148  22.915  40.525   8.250
 3838POPC   C3B10149  22.937  40.510   7.950
 3838POPC   C4B10150  22.872  40.524   7.650
 3839POPC   NC310151  37.658   2.746   9.450
 3839POPC   PO410152  37.701   2.760   9.150
 3839POPC   GL110153  37.662   2.814   8.850
 3839POPC   GL210154  37.631   2.913   8.850
 3839POPC   C1A10155  37.638   2.765   8.550
 3839POPC   D2A10156  37.657   2.717   8.250
 3839POPC   C3A10157  37.689   2.759   7.950
 3839POPC   C4A10158  37.692   2.729   7.650
 3839POPC   C1B10159  37.610   3.033   8.550
 3839POPC   C2B10160  37.675   2.964   8.250
 3839POPC   C3B10161  37.645   2.978   7.950
 3839POPC   C4B10162  37.621   3.048   7.650
 3840POPC   NC310163   3.579  14.410   9.450
 3840POPC   PO410164   3.538  14.361   9.150
 3840POPC   GL110165   3.564  14.388   8.850
 3840POPC   GL210166   3.603  14.523   8.850
 3840POPC   C1A10167   3.493  14.358   8.550
 3840POPC   D2A10168   3.525  14.388   8.250
 3840POPC   C3A10169   3.498  14.360   7.950
 3840POPC   C4A10170   3.527  14.408   7.650
 3840POPC   C1B10171   3.739  14.574   8.550
 3840POPC   C2B10172   3.720  14.612   8.250
 3840POPC   C3B10173   3.767  14.535   7.950
 3840POPC   C4B10174   3.741  14.601   7.650
 3841POPC   NC310175  44.628  29.095   9.450
 3841POPC   PO410176  44.665  29.132   9.150
 3841POPC   GL110177  44.644  29.104   8.850
 3841POPC   GL210178  44.527  29.096   8.850
 3841POPC   C1A10179  44.672  29.166   8.550
 3841POPC   D2A10180  44.615  29.194   8.250
 3841POPC   C3A10181  44.703  29.110   7.950
 3841POPC   C4A10182  44.671  29.184   7.650
 3841POPC   C1B10183  44.470  29.004   8.550
 3841POPC   C2B10184  44.449  29.018   8.250
 3841POPC   C3B10185  44.482  28.947   7.950
 3841POPC   C4B10186  44.511  28.964   7.650
 3842POPC   NC310187   4.328   0.451   9.450
 3842POPC   PO410188   4.296   0.394   9.150
 3842POPC   GL110189   4.292   0.445   8.850
 3842POPC   GL210190   4.194   0.446   8.850
 3842POPC   C1A10191   4.313   0.462   8.550
 3842POPC   D2A10192   4.274   0.392   8.250
 3842POPC   C3A10193   4.291   0.462   7.950
 3842POPC   C4A10194   4.293   0.473   7.650
 3842POPC   C1B10195   4.098   0.555   8.550
 3842POPC   C2B10196   4.081   0.542   8.250
 3842POPC   C3B10197   4.038   0.485   7.950
 3842POPC   C4B10198   4.118   0.529   7.650
 3843POPC   NC310199   7.437  37.706   9.450
 3843POPC   PO410200   7.377  37.682   9.150
 3843POPC   GL110201   7.468  37.694   8.850
 3843POPC   GL210202   7.310  37.658   8.850
 3843POPC   C1A10203   7.393  37.708   8.550
 3843POPC   D2A10204   7.413  37.644   8.250
 3843POPC   C3A10205   7.419  37.721   7.950
 3843POPC   C4A10206   7.447  37.635   7.650
 3843POPC   C1B10207   7.173  37.775   8.550
 3843POPC   C2B10208   7.217  37.709   8.250
 3843POPC   C3B10209   7.141  37.684   7.950
 3843POPC   C4B10210   7.162  37.760   7.650
 3844POPC   NC310211  18.262   2.750   9.450
 3844POPC   PO410212  18.233   2.773   9.150
 3844POPC   GL110213  18.260   2.726   8.850
 3844POPC   GL210214  18.131   2.755   8.850
 3844POPC   C1A10215  18.234   2.784   8.550
 3844POPC   D2A10216  18.265   2.798   8.250
 3844POPC   C3A10217  18.318   2.732   7.950
 3844POPC   C4A10218  18.248   2.762   7.650
 3844POPC   C1B10219  18.064   2.702   8.550
 3844POPC   C2B10220  18.054   2.661   8.250
 3844POPC   C3B10221  18.030   2.646   7.950
 3844POPC   C4B10222  18.090   2.649   7.650
 3845POPC   NC310223  32.224  10.515   9.450
 3845POPC   PO410224  32.215  10.571   9.150
 3845POPC   GL110225  32.286  10.564   8.850
 3845POPC   GL210226  32.144  10.663   8.850
 3845POPC   C1A10227  32.220  10.495   8.550
 3845POPC   D2A10228  32.252  10.529   8.250
 3845POPC   C3A10229  32.297  10.536   7.950
 3845POPC   C4A10230  32.255  10.516   7.650
 3845POPC   C1B10231  32.090  10.672   8.550
 3845POPC   C2B10232  32.121  10.740   8.250
 3845POPC   C3B10233  32.117  10.766   7.950
 3845POPC   C4B10234  32.063  10.762   7.650
 3846POPC   NC310235   5.898  29.927   9.450
 3846POPC   PO410236   5.834  29.893   9.150
 3846POPC   GL110237   5.874  29.948   8.850
 3846POPC   GL210238   5.952  29.849   8.850
 3846POPC   C1A10239   5.837  29.927   8.550
 3846POPC   D2A10240   5.857  29.935   8.250
 3846POPC   C3A10241   5.899  29.934   7.950
 3846POPC   C4A10242   5.862  29.899   7.650
 3846POPC   C1B10243   5.918  29.719   8.550
 3846POPC   C2B10244   5.944  29.667   8.250
 3846POPC   C3B10245   5.927  29.692   7.950
 3846POPC   C4B10246   5.928  29.695   7.650
 3847POPC   NC310247  34.541   0.487   9.450
 3847POPC   PO410248  34.547   0.461   9.150
 3847POPC   GL110249  34.587   0.474   8.850
 3847POPC   GL210250  34.654   0.566   8.850
 3847POPC   C1A10251  34.577   0.411   8.550
 3847POPC   D2A10252  34.550   0.485   8.250
 3847POPC   C3A10253  34.580   0.482   7.950
 3847POPC   C4A10254  34.565   0.391   7.650
 3847POPC   C1B10255  34.704   0.654   8.550
 3847POPC   C2B10256  34.719   0.654   8.250
 3847POPC   C3B10257  34.785   0.593   7.950
 3847POPC   C4B10258  34.792   0.611   7.650
 3848POPC   NC310259  42.331  18.264   9.450
 3848POPC   PO410260  42.332  18.265   9.150
 3848POPC   GL110261  42.355  18.287   8.850
 3848POPC   GL210262  42.419  18.432   8.850
 3848POPC   C1A10263  42.295  18.251   8.550
 3848POPC   D2A10264  42.365  18.292   8.250
 3848POPC   C3A10265  42.371  18.245   7.950
 3848POPC   C4A10266  42.315  18.263   7.650
 3848POPC   C1B10267  42.406  18.531   8.550
 3848POPC   C2B10268  42.415  18.498   8.250
 3848POPC   C3B10269  42.407  18.486   7.950
 3848POPC   C4B10270  42.411  18.543   7.650
 3849POPC   NC310271  40.829   9.730   9.450
 3849POPC   PO410272  40.752   9.707   9.150
 3849POPC   GL110273  40.798   9.706   8.850
 3849POPC   GL210274  40.904   9.648   8.850
 3849POPC   C1A10275  40.747   9.768   8.550
 3849POPC   D2A10276  40.768   9.777   8.250
 3849POPC   C3A10277  40.831   9.771   7.950
 3849POPC   C4A10278  40.807   9.782   7.650
 3849POPC   C1B10279  41.007   9.617   8.550
 3849POPC   C2B10280  40.987   9.529   8.250
 3849POPC   C3B10281  40.998   9.539   7.950
 3849POPC   C4B10282  40.961   9.554   7.650
 3850POPC   NC310283  34.564   2.001   9.450
 3850POPC   PO410284  34.585   1.990   9.150
 3850POPC   GL110285  34.601   2.000   8.850
 3850POPC   GL210286  34.692   1.918   8.850
 3850POPC   C1A10287  34.619   1.956   8.550
 3850POPC   D2A10288  34.622   2.012   8.250
 3850POPC   C3A10289  34.537   1.950   7.950
 3850POPC   C4A10290  34.530   2.025   7.650
 3850POPC   C1B10291  34.773   1.816   8.550
 3850POPC   C2B10292  34.750   1.832   8.250
 3850POPC   C3B10293  34.770   1.754   7.950
 3850POPC   C4B10294  34.689   1.828   7.650
 3851POPC   NC310295   5.894   9.781   9.450
 3851POPC   PO410296   5.824   9.769   9.150
 3851POPC   GL110297   5.846   9.763   8.850
 3851POPC   GL210298   5.738   9.626   8.850
 3851POPC   C1A10299   5.847   9.733   8.550
 3851POPC   D2A10300   5.874   9.772   8.250
 3851POPC   C3A10301   5.863   9.699   7.950
 3851POPC   C4A10302   5.846   9.701   7.650
 3851POPC   C1B10303   5.661   9.586   8.550
 3851POPC   C2B10304   5.688   9.596   8.250
 3851POPC   C3B10305   5.679   9.574   7.950
 3851POPC   C4B10306   5.652   9.578   7.650
 3852POPC   NC310307   2.024  41.534   9.450
 3852POPC   PO410308   1.986  41.532   9.150
 3852POPC   GL110309   1.952  41.580   8.850
 3852POPC   GL210310   1.919  41.525   8.850
 3852POPC   C1A10311   1.942  41.556   8.550
 3852POPC   D2A10312   1.981  41.599   8.250
 3852POPC   C3A10313   2.033  41.544   7.950
 3852POPC   C4A10314   1.948  41.595   7.650
 3852POPC   C1B10315   1.719  41.406   8.550
 3852POPC   C2B10316   1.723  41.437   8.250
 3852POPC   C3B10317   1.812  41.393   7.950
 3852POPC   C4B10318   1.791  41.486   7.650
 3853POPC   NC310319  17.462  11.289   9.450
 3853POPC   PO410320  17.473  11.334   9.150
 3853POPC   GL110321  17.511  11.330   8.850
 3853POPC   GL210322  17.411  11.313   8.850
 3853POPC   C1A10323  17.459  11.311   8.550
 3853POPC   D2A10324  17.556  11.289   8.250
 3853POPC   C3A10325  17.457  11.349   7.950
 3853POPC   C4A10326  17.551  11.300   7.650
 3853POPC   C1B10327  17.298  11.380   8.550
 3853POPC   C2B10328  17.294  11.381   8.250
 3853POPC   C3B10329  17.269  11.386   7.950
 3853POPC   C4B10330  17.251  11.444   7.650
 3854POPC   NC310331  40.771   2.731   9.450
 3854POPC   PO410332  40.750   2.814   9.150
 3854POPC   GL110333  40.755   2.756   8.850
 3854POPC   GL210334  40.721   2.655   8.850
 3854POPC   C1A10335  40.789   2.716   8.550
 3854POPC   D2A10336  40.749   2.718   8.250
 3854POPC   C3A10337  40.824   2.774   7.950
 3854POPC   C4A10338  40.775   2.778   7.650
 3854POPC   C1B10339  40.742   2.499   8.550
 3854POPC   C2B10340  40.762   2.527   8.250
 3854POPC   C3B10341  40.741   2.524   7.950
 3854POPC   C4B10342  40.696   2.499   7.650
 3855POPC   NC310343   1.237  35.303   9.450
 3855POPC   PO410344   1.170  35.350   9.150
 3855POPC   GL110345   1.247  35.362   8.850
 3855POPC   GL210346   1.139  35.292   8.850
 3855POPC   C1A10347   1.223  35.328   8.550
 3855POPC   D2A10348   1.181  35.331   8.250
 3855POPC   C3A10349   1.176  35.395   7.950
 3855POPC   C4A10350   1.205  35.401   7.650
 3855POPC   C1B10351   0.977  35.216   8.550
 3855POPC   C2B10352   0.944  35.279   8.250
 3855POPC   C3B10353   1.033  35.267   7.950
 3855POPC   C4B10354   0.943  35.267   7.650
 3856POPC   NC310355   0.485   1.253   9.450
 3856POPC   PO410356   0.394   1.245   9.150
 3856POPC   GL110357   0.391   1.183   8.850
 3856POPC   GL210358   0.473   1.376   8.850
 3856POPC   C1A10359   0.474   1.229   8.550
 3856POPC   D2A10360   0.439   1.218   8.250
 3856POPC   C3A10361   0.480   1.228   7.950
 3856POPC   C4A10362   0.444   1.225   7.650
 3856POPC   C1B10363   0.419   1.501   8.550
 3856POPC   C2B10364   0.413   1.437   8.250
 3856POPC   C3B10365   0.484   1.481   7.950
 3856POPC   C4B10366   0.386   1.476   7.650
 3857POPC   NC310367  24.458  22.179   9.450
 3857POPC   PO410368  24.531  22.166   9.150
 3857POPC   GL110369  24.454  22.133   8.850
 3857POPC   GL210370  24.573  22.105   8.850
 3857POPC   C1A10371  24.529  22.189   8.550
 3857POPC   D2A10372  24.473  22.176   8.250
 3857POPC   C3A10373  24.493  22.129   7.950
 3857POPC   C4A10374  24.482  22.181   7.650
 3857POPC   C1B10375  24.621  21.965   8.550
 3857POPC   C2B10376  24.599  21.937   8.250
 3857POPC   C3B10377  24.654  21.913   7.950
 3857POPC   C4B10378  24.626  21.938   7.650
 3858POPC   NC310379  12.043  33.810   9.450
 3858POPC   PO410380  12.090  33.754   9.150
 3858POPC   GL110381  12.042  33.800   8.850
 3858POPC   GL210382  11.983  33.709   8.850
 3858POPC   C1A10383  12.027  33.795   8.550
 3858POPC   D2A10384  12.050  33.784   8.250
 3858POPC   C3A10385  12.076  33.790   7.950
 3858POPC   C4A10386  12.028  33.808   7.650
 3858POPC   C1B10387  11.929  33.612   8.550
 3858POPC   C2B10388  11.883  33.571   8.250
 3858POPC   C3B10389  11.941  33.623   7.950
 3858POPC   C4B10390  11.955  33.645   7.650
 3859POPC   NC310391  37.666  26.820   9.450
 3859POPC   PO410392  37.631  26.859   9.150
 3859POPC   GL110393  37.646  26.799   8.850
 3859POPC   GL210394  37.712  26.960   8.850
 3859POPC   C1A10395  37.657  26.802   8.550
 3859POPC   D2A10396  37.647  26.805   8.250
 3859POPC   C3A10397  37.681  26.835   7.950
 3859POPC   C4A10398  37.694  26.812   7.650
 3859POPC   C1B10399  37.778  27.076   8.550
 3859POPC   C2B10400  37.864  27.055   8.250
 3859POPC   C3B10401  37.832  26.981   7.950
 3859POPC   C4B10402  37.866  27.012   7.650
 3860POPC   NC310403   2.790   8.209   9.450
 3860POPC   PO410404   2.801   8.216   9.150
 3860POPC   GL110405   2.798   8.227   8.850
 3860POPC   GL210406   2.699   8.228   8.850
 3860POPC   C1A10407   2.729   8.246   8.550
 3860POPC   D2A10408   2.809   8.211   8.250
 3860POPC   C3A10409   2.768   8.185   7.950
 3860POPC   C4A10410   2.717   8.230   7.650
 3860POPC   C1B10411   2.512   8.357   8.550
 3860POPC   C2B10412   2.577   8.293   8.250
 3860POPC   C3B10413   2.542   8.348   7.950
 3860POPC   C4B10414   2.511   8.378   7.650
 3861POPC   NC310415  32.978  30.737   9.450
 3861POPC   PO410416  32.989  30.712   9.150
 3861POPC   GL110417  33.010  30.672   8.850
 3861POPC   GL210418  32.954  30.549   8.850
 3861POPC   C1A10419  33.049  30.695   8.550
 3861POPC   D2A10420  33.046  30.741   8.250
 3861POPC   C3A10421  32.978  30.653   7.950
 3861POPC   C4A10422  33.021  30.733   7.650
 3861POPC   C1B10423  32.915  30.423   8.550
 3861POPC   C2B10424  32.982  30.501   8.250
 3861POPC   C3B10425  32.907  30.446   7.950
 3861POPC   C4B10426  32.957  30.424   7.650
 3862POPC   NC310427  16.755  41.595   9.450
 3862POPC   PO410428  16.779  41.607   9.150
 3862POPC   GL110429  16.767  41.535   8.850
 3862POPC   GL210430  16.828  41.626   8.850
 3862POPC   C1A10431  16.728  41.541   8.550
 3862POPC   D2A10432  16.758  41.567   8.250
 3862POPC   C3A10433  16.779  41.538   7.950
 3862POPC   C4A10434  16.766  41.574   7.650
 3862POPC   C1B10435  16.911  41.760   8.550
 3862POPC   C2B10436  16.922  41.699   8.250
 3862POPC   C3B10437  16.871  41.722   7.950
 3862POPC   C4B10438  16.914  41.761   7.650
 3863POPC   NC310439  21.396  15.968   9.450
 3863POPC   PO410440  21.392  16.001   9.150
 3863POPC   GL110441  21.398  15.916   8.850
 3863POPC   GL210442  21.465  16.038   8.850
 3863POPC   C1A10443  21.368  15.947   8.550
 3863POPC   D2A10444  21.372  15.951   8.250
 3863POPC   C3A10445  21.366  15.986   7.950
 3863POPC   C4A10446  21.346  15.938   7.650
 3863POPC   C1B10447  21.486  16.184   8.550
 3863POPC   C2B10448  21.446  16.199   8.250
 3863POPC   C3B10449  21.462  16.213   7.950
 3863POPC   C4B10450  21.485  16.143   7.650
 3864POPC   NC310451  11.302  23.718   9.450
 3864POPC   PO410452  11.279  23.734   9.150
 3864POPC   GL110453  11.260  23.734   8.850
 3864POPC   GL210454  11.234  23.632   8.850
 3864POPC   C1A10455  11.293  23.719   8.550
 3864POPC   D2A10456  11.312  23.722   8.250
 3864POPC   C3A10457  11.274  23.686   7.950
 3864POPC   C4A10458  11.256  23.741   7.650
 3864POPC   C1B10459  11.084  23.566   8.550
 3864POPC   C2B10460  11.072  23.550   8.250
 3864POPC   C3B10461  11.079  23.620   7.950
 3864POPC   C4B10462  11.118  23.627   7.650
 3865POPC   NC310463  33.789  38.414   9.450
 3865POPC   PO410464  33.841  38.476   9.150
 3865POPC   GL110465  33.833  38.417   8.850
 3865POPC   GL210466  33.903  38.411   8.850
 3865POPC   C1A10467  33.794  38.478   8.550
 3865POPC   D2A10468  33.818  38.437   8.250
 3865POPC   C3A10469  33.760  38.477   7.950
 3865POPC   C4A10470  33.763  38.498   7.650
 3865POPC   C1B10471  34.047  38.360   8.550
 3865POPC   C2B10472  33.999  38.387   8.250
 3865POPC   C3B10473  34.001  38.397   7.950
 3865POPC   C4B10474  34.017  38.359   7.650
 3866POPC   NC310475   3.517   4.354   9.450
 3866POPC   PO410476   3.571   4.311   9.150
 3866POPC   GL110477   3.531   4.364   8.850
 3866POPC   GL210478   3.634   4.313   8.850
 3866POPC   C1A10479   3.540   4.355   8.550
 3866POPC   D2A10480   3.533   4.298   8.250
 3866POPC   C3A10481   3.540   4.342   7.950
 3866POPC   C4A10482   3.528   4.312   7.650
 3866POPC   C1B10483   3.756   4.298   8.550
 3866POPC   C2B10484   3.814   4.296   8.250
 3866POPC   C3B10485   3.813   4.320   7.950
 3866POPC   C4B10486   3.772   4.279   7.650
 3867POPC   NC310487  22.133   8.981   9.450
 3867POPC   PO410488  22.170   8.998   9.150
 3867POPC   GL110489  22.158   8.937   8.850
 3867POPC   GL210490  22.310   8.968   8.850
 3867POPC   C1A10491  22.199   8.946   8.550
 3867POPC   D2A10492  22.174   8.965   8.250
 3867POPC   C3A10493  22.119   8.925   7.950
 3867POPC   C4A10494  22.166   8.945   7.650
 3867POPC   C1B10495  22.446   8.866   8.550
 3867POPC   C2B10496  22.353   8.900   8.250
 3867POPC   C3B10497  22.420   8.896   7.950
 3867POPC   C4B10498  22.437   8.934   7.650
 3868POPC   NC310499  39.957  36.939   9.450
 3868POPC   PO410500  40.037  36.912   9.150
 3868POPC   GL110501  39.982  36.900   8.850
 3868POPC   GL210502  40.118  36.980   8.850
 3868POPC   C1A10503  40.011  36.949   8.550
 3868POPC   D2A10504  39.971  36.939   8.250
 3868POPC   C3A10505  40.040  36.951   7.950
 3868POPC   C4A10506  40.046  36.939   7.650
 3868POPC   C1B10507  40.259  36.939   8.550
 3868POPC   C2B10508  40.275  36.990   8.250
 3868POPC   C3B10509  40.219  37.003   7.950
 3868POPC   C4B10510  40.278  37.008   7.650
 3869POPC   NC310511  28.398  39.254   9.450
 3869POPC   PO410512  28.355  39.210   9.150
 3869POPC   GL110513  28.326  39.271   8.850
 3869POPC   GL210514  28.261  39.331   8.850
 3869POPC   C1A10515  28.322  39.244   8.550
 3869POPC   D2A10516  28.353  39.252   8.250
 3869POPC   C3A10517  28.374  39.280   7.950
 3869POPC   C4A10518  28.330  39.183   7.650
 3869POPC   C1B10519  28.204  39.452   8.550
 3869POPC   C2B10520  28.194  39.436   8.250
 3869POPC   C3B10521  28.239  39.475   7.950
 3869POPC   C4B10522  28.232  39.428   7.650
 3870POPC   NC310523  21.411  38.492   9.450
 3870POPC   PO410524  21.369  38.501   9.150
 3870POPC   GL110525  21.385  38.495   8.850
 3870POPC   GL210526  21.225  38.446   8.850
 3870POPC   C1A10527  21.407  38.486   8.550
 3870POPC   D2A10528  21.353  38.458   8.250
 3870POPC   C3A10529  21.355  38.412   7.950
 3870POPC   C4A10530  21.348  38.428   7.650
 3870POPC   C1B10531  21.156  38.428   8.550
 3870POPC   C2B10532  21.130  38.419   8.250
 3870POPC   C3B10533  21.145  38.418   7.950
 3870POPC   C4B10534  21.179  38.444   7.650
 3871POPC   NC310535  15.211  29.161   9.450
 3871POPC   PO410536  15.227  29.187   9.150
 3871POPC   GL110537  15.210  29.129   8.850
 3871POPC   GL210538  15.208  29.023   8.850
 3871POPC   C1A10539  15.136  29.133   8.550
 3871POPC   D2A10540  15.180  29.166   8.250
 3871POPC   C3A10541  15.147  29.181   7.950
 3871POPC   C4A10542  15.176  29.175   7.650
 3871POPC   C1B10543  15.334  28.903   8.550
 3871POPC   C2B10544  15.358  28.931   8.250
 3871POPC   C3B10545  15.357  28.926   7.950
 3871POPC   C4B10546  15.299  28.913   7.650
 3872POPC   NC310547  23.723  15.214   9.450
 3872POPC   PO410548  23.690  15.222   9.150
 3872POPC   GL110549  23.750  15.141   8.850
 3872POPC   GL210550  23.819  15.092   8.850
 3872POPC   C1A10551  23.755  15.141   8.550
 3872POPC   D2A10552  23.723  15.178   8.250
 3872POPC   C3A10553  23.743  15.199   7.950
 3872POPC   C4A10554  23.706  15.229   7.650
 3872POPC   C1B10555  23.856  14.999   8.550
 3872POPC   C2B10556  23.913  15.015   8.250
 3872POPC   C3B10557  23.908  15.040   7.950
 3872POPC   C4B10558  23.864  15.008   7.650
 3873POPC   NC310559  28.402   9.714   9.450
 3873POPC   PO410560  28.407   9.710   9.150
 3873POPC   GL110561  28.334   9.727   8.850
 3873POPC   GL210562  28.358   9.892   8.850
 3873POPC   C1A10563  28.374   9.715   8.550
 3873POPC   D2A10564  28.380   9.728   8.250
 3873POPC   C3A10565  28.322   9.780   7.950
 3873POPC   C4A10566  28.398   9.793   7.650
 3873POPC   C1B10567  28.262  10.003   8.550
 3873POPC   C2B10568  28.260   9.971   8.250
 3873POPC   C3B10569  28.266  10.009   7.950
 3873POPC   C4B10570  28.304  10.000   7.650
 3874POPC   NC310571  43.084  21.433   9.450
 3874POPC   PO410572  43.138  21.362   9.150
 3874POPC   GL110573  43.071  21.426   8.850
 3874POPC   GL210574  43.105  21.497   8.850
 3874POPC   C1A10575  43.084  21.403   8.550
 3874POPC   D2A10576  43.107  21.371   8.250
 3874POPC   C3A10577  43.106  21.383   7.950
 3874POPC   C4A10578  43.076  21.371   7.650
 3874POPC   C1B10579  43.085  21.611   8.550
 3874POPC   C2B10580  43.075  21.654   8.250
 3874POPC   C3B10581  42.997  21.591   7.950
 3874POPC   C4B10582  43.019  21.601   7.650
 3875POPC   NC310583  23.691  39.189   9.450
 3875POPC   PO410584  23.685  39.259   9.150
 3875POPC   GL110585  23.697  39.225   8.850
 3875POPC   GL210586  23.616  39.179   8.850
 3875POPC   C1A10587  23.759  39.258   8.550
 3875POPC   D2A10588  23.737  39.245   8.250
 3875POPC   C3A10589  23.744  39.251   7.950
 3875POPC   C4A10590  23.759  39.183   7.650
 3875POPC   C1B10591  23.486  39.219   8.550
 3875POPC   C2B10592  23.465  39.198   8.250
 3875POPC   C3B10593  23.450  39.251   7.950
 3875POPC   C4B10594  23.484  39.175   7.650
 3876POPC   NC310595  32.288  43.935   9.450
 3876POPC   PO410596  32.227  43.850   9.150
 3876POPC   GL110597  32.201  43.935   8.850
 3876POPC   GL210598  32.134  43.824   8.850
 3876POPC   C1A10599  32.205  43.870   8.550
 3876POPC   D2A10600  32.207  43.905   8.250
 3876POPC   C3A10601  32.259  43.924   7.950
 3876POPC   C4A10602  32.256  43.913   7.650
 3876POPC   C1B10603  32.127  43.660   8.550
 3876POPC   C2B10604  32.087  43.691   8.250
 3876POPC   C3B10605  32.150  43.649   7.950
 3876POPC   C4B10606  32.092  43.691   7.650
 3877POPC   NC310607  36.146  15.193   9.450
 3877POPC   PO410608  36.122  15.206   9.150
 3877POPC   GL110609  36.157  15.219   8.850
 3877POPC   GL210610  36.200  15.035   8.850
 3877POPC   C1A10611  36.111  15.131   8.550
 3877POPC   D2A10612  36.091  15.157   8.250
 3877POPC   C3A10613  36.140  15.205   7.950
 3877POPC   C4A10614  36.147  15.143   7.650
 3877POPC   C1B10615  36.215  14.964   8.550
 3877POPC   C2B10616  36.189  14.944   8.250
 3877POPC   C3B10617  36.156  14.990   7.950
 3877POPC   C4B10618  36.214  14.898   7.650
 3878POPC   NC310619  35.313  36.858   9.450
 3878POPC   PO410620  35.390  36.857   9.150
 3878POPC   GL110621  35.327  36.890   8.850
 3878POPC   GL210622  35.244  36.898   8.850
 3878POPC   C1A10623  35.346  36.933   8.550
 3878POPC   D2A10624  35.379  36.858   8.250
 3878POPC   C3A10625  35.379  36.861   7.950
 3878POPC   C4A10626  35.318  36.919   7.650
 3878POPC   C1B10627  35.105  36.968   8.550
 3878POPC   C2B10628  35.120  36.956   8.250
 3878POPC   C3B10629  35.086  36.958   7.950
 3878POPC   C4B10630  35.103  36.995   7.650
 3879POPC   NC310631  44.632   2.794   9.450
 3879POPC   PO410632  44.691   2.811   9.150
 3879POPC   GL110633  44.652   2.815   8.850
 3879POPC   GL210634  44.557   2.746   8.850
 3879POPC   C1A10635  44.657   2.772   8.550
 3879POPC   D2A10636  44.708   2.775   8.250
 3879POPC   C3A10637  44.680   2.771   7.950
 3879POPC   C4A10638  44.649   2.766   7.650
 3879POPC   C1B10639  44.478   2.664   8.550
 3879POPC   C2B10640  44.397   2.615   8.250
 3879POPC   C3B10641  44.412   2.617   7.950
 3879POPC   C4B10642  44.485   2.680   7.650
 3880POPC   NC310643  21.380  19.052   9.450
 3880POPC   PO410644  21.369  19.071   9.150
 3880POPC   GL110645  21.429  19.078   8.850
 3880POPC   GL210646  21.408  18.928   8.850
 3880POPC   C1A10647  21.344  19.058   8.550
 3880POPC   D2A10648  21.378  19.067   8.250
 3880POPC   C3A10649  21.431  19.100   7.950
 3880POPC   C4A10650  21.337  19.032   7.650
 3880POPC   C1B10651  21.488  18.869   8.550
 3880POPC   C2B10652  21.549  18.877   8.250
 3880POPC   C3B10653  21.523  18.826   7.950
 3880POPC   C4B10654  21.537  18.884   7.650
 3881POPC   NC310655  31.458  11.283   9.450
 3881POPC   PO410656  31.520  11.255   9.150
 3881POPC   GL110657  31.500  11.288   8.850
 3881POPC   GL210658  31.534  11.359   8.850
 3881POPC   C1A10659  31.462  11.300   8.550
 3881POPC   D2A10660  31.488  11.306   8.250
 3881POPC   C3A10661  31.477  11.325   7.950
 3881POPC   C4A10662  31.511  11.291   7.650
 3881POPC   C1B10663  31.653  11.481   8.550
 3881POPC   C2B10664  31.648  11.417   8.250
 3881POPC   C3B10665  31.691  11.419   7.950
 3881POPC   C4B10666  31.655  11.401   7.650
 3882POPC   NC310667  29.189  16.690   9.450
 3882POPC   PO410668  29.146  16.751   9.150
 3882POPC   GL110669  29.145  16.757   8.850
 3882POPC   GL210670  29.121  16.611   8.850
 3882POPC   C1A10671  29.107  16.761   8.550
 3882POPC   D2A10672  29.113  16.766   8.250
 3882POPC   C3A10673  29.156  16.759   7.950
 3882POPC   C4A10674  29.098  16.752   7.650
 3882POPC   C1B10675  29.072  16.519   8.550
 3882POPC   C2B10676  29.092  16.448   8.250
 3882POPC   C3B10677  29.083  16.483   7.950
 3882POPC   C4B10678  29.093  16.514   7.650
 3883POPC   NC310679  34.566   7.464   9.450
 3883POPC   PO410680  34.579   7.439   9.150
 3883POPC   GL110681  34.606   7.374   8.850
 3883POPC   GL210682  34.467   7.437   8.850
 3883POPC   C1A10683  34.531   7.466   8.550
 3883POPC   D2A10684  34.538   7.401   8.250
 3883POPC   C3A10685  34.589   7.391   7.950
 3883POPC   C4A10686  34.611   7.413   7.650
 3883POPC   C1B10687  34.279   7.480   8.550
 3883POPC   C2B10688  34.370   7.431   8.250
 3883POPC   C3B10689  34.294   7.497   7.950
 3883POPC   C4B10690  34.296   7.497   7.650
 3884POPC   NC310691  33.774  28.395   9.450
 3884POPC   PO410692  33.807  28.355   9.150
 3884POPC   GL110693  33.779  28.392   8.850
 3884POPC   GL210694  33.924  28.460   8.850
 3884POPC   C1A10695  33.794  28.330   8.550
 3884POPC   D2A10696  33.763  28.332   8.250
 3884POPC   C3A10697  33.801  28.390   7.950
 3884POPC   C4A10698  33.836  28.353   7.650
 3884POPC   C1B10699  34.018  28.549   8.550
 3884POPC   C2B10700  33.974  28.553   8.250
 3884POPC   C3B10701  33.955  28.492   7.950
 3884POPC   C4B10702  33.983  28.557   7.650
 3885POPC   NC310703  35.341  14.427   9.450
 3885POPC   PO410704  35.362  14.361   9.150
 3885POPC   GL110705  35.319  14.404   8.850
 3885POPC   GL210706  35.280  14.474   8.850
 3885POPC   C1A10707  35.342  14.361   8.550
 3885POPC   D2A10708  35.311  14.439   8.250
 3885POPC   C3A10709  35.374  14.381   7.950
 3885POPC   C4A10710  35.378  14.437   7.650
 3885POPC   C1B10711  35.173  14.544   8.550
 3885POPC   C2B10712  35.216  14.587   8.250
 3885POPC   C3B10713  35.157  14.544   7.950
 3885POPC   C4B10714  35.202  14.583   7.650
 3886POPC   NC310715  38.423  33.805   9.450
 3886POPC   PO410716  38.428  33.834   9.150
 3886POPC   GL110717  38.488  33.793   8.850
 3886POPC   GL210718  38.317  33.771   8.850
 3886POPC   C1A10719  38.440  33.752   8.550
 3886POPC   D2A10720  38.505  33.780   8.250
 3886POPC   C3A10721  38.428  33.757   7.950
 3886POPC   C4A10722  38.439  33.771   7.650
 3886POPC   C1B10723  38.172  33.845   8.550
 3886POPC   C2B10724  38.239  33.801   8.250
 3886POPC   C3B10725  38.231  33.846   7.950
 3886POPC   C4B10726  38.236  33.865   7.650
 3887POPC   NC310727  12.869  24.528   9.450
 3887POPC   PO410728  12.887  24.441   9.150
 3887POPC   GL110729  12.857  24.520   8.850
 3887POPC   GL210730  12.771  24.418   8.850
 3887POPC   C1A10731  12.895  24.511   8.550
 3887POPC   D2A10732  12.881  24.516   8.250
 3887POPC   C3A10733  12.847  24.505   7.950
 3887POPC   C4A10734  12.863  24.471   7.650
 3887POPC   C1B10735  12.686  24.351   8.550
 3887POPC   C2B10736  12.695  24.380   8.250
 3887POPC   C3B10737  12.625  24.327   7.950
 3887POPC   C4B10738  12.610  24.383   7.650
 3888POPC   NC310739  41.573   9.756   9.450
 3888POPC   PO410740  41.552   9.761   9.150
 3888POPC   GL110741  41.571   9.757   8.850
 3888POPC   GL210742  41.452   9.848   8.850
 3888POPC   C1A10743  41.575   9.796   8.550
 3888POPC   D2A10744  41.570   9.730   8.250
 3888POPC   C3A10745  41.515   9.698   7.950
 3888POPC   C4A10746  41.593   9.792   7.650
 3888POPC   C1B10747  41.417   9.887   8.550
 3888POPC   C2B10748  41.349   9.892   8.250
 3888POPC   C3B10749  41.429   9.894   7.950
 3888POPC   C4B10750  41.397   9.935   7.650
 3889POPC   NC310751  12.825  34.615   9.450
 3889POPC   PO410752  12.847  34.607   9.150
 3889POPC   GL110753  12.805  34.614   8.850
 3889POPC   GL210754  12.757  34.616   8.850
 3889POPC   C1A10755  12.869  34.552   8.550
 3889POPC   D2A10756  12.810  34.533   8.250
 3889POPC   C3A10757  12.884  34.601   7.950
 3889POPC   C4A10758  12.882  34.566   7.650
 3889POPC   C1B10759  12.573  34.611   8.550
 3889POPC   C2B10760  12.641  34.596   8.250
 3889POPC   C3B10761  12.565  34.581   7.950
 3889POPC   C4B10762  12.610  34.649   7.650
 3890POPC   NC310763  32.245  16.763   9.450
 3890POPC   PO410764  32.233  16.746   9.150
 3890POPC   GL110765  32.216  16.738   8.850
 3890POPC   GL210766  32.353  16.602   8.850
 3890POPC   C1A10767  32.268  16.720   8.550
 3890POPC   D2A10768  32.210  16.726   8.250
 3890POPC   C3A10769  32.213  16.763   7.950
 3890POPC   C4A10770  32.233  16.681   7.650
 3890POPC   C1B10771  32.434  16.557   8.550
 3890POPC   C2B10772  32.467  16.593   8.250
 3890POPC   C3B10773  32.468  16.546   7.950
 3890POPC   C4B10774  32.461  16.523   7.650
 3891POPC   NC310775  42.341  29.879   9.450
 3891POPC   PO410776  42.342  29.877   9.150
 3891POPC   GL110777  42.303  29.953   8.850
 3891POPC   GL210778  42.203  29.952   8.850
 3891POPC   C1A10779  42.319  29.876   8.550
 3891POPC   D2A10780  42.309  29.918   8.250
 3891POPC   C3A10781  42.352  29.898   7.950
 3891POPC   C4A10782  42.336  29.896   7.650
 3891POPC   C1B10783  42.077  30.081   8.550
 3891POPC   C2B10784  42.145  30.105   8.250
 3891POPC   C3B10785  42.093  30.043   7.950
 3891POPC   C4B10786  42.086  30.074   7.650
 3892POPC   NC310787  42.371  26.071   9.450
 3892POPC   PO410788  42.375  26.036   9.150
 3892POPC   GL110789  42.298  26.006   8.850
 3892POPC   GL210790  42.349  25.955   8.850
 3892POPC   C1A10791  42.304  26.053   8.550
 3892POPC   D2A10792  42.376  25.993   8.250
 3892POPC   C3A10793  42.350  26.032   7.950
 3892POPC   C4A10794  42.366  26.017   7.650
 3892POPC   C1B10795  42.271  25.835   8.550
 3892POPC   C2B10796  42.280  25.750   8.250
 3892POPC   C3B10797  42.318  25.785   7.950
 3892POPC   C4B10798  42.250  25.835   7.650
 3893POPC   NC310799  29.183  38.428   9.450
 3893POPC   PO410800  29.106  38.440   9.150
 3893POPC   GL110801  29.121  38.472   8.850
 3893POPC   GL210802  29.023  38.504   8.850
 3893POPC   C1A10803  29.183  38.470   8.550
 3893POPC   D2A10804  29.156  38.414   8.250
 3893POPC   C3A10805  29.114  38.478   7.950
 3893POPC   C4A10806  29.146  38.462   7.650
 3893POPC   C1B10807  28.927  38.624   8.550
 3893POPC   C2B10808  28.908  38.565   8.250
 3893POPC   C3B10809  28.962  38.578   7.950
 3893POPC   C4B10810  28.894  38.568   7.650
 3894POPC   NC310811  12.072  25.993   9.450
 3894POPC   PO410812  12.070  26.003   9.150
 3894POPC   GL110813  12.039  26.080   8.850
 3894POPC   GL210814  12.039  26.110   8.850
 3894POPC   C1A10815  12.074  26.080   8.550
 3894POPC   D2A10816  12.038  26.089   8.250
 3894POPC   C3A10817  12.060  26.086   7.950
 3894POPC   C4A10818  12.082  25.997   7.650
 3894POPC   C1B10819  11.928  26.255   8.550
 3894POPC   C2B10820  11.904  26.195   8.250
 3894POPC   C3B10821  11.913  26.241   7.950
 3894POPC   C4B10822  11.915  26.248   7.650
 3895POPC   NC310823  35.352  44.619   9.450
 3895POPC   PO410824  35.313  44.640   9.150
 3895POPC   GL110825  35.385  44.641   8.850
 3895POPC   GL210826  35.296  44.500   8.850
 3895POPC   C1A10827  35.391  44.692   8.550
 3895POPC   D2A10828  35.338  44.683   8.250
 3895POPC   C3A10829  35.378  44.697   7.950
 3895POPC   C4A10830  35.371  44.629   7.650
 3895POPC   C1B10831  35.281  44.411   8.550
 3895POPC   C2B10832  35.275  44.421   8.250
 3895POPC   C3B10833  35.236  44.399   7.950
 3895POPC   C4B10834  35.254  44.424   7.650
 3896POPC   NC310835  12.846  32.269   9.450
 3896POPC   PO410836  12.830  32.206   9.150
 3896POPC   GL110837  12.864  32.207   8.850
 3896POPC   GL210838  12.776  32.336   8.850
 3896POPC   C1A10839  12.826  32.263   8.550
 3896POPC   D2A10840  12.817  32.209   8.250
 3896POPC   C3A10841  12.875  32.228   7.950
 3896POPC   C4A10842  12.848  32.297   7.650
 3896POPC   C1B10843  12.656  32.392   8.550
 3896POPC   C2B10844  12.627  32.395   8.250
 3896POPC   C3B10845  12.627  32.335   7.950
 3896POPC   C4B10846  12.624  32.348   7.650
 3897POPC   NC310847  30.721  30.717   9.450
 3897POPC   PO410848  30.717  30.697   9.150
 3897POPC   GL110849  30.657  30.649   8.850
 3897POPC   GL210850  30.611  30.700   8.850
 3897POPC   C1A10851  30.651  30.732   8.550
 3897POPC   D2A10852  30.719  30.693   8.250
 3897POPC   C3A10853  30.680  30.663   7.950
 3897POPC   C4A10854  30.695  30.698   7.650
 3897POPC   C1B10855  30.426  30.625   8.550
 3897POPC   C2B10856  30.409  30.624   8.250
 3897POPC   C3B10857  30.470  30.671   7.950
 3897POPC   C4B10858  30.472  30.636   7.650
 3898POPC   NC310859  43.893  25.291   9.450
 3898POPC   PO410860  43.872  25.233   9.150
 3898POPC   GL110861  43.893  25.236   8.850
 3898POPC   GL210862  43.941  25.410   8.850
 3898POPC   C1A10863  43.866  25.225   8.550
 3898POPC   D2A10864  43.866  25.255   8.250
 3898POPC   C3A10865  43.936  25.284   7.950
 3898POPC   C4A10866  43.840  25.275   7.650
 3898POPC   C1B10867  44.019  25.439   8.550
 3898POPC   C2B10868  44.006  25.476   8.250
 3898POPC   C3B10869  43.975  25.493   7.950
 3898POPC   C4B10870  44.062  25.484   7.650
 3899POPC   NC310871  31.489  44.640   9.450
 3899POPC   PO410872  31.425  44.625   9.150
 3899POPC   GL110873  31.472  44.680   8.850
 3899POPC   GL210874  31.377  44.746   8.850
 3899POPC   C1A10875  31.512  44.668   8.550
 3899POPC   D2A10876  31.459  44.615   8.250
 3899POPC   C3A10877  31.509  44.645   7.950
 3899POPC   C4A10878  31.452  44.642   7.650
 3899POPC   C1B10879  31.262  44.850   8.550
 3899POPC   C2B10880  31.310  44.827   8.250
 3899POPC   C3B10881  31.309  44.822   7.950
 3899POPC   C4B10882  31.337  44.805   7.650
 3900POPC   NC310883  17.519   2.747   9.450
 3900POPC   PO410884  17.483   2.785   9.150
 3900POPC   GL110885  17.494   2.781   8.850
 3900POPC   GL210886  17.558   2.693   8.850
 3900POPC   C1A10887  17.463   2.783   8.550
 3900POPC   D2A10888  17.519   2.758   8.250
 3900POPC   C3A10889  17.544   2.745   7.950
 3900POPC   C4A10890  17.530   2.797   7.650
 3900POPC   C1B10891  17.689   2.563   8.550
 3900POPC   C2B10892  17.723   2.539   8.250
 3900POPC   C3B10893  17.729   2.630   7.950
 3900POPC   C4B10894  17.675   2.537   7.650
 3901POPC   NC310895  26.054  35.339   9.450
 3901POPC   PO410896  26.050  35.318   9.150
 3901POPC   GL110897  26.042  35.344   8.850
 3901POPC   GL210898  26.070  35.219   8.850
 3901POPC   C1A10899  26.004  35.362   8.550
 3901POPC   D2A10900  26.030  35.347   8.250
 3901POPC   C3A10901  26.033  35.305   7.950
 3901POPC   C4A10902  26.031  35.393   7.650
 3901POPC   C1B10903  26.030  35.103   8.550
 3901POPC   C2B10904  26.041  35.055   8.250
 3901POPC   C3B10905  26.044  35.092   7.950
 3901POPC   C4B10906  26.034  35.109   7.650
 3902POPC   NC310907  32.987   6.676   9.450
 3902POPC   PO410908  33.070   6.642   9.150
 3902POPC   GL110909  33.068   6.663   8.850
 3902POPC   GL210910  32.956   6.649   8.850
 3902POPC   C1A10911  33.017   6.600   8.550
 3902POPC   D2A10912  33.025   6.672   8.250
 3902POPC   C3A10913  33.053   6.636   7.950
 3902POPC   C4A10914  33.002   6.635   7.650
 3902POPC   C1B10915  32.783   6.750   8.550
 3902POPC   C2B10916  32.829   6.705   8.250
 3902POPC   C3B10917  32.804   6.688   7.950
 3902POPC   C4B10918  32.764   6.771   7.650
 3903POPC   NC310919  38.445  37.655   9.450
 3903POPC   PO410920  38.422  37.675   9.150
 3903POPC   GL110921  38.434  37.673   8.850
 3903POPC   GL210922  38.304  37.610   8.850
 3903POPC   C1A10923  38.475  37.676   8.550
 3903POPC   D2A10924  38.415  37.719   8.250
 3903POPC   C3A10925  38.457  37.667   7.950
 3903POPC   C4A10926  38.468  37.707   7.650
 3903POPC   C1B10927  38.209  37.625   8.550
 3903POPC   C2B10928  38.266  37.596   8.250
 3903POPC   C3B10929  38.186  37.561   7.950
 3903POPC   C4B10930  38.176  37.629   7.650
 3904POPC   NC310931  43.903   5.917   9.450
 3904POPC   PO410932  43.852   5.844   9.150
 3904POPC   GL110933  43.879   5.900   8.850
 3904POPC   GL210934  44.052   5.872   8.850
 3904POPC   C1A10935  43.860   5.894   8.550
 3904POPC   D2A10936  43.921   5.831   8.250
 3904POPC   C3A10937  43.877   5.887   7.950
 3904POPC   C4A10938  43.877   5.892   7.650
 3904POPC   C1B10939  44.154   5.962   8.550
 3904POPC   C2B10940  44.142   5.960   8.250
 3904POPC   C3B10941  44.160   5.917   7.950
 3904POPC   C4B10942  44.145   5.954   7.650
 3905POPC   NC310943   8.984  34.623   9.450
 3905POPC   PO410944   8.981  34.598   9.150
 3905POPC   GL110945   9.015  34.528   8.850
 3905POPC   GL210946   8.910  34.650   8.850
 3905POPC   C1A10947   8.944  34.578   8.550
 3905POPC   D2A10948   9.021  34.563   8.250
 3905POPC   C3A10949   8.956  34.555   7.950
 3905POPC   C4A10950   8.968  34.610   7.650
 3905POPC   C1B10951   8.758  34.697   8.550
 3905POPC   C2B10952   8.755  34.756   8.250
 3905POPC   C3B10953   8.807  34.769   7.950
 3905POPC   C4B10954   8.786  34.696   7.650
 3906POPC   NC310955  32.250  22.924   9.450
 3906POPC   PO410956  32.298  22.915   9.150
 3906POPC   GL110957  32.295  22.965   8.850
 3906POPC   GL210958  32.133  22.946   8.850
 3906POPC   C1A10959  32.288  22.964   8.550
 3906POPC   D2A10960  32.286  22.977   8.250
 3906POPC   C3A10961  32.239  22.957   7.950
 3906POPC   C4A10962  32.247  22.952   7.650
 3906POPC   C1B10963  31.976  23.034   8.550
 3906POPC   C2B10964  32.031  23.033   8.250
 3906POPC   C3B10965  32.022  23.031   7.950
 3906POPC   C4B10966  31.995  22.945   7.650
 3907POPC   NC310967  26.826  34.568   9.450
 3907POPC   PO410968  26.778  34.558   9.150
 3907POPC   GL110969  26.773  34.537   8.850
 3907POPC   GL210970  26.901  34.689   8.850
 3907POPC   C1A10971  26.864  34.540   8.550
 3907POPC   D2A10972  26.814  34.551   8.250
 3907POPC   C3A10973  26.782  34.557   7.950
 3907POPC   C4A10974  26.795  34.561   7.650
 3907POPC   C1B10975  27.019  34.678   8.550
 3907POPC   C2B10976  27.052  34.736   8.250
 3907POPC   C3B10977  27.035  34.775   7.950
 3907POPC   C4B10978  27.037  34.771   7.650
 3908POPC   NC310979   9.796  40.775   9.450
 3908POPC   PO410980   9.758  40.826   9.150
 3908POPC   GL110981   9.702  40.818   8.850
 3908POPC   GL210982   9.806  40.724   8.850
 3908POPC   C1A10983   9.778  40.797   8.550
 3908POPC   D2A10984   9.752  40.755   8.250
 3908POPC   C3A10985   9.701  40.748   7.950
 3908POPC   C4A10986   9.753  40.816   7.650
 3908POPC   C1B10987   9.849  40.607   8.550
 3908POPC   C2B10988   9.882  40.539   8.250
 3908POPC   C3B10989   9.866  40.523   7.950
 3908POPC   C4B10990   9.827  40.583   7.650
 3909POPC   NC310991  26.775  38.418   9.450
 3909POPC   PO410992  26.810  38.488   9.150
 3909POPC   GL110993  26.860  38.477   8.850
 3909POPC   GL210994  26.756  38.397   8.850
 3909POPC   C1A10995  26.847  38.415   8.550
 3909POPC   D2A10996  26.824  38.453   8.250
 3909POPC   C3A10997  26.812  38.503   7.950
 3909POPC   C4A10998  26.824  38.449   7.650
 3909POPC   C1B10999  26.627  38.358   8.550
 3909POPC   C2B11000  26.561  38.342   8.250
 3909POPC   C3B11001  26.590  38.318   7.950
 3909POPC   C4B11002  26.586  38.289   7.650
 3910POPC   NC311003  17.555  26.000   9.450
 3910POPC   PO411004  17.524  26.061   9.150
 3910POPC   GL111005  17.554  26.054   8.850
 3910POPC   GL211006  17.557  26.119   8.850
 3910POPC   C1A11007  17.483  26.082   8.550
 3910POPC   D2A11008  17.513  26.024   8.250
 3910POPC   C3A11009  17.536  26.056   7.950
 3910POPC   C4A11010  17.494  26.043   7.650
 3910POPC   C1B11011  17.601  26.291   8.550
 3910POPC   C2B11012  17.547  26.285   8.250
 3910POPC   C3B11013  17.587  26.263   7.950
 3910POPC   C4B11014  17.544  26.326   7.650
 3911POPC   NC311015  14.433  31.425   9.450
 3911POPC   PO411016  14.450  31.426   9.150
 3911POPC   GL111017  14.379  31.464   8.850
 3911POPC   GL211018  14.323  31.578   8.850
 3911POPC   C1A11019  14.377  31.493   8.550
 3911POPC   D2A11020  14.445  31.497   8.250
 3911POPC   C3A11021  14.381  31.487   7.950
 3911POPC   C4A11022  14.376  31.516   7.650
 3911POPC   C1B11023  14.277  31.698   8.550
 3911POPC   C2B11024  14.241  31.688   8.250
 3911POPC   C3B11025  14.270  31.627   7.950
 3911POPC   C4B11026  14.221  31.696   7.650
 3912POPC   NC311027  15.971   8.212   9.450
 3912POPC   PO411028  15.962   8.160   9.150
 3912POPC   GL111029  15.949   8.225   8.850
 3912POPC   GL211030  15.935   8.103   8.850
 3912POPC   C1A11031  15.965   8.164   8.550
 3912POPC   D2A11032  15.969   8.235   8.250
 3912POPC   C3A11033  15.919   8.236   7.950
 3912POPC   C4A11034  15.982   8.187   7.650
 3912POPC   C1B11035  15.906   7.918   8.550
 3912POPC   C2B11036  15.909   7.912   8.250
 3912POPC   C3B11037  15.890   7.990   7.950
 3912POPC   C4B11038  15.900   7.996   7.650
 3913POPC   NC311039  35.386  35.388   9.450
 3913POPC   PO411040  35.329  35.317   9.150
 3913POPC   GL111041  35.316  35.379   8.850
 3913POPC   GL211042  35.289  35.497   8.850
 3913POPC   C1A11043  35.314  35.329   8.550
 3913POPC   D2A11044  35.393  35.347   8.250
 3913POPC   C3A11045  35.394  35.394   7.950
 3913POPC   C4A11046  35.324  35.311   7.650
 3913POPC   C1B11047  35.281  35.588   8.550
 3913POPC   C2B11048  35.267  35.602   8.250
 3913POPC   C3B11049  35.286  35.604   7.950
 3913POPC   C4B11050  35.348  35.569   7.650
 3914POPC   NC311051  40.833  19.107   9.450
 3914POPC   PO411052  40.782  19.057   9.150
 3914POPC   GL111053  40.815  19.022   8.850
 3914POPC   GL211054  40.610  19.092   8.850
 3914POPC   C1A11055  40.815  19.051   8.550
 3914POPC   D2A11056  40.811  19.086   8.250
 3914POPC   C3A11057  40.769  19.018   7.950
 3914POPC   C4A11058  40.811  19.090   7.650
 3914POPC   C1B11059  40.494  19.081   8.550
 3914POPC   C2B11060  40.554  19.039   8.250
 3914POPC   C3B11061  40.569  19.061   7.950
 3914POPC   C4B11062  40.516  19.078   7.650
 3915POPC   NC311063  27.554  38.443   9.450
 3915POPC   PO411064  27.582  38.441   9.150
 3915POPC   GL111065  27.641  38.417   8.850
 3915POPC   GL211066  27.678  38.437   8.850
 3915POPC   C1A11067  27.590  38.490   8.550
 3915POPC   D2A11068  27.555  38.469   8.250
 3915POPC   C3A11069  27.626  38.442   7.950
 3915POPC   C4A11070  27.600  38.484   7.650
 3915POPC   C1B11071  27.817  38.331   8.550
 3915POPC   C2B11072  27.859  38.390   8.250
 3915POPC   C3B11073  27.792  38.331   7.950
 3915POPC   C4B11074  27.834  38.351   7.650
 3916POPC   NC311075  31.496  38.443   9.450
 3916POPC   PO411076  31.467  38.475   9.150
 3916POPC   GL111077  31.469  38.464   8.850
 3916POPC   GL211078  31.458  38.302   8.850
 3916POPC   C1A11079  31.449  38.466   8.550
 3916POPC   D2A11080  31.456  38.446   8.250
 3916POPC   C3A11081  31.460  38.463   7.950
 3916POPC   C4A11082  31.472  38.498   7.650
 3916POPC   C1B11083  31.465  38.239   8.550
 3916POPC   C2B11084  31.414  38.208   8.250
 3916POPC   C3B11085  31.429  38.233   7.950
 3916POPC   C4B11086  31.433  38.252   7.650
 3917POPC   NC311087   9.015  19.087   9.450
 3917POPC   PO411088   8.937  19.099   9.150
 3917POPC   GL111089   8.998  19.018   8.850
 3917POPC   GL211090   8.912  18.981   8.850
 3917POPC   C1A11091   8.963  19.087   8.550
 3917POPC   D2A11092   8.986  19.068   8.250
 3917POPC   C3A11093   8.982  19.011   7.950
 3917POPC   C4A11094   8.964  19.044   7.650
 3917POPC   C1B11095   8.748  18.911   8.550
 3917POPC   C2B11096   8.845  18.889   8.250
 3917POPC   C3B11097   8.836  18.868   7.950
 3917POPC   C4B11098   8.775  18.916   7.650
 3918POPC   NC311099  20.566  12.831   9.450
 3918POPC   PO411100  20.610  12.824   9.150
 3918POPC   GL111101  20.655  12.862   8.850
 3918POPC   GL211102  20.624  12.778   8.850
 3918POPC   C1A11103  20.561  12.875   8.550
 3918POPC   D2A11104  20.621  12.809   8.250
 3918POPC   C3A11105  20.564  12.868   7.950
 3918POPC   C4A11106  20.646  12.814   7.650
 3918POPC   C1B11107  20.614  12.581   8.550
 3918POPC   C2B11108  20.664  12.576   8.250
 3918POPC   C3B11109  20.658  12.615   7.950
 3918POPC   C4B11110  20.640  12.618   7.650
 3919POPC   NC311111   9.019  43.129   9.450
 3919POPC   PO411112   8.943  43.153   9.150
 3919POPC   GL111113   8.949  43.082   8.850
 3919POPC   GL211114   8.985  42.950   8.850
 3919POPC   C1A11115   8.925  43.073   8.550
 3919POPC   D2A11116   8.964  43.107   8.250
 3919POPC   C3A11117   8.978  43.155   7.950
 3919POPC   C4A11118   9.003  43.155   7.650
 3919POPC   C1B11119   8.916  42.856   8.550
 3919POPC   C2B11120   8.900  42.839   8.250
 3919POPC   C3B11121   8.897  42.900   7.950
 3919POPC   C4B11122   8.893  42.826   7.650
 3920POPC   NC311123   1.953  33.012   9.450
 3920POPC   PO411124   1.962  33.060   9.150
 3920POPC   GL111125   1.988  33.067   8.850
 3920POPC   GL211126   2.061  33.068   8.850
 3920POPC   C1A11127   2.026  32.998   8.550
 3920POPC   D2A11128   2.039  32.988   8.250
 3920POPC   C3A11129   2.003  33.033   7.950
 3920POPC   C4A11130   2.032  33.023   7.650
 3920POPC   C1B11131   2.204  33.215   8.550
 3920POPC   C2B11132   2.173  33.192   8.250
 3920POPC   C3B11133   2.224  33.159   7.950
 3920POPC   C4B11134   2.218  33.152   7.650
 3921POPC   NC311135  28.378  38.408   9.450
 3921POPC   PO411136  28.417  38.491   9.150
 3921POPC   GL111137  28.385  38.492   8.850
 3921POPC   GL211138  28.376  38.346   8.850
 3921POPC   C1A11139  28.394  38.494   8.550
 3921POPC   D2A11140  28.330  38.477   8.250
 3921POPC   C3A11141  28.362  38.461   7.950
 3921POPC   C4A11142  28.382  38.443   7.650
 3921POPC   C1B11143  28.467  38.187   8.550
 3921POPC   C2B11144  28.466  38.259   8.250
 3921POPC   C3B11145  28.419  38.179   7.950
 3921POPC   C4B11146  28.417  38.186   7.650
 3922POPC   NC311147  32.237  28.367   9.450
 3922POPC   PO411148  32.285  28.363   9.150
 3922POPC   GL111149  32.205  28.389   8.850
 3922POPC   GL211150  32.132  28.477   8.850
 3922POPC   C1A11151  32.212  28.386   8.550
 3922POPC   D2A11152  32.216  28.342   8.250
 3922POPC   C3A11153  32.242  28.362   7.950
 3922POPC   C4A11154  32.233  28.370   7.650
 3922POPC   C1B11155  32.110  28.570   8.550
 3922POPC   C2B11156  32.126  28.529   8.250
 3922POPC   C3B11157  32.064  28.543   7.950
 3922POPC   C4B11158  32.094  28.595   7.650
 3923POPC   NC311159   2.749  29.946   9.450
 3923POPC   PO411160   2.778  29.970   9.150
 3923POPC   GL111161   2.758  29.889   8.850
 3923POPC   GL211162   2.881  29.806   8.850
 3923POPC   C1A11163   2.742  29.939   8.550
 3923POPC   D2A11164   2.747  29.966   8.250
 3923POPC   C3A11165   2.793  29.949   7.950
 3923POPC   C4A11166   2.757  29.933   7.650
 3923POPC   C1B11167   2.919  29.767   8.550
 3923POPC   C2B11168   2.981  29.756   8.250
 3923POPC   C3B11169   2.978  29.759   7.950
 3923POPC   C4B11170   2.925  29.792   7.650
 3924POPC   NC311171  40.815  15.211   9.450
 3924POPC   PO411172  40.806  15.135   9.150
 3924POPC   GL111173  40.805  15.135   8.850
 3924POPC   GL211174  40.872  15.188   8.850
 3924POPC   C1A11175  40.794  15.173   8.550
 3924POPC   D2A11176  40.808  15.177   8.250
 3924POPC   C3A11177  40.758  15.165   7.950
 3924POPC   C4A11178  40.810  15.201   7.650
 3924POPC   C1B11179  41.046  15.224   8.550
 3924POPC   C2B11180  41.033  15.243   8.250
 3924POPC   C3B11181  41.044  15.257   7.950
 3924POPC   C4B11182  40.994  15.298   7.650
 3925POPC   NC311183  20.653   7.380   9.450
 3925POPC   PO411184  20.569   7.459   9.150
 3925POPC   GL111185  20.638   7.390   8.850
 3925POPC   GL211186  20.549   7.357   8.850
 3925POPC   C1A11187  20.652   7.462   8.550
 3925POPC   D2A11188  20.644   7.400   8.250
 3925POPC   C3A11189  20.596   7.399   7.950
 3925POPC   C4A11190  20.567   7.412   7.650
 3925POPC   C1B11191  20.417   7.266   8.550
 3925POPC   C2B11192  20.405   7.212   8.250
 3925POPC   C3B11193  20.389   7.211   7.950
 3925POPC   C4B11194  20.405   7.243   7.650
 3926POPC   NC311195  39.965  11.288   9.450
 3926POPC   PO411196  40.005  11.342   9.150
 3926POPC   GL111197  40.036  11.274   8.850
 3926POPC   GL211198  40.012  11.148   8.850
 3926POPC   C1A11199  40.030  11.332   8.550
 3926POPC   D2A11200  39.959  11.262   8.250
 3926POPC   C3A11201  40.048  11.274   7.950
 3926POPC   C4A11202  40.004  11.263   7.650
 3926POPC   C1B11203  39.988  11.011   8.550
 3926POPC   C2B11204  40.030  11.009   8.250
 3926POPC   C3B11205  40.072  11.012   7.950
 3926POPC   C4B11206  40.001  11.059   7.650
 3927POPC   NC311207  21.352  10.516   9.450
 3927POPC   PO411208  21.434  10.559   9.150
 3927POPC   GL111209  21.355  10.522   8.850
 3927POPC   GL211210  21.269  10.470   8.850
 3927POPC   C1A11211  21.340  10.509   8.550
 3927POPC   D2A11212  21.400  10.511   8.250
 3927POPC   C3A11213  21.343  10.539   7.950
 3927POPC   C4A11214  21.346  10.570   7.650
 3927POPC   C1B11215  21.192  10.376   8.550
 3927POPC   C2B11216  21.159  10.346   8.250
 3927POPC   C3B11217  21.135  10.412   7.950
 3927POPC   C4B11218  21.210  10.348   7.650
 3928POPC   NC311219   5.107  17.554   9.450
 3928POPC   PO411220   5.075  17.466   9.150
 3928POPC   GL111221   5.052  17.528   8.850
 3928POPC   GL211222   4.964  17.503   8.850
 3928POPC   C1A11223   5.068  17.557   8.550
 3928POPC   D2A11224   5.083  17.493   8.250
 3928POPC   C3A11225   5.051  17.475   7.950
 3928POPC   C4A11226   5.140  17.481   7.650
 3928POPC   C1B11227   4.905  17.382   8.550
 3928POPC   C2B11228   4.898  17.423   8.250
 3928POPC   C3B11229   4.843  17.429   7.950
 3928POPC   C4B11230   4.896  17.407   7.650
 3929POPC   NC311231  43.151   1.209   9.450
 3929POPC   PO411232  43.066   1.259   9.150
 3929POPC   GL111233  43.111   1.222   8.850
 3929POPC   GL211234  43.025   1.266   8.850
 3929POPC   C1A11235  43.157   1.203   8.550
 3929POPC   D2A11236  43.097   1.222   8.250
 3929POPC   C3A11237  43.140   1.254   7.950
 3929POPC   C4A11238  43.141   1.258   7.650
 3929POPC   C1B11239  42.886   1.347   8.550
 3929POPC   C2B11240  42.880   1.346   8.250
 3929POPC   C3B11241  42.939   1.362   7.950
 3929POPC   C4B11242  42.916   1.357   7.650
 3930POPC   NC311243   5.847  24.482   9.450
 3930POPC   PO411244   5.829  24.507   9.150
 3930POPC   GL111245   5.916  24.492   8.850
 3930POPC   GL211246   5.912  24.367   8.850
 3930POPC   C1A11247   5.826  24.463   8.550
 3930POPC   D2A11248   5.875  24.453   8.250
 3930POPC   C3A11249   5.841  24.440   7.950
 3930POPC   C4A11250   5.912  24.513   7.650
 3930POPC   C1B11251   5.883  24.228   8.550
 3930POPC   C2B11252   5.942  24.253   8.250
 3930POPC   C3B11253   5.894  24.280   7.950
 3930POPC   C4B11254   5.945  24.286   7.650
 3931POPC   NC311255   2.772  29.145   9.450
 3931POPC   PO411256   2.742  29.121   9.150
 3931POPC   GL111257   2.802  29.177   8.850
 3931POPC   GL211258   2.898  29.076   8.850
 3931POPC   C1A11259   2.809  29.132   8.550
 3931POPC   D2A11260   2.789  29.149   8.250
 3931POPC   C3A11261   2.762  29.138   7.950
 3931POPC   C4A11262   2.727  29.112   7.650
 3931POPC   C1B11263   3.036  29.022   8.550
 3931POPC   C2B11264   3.050  29.083   8.250
 3931POPC   C3B11265   2.985  29.108   7.950
 3931POPC   C4B11266   2.980  29.015   7.650
 3932POPC   NC311267   5.836  16.729   9.450
 3932POPC   PO411268   5.862  16.705   9.150
 3932POPC   GL111269   5.875  16.780   8.850
 3932POPC   GL211270   5.980  16.609   8.850
 3932POPC   C1A11271   5.858  16.719   8.550
 3932POPC   D2A11272   5.865  16.771   8.250
 3932POPC   C3A11273   5.853  16.703   7.950
 3932POPC   C4A11274   5.875  16.710   7.650
 3932POPC   C1B11275   6.111  16.624   8.550
 3932POPC   C2B11276   6.024  16.550   8.250
 3932POPC   C3B11277   6.024  16.576   7.950
 3932POPC   C4B11278   6.114  16.531   7.650
 3933POPC   NC311279  21.399  34.597   9.450
 3933POPC   PO411280  21.390  34.574   9.150
 3933POPC   GL111281  21.348  34.610   8.850
 3933POPC   GL211282  21.320  34.448   8.850
 3933POPC   C1A11283  21.427  34.608   8.550
 3933POPC   D2A11284  21.389  34.597   8.250
 3933POPC   C3A11285  21.409  34.594   7.950
 3933POPC   C4A11286  21.339  34.577   7.650
 3933POPC   C1B11287  21.341  34.314   8.550
 3933POPC   C2B11288  21.328  34.323   8.250
 3933POPC   C3B11289  21.309  34.365   7.950
 3933POPC   C4B11290  21.296  34.297   7.650
 3934POPC   NC311291   8.978  18.283   9.450
 3934POPC   PO411292   8.993  18.283   9.150
 3934POPC   GL111293   8.961  18.268   8.850
 3934POPC   GL211294   8.855  18.370   8.850
 3934POPC   C1A11295   8.998  18.266   8.550
 3934POPC   D2A11296   9.008  18.278   8.250
 3934POPC   C3A11297   8.934  18.309   7.950
 3934POPC   C4A11298   8.983  18.269   7.650
 3934POPC   C1B11299   8.785  18.382   8.550
 3934POPC   C2B11300   8.702  18.433   8.250
 3934POPC   C3B11301   8.716  18.394   7.950
 3934POPC   C4B11302   8.746  18.435   7.650
 3935POPC   NC311303  13.611   1.226   9.450
 3935POPC   PO411304  13.626   1.257   9.150
 3935POPC   GL111305  13.663   1.248   8.850
 3935POPC   GL211306  13.592   1.335   8.850
 3935POPC   C1A11307  13.609   1.169   8.550
 3935POPC   D2A11308  13.655   1.196   8.250
 3935POPC   C3A11309  13.582   1.190   7.950
 3935POPC   C4A11310  13.588   1.189   7.650
 3935POPC   C1B11311  13.480   1.474   8.550
 3935POPC   C2B11312  13.525   1.426   8.250
 3935POPC   C3B11313  13.514   1.449   7.950
 3935POPC   C4B11314  13.559   1.393   7.650
 3936POPC   NC311315  15.173  35.316   9.450
 3936POPC   PO411316  15.213  35.325   9.150
 3936POPC   GL111317  15.180  35.377   8.850
 3936POPC   GL211318  15.181  35.477   8.850
 3936POPC   C1A11319  15.221  35.385   8.550
 3936POPC   D2A11320  15.182  35.366   8.250
 3936POPC   C3A11321  15.181  35.302   7.950
 3936POPC   C4A11322  15.136  35.364   7.650
 3936POPC   C1B11323  15.130  35.595   8.550
 3936POPC   C2B11324  15.199  35.605   8.250
 3936POPC   C3B11325  15.215  35.617   7.950
 3936POPC   C4B11326  15.198  35.602   7.650
 3937POPC   NC311327   8.963  38.410   9.450
 3937POPC   PO411328   8.976  38.429   9.150
 3937POPC   GL111329   8.961  38.490   8.850
 3937POPC   GL211330   9.085  38.567   8.850
 3937POPC   C1A11331   8.957  38.458   8.550
 3937POPC   D2A11332   8.961  38.481   8.250
 3937POPC   C3A11333   8.955  38.419   7.950
 3937POPC   C4A11334   8.967  38.415   7.650
 3937POPC   C1B11335   9.220  38.628   8.550
 3937POPC   C2B11336   9.139  38.540   8.250
 3937POPC   C3B11337   9.162  38.597   7.950
 3937POPC   C4B11338   9.222  38.578   7.650
 3938POPC   NC311339  39.230  23.735   9.450
 3938POPC   PO411340  39.206  23.703   9.150
 3938POPC   GL111341  39.186  23.714   8.850
 3938POPC   GL211342  39.232  23.549   8.850
 3938POPC   C1A11343  39.274  23.720   8.550
 3938POPC   D2A11344  39.223  23.751   8.250
 3938POPC   C3A11345  39.229  23.697   7.950
 3938POPC   C4A11346  39.279  23.686   7.650
 3938POPC   C1B11347  39.226  23.431   8.550
 3938POPC   C2B11348  39.226  23.492   8.250
 3938POPC   C3B11349  39.191  23.432   7.950
 3938POPC   C4B11350  39.159  23.447   7.650
 3939POPC   NC311351   0.461  36.147   9.450
 3939POPC   PO411352   0.432  36.084   9.150
 3939POPC   GL111353   0.425  36.100   8.850
 3939POPC   GL211354   0.329  36.047   8.850
 3939POPC   C1A11355   0.452  36.171   8.550
 3939POPC   D2A11356   0.466  36.154   8.250
 3939POPC   C3A11357   0.481  36.170   7.950
 3939POPC   C4A11358   0.462  36.158   7.650
 3939POPC   C1B11359   0.323  35.921   8.550
 3939POPC   C2B11360   0.333  35.910   8.250
 3939POPC   C3B11361   0.312  35.918   7.950
 3939POPC   C4B11362   0.295  35.941   7.650
 3940POPC   NC311363  42.359  37.722   9.450
 3940POPC   PO411364  42.359  37.639   9.150
 3940POPC   GL111365  42.315  37.655   8.850
 3940POPC   GL211366  42.240  37.545   8.850
 3940POPC   C1A11367  42.338  37.691   8.550
 3940POPC   D2A11368  42.363  37.658   8.250
 3940POPC   C3A11369  42.316  37.703   7.950
 3940POPC   C4A11370  42.372  37.645   7.650
 3940POPC   C1B11371  42.200  37.417   8.550
 3940POPC   C2B11372  42.217  37.494   8.250
 3940POPC   C3B11373  42.196  37.468   7.950
 3940POPC   C4B11374  42.200  37.410   7.650
 3941POPC   NC311375  22.140  40.791   9.450
 3941POPC   PO411376  22.115  40.810   9.150
 3941POPC   GL111377  22.191  40.801   8.850
 3941POPC   GL211378  22.105  40.951   8.850
 3941POPC   C1A11379  22.199  40.772   8.550
 3941POPC   D2A11380  22.203  40.808   8.250
 3941POPC   C3A11381  22.174  40.745   7.950
 3941POPC   C4A11382  22.137  40.772   7.650
 3941POPC   C1B11383  22.160  41.021   8.550
 3941POPC   C2B11384  22.089  41.031   8.250
 3941POPC   C3B11385  22.156  41.072   7.950
 3941POPC   C4B11386  22.164  41.059   7.650
 3942POPC   NC311387  34.574  32.286   9.450
 3942POPC   PO411388  34.545  32.271   9.150
 3942POPC   GL111389  34.610  32.290   8.850
 3942POPC   GL211390  34.480  32.201   8.850
 3942POPC   C1A11391  34.626  32.219   8.550
 3942POPC   D2A11392  34.536  32.213   8.250
 3942POPC   C3A11393  34.539  32.290   7.950
 3942POPC   C4A11394  34.615  32.228   7.650
 3942POPC   C1B11395  34.320  32.100   8.550
 3942POPC   C2B11396  34.359  32.168   8.250
 3942POPC   C3B11397  34.350  32.174   7.950
 3942POPC   C4B11398  34.355  32.106   7.650
 3943POPC   NC311399  34.601  10.569   9.450
 3943POPC   PO411400  34.552  10.536   9.150
 3943POPC   GL111401  34.610  10.566   8.850
 3943POPC   GL211402  34.610  10.629   8.850
 3943POPC   C1A11403  34.585  10.498   8.550
 3943POPC   D2A11404  34.568  10.514   8.250
 3943POPC   C3A11405  34.553  10.482   7.950
 3943POPC   C4A11406  34.573  10.561   7.650
 3943POPC   C1B11407  34.747  10.716   8.550
 3943POPC   C2B11408  34.726  10.711   8.250
 3943POPC   C3B11409  34.766  10.691   7.950
 3943POPC   C4B11410  34.701  10.734   7.650
 3944POPC   NC311411  23.721  22.980   9.450
 3944POPC   PO411412  23.756  22.980   9.150
 3944POPC   GL111413  23.696  22.906   8.850
 3944POPC   GL211414  23.622  22.842   8.850
 3944POPC   C1A11415  23.750  22.927   8.550
 3944POPC   D2A11416  23.680  22.934   8.250
 3944POPC   C3A11417  23.751  22.895   7.950
 3944POPC   C4A11418  23.685  22.949   7.650
 3944POPC   C1B11419  23.555  22.743   8.550
 3944POPC   C2B11420  23.528  22.748   8.250
 3944POPC   C3B11421  23.576  22.787   7.950
 3944POPC   C4B11422  23.548  22.750   7.650
 3945POPC   NC311423  15.214  19.072   9.450
 3945POPC   PO411424  15.191  19.062   9.150
 3945POPC   GL111425  15.144  19.096   8.850
 3945POPC   GL211426  15.343  19.087   8.850
 3945POPC   C1A11427  15.141  19.094   8.550
 3945POPC   D2A11428  15.194  19.040   8.250
 3945POPC   C3A11429  15.228  19.064   7.950
 3945POPC   C4A11430  15.171  19.029   7.650
 3945POPC   C1B11431  15.408  19.082   8.550
 3945POPC   C2B11432  15.391  19.084   8.250
 3945POPC   C3B11433  15.462  19.063   7.950
 3945POPC   C4B11434  15.401  19.042   7.650
 3946POPC   NC311435   9.727  39.185   9.450
 3946POPC   PO411436   9.788  39.229   9.150
 3946POPC   GL111437   9.711  39.271   8.850
 3946POPC   GL211438   9.859  39.231   8.850
 3946POPC   C1A11439   9.704  39.235   8.550
 3946POPC   D2A11440   9.722  39.227   8.250
 3946POPC   C3A11441   9.717  39.229   7.950
 3946POPC   C4A11442   9.744  39.266   7.650
 3946POPC   C1B11443   9.940  39.266   8.550
 3946POPC   C2B11444   9.982  39.347   8.250
 3946POPC   C3B11445  10.019  39.284   7.950
 3946POPC   C4B11446   9.940  39.356   7.650
 3947POPC   NC311447   2.721  15.141   9.450
 3947POPC   PO411448   2.725  15.161   9.150
 3947POPC   GL111449   2.737  15.167   8.850
 3947POPC   GL211450   2.920  15.158   8.850
 3947POPC   C1A11451   2.728  15.151   8.550
 3947POPC   D2A11452   2.717  15.181   8.250
 3947POPC   C3A11453   2.803  15.217   7.950
 3947POPC   C4A11454   2.774  15.159   7.650
 3947POPC   C1B11455   2.988  15.061   8.550
 3947POPC   C2B11456   2.955  15.072   8.250
 3947POPC   C3B11457   2.970  15.103   7.950
 3947POPC   C4B11458   2.989  15.054   7.650
 3948POPC   NC311459   9.008   0.453   9.450
 3948POPC   PO411460   8.999   0.430   9.150
 3948POPC   GL111461   8.996   0.469   8.850
 3948POPC   GL211462   8.899   0.536   8.850
 3948POPC   C1A11463   8.959   0.422   8.550
 3948POPC   D2A11464   9.004   0.440   8.250
 3948POPC   C3A11465   9.001   0.460   7.950
 3948POPC   C4A11466   8.954   0.476   7.650
 3948POPC   C1B11467   8.771   0.597   8.550
 3948POPC   C2B11468   8.808   0.578   8.250
 3948POPC   C3B11469   8.835   0.644   7.950
 3948POPC   C4B11470   8.813   0.562   7.650
 3949POPC   NC311471   7.438  44.708   9.450
 3949POPC   PO411472   7.451  44.676   9.150
 3949POPC   GL111473   7.406  44.700   8.850
 3949POPC   GL211474   7.287  44.538   8.850
 3949POPC   C1A11475   7.398  44.625   8.550
 3949POPC   D2A11476   7.410  44.650   8.250
 3949POPC   C3A11477   7.404  44.664   7.950
 3949POPC   C4A11478   7.470  44.710   7.650
 3949POPC   C1B11479   7.248  44.502   8.550
 3949POPC   C2B11480   7.191  44.445   8.250
 3949POPC   C3B11481   7.226  44.457   7.950
 3949POPC   C4B11482   7.213  44.465   7.650
 3950POPC   NC311483   5.868  43.923   9.450
 3950POPC   PO411484   5.865  43.923   9.150
 3950POPC   GL111485   5.873  43.855   8.850
 3950POPC   GL211486   6.016  43.916   8.850
 3950POPC   C1A11487   5.865  43.858   8.550
 3950POPC   D2A11488   5.883  43.866   8.250
 3950POPC   C3A11489   5.865  43.934   7.950
 3950POPC   C4A11490   5.864  43.929   7.650
 3950POPC   C1B11491   6.150  43.849   8.550
 3950POPC   C2B11492   6.134  43.834   8.250
 3950POPC   C3B11493   6.133  43.884   7.950
 3950POPC   C4B11494   6.144  43.836   7.650
 3951POPC   NC311495   6.614   1.179   9.450
 3951POPC   PO411496   6.649   1.224   9.150
 3951POPC   GL111497   6.676   1.183   8.850
 3951POPC   GL211498   6.750   1.188   8.850
 3951POPC   C1A11499   6.608   1.223   8.550
 3951POPC   D2A11500   6.609   1.189   8.250
 3951POPC   C3A11501   6.647   1.202   7.950
 3951POPC   C4A11502   6.678   1.164   7.650
 3951POPC   C1B11503   6.933   1.171   8.550
 3951POPC   C2B11504   6.853   1.152   8.250
 3951POPC   C3B11505   6.914   1.110   7.950
 3951POPC   C4B11506   6.849   1.157   7.650
 3952POPC   NC311507  21.337  30.680   9.450
 3952POPC   PO411508  21.413  30.657   9.150
 3952POPC   GL111509  21.340  30.667   8.850
 3952POPC   GL211510  21.266  30.650   8.850
 3952POPC   C1A11511  21.380  30.741   8.550
 3952POPC   D2A11512  21.337  30.680   8.250
 3952POPC   C3A11513  21.415  30.712   7.950
 3952POPC   C4A11514  21.365  30.716   7.650
 3952POPC   C1B11515  21.181  30.577   8.550
 3952POPC   C2B11516  21.202  30.539   8.250
 3952POPC   C3B11517  21.172  30.545   7.950
 3952POPC   C4B11518  21.200  30.600   7.650
 3953POPC   NC311519  10.483  37.648   9.450
 3953POPC   PO411520  10.475  37.659   9.150
 3953POPC   GL111521  10.493  37.649   8.850
 3953POPC   GL211522  10.486  37.799   8.850
 3953POPC   C1A11523  10.475  37.694   8.550
 3953POPC   D2A11524  10.477  37.691   8.250
 3953POPC   C3A11525  10.539  37.670   7.950
 3953POPC   C4A11526  10.539  37.671   7.650
 3953POPC   C1B11527  10.545  37.916   8.550
 3953POPC   C2B11528  10.495  37.899   8.250
 3953POPC   C3B11529  10.493  37.897   7.950
 3953POPC   C4B11530  10.485  37.937   7.650
 3954POPC   NC311531  22.984   4.321   9.450
 3954POPC   PO411532  22.946   4.306   9.150
 3954POPC   GL111533  22.914   4.303   8.850
 3954POPC   GL211534  22.979   4.234   8.850
 3954POPC   C1A11535  22.956   4.353   8.550
 3954POPC   D2A11536  22.963   4.304   8.250
 3954POPC   C3A11537  22.897   4.321   7.950
 3954POPC   C4A11538  22.945   4.268   7.650
 3954POPC   C1B11539  22.915   4.100   8.550
 3954POPC   C2B11540  22.934   4.067   8.250
 3954POPC   C3B11541  22.894   4.032   7.950
 3954POPC   C4B11542  22.919   4.087   7.650
 3955POPC   NC311543  10.532  22.977   9.450
 3955POPC   PO411544  10.531  22.961   9.150
 3955POPC   GL111545  10.497  22.913   8.850
 3955POPC   GL211546  10.454  22.943   8.850
 3955POPC   C1A11547  10.569  22.962   8.550
 3955POPC   D2A11548  10.554  22.939   8.250
 3955POPC   C3A11549  10.549  22.904   7.950
 3955POPC   C4A11550  10.503  22.988   7.650
 3955POPC   C1B11551  10.245  23.043   8.550
 3955POPC   C2B11552  10.278  23.044   8.250
 3955POPC   C3B11553  10.284  22.995   7.950
 3955POPC   C4B11554  10.289  23.001   7.650
 3956POPC   NC311555  19.854  20.585   9.450
 3956POPC   PO411556  19.797  20.595   9.150
 3956POPC   GL111557  19.808  20.586   8.850
 3956POPC   GL211558  19.815  20.685   8.850
 3956POPC   C1A11559  19.865  20.657   8.550
 3956POPC   D2A11560  19.842  20.624   8.250
 3956POPC   C3A11561  19.875  20.573   7.950
 3956POPC   C4A11562  19.853  20.609   7.650
 3956POPC   C1B11563  19.789  20.860   8.550
 3956POPC   C2B11564  19.838  20.836   8.250
 3956POPC   C3B11565  19.771  20.821   7.950
 3956POPC   C4B11566  19.794  20.873   7.650
 3957POPC   NC311567  22.923  27.610   9.450
 3957POPC   PO411568  22.890  27.590   9.150
 3957POPC   GL111569  22.893  27.553   8.850
 3957POPC   GL211570  23.027  27.466   8.850
 3957POPC   C1A11571  22.916  27.547   8.550
 3957POPC   D2A11572  22.914  27.574   8.250
 3957POPC   C3A11573  22.893  27.611   7.950
 3957POPC   C4A11574  22.973  27.638   7.650
 3957POPC   C1B11575  23.114  27.410   8.550
 3957POPC   C2B11576  23.086  27.390   8.250
 3957POPC   C3B11577  23.050  27.383   7.950
 3957POPC   C4B11578  23.081  27.379   7.650
 3958POPC   NC311579  27.641  25.993   9.450
 3958POPC   PO411580  27.571  26.038   9.150
 3958POPC   GL111581  27.577  25.997   8.850
 3958POPC   GL211582  27.518  26.111   8.850
 3958POPC   C1A11583  27.633  26.069   8.550
 3958POPC   D2A11584  27.597  26.085   8.250
 3958POPC   C3A11585  27.629  26.019   7.950
 3958POPC   C4A11586  27.610  25.997   7.650
 3958POPC   C1B11587  27.520  26.267   8.550
 3958POPC   C2B11588  27.541  26.242   8.250
 3958POPC   C3B11589  27.457  26.271   7.950
 3958POPC   C4B11590  27.499  26.244   7.650
 3959POPC   NC311591  36.939  43.079   9.450
 3959POPC   PO411592  36.948  43.068   9.150
 3959POPC   GL111593  36.902  43.108   8.850
 3959POPC   GL211594  36.800  43.074   8.850
 3959POPC   C1A11595  36.854  43.124   8.550
 3959POPC   D2A11596  36.911  43.148   8.250
 3959POPC   C3A11597  36.912  43.111   7.950
 3959POPC   C4A11598  36.940  43.066   7.650
 3959POPC   C1B11599  36.692  42.944   8.550
 3959POPC   C2B11600  36.680  42.966   8.250
 3959POPC   C3B11601  36.673  42.945   7.950
 3959POPC   C4B11602  36.735  42.954   7.650
 3960POPC   NC311603  13.664  20.566   9.450
 3960POPC   PO411604  13.620  20.642   9.150
 3960POPC   GL111605  13.671  20.583   8.850
 3960POPC   GL211606  13.632  20.446   8.850
 3960POPC   C1A11607  13.603  20.563   8.550
 3960POPC   D2A11608  13.636  20.631   8.250
 3960POPC   C3A11609  13.586  20.562   7.950
 3960POPC   C4A11610  13.627  20.605   7.650
 3960POPC   C1B11611  13.667  20.342   8.550
 3960POPC   C2B11612  13.678  20.379   8.250
 3960POPC   C3B11613  13.605  20.338   7.950
 3960POPC   C4B11614  13.583  20.362   7.650
 3961POPC   NC311615  10.554   1.189   9.450
 3961POPC   PO411616  10.552   1.179   9.150
 3961POPC   GL111617  10.533   1.188   8.850
 3961POPC   GL211618  10.553   1.324   8.850
 3961POPC   C1A11619  10.551   1.215   8.550
 3961POPC   D2A11620  10.541   1.196   8.250
 3961POPC   C3A11621  10.475   1.259   7.950
 3961POPC   C4A11622  10.479   1.176   7.650
 3961POPC   C1B11623  10.654   1.430   8.550
 3961POPC   C2B11624  10.638   1.380   8.250
 3961POPC   C3B11625  10.687   1.399   7.950
 3961POPC   C4B11626  10.657   1.462   7.650
 3962POPC   NC311627   5.054  19.809   9.450
 3962POPC   PO411628   5.048  19.860   9.150
 3962POPC   GL111629   5.061  19.835   8.850
 3962POPC   GL211630   5.142  19.728   8.850
 3962POPC   C1A11631   5.064  19.786   8.550
 3962POPC   D2A11632   5.120  19.795   8.250
 3962POPC   C3A11633   5.064  19.793   7.950
 3962POPC   C4A11634   5.110  19.836   7.650
 3962POPC   C1B11635   5.142  19.637   8.550
 3962POPC   C2B11636   5.185  19.608   8.250
 3962POPC   C3B11637   5.150  19.569   7.950
 3962POPC   C4B11638   5.180  19.620   7.650
 3963POPC   NC311639  33.019  16.693   9.450
 3963POPC   PO411640  33.062  16.692   9.150
 3963POPC   GL111641  33.040  16.711   8.850
 3963POPC   GL211642  33.169  16.713   8.850
 3963POPC   C1A11643  33.070  16.746   8.550
 3963POPC   D2A11644  32.984  16.729   8.250
 3963POPC   C3A11645  33.026  16.753   7.950
 3963POPC   C4A11646  32.987  16.768   7.650
 3963POPC   C1B11647  33.288  16.717   8.550
 3963POPC   C2B11648  33.320  16.752   8.250
 3963POPC   C3B11649  33.292  16.762   7.950
 3963POPC   C4B11650  33.314  16.705   7.650
 3964POPC   NC311651  43.090  33.008   9.450
 3964POPC   PO411652  43.145  32.983   9.150
 3964POPC   GL111653  43.141  33.048   8.850
 3964POPC   GL211654  43.244  33.118   8.850
 3964POPC   C1A11655  43.142  33.054   8.550
 3964POPC   D2A11656  43.065  33.033   8.250
 3964POPC   C3A11657  43.087  33.072   7.950
 3964POPC   C4A11658  43.133  32.977   7.650
 3964POPC   C1B11659  43.370  33.138   8.550
 3964POPC   C2B11660  43.347  33.169   8.250
 3964POPC   C3B11661  43.353  33.153   7.950
 3964POPC   C4B11662  43.346  33.142   7.650
 3965POPC   NC311663  15.986   9.793   9.450
 3965POPC   PO411664  15.952   9.726   9.150
 3965POPC   GL111665  15.945   9.770   8.850
 3965POPC   GL211666  16.074   9.698   8.850
 3965POPC   C1A11667  15.920   9.786   8.550
 3965POPC   D2A11668  15.959   9.796   8.250
 3965POPC   C3A11669  15.984   9.718   7.950
 3965POPC   C4A11670  15.993   9.766   7.650
 3965POPC   C1B11671  16.211   9.663   8.550
 3965POPC   C2B11672  16.203   9.665   8.250
 3965POPC   C3B11673  16.228   9.609   7.950
 3965POPC   C4B11674  16.185   9.648   7.650
 3966POPC   NC311675   5.899  32.295   9.450
 3966POPC   PO411676   5.843  32.270   9.150
 3966POPC   GL111677   5.864  32.221   8.850
 3966POPC   GL211678   5.870  32.376   8.850
 3966POPC   C1A11679   5.844  32.224   8.550
 3966POPC   D2A11680   5.917  32.285   8.250
 3966POPC   C3A11681   5.897  32.244   7.950
 3966POPC   C4A11682   5.903  32.249   7.650
 3966POPC   C1B11683   5.820  32.477   8.550
 3966POPC   C2B11684   5.775  32.475   8.250
 3966POPC   C3B11685   5.789  32.520   7.950
 3966POPC   C4B11686   5.798  32.489   7.650
 3967POPC   NC311687  13.656  16.735   9.450
 3967POPC   PO411688  13.596  16.772   9.150
 3967POPC   GL111689  13.604  16.774   8.850
 3967POPC   GL211690  13.695  16.627   8.850
 3967POPC   C1A11691  13.666  16.698   8.550
 3967POPC   D2A11692  13.605  16.770   8.250
 3967POPC   C3A11693  13.624  16.747   7.950
 3967POPC   C4A11694  13.659  16.689   7.650
 3967POPC   C1B11695  13.723  16.537   8.550
 3967POPC   C2B11696  13.788  16.550   8.250
 3967POPC   C3B11697  13.745  16.475   7.950
 3967POPC   C4B11698  13.700  16.552   7.650
 3968POPC   NC311699  41.531  25.307   9.450
 3968POPC   PO411700  41.520  25.289   9.150
 3968POPC   GL111701  41.516  25.220   8.850
 3968POPC   GL211702  41.704  25.239   8.850
 3968POPC   C1A11703  41.583  25.259   8.550
 3968POPC   D2A11704  41.561  25.235   8.250
 3968POPC   C3A11705  41.575  25.297   7.950
 3968POPC   C4A11706  41.565  25.312   7.650
 3968POPC   C1B11707  41.769  25.091   8.550
 3968POPC   C2B11708  41.758  25.145   8.250
 3968POPC   C3B11709  41.718  25.141   7.950
 3968POPC   C4B11710  41.729  25.087   7.650
 3969POPC   NC311711  36.943  37.704   9.450
 3969POPC   PO411712  36.884  37.718   9.150
 3969POPC   GL111713  36.876  37.688   8.850
 3969POPC   GL211714  36.812  37.781   8.850
 3969POPC   C1A11715  36.863  37.710   8.550
 3969POPC   D2A11716  36.896  37.706   8.250
 3969POPC   C3A11717  36.915  37.690   7.950
 3969POPC   C4A11718  36.907  37.682   7.650
 3969POPC   C1B11719  36.811  37.848   8.550
 3969POPC   C2B11720  36.747  37.937   8.250
 3969POPC   C3B11721  36.779  37.932   7.950
 3969POPC   C4B11722  36.793  37.849   7.650
 3970POPC   NC311723  12.861  27.563   9.450
 3970POPC   PO411724  12.831  27.578   9.150
 3970POPC   GL111725  12.876  27.585   8.850
 3970POPC   GL211726  12.993  27.592   8.850
 3970POPC   C1A11727  12.824  27.639   8.550
 3970POPC   D2A11728  12.805  27.564   8.250
 3970POPC   C3A11729  12.882  27.572   7.950
 3970POPC   C4A11730  12.842  27.578   7.650
 3970POPC   C1B11731  13.113  27.566   8.550
 3970POPC   C2B11732  13.095  27.569   8.250
 3970POPC   C3B11733  13.115  27.546   7.950
 3970POPC   C4B11734  13.077  27.551   7.650
 3971POPC   NC311735  28.374  30.740   9.450
 3971POPC   PO411736  28.405  30.694   9.150
 3971POPC   GL111737  28.325  30.728   8.850
 3971POPC   GL211738  28.251  30.777   8.850
 3971POPC   C1A11739  28.373  30.732   8.550
 3971POPC   D2A11740  28.335  30.732   8.250
 3971POPC   C3A11741  28.387  30.730   7.950
 3971POPC   C4A11742  28.393  30.701   7.650
 3971POPC   C1B11743  28.179  30.887   8.550
 3971POPC   C2B11744  28.245  30.848   8.250
 3971POPC   C3B11745  28.234  30.861   7.950
 3971POPC   C4B11746  28.248  30.846   7.650
 3972POPC   NC311747  28.402  12.089   9.450
 3972POPC   PO411748  28.371  12.104   9.150
 3972POPC   GL111749  28.341  12.066   8.850
 3972POPC   GL211750  28.365  11.944   8.850
 3972POPC   C1A11751  28.342  12.065   8.550
 3972POPC   D2A11752  28.367  12.112   8.250
 3972POPC   C3A11753  28.322  12.120   7.950
 3972POPC   C4A11754  28.385  12.077   7.650
 3972POPC   C1B11755  28.413  11.802   8.550
 3972POPC   C2B11756  28.411  11.847   8.250
 3972POPC   C3B11757  28.471  11.883   7.950
 3972POPC   C4B11758  28.444  11.872   7.650
 3973POPC   NC311759  35.349  12.036   9.450
 3973POPC   PO411760  35.309  12.033   9.150
 3973POPC   GL111761  35.310  12.071   8.850
 3973POPC   GL211762  35.388  12.209   8.850
 3973POPC   C1A11763  35.366  12.069   8.550
 3973POPC   D2A11764  35.310  12.035   8.250
 3973POPC   C3A11765  35.314  12.096   7.950
 3973POPC   C4A11766  35.321  12.042   7.650
 3973POPC   C1B11767  35.486  12.334   8.550
 3973POPC   C2B11768  35.414  12.259   8.250
 3973POPC   C3B11769  35.426  12.254   7.950
 3973POPC   C4B11770  35.469  12.269   7.650
 3974POPC   NC311771  22.957  34.557   9.450
 3974POPC   PO411772  22.947  34.586   9.150
 3974POPC   GL111773  22.947  34.603   8.850
 3974POPC   GL211774  23.032  34.682   8.850
 3974POPC   C1A11775  22.952  34.562   8.550
 3974POPC   D2A11776  22.941  34.564   8.250
 3974POPC   C3A11777  22.956  34.617   7.950
 3974POPC   C4A11778  22.939  34.547   7.650
 3974POPC   C1B11779  22.984  34.811   8.550
 3974POPC   C2B11780  23.026  34.840   8.250
 3974POPC   C3B11781  23.012  34.823   7.950
 3974POPC   C4B11782  22.979  34.778   7.650
 3975POPC   NC311783   5.105  22.951   9.450
 3975POPC   PO411784   5.063  22.973   9.150
 3975POPC   GL111785   5.044  22.970   8.850
 3975POPC   GL211786   5.017  22.856   8.850
 3975POPC   C1A11787   5.064  22.954   8.550
 3975POPC   D2A11788   5.132  22.938   8.250
 3975POPC   C3A11789   5.071  22.897   7.950
 3975POPC   C4A11790   5.063  22.954   7.650
 3975POPC   C1B11791   4.989  22.702   8.550
 3975POPC   C2B11792   4.930  22.732   8.250
 3975POPC   C3B11793   4.984  22.678   7.950
 3975POPC   C4B11794   4.953  22.687   7.650
 3976POPC   NC311795   8.173  14.355   9.450
 3976POPC   PO411796   8.183  14.382   9.150
 3976POPC   GL111797   8.159  14.439   8.850
 3976POPC   GL211798   8.161  14.271   8.850
 3976POPC   C1A11799   8.159  14.444   8.550
 3976POPC   D2A11800   8.150  14.444   8.250
 3976POPC   C3A11801   8.215  14.366   7.950
 3976POPC   C4A11802   8.246  14.407   7.650
 3976POPC   C1B11803   8.076  14.194   8.550
 3976POPC   C2B11804   7.992  14.172   8.250
 3976POPC   C3B11805   8.008  14.201   7.950
 3976POPC   C4B11806   8.034  14.249   7.650
 3977POPC   NC311807  37.669   7.432   9.450
 3977POPC   PO411808  37.713   7.398   9.150
 3977POPC   GL111809  37.683   7.381   8.850
 3977POPC   GL211810  37.559   7.326   8.850
 3977POPC   C1A11811  37.706   7.378   8.550
 3977POPC   D2A11812  37.676   7.399   8.250
 3977POPC   C3A11813  37.639   7.465   7.950
 3977POPC   C4A11814  37.682   7.460   7.650
 3977POPC   C1B11815  37.460   7.315   8.550
 3977POPC   C2B11816  37.478   7.252   8.250
 3977POPC   C3B11817  37.429   7.328   7.950
 3977POPC   C4B11818  37.465   7.248   7.650
 3978POPC   NC311819   5.913  17.497   9.450
 3978POPC   PO411820   5.906  17.529   9.150
 3978POPC   GL111821   5.824  17.556   8.850
 3978POPC   GL211822   5.944  17.546   8.850
 3978POPC   C1A11823   5.849  17.538   8.550
 3978POPC   D2A11824   5.889  17.549   8.250
 3978POPC   C3A11825   5.899  17.527   7.950
 3978POPC   C4A11826   5.901  17.504   7.650
 3978POPC   C1B11827   6.059  17.615   8.550
 3978POPC   C2B11828   6.101  17.553   8.250
 3978POPC   C3B11829   6.099  17.571   7.950
 3978POPC   C4B11830   6.110  17.550   7.650
 3979POPC   NC311831  26.852   9.720   9.450
 3979POPC   PO411832  26.857   9.761   9.150
 3979POPC   GL111833  26.803   9.751   8.850
 3979POPC   GL211834  26.763   9.669   8.850
 3979POPC   C1A11835  26.838   9.718   8.550
 3979POPC   D2A11836  26.851   9.787   8.250
 3979POPC   C3A11837  26.817   9.736   7.950
 3979POPC   C4A11838  26.768   9.774   7.650
 3979POPC   C1B11839  26.691   9.559   8.550
 3979POPC   C2B11840  26.723   9.504   8.250
 3979POPC   C3B11841  26.698   9.555   7.950
 3979POPC   C4B11842  26.678   9.529   7.650
 3980POPC   NC311843  39.194   9.703   9.450
 3980POPC   PO411844  39.204   9.759   9.150
 3980POPC   GL111845  39.190   9.782   8.850
 3980POPC   GL211846  39.265   9.876   8.850
 3980POPC   C1A11847  39.253   9.718   8.550
 3980POPC   D2A11848  39.246   9.771   8.250
 3980POPC   C3A11849  39.206   9.744   7.950
 3980POPC   C4A11850  39.217   9.714   7.650
 3980POPC   C1B11851  39.304  10.002   8.550
 3980POPC   C2B11852  39.333  10.012   8.250
 3980POPC   C3B11853  39.282   9.944   7.950
 3980POPC   C4B11854  39.255  10.002   7.650
 3981POPC   NC311855  43.119   4.317   9.450
 3981POPC   PO411856  43.158   4.364   9.150
 3981POPC   GL111857  43.140   4.304   8.850
 3981POPC   GL211858  43.045   4.256   8.850
 3981POPC   C1A11859  43.125   4.283   8.550
 3981POPC   D2A11860  43.103   4.330   8.250
 3981POPC   C3A11861  43.081   4.285   7.950
 3981POPC   C4A11862  43.085   4.329   7.650
 3981POPC   C1B11863  42.921   4.118   8.550
 3981POPC   C2B11864  42.987   4.086   8.250
 3981POPC   C3B11865  42.972   4.116   7.950
 3981POPC   C4B11866  42.978   4.136   7.650
 3982POPC   NC311867  39.970  44.657   9.450
 3982POPC   PO411868  39.988  44.690   9.150
 3982POPC   GL111869  39.970  44.711   8.850
 3982POPC   GL211870  39.923  44.639   8.850
 3982POPC   C1A11871  40.006  44.660   8.550
 3982POPC   D2A11872  39.959  44.657   8.250
 3982POPC   C3A11873  39.993  44.650   7.950
 3982POPC   C4A11874  40.010  44.651   7.650
 3982POPC   C1B11875  39.730  44.706   8.550
 3982POPC   C2B11876  39.759  44.732   8.250
 3982POPC   C3B11877  39.726  44.732   7.950
 3982POPC   C4B11878  39.779  44.750   7.650
 3983POPC   NC311879  27.549  17.480   9.450
 3983POPC   PO411880  27.583  17.469   9.150
 3983POPC   GL111881  27.605  17.498   8.850
 3983POPC   GL211882  27.478  17.538   8.850
 3983POPC   C1A11883  27.587  17.499   8.550
 3983POPC   D2A11884  27.620  17.552   8.250
 3983POPC   C3A11885  27.551  17.530   7.950
 3983POPC   C4A11886  27.612  17.460   7.650
 3983POPC   C1B11887  27.389  17.661   8.550
 3983POPC   C2B11888  27.359  17.637   8.250
 3983POPC   C3B11889  27.375  17.602   7.950
 3983POPC   C4B11890  27.353  17.625   7.650
 3984POPC   NC311891  13.646   0.438   9.450
 3984POPC   PO411892  13.579   0.423   9.150
 3984POPC   GL111893  13.607   0.440   8.850
 3984POPC   GL211894  13.703   0.349   8.850
 3984POPC   C1A11895  13.623   0.392   8.550
 3984POPC   D2A11896  13.670   0.438   8.250
 3984POPC   C3A11897  13.630   0.422   7.950
 3984POPC   C4A11898  13.622   0.393   7.650
 3984POPC   C1B11899  13.688   0.227   8.550
 3984POPC   C2B11900  13.652   0.157   8.250
 3984POPC   C3B11901  13.646   0.183   7.950
 3984POPC   C4B11902  13.702   0.150   7.650
 3985POPC   NC311903  37.698  18.241   9.450
 3985POPC   PO411904  37.630  18.285   9.150
 3985POPC   GL111905  37.681  18.315   8.850
 3985POPC   GL211906  37.779  18.130   8.850
 3985POPC   C1A11907  37.715  18.320   8.550
 3985POPC   D2A11908  37.654  18.330   8.250
 3985POPC   C3A11909  37.635  18.306   7.950
 3985POPC   C4A11910  37.681  18.257   7.650
 3985POPC   C1B11911  37.840  18.054   8.550
 3985POPC   C2B11912  37.752  18.045   8.250
 3985POPC   C3B11913  37.768  18.077   7.950
 3985POPC   C4B11914  37.772  18.045   7.650
 3986POPC   NC311915  29.120  19.102   9.450
 3986POPC   PO411916  29.104  19.107   9.150
 3986POPC   GL111917  29.138  19.010   8.850
 3986POPC   GL211918  29.080  19.201   8.850
 3986POPC   C1A11919  29.167  19.051   8.550
 3986POPC   D2A11920  29.098  19.023   8.250
 3986POPC   C3A11921  29.178  19.022   7.950
 3986POPC   C4A11922  29.165  19.097   7.650
 3986POPC   C1B11923  29.048  19.322   8.550
 3986POPC   C2B11924  29.019  19.320   8.250
 3986POPC   C3B11925  29.045  19.278   7.950
 3986POPC   C4B11926  29.031  19.255   7.650
 3987POPC   NC311927   4.305  40.747   9.450
 3987POPC   PO411928   4.318  40.774   9.150
 3987POPC   GL111929   4.299  40.736   8.850
 3987POPC   GL211930   4.420  40.763   8.850
 3987POPC   C1A11931   4.342  40.763   8.550
 3987POPC   D2A11932   4.313  40.814   8.250
 3987POPC   C3A11933   4.281  40.811   7.950
 3987POPC   C4A11934   4.343  40.775   7.650
 3987POPC   C1B11935   4.523  40.665   8.550
 3987POPC   C2B11936   4.553  40.627   8.250
 3987POPC   C3B11937   4.502  40.655   7.950
 3987POPC   C4B11938   4.583  40.692   7.650
 3988POPC   NC311939  22.143  43.923   9.450
 3988POPC   PO411940  22.196  43.885   9.150
 3988POPC   GL111941  22.137  43.931   8.850
 3988POPC   GL211942  22.095  43.780   8.850
 3988POPC   C1A11943  22.133  43.928   8.550
 3988POPC   D2A11944  22.202  43.917   8.250
 3988POPC   C3A11945  22.171  43.926   7.950
 3988POPC   C4A11946  22.128  43.905   7.650
 3988POPC   C1B11947  22.048  43.699   8.550
 3988POPC   C2B11948  22.071  43.632   8.250
 3988POPC   C3B11949  22.071  43.634   7.950
 3988POPC   C4B11950  22.006  43.685   7.650
 3989POPC   NC311951  15.201  13.640   9.450
 3989POPC   PO411952  15.175  13.621   9.150
 3989POPC   GL111953  15.154  13.643   8.850
 3989POPC   GL211954  15.252  13.505   8.850
 3989POPC   C1A11955  15.219  13.598   8.550
 3989POPC   D2A11956  15.148  13.668   8.250
 3989POPC   C3A11957  15.134  13.599   7.950
 3989POPC   C4A11958  15.156  13.620   7.650
 3989POPC   C1B11959  15.367  13.453   8.550
 3989POPC   C2B11960  15.383  13.444   8.250
 3989POPC   C3B11961  15.311  13.477   7.950
 3989POPC   C4B11962  15.291  13.405   7.650
 3990POPC   NC311963   7.439  11.258   9.450
 3990POPC   PO411964   7.379  11.332   9.150
 3990POPC   GL111965   7.430  11.302   8.850
 3990POPC   GL211966   7.487  11.407   8.850
 3990POPC   C1A11967   7.394  11.275   8.550
 3990POPC   D2A11968   7.394  11.259   8.250
 3990POPC   C3A11969   7.449  11.252   7.950
 3990POPC   C4A11970   7.409  11.273   7.650
 3990POPC   C1B11971   7.664  11.378   8.550
 3990POPC   C2B11972   7.677  11.439   8.250
 3990POPC   C3B11973   7.674  11.450   7.950
 3990POPC   C4B11974   7.655  11.469   7.650
 3991POPC   NC311975  24.482  42.367   9.450
 3991POPC   PO411976  24.448  42.298   9.150
 3991POPC   GL111977  24.482  42.363   8.850
 3991POPC   GL211978  24.592  42.322   8.850
 3991POPC   C1A11979  24.486  42.375   8.550
 3991POPC   D2A11980  24.480  42.328   8.250
 3991POPC   C3A11981  24.528  42.360   7.950
 3991POPC   C4A11982  24.528  42.331   7.650
 3991POPC   C1B11983  24.678  42.259   8.550
 3991POPC   C2B11984  24.693  42.289   8.250
 3991POPC   C3B11985  24.678  42.193   7.950
 3991POPC   C4B11986  24.693  42.253   7.650
 3992POPC   NC311987  25.232  40.803   9.450
 3992POPC   PO411988  25.263  40.763   9.150
 3992POPC   GL111989  25.230  40.791   8.850
 3992POPC   GL211990  25.193  40.696   8.850
 3992POPC   C1A11991  25.268  40.760   8.550
 3992POPC   D2A11992  25.300  40.823   8.250
 3992POPC   C3A11993  25.268  40.768   7.950
 3992POPC   C4A11994  25.304  40.787   7.650
 3992POPC   C1B11995  25.045  40.725   8.550
 3992POPC   C2B11996  25.057  40.712   8.250
 3992POPC   C3B11997  25.030  40.694   7.950
 3992POPC   C4B11998  25.029  40.731   7.650
 3993POPC   NC311999  15.948  29.879   9.450
 3993POPC   PO412000  15.980  29.934   9.150
 3993POPC   GL112001  16.004  29.955   8.850
 3993POPC   GL212002  15.800  29.915   8.850
 3993POPC   C1A12003  16.000  29.929   8.550
 3993POPC   D2A12004  15.996  29.897   8.250
 3993POPC   C3A12005  15.979  29.927   7.950
 3993POPC   C4A12006  15.968  29.907   7.650
 3993POPC   C1B12007  15.730  29.955   8.550
 3993POPC   C2B12008  15.711  29.948   8.250
 3993POPC   C3B12009  15.665  30.018   7.950
 3993POPC   C4B12010  15.756  29.959   7.650
 3994POPC   NC312011   1.186  41.538   9.450
 3994POPC   PO412012   1.258  41.576   9.150
 3994POPC   GL112013   1.178  41.604   8.850
 3994POPC   GL212014   1.154  41.471   8.850
 3994POPC   C1A12015   1.214  41.584   8.550
 3994POPC   D2A12016   1.238  41.541   8.250
 3994POPC   C3A12017   1.176  41.596   7.950
 3994POPC   C4A12018   1.218  41.523   7.650
 3994POPC   C1B12019   0.976  41.439   8.550
 3994POPC   C2B12020   1.063  41.381   8.250
 3994POPC   C3B12021   1.050  41.380   7.950
 3994POPC   C4B12022   1.064  41.358   7.650
 3995POPC   NC312023  40.755  12.879   9.450
 3995POPC   PO412024  40.762  12.826   9.150
 3995POPC   GL112025  40.771  12.844   8.850
 3995POPC   GL212026  40.707  12.969   8.850
 3995POPC   C1A12027  40.758  12.851   8.550
 3995POPC   D2A12028  40.767  12.817   8.250
 3995POPC   C3A12029  40.736  12.898   7.950
 3995POPC   C4A12030  40.792  12.803   7.650
 3995POPC   C1B12031  40.671  13.013   8.550
 3995POPC   C2B12032  40.649  13.042   8.250
 3995POPC   C3B12033  40.660  13.096   7.950
 3995POPC   C4B12034  40.679  13.110   7.650
 3996POPC   NC312035  18.290  43.151   9.450
 3996POPC   PO412036  18.242  43.094   9.150
 3996POPC   GL112037  18.244  43.143   8.850
 3996POPC   GL212038  18.350  43.176   8.850
 3996POPC   C1A12039  18.275  43.081   8.550
 3996POPC   D2A12040  18.304  43.086   8.250
 3996POPC   C3A12041  18.298  43.156   7.950
 3996POPC   C4A12042  18.276  43.160   7.650
 3996POPC   C1B12043  18.394  43.319   8.550
 3996POPC   C2B12044  18.419  43.319   8.250
 3996POPC   C3B12045  18.400  43.382   7.950
 3996POPC   C4B12046  18.404  43.358   7.650
 3997POPC   NC312047   5.904  38.415   9.450
 3997POPC   PO412048   5.915  38.458   9.150
 3997POPC   GL112049   5.886  38.504   8.850
 3997POPC   GL212050   6.024  38.474   8.850
 3997POPC   C1A12051   5.833  38.455   8.550
 3997POPC   D2A12052   5.861  38.410   8.250
 3997POPC   C3A12053   5.853  38.414   7.950
 3997POPC   C4A12054   5.909  38.425   7.650
 3997POPC   C1B12055   6.133  38.499   8.550
 3997POPC   C2B12056   6.108  38.534   8.250
 3997POPC   C3B12057   6.084  38.527   7.950
 3997POPC   C4B12058   6.149  38.494   7.650
 3998POPC   NC312059  22.171  24.508   9.450
 3998POPC   PO412060  22.153  24.513   9.150
 3998POPC   GL112061  22.130  24.529   8.850
 3998POPC   GL212062  22.200  24.639   8.850
 3998POPC   C1A12063  22.123  24.461   8.550
 3998POPC   D2A12064  22.127  24.506   8.250
 3998POPC   C3A12065  22.185  24.467   7.950
 3998POPC   C4A12066  22.134  24.440   7.650
 3998POPC   C1B12067  22.321  24.730   8.550
 3998POPC   C2B12068  22.316  24.658   8.250
 3998POPC   C3B12069  22.317  24.739   7.950
 3998POPC   C4B12070  22.322  24.666   7.650
 3999POPC   NC312071  36.878  28.331   9.450
 3999POPC   PO412072  36.945  28.376   9.150
 3999POPC   GL112073  36.906  28.331   8.850
 3999POPC   GL212074  36.936  28.504   8.850
 3999POPC   C1A12075  36.864  28.410   8.550
 3999POPC   D2A12076  36.871  28.343   8.250
 3999POPC   C3A12077  36.877  28.336   7.950
 3999POPC   C4A12078  36.924  28.380   7.650
 3999POPC   C1B12079  37.070  28.535   8.550
 3999POPC   C2B12080  37.082  28.587   8.250
 3999POPC   C3B12081  37.068  28.528   7.950
 3999POPC   C4B12082  37.025  28.606   7.650
 4000POPC   NC312083  33.069  10.483   9.450
 4000POPC   PO412084  33.015  10.522   9.150
 4000POPC   GL112085  32.981  10.505   8.850
 4000POPC   GL212086  33.148  10.601   8.850
 4000POPC   C1A12087  33.030  10.517   8.550
 4000POPC   D2A12088  33.000  10.541   8.250
 4000POPC   C3A12089  33.050  10.508   7.950
 4000POPC   C4A12090  33.034  10.504   7.650
 4000POPC   C1B12091  33.243  10.600   8.550
 4000POPC   C2B12092  33.202  10.640   8.250
 4000POPC   C3B12093  33.239  10.673   7.950
 4000POPC   C4B12094  33.262  10.608   7.650
 4001POPC   NC312095   2.767  36.874   9.450
 4001POPC   PO412096   2.806  36.905   9.150
 4001POPC   GL112097   2.811  36.952   8.850
 4001POPC   GL212098   2.653  36.925   8.850
 4001POPC   C1A12099   2.725  36.939   8.550
 4001POPC   D2A12100   2.768  36.873   8.250
 4001POPC   C3A12101   2.719  36.901   7.950
 4001POPC   C4A12102   2.755  36.918   7.650
 4001POPC   C1B12103   2.534  36.945   8.550
 4001POPC   C2B12104   2.559  36.938   8.250
 4001POPC   C3B12105   2.506  36.906   7.950
 4001POPC   C4B12106   2.480  36.958   7.650
 4002POPC   NC312107  12.804   9.700   9.450
 4002POPC   PO412108  12.827   9.705   9.150
 4002POPC   GL112109  12.802   9.748   8.850
 4002POPC   GL212110  12.893   9.893   8.850
 4002POPC   C1A12111  12.823   9.780   8.550
 4002POPC   D2A12112  12.850   9.775   8.250
 4002POPC   C3A12113  12.874   9.776   7.950
 4002POPC   C4A12114  12.891   9.792   7.650
 4002POPC   C1B12115  13.059   9.930   8.550
 4002POPC   C2B12116  13.021   9.908   8.250
 4002POPC   C3B12117  12.993   9.928   7.950
 4002POPC   C4B12118  12.968   9.923   7.650
 4003POPC   NC312119  29.164  33.786   9.450
 4003POPC   PO412120  29.134  33.782   9.150
 4003POPC   GL112121  29.119  33.805   8.850
 4003POPC   GL212122  29.029  33.884   8.850
 4003POPC   C1A12123  29.177  33.756   8.550
 4003POPC   D2A12124  29.152  33.825   8.250
 4003POPC   C3A12125  29.115  33.839   7.950
 4003POPC   C4A12126  29.122  33.788   7.650
 4003POPC   C1B12127  28.967  33.939   8.550
 4003POPC   C2B12128  28.929  33.961   8.250
 4003POPC   C3B12129  28.958  33.946   7.950
 4003POPC   C4B12130  28.932  33.900   7.650
 4004POPC   NC312131  15.915   7.389   9.450
 4004POPC   PO412132  15.948   7.395   9.150
 4004POPC   GL112133  15.963   7.462   8.850
 4004POPC   GL212134  16.071   7.444   8.850
 4004POPC   C1A12135  15.918   7.462   8.550
 4004POPC   D2A12136  15.978   7.390   8.250
 4004POPC   C3A12137  15.961   7.386   7.950
 4004POPC   C4A12138  16.002   7.440   7.650
 4004POPC   C1B12139  16.175   7.485   8.550
 4004POPC   C2B12140  16.213   7.523   8.250
 4004POPC   C3B12141  16.223   7.524   7.950
 4004POPC   C4B12142  16.226   7.493   7.650
 4005POPC   NC312143  23.718   3.517   9.450
 4005POPC   PO412144  23.695   3.567   9.150
 4005POPC   GL112145  23.748   3.583   8.850
 4005POPC   GL212146  23.808   3.635   8.850
 4005POPC   C1A12147  23.735   3.535   8.550
 4005POPC   D2A12148  23.703   3.525   8.250
 4005POPC   C3A12149  23.717   3.590   7.950
 4005POPC   C4A12150  23.676   3.578   7.650
 4005POPC   C1B12151  23.895   3.642   8.550
 4005POPC   C2B12152  23.983   3.613   8.250
 4005POPC   C3B12153  23.957   3.616   7.950
 4005POPC   C4B12154  23.905   3.615   7.650
 4006POPC   NC312155   2.006   0.451   9.450
 4006POPC   PO412156   2.034   0.475   9.150
 4006POPC   GL112157   2.019   0.427   8.850
 4006POPC   GL212158   2.155   0.367   8.850
 4006POPC   C1A12159   2.003   0.440   8.550
 4006POPC   D2A12160   2.010   0.422   8.250
 4006POPC   C3A12161   1.957   0.393   7.950
 4006POPC   C4A12162   1.977   0.391   7.650
 4006POPC   C1B12163   2.200   0.393   8.550
 4006POPC   C2B12164   2.197   0.377   8.250
 4006POPC   C3B12165   2.235   0.375   7.950
 4006POPC   C4B12166   2.279   0.386   7.650
 4007POPC   NC312167  27.629  39.194   9.450
 4007POPC   PO412168  27.556  39.200   9.150
 4007POPC   GL112169  27.639  39.247   8.850
 4007POPC   GL212170  27.673  39.374   8.850
 4007POPC   C1A12171  27.593  39.185   8.550
 4007POPC   D2A12172  27.633  39.183   8.250
 4007POPC   C3A12173  27.629  39.209   7.950
 4007POPC   C4A12174  27.565  39.183   7.650
 4007POPC   C1B12175  27.709  39.416   8.550
 4007POPC   C2B12176  27.726  39.481   8.250
 4007POPC   C3B12177  27.759  39.414   7.950
 4007POPC   C4B12178  27.758  39.471   7.650
 4008POPC   NC312179  34.542  20.576   9.450
 4008POPC   PO412180  34.618  20.574   9.150
 4008POPC   GL112181  34.531  20.604   8.850
 4008POPC   GL212182  34.447  20.675   8.850
 4008POPC   C1A12183  34.572  20.592   8.550
 4008POPC   D2A12184  34.610  20.624   8.250
 4008POPC   C3A12185  34.583  20.637   7.950
 4008POPC   C4A12186  34.567  20.631   7.650
 4008POPC   C1B12187  34.364  20.734   8.550
 4008POPC   C2B12188  34.399  20.773   8.250
 4008POPC   C3B12189  34.305  20.731   7.950
 4008POPC   C4B12190  34.323  20.692   7.650
 4009POPC   NC312191  14.389   8.998   9.450
 4009POPC   PO412192  14.378   8.929   9.150
 4009POPC   GL112193  14.360   9.004   8.850
 4009POPC   GL212194  14.281   8.941   8.850
 4009POPC   C1A12195  14.364   8.964   8.550
 4009POPC   D2A12196  14.438   8.925   8.250
 4009POPC   C3A12197  14.428   8.981   7.950
 4009POPC   C4A12198  14.418   8.942   7.650
 4009POPC   C1B12199  14.201   8.939   8.550
 4009POPC   C2B12200  14.182   8.880   8.250
 4009POPC   C3B12201  14.138   8.942   7.950
 4009POPC   C4B12202  14.178   8.892   7.650
 4010POPC   NC312203   2.768  41.559   9.450
 4010POPC   PO412204   2.782  41.538   9.150
 4010POPC   GL112205   2.786  41.515   8.850
 4010POPC   GL212206   2.902  41.537   8.850
 4010POPC   C1A12207   2.728  41.551   8.550
 4010POPC   D2A12208   2.772  41.593   8.250
 4010POPC   C3A12209   2.768  41.584   7.950
 4010POPC   C4A12210   2.733  41.547   7.650
 4010POPC   C1B12211   2.974  41.603   8.550
 4010POPC   C2B12212   3.030  41.565   8.250
 4010POPC   C3B12213   2.988  41.588   7.950
 4010POPC   C4B12214   3.061  41.592   7.650
 4011POPC   NC312215  41.510  36.902   9.450
 4011POPC   PO412216  41.604  36.858   9.150
 4011POPC   GL112217  41.511  36.942   8.850
 4011POPC   GL212218  41.702  36.906   8.850
 4011POPC   C1A12219  41.544  36.909   8.550
 4011POPC   D2A12220  41.574  36.866   8.250
 4011POPC   C3A12221  41.566  36.940   7.950
 4011POPC   C4A12222  41.569  36.936   7.650
 4011POPC   C1B12223  41.800  36.862   8.550
 4011POPC   C2B12224  41.751  36.859   8.250
 4011POPC   C3B12225  41.820  36.826   7.950
 4011POPC   C4B12226  41.768  36.819   7.650
 4012POPC   NC312227  24.515  12.092   9.450
 4012POPC   PO412228  24.484  12.104   9.150
 4012POPC   GL112229  24.486  12.059   8.850
 4012POPC   GL212230  24.521  11.943   8.850
 4012POPC   C1A12231  24.537  12.026   8.550
 4012POPC   D2A12232  24.450  12.029   8.250
 4012POPC   C3A12233  24.502  12.074   7.950
 4012POPC   C4A12234  24.440  12.125   7.650
 4012POPC   C1B12235  24.563  11.809   8.550
 4012POPC   C2B12236  24.530  11.791   8.250
 4012POPC   C3B12237  24.539  11.804   7.950
 4012POPC   C4B12238  24.535  11.857   7.650
 4013POPC   NC312239  16.763  26.032   9.450
 4013POPC   PO412240  16.730  26.088   9.150
 4013POPC   GL112241  16.744  26.080   8.850
 4013POPC   GL212242  16.625  26.015   8.850
 4013POPC   C1A12243  16.700  26.086   8.550
 4013POPC   D2A12244  16.716  26.008   8.250
 4013POPC   C3A12245  16.708  26.051   7.950
 4013POPC   C4A12246  16.720  26.024   7.650
 4013POPC   C1B12247  16.512  25.919   8.550
 4013POPC   C2B12248  16.477  25.949   8.250
 4013POPC   C3B12249  16.516  25.938   7.950
 4013POPC   C4B12250  16.515  25.886   7.650
 4014POPC   NC312251  31.505  26.807   9.450
 4014POPC   PO412252  31.503  26.865   9.150
 4014POPC   GL112253  31.493  26.819   8.850
 4014POPC   GL212254  31.439  26.965   8.850
 4014POPC   C1A12255  31.520  26.846   8.550
 4014POPC   D2A12256  31.423  26.813   8.250
 4014POPC   C3A12257  31.497  26.793   7.950
 4014POPC   C4A12258  31.432  26.771   7.650
 4014POPC   C1B12259  31.466  27.091   8.550
 4014POPC   C2B12260  31.465  27.112   8.250
 4014POPC   C3B12261  31.473  27.042   7.950
 4014POPC   C4B12262  31.546  27.036   7.650
 4015POPC   NC312263  32.257  37.662   9.450
 4015POPC   PO412264  32.263  37.680   9.150
 4015POPC   GL112265  32.289  37.701   8.850
 4015POPC   GL212266  32.385  37.704   8.850
 4015POPC   C1A12267  32.241  37.686   8.550
 4015POPC   D2A12268  32.210  37.709   8.250
 4015POPC   C3A12269  32.297  37.712   7.950
 4015POPC   C4A12270  32.295  37.690   7.650
 4015POPC   C1B12271  32.465  37.812   8.550
 4015POPC   C2B12272  32.436  37.829   8.250
 4015POPC   C3B12273  32.476  37.765   7.950
 4015POPC   C4B12274  32.521  37.742   7.650
 4016POPC   NC312275   0.415  29.895   9.450
 4016POPC   PO412276   0.429  29.932   9.150
 4016POPC   GL112277   0.441  29.901   8.850
 4016POPC   GL212278   0.336  29.815   8.850
 4016POPC   C1A12279   0.451  29.910   8.550
 4016POPC   D2A12280   0.431  29.946   8.250
 4016POPC   C3A12281   0.434  29.932   7.950
 4016POPC   C4A12282   0.425  29.886   7.650
 4016POPC   C1B12283   0.220  29.783   8.550
 4016POPC   C2B12284   0.249  29.851   8.250
 4016POPC   C3B12285   0.223  29.829   7.950
 4016POPC   C4B12286   0.243  29.775   7.650
 4017POPC   NC312287  30.735  21.409   9.450
 4017POPC   PO412288  30.705  21.430   9.150
 4017POPC   GL112289  30.684  21.396   8.850
 4017POPC   GL212290  30.662  21.542   8.850
 4017POPC   C1A12291  30.717  21.422   8.550
 4017POPC   D2A12292  30.737  21.424   8.250
 4017POPC   C3A12293  30.693  21.414   7.950
 4017POPC   C4A12294  30.710  21.365   7.650
 4017POPC   C1B12295  30.702  21.654   8.550
 4017POPC   C2B12296  30.672  21.633   8.250
 4017POPC   C3B12297  30.705  21.679   7.950
 4017POPC   C4B12298  30.705  21.647   7.650
 4018POPC   NC312299  29.133   5.124   9.450
 4018POPC   PO412300  29.179   5.140   9.150
 4018POPC   GL112301  29.164   5.131   8.850
 4018POPC   GL212302  29.214   4.968   8.850
 4018POPC   C1A12303  29.144   5.074   8.550
 4018POPC   D2A12304  29.124   5.101   8.250
 4018POPC   C3A12305  29.182   5.134   7.950
 4018POPC   C4A12306  29.185   5.067   7.650
 4018POPC   C1B12307  29.248   4.863   8.550
 4018POPC   C2B12308  29.182   4.833   8.250
 4018POPC   C3B12309  29.197   4.864   7.950
 4018POPC   C4B12310  29.237   4.899   7.650
 4019POPC   NC312311  32.214   5.828   9.450
 4019POPC   PO412312  32.240   5.848   9.150
 4019POPC   GL112313  32.238   5.857   8.850
 4019POPC   GL212314  32.415   5.928   8.850
 4019POPC   C1A12315  32.227   5.825   8.550
 4019POPC   D2A12316  32.207   5.872   8.250
 4019POPC   C3A12317  32.225   5.882   7.950
 4019POPC   C4A12318  32.271   5.901   7.650
 4019POPC   C1B12319  32.475   5.909   8.550
 4019POPC   C2B12320  32.468   5.902   8.250
 4019POPC   C3B12321  32.499   5.972   7.950
 4019POPC   C4B12322  32.523   5.908   7.650
 4020POPC   NC312323  39.964  37.690   9.450
 4020POPC   PO412324  40.032  37.701   9.150
 4020POPC   GL112325  39.981  37.668   8.850
 4020POPC   GL212326  39.856  37.625   8.850
 4020POPC   C1A12327  39.978  37.702   8.550
 4020POPC   D2A12328  40.028  37.685   8.250
 4020POPC   C3A12329  40.036  37.716   7.950
 4020POPC   C4A12330  39.969  37.661   7.650
 4020POPC   C1B12331  39.811  37.575   8.550
 4020POPC   C2B12332  39.747  37.583   8.250
 4020POPC   C3B12333  39.742  37.504   7.950
 4020POPC   C4B12334  39.839  37.512   7.650
 4021POPC   NC312335  43.110  12.870   9.450
 4021POPC   PO412336  43.113  12.813   9.150
 4021POPC   GL112337  43.106  12.814   8.850
 4021POPC   GL212338  43.271  12.897   8.850
 4021POPC   C1A12339  43.109  12.874   8.550
 4021POPC   D2A12340  43.122  12.848   8.250
 4021POPC   C3A12341  43.123  12.811   7.950
 4021POPC   C4A12342  43.086  12.896   7.650
 4021POPC   C1B12343  43.383  12.952   8.550
 4021POPC   C2B12344  43.366  12.943   8.250
 4021POPC   C3B12345  43.373  12.948   7.950
 4021POPC   C4B12346  43.375  12.980   7.650
 4022POPC   NC312347  20.580  23.745   9.450
 4022POPC   PO412348  20.571  23.730   9.150
 4022POPC   GL112349  20.644  23.754   8.850
 4022POPC   GL212350  20.601  23.887   8.850
 4022POPC   C1A12351  20.615  23.672   8.550
 4022POPC   D2A12352  20.632  23.672   8.250
 4022POPC   C3A12353  20.634  23.703   7.950
 4022POPC   C4A12354  20.580  23.749   7.650
 4022POPC   C1B12355  20.624  23.914   8.550
 4022POPC   C2B12356  20.662  23.923   8.250
 4022POPC   C3B12357  20.604  23.959   7.950
 4022POPC   C4B12358  20.653  23.992   7.650
 4023POPC   NC312359  10.556  13.579   9.450
 4023POPC   PO412360  10.547  13.640   9.150
 4023POPC   GL112361  10.543  13.596   8.850
 4023POPC   GL212362  10.699  13.627   8.850
 4023POPC   C1A12363  10.550  13.599   8.550
 4023POPC   D2A12364  10.547  13.645   8.250
 4023POPC   C3A12365  10.511  13.588   7.950
 4023POPC   C4A12366  10.485  13.594   7.650
 4023POPC   C1B12367  10.727  13.576   8.550
 4023POPC   C2B12368  10.754  13.619   8.250
 4023POPC   C3B12369  10.807  13.584   7.950
 4023POPC   C4B12370  10.746  13.577   7.650
 4024POPC   NC312371  19.881  35.398   9.450
 4024POPC   PO412372  19.883  35.390   9.150
 4024POPC   GL112373  19.847  35.339   8.850
 4024POPC   GL212374  19.892  35.300   8.850
 4024POPC   C1A12375  19.861  35.328   8.550
 4024POPC   D2A12376  19.871  35.335   8.250
 4024POPC   C3A12377  19.861  35.323   7.950
 4024POPC   C4A12378  19.815  35.345   7.650
 4024POPC   C1B12379  20.026  35.191   8.550
 4024POPC   C2B12380  19.950  35.158   8.250
 4024POPC   C3B12381  19.984  35.150   7.950
 4024POPC   C4B12382  19.955  35.153   7.650
 4025POPC   NC312383  21.417  19.860   9.450
 4025POPC   PO412384  21.342  19.787   9.150
 4025POPC   GL112385  21.377  19.854   8.850
 4025POPC   GL212386  21.518  19.891   8.850
 4025POPC   C1A12387  21.383  19.828   8.550
 4025POPC   D2A12388  21.355  19.799   8.250
 4025POPC   C3A12389  21.359  19.828   7.950
 4025POPC   C4A12390  21.414  19.839   7.650
 4025POPC   C1B12391  21.617  19.962   8.550
 4025POPC   C2B12392  21.592  20.025   8.250
 4025POPC   C3B12393  21.554  20.028   7.950
 4025POPC   C4B12394  21.551  19.948   7.650
 4026POPC   NC312395  16.779   2.003   9.450
 4026POPC   PO412396  16.683   1.972   9.150
 4026POPC   GL112397  16.713   1.998   8.850
 4026POPC   GL212398  16.639   1.903   8.850
 4026POPC   C1A12399  16.747   2.032   8.550
 4026POPC   D2A12400  16.704   1.967   8.250
 4026POPC   C3A12401  16.702   1.960   7.950
 4026POPC   C4A12402  16.737   2.008   7.650
 4026POPC   C1B12403  16.630   1.754   8.550
 4026POPC   C2B12404  16.604   1.801   8.250
 4026POPC   C3B12405  16.571   1.805   7.950
 4026POPC   C4B12406  16.605   1.773   7.650
 4027POPC   NC312407  36.150   1.182   9.450
 4027POPC   PO412408  36.107   1.184   9.150
 4027POPC   GL112409  36.108   1.172   8.850
 4027POPC   GL212410  36.049   1.150   8.850
 4027POPC   C1A12411  36.157   1.244   8.550
 4027POPC   D2A12412  36.145   1.188   8.250
 4027POPC   C3A12413  36.094   1.252   7.950
 4027POPC   C4A12414  36.120   1.198   7.650
 4027POPC   C1B12415  35.919   1.075   8.550
 4027POPC   C2B12416  35.959   1.055   8.250
 4027POPC   C3B12417  35.954   1.032   7.950
 4027POPC   C4B12418  35.928   1.003   7.650
 4028POPC   NC312419   9.709  14.442   9.450
 4028POPC   PO412420   9.717  14.359   9.150
 4028POPC   GL112421   9.788  14.374   8.850
 4028POPC   GL212422   9.843  14.307   8.850
 4028POPC   C1A12423   9.768  14.398   8.550
 4028POPC   D2A12424   9.788  14.418   8.250
 4028POPC   C3A12425   9.712  14.430   7.950
 4028POPC   C4A12426   9.759  14.367   7.650
 4028POPC   C1B12427   9.917  14.206   8.550
 4028POPC   C2B12428   9.879  14.165   8.250
 4028POPC   C3B12429   9.846  14.170   7.950
 4028POPC   C4B12430   9.874  14.163   7.650
 4029POPC   NC312431  20.621  39.223   9.450
 4029POPC   PO412432  20.628  39.225   9.150
 4029POPC   GL112433  20.563  39.238   8.850
 4029POPC   GL212434  20.549  39.307   8.850
 4029POPC   C1A12435  20.608  39.186   8.550
 4029POPC   D2A12436  20.641  39.273   8.250
 4029POPC   C3A12437  20.585  39.262   7.950
 4029POPC   C4A12438  20.578  39.260   7.650
 4029POPC   C1B12439  20.489  39.502   8.550
 4029POPC   C2B12440  20.478  39.428   8.250
 4029POPC   C3B12441  20.529  39.440   7.950
 4029POPC   C4B12442  20.517  39.424   7.650
 4030POPC   NC312443   2.769  37.632   9.450
 4030POPC   PO412444   2.779  37.678   9.150
 4030POPC   GL112445   2.730  37.705   8.850
 4030POPC   GL212446   2.886  37.754   8.850
 4030POPC   C1A12447   2.756  37.686   8.550
 4030POPC   D2A12448   2.718  37.642   8.250
 4030POPC   C3A12449   2.815  37.727   7.950
 4030POPC   C4A12450   2.721  37.659   7.650
 4030POPC   C1B12451   2.943  37.795   8.550
 4030POPC   C2B12452   2.935  37.766   8.250
 4030POPC   C3B12453   2.960  37.779   7.950
 4030POPC   C4B12454   2.965  37.816   7.650
 4031POPC   NC312455   7.387   0.396   9.450
 4031POPC   PO412456   7.405   0.421   9.150
 4031POPC   GL112457   7.376   0.400   8.850
 4031POPC   GL212458   7.461   0.296   8.850
 4031POPC   C1A12459   7.428   0.419   8.550
 4031POPC   D2A12460   7.395   0.453   8.250
 4031POPC   C3A12461   7.390   0.440   7.950
 4031POPC   C4A12462   7.456   0.421   7.650
 4031POPC   C1B12463   7.410   0.221   8.550
 4031POPC   C2B12464   7.406   0.140   8.250
 4031POPC   C3B12465   7.463   0.144   7.950
 4031POPC   C4B12466   7.393   0.163   7.650
 4032POPC   NC312467  28.374  14.387   9.450
 4032POPC   PO412468  28.417  14.374   9.150
 4032POPC   GL112469  28.418  14.450   8.850
 4032POPC   GL212470  28.395  14.322   8.850
 4032POPC   C1A12471  28.322  14.417   8.550
 4032POPC   D2A12472  28.363  14.443   8.250
 4032POPC   C3A12473  28.326  14.453   7.950
 4032POPC   C4A12474  28.352  14.425   7.650
 4032POPC   C1B12475  28.411  14.166   8.550
 4032POPC   C2B12476  28.429  14.109   8.250
 4032POPC   C3B12477  28.354  14.138   7.950
 4032POPC   C4B12478  28.394  14.126   7.650
 4033POPC   NC312479  16.779   0.467   9.450
 4033POPC   PO412480  16.732   0.456   9.150
 4033POPC   GL112481  16.712   0.449   8.850
 4033POPC   GL212482  16.896   0.474   8.850
 4033POPC   C1A12483  16.746   0.451   8.550
 4033POPC   D2A12484  16.690   0.395   8.250
 4033POPC   C3A12485  16.729   0.455   7.950
 4033POPC   C4A12486  16.686   0.471   7.650
 4033POPC   C1B12487  16.989   0.441   8.550
 4033POPC   C2B12488  16.986   0.459   8.250
 4033POPC   C3B12489  16.988   0.522   7.950
 4033POPC   C4B12490  16.985   0.465   7.650
 4034POPC   NC312491  20.611  24.481   9.450
 4034POPC   PO412492  20.656  24.484   9.150
 4034POPC   GL112493  20.624  24.469   8.850
 4034POPC   GL212494  20.450  24.492   8.850
 4034POPC   C1A12495  20.581  24.463   8.550
 4034POPC   D2A12496  20.653  24.462   8.250
 4034POPC   C3A12497  20.571  24.534   7.950
 4034POPC   C4A12498  20.626  24.496   7.650
 4034POPC   C1B12499  20.322  24.531   8.550
 4034POPC   C2B12500  20.343  24.522   8.250
 4034POPC   C3B12501  20.396  24.480   7.950
 4034POPC   C4B12502  20.385  24.540   7.650
 4035POPC   NC312503  39.261  33.836   9.450
 4035POPC   PO412504  39.195  33.836   9.150
 4035POPC   GL112505  39.194  33.821   8.850
 4035POPC   GL212506  39.305  33.894   8.850
 4035POPC   C1A12507  39.223  33.768   8.550
 4035POPC   D2A12508  39.200  33.768   8.250
 4035POPC   C3A12509  39.214  33.841   7.950
 4035POPC   C4A12510  39.232  33.759   7.650
 4035POPC   C1B12511  39.427  33.993   8.550
 4035POPC   C2B12512  39.395  33.959   8.250
 4035POPC   C3B12513  39.471  33.966   7.950
 4035POPC   C4B12514  39.483  33.936   7.650
 4036POPC   NC312515  35.339  33.011   9.450
 4036POPC   PO412516  35.332  33.004   9.150
 4036POPC   GL112517  35.356  33.069   8.850
 4036POPC   GL212518  35.333  32.882   8.850
 4036POPC   C1A12519  35.311  33.017   8.550
 4036POPC   D2A12520  35.385  32.986   8.250
 4036POPC   C3A12521  35.366  33.039   7.950
 4036POPC   C4A12522  35.372  33.044   7.650
 4036POPC   C1B12523  35.213  32.767   8.550
 4036POPC   C2B12524  35.230  32.835   8.250
 4036POPC   C3B12525  35.214  32.823   7.950
 4036POPC   C4B12526  35.213  32.766   7.650
 4037POPC   NC312527  29.912   1.953   9.450
 4037POPC   PO412528  29.890   2.011   9.150
 4037POPC   GL112529  29.909   2.037   8.850
 4037POPC   GL212530  29.966   1.908   8.850
 4037POPC   C1A12531  29.886   1.985   8.550
 4037POPC   D2A12532  29.897   2.014   8.250
 4037POPC   C3A12533  29.876   2.035   7.950
 4037POPC   C4A12534  29.940   1.944   7.650
 4037POPC   C1B12535  30.005   1.781   8.550
 4037POPC   C2B12536  29.955   1.718   8.250
 4037POPC   C3B12537  29.983   1.734   7.950
 4037POPC   C4B12538  29.952   1.747   7.650
 4038POPC   NC312539  19.825   2.811   9.450
 4038POPC   PO412540  19.855   2.720   9.150
 4038POPC   GL112541  19.832   2.795   8.850
 4038POPC   GL212542  19.793   2.658   8.850
 4038POPC   C1A12543  19.819   2.812   8.550
 4038POPC   D2A12544  19.859   2.730   8.250
 4038POPC   C3A12545  19.851   2.777   7.950
 4038POPC   C4A12546  19.798   2.795   7.650
 4038POPC   C1B12547  19.819   2.556   8.550
 4038POPC   C2B12548  19.878   2.486   8.250
 4038POPC   C3B12549  19.836   2.469   7.950
 4038POPC   C4B12550  19.817   2.526   7.650
 4039POPC   NC312551   8.997  33.005   9.450
 4039POPC   PO412552   9.011  33.032   9.150
 4039POPC   GL112553   8.950  33.050   8.850
 4039POPC   GL212554   9.086  32.997   8.850
 4039POPC   C1A12555   8.997  33.073   8.550
 4039POPC   D2A12556   8.963  32.980   8.250
 4039POPC   C3A12557   8.953  33.064   7.950
 4039POPC   C4A12558   8.923  33.002   7.650
 4039POPC   C1B12559   9.244  33.054   8.550
 4039POPC   C2B12560   9.267  33.054   8.250
 4039POPC   C3B12561   9.201  33.022   7.950
 4039POPC   C4B12562   9.242  33.010   7.650
 4040POPC   NC312563  31.440  15.161   9.450
 4040POPC   PO412564  31.510  15.167   9.150
 4040POPC   GL112565  31.450  15.229   8.850
 4040POPC   GL212566  31.519  15.088   8.850
 4040POPC   C1A12567  31.484  15.135   8.550
 4040POPC   D2A12568  31.452  15.217   8.250
 4040POPC   C3A12569  31.484  15.168   7.950
 4040POPC   C4A12570  31.510  15.130   7.650
 4040POPC   C1B12571  31.617  14.996   8.550
 4040POPC   C2B12572  31.615  14.976   8.250
 4040POPC   C3B12573  31.528  14.900   7.950
 4040POPC   C4B12574  31.603  14.924   7.650
 4041POPC   NC312575  30.684  38.486   9.450
 4041POPC   PO412576  30.666  38.484   9.150
 4041POPC   GL112577  30.678  38.464   8.850
 4041POPC   GL212578  30.778  38.410   8.850
 4041POPC   C1A12579  30.736  38.478   8.550
 4041POPC   D2A12580  30.660  38.433   8.250
 4041POPC   C3A12581  30.737  38.466   7.950
 4041POPC   C4A12582  30.674  38.436   7.650
 4041POPC   C1B12583  30.885  38.298   8.550
 4041POPC   C2B12584  30.919  38.316   8.250
 4041POPC   C3B12585  30.892  38.236   7.950
 4041POPC   C4B12586  30.846  38.256   7.650
 4042POPC   NC312587  24.511   8.162   9.450
 4042POPC   PO412588  24.519   8.159   9.150
 4042POPC   GL112589  24.470   8.244   8.850
 4042POPC   GL212590  24.570   8.191   8.850
 4042POPC   C1A12591  24.485   8.213   8.550
 4042POPC   D2A12592  24.524   8.184   8.250
 4042POPC   C3A12593  24.535   8.157   7.950
 4042POPC   C4A12594  24.497   8.175   7.650
 4042POPC   C1B12595  24.726   8.209   8.550
 4042POPC   C2B12596  24.782   8.221   8.250
 4042POPC   C3B12597  24.721   8.160   7.950
 4042POPC   C4B12598  24.771   8.210   7.650
 4043POPC   NC312599  29.935  41.521   9.450
 4043POPC   PO412600  29.952  41.592   9.150
 4043POPC   GL112601  29.871  41.549   8.850
 4043POPC   GL212602  30.063  41.536   8.850
 4043POPC   C1A12603  29.961  41.538   8.550
 4043POPC   D2A12604  29.957  41.542   8.250
 4043POPC   C3A12605  29.896  41.592   7.950
 4043POPC   C4A12606  29.881  41.521   7.650
 4043POPC   C1B12607  30.211  41.528   8.550
 4043POPC   C2B12608  30.191  41.529   8.250
 4043POPC   C3B12609  30.113  41.451   7.950
 4043POPC   C4B12610  30.172  41.539   7.650
 4044POPC   NC312611  15.935  13.578   9.450
 4044POPC   PO412612  15.989  13.614   9.150
 4044POPC   GL112613  15.908  13.595   8.850
 4044POPC   GL212614  16.058  13.486   8.850
 4044POPC   C1A12615  15.928  13.602   8.550
 4044POPC   D2A12616  15.928  13.610   8.250
 4044POPC   C3A12617  15.996  13.651   7.950
 4044POPC   C4A12618  15.950  13.608   7.650
 4044POPC   C1B12619  16.062  13.453   8.550
 4044POPC   C2B12620  16.058  13.378   8.250
 4044POPC   C3B12621  16.141  13.438   7.950
 4044POPC   C4B12622  16.075  13.428   7.650
 4045POPC   NC312623  12.828  35.305   9.450
 4045POPC   PO412624  12.854  35.315   9.150
 4045POPC   GL112625  12.879  35.394   8.850
 4045POPC   GL212626  12.877  35.263   8.850
 4045POPC   C1A12627  12.814  35.384   8.550
 4045POPC   D2A12628  12.860  35.356   8.250
 4045POPC   C3A12629  12.894  35.373   7.950
 4045POPC   C4A12630  12.870  35.345   7.650
 4045POPC   C1B12631  12.895  35.081   8.550
 4045POPC   C2B12632  12.932  35.088   8.250
 4045POPC   C3B12633  12.976  35.113   7.950
 4045POPC   C4B12634  12.962  35.075   7.650
 4046POPC   NC312635  22.158  11.261   9.450
 4046POPC   PO412636  22.180  11.267   9.150
 4046POPC   GL112637  22.145  11.337   8.850
 4046POPC   GL212638  22.127  11.196   8.850
 4046POPC   C1A12639  22.204  11.259   8.550
 4046POPC   D2A12640  22.185  11.309   8.250
 4046POPC   C3A12641  22.207  11.252   7.950
 4046POPC   C4A12642  22.192  11.335   7.650
 4046POPC   C1B12643  21.984  11.068   8.550
 4046POPC   C2B12644  22.006  11.109   8.250
 4046POPC   C3B12645  21.999  11.093   7.950
 4046POPC   C4B12646  22.076  11.062   7.650
 4047POPC   NC312647  27.632  22.212   9.450
 4047POPC   PO412648  27.580  22.184   9.150
 4047POPC   GL112649  27.605  22.165   8.850
 4047POPC   GL212650  27.703  22.088   8.850
 4047POPC   C1A12651  27.591  22.147   8.550
 4047POPC   D2A12652  27.622  22.157   8.250
 4047POPC   C3A12653  27.585  22.170   7.950
 4047POPC   C4A12654  27.599  22.195   7.650
 4047POPC   C1B12655  27.713  21.937   8.550
 4047POPC   C2B12656  27.762  21.984   8.250
 4047POPC   C3B12657  27.754  21.988   7.950
 4047POPC   C4B12658  27.749  21.931   7.650
 4048POPC   NC312659  25.228  22.203   9.450
 4048POPC   PO412660  25.231  22.188   9.150
 4048POPC   GL112661  25.238  22.169   8.850
 4048POPC   GL212662  25.253  22.244   8.850
 4048POPC   C1A12663  25.250  22.162   8.550
 4048POPC   D2A12664  25.243  22.123   8.250
 4048POPC   C3A12665  25.249  22.189   7.950
 4048POPC   C4A12666  25.224  22.171   7.650
 4048POPC   C1B12667  25.300  22.378   8.550
 4048POPC   C2B12668  25.263  22.371   8.250
 4048POPC   C3B12669  25.268  22.439   7.950
 4048POPC   C4B12670  25.286  22.429   7.650
 4049POPC   NC312671   5.086  12.857   9.450
 4049POPC   PO412672   5.126  12.876   9.150
 4049POPC   GL112673   5.065  12.865   8.850
 4049POPC   GL212674   5.049  12.767   8.850
 4049POPC   C1A12675   5.080  12.867   8.550
 4049POPC   D2A12676   5.111  12.803   8.250
 4049POPC   C3A12677   5.130  12.846   7.950
 4049POPC   C4A12678   5.134  12.838   7.650
 4049POPC   C1B12679   4.977  12.659   8.550
 4049POPC   C2B12680   4.961  12.600   8.250
 4049POPC   C3B12681   5.010  12.625   7.950
 4049POPC   C4B12682   4.965  12.667   7.650
 4050POPC   NC312683   0.475  40.801   9.450
 4050POPC   PO412684   0.423  40.794   9.150
 4050POPC   GL112685   0.408  40.755   8.850
 4050POPC   GL212686   0.369  40.924   8.850
 4050POPC   C1A12687   0.438  40.816   8.550
 4050POPC   D2A12688   0.448  40.810   8.250
 4050POPC   C3A12689   0.483  40.802   7.950
 4050POPC   C4A12690   0.393  40.772   7.650
 4050POPC   C1B12691   0.314  41.040   8.550
 4050POPC   C2B12692   0.325  41.011   8.250
 4050POPC   C3B12693   0.310  40.974   7.950
 4050POPC   C4B12694   0.336  41.000   7.650
 4051POPC   NC312695  33.812  29.155   9.450
 4051POPC   PO412696  33.849  29.100   9.150
 4051POPC   GL112697  33.821  29.178   8.850
 4051POPC   GL212698  33.678  29.026   8.850
 4051POPC   C1A12699  33.756  29.149   8.550
 4051POPC   D2A12700  33.830  29.152   8.250
 4051POPC   C3A12701  33.797  29.138   7.950
 4051POPC   C4A12702  33.761  29.103   7.650
 4051POPC   C1B12703  33.608  29.003   8.550
 4051POPC   C2B12704  33.635  28.978   8.250
 4051POPC   C3B12705  33.558  28.984   7.950
 4051POPC   C4B12706  33.644  28.943   7.650
 4052POPC   NC312707  15.978   2.744   9.450
 4052POPC   PO412708  15.969   2.774   9.150
 4052POPC   GL112709  15.946   2.756   8.850
 4052POPC   GL212710  15.944   2.671   8.850
 4052POPC   C1A12711  15.937   2.766   8.550
 4052POPC   D2A12712  15.935   2.775   8.250
 4052POPC   C3A12713  15.963   2.787   7.950
 4052POPC   C4A12714  15.930   2.774   7.650
 4052POPC   C1B12715  15.930   2.555   8.550
 4052POPC   C2B12716  15.884   2.506   8.250
 4052POPC   C3B12717  15.937   2.513   7.950
 4052POPC   C4B12718  15.848   2.506   7.650
 4053POPC   NC312719  44.689   4.364   9.450
 4053POPC   PO412720  44.646   4.366   9.150
 4053POPC   GL112721  44.666   4.334   8.850
 4053POPC   GL212722  44.658   4.418   8.850
 4053POPC   C1A12723  44.701   4.310   8.550
 4053POPC   D2A12724  44.693   4.342   8.250
 4053POPC   C3A12725  44.706   4.344   7.950
 4053POPC   C4A12726  44.637   4.358   7.650
 4053POPC   C1B12727  44.631   4.584   8.550
 4053POPC   C2B12728  44.629   4.530   8.250
 4053POPC   C3B12729  44.604   4.536   7.950
 4053POPC   C4B12730  44.634   4.600   7.650
 4054POPC   NC312731  20.607  21.391   9.450
 4054POPC   PO412732  20.626  21.336   9.150
 4054POPC   GL112733  20.645  21.393   8.850
 4054POPC   GL212734  20.487  21.395   8.850
 4054POPC   C1A12735  20.570  21.352   8.550
 4054POPC   D2A12736  20.631  21.392   8.250
 4054POPC   C3A12737  20.606  21.353   7.950
 4054POPC   C4A12738  20.635  21.421   7.650
 4054POPC   C1B12739  20.373  21.517   8.550
 4054POPC   C2B12740  20.397  21.508   8.250
 4054POPC   C3B12741  20.400  21.533   7.950
 4054POPC   C4B12742  20.371  21.466   7.650
 4055POPC   NC312743  22.178  22.920   9.450
 4055POPC   PO412744  22.139  22.934   9.150
 4055POPC   GL112745  22.131  22.983   8.850
 4055POPC   GL212746  21.998  23.012   8.850
 4055POPC   C1A12747  22.179  22.968   8.550
 4055POPC   D2A12748  22.183  22.961   8.250
 4055POPC   C3A12749  22.201  22.974   7.950
 4055POPC   C4A12750  22.163  22.899   7.650
 4055POPC   C1B12751  21.930  23.053   8.550
 4055POPC   C2B12752  21.951  23.002   8.250
 4055POPC   C3B12753  21.950  23.030   7.950
 4055POPC   C4B12754  21.911  23.003   7.650
 4056POPC   NC312755  29.874  19.879   9.450
 4056POPC   PO412756  29.886  19.832   9.150
 4056POPC   GL112757  29.934  19.816   8.850
 4056POPC   GL212758  29.838  19.810   8.850
 4056POPC   C1A12759  29.896  19.850   8.550
 4056POPC   D2A12760  29.894  19.838   8.250
 4056POPC   C3A12761  29.915  19.801   7.950
 4056POPC   C4A12762  29.927  19.839   7.650
 4056POPC   C1B12763  29.678  19.676   8.550
 4056POPC   C2B12764  29.753  19.737   8.250
 4056POPC   C3B12765  29.732  19.647   7.950
 4056POPC   C4B12766  29.728  19.696   7.650
 4057POPC   NC312767  28.371   2.810   9.450
 4057POPC   PO412768  28.400   2.794   9.150
 4057POPC   GL112769  28.370   2.738   8.850
 4057POPC   GL212770  28.415   2.638   8.850
 4057POPC   C1A12771  28.379   2.747   8.550
 4057POPC   D2A12772  28.326   2.801   8.250
 4057POPC   C3A12773  28.346   2.808   7.950
 4057POPC   C4A12774  28.336   2.778   7.650
 4057POPC   C1B12775  28.528   2.553   8.550
 4057POPC   C2B12776  28.492   2.535   8.250
 4057POPC   C3B12777  28.497   2.527   7.950
 4057POPC   C4B12778  28.499   2.570   7.650
 4058POPC   NC312779  22.162  26.866   9.450
 4058POPC   PO412780  22.135  26.771   9.150
 4058POPC   GL112781  22.173  26.848   8.850
 4058POPC   GL212782  22.235  26.904   8.850
 4058POPC   C1A12783  22.211  26.785   8.550
 4058POPC   D2A12784  22.155  26.845   8.250
 4058POPC   C3A12785  22.189  26.866   7.950
 4058POPC   C4A12786  22.130  26.853   7.650
 4058POPC   C1B12787  22.356  26.906   8.550
 4058POPC   C2B12788  22.341  26.940   8.250
 4058POPC   C3B12789  22.331  26.973   7.950
 4058POPC   C4B12790  22.354  26.914   7.650
 4059POPC   NC312791  17.466   1.224   9.450
 4059POPC   PO412792  17.477   1.250   9.150
 4059POPC   GL112793  17.520   1.220   8.850
 4059POPC   GL212794  17.666   1.150   8.850
 4059POPC   C1A12795  17.479   1.242   8.550
 4059POPC   D2A12796  17.478   1.203   8.250
 4059POPC   C3A12797  17.504   1.206   7.950
 4059POPC   C4A12798  17.515   1.256   7.650
 4059POPC   C1B12799  17.771   1.191   8.550
 4059POPC   C2B12800  17.772   1.175   8.250
 4059POPC   C3B12801  17.758   1.179   7.950
 4059POPC   C4B12802  17.800   1.114   7.650
 4060POPC   NC312803  40.013  32.997   9.450
 4060POPC   PO412804  40.016  32.984   9.150
 4060POPC   GL112805  40.004  32.992   8.850
 4060POPC   GL212806  39.909  32.937   8.850
 4060POPC   C1A12807  39.984  33.007   8.550
 4060POPC   D2A12808  40.013  33.023   8.250
 4060POPC   C3A12809  40.038  32.994   7.950
 4060POPC   C4A12810  39.984  33.063   7.650
 4060POPC   C1B12811  39.751  32.951   8.550
 4060POPC   C2B12812  39.784  32.948   8.250
 4060POPC   C3B12813  39.722  32.925   7.950
 4060POPC   C4B12814  39.775  32.899   7.650
 4061POPC   NC312815  21.428   1.227   9.450
 4061POPC   PO412816  21.427   1.257   9.150
 4061POPC   GL112817  21.412   1.204   8.850
 4061POPC   GL212818  21.479   1.303   8.850
 4061POPC   C1A12819  21.405   1.244   8.550
 4061POPC   D2A12820  21.435   1.207   8.250
 4061POPC   C3A12821  21.401   1.200   7.950
 4061POPC   C4A12822  21.379   1.263   7.650
 4061POPC   C1B12823  21.621   1.383   8.550
 4061POPC   C2B12824  21.531   1.345   8.250
 4061POPC   C3B12825  21.594   1.336   7.950
 4061POPC   C4B12826  21.532   1.390   7.650
 4062POPC   NC312827  22.974   5.868   9.450
 4062POPC   PO412828  22.899   5.881   9.150
 4062POPC   GL112829  22.932   5.850   8.850
 4062POPC   GL212830  23.013   5.988   8.850
 4062POPC   C1A12831  22.896   5.877   8.550
 4062POPC   D2A12832  22.979   5.877   8.250
 4062POPC   C3A12833  22.968   5.840   7.950
 4062POPC   C4A12834  22.938   5.919   7.650
 4062POPC   C1B12835  22.983   6.161   8.550
 4062POPC   C2B12836  23.031   6.124   8.250
 4062POPC   C3B12837  22.979   6.085   7.950
 4062POPC   C4B12838  23.025   6.131   7.650
 4063POPC   NC312839  30.731  13.627   9.450
 4063POPC   PO412840  30.691  13.649   9.150
 4063POPC   GL112841  30.666  13.673   8.850
 4063POPC   GL212842  30.572  13.662   8.850
 4063POPC   C1A12843  30.699  13.672   8.550
 4063POPC   D2A12844  30.711  13.601   8.250
 4063POPC   C3A12845  30.723  13.634   7.950
 4063POPC   C4A12846  30.696  13.631   7.650
 4063POPC   C1B12847  30.434  13.715   8.550
 4063POPC   C2B12848  30.429  13.665   8.250
 4063POPC   C3B12849  30.413  13.662   7.950
 4063POPC   C4B12850  30.479  13.723   7.650
 4064POPC   NC312851  29.939  40.055   9.450
 4064POPC   PO412852  29.915  40.045   9.150
 4064POPC   GL112853  29.901  39.965   8.850
 4064POPC   GL212854  29.784  39.980   8.850
 4064POPC   C1A12855  29.933  40.021   8.550
 4064POPC   D2A12856  29.906  40.040   8.250
 4064POPC   C3A12857  29.923  40.010   7.950
 4064POPC   C4A12858  29.894  39.980   7.650
 4064POPC   C1B12859  29.707  40.053   8.550
 4064POPC   C2B12860  29.639  40.004   8.250
 4064POPC   C3B12861  29.688  40.058   7.950
 4064POPC   C4B12862  29.667  40.017   7.650
 4065POPC   NC312863   6.645  34.541   9.450
 4065POPC   PO412864   6.599  34.582   9.150
 4065POPC   GL112865   6.685  34.589   8.850
 4065POPC   GL212866   6.645  34.501   8.850
 4065POPC   C1A12867   6.639  34.536   8.550
 4065POPC   D2A12868   6.597  34.566   8.250
 4065POPC   C3A12869   6.665  34.529   7.950
 4065POPC   C4A12870   6.663  34.578   7.650
 4065POPC   C1B12871   6.709  34.340   8.550
 4065POPC   C2B12872   6.654  34.300   8.250
 4065POPC   C3B12873   6.663  34.301   7.950
 4065POPC   C4B12874   6.623  34.279   7.650
 4066POPC   NC312875   3.503  21.368   9.450
 4066POPC   PO412876   3.567  21.379   9.150
 4066POPC   GL112877   3.535  21.389   8.850
 4066POPC   GL212878   3.628  21.324   8.850
 4066POPC   C1A12879   3.579  21.381   8.550
 4066POPC   D2A12880   3.560  21.397   8.250
 4066POPC   C3A12881   3.552  21.435   7.950
 4066POPC   C4A12882   3.503  21.340   7.650
 4066POPC   C1B12883   3.813  21.309   8.550
 4066POPC   C2B12884   3.777  21.314   8.250
 4066POPC   C3B12885   3.764  21.282   7.950
 4066POPC   C4B12886   3.753  21.348   7.650
 4067POPC   NC312887  41.569   7.378   9.450
 4067POPC   PO412888  41.583   7.461   9.150
 4067POPC   GL112889  41.603   7.427   8.850
 4067POPC   GL212890  41.702   7.445   8.850
 4067POPC   C1A12891  41.578   7.465   8.550
 4067POPC   D2A12892  41.556   7.382   8.250
 4067POPC   C3A12893  41.572   7.372   7.950
 4067POPC   C4A12894  41.602   7.427   7.650
 4067POPC   C1B12895  41.843   7.500   8.550
 4067POPC   C2B12896  41.753   7.525   8.250
 4067POPC   C3B12897  41.766   7.457   7.950
 4067POPC   C4B12898  41.779   7.537   7.650
 4068POPC   NC312899  19.851  44.673   9.450
 4068POPC   PO412900  19.860  44.639   9.150
 4068POPC   GL112901  19.871  44.653   8.850
 4068POPC   GL212902  19.687  44.583   8.850
 4068POPC   C1A12903  19.857  44.691   8.550
 4068POPC   D2A12904  19.884  44.702   8.250
 4068POPC   C3A12905  19.802  44.670   7.950
 4068POPC   C4A12906  19.813  44.653   7.650
 4068POPC   C1B12907  19.658  44.500   8.550
 4068POPC   C2B12908  19.614  44.561   8.250
 4068POPC   C3B12909  19.598  44.552   7.950
 4068POPC   C4B12910  19.650  44.484   7.650
 4069POPC   NC312911  44.628  36.163   9.450
 4069POPC   PO412912  44.670  36.153   9.150
 4069POPC   GL112913  44.691  36.127   8.850
 4069POPC   GL212914  44.589  36.006   8.850
 4069POPC   C1A12915  44.641  36.134   8.550
 4069POPC   D2A12916  44.701  36.092   8.250
 4069POPC   C3A12917  44.627  36.090   7.950
 4069POPC   C4A12918  44.618  36.165   7.650
 4069POPC   C1B12919  44.457  35.971   8.550
 4069POPC   C2B12920  44.448  35.968   8.250
 4069POPC   C3B12921  44.463  35.973   7.950
 4069POPC   C4B12922  44.455  35.959   7.650
 4070POPC   NC312923  41.571   3.583   9.450
 4070POPC   PO412924  41.536   3.554   9.150
 4070POPC   GL112925  41.598   3.513   8.850
 4070POPC   GL212926  41.647   3.559   8.850
 4070POPC   C1A12927  41.559   3.537   8.550
 4070POPC   D2A12928  41.599   3.501   8.250
 4070POPC   C3A12929  41.537   3.579   7.950
 4070POPC   C4A12930  41.517   3.535   7.650
 4070POPC   C1B12931  41.809   3.590   8.550
 4070POPC   C2B12932  41.838   3.673   8.250
 4070POPC   C3B12933  41.767   3.641   7.950
 4070POPC   C4B12934  41.801   3.648   7.650
 4071POPC   NC312935  15.223   9.763   9.450
 4071POPC   PO412936  15.221   9.746   9.150
 4071POPC   GL112937  15.196   9.751   8.850
 4071POPC   GL212938  15.075   9.610   8.850
 4071POPC   C1A12939  15.140   9.734   8.550
 4071POPC   D2A12940  15.146   9.700   8.250
 4071POPC   C3A12941  15.150   9.779   7.950
 4071POPC   C4A12942  15.177   9.778   7.650
 4071POPC   C1B12943  14.975   9.561   8.550
 4071POPC   C2B12944  14.997   9.577   8.250
 4071POPC   C3B12945  15.024   9.554   7.950
 4071POPC   C4B12946  14.990   9.505   7.650
 4072POPC   NC312947  37.676  43.889   9.450
 4072POPC   PO412948  37.676  43.916   9.150
 4072POPC   GL112949  37.651  43.861   8.850
 4072POPC   GL212950  37.741  43.781   8.850
 4072POPC   C1A12951  37.718  43.902   8.550
 4072POPC   D2A12952  37.662  43.878   8.250
 4072POPC   C3A12953  37.722  43.901   7.950
 4072POPC   C4A12954  37.672  43.856   7.650
 4072POPC   C1B12955  37.875  43.787   8.550
 4072POPC   C2B12956  37.905  43.755   8.250
 4072POPC   C3B12957  37.888  43.785   7.950
 4072POPC   C4B12958  37.911  43.738   7.650
 4073POPC   NC312959  19.015  19.791   9.450
 4073POPC   PO412960  19.017  19.794   9.150
 4073POPC   GL112961  19.072  19.819   8.850
 4073POPC   GL212962  18.926  19.811   8.850
 4073POPC   C1A12963  19.032  19.832   8.550
 4073POPC   D2A12964  19.095  19.785   8.250
 4073POPC   C3A12965  19.078  19.791   7.950
 4073POPC   C4A12966  19.029  19.879   7.650
 4073POPC   C1B12967  18.870  19.668   8.550
 4073POPC   C2B12968  18.862  19.708   8.250
 4073POPC   C3B12969  18.882  19.725   7.950
 4073POPC   C4B12970  18.879  19.694   7.650
 4074POPC   NC312971   3.569  19.854   9.450
 4074POPC   PO412972   3.520  19.810   9.150
 4074POPC   GL112973   3.523  19.860   8.850
 4074POPC   GL212974   3.483  19.960   8.850
 4074POPC   C1A12975   3.576  19.864   8.550
 4074POPC   D2A12976   3.527  19.796   8.250
 4074POPC   C3A12977   3.512  19.853   7.950
 4074POPC   C4A12978   3.537  19.798   7.650
 4074POPC   C1B12979   3.431  20.029   8.550
 4074POPC   C2B12980   3.456  20.095   8.250
 4074POPC   C3B12981   3.479  20.099   7.950
 4074POPC   C4B12982   3.471  20.048   7.650
 4075POPC   NC312983  20.574  40.810   9.450
 4075POPC   PO412984  20.569  40.774   9.150
 4075POPC   GL112985  20.619  40.783   8.850
 4075POPC   GL212986  20.463  40.847   8.850
 4075POPC   C1A12987  20.657  40.762   8.550
 4075POPC   D2A12988  20.642  40.829   8.250
 4075POPC   C3A12989  20.610  40.819   7.950
 4075POPC   C4A12990  20.657  40.806   7.650
 4075POPC   C1B12991  20.362  40.799   8.550
 4075POPC   C2B12992  20.353  40.860   8.250
 4075POPC   C3B12993  20.411  40.773   7.950
 4075POPC   C4B12994  20.342  40.801   7.650
 4076POPC   NC312995  31.508  27.570   9.450
 4076POPC   PO412996  31.425  27.576   9.150
 4076POPC   GL112997  31.476  27.572   8.850
 4076POPC   GL212998  31.333  27.572   8.850
 4076POPC   C1A12999  31.521  27.630   8.550
 4076POPC   D2A13000  31.519  27.620   8.250
 4076POPC   C3A13001  31.498  27.559   7.950
 4076POPC   C4A13002  31.522  27.638   7.650
 4076POPC   C1B13003  31.292  27.483   8.550
 4076POPC   C2B13004  31.202  27.494   8.250
 4076POPC   C3B13005  31.212  27.446   7.950
 4076POPC   C4B13006  31.248  27.462   7.650
 4077POPC   NC313007  17.515   0.452   9.450
 4077POPC   PO413008  17.537   0.459   9.150
 4077POPC   GL113009  17.536   0.404   8.850
 4077POPC   GL213010  17.471   0.554   8.850
 4077POPC   C1A13011  17.548   0.468   8.550
 4077POPC   D2A13012  17.500   0.408   8.250
 4077POPC   C3A13013  17.555   0.410   7.950
 4077POPC   C4A13014  17.539   0.388   7.650
 4077POPC   C1B13015  17.340   0.685   8.550
 4077POPC   C2B13016  17.410   0.622   8.250
 4077POPC   C3B13017  17.373   0.609   7.950
 4077POPC   C4B13018  17.407   0.680   7.650
 4078POPC   NC313019   1.974  26.779   9.450
 4078POPC   PO413020   1.982  26.786   9.150
 4078POPC   GL113021   1.955  26.852   8.850
 4078POPC   GL213022   2.058  26.703   8.850
 4078POPC   C1A13023   1.984  26.804   8.550
 4078POPC   D2A13024   1.970  26.855   8.250
 4078POPC   C3A13025   1.987  26.768   7.950
 4078POPC   C4A13026   1.973  26.833   7.650
 4078POPC   C1B13027   2.083  26.607   8.550
 4078POPC   C2B13028   2.123  26.608   8.250
 4078POPC   C3B13029   2.104  26.571   7.950
 4078POPC   C4B13030   2.161  26.646   7.650
 4079POPC   NC313031   5.123  34.593   9.450
 4079POPC   PO413032   5.077  34.559   9.150
 4079POPC   GL113033   5.083  34.619   8.850
 4079POPC   GL213034   5.235  34.581   8.850
 4079POPC   C1A13035   5.091  34.578   8.550
 4079POPC   D2A13036   5.123  34.592   8.250
 4079POPC   C3A13037   5.099  34.620   7.950
 4079POPC   C4A13038   5.083  34.613   7.650
 4079POPC   C1B13039   5.326  34.557   8.550
 4079POPC   C2B13040   5.370  34.587   8.250
 4079POPC   C3B13041   5.360  34.557   7.950
 4079POPC   C4B13042   5.333  34.571   7.650
 4080POPC   NC313043  26.864  31.505   9.450
 4080POPC   PO413044  26.836  31.521   9.150
 4080POPC   GL113045  26.768  31.514   8.850
 4080POPC   GL213046  26.844  31.309   8.850
 4080POPC   C1A13047  26.786  31.446   8.550
 4080POPC   D2A13048  26.835  31.455   8.250
 4080POPC   C3A13049  26.822  31.511   7.950
 4080POPC   C4A13050  26.823  31.439   7.650
 4080POPC   C1B13051  26.833  31.272   8.550
 4080POPC   C2B13052  26.834  31.217   8.250
 4080POPC   C3B13053  26.794  31.249   7.950
 4080POPC   C4B13054  26.778  31.271   7.650
 4081POPC   NC313055  33.014   1.224   9.450
 4081POPC   PO413056  32.984   1.224   9.150
 4081POPC   GL113057  33.023   1.230   8.850
 4081POPC   GL213058  33.087   1.281   8.850
 4081POPC   C1A13059  33.031   1.178   8.550
 4081POPC   D2A13060  33.058   1.167   8.250
 4081POPC   C3A13061  33.018   1.206   7.950
 4081POPC   C4A13062  33.074   1.179   7.650
 4081POPC   C1B13063  33.186   1.334   8.550
 4081POPC   C2B13064  33.208   1.421   8.250
 4081POPC   C3B13065  33.256   1.347   7.950
 4081POPC   C4B13066  33.197   1.341   7.650
 4082POPC   NC313067  25.992   0.456   9.450
 4082POPC   PO413068  26.002   0.471   9.150
 4082POPC   GL113069  26.078   0.450   8.850
 4082POPC   GL213070  26.057   0.591   8.850
 4082POPC   C1A13071  26.044   0.448   8.550
 4082POPC   D2A13072  26.020   0.438   8.250
 4082POPC   C3A13073  26.009   0.487   7.950
 4082POPC   C4A13074  25.998   0.416   7.650
 4082POPC   C1B13075  26.086   0.716   8.550
 4082POPC   C2B13076  26.067   0.642   8.250
 4082POPC   C3B13077  26.095   0.674   7.950
 4082POPC   C4B13078  26.028   0.681   7.650
 4083POPC   NC313079  19.075  43.149   9.450
 4083POPC   PO413080  19.102  43.077   9.150
 4083POPC   GL113081  19.080  43.074   8.850
 4083POPC   GL213082  18.935  43.212   8.850
 4083POPC   C1A13083  19.010  43.107   8.550
 4083POPC   D2A13084  19.016  43.098   8.250
 4083POPC   C3A13085  19.081  43.160   7.950
 4083POPC   C4A13086  19.089  43.143   7.650
 4083POPC   C1B13087  18.870  43.253   8.550
 4083POPC   C2B13088  18.830  43.266   8.250
 4083POPC   C3B13089  18.866  43.238   7.950
 4083POPC   C4B13090  18.878  43.202   7.650
 4084POPC   NC313091  21.347  25.992   9.450
 4084POPC   PO413092  21.389  26.000   9.150
 4084POPC   GL113093  21.383  26.045   8.850
 4084POPC   GL213094  21.413  26.156   8.850
 4084POPC   C1A13095  21.359  26.088   8.550
 4084POPC   D2A13096  21.357  26.079   8.250
 4084POPC   C3A13097  21.417  26.028   7.950
 4084POPC   C4A13098  21.411  26.083   7.650
 4084POPC   C1B13099  21.498  26.296   8.550
 4084POPC   C2B13100  21.462  26.297   8.250
 4084POPC   C3B13101  21.484  26.271   7.950
 4084POPC   C4B13102  21.448  26.306   7.650
 4085POPC   NC313103   2.752  24.525   9.450
 4085POPC   PO413104   2.721  24.522   9.150
 4085POPC   GL113105   2.763  24.462   8.850
 4085POPC   GL213106   2.671  24.603   8.850
 4085POPC   C1A13107   2.734  24.465   8.550
 4085POPC   D2A13108   2.731  24.451   8.250
 4085POPC   C3A13109   2.752  24.539   7.950
 4085POPC   C4A13110   2.791  24.441   7.650
 4085POPC   C1B13111   2.645  24.713   8.550
 4085POPC   C2B13112   2.657  24.716   8.250
 4085POPC   C3B13113   2.664  24.723   7.950
 4085POPC   C4B13114   2.688  24.739   7.650
 4086POPC   NC313115   5.868   7.389   9.450
 4086POPC   PO413116   5.853   7.467   9.150
 4086POPC   GL113117   5.846   7.436   8.850
 4086POPC   GL213118   5.891   7.534   8.850
 4086POPC   C1A13119   5.852   7.434   8.550
 4086POPC   D2A13120   5.902   7.388   8.250
 4086POPC   C3A13121   5.826   7.408   7.950
 4086POPC   C4A13122   5.824   7.426   7.650
 4086POPC   C1B13123   5.964   7.666   8.550
 4086POPC   C2B13124   6.005   7.682   8.250
 4086POPC   C3B13125   5.963   7.624   7.950
 4086POPC   C4B13126   5.951   7.618   7.650
 4087POPC   NC313127  19.009  28.343   9.450
 4087POPC   PO413128  19.027  28.331   9.150
 4087POPC   GL113129  19.071  28.359   8.850
 4087POPC   GL213130  19.029  28.435   8.850
 4087POPC   C1A13131  19.072  28.356   8.550
 4087POPC   D2A13132  19.030  28.371   8.250
 4087POPC   C3A13133  19.018  28.371   7.950
 4087POPC   C4A13134  19.017  28.336   7.650
 4087POPC   C1B13135  18.863  28.563   8.550
 4087POPC   C2B13136  18.862  28.588   8.250
 4087POPC   C3B13137  18.867  28.557   7.950
 4087POPC   C4B13138  18.909  28.613   7.650
 4088POPC   NC313139  26.781   0.466   9.450
 4088POPC   PO413140  26.856   0.463   9.150
 4088POPC   GL113141  26.834   0.445   8.850
 4088POPC   GL213142  26.734   0.364   8.850
 4088POPC   C1A13143  26.803   0.475   8.550
 4088POPC   D2A13144  26.849   0.444   8.250
 4088POPC   C3A13145  26.829   0.428   7.950
 4088POPC   C4A13146  26.792   0.436   7.650
 4088POPC   C1B13147  26.584   0.304   8.550
 4088POPC   C2B13148  26.638   0.261   8.250
 4088POPC   C3B13149  26.612   0.325   7.950
 4088POPC   C4B13150  26.627   0.342   7.650
 4089POPC   NC313151  11.264  34.604   9.450
 4089POPC   PO413152  11.339  34.562   9.150
 4089POPC   GL113153  11.281  34.606   8.850
 4089POPC   GL213154  11.142  34.507   8.850
 4089POPC   C1A13155  11.336  34.564   8.550
 4089POPC   D2A13156  11.261  34.551   8.250
 4089POPC   C3A13157  11.270  34.543   7.950
 4089POPC   C4A13158  11.296  34.534   7.650
 4089POPC   C1B13159  11.055  34.441   8.550
 4089POPC   C2B13160  11.029  34.457   8.250
 4089POPC   C3B13161  11.115  34.493   7.950
 4089POPC   C4B13162  11.104  34.454   7.650
 4090POPC   NC313163   8.174  36.939   9.450
 4090POPC   PO413164   8.182  36.904   9.150
 4090POPC   GL113165   8.219  36.928   8.850
 4090POPC   GL213166   8.359  36.925   8.850
 4090POPC   C1A13167   8.245  36.873   8.550
 4090POPC   D2A13168   8.161  36.877   8.250
 4090POPC   C3A13169   8.242  36.926   7.950
 4090POPC   C4A13170   8.147  36.904   7.650
 4090POPC   C1B13171   8.402  36.907   8.550
 4090POPC   C2B13172   8.449  36.895   8.250
 4090POPC   C3B13173   8.476  36.887   7.950
 4090POPC   C4B13174   8.485  36.970   7.650
 4091POPC   NC313175   2.765  33.808   9.450
 4091POPC   PO413176   2.749  33.829   9.150
 4091POPC   GL113177   2.755  33.827   8.850
 4091POPC   GL213178   2.929  33.845   8.850
 4091POPC   C1A13179   2.771  33.780   8.550
 4091POPC   D2A13180   2.763  33.807   8.250
 4091POPC   C3A13181   2.757  33.816   7.950
 4091POPC   C4A13182   2.764  33.769   7.650
 4091POPC   C1B13183   2.986  33.787   8.550
 4091POPC   C2B13184   3.053  33.833   8.250
 4091POPC   C3B13185   3.002  33.820   7.950
 4091POPC   C4B13186   3.038  33.834   7.650
 4092POPC   NC313187  36.176  39.214   9.450
 4092POPC   PO413188  36.148  39.255   9.150
 4092POPC   GL113189  36.097  39.260   8.850
 4092POPC   GL213190  36.204  39.153   8.850
 4092POPC   C1A13191  36.168  39.278   8.550
 4092POPC   D2A13192  36.103  39.205   8.250
 4092POPC   C3A13193  36.150  39.194   7.950
 4092POPC   C4A13194  36.088  39.220   7.650
 4092POPC   C1B13195  36.324  39.103   8.550
 4092POPC   C2B13196  36.385  39.063   8.250
 4092POPC   C3B13197  36.391  39.095   7.950
 4092POPC   C4B13198  36.309  39.139   7.650
 4093POPC   NC313199  41.577   9.013   9.450
 4093POPC   PO413200  41.541   8.945   9.150
 4093POPC   GL113201  41.533   8.981   8.850
 4093POPC   GL213202  41.508   8.806   8.850
 4093POPC   C1A13203  41.511   8.924   8.550
 4093POPC   D2A13204  41.511   8.930   8.250
 4093POPC   C3A13205  41.575   8.950   7.950
 4093POPC   C4A13206  41.585   9.018   7.650
 4093POPC   C1B13207  41.492   8.695   8.550
 4093POPC   C2B13208  41.434   8.753   8.250
 4093POPC   C3B13209  41.442   8.723   7.950
 4093POPC   C4B13210  41.526   8.699   7.650
 4094POPC   NC313211  10.530  41.598   9.450
 4094POPC   PO413212  10.505  41.525   9.150
 4094POPC   GL113213  10.502  41.510   8.850
 4094POPC   GL213214  10.522  41.688   8.850
 4094POPC   C1A13215  10.497  41.546   8.550
 4094POPC   D2A13216  10.504  41.580   8.250
 4094POPC   C3A13217  10.570  41.561   7.950
 4094POPC   C4A13218  10.487  41.583   7.650
 4094POPC   C1B13219  10.481  41.815   8.550
 4094POPC   C2B13220  10.505  41.855   8.250
 4094POPC   C3B13221  10.463  41.856   7.950
 4094POPC   C4B13222  10.482  41.803   7.650
 4095POPC   NC313223  25.229   8.959   9.450
 4095POPC   PO413224  25.221   9.007   9.150
 4095POPC   GL113225  25.290   9.021   8.850
 4095POPC   GL213226  25.171   8.906   8.850
 4095POPC   C1A13227  25.272   8.948   8.550
 4095POPC   D2A13228  25.299   8.962   8.250
 4095POPC   C3A13229  25.289   8.970   7.950
 4095POPC   C4A13230  25.309   8.970   7.650
 4095POPC   C1B13231  25.178   8.733   8.550
 4095POPC   C2B13232  25.196   8.739   8.250
 4095POPC   C3B13233  25.144   8.704   7.950
 4095POPC   C4B13234  25.158   8.767   7.650
 4096POPC   NC313235  11.304   5.127   9.450
 4096POPC   PO413236  11.347   5.099   9.150
 4096POPC   GL113237  11.298   5.098   8.850
 4096POPC   GL213238  11.204   5.093   8.850
 4096POPC   C1A13239  11.298   5.060   8.550
 4096POPC   D2A13240  11.334   5.091   8.250
 4096POPC   C3A13241  11.322   5.102   7.950
 4096POPC   C4A13242  11.266   5.112   7.650
 4096POPC   C1B13243  11.107   5.224   8.550
 4096POPC   C2B13244  11.062   5.196   8.250
 4096POPC   C3B13245  11.024   5.196   7.950
 4096POPC   C4B13246  11.054   5.153   7.650
 4097POPC   NC313247  34.608  12.110   9.450
 4097POPC   PO413248  34.544  12.041   9.150
 4097POPC   GL113249  34.548  12.077   8.850
 4097POPC   GL213250  34.456  11.982   8.850
 4097POPC   C1A13251  34.608  12.033   8.550
 4097POPC   D2A13252  34.570  12.078   8.250
 4097POPC   C3A13253  34.616  12.113   7.950
 4097POPC   C4A13254  34.575  12.070   7.650
 4097POPC   C1B13255  34.340  11.954   8.550
 4097POPC   C2B13256  34.301  12.015   8.250
 4097POPC   C3B13257  34.312  11.950   7.950
 4097POPC   C4B13258  34.344  11.974   7.650
 4098POPC   NC313259  19.016  44.652   9.450
 4098POPC   PO413260  19.082  44.631   9.150
 4098POPC   GL113261  19.039  44.636   8.850
 4098POPC   GL213262  19.136  44.783   8.850
 4098POPC   C1A13263  19.019  44.672   8.550
 4098POPC   D2A13264  19.038  44.694   8.250
 4098POPC   C3A13265  19.032  44.710   7.950
 4098POPC   C4A13266  19.067  44.657   7.650
 4098POPC   C1B13267  19.141  44.887   8.550
 4098POPC   C2B13268  19.126  44.884   8.250
 4098POPC   C3B13269  19.126  44.900   7.950
 4098POPC   C4B13270  19.115  44.865   7.650
 4099POPC   NC313271   3.581  43.097   9.450
 4099POPC   PO413272   3.576  43.100   9.150
 4099POPC   GL113273   3.584  43.152   8.850
 4099POPC   GL213274   3.467  43.219   8.850
 4099POPC   C1A13275   3.568  43.148   8.550
 4099POPC   D2A13276   3.529  43.072   8.250
 4099POPC   C3A13277   3.499  43.137   7.950
 4099POPC   C4A13278   3.532  43.125   7.650
 4099POPC   C1B13279   3.344  43.256   8.550
 4099POPC   C2B13280   3.366  43.343   8.250
 4099POPC   C3B13281   3.412  43.300   7.950
 4099POPC   C4B13282   3.384  43.265   7.650
 4100POPC   NC313283  10.483  21.341   9.450
 4100POPC   PO413284  10.543  21.419   9.150
 4100POPC   GL113285  10.560  21.347   8.850
 4100POPC   GL213286  10.653  21.349   8.850
 4100POPC   C1A13287  10.480  21.340   8.550
 4100POPC   D2A13288  10.485  21.346   8.250
 4100POPC   C3A13289  10.501  21.433   7.950
 4100POPC   C4A13290  10.552  21.347   7.650
 4100POPC   C1B13291  10.758  21.346   8.550
 4100POPC   C2B13292  10.819  21.416   8.250
 4100POPC   C3B13293  10.786  21.386   7.950
 4100POPC   C4B13294  10.767  21.424   7.650
 4101POPC   NC313295  26.036  21.409   9.450
 4101POPC   PO413296  26.041  21.372   9.150
 4101POPC   GL113297  26.048  21.423   8.850
 4101POPC   GL213298  26.085  21.308   8.850
 4101POPC   C1A13299  26.006  21.348   8.550
 4101POPC   D2A13300  26.004  21.393   8.250
 4101POPC   C3A13301  25.995  21.408   7.950
 4101POPC   C4A13302  26.067  21.406   7.650
 4101POPC   C1B13303  26.041  21.179   8.550
 4101POPC   C2B13304  26.076  21.097   8.250
 4101POPC   C3B13305  26.039  21.107   7.950
 4101POPC   C4B13306  26.059  21.163   7.650
 4102POPC   NC313307  31.441  36.894   9.450
 4102POPC   PO413308  31.425  36.924   9.150
 4102POPC   GL113309  31.513  36.938   8.850
 4102POPC   GL213310  31.328  37.000   8.850
 4102POPC   C1A13311  31.471  36.901   8.550
 4102POPC   D2A13312  31.508  36.929   8.250
 4102POPC   C3A13313  31.520  36.884   7.950
 4102POPC   C4A13314  31.517  36.943   7.650
 4102POPC   C1B13315  31.229  37.073   8.550
 4102POPC   C2B13316  31.218  36.990   8.250
 4102POPC   C3B13317  31.232  37.000   7.950
 4102POPC   C4B13318  31.255  37.011   7.650
 4103POPC   NC313319   6.667  28.394   9.450
 4103POPC   PO413320   6.644  28.322   9.150
 4103POPC   GL113321   6.602  28.378   8.850
 4103POPC   GL213322   6.674  28.448   8.850
 4103POPC   C1A13323   6.676  28.414   8.550
 4103POPC   D2A13324   6.638  28.365   8.250
 4103POPC   C3A13325   6.679  28.411   7.950
 4103POPC   C4A13326   6.618  28.389   7.650
 4103POPC   C1B13327   6.730  28.566   8.550
 4103POPC   C2B13328   6.756  28.577   8.250
 4103POPC   C3B13329   6.698  28.637   7.950
 4103POPC   C4B13330   6.729  28.579   7.650
 4104POPC   NC313331   3.589  36.928   9.450
 4104POPC   PO413332   3.573  36.952   9.150
 4104POPC   GL113333   3.514  36.944   8.850
 4104POPC   GL213334   3.521  36.776   8.850
 4104POPC   C1A13335   3.529  36.869   8.550
 4104POPC   D2A13336   3.503  36.895   8.250
 4104POPC   C3A13337   3.527  36.931   7.950
 4104POPC   C4A13338   3.560  36.927   7.650
 4104POPC   C1B13339   3.443  36.632   8.550
 4104POPC   C2B13340   3.496  36.703   8.250
 4104POPC   C3B13341   3.485  36.631   7.950
 4104POPC   C4B13342   3.488  36.700   7.650
 4105POPC   NC313343  38.445  19.047   9.450
 4105POPC   PO413344  38.491  19.083   9.150
 4105POPC   GL113345  38.469  19.086   8.850
 4105POPC   GL213346  38.530  18.920   8.850
 4105POPC   C1A13347  38.407  19.068   8.550
 4105POPC   D2A13348  38.437  19.051   8.250
 4105POPC   C3A13349  38.464  19.022   7.950
 4105POPC   C4A13350  38.456  19.079   7.650
 4105POPC   C1B13351  38.607  18.857   8.550
 4105POPC   C2B13352  38.613  18.878   8.250
 4105POPC   C3B13353  38.603  18.804   7.950
 4105POPC   C4B13354  38.619  18.839   7.650
 4106POPC   NC313355   3.496  32.249   9.450
 4106POPC   PO413356   3.563  32.246   9.150
 4106POPC   GL113357   3.527  32.209   8.850
 4106POPC   GL213358   3.416  32.255   8.850
 4106POPC   C1A13359   3.536  32.234   8.550
 4106POPC   D2A13360   3.495  32.227   8.250
 4106POPC   C3A13361   3.543  32.202   7.950
 4106POPC   C4A13362   3.566  32.271   7.650
 4106POPC   C1B13363   3.257  32.240   8.550
 4106POPC   C2B13364   3.338  32.229   8.250
 4106POPC   C3B13365   3.265  32.179   7.950
 4106POPC   C4B13366   3.250  32.211   7.650
 4107POPC   NC313367  10.485  26.061   9.450
 4107POPC   PO413368  10.536  26.006   9.150
 4107POPC   GL113369  10.523  26.044   8.850
 4107POPC   GL213370  10.630  25.950   8.850
 4107POPC   C1A13371  10.505  26.071   8.550
 4107POPC   D2A13372  10.572  26.004   8.250
 4107POPC   C3A13373  10.515  26.065   7.950
 4107POPC   C4A13374  10.531  26.036   7.650
 4107POPC   C1B13375  10.762  25.955   8.550
 4107POPC   C2B13376  10.737  25.987   8.250
 4107POPC   C3B13377  10.739  26.004   7.950
 4107POPC   C4B13378  10.792  25.923   7.650
 4108POPC   NC313379  14.446  41.601   9.450
 4108POPC   PO413380  14.419  41.600   9.150
 4108POPC   GL113381  14.366  41.519   8.850
 4108POPC   GL213382  14.263  41.512   8.850
 4108POPC   C1A13383  14.374  41.592   8.550
 4108POPC   D2A13384  14.441  41.607   8.250
 4108POPC   C3A13385  14.371  41.603   7.950
 4108POPC   C4A13386  14.424  41.590   7.650
 4108POPC   C1B13387  14.204  41.485   8.550
 4108POPC   C2B13388  14.161  41.453   8.250
 4108POPC   C3B13389  14.152  41.499   7.950
 4108POPC   C4B13390  14.131  41.478   7.650
 4109POPC   NC313391   5.068  43.119   9.450
 4109POPC   PO413392   5.118  43.130   9.150
 4109POPC   GL113393   5.065  43.083   8.850
 4109POPC   GL213394   5.130  43.201   8.850
 4109POPC   C1A13395   5.115  43.077   8.550
 4109POPC   D2A13396   5.140  43.119   8.250
 4109POPC   C3A13397   5.127  43.085   7.950
 4109POPC   C4A13398   5.117  43.080   7.650
 4109POPC   C1B13399   5.076  43.336   8.550
 4109POPC   C2B13400   5.077  43.342   8.250
 4109POPC   C3B13401   5.161  43.369   7.950
 4109POPC   C4B13402   5.134  43.358   7.650
 4110POPC   NC313403   6.636  15.146   9.450
 4110POPC   PO413404   6.632  15.172   9.150
 4110POPC   GL113405   6.673  15.152   8.850
 4110POPC   GL213406   6.476  15.224   8.850
 4110POPC   C1A13407   6.625  15.228   8.550
 4110POPC   D2A13408   6.601  15.167   8.250
 4110POPC   C3A13409   6.635  15.174   7.950
 4110POPC   C4A13410   6.674  15.200   7.650
 4110POPC   C1B13411   6.370  15.262   8.550
 4110POPC   C2B13412   6.443  15.271   8.250
 4110POPC   C3B13413   6.409  15.196   7.950
 4110POPC   C4B13414   6.441  15.286   7.650
 4111POPC   NC313415  40.778  39.190   9.450
 4111POPC   PO413416  40.743  39.212   9.150
 4111POPC   GL113417  40.758  39.197   8.850
 4111POPC   GL213418  40.901  39.188   8.850
 4111POPC   C1A13419  40.784  39.211   8.550
 4111POPC   D2A13420  40.766  39.254   8.250
 4111POPC   C3A13421  40.770  39.249   7.950
 4111POPC   C4A13422  40.759  39.258   7.650
 4111POPC   C1B13423  40.993  39.046   8.550
 4111POPC   C2B13424  40.960  39.114   8.250
 4111POPC   C3B13425  40.950  39.068   7.950
 4111POPC   C4B13426  41.020  39.087   7.650
 4112POPC   NC313427  19.800  15.180   9.450
 4112POPC   PO413428  19.813  15.154   9.150
 4112POPC   GL113429  19.838  15.224   8.850
 4112POPC   GL213430  19.734  15.185   8.850
 4112POPC   C1A13431  19.815  15.184   8.550
 4112POPC   D2A13432  19.884  15.187   8.250
 4112POPC   C3A13433  19.786  15.180   7.950
 4112POPC   C4A13434  19.872  15.179   7.650
 4112POPC   C1B13435  19.561  15.262   8.550
 4112POPC   C2B13436  19.582  15.298   8.250
 4112POPC   C3B13437  19.606  15.224   7.950
 4112POPC   C4B13438  19.556  15.281   7.650
 4113POPC   NC313439  37.679  28.400   9.450
 4113POPC   PO413440  37.694  28.328   9.150
 4113POPC   GL113441  37.667  28.361   8.850
 4113POPC   GL213442  37.595  28.394   8.850
 4113POPC   C1A13443  37.631  28.341   8.550
 4113POPC   D2A13444  37.642  28.374   8.250
 4113POPC   C3A13445  37.639  28.319   7.950
 4113POPC   C4A13446  37.650  28.335   7.650
 4113POPC   C1B13447  37.476  28.395   8.550
 4113POPC   C2B13448  37.422  28.361   8.250
 4113POPC   C3B13449  37.467  28.335   7.950
 4113POPC   C4B13450  37.469  28.398   7.650
 4114POPC   NC313451  39.244  18.270   9.450
 4114POPC   PO413452  39.240  18.260   9.150
 4114POPC   GL113453  39.270  18.304   8.850
 4114POPC   GL213454  39.085  18.387   8.850
 4114POPC   C1A13455  39.200  18.269   8.550
 4114POPC   D2A13456  39.216  18.320   8.250
 4114POPC   C3A13457  39.238  18.236   7.950
 4114POPC   C4A13458  39.214  18.237   7.650
 4114POPC   C1B13459  39.035  18.366   8.550
 4114POPC   C2B13460  38.996  18.443   8.250
 4114POPC   C3B13461  39.011  18.367   7.950
 4114POPC   C4B13462  39.060  18.432   7.650
 4115POPC   NC313463  25.994  36.892   9.450
 4115POPC   PO413464  26.019  36.871   9.150
 4115POPC   GL113465  26.008  36.897   8.850
 4115POPC   GL213466  26.110  36.985   8.850
 4115POPC   C1A13467  26.085  36.858   8.550
 4115POPC   D2A13468  26.003  36.876   8.250
 4115POPC   C3A13469  26.083  36.886   7.950
 4115POPC   C4A13470  26.013  36.857   7.650
 4115POPC   C1B13471  26.098  37.135   8.550
 4115POPC   C2B13472  26.139  37.126   8.250
 4115POPC   C3B13473  26.174  37.175   7.950
 4115POPC   C4B13474  26.117  37.183   7.650
 4116POPC   NC313475   6.654  19.816   9.450
 4116POPC   PO413476   6.675  19.819   9.150
 4116POPC   GL113477   6.650  19.839   8.850
 4116POPC   GL213478   6.538  19.882   8.850
 4116POPC   C1A13479   6.684  19.836   8.550
 4116POPC   D2A13480   6.682  19.870   8.250
 4116POPC   C3A13481   6.678  19.806   7.950
 4116POPC   C4A13482   6.650  19.797   7.650
 4116POPC   C1B13483   6.474  19.986   8.550
 4116POPC   C2B13484   6.407  19.980   8.250
 4116POPC   C3B13485   6.431  19.936   7.950
 4116POPC   C4B13486   6.484  19.958   7.650
 4117POPC   NC313487  43.931   7.425   9.450
 4117POPC   PO413488  43.847   7.407   9.150
 4117POPC   GL113489  43.869   7.455   8.850
 4117POPC   GL213490  43.960   7.469   8.850
 4117POPC   C1A13491  43.883   7.447   8.550
 4117POPC   D2A13492  43.851   7.419   8.250
 4117POPC   C3A13493  43.892   7.459   7.950
 4117POPC   C4A13494  43.849   7.447   7.650
 4117POPC   C1B13495  44.107   7.568   8.550
 4117POPC   C2B13496  44.119   7.559   8.250
 4117POPC   C3B13497  44.049   7.550   7.950
 4117POPC   C4B13498  44.079   7.587   7.650
 4118POPC   NC313499  35.314  29.167   9.450
 4118POPC   PO413500  35.306  29.157   9.150
 4118POPC   GL113501  35.386  29.180   8.850
 4118POPC   GL213502  35.349  29.007   8.850
 4118POPC   C1A13503  35.359  29.161   8.550
 4118POPC   D2A13504  35.374  29.171   8.250
 4118POPC   C3A13505  35.314  29.156   7.950
 4118POPC   C4A13506  35.359  29.097   7.650
 4118POPC   C1B13507  35.406  28.876   8.550
 4118POPC   C2B13508  35.417  28.901   8.250
 4118POPC   C3B13509  35.385  28.936   7.950
 4118POPC   C4B13510  35.424  28.900   7.650
 4119POPC   NC313511  29.151  41.539   9.450
 4119POPC   PO413512  29.172  41.526   9.150
 4119POPC   GL113513  29.133  41.595   8.850
 4119POPC   GL213514  29.067  41.418   8.850
 4119POPC   C1A13515  29.148  41.588   8.550
 4119POPC   D2A13516  29.113  41.533   8.250
 4119POPC   C3A13517  29.148  41.548   7.950
 4119POPC   C4A13518  29.096  41.533   7.650
 4119POPC   C1B13519  29.009  41.368   8.550
 4119POPC   C2B13520  29.014  41.331   8.250
 4119POPC   C3B13521  29.076  41.313   7.950
 4119POPC   C4B13522  29.053  41.378   7.650
 4120POPC   NC313523  28.329  11.278   9.450
 4120POPC   PO413524  28.357  11.298   9.150
 4120POPC   GL113525  28.378  11.271   8.850
 4120POPC   GL213526  28.441  11.223   8.850
 4120POPC   C1A13527  28.383  11.255   8.550
 4120POPC   D2A13528  28.398  11.259   8.250
 4120POPC   C3A13529  28.320  11.276   7.950
 4120POPC   C4A13530  28.392  11.253   7.650
 4120POPC   C1B13531  28.621  11.125   8.550
 4120POPC   C2B13532  28.540  11.173   8.250
 4120POPC   C3B13533  28.552  11.195   7.950
 4120POPC   C4B13534  28.538  11.123   7.650
 4121POPC   NC313535  29.125  37.645   9.450
 4121POPC   PO413536  29.180  37.682   9.150
 4121POPC   GL113537  29.137  37.703   8.850
 4121POPC   GL213538  29.248  37.701   8.850
 4121POPC   C1A13539  29.100  37.684   8.550
 4121POPC   D2A13540  29.137  37.708   8.250
 4121POPC   C3A13541  29.178  37.714   7.950
 4121POPC   C4A13542  29.154  37.670   7.650
 4121POPC   C1B13543  29.401  37.717   8.550
 4121POPC   C2B13544  29.400  37.746   8.250
 4121POPC   C3B13545  29.346  37.777   7.950
 4121POPC   C4B13546  29.383  37.798   7.650
 4122POPC   NC313547  32.271  23.684   9.450
 4122POPC   PO413548  32.275  23.711   9.150
 4122POPC   GL113549  32.285  23.683   8.850
 4122POPC   GL213550  32.299  23.789   8.850
 4122POPC   C1A13551  32.235  23.757   8.550
 4122POPC   D2A13552  32.270  23.736   8.250
 4122POPC   C3A13553  32.235  23.714   7.950
 4122POPC   C4A13554  32.239  23.694   7.650
 4122POPC   C1B13555  32.325  23.999   8.550
 4122POPC   C2B13556  32.319  24.009   8.250
 4122POPC   C3B13557  32.306  23.971   7.950
 4122POPC   C4B13558  32.303  24.000   7.650
 4123POPC   NC313559  12.879   0.421   9.450
 4123POPC   PO413560  12.841   0.448   9.150
 4123POPC   GL113561  12.814   0.436   8.850
 4123POPC   GL213562  12.898   0.345   8.850
 4123POPC   C1A13563  12.813   0.388   8.550
 4123POPC   D2A13564  12.901   0.414   8.250
 4123POPC   C3A13565  12.892   0.390   7.950
 4123POPC   C4A13566  12.861   0.416   7.650
 4123POPC   C1B13567  13.038   0.284   8.550
 4123POPC   C2B13568  13.052   0.240   8.250
 4123POPC   C3B13569  12.988   0.284   7.950
 4123POPC   C4B13570  13.034   0.285   7.650
 4124POPC   NC313571   1.199  26.862   9.450
 4124POPC   PO413572   1.165  26.776   9.150
 4124POPC   GL113573   1.182  26.815   8.850
 4124POPC   GL213574   1.099  26.762   8.850
 4124POPC   C1A13575   1.239  26.844   8.550
 4124POPC   D2A13576   1.259  26.842   8.250
 4124POPC   C3A13577   1.181  26.865   7.950
 4124POPC   C4A13578   1.259  26.781   7.650
 4124POPC   C1B13579   1.009  26.671   8.550
 4124POPC   C2B13580   1.023  26.667   8.250
 4124POPC   C3B13581   1.013  26.663   7.950
 4124POPC   C4B13582   1.000  26.635   7.650
 4125POPC   NC313583  26.074  36.150   9.450
 4125POPC   PO413584  26.032  36.148   9.150
 4125POPC   GL113585  26.057  36.105   8.850
 4125POPC   GL213586  26.158  36.183   8.850
 4125POPC   C1A13587  26.040  36.122   8.550
 4125POPC   D2A13588  26.084  36.097   8.250
 4125POPC   C3A13589  26.042  36.079   7.950
 4125POPC   C4A13590  26.075  36.130   7.650
 4125POPC   C1B13591  26.185  36.248   8.550
 4125POPC   C2B13592  26.264  36.302   8.250
 4125POPC   C3B13593  26.213  36.327   7.950
 4125POPC   C4B13594  26.230  36.259   7.650
 4126POPC   NC313595  13.581  14.445   9.450
 4126POPC   PO413596  13.581  14.413   9.150
 4126POPC   GL113597  13.615  14.422   8.850
 4126POPC   GL213598  13.568  14.267   8.850
 4126POPC   C1A13599  13.645  14.372   8.550
 4126POPC   D2A13600  13.642  14.416   8.250
 4126POPC   C3A13601  13.582  14.367   7.950
 4126POPC   C4A13602  13.649  14.436   7.650
 4126POPC   C1B13603  13.596  14.182   8.550
 4126POPC   C2B13604  13.598  14.173   8.250
 4126POPC   C3B13605  13.578  14.126   7.950
 4126POPC   C4B13606  13.655  14.139   7.650
 4127POPC   NC313607   2.741  23.749   9.450
 4127POPC   PO413608   2.716  23.718   9.150
 4127POPC   GL113609   2.804  23.763   8.850
 4127POPC   GL213610   2.691  23.701   8.850
 4127POPC   C1A13611   2.757  23.695   8.550
 4127POPC   D2A13612   2.751  23.682   8.250
 4127POPC   C3A13613   2.812  23.729   7.950
 4127POPC   C4A13614   2.781  23.719   7.650
 4127POPC   C1B13615   2.488  23.770   8.550
 4127POPC   C2B13616   2.555  23.792   8.250
 4127POPC   C3B13617   2.470  23.793   7.950
 4127POPC   C4B13618   2.490  23.726   7.650
 4128POPC   NC313619  27.636  29.913   9.450
 4128POPC   PO413620  27.575  29.962   9.150
 4128POPC   GL113621  27.580  29.872   8.850
 4128POPC   GL213622  27.576  30.043   8.850
 4128POPC   C1A13623  27.587  29.934   8.550
 4128POPC   D2A13624  27.587  29.872   8.250
 4128POPC   C3A13625  27.608  29.872   7.950
 4128POPC   C4A13626  27.609  29.952   7.650
 4128POPC   C1B13627  27.583  30.127   8.550
 4128POPC   C2B13628  27.633  30.178   8.250
 4128POPC   C3B13629  27.597  30.211   7.950
 4128POPC   C4B13630  27.561  30.156   7.650
 4129POPC   NC313631  15.928   4.317   9.450
 4129POPC   PO413632  15.973   4.274   9.150
 4129POPC   GL113633  15.925   4.349   8.850
 4129POPC   GL213634  15.854   4.362   8.850
 4129POPC   C1A13635  15.937   4.279   8.550
 4129POPC   D2A13636  15.960   4.360   8.250
 4129POPC   C3A13637  15.937   4.344   7.950
 4129POPC   C4A13638  15.992   4.315   7.650
 4129POPC   C1B13639  15.729   4.344   8.550
 4129POPC   C2B13640  15.752   4.308   8.250
 4129POPC   C3B13641  15.748   4.304   7.950
 4129POPC   C4B13642  15.705   4.300   7.650
 4130POPC   NC313643  17.462  26.859   9.450
 4130POPC   PO413644  17.528  26.772   9.150
 4130POPC   GL113645  17.487  26.839   8.850
 4130POPC   GL213646  17.395  26.763   8.850
 4130POPC   C1A13647  17.536  26.791   8.550
 4130POPC   D2A13648  17.509  26.834   8.250
 4130POPC   C3A13649  17.539  26.792   7.950
 4130POPC   C4A13650  17.516  26.781   7.650
 4130POPC   C1B13651  17.248  26.732   8.550
 4130POPC   C2B13652  17.280  26.746   8.250
 4130POPC   C3B13653  17.321  26.726   7.950
 4130POPC   C4B13654  17.304  26.680   7.650
 4131POPC   NC313655  26.824  23.683   9.450
 4131POPC   PO413656  26.779  23.751   9.150
 4131POPC   GL113657  26.834  23.668   8.850
 4131POPC   GL213658  26.730  23.787   8.850
 4131POPC   C1A13659  26.798  23.762   8.550
 4131POPC   D2A13660  26.831  23.694   8.250
 4131POPC   C3A13661  26.795  23.748   7.950
 4131POPC   C4A13662  26.842  23.673   7.650
 4131POPC   C1B13663  26.545  23.779   8.550
 4131POPC   C2B13664  26.537  23.761   8.250
 4131POPC   C3B13665  26.546  23.749   7.950
 4131POPC   C4B13666  26.583  23.776   7.650
 4132POPC   NC313667  36.881   8.164   9.450
 4132POPC   PO413668  36.885   8.206   9.150
 4132POPC   GL113669  36.924   8.188   8.850
 4132POPC   GL213670  36.977   8.326   8.850
 4132POPC   C1A13671  36.923   8.164   8.550
 4132POPC   D2A13672  36.871   8.241   8.250
 4132POPC   C3A13673  36.871   8.171   7.950
 4132POPC   C4A13674  36.858   8.157   7.650
 4132POPC   C1B13675  37.043   8.327   8.550
 4132POPC   C2B13676  37.091   8.356   8.250
 4132POPC   C3B13677  37.093   8.320   7.950
 4132POPC   C4B13678  37.045   8.372   7.650
 4133POPC   NC313679  11.281  44.702   9.450
 4133POPC   PO413680  11.301  44.660   9.150
 4133POPC   GL113681  11.266  44.621   8.850
 4133POPC   GL213682  11.228  44.609   8.850
 4133POPC   C1A13683  11.298  44.682   8.550
 4133POPC   D2A13684  11.264  44.687   8.250
 4133POPC   C3A13685  11.267  44.709   7.950
 4133POPC   C4A13686  11.262  44.637   7.650
 4133POPC   C1B13687  11.110  44.573   8.550
 4133POPC   C2B13688  11.125  44.542   8.250
 4133POPC   C3B13689  11.058  44.521   7.950
 4133POPC   C4B13690  11.065  44.509   7.650
 4134POPC   NC313691  28.406  40.782   9.450
 4134POPC   PO413692  28.404  40.758   9.150
 4134POPC   GL113693  28.339  40.794   8.850
 4134POPC   GL213694  28.228  40.741   8.850
 4134POPC   C1A13695  28.358  40.743   8.550
 4134POPC   D2A13696  28.320  40.789   8.250
 4134POPC   C3A13697  28.365  40.774   7.950
 4134POPC   C4A13698  28.375  40.767   7.650
 4134POPC   C1B13699  28.122  40.609   8.550
 4134POPC   C2B13700  28.136  40.634   8.250
 4134POPC   C3B13701  28.198  40.624   7.950
 4134POPC   C4B13702  28.183  40.594   7.650
 4135POPC   NC313703  33.058  22.951   9.450
 4135POPC   PO413704  33.065  22.987   9.150
 4135POPC   GL113705  33.055  22.941   8.850
 4135POPC   GL213706  33.076  22.812   8.850
 4135POPC   C1A13707  33.062  22.930   8.550
 4135POPC   D2A13708  33.024  22.922   8.250
 4135POPC   C3A13709  33.056  22.928   7.950
 4135POPC   C4A13710  33.013  22.928   7.650
 4135POPC   C1B13711  33.044  22.681   8.550
 4135POPC   C2B13712  33.123  22.720   8.250
 4135POPC   C3B13713  33.064  22.715   7.950
 4135POPC   C4B13714  33.074  22.650   7.650
 4136POPC   NC313715  36.097  40.052   9.450
 4136POPC   PO413716  36.141  39.972   9.150
 4136POPC   GL113717  36.107  40.035   8.850
 4136POPC   GL213718  36.030  39.918   8.850
 4136POPC   C1A13719  36.080  39.996   8.550
 4136POPC   D2A13720  36.128  39.965   8.250
 4136POPC   C3A13721  36.126  39.970   7.950
 4136POPC   C4A13722  36.089  39.980   7.650
 4136POPC   C1B13723  36.030  39.792   8.550
 4136POPC   C2B13724  35.944  39.771   8.250
 4136POPC   C3B13725  35.975  39.805   7.950
 4136POPC   C4B13726  35.996  39.799   7.650
 4137POPC   NC313727  24.459   9.754   9.450
 4137POPC   PO413728  24.471   9.759   9.150
 4137POPC   GL113729  24.454   9.714   8.850
 4137POPC   GL213730  24.342   9.772   8.850
 4137POPC   C1A13731  24.536   9.699   8.550
 4137POPC   D2A13732  24.497   9.751   8.250
 4137POPC   C3A13733  24.535   9.766   7.950
 4137POPC   C4A13734  24.512   9.764   7.650
 4137POPC   C1B13735  24.273   9.755   8.550
 4137POPC   C2B13736  24.284   9.780   8.250
 4137POPC   C3B13737  24.270   9.701   7.950
 4137POPC   C4B13738  24.276   9.729   7.650
 4138POPC   NC313739   6.615  30.740   9.450
 4138POPC   PO413740   6.603  30.702   9.150
 4138POPC   GL113741   6.695  30.693   8.850
 4138POPC   GL213742   6.640  30.859   8.850
 4138POPC   C1A13743   6.627  30.676   8.550
 4138POPC   D2A13744   6.667  30.741   8.250
 4138POPC   C3A13745   6.627  30.742   7.950
 4138POPC   C4A13746   6.604  30.718   7.650
 4138POPC   C1B13747   6.685  30.959   8.550
 4138POPC   C2B13748   6.669  30.900   8.250
 4138POPC   C3B13749   6.718  30.932   7.950
 4138POPC   C4B13750   6.642  30.969   7.650
 4139POPC   NC313751  19.808  39.270   9.450
 4139POPC   PO413752  19.853  39.221   9.150
 4139POPC   GL113753  19.807  39.201   8.850
 4139POPC   GL213754  19.971  39.320   8.850
 4139POPC   C1A13755  19.821  39.194   8.550
 4139POPC   D2A13756  19.840  39.224   8.250
 4139POPC   C3A13757  19.880  39.239   7.950
 4139POPC   C4A13758  19.796  39.252   7.650
 4139POPC   C1B13759  20.041  39.439   8.550
 4139POPC   C2B13760  19.973  39.355   8.250
 4139POPC   C3B13761  19.976  39.412   7.950
 4139POPC   C4B13762  20.064  39.417   7.650
 4140POPC   NC313763  12.817   1.242   9.450
 4140POPC   PO413764  12.844   1.204   9.150
 4140POPC   GL113765  12.852   1.219   8.850
 4140POPC   GL213766  12.836   1.049   8.850
 4140POPC   C1A13767  12.875   1.171   8.550
 4140POPC   D2A13768  12.840   1.164   8.250
 4140POPC   C3A13769  12.843   1.228   7.950
 4140POPC   C4A13770  12.882   1.228   7.650
 4140POPC   C1B13771  12.889   0.954   8.550
 4140POPC   C2B13772  12.903   0.975   8.250
 4140POPC   C3B13773  12.859   1.007   7.950
 4140POPC   C4B13774  12.867   0.954   7.650
 4141POPC   NC313775   8.206  36.162   9.450
 4141POPC   PO413776   8.220  36.124   9.150
 4141POPC   GL113777   8.226  36.142   8.850
 4141POPC   GL213778   8.094  35.999   8.850
 4141POPC   C1A13779   8.167  36.149   8.550
 4141POPC   D2A13780   8.155  36.151   8.250
 4141POPC   C3A13781   8.229  36.106   7.950
 4141POPC   C4A13782   8.190  36.177   7.650
 4141POPC   C1B13783   8.023  35.961   8.550
 4141POPC   C2B13784   8.083  35.880   8.250
 4141POPC   C3B13785   8.076  35.934   7.950
 4141POPC   C4B13786   8.004  35.962   7.650
 4142POPC   NC313787  31.466  28.399   9.450
 4142POPC   PO413788  31.503  28.354   9.150
 4142POPC   GL113789  31.473  28.340   8.850
 4142POPC   GL213790  31.425  28.525   8.850
 4142POPC   C1A13791  31.476  28.351   8.550
 4142POPC   D2A13792  31.480  28.414   8.250
 4142POPC   C3A13793  31.442  28.416   7.950
 4142POPC   C4A13794  31.515  28.352   7.650
 4142POPC   C1B13795  31.438  28.579   8.550
 4142POPC   C2B13796  31.495  28.602   8.250
 4142POPC   C3B13797  31.486  28.617   7.950
 4142POPC   C4B13798  31.430  28.606   7.650
 4143POPC   NC313799  19.863  42.368   9.450
 4143POPC   PO413800  19.838  42.383   9.150
 4143POPC   GL113801  19.835  42.373   8.850
 4143POPC   GL213802  19.709  42.347   8.850
 4143POPC   C1A13803  19.833  42.351   8.550
 4143POPC   D2A13804  19.830  42.378   8.250
 4143POPC   C3A13805  19.806  42.369   7.950
 4143POPC   C4A13806  19.846  42.359   7.650
 4143POPC   C1B13807  19.569  42.344   8.550
 4143POPC   C2B13808  19.547  42.335   8.250
 4143POPC   C3B13809  19.589  42.274   7.950
 4143POPC   C4B13810  19.552  42.296   7.650
 4144POPC   NC313811  22.930   9.793   9.450
 4144POPC   PO413812  22.985   9.782   9.150
 4144POPC   GL113813  22.938   9.757   8.850
 4144POPC   GL213814  23.003   9.700   8.850
 4144POPC   C1A13815  22.971   9.782   8.550
 4144POPC   D2A13816  22.900   9.791   8.250
 4144POPC   C3A13817  22.909   9.758   7.950
 4144POPC   C4A13818  22.970   9.773   7.650
 4144POPC   C1B13819  23.112   9.569   8.550
 4144POPC   C2B13820  23.138   9.573   8.250
 4144POPC   C3B13821  23.145   9.610   7.950
 4144POPC   C4B13822  23.143   9.557   7.650
 4145POPC   NC313823  11.252   8.154   9.450
 4145POPC   PO413824  11.261   8.162   9.150
 4145POPC   GL113825  11.316   8.175   8.850
 4145POPC   GL213826  11.324   8.095   8.850
 4145POPC   C1A13827  11.276   8.199   8.550
 4145POPC   D2A13828  11.318   8.170   8.250
 4145POPC   C3A13829  11.255   8.153   7.950
 4145POPC   C4A13830  11.256   8.151   7.650
 4145POPC   C1B13831  11.409   7.981   8.550
 4145POPC   C2B13832  11.339   7.919   8.250
 4145POPC   C3B13833  11.419   7.978   7.950
 4145POPC   C4B13834  11.417   7.929   7.650
 4146POPC   NC313835  27.569   2.015   9.450
 4146POPC   PO413836  27.598   2.032   9.150
 4146POPC   GL113837  27.593   1.983   8.850
 4146POPC   GL213838  27.501   1.919   8.850
 4146POPC   C1A13839  27.574   1.976   8.550
 4146POPC   D2A13840  27.566   1.965   8.250
 4146POPC   C3A13841  27.590   2.021   7.950
 4146POPC   C4A13842  27.619   1.985   7.650
 4146POPC   C1B13843  27.412   1.889   8.550
 4146POPC   C2B13844  27.389   1.891   8.250
 4146POPC   C3B13845  27.408   1.915   7.950
 4146POPC   C4B13846  27.395   1.893   7.650
 4147POPC   NC313847  22.113  19.803   9.450
 4147POPC   PO413848  22.118  19.880   9.150
 4147POPC   GL113849  22.203  19.825   8.850
 4147POPC   GL213850  22.221  19.951   8.850
 4147POPC   C1A13851  22.191  19.825   8.550
 4147POPC   D2A13852  22.113  19.802   8.250
 4147POPC   C3A13853  22.173  19.789   7.950
 4147POPC   C4A13854  22.123  19.878   7.650
 4147POPC   C1B13855  22.280  20.119   8.550
 4147POPC   C2B13856  22.216  20.090   8.250
 4147POPC   C3B13857  22.239  20.050   7.950
 4147POPC   C4B13858  22.196  20.089   7.650
 4148POPC   NC313859   5.895  27.623   9.450
 4148POPC   PO413860   5.874  27.598   9.150
 4148POPC   GL113861   5.860  27.549   8.850
 4148POPC   GL213862   5.983  27.610   8.850
 4148POPC   C1A13863   5.907  27.588   8.550
 4148POPC   D2A13864   5.819  27.576   8.250
 4148POPC   C3A13865   5.847  27.636   7.950
 4148POPC   C4A13866   5.828  27.639   7.650
 4148POPC   C1B13867   6.094  27.621   8.550
 4148POPC   C2B13868   6.150  27.685   8.250
 4148POPC   C3B13869   6.116  27.711   7.950
 4148POPC   C4B13870   6.088  27.714   7.650
 4149POPC   NC313871  29.168   8.969   9.450
 4149POPC   PO413872  29.146   9.015   9.150
 4149POPC   GL113873  29.112   8.974   8.850
 4149POPC   GL213874  29.025   9.013   8.850
 4149POPC   C1A13875  29.163   8.983   8.550
 4149POPC   D2A13876  29.102   8.978   8.250
 4149POPC   C3A13877  29.146   8.984   7.950
 4149POPC   C4A13878  29.116   9.019   7.650
 4149POPC   C1B13879  28.969   9.159   8.550
 4149POPC   C2B13880  28.893   9.100   8.250
 4149POPC   C3B13881  28.967   9.130   7.950
 4149POPC   C4B13882  28.915   9.125   7.650
 4150POPC   NC313883  29.875  31.446   9.450
 4150POPC   PO413884  29.912  31.451   9.150
 4150POPC   GL113885  29.924  31.461   8.850
 4150POPC   GL213886  30.070  31.429   8.850
 4150POPC   C1A13887  29.904  31.444   8.550
 4150POPC   D2A13888  29.917  31.445   8.250
 4150POPC   C3A13889  29.886  31.443   7.950
 4150POPC   C4A13890  29.949  31.483   7.650
 4150POPC   C1B13891  30.144  31.515   8.550
 4150POPC   C2B13892  30.176  31.501   8.250
 4150POPC   C3B13893  30.171  31.463   7.950
 4150POPC   C4B13894  30.195  31.470   7.650
 4151POPC   NC313895  23.707  33.768   9.450
 4151POPC   PO413896  23.702  33.775   9.150
 4151POPC   GL113897  23.676  33.824   8.850
 4151POPC   GL213898  23.631  33.839   8.850
 4151POPC   C1A13899  23.669  33.845   8.550
 4151POPC   D2A13900  23.720  33.836   8.250
 4151POPC   C3A13901  23.695  33.758   7.950
 4151POPC   C4A13902  23.676  33.768   7.650
 4151POPC   C1B13903  23.455  33.862   8.550
 4151POPC   C2B13904  23.489  33.877   8.250
 4151POPC   C3B13905  23.523  33.866   7.950
 4151POPC   C4B13906  23.497  33.883   7.650
 4152POPC   NC313907  21.400  43.136   9.450
 4152POPC   PO413908  21.398  43.075   9.150
 4152POPC   GL113909  21.352  43.124   8.850
 4152POPC   GL213910  21.496  43.111   8.850
 4152POPC   C1A13911  21.420  43.159   8.550
 4152POPC   D2A13912  21.347  43.148   8.250
 4152POPC   C3A13913  21.381  43.088   7.950
 4152POPC   C4A13914  21.379  43.122   7.650
 4152POPC   C1B13915  21.622  43.079   8.550
 4152POPC   C2B13916  21.602  43.061   8.250
 4152POPC   C3B13917  21.596  43.126   7.950
 4152POPC   C4B13918  21.656  43.128   7.650
 4153POPC   NC313919  36.950  32.276   9.450
 4153POPC   PO413920  36.943  32.276   9.150
 4153POPC   GL113921  36.932  32.256   8.850
 4153POPC   GL213922  36.975  32.398   8.850
 4153POPC   C1A13923  36.889  32.218   8.550
 4153POPC   D2A13924  36.943  32.277   8.250
 4153POPC   C3A13925  36.857  32.213   7.950
 4153POPC   C4A13926  36.884  32.256   7.650
 4153POPC   C1B13927  37.012  32.473   8.550
 4153POPC   C2B13928  37.017  32.442   8.250
 4153POPC   C3B13929  36.981  32.454   7.950
 4153POPC   C4B13930  36.962  32.476   7.650
 4154POPC   NC313931  43.838   6.668   9.450
 4154POPC   PO413932  43.866   6.648   9.150
 4154POPC   GL113933  43.875   6.614   8.850
 4154POPC   GL213934  43.870   6.507   8.850
 4154POPC   C1A13935  43.846   6.636   8.550
 4154POPC   D2A13936  43.895   6.692   8.250
 4154POPC   C3A13937  43.930   6.662   7.950
 4154POPC   C4A13938  43.842   6.644   7.650
 4154POPC   C1B13939  43.737   6.390   8.550
 4154POPC   C2B13940  43.767   6.445   8.250
 4154POPC   C3B13941  43.761   6.387   7.950
 4154POPC   C4B13942  43.824   6.398   7.650
 4155POPC   NC313943  19.038  13.596   9.450
 4155POPC   PO413944  19.108  13.605   9.150
 4155POPC   GL113945  19.038  13.591   8.850
 4155POPC   GL213946  19.165  13.636   8.850
 4155POPC   C1A13947  19.079  13.610   8.550
 4155POPC   D2A13948  19.083  13.607   8.250
 4155POPC   C3A13949  19.043  13.650   7.950
 4155POPC   C4A13950  19.025  13.639   7.650
 4155POPC   C1B13951  19.332  13.677   8.550
 4155POPC   C2B13952  19.297  13.706   8.250
 4155POPC   C3B13953  19.331  13.686   7.950
 4155POPC   C4B13954  19.279  13.668   7.650
 4156POPC   NC313955   3.523  11.343   9.450
 4156POPC   PO413956   3.578  11.309   9.150
 4156POPC   GL113957   3.554  11.316   8.850
 4156POPC   GL213958   3.565  11.447   8.850
 4156POPC   C1A13959   3.504  11.295   8.550
 4156POPC   D2A13960   3.499  11.267   8.250
 4156POPC   C3A13961   3.498  11.330   7.950
 4156POPC   C4A13962   3.528  11.293   7.650
 4156POPC   C1B13963   3.659  11.502   8.550
 4156POPC   C2B13964   3.629  11.521   8.250
 4156POPC   C3B13965   3.596  11.481   7.950
 4156POPC   C4B13966   3.660  11.543   7.650
 4157POPC   NC313967  28.399  26.040   9.450
 4157POPC   PO413968  28.402  26.085   9.150
 4157POPC   GL113969  28.375  26.077   8.850
 4157POPC   GL213970  28.364  26.127   8.850
 4157POPC   C1A13971  28.402  26.024   8.550
 4157POPC   D2A13972  28.335  26.069   8.250
 4157POPC   C3A13973  28.385  26.024   7.950
 4157POPC   C4A13974  28.405  26.091   7.650
 4157POPC   C1B13975  28.432  26.308   8.550
 4157POPC   C2B13976  28.411  26.321   8.250
 4157POPC   C3B13977  28.412  26.256   7.950
 4157POPC   C4B13978  28.423  26.308   7.650
 4158POPC   NC313979  13.617  33.801   9.450
 4158POPC   PO413980  13.583  33.753   9.150
 4158POPC   GL113981  13.604  33.801   8.850
 4158POPC   GL213982  13.769  33.774   8.850
 4158POPC   C1A13983  13.628  33.783   8.550
 4158POPC   D2A13984  13.628  33.837   8.250
 4158POPC   C3A13985  13.649  33.781   7.950
 4158POPC   C4A13986  13.610  33.824   7.650
 4158POPC   C1B13987  13.875  33.723   8.550
 4158POPC   C2B13988  13.836  33.706   8.250
 4158POPC   C3B13989  13.857  33.707   7.950
 4158POPC   C4B13990  13.895  33.670   7.650
 4159POPC   NC313991  29.874   4.297   9.450
 4159POPC   PO413992  29.943   4.324   9.150
 4159POPC   GL113993  29.921   4.280   8.850
 4159POPC   GL213994  30.043   4.305   8.850
 4159POPC   C1A13995  29.885   4.322   8.550
 4159POPC   D2A13996  29.943   4.287   8.250
 4159POPC   C3A13997  29.929   4.322   7.950
 4159POPC   C4A13998  29.888   4.311   7.650
 4159POPC   C1B13999  30.155   4.277   8.550
 4159POPC   C2B14000  30.113   4.285   8.250
 4159POPC   C3B14001  30.176   4.275   7.950
 4159POPC   C4B14002  30.144   4.229   7.650
 4160POPC   NC314003  12.873   6.602   9.450
 4160POPC   PO414004  12.891   6.674   9.150
 4160POPC   GL114005  12.805   6.615   8.850
 4160POPC   GL214006  12.956   6.733   8.850
 4160POPC   C1A14007  12.844   6.624   8.550
 4160POPC   D2A14008  12.886   6.622   8.250
 4160POPC   C3A14009  12.846   6.689   7.950
 4160POPC   C4A14010  12.893   6.675   7.650
 4160POPC   C1B14011  13.066   6.789   8.550
 4160POPC   C2B14012  13.054   6.842   8.250
 4160POPC   C3B14013  13.060   6.830   7.950
 4160POPC   C4B14014  12.990   6.787   7.650
 4161POPC   NC314015   9.731  15.146   9.450
 4161POPC   PO414016   9.779  15.190   9.150
 4161POPC   GL114017   9.782  15.205   8.850
 4161POPC   GL214018   9.848  15.114   8.850
 4161POPC   C1A14019   9.774  15.156   8.550
 4161POPC   D2A14020   9.744  15.139   8.250
 4161POPC   C3A14021   9.769  15.190   7.950
 4161POPC   C4A14022   9.771  15.140   7.650
 4161POPC   C1B14023   9.929  15.003   8.550
 4161POPC   C2B14024   9.857  14.992   8.250
 4161POPC   C3B14025   9.926  14.976   7.950
 4161POPC   C4B14026   9.909  15.000   7.650
 4162POPC   NC314027  44.663   6.658   9.450
 4162POPC   PO414028  44.673   6.626   9.150
 4162POPC   GL114029  44.617   6.686   8.850
 4162POPC   GL214030  44.594   6.563   8.850
 4162POPC   C1A14031  44.643   6.657   8.550
 4162POPC   D2A14032  44.627   6.686   8.250
 4162POPC   C3A14033  44.662   6.629   7.950
 4162POPC   C4A14034  44.671   6.636   7.650
 4162POPC   C1B14035  44.592   6.412   8.550
 4162POPC   C2B14036  44.564   6.391   8.250
 4162POPC   C3B14037  44.574   6.419   7.950
 4162POPC   C4B14038  44.621   6.441   7.650
 4163POPC   NC314039  29.182   1.195   9.450
 4163POPC   PO414040  29.137   1.226   9.150
 4163POPC   GL114041  29.180   1.190   8.850
 4163POPC   GL214042  29.053   1.229   8.850
 4163POPC   C1A14043  29.184   1.209   8.550
 4163POPC   D2A14044  29.171   1.257   8.250
 4163POPC   C3A14045  29.131   1.197   7.950
 4163POPC   C4A14046  29.143   1.263   7.650
 4163POPC   C1B14047  28.935   1.131   8.550
 4163POPC   C2B14048  28.902   1.118   8.250
 4163POPC   C3B14049  28.943   1.139   7.950
 4163POPC   C4B14050  28.919   1.178   7.650
 4164POPC   NC314051   5.848  37.723   9.450
 4164POPC   PO414052   5.892  37.671   9.150
 4164POPC   GL114053   5.872  37.636   8.850
 4164POPC   GL214054   5.913  37.521   8.850
 4164POPC   C1A14055   5.900  37.639   8.550
 4164POPC   D2A14056   5.852  37.656   8.250
 4164POPC   C3A14057   5.907  37.637   7.950
 4164POPC   C4A14058   5.895  37.644   7.650
 4164POPC   C1B14059   5.933  37.471   8.550
 4164POPC   C2B14060   5.946  37.428   8.250
 4164POPC   C3B14061   5.976  37.421   7.950
 4164POPC   C4B14062   5.978  37.453   7.650
 4165POPC   NC314063   1.947  22.902   9.450
 4165POPC   PO414064   1.972  22.955   9.150
 4165POPC   GL114065   1.948  22.898   8.850
 4165POPC   GL214066   1.967  22.812   8.850
 4165POPC   C1A14067   1.988  22.902   8.550
 4165POPC   D2A14068   1.982  22.909   8.250
 4165POPC   C3A14069   1.954  22.953   7.950
 4165POPC   C4A14070   1.975  22.941   7.650
 4165POPC   C1B14071   1.906  22.669   8.550
 4165POPC   C2B14072   1.850  22.715   8.250
 4165POPC   C3B14073   1.925  22.693   7.950
 4165POPC   C4B14074   1.915  22.671   7.650
 4166POPC   NC314075  40.825  43.934   9.450
 4166POPC   PO414076  40.772  43.858   9.150
 4166POPC   GL114077  40.757  43.892   8.850
 4166POPC   GL214078  40.827  43.975   8.850
 4166POPC   C1A14079  40.793  43.913   8.550
 4166POPC   D2A14080  40.759  43.842   8.250
 4166POPC   C3A14081  40.773  43.864   7.950
 4166POPC   C4A14082  40.749  43.876   7.650
 4166POPC   C1B14083  40.840  44.157   8.550
 4166POPC   C2B14084  40.840  44.129   8.250
 4166POPC   C3B14085  40.818  44.096   7.950
 4166POPC   C4B14086  40.793  44.108   7.650
 4167POPC   NC314087   5.049   7.424   9.450
 4167POPC   PO414088   5.098   7.433   9.150
 4167POPC   GL114089   5.077   7.377   8.850
 4167POPC   GL214090   5.227   7.356   8.850
 4167POPC   C1A14091   5.092   7.458   8.550
 4167POPC   D2A14092   5.106   7.438   8.250
 4167POPC   C3A14093   5.102   7.458   7.950
 4167POPC   C4A14094   5.119   7.442   7.650
 4167POPC   C1B14095   5.390   7.370   8.550
 4167POPC   C2B14096   5.332   7.429   8.250
 4167POPC   C3B14097   5.362   7.353   7.950
 4167POPC   C4B14098   5.308   7.369   7.650
 4168POPC   NC314099  31.426  14.418   9.450
 4168POPC   PO414100  31.494  14.376   9.150
 4168POPC   GL114101  31.497  14.420   8.850
 4168POPC   GL214102  31.535  14.239   8.850
 4168POPC   C1A14103  31.500  14.389   8.550
 4168POPC   D2A14104  31.512  14.368   8.250
 4168POPC   C3A14105  31.519  14.447   7.950
 4168POPC   C4A14106  31.513  14.421   7.650
 4168POPC   C1B14107  31.532  14.145   8.550
 4168POPC   C2B14108  31.490  14.143   8.250
 4168POPC   C3B14109  31.489  14.184   7.950
 4168POPC   C4B14110  31.483  14.151   7.650
 4169POPC   NC314111   7.447  19.013   9.450
 4169POPC   PO414112   7.436  19.063   9.150
 4169POPC   GL114113   7.401  19.016   8.850
 4169POPC   GL214114   7.281  19.066   8.850
 4169POPC   C1A14115   7.417  19.034   8.550
 4169POPC   D2A14116   7.448  19.059   8.250
 4169POPC   C3A14117   7.458  19.023   7.950
 4169POPC   C4A14118   7.406  19.018   7.650
 4169POPC   C1B14119   7.158  19.044   8.550
 4169POPC   C2B14120   7.209  19.122   8.250
 4169POPC   C3B14121   7.196  19.074   7.950
 4169POPC   C4B14122   7.141  19.135   7.650
 4170POPC   NC314123  33.791   3.584   9.450
 4170POPC   PO414124  33.813   3.546   9.150
 4170POPC   GL114125  33.832   3.562   8.850
 4170POPC   GL214126  33.738   3.461   8.850
 4170POPC   C1A14127  33.802   3.566   8.550
 4170POPC   D2A14128  33.829   3.555   8.250
 4170POPC   C3A14129  33.776   3.573   7.950
 4170POPC   C4A14130  33.844   3.559   7.650
 4170POPC   C1B14131  33.625   3.322   8.550
 4170POPC   C2B14132  33.687   3.387   8.250
 4170POPC   C3B14133  33.647   3.383   7.950
 4170POPC   C4B14134  33.617   3.388   7.650
 4171POPC   NC314135  33.817  33.844   9.450
 4171POPC   PO414136  33.797  33.806   9.150
 4171POPC   GL114137  33.757  33.850   8.850
 4171POPC   GL214138  33.732  33.931   8.850
 4171POPC   C1A14139  33.843  33.787   8.550
 4171POPC   D2A14140  33.795  33.780   8.250
 4171POPC   C3A14141  33.823  33.846   7.950
 4171POPC   C4A14142  33.834  33.816   7.650
 4171POPC   C1B14143  33.711  34.001   8.550
 4171POPC   C2B14144  33.756  34.071   8.250
 4171POPC   C3B14145  33.697  34.049   7.950
 4171POPC   C4B14146  33.711  34.082   7.650
 4172POPC   NC314147  22.194  25.312   9.450
 4172POPC   PO414148  22.191  25.281   9.150
 4172POPC   GL114149  22.152  25.245   8.850
 4172POPC   GL214150  22.094  25.333   8.850
 4172POPC   C1A14151  22.117  25.219   8.550
 4172POPC   D2A14152  22.119  25.239   8.250
 4172POPC   C3A14153  22.168  25.310   7.950
 4172POPC   C4A14154  22.181  25.299   7.650
 4172POPC   C1B14155  22.025  25.504   8.550
 4172POPC   C2B14156  22.068  25.497   8.250
 4172POPC   C3B14157  21.977  25.426   7.950
 4172POPC   C4B14158  22.014  25.509   7.650
 4173POPC   NC314159  12.807  29.155   9.450
 4173POPC   PO414160  12.825  29.176   9.150
 4173POPC   GL114161  12.822  29.111   8.850
 4173POPC   GL214162  12.731  29.141   8.850
 4173POPC   C1A14163  12.812  29.191   8.550
 4173POPC   D2A14164  12.848  29.148   8.250
 4173POPC   C3A14165  12.807  29.178   7.950
 4173POPC   C4A14166  12.892  29.181   7.650
 4173POPC   C1B14167  12.589  29.126   8.550
 4173POPC   C2B14168  12.564  29.140   8.250
 4173POPC   C3B14169  12.571  29.138   7.950
 4173POPC   C4B14170  12.638  29.185   7.650
 4174POPC   NC314171  22.167  26.004   9.450
 4174POPC   PO414172  22.149  26.077   9.150
 4174POPC   GL114173  22.170  26.014   8.850
 4174POPC   GL214174  22.179  25.890   8.850
 4174POPC   C1A14175  22.209  26.083   8.550
 4174POPC   D2A14176  22.118  26.041   8.250
 4174POPC   C3A14177  22.151  26.034   7.950
 4174POPC   C4A14178  22.207  26.014   7.650
 4174POPC   C1B14179  22.085  25.808   8.550
 4174POPC   C2B14180  22.087  25.761   8.250
 4174POPC   C3B14181  22.167  25.757   7.950
 4174POPC   C4B14182  22.135  25.775   7.650
 4175POPC   NC314183  15.926  11.308   9.450
 4175POPC   PO414184  15.946  11.268   9.150
 4175POPC   GL114185  15.980  11.326   8.850
 4175POPC   GL214186  16.037  11.263   8.850
 4175POPC   C1A14187  15.986  11.272   8.550
 4175POPC   D2A14188  15.967  11.309   8.250
 4175POPC   C3A14189  15.921  11.258   7.950
 4175POPC   C4A14190  15.986  11.252   7.650
 4175POPC   C1B14191  16.221  11.207   8.550
 4175POPC   C2B14192  16.207  11.211   8.250
 4175POPC   C3B14193  16.233  11.250   7.950
 4175POPC   C4B14194  16.224  11.209   7.650
 4176POPC   NC314195  12.819  31.450   9.450
 4176POPC   PO414196  12.879  31.424   9.150
 4176POPC   GL114197  12.871  31.436   8.850
 4176POPC   GL214198  12.947  31.611   8.850
 4176POPC   C1A14199  12.873  31.494   8.550
 4176POPC   D2A14200  12.899  31.448   8.250
 4176POPC   C3A14201  12.824  31.432   7.950
 4176POPC   C4A14202  12.824  31.506   7.650
 4176POPC   C1B14203  12.913  31.676   8.550
 4176POPC   C2B14204  12.983  31.690   8.250
 4176POPC   C3B14205  12.911  31.656   7.950
 4176POPC   C4B14206  12.918  31.692   7.650
 4177POPC   NC314207  18.309   5.911   9.450
 4177POPC   PO414208  18.248   5.917   9.150
 4177POPC   GL114209  18.328   5.880   8.850
 4177POPC   GL214210  18.228   5.754   8.850
 4177POPC   C1A14211  18.245   5.852   8.550
 4177POPC   D2A14212  18.277   5.903   8.250
 4177POPC   C3A14213  18.312   5.863   7.950
 4177POPC   C4A14214  18.297   5.887   7.650
 4177POPC   C1B14215  18.120   5.656   8.550
 4177POPC   C2B14216  18.179   5.696   8.250
 4177POPC   C3B14217  18.109   5.653   7.950
 4177POPC   C4B14218  18.167   5.706   7.650
 4178POPC   NC314219  40.044   5.060   9.450
 4178POPC   PO414220  40.039   5.121   9.150
 4178POPC   GL114221  40.043   5.104   8.850
 4178POPC   GL214222  40.048   5.188   8.850
 4178POPC   C1A14223  39.985   5.058   8.550
 4178POPC   D2A14224  40.003   5.090   8.250
 4178POPC   C3A14225  40.055   5.130   7.950
 4178POPC   C4A14226  40.040   5.128   7.650
 4178POPC   C1B14227  40.193   5.286   8.550
 4178POPC   C2B14228  40.166   5.330   8.250
 4178POPC   C3B14229  40.194   5.286   7.950
 4178POPC   C4B14230  40.196   5.269   7.650
 4179POPC   NC314231  36.870   6.643   9.450
 4179POPC   PO414232  36.898   6.647   9.150
 4179POPC   GL114233  36.937   6.623   8.850
 4179POPC   GL214234  36.810   6.757   8.850
 4179POPC   C1A14235  36.946   6.615   8.550
 4179POPC   D2A14236  36.913   6.691   8.250
 4179POPC   C3A14237  36.862   6.680   7.950
 4179POPC   C4A14238  36.927   6.638   7.650
 4179POPC   C1B14239  36.797   6.884   8.550
 4179POPC   C2B14240  36.783   6.859   8.250
 4179POPC   C3B14241  36.736   6.874   7.950
 4179POPC   C4B14242  36.782   6.891   7.650
 4180POPC   NC314243  14.373  43.063   9.450
 4180POPC   PO414244  14.431  43.106   9.150
 4180POPC   GL114245  14.432  43.086   8.850
 4180POPC   GL214246  14.535  43.083   8.850
 4180POPC   C1A14247  14.431  43.080   8.550
 4180POPC   D2A14248  14.400  43.136   8.250
 4180POPC   C3A14249  14.377  43.062   7.950
 4180POPC   C4A14250  14.397  43.116   7.650
 4180POPC   C1B14251  14.671  43.057   8.550
 4180POPC   C2B14252  14.665  43.065   8.250
 4180POPC   C3B14253  14.612  42.989   7.950
 4180POPC   C4B14254  14.654  43.001   7.650
 4181POPC   NC314255  12.824  26.018   9.450
 4181POPC   PO414256  12.872  25.997   9.150
 4181POPC   GL114257  12.861  26.048   8.850
 4181POPC   GL214258  12.887  25.967   8.850
 4181POPC   C1A14259  12.845  26.005   8.550
 4181POPC   D2A14260  12.802  26.084   8.250
 4181POPC   C3A14261  12.828  26.050   7.950
 4181POPC   C4A14262  12.832  26.015   7.650
 4181POPC   C1B14263  12.897  25.755   8.550
 4181POPC   C2B14264  12.845  25.797   8.250
 4181POPC   C3B14265  12.930  25.801   7.950
 4181POPC   C4B14266  12.881  25.804   7.650
 4182POPC   NC314267  12.113  36.910   9.450
 4182POPC   PO414268  12.056  36.932   9.150
 4182POPC   GL114269  12.048  36.872   8.850
 4182POPC   GL214270  12.005  36.948   8.850
 4182POPC   C1A14271  12.064  36.928   8.550
 4182POPC   D2A14272  12.074  36.911   8.250
 4182POPC   C3A14273  12.106  36.894   7.950
 4182POPC   C4A14274  12.048  36.926   7.650
 4182POPC   C1B14275  11.907  37.075   8.550
 4182POPC   C2B14276  11.905  37.043   8.250
 4182POPC   C3B14277  11.889  37.077   7.950
 4182POPC   C4B14278  11.871  37.039   7.650
 4183POPC   NC314279   5.098  40.737   9.450
 4183POPC   PO414280   5.128  40.796   9.150
 4183POPC   GL114281   5.079  40.833   8.850
 4183POPC   GL214282   4.972  40.757   8.850
 4183POPC   C1A14283   5.077  40.796   8.550
 4183POPC   D2A14284   5.108  40.767   8.250
 4183POPC   C3A14285   5.141  40.774   7.950
 4183POPC   C4A14286   5.051  40.826   7.650
 4183POPC   C1B14287   4.846  40.771   8.550
 4183POPC   C2B14288   4.864  40.691   8.250
 4183POPC   C3B14289   4.871  40.724   7.950
 4183POPC   C4B14290   4.814  40.687   7.650
 4184POPC   NC314291   2.038  43.071   9.450
 4184POPC   PO414292   1.979  43.121   9.150
 4184POPC   GL114293   1.970  43.091   8.850
 4184POPC   GL214294   2.115  43.142   8.850
 4184POPC   C1A14295   1.967  43.101   8.550
 4184POPC   D2A14296   1.949  43.080   8.250
 4184POPC   C3A14297   1.944  43.065   7.950
 4184POPC   C4A14298   1.999  43.133   7.650
 4184POPC   C1B14299   2.183  43.230   8.550
 4184POPC   C2B14300   2.210  43.179   8.250
 4184POPC   C3B14301   2.202  43.238   7.950
 4184POPC   C4B14302   2.214  43.224   7.650
 4185POPC   NC314303  22.926  41.570   9.450
 4185POPC   PO414304  22.902  41.561   9.150
 4185POPC   GL114305  22.896  41.574   8.850
 4185POPC   GL214306  23.051  41.687   8.850
 4185POPC   C1A14307  22.974  41.559   8.550
 4185POPC   D2A14308  22.916  41.587   8.250
 4185POPC   C3A14309  22.932  41.570   7.950
 4185POPC   C4A14310  22.904  41.597   7.650
 4185POPC   C1B14311  23.094  41.815   8.550
 4185POPC   C2B14312  23.097  41.817   8.250
 4185POPC   C3B14313  23.060  41.796   7.950
 4185POPC   C4B14314  23.107  41.737   7.650
 4186POPC   NC314315   8.156   7.404   9.450
 4186POPC   PO414316   8.194   7.453   9.150
 4186POPC   GL114317   8.194   7.397   8.850
 4186POPC   GL214318   8.257   7.494   8.850
 4186POPC   C1A14319   8.199   7.446   8.550
 4186POPC   D2A14320   8.172   7.468   8.250
 4186POPC   C3A14321   8.239   7.426   7.950
 4186POPC   C4A14322   8.148   7.390   7.650
 4186POPC   C1B14323   8.330   7.662   8.550
 4186POPC   C2B14324   8.314   7.683   8.250
 4186POPC   C3B14325   8.315   7.625   7.950
 4186POPC   C4B14326   8.285   7.644   7.650
 4187POPC   NC314327  41.567   2.717   9.450
 4187POPC   PO414328  41.563   2.769   9.150
 4187POPC   GL114329  41.596   2.761   8.850
 4187POPC   GL214330  41.553   2.930   8.850
 4187POPC   C1A14331  41.565   2.763   8.550
 4187POPC   D2A14332  41.556   2.798   8.250
 4187POPC   C3A14333  41.512   2.813   7.950
 4187POPC   C4A14334  41.577   2.789   7.650
 4187POPC   C1B14335  41.634   3.015   8.550
 4187POPC   C2B14336  41.571   3.039   8.250
 4187POPC   C3B14337  41.571   3.014   7.950
 4187POPC   C4B14338  41.598   2.980   7.650
 4188POPC   NC314339  41.589   6.692   9.450
 4188POPC   PO414340  41.603   6.687   9.150
 4188POPC   GL114341  41.534   6.660   8.850
 4188POPC   GL214342  41.586   6.777   8.850
 4188POPC   C1A14343  41.592   6.647   8.550
 4188POPC   D2A14344  41.540   6.622   8.250
 4188POPC   C3A14345  41.554   6.647   7.950
 4188POPC   C4A14346  41.605   6.612   7.650
 4188POPC   C1B14347  41.541   6.899   8.550
 4188POPC   C2B14348  41.544   6.919   8.250
 4188POPC   C3B14349  41.610   6.854   7.950
 4188POPC   C4B14350  41.544   6.859   7.650
 4189POPC   NC314351  11.254  30.669   9.450
 4189POPC   PO414352  11.338  30.679   9.150
 4189POPC   GL114353  11.321  30.699   8.850
 4189POPC   GL214354  11.382  30.705   8.850
 4189POPC   C1A14355  11.303  30.693   8.550
 4189POPC   D2A14356  11.321  30.705   8.250
 4189POPC   C3A14357  11.327  30.684   7.950
 4189POPC   C4A14358  11.342  30.711   7.650
 4189POPC   C1B14359  11.550  30.745   8.550
 4189POPC   C2B14360  11.524  30.764   8.250
 4189POPC   C3B14361  11.524  30.786   7.950
 4189POPC   C4B14362  11.535  30.753   7.650
 4190POPC   NC314363  43.844   1.967   9.450
 4190POPC   PO414364  43.843   1.982   9.150
 4190POPC   GL114365  43.892   2.011   8.850
 4190POPC   GL214366  43.930   1.913   8.850
 4190POPC   C1A14367  43.886   2.000   8.550
 4190POPC   D2A14368  43.922   2.015   8.250
 4190POPC   C3A14369  43.892   2.028   7.950
 4190POPC   C4A14370  43.897   2.017   7.650
 4190POPC   C1B14371  43.905   1.751   8.550
 4190POPC   C2B14372  43.960   1.740   8.250
 4190POPC   C3B14373  43.943   1.715   7.950
 4190POPC   C4B14374  43.908   1.704   7.650
 4191POPC   NC314375  42.352  13.583   9.450
 4191POPC   PO414376  42.377  13.600   9.150
 4191POPC   GL114377  42.360  13.622   8.850
 4191POPC   GL214378  42.428  13.620   8.850
 4191POPC   C1A14379  42.325  13.610   8.550
 4191POPC   D2A14380  42.288  13.603   8.250
 4191POPC   C3A14381  42.305  13.657   7.950
 4191POPC   C4A14382  42.304  13.637   7.650
 4191POPC   C1B14383  42.556  13.627   8.550
 4191POPC   C2B14384  42.611  13.632   8.250
 4191POPC   C3B14385  42.556  13.575   7.950
 4191POPC   C4B14386  42.538  13.566   7.650
 4192POPC   NC314387   5.051  35.355   9.450
 4192POPC   PO414388   5.072  35.310   9.150
 4192POPC   GL114389   5.067  35.325   8.850
 4192POPC   GL214390   5.197  35.396   8.850
 4192POPC   C1A14391   5.046  35.398   8.550
 4192POPC   D2A14392   5.070  35.336   8.250
 4192POPC   C3A14393   5.057  35.373   7.950
 4192POPC   C4A14394   5.136  35.311   7.650
 4192POPC   C1B14395   5.386  35.410   8.550
 4192POPC   C2B14396   5.373  35.328   8.250
 4192POPC   C3B14397   5.340  35.362   7.950
 4192POPC   C4B14398   5.314  35.347   7.650
 4193POPC   NC314399  17.473   8.165   9.450
 4193POPC   PO414400  17.539   8.224   9.150
 4193POPC   GL114401  17.509   8.216   8.850
 4193POPC   GL214402  17.542   8.082   8.850
 4193POPC   C1A14403  17.515   8.219   8.550
 4193POPC   D2A14404  17.527   8.170   8.250
 4193POPC   C3A14405  17.486   8.193   7.950
 4193POPC   C4A14406  17.491   8.175   7.650
 4193POPC   C1B14407  17.525   7.911   8.550
 4193POPC   C2B14408  17.541   7.975   8.250
 4193POPC   C3B14409  17.618   7.907   7.950
 4193POPC   C4B14410  17.569   7.942   7.650
 4194POPC   NC314411  33.063  26.846   9.450
 4194POPC   PO414412  33.040  26.777   9.150
 4194POPC   GL114413  33.048  26.785   8.850
 4194POPC   GL214414  33.110  26.825   8.850
 4194POPC   C1A14415  33.072  26.847   8.550
 4194POPC   D2A14416  32.992  26.858   8.250
 4194POPC   C3A14417  32.994  26.858   7.950
 4194POPC   C4A14418  33.022  26.842   7.650
 4194POPC   C1B14419  33.264  26.900   8.550
 4194POPC   C2B14420  33.223  26.872   8.250
 4194POPC   C3B14421  33.265  26.823   7.950
 4194POPC   C4B14422  33.283  26.833   7.650
 4195POPC   NC314423   2.735  22.900   9.450
 4195POPC   PO414424   2.736  22.934   9.150
 4195POPC   GL114425   2.784  22.911   8.850
 4195POPC   GL214426   2.655  22.876   8.850
 4195POPC   C1A14427   2.771  22.976   8.550
 4195POPC   D2A14428   2.759  22.906   8.250
 4195POPC   C3A14429   2.769  22.960   7.950
 4195POPC   C4A14430   2.740  22.930   7.650
 4195POPC   C1B14431   2.535  22.741   8.550
 4195POPC   C2B14432   2.556  22.835   8.250
 4195POPC   C3B14433   2.569  22.767   7.950
 4195POPC   C4B14434   2.601  22.750   7.650
 4196POPC   NC314435  36.146  22.983   9.450
 4196POPC   PO414436  36.166  22.890   9.150
 4196POPC   GL114437  36.168  22.930   8.850
 4196POPC   GL214438  35.990  22.961   8.850
 4196POPC   C1A14439  36.124  22.946   8.550
 4196POPC   D2A14440  36.146  22.901   8.250
 4196POPC   C3A14441  36.156  22.971   7.950
 4196POPC   C4A14442  36.078  22.914   7.650
 4196POPC   C1B14443  35.840  22.984   8.550
 4196POPC   C2B14444  35.883  23.002   8.250
 4196POPC   C3B14445  35.840  22.984   7.950
 4196POPC   C4B14446  35.882  22.992   7.650
 4197POPC   NC314447   3.499  32.997   9.450
 4197POPC   PO414448   3.501  33.045   9.150
 4197POPC   GL114449   3.523  33.018   8.850
 4197POPC   GL214450   3.513  33.107   8.850
 4197POPC   C1A14451   3.496  33.056   8.550
 4197POPC   D2A14452   3.523  32.984   8.250
 4197POPC   C3A14453   3.500  32.979   7.950
 4197POPC   C4A14454   3.511  33.052   7.650
 4197POPC   C1B14455   3.511  33.274   8.550
 4197POPC   C2B14456   3.547  33.281   8.250
 4197POPC   C3B14457   3.539  33.305   7.950
 4197POPC   C4B14458   3.478  33.232   7.650
 4198POPC   NC314459   8.184  41.572   9.450
 4198POPC   PO414460   8.233  41.573   9.150
 4198POPC   GL114461   8.154  41.555   8.850
 4198POPC   GL214462   8.283  41.569   8.850
 4198POPC   C1A14463   8.222  41.592   8.550
 4198POPC   D2A14464   8.245  41.538   8.250
 4198POPC   C3A14465   8.191  41.509   7.950
 4198POPC   C4A14466   8.238  41.586   7.650
 4198POPC   C1B14467   8.455  41.630   8.550
 4198POPC   C2B14468   8.438  41.659   8.250
 4198POPC   C3B14469   8.438  41.617   7.950
 4198POPC   C4B14470   8.390  41.621   7.650
 4199POPC   NC314471   5.114   2.811   9.450
 4199POPC   PO414472   5.046   2.793   9.150
 4199POPC   GL114473   5.067   2.794   8.850
 4199POPC   GL214474   5.187   2.824   8.850
 4199POPC   C1A14475   5.069   2.716   8.550
 4199POPC   D2A14476   5.073   2.782   8.250
 4199POPC   C3A14477   5.080   2.761   7.950
 4199POPC   C4A14478   5.085   2.811   7.650
 4199POPC   C1B14479   5.314   2.885   8.550
 4199POPC   C2B14480   5.327   2.809   8.250
 4199POPC   C3B14481   5.301   2.792   7.950
 4199POPC   C4B14482   5.309   2.826   7.650
 4200POPC   NC314483  43.871  29.959   9.450
 4200POPC   PO414484  43.847  29.958   9.150
 4200POPC   GL114485  43.931  29.958   8.850
 4200POPC   GL214486  43.794  29.809   8.850
 4200POPC   C1A14487  43.877  29.878   8.550
 4200POPC   D2A14488  43.839  29.883   8.250
 4200POPC   C3A14489  43.877  29.958   7.950
 4200POPC   C4A14490  43.887  29.878   7.650
 4200POPC   C1B14491  43.726  29.696   8.550
 4200POPC   C2B14492  43.780  29.700   8.250
 4200POPC   C3B14493  43.728  29.740   7.950
 4200POPC   C4B14494  43.736  29.676   7.650
 4201POPC   NC314495  22.179  35.341   9.450
 4201POPC   PO414496  22.179  35.352   9.150
 4201POPC   GL114497  22.208  35.352   8.850
 4201POPC   GL214498  22.248  35.253   8.850
 4201POPC   C1A14499  22.205  35.374   8.550
 4201POPC   D2A14500  22.193  35.372   8.250
 4201POPC   C3A14501  22.163  35.306   7.950
 4201POPC   C4A14502  22.198  35.388   7.650
 4201POPC   C1B14503  22.364  35.193   8.550
 4201POPC   C2B14504  22.367  35.213   8.250
 4201POPC   C3B14505  22.315  35.155   7.950
 4201POPC   C4B14506  22.333  35.213   7.650
 4202POPC   NC314507  10.477   4.275   9.450
 4202POPC   PO414508  10.519   4.291   9.150
 4202POPC   GL114509  10.546   4.352   8.850
 4202POPC   GL214510  10.488   4.213   8.850
 4202POPC   C1A14511  10.542   4.363   8.550
 4202POPC   D2A14512  10.558   4.365   8.250
 4202POPC   C3A14513  10.496   4.285   7.950
 4202POPC   C4A14514  10.571   4.304   7.650
 4202POPC   C1B14515  10.360   4.088   8.550
 4202POPC   C2B14516  10.348   4.101   8.250
 4202POPC   C3B14517  10.356   4.137   7.950
 4202POPC   C4B14518  10.370   4.107   7.650
 4203POPC   NC314519   0.442  15.997   9.450
 4203POPC   PO414520   0.427  15.931   9.150
 4203POPC   GL114521   0.481  15.936   8.850
 4203POPC   GL214522   0.402  16.076   8.850
 4203POPC   C1A14523   0.397  15.976   8.550
 4203POPC   D2A14524   0.424  15.910   8.250
 4203POPC   C3A14525   0.430  15.992   7.950
 4203POPC   C4A14526   0.464  15.985   7.650
 4203POPC   C1B14527   0.475  16.219   8.550
 4203POPC   C2B14528   0.474  16.176   8.250
 4203POPC   C3B14529   0.483  16.250   7.950
 4203POPC   C4B14530   0.469  16.205   7.650
 4204POPC   NC314531  40.806  34.564   9.450
 4204POPC   PO414532  40.764  34.618   9.150
 4204POPC   GL114533  40.750  34.609   8.850
 4204POPC   GL214534  40.654  34.546   8.850
 4204POPC   C1A14535  40.789  34.565   8.550
 4204POPC   D2A14536  40.782  34.600   8.250
 4204POPC   C3A14537  40.762  34.547   7.950
 4204POPC   C4A14538  40.743  34.577   7.650
 4204POPC   C1B14539  40.604  34.416   8.550
 4204POPC   C2B14540  40.615  34.476   8.250
 4204POPC   C3B14541  40.553  34.396   7.950
 4204POPC   C4B14542  40.545  34.406   7.650
 4205POPC   NC314543  39.211   8.174   9.450
 4205POPC   PO414544  39.269   8.178   9.150
 4205POPC   GL114545  39.221   8.199   8.850
 4205POPC   GL214546  39.348   8.132   8.850
 4205POPC   C1A14547  39.185   8.208   8.550
 4205POPC   D2A14548  39.205   8.203   8.250
 4205POPC   C3A14549  39.196   8.206   7.950
 4205POPC   C4A14550  39.197   8.183   7.650
 4205POPC   C1B14551  39.449   8.125   8.550
 4205POPC   C2B14552  39.492   8.164   8.250
 4205POPC   C3B14553  39.515   8.128   7.950
 4205POPC   C4B14554  39.470   8.164   7.650
 4206POPC   NC314555  36.132  43.092   9.450
 4206POPC   PO414556  36.096  43.109   9.150
 4206POPC   GL114557  36.086  43.128   8.850
 4206POPC   GL214558  36.015  43.058   8.850
 4206POPC   C1A14559  36.086  43.072   8.550
 4206POPC   D2A14560  36.127  43.109   8.250
 4206POPC   C3A14561  36.105  43.116   7.950
 4206POPC   C4A14562  36.146  43.160   7.650
 4206POPC   C1B14563  35.858  43.062   8.550
 4206POPC   C2B14564  35.918  43.020   8.250
 4206POPC   C3B14565  35.913  43.002   7.950
 4206POPC   C4B14566  35.929  43.045   7.650
 4207POPC   NC314567  38.423  39.237   9.450
 4207POPC   PO414568  38.423  39.197   9.150
 4207POPC   GL114569  38.488  39.251   8.850
 4207POPC   GL214570  38.555  39.183   8.850
 4207POPC   C1A14571  38.433  39.216   8.550
 4207POPC   D2A14572  38.457  39.208   8.250
 4207POPC   C3A14573  38.504  39.181   7.950
 4207POPC   C4A14574  38.481  39.182   7.650
 4207POPC   C1B14575  38.673  39.183   8.550
 4207POPC   C2B14576  38.729  39.122   8.250
 4207POPC   C3B14577  38.728  39.108   7.950
 4207POPC   C4B14578  38.679  39.195   7.650
 4208POPC   NC314579  44.617  14.445   9.450
 4208POPC   PO414580  44.699  14.442   9.150
 4208POPC   GL114581  44.677  14.377   8.850
 4208POPC   GL214582  44.556  14.296   8.850
 4208POPC   C1A14583  44.676  14.387   8.550
 4208POPC   D2A14584  44.699  14.450   8.250
 4208POPC   C3A14585  44.684  14.385   7.950
 4208POPC   C4A14586  44.711  14.379   7.650
 4208POPC   C1B14587  44.451  14.320   8.550
 4208POPC   C2B14588  44.402  14.240   8.250
 4208POPC   C3B14589  44.460  14.304   7.950
 4208POPC   C4B14590  44.479  14.299   7.650
 4209POPC   NC314591  40.808   4.279   9.450
 4209POPC   PO414592  40.792   4.309   9.150
 4209POPC   GL114593  40.779   4.320   8.850
 4209POPC   GL214594  40.858   4.191   8.850
 4209POPC   C1A14595  40.820   4.342   8.550
 4209POPC   D2A14596  40.740   4.364   8.250
 4209POPC   C3A14597  40.776   4.287   7.950
 4209POPC   C4A14598  40.773   4.341   7.650
 4209POPC   C1B14599  40.919   4.107   8.550
 4209POPC   C2B14600  40.892   4.067   8.250
 4209POPC   C3B14601  40.844   4.074   7.950
 4209POPC   C4B14602  40.910   4.068   7.650
 4210POPC   NC314603  38.470  15.161   9.450
 4210POPC   PO414604  38.472  15.172   9.150
 4210POPC   GL114605  38.469  15.137   8.850
 4210POPC   GL214606  38.569  15.217   8.850
 4210POPC   C1A14607  38.489  15.192   8.550
 4210POPC   D2A14608  38.491  15.196   8.250
 4210POPC   C3A14609  38.427  15.186   7.950
 4210POPC   C4A14610  38.437  15.216   7.650
 4210POPC   C1B14611  38.724  15.133   8.550
 4210POPC   C2B14612  38.682  15.199   8.250
 4210POPC   C3B14613  38.754  15.124   7.950
 4210POPC   C4B14614  38.752  15.171   7.650
 4211POPC   NC314615   3.497  25.245   9.450
 4211POPC   PO414616   3.561  25.251   9.150
 4211POPC   GL114617   3.555  25.219   8.850
 4211POPC   GL214618   3.491  25.324   8.850
 4211POPC   C1A14619   3.540  25.266   8.550
 4211POPC   D2A14620   3.579  25.310   8.250
 4211POPC   C3A14621   3.538  25.274   7.950
 4211POPC   C4A14622   3.587  25.235   7.650
 4211POPC   C1B14623   3.391  25.514   8.550
 4211POPC   C2B14624   3.354  25.463   8.250
 4211POPC   C3B14625   3.414  25.518   7.950
 4211POPC   C4B14626   3.429  25.520   7.650
 4212POPC   NC314627  23.707  13.676   9.450
 4212POPC   PO414628  23.722  13.607   9.150
 4212POPC   GL114629  23.746  13.598   8.850
 4212POPC   GL214630  23.819  13.781   8.850
 4212POPC   C1A14631  23.671  13.585   8.550
 4212POPC   D2A14632  23.701  13.625   8.250
 4212POPC   C3A14633  23.712  13.620   7.950
 4212POPC   C4A14634  23.725  13.582   7.650
 4212POPC   C1B14635  23.798  13.851   8.550
 4212POPC   C2B14636  23.847  13.889   8.250
 4212POPC   C3B14637  23.831  13.857   7.950
 4212POPC   C4B14638  23.801  13.831   7.650
 4213POPC   NC314639  29.155  17.551   9.450
 4213POPC   PO414640  29.176  17.487   9.150
 4213POPC   GL114641  29.157  17.499   8.850
 4213POPC   GL214642  29.267  17.475   8.850
 4213POPC   C1A14643  29.124  17.544   8.550
 4213POPC   D2A14644  29.102  17.537   8.250
 4213POPC   C3A14645  29.139  17.478   7.950
 4213POPC   C4A14646  29.168  17.473   7.650
 4213POPC   C1B14647  29.408  17.513   8.550
 4213POPC   C2B14648  29.371  17.464   8.250
 4213POPC   C3B14649  29.439  17.440   7.950
 4213POPC   C4B14650  29.387  17.467   7.650
 4214POPC   NC314651  16.757   4.356   9.450
 4214POPC   PO414652  16.744   4.352   9.150
 4214POPC   GL114653  16.749   4.270   8.850
 4214POPC   GL214654  16.843   4.391   8.850
 4214POPC   C1A14655  16.706   4.283   8.550
 4214POPC   D2A14656  16.748   4.278   8.250
 4214POPC   C3A14657  16.704   4.279   7.950
 4214POPC   C4A14658  16.682   4.365   7.650
 4214POPC   C1B14659  16.888   4.456   8.550
 4214POPC   C2B14660  16.941   4.469   8.250
 4214POPC   C3B14661  16.891   4.448   7.950
 4214POPC   C4B14662  16.906   4.475   7.650
 4215POPC   NC314663   8.197  25.309   9.450
 4215POPC   PO414664   8.167  25.223   9.150
 4215POPC   GL114665   8.222  25.291   8.850
 4215POPC   GL214666   8.188  25.138   8.850
 4215POPC   C1A14667   8.189  25.221   8.550
 4215POPC   D2A14668   8.221  25.252   8.250
 4215POPC   C3A14669   8.177  25.254   7.950
 4215POPC   C4A14670   8.222  25.244   7.650
 4215POPC   C1B14671   8.112  25.033   8.550
 4215POPC   C2B14672   8.084  25.032   8.250
 4215POPC   C3B14673   8.045  25.082   7.950
 4215POPC   C4B14674   8.080  25.018   7.650
 4216POPC   NC314675  17.543  37.660   9.450
 4216POPC   PO414676  17.491  37.641   9.150
 4216POPC   GL114677  17.483  37.706   8.850
 4216POPC   GL214678  17.435  37.601   8.850
 4216POPC   C1A14679  17.512  37.665   8.550
 4216POPC   D2A14680  17.557  37.684   8.250
 4216POPC   C3A14681  17.532  37.654   7.950
 4216POPC   C4A14682  17.478  37.640   7.650
 4216POPC   C1B14683  17.427  37.432   8.550
 4216POPC   C2B14684  17.447  37.454   8.250
 4216POPC   C3B14685  17.364  37.437   7.950
 4216POPC   C4B14686  17.383  37.440   7.650
 4217POPC   NC314687  26.865   8.190   9.450
 4217POPC   PO414688  26.806   8.151   9.150
 4217POPC   GL114689  26.836   8.163   8.850
 4217POPC   GL214690  26.892   8.061   8.850
 4217POPC   C1A14691  26.847   8.166   8.550
 4217POPC   D2A14692  26.817   8.195   8.250
 4217POPC   C3A14693  26.858   8.161   7.950
 4217POPC   C4A14694  26.848   8.244   7.650
 4217POPC   C1B14695  27.019   7.977   8.550
 4217POPC   C2B14696  27.000   7.992   8.250
 4217POPC   C3B14697  26.949   7.977   7.950
 4217POPC   C4B14698  26.976   7.987   7.650
 4218POPC   NC314699   3.505   0.395   9.450
 4218POPC   PO414700   3.534   0.474   9.150
 4218POPC   GL114701   3.541   0.430   8.850
 4218POPC   GL214702   3.677   0.389   8.850
 4218POPC   C1A14703   3.493   0.394   8.550
 4218POPC   D2A14704   3.518   0.428   8.250
 4218POPC   C3A14705   3.571   0.486   7.950
 4218POPC   C4A14706   3.495   0.478   7.650
 4218POPC   C1B14707   3.747   0.233   8.550
 4218POPC   C2B14708   3.725   0.240   8.250
 4218POPC   C3B14709   3.745   0.267   7.950
 4218POPC   C4B14710   3.693   0.327   7.650
 4219POPC   NC314711  37.668  27.588   9.450
 4219POPC   PO414712  37.634  27.610   9.150
 4219POPC   GL114713  37.704  27.572   8.850
 4219POPC   GL214714  37.769  27.491   8.850
 4219POPC   C1A14715  37.704  27.589   8.550
 4219POPC   D2A14716  37.629  27.633   8.250
 4219POPC   C3A14717  37.660  27.545   7.950
 4219POPC   C4A14718  37.630  27.596   7.650
 4219POPC   C1B14719  37.918  27.466   8.550
 4219POPC   C2B14720  37.909  27.504   8.250
 4219POPC   C3B14721  37.889  27.498   7.950
 4219POPC   C4B14722  37.896  27.423   7.650
 4220POPC   NC314723   8.159  40.744   9.450
 4220POPC   PO414724   8.230  40.806   9.150
 4220POPC   GL114725   8.170  40.779   8.850
 4220POPC   GL214726   8.113  40.729   8.850
 4220POPC   C1A14727   8.219  40.791   8.550
 4220POPC   D2A14728   8.226  40.781   8.250
 4220POPC   C3A14729   8.155  40.809   7.950
 4220POPC   C4A14730   8.155  40.762   7.650
 4220POPC   C1B14731   8.063  40.587   8.550
 4220POPC   C2B14732   8.058  40.582   8.250
 4220POPC   C3B14733   8.069  40.531   7.950
 4220POPC   C4B14734   8.011  40.554   7.650
 4221POPC   NC314735  26.786  12.077   9.450
 4221POPC   PO414736  26.854  12.047   9.150
 4221POPC   GL114737  26.848  12.121   8.850
 4221POPC   GL214738  26.937  12.154   8.850
 4221POPC   C1A14739  26.822  12.030   8.550
 4221POPC   D2A14740  26.768  12.068   8.250
 4221POPC   C3A14741  26.820  12.079   7.950
 4221POPC   C4A14742  26.846  12.045   7.650
 4221POPC   C1B14743  26.991  12.223   8.550
 4221POPC   C2B14744  26.979  12.275   8.250
 4221POPC   C3B14745  26.993  12.317   7.950
 4221POPC   C4B14746  27.003  12.264   7.650
 4222POPC   NC314747  19.013  24.470   9.450
 4222POPC   PO414748  19.069  24.477   9.150
 4222POPC   GL114749  19.106  24.483   8.850
 4222POPC   GL214750  19.204  24.515   8.850
 4222POPC   C1A14751  19.046  24.487   8.550
 4222POPC   D2A14752  19.091  24.475   8.250
 4222POPC   C3A14753  19.105  24.492   7.950
 4222POPC   C4A14754  19.108  24.461   7.650
 4222POPC   C1B14755  19.228  24.598   8.550
 4222POPC   C2B14756  19.312  24.642   8.250
 4222POPC   C3B14757  19.306  24.649   7.950
 4222POPC   C4B14758  19.317  24.584   7.650
 4223POPC   NC314759  30.715  15.998   9.450
 4223POPC   PO414760  30.655  15.974   9.150
 4223POPC   GL114761  30.717  15.980   8.850
 4223POPC   GL214762  30.612  16.015   8.850
 4223POPC   C1A14763  30.654  15.961   8.550
 4223POPC   D2A14764  30.683  15.940   8.250
 4223POPC   C3A14765  30.738  15.949   7.950
 4223POPC   C4A14766  30.712  15.963   7.650
 4223POPC   C1B14767  30.493  16.046   8.550
 4223POPC   C2B14768  30.461  16.037   8.250
 4223POPC   C3B14769  30.443  16.025   7.950
 4223POPC   C4B14770  30.501  16.088   7.650
 4224POPC   NC314771   5.123  20.573   9.450
 4224POPC   PO414772   5.072  20.589   9.150
 4224POPC   GL114773   5.137  20.654   8.850
 4224POPC   GL214774   5.176  20.641   8.850
 4224POPC   C1A14775   5.098  20.612   8.550
 4224POPC   D2A14776   5.078  20.631   8.250
 4224POPC   C3A14777   5.077  20.597   7.950
 4224POPC   C4A14778   5.127  20.594   7.650
 4224POPC   C1B14779   5.292  20.671   8.550
 4224POPC   C2B14780   5.348  20.643   8.250
 4224POPC   C3B14781   5.358  20.680   7.950
 4224POPC   C4B14782   5.377  20.605   7.650
 4225POPC   NC314783  14.439  25.301   9.450
 4225POPC   PO414784  14.414  25.290   9.150
 4225POPC   GL114785  14.396  25.218   8.850
 4225POPC   GL214786  14.512  25.312   8.850
 4225POPC   C1A14787  14.452  25.232   8.550
 4225POPC   D2A14788  14.398  25.239   8.250
 4225POPC   C3A14789  14.373  25.281   7.950
 4225POPC   C4A14790  14.409  25.296   7.650
 4225POPC   C1B14791  14.614  25.308   8.550
 4225POPC   C2B14792  14.617  25.303   8.250
 4225POPC   C3B14793  14.646  25.359   7.950
 4225POPC   C4B14794  14.684  25.269   7.650
 4226POPC   NC314795  36.142   9.002   9.450
 4226POPC   PO414796  36.148   8.957   9.150
 4226POPC   GL114797  36.121   9.013   8.850
 4226POPC   GL214798  36.184   9.034   8.850
 4226POPC   C1A14799  36.137   9.020   8.550
 4226POPC   D2A14800  36.124   8.965   8.250
 4226POPC   C3A14801  36.106   8.979   7.950
 4226POPC   C4A14802  36.120   8.936   7.650
 4226POPC   C1B14803  36.316   9.108   8.550
 4226POPC   C2B14804  36.326   9.103   8.250
 4226POPC   C3B14805  36.293   9.168   7.950
 4226POPC   C4B14806  36.289   9.173   7.650
 4227POPC   NC314807  25.257  37.721   9.450
 4227POPC   PO414808  25.249  37.649   9.150
 4227POPC   GL114809  25.252  37.710   8.850
 4227POPC   GL214810  25.416  37.638   8.850
 4227POPC   C1A14811  25.234  37.713   8.550
 4227POPC   D2A14812  25.223  37.647   8.250
 4227POPC   C3A14813  25.267  37.648   7.950
 4227POPC   C4A14814  25.233  37.722   7.650
 4227POPC   C1B14815  25.483  37.528   8.550
 4227POPC   C2B14816  25.434  37.507   8.250
 4227POPC   C3B14817  25.501  37.587   7.950
 4227POPC   C4B14818  25.460  37.529   7.650
 4228POPC   NC314819  14.442   1.220   9.450
 4228POPC   PO414820  14.380   1.254   9.150
 4228POPC   GL114821  14.374   1.224   8.850
 4228POPC   GL214822  14.436   1.088   8.850
 4228POPC   C1A14823  14.405   1.262   8.550
 4228POPC   D2A14824  14.452   1.262   8.250
 4228POPC   C3A14825  14.361   1.197   7.950
 4228POPC   C4A14826  14.404   1.201   7.650
 4228POPC   C1B14827  14.517   0.980   8.550
 4228POPC   C2B14828  14.559   0.979   8.250
 4228POPC   C3B14829  14.578   1.049   7.950
 4228POPC   C4B14830  14.515   1.029   7.650
 4229POPC   NC314831  21.423  24.527   9.450
 4229POPC   PO414832  21.404  24.507   9.150
 4229POPC   GL114833  21.405  24.523   8.850
 4229POPC   GL214834  21.416  24.557   8.850
 4229POPC   C1A14835  21.435  24.492   8.550
 4229POPC   D2A14836  21.385  24.471   8.250
 4229POPC   C3A14837  21.428  24.465   7.950
 4229POPC   C4A14838  21.392  24.515   7.650
 4229POPC   C1B14839  21.557  24.711   8.550
 4229POPC   C2B14840  21.553  24.672   8.250
 4229POPC   C3B14841  21.558  24.678   7.950
 4229POPC   C4B14842  21.543  24.701   7.650
 4230POPC   NC314843  18.298  36.132   9.450
 4230POPC   PO414844  18.289  36.176   9.150
 4230POPC   GL114845  18.299  36.123   8.850
 4230POPC   GL214846  18.223  36.231   8.850
 4230POPC   C1A14847  18.239  36.113   8.550
 4230POPC   D2A14848  18.314  36.099   8.250
 4230POPC   C3A14849  18.314  36.133   7.950
 4230POPC   C4A14850  18.249  36.098   7.650
 4230POPC   C1B14851  18.032  36.262   8.550
 4230POPC   C2B14852  18.091  36.231   8.250
 4230POPC   C3B14853  18.047  36.230   7.950
 4230POPC   C4B14854  18.111  36.256   7.650
 4231POPC   NC314855  15.962  14.367   9.450
 4231POPC   PO414856  15.938  14.358   9.150
 4231POPC   GL114857  15.914  14.404   8.850
 4231POPC   GL214858  15.884  14.464   8.850
 4231POPC   C1A14859  15.917  14.372   8.550
 4231POPC   D2A14860  15.964  14.450   8.250
 4231POPC   C3A14861  15.965  14.359   7.950
 4231POPC   C4A14862  15.979  14.372   7.650
 4231POPC   C1B14863  15.680  14.454   8.550
 4231POPC   C2B14864  15.669  14.506   8.250
 4231POPC   C3B14865  15.667  14.473   7.950
 4231POPC   C4B14866  15.675  14.466   7.650
 4232POPC   NC314867  21.372  29.890   9.450
 4232POPC   PO414868  21.341  29.886   9.150
 4232POPC   GL114869  21.392  29.916   8.850
 4232POPC   GL214870  21.475  29.979   8.850
 4232POPC   C1A14871  21.345  29.915   8.550
 4232POPC   D2A14872  21.342  29.905   8.250
 4232POPC   C3A14873  21.339  29.873   7.950
 4232POPC   C4A14874  21.366  29.929   7.650
 4232POPC   C1B14875  21.603  29.984   8.550
 4232POPC   C2B14876  21.594  30.035   8.250
 4232POPC   C3B14877  21.590  30.015   7.950
 4232POPC   C4B14878  21.616  29.992   7.650
 4233POPC   NC314879  26.823   1.236   9.450
 4233POPC   PO414880  26.776   1.210   9.150
 4233POPC   GL114881  26.840   1.236   8.850
 4233POPC   GL214882  26.666   1.264   8.850
 4233POPC   C1A14883  26.865   1.252   8.550
 4233POPC   D2A14884  26.834   1.225   8.250
 4233POPC   C3A14885  26.848   1.174   7.950
 4233POPC   C4A14886  26.861   1.222   7.650
 4233POPC   C1B14887  26.542   1.277   8.550
 4233POPC   C2B14888  26.618   1.293   8.250
 4233POPC   C3B14889  26.585   1.222   7.950
 4233POPC   C4B14890  26.583   1.309   7.650
 4234POPC   NC314891   1.953  40.759   9.450
 4234POPC   PO414892   1.970  40.814   9.150
 4234POPC   GL114893   1.964  40.765   8.850
 4234POPC   GL214894   2.057  40.833   8.850
 4234POPC   C1A14895   2.022  40.782   8.550
 4234POPC   D2A14896   2.036  40.772   8.250
 4234POPC   C3A14897   1.955  40.761   7.950
 4234POPC   C4A14898   2.013  40.821   7.650
 4234POPC   C1B14899   2.244  40.898   8.550
 4234POPC   C2B14900   2.172  40.883   8.250
 4234POPC   C3B14901   2.235  40.958   7.950
 4234POPC   C4B14902   2.186  40.897   7.650
 4235POPC   NC314903   7.449  33.817   9.450
 4235POPC   PO414904   7.435  33.797   9.150
 4235POPC   GL114905   7.410  33.816   8.850
 4235POPC   GL214906   7.435  33.644   8.850
 4235POPC   C1A14907   7.424  33.768   8.550
 4235POPC   D2A14908   7.380  33.838   8.250
 4235POPC   C3A14909   7.391  33.764   7.950
 4235POPC   C4A14910   7.411  33.824   7.650
 4235POPC   C1B14911   7.559  33.566   8.550
 4235POPC   C2B14912   7.474  33.587   8.250
 4235POPC   C3B14913   7.547  33.618   7.950
 4235POPC   C4B14914   7.525  33.526   7.650
 4236POPC   NC314915  34.571  26.844   9.450
 4236POPC   PO414916  34.592  26.797   9.150
 4236POPC   GL114917  34.609  26.771   8.850
 4236POPC   GL214918  34.635  26.974   8.850
 4236POPC   C1A14919  34.574  26.830   8.550
 4236POPC   D2A14920  34.571  26.846   8.250
 4236POPC   C3A14921  34.585  26.828   7.950
 4236POPC   C4A14922  34.563  26.842   7.650
 4236POPC   C1B14923  34.640  27.080   8.550
 4236POPC   C2B14924  34.661  27.028   8.250
 4236POPC   C3B14925  34.693  27.079   7.950
 4236POPC   C4B14926  34.685  27.071   7.650
 4237POPC   NC314927  23.706   9.798   9.450
 4237POPC   PO414928  23.714   9.711   9.150
 4237POPC   GL114929  23.674   9.707   8.850
 4237POPC   GL214930  23.644   9.842   8.850
 4237POPC   C1A14931  23.759   9.715   8.550
 4237POPC   D2A14932  23.744   9.749   8.250
 4237POPC   C3A14933  23.728   9.747   7.950
 4237POPC   C4A14934  23.730   9.731   7.650
 4237POPC   C1B14935  23.553   9.911   8.550
 4237POPC   C2B14936  23.507   9.893   8.250
 4237POPC   C3B14937  23.522   9.948   7.950
 4237POPC   C4B14938  23.553   9.946   7.650
 4238POPC   NC314939  29.896  44.680   9.450
 4238POPC   PO414940  29.932  44.656   9.150
 4238POPC   GL114941  29.958  44.634   8.850
 4238POPC   GL214942  30.054  44.764   8.850
 4238POPC   C1A14943  29.911  44.695   8.550
 4238POPC   D2A14944  29.963  44.707   8.250
 4238POPC   C3A14945  29.963  44.673   7.950
 4238POPC   C4A14946  29.969  44.708   7.650
 4238POPC   C1B14947  30.054  44.827   8.550
 4238POPC   C2B14948  30.057  44.814   8.250
 4238POPC   C3B14949  30.118  44.828   7.950
 4238POPC   C4B14950  30.096  44.814   7.650
 4239POPC   NC314951  33.760  15.150   9.450
 4239POPC   PO414952  33.848  15.159   9.150
 4239POPC   GL114953  33.833  15.206   8.850
 4239POPC   GL214954  33.853  15.344   8.850
 4239POPC   C1A14955  33.838  15.189   8.550
 4239POPC   D2A14956  33.827  15.219   8.250
 4239POPC   C3A14957  33.804  15.132   7.950
 4239POPC   C4A14958  33.791  15.177   7.650
 4239POPC   C1B14959  33.814  15.447   8.550
 4239POPC   C2B14960  33.887  15.417   8.250
 4239POPC   C3B14961  33.862  15.407   7.950
 4239POPC   C4B14962  33.879  15.451   7.650
 4240POPC   NC314963  11.296  33.833   9.450
 4240POPC   PO414964  11.295  33.819   9.150
 4240POPC   GL114965  11.309  33.802   8.850
 4240POPC   GL214966  11.166  33.822   8.850
 4240POPC   C1A14967  11.314  33.829   8.550
 4240POPC   D2A14968  11.276  33.818   8.250
 4240POPC   C3A14969  11.296  33.791   7.950
 4240POPC   C4A14970  11.305  33.821   7.650
 4240POPC   C1B14971  11.072  33.734   8.550
 4240POPC   C2B14972  11.030  33.747   8.250
 4240POPC   C3B14973  11.018  33.788   7.950
 4240POPC   C4B14974  11.063  33.785   7.650
 4241POPC   NC314975   6.651  42.321   9.450
 4241POPC   PO414976   6.689  42.362   9.150
 4241POPC   GL114977   6.664  42.297   8.850
 4241POPC   GL214978   6.525  42.323   8.850
 4241POPC   C1A14979   6.647  42.306   8.550
 4241POPC   D2A14980   6.681  42.364   8.250
 4241POPC   C3A14981   6.676  42.331   7.950
 4241POPC   C4A14982   6.621  42.290   7.650
 4241POPC   C1B14983   6.404  42.337   8.550
 4241POPC   C2B14984   6.386  42.250   8.250
 4241POPC   C3B14985   6.370  42.335   7.950
 4241POPC   C4B14986   6.366  42.301   7.650
 4242POPC   NC314987  40.019  33.843   9.450
 4242POPC   PO414988  40.039  33.848   9.150
 4242POPC   GL114989  39.986  33.774   8.850
 4242POPC   GL214990  39.908  33.702   8.850
 4242POPC   C1A14991  40.008  33.832   8.550
 4242POPC   D2A14992  40.038  33.817   8.250
 4242POPC   C3A14993  40.041  33.763   7.950
 4242POPC   C4A14994  39.987  33.780   7.650
 4242POPC   C1B14995  39.760  33.672   8.550
 4242POPC   C2B14996  39.801  33.719   8.250
 4242POPC   C3B14997  39.826  33.730   7.950
 4242POPC   C4B14998  39.778  33.693   7.650
 4243POPC   NC314999  15.196  24.519   9.450
 4243POPC   PO415000  15.150  24.453   9.150
 4243POPC   GL115001  15.136  24.461   8.850
 4243POPC   GL215002  15.073  24.596   8.850
 4243POPC   C1A15003  15.171  24.495   8.550
 4243POPC   D2A15004  15.168  24.512   8.250
 4243POPC   C3A15005  15.208  24.512   7.950
 4243POPC   C4A15006  15.157  24.470   7.650
 4243POPC   C1B15007  14.965  24.619   8.550
 4243POPC   C2B15008  14.960  24.596   8.250
 4243POPC   C3B15009  14.986  24.597   7.950
 4243POPC   C4B15010  15.007  24.644   7.650
 4244POPC   NC315011  40.000  26.073   9.450
 4244POPC   PO415012  40.022  26.019   9.150
 4244POPC   GL115013  39.976  26.069   8.850
 4244POPC   GL215014  39.929  26.050   8.850
 4244POPC   C1A15015  40.051  26.008   8.550
 4244POPC   D2A15016  40.046  26.075   8.250
 4244POPC   C3A15017  39.993  26.045   7.950
 4244POPC   C4A15018  39.965  26.065   7.650
 4244POPC   C1B15019  39.741  26.145   8.550
 4244POPC   C2B15020  39.766  26.115   8.250
 4244POPC   C3B15021  39.775  26.075   7.950
 4244POPC   C4B15022  39.767  26.167   7.650
 4245POPC   NC315023  28.374  29.914   9.450
 4245POPC   PO415024  28.373  29.922   9.150
 4245POPC   GL115025  28.397  29.887   8.850
 4245POPC   GL215026  28.329  29.838   8.850
 4245POPC   C1A15027  28.407  29.952   8.550
 4245POPC   D2A15028  28.357  29.944   8.250
 4245POPC   C3A15029  28.320  29.925   7.950
 4245POPC   C4A15030  28.382  29.920   7.650
 4245POPC   C1B15031  28.213  29.737   8.550
 4245POPC   C2B15032  28.208  29.674   8.250
 4245POPC   C3B15033  28.238  29.703   7.950
 4245POPC   C4B15034  28.235  29.762   7.650
 4246POPC   NC315035  27.596  20.640   9.450
 4246POPC   PO415036  27.569  20.607   9.150
 4246POPC   GL115037  27.588  20.599   8.850
 4246POPC   GL215038  27.632  20.522   8.850
 4246POPC   C1A15039  27.573  20.656   8.550
 4246POPC   D2A15040  27.622  20.596   8.250
 4246POPC   C3A15041  27.564  20.561   7.950
 4246POPC   C4A15042  27.581  20.638   7.650
 4246POPC   C1B15043  27.782  20.379   8.550
 4246POPC   C2B15044  27.782  20.397   8.250
 4246POPC   C3B15045  27.735  20.370   7.950
 4246POPC   C4B15046  27.758  20.445   7.650
 4247POPC   NC315047  19.802  34.590   9.450
 4247POPC   PO415048  19.833  34.607   9.150
 4247POPC   GL115049  19.798  34.621   8.850
 4247POPC   GL215050  19.681  34.609   8.850
 4247POPC   C1A15051  19.860  34.592   8.550
 4247POPC   D2A15052  19.789  34.556   8.250
 4247POPC   C3A15053  19.870  34.545   7.950
 4247POPC   C4A15054  19.855  34.533   7.650
 4247POPC   C1B15055  19.573  34.584   8.550
 4247POPC   C2B15056  19.546  34.671   8.250
 4247POPC   C3B15057  19.603  34.618   7.950
 4247POPC   C4B15058  19.610  34.574   7.650
 4248POPC   NC315059  29.945   5.881   9.450
 4248POPC   PO415060  29.891   5.844   9.150
 4248POPC   GL115061  29.876   5.860   8.850
 4248POPC   GL215062  29.825   5.914   8.850
 4248POPC   C1A15063  29.886   5.874   8.550
 4248POPC   D2A15064  29.878   5.845   8.250
 4248POPC   C3A15065  29.916   5.841   7.950
 4248POPC   C4A15066  29.969   5.886   7.650
 4248POPC   C1B15067  29.727   5.993   8.550
 4248POPC   C2B15068  29.707   5.982   8.250
 4248POPC   C3B15069  29.728   6.047   7.950
 4248POPC   C4B15070  29.667   6.018   7.650
 4249POPC   NC315071   7.421  26.782   9.450
 4249POPC   PO415072   7.400  26.776   9.150
 4249POPC   GL115073   7.456  26.808   8.850
 4249POPC   GL215074   7.373  26.937   8.850
 4249POPC   C1A15075   7.371  26.813   8.550
 4249POPC   D2A15076   7.404  26.829   8.250
 4249POPC   C3A15077   7.440  26.864   7.950
 4249POPC   C4A15078   7.443  26.825   7.650
 4249POPC   C1B15079   7.348  27.054   8.550
 4249POPC   C2B15080   7.426  27.105   8.250
 4249POPC   C3B15081   7.400  27.074   7.950
 4249POPC   C4B15082   7.356  27.034   7.650
 4250POPC   NC315083   6.658   7.451   9.450
 4250POPC   PO415084   6.620   7.406   9.150
 4250POPC   GL115085   6.654   7.454   8.850
 4250POPC   GL215086   6.482   7.421   8.850
 4250POPC   C1A15087   6.626   7.379   8.550
 4250POPC   D2A15088   6.600   7.442   8.250
 4250POPC   C3A15089   6.621   7.422   7.950
 4250POPC   C4A15090   6.658   7.388   7.650
 4250POPC   C1B15091   6.408   7.383   8.550
 4250POPC   C2B15092   6.369   7.409   8.250
 4250POPC   C3B15093   6.429   7.388   7.950
 4250POPC   C4B15094   6.435   7.345   7.650
 4251POPC   NC315095   7.446  28.323   9.450
 4251POPC   PO415096   7.438  28.396   9.150
 4251POPC   GL115097   7.376  28.377   8.850
 4251POPC   GL215098   7.475  28.468   8.850
 4251POPC   C1A15099   7.426  28.383   8.550
 4251POPC   D2A15100   7.438  28.342   8.250
 4251POPC   C3A15101   7.374  28.323   7.950
 4251POPC   C4A15102   7.434  28.374   7.650
 4251POPC   C1B15103   7.560  28.611   8.550
 4251POPC   C2B15104   7.525  28.550   8.250
 4251POPC   C3B15105   7.571  28.552   7.950
 4251POPC   C4B15106   7.562  28.558   7.650
 4252POPC   NC315107  39.238  14.428   9.450
 4252POPC   PO415108  39.248  14.427   9.150
 4252POPC   GL115109  39.272  14.432   8.850
 4252POPC   GL215110  39.280  14.461   8.850
 4252POPC   C1A15111  39.213  14.355   8.550
 4252POPC   D2A15112  39.189  14.414   8.250
 4252POPC   C3A15113  39.227  14.388   7.950
 4252POPC   C4A15114  39.254  14.365   7.650
 4252POPC   C1B15115  39.341  14.549   8.550
 4252POPC   C2B15116  39.363  14.646   8.250
 4252POPC   C3B15117  39.383  14.641   7.950
 4252POPC   C4B15118  39.418  14.589   7.650
 4253POPC   NC315119  10.477  43.088   9.450
 4253POPC   PO415120  10.570  43.115   9.150
 4253POPC   GL115121  10.540  43.072   8.850
 4253POPC   GL215122  10.363  43.029   8.850
 4253POPC   C1A15123  10.566  43.156   8.550
 4253POPC   D2A15124  10.520  43.085   8.250
 4253POPC   C3A15125  10.559  43.079   7.950
 4253POPC   C4A15126  10.532  43.072   7.650
 4253POPC   C1B15127  10.286  43.017   8.550
 4253POPC   C2B15128  10.286  43.037   8.250
 4253POPC   C3B15129  10.249  43.042   7.950
 4253POPC   C4B15130  10.244  43.066   7.650
 4254POPC   NC315131  30.737  43.131   9.450
 4254POPC   PO415132  30.675  43.072   9.150
 4254POPC   GL115133  30.664  43.156   8.850
 4254POPC   GL215134  30.847  43.144   8.850
 4254POPC   C1A15135  30.677  43.160   8.550
 4254POPC   D2A15136  30.735  43.070   8.250
 4254POPC   C3A15137  30.656  43.063   7.950
 4254POPC   C4A15138  30.723  43.114   7.650
 4254POPC   C1B15139  30.971  43.093   8.550
 4254POPC   C2B15140  30.939  43.055   8.250
 4254POPC   C3B15141  30.973  43.068   7.950
 4254POPC   C4B15142  30.903  43.085   7.650
 4255POPC   NC315143  31.456  19.847   9.450
 4255POPC   PO415144  31.503  19.862   9.150
 4255POPC   GL115145  31.444  19.816   8.850
 4255POPC   GL215146  31.424  19.997   8.850
 4255POPC   C1A15147  31.485  19.827   8.550
 4255POPC   D2A15148  31.492  19.808   8.250
 4255POPC   C3A15149  31.509  19.818   7.950
 4255POPC   C4A15150  31.521  19.865   7.650
 4255POPC   C1B15151  31.418  20.053   8.550
 4255POPC   C2B15152  31.419  20.054   8.250
 4255POPC   C3B15153  31.464  20.078   7.950
 4255POPC   C4B15154  31.417  20.034   7.650
 4256POPC   NC315155  11.298   2.779   9.450
 4256POPC   PO415156  11.253   2.723   9.150
 4256POPC   GL115157  11.300   2.734   8.850
 4256POPC   GL215158  11.356   2.906   8.850
 4256POPC   C1A15159  11.277   2.741   8.550
 4256POPC   D2A15160  11.333   2.804   8.250
 4256POPC   C3A15161  11.301   2.810   7.950
 4256POPC   C4A15162  11.322   2.736   7.650
 4256POPC   C1B15163  11.381   3.051   8.550
 4256POPC   C2B15164  11.351   3.036   8.250
 4256POPC   C3B15165  11.359   2.970   7.950
 4256POPC   C4B15166  11.407   3.055   7.650
 4257POPC   NC315167  27.633  35.343   9.450
 4257POPC   PO415168  27.577  35.345   9.150
 4257POPC   GL115169  27.622  35.400   8.850
 4257POPC   GL215170  27.680  35.370   8.850
 4257POPC   C1A15171  27.572  35.320   8.550
 4257POPC   D2A15172  27.599  35.377   8.250
 4257POPC   C3A15173  27.572  35.401   7.950
 4257POPC   C4A15174  27.623  35.308   7.650
 4257POPC   C1B15175  27.826  35.335   8.550
 4257POPC   C2B15176  27.811  35.279   8.250
 4257POPC   C3B15177  27.849  35.348   7.950
 4257POPC   C4B15178  27.850  35.362   7.650
 4258POPC   NC315179  18.282  29.161   9.450
 4258POPC   PO415180  18.322  29.154   9.150
 4258POPC   GL115181  18.323  29.135   8.850
 4258POPC   GL215182  18.399  29.228   8.850
 4258POPC   C1A15183  18.238  29.143   8.550
 4258POPC   D2A15184  18.330  29.113   8.250
 4258POPC   C3A15185  18.257  29.168   7.950
 4258POPC   C4A15186  18.312  29.140   7.650
 4258POPC   C1B15187  18.417  29.364   8.550
 4258POPC   C2B15188  18.385  29.362   8.250
 4258POPC   C3B15189  18.408  29.367   7.950
 4258POPC   C4B15190  18.459  29.340   7.650
 4259POPC   NC315191  43.862  42.326   9.450
 4259POPC   PO415192  43.842  42.314   9.150
 4259POPC   GL115193  43.885  42.337   8.850
 4259POPC   GL215194  43.839  42.478   8.850
 4259POPC   C1A15195  43.864  42.347   8.550
 4259POPC   D2A15196  43.892  42.336   8.250
 4259POPC   C3A15197  43.862  42.350   7.950
 4259POPC   C4A15198  43.848  42.291   7.650
 4259POPC   C1B15199  43.816  42.604   8.550
 4259POPC   C2B15200  43.749  42.522   8.250
 4259POPC   C3B15201  43.755  42.505   7.950
 4259POPC   C4B15202  43.763  42.533   7.650
 4260POPC   NC315203   6.678  35.365   9.450
 4260POPC   PO415204   6.643  35.322   9.150
 4260POPC   GL115205   6.668  35.352   8.850
 4260POPC   GL215206   6.671  35.191   8.850
 4260POPC   C1A15207   6.614  35.392   8.550
 4260POPC   D2A15208   6.597  35.376   8.250
 4260POPC   C3A15209   6.622  35.393   7.950
 4260POPC   C4A15210   6.601  35.356   7.650
 4260POPC   C1B15211   6.738  35.108   8.550
 4260POPC   C2B15212   6.761  35.122   8.250
 4260POPC   C3B15213   6.665  35.071   7.950
 4260POPC   C4B15214   6.707  35.110   7.650
 4261POPC   NC315215  20.636  27.546   9.450
 4261POPC   PO415216  20.625  27.562   9.150
 4261POPC   GL115217  20.603  27.629   8.850
 4261POPC   GL215218  20.527  27.616   8.850
 4261POPC   C1A15219  20.629  27.613   8.550
 4261POPC   D2A15220  20.646  27.636   8.250
 4261POPC   C3A15221  20.612  27.639   7.950
 4261POPC   C4A15222  20.658  27.634   7.650
 4261POPC   C1B15223  20.364  27.683   8.550
 4261POPC   C2B15224  20.388  27.770   8.250
 4261POPC   C3B15225  20.366  27.761   7.950
 4261POPC   C4B15226  20.356  27.690   7.650
 4262POPC   NC315227   9.790  16.713   9.450
 4262POPC   PO415228   9.740  16.778   9.150
 4262POPC   GL115229   9.735  16.766   8.850
 4262POPC   GL215230   9.830  16.691   8.850
 4262POPC   C1A15231   9.708  16.746   8.550
 4262POPC   D2A15232   9.768  16.698   8.250
 4262POPC   C3A15233   9.712  16.773   7.950
 4262POPC   C4A15234   9.724  16.768   7.650
 4262POPC   C1B15235   9.903  16.530   8.550
 4262POPC   C2B15236   9.986  16.542   8.250
 4262POPC   C3B15237   9.897  16.587   7.950
 4262POPC   C4B15238   9.923  16.602   7.650
 4263POPC   NC315239   1.171   8.960   9.450
 4263POPC   PO415240   1.228   8.936   9.150
 4263POPC   GL115241   1.195   8.953   8.850
 4263POPC   GL215242   1.220   8.817   8.850
 4263POPC   C1A15243   1.203   8.948   8.550
 4263POPC   D2A15244   1.181   8.963   8.250
 4263POPC   C3A15245   1.242   8.939   7.950
 4263POPC   C4A15246   1.230   8.927   7.650
 4263POPC   C1B15247   1.275   8.760   8.550
 4263POPC   C2B15248   1.265   8.764   8.250
 4263POPC   C3B15249   1.289   8.750   7.950
 4263POPC   C4B15250   1.357   8.734   7.650
 4264POPC   NC315251  10.569  17.520   9.450
 4264POPC   PO415252  10.486  17.525   9.150
 4264POPC   GL115253  10.525  17.462   8.850
 4264POPC   GL215254  10.539  17.431   8.850
 4264POPC   C1A15255  10.549  17.500   8.550
 4264POPC   D2A15256  10.560  17.468   8.250
 4264POPC   C3A15257  10.551  17.519   7.950
 4264POPC   C4A15258  10.515  17.544   7.650
 4264POPC   C1B15259  10.485  17.229   8.550
 4264POPC   C2B15260  10.486  17.233   8.250
 4264POPC   C3B15261  10.494  17.290   7.950
 4264POPC   C4B15262  10.547  17.254   7.650
 4265POPC   NC315263  30.740  26.089   9.450
 4265POPC   PO415264  30.686  26.077   9.150
 4265POPC   GL115265  30.675  26.030   8.850
 4265POPC   GL215266  30.748  25.926   8.850
 4265POPC   C1A15267  30.672  26.018   8.550
 4265POPC   D2A15268  30.707  26.001   8.250
 4265POPC   C3A15269  30.731  26.075   7.950
 4265POPC   C4A15270  30.712  26.013   7.650
 4265POPC   C1B15271  30.725  25.762   8.550
 4265POPC   C2B15272  30.735  25.810   8.250
 4265POPC   C3B15273  30.795  25.764   7.950
 4265POPC   C4B15274  30.797  25.764   7.650
 4266POPC   NC315275  19.832   1.999   9.450
 4266POPC   PO415276  19.874   2.006   9.150
 4266POPC   GL115277  19.872   2.025   8.850
 4266POPC   GL215278  19.744   1.895   8.850
 4266POPC   C1A15279  19.842   2.003   8.550
 4266POPC   D2A15280  19.850   2.029   8.250
 4266POPC   C3A15281  19.837   2.013   7.950
 4266POPC   C4A15282  19.806   2.001   7.650
 4266POPC   C1B15283  19.661   1.922   8.550
 4266POPC   C2B15284  19.596   1.842   8.250
 4266POPC   C3B15285  19.576   1.823   7.950
 4266POPC   C4B15286  19.639   1.830   7.650
 4267POPC   NC315287  33.013   8.171   9.450
 4267POPC   PO415288  32.982   8.226   9.150
 4267POPC   GL115289  33.034   8.147   8.850
 4267POPC   GL215290  32.953   8.118   8.850
 4267POPC   C1A15291  33.058   8.182   8.550
 4267POPC   D2A15292  32.975   8.165   8.250
 4267POPC   C3A15293  33.049   8.214   7.950
 4267POPC   C4A15294  33.021   8.170   7.650
 4267POPC   C1B15295  32.939   7.970   8.550
 4267POPC   C2B15296  32.956   7.945   8.250
 4267POPC   C3B15297  32.919   7.949   7.950
 4267POPC   C4B15298  32.915   7.942   7.650
 4268POPC   NC315299   2.764   2.035   9.450
 4268POPC   PO415300   2.779   2.028   9.150
 4268POPC   GL115301   2.727   2.015   8.850
 4268POPC   GL215302   2.726   2.051   8.850
 4268POPC   C1A15303   2.754   2.015   8.550
 4268POPC   D2A15304   2.729   1.960   8.250
 4268POPC   C3A15305   2.779   2.016   7.950
 4268POPC   C4A15306   2.761   2.004   7.650
 4268POPC   C1B15307   2.670   2.161   8.550
 4268POPC   C2B15308   2.654   2.223   8.250
 4268POPC   C3B15309   2.649   2.253   7.950
 4268POPC   C4B15310   2.602   2.214   7.650
 4269POPC   NC315311  43.858   9.703   9.450
 4269POPC   PO415312  43.912   9.797   9.150
 4269POPC   GL115313  43.860   9.756   8.850
 4269POPC   GL215314  43.840   9.612   8.850
 4269POPC   C1A15315  43.840   9.780   8.550
 4269POPC   D2A15316  43.923   9.766   8.250
 4269POPC   C3A15317  43.911   9.766   7.950
 4269POPC   C4A15318  43.875   9.728   7.650
 4269POPC   C1B15319  43.775   9.546   8.550
 4269POPC   C2B15320  43.749   9.582   8.250
 4269POPC   C3B15321  43.780   9.578   7.950
 4269POPC   C4B15322  43.714   9.550   7.650
 4270POPC   NC315323  15.178   8.971   9.450
 4270POPC   PO415324  15.201   8.930   9.150
 4270POPC   GL115325  15.149   8.986   8.850
 4270POPC   GL215326  15.196   8.845   8.850
 4270POPC   C1A15327  15.140   9.017   8.550
 4270POPC   D2A15328  15.199   8.936   8.250
 4270POPC   C3A15329  15.144   8.929   7.950
 4270POPC   C4A15330  15.226   8.977   7.650
 4270POPC   C1B15331  15.159   8.695   8.550
 4270POPC   C2B15332  15.097   8.726   8.250
 4270POPC   C3B15333  15.157   8.685   7.950
 4270POPC   C4B15334  15.123   8.747   7.650
 4271POPC   NC315335  28.339  19.880   9.450
 4271POPC   PO415336  28.373  19.810   9.150
 4271POPC   GL115337  28.383  19.808   8.850
 4271POPC   GL215338  28.494  19.798   8.850
 4271POPC   C1A15339  28.334  19.865   8.550
 4271POPC   D2A15340  28.326  19.878   8.250
 4271POPC   C3A15341  28.410  19.864   7.950
 4271POPC   C4A15342  28.359  19.799   7.650
 4271POPC   C1B15343  28.565  19.694   8.550
 4271POPC   C2B15344  28.539  19.685   8.250
 4271POPC   C3B15345  28.575  19.654   7.950
 4271POPC   C4B15346  28.617  19.738   7.650
 4272POPC   NC315347  18.314  24.504   9.450
 4272POPC   PO415348  18.274  24.515   9.150
 4272POPC   GL115349  18.257  24.489   8.850
 4272POPC   GL215350  18.114  24.520   8.850
 4272POPC   C1A15351  18.278  24.480   8.550
 4272POPC   D2A15352  18.330  24.523   8.250
 4272POPC   C3A15353  18.239  24.525   7.950
 4272POPC   C4A15354  18.310  24.463   7.650
 4272POPC   C1B15355  17.986  24.425   8.550
 4272POPC   C2B15356  17.998  24.421   8.250
 4272POPC   C3B15357  18.066  24.489   7.950
 4272POPC   C4B15358  18.075  24.496   7.650
 4273POPC   NC315359   3.559  34.544   9.450
 4273POPC   PO415360   3.527  34.582   9.150
 4273POPC   GL115361   3.572  34.544   8.850
 4273POPC   GL215362   3.394  34.625   8.850
 4273POPC   C1A15363   3.522  34.554   8.550
 4273POPC   D2A15364   3.586  34.560   8.250
 4273POPC   C3A15365   3.559  34.622   7.950
 4273POPC   C4A15366   3.587  34.584   7.650
 4273POPC   C1B15367   3.300  34.708   8.550
 4273POPC   C2B15368   3.332  34.645   8.250
 4273POPC   C3B15369   3.353  34.680   7.950
 4273POPC   C4B15370   3.341  34.716   7.650
 4274POPC   NC315371  19.856  43.154   9.450
 4274POPC   PO415372  19.841  43.102   9.150
 4274POPC   GL115373  19.841  43.082   8.850
 4274POPC   GL215374  19.795  43.229   8.850
 4274POPC   C1A15375  19.814  43.115   8.550
 4274POPC   D2A15376  19.803  43.113   8.250
 4274POPC   C3A15377  19.821  43.116   7.950
 4274POPC   C4A15378  19.858  43.092   7.650
 4274POPC   C1B15379  19.649  43.241   8.550
 4274POPC   C2B15380  19.616  43.320   8.250
 4274POPC   C3B15381  19.642  43.298   7.950
 4274POPC   C4B15382  19.692  43.264   7.650
 4275POPC   NC315383  29.180  40.759   9.450
 4275POPC   PO415384  29.153  40.830   9.150
 4275POPC   GL115385  29.158  40.780   8.850
 4275POPC   GL215386  29.231  40.680   8.850
 4275POPC   C1A15387  29.137  40.777   8.550
 4275POPC   D2A15388  29.189  40.762   8.250
 4275POPC   C3A15389  29.163  40.826   7.950
 4275POPC   C4A15390  29.188  40.751   7.650
 4275POPC   C1B15391  29.313  40.670   8.550
 4275POPC   C2B15392  29.378  40.663   8.250
 4275POPC   C3B15393  29.325  40.668   7.950
 4275POPC   C4B15394  29.336  40.660   7.650
 4276POPC   NC315395  23.761  43.859   9.450
 4276POPC   PO415396  23.720  43.919   9.150
 4276POPC   GL115397  23.687  43.882   8.850
 4276POPC   GL215398  23.637  44.005   8.850
 4276POPC   C1A15399  23.710  43.858   8.550
 4276POPC   D2A15400  23.667  43.923   8.250
 4276POPC   C3A15401  23.756  43.883   7.950
 4276POPC   C4A15402  23.675  43.917   7.650
 4276POPC   C1B15403  23.489  44.066   8.550
 4276POPC   C2B15404  23.484  44.057   8.250
 4276POPC   C3B15405  23.568  44.007   7.950
 4276POPC   C4B15406  23.572  44.076   7.650
 4277POPC   NC315407  10.572  38.493   9.450
 4277POPC   PO415408  10.556  38.413   9.150
 4277POPC   GL115409  10.487  38.468   8.850
 4277POPC   GL215410  10.487  38.352   8.850
 4277POPC   C1A15411  10.527  38.408   8.550
 4277POPC   D2A15412  10.560  38.453   8.250
 4277POPC   C3A15413  10.533  38.448   7.950
 4277POPC   C4A15414  10.492  38.467   7.650
 4277POPC   C1B15415  10.355  38.283   8.550
 4277POPC   C2B15416  10.391  38.215   8.250
 4277POPC   C3B15417  10.370  38.266   7.950
 4277POPC   C4B15418  10.452  38.224   7.650
 4278POPC   NC315419  33.802  32.231   9.450
 4278POPC   PO415420  33.803  32.237   9.150
 4278POPC   GL115421  33.800  32.235   8.850
 4278POPC   GL215422  33.867  32.300   8.850
 4278POPC   C1A15423  33.847  32.285   8.550
 4278POPC   D2A15424  33.780  32.262   8.250
 4278POPC   C3A15425  33.782  32.231   7.950
 4278POPC   C4A15426  33.751  32.216   7.650
 4278POPC   C1B15427  34.003  32.354   8.550
 4278POPC   C2B15428  34.058  32.326   8.250
 4278POPC   C3B15429  34.017  32.306   7.950
 4278POPC   C4B15430  34.046  32.379   7.650
 4279POPC   NC315431  44.648  34.583   9.450
 4279POPC   PO415432  44.661  34.544   9.150
 4279POPC   GL115433  44.675  34.560   8.850
 4279POPC   GL215434  44.668  34.471   8.850
 4279POPC   C1A15435  44.703  34.588   8.550
 4279POPC   D2A15436  44.702  34.534   8.250
 4279POPC   C3A15437  44.661  34.542   7.950
 4279POPC   C4A15438  44.698  34.593   7.650
 4279POPC   C1B15439  44.627  34.295   8.550
 4279POPC   C2B15440  44.579  34.356   8.250
 4279POPC   C3B15441  44.648  34.340   7.950
 4279POPC   C4B15442  44.606  34.370   7.650
 4280POPC   NC315443  25.285  25.277   9.450
 4280POPC   PO415444  25.309  25.281   9.150
 4280POPC   GL115445  25.267  25.305   8.850
 4280POPC   GL215446  25.335  25.307   8.850
 4280POPC   C1A15447  25.232  25.232   8.550
 4280POPC   D2A15448  25.298  25.280   8.250
 4280POPC   C3A15449  25.257  25.218   7.950
 4280POPC   C4A15450  25.306  25.296   7.650
 4280POPC   C1B15451  25.418  25.477   8.550
 4280POPC   C2B15452  25.442  25.410   8.250
 4280POPC   C3B15453  25.474  25.458   7.950
 4280POPC   C4B15454  25.418  25.418   7.650
 4281POPC   NC315455  22.209   7.374   9.450
 4281POPC   PO415456  22.122   7.460   9.150
 4281POPC   GL115457  22.137   7.441   8.850
 4281POPC   GL215458  22.048   7.477   8.850
 4281POPC   C1A15459  22.121   7.458   8.550
 4281POPC   D2A15460  22.169   7.444   8.250
 4281POPC   C3A15461  22.210   7.372   7.950
 4281POPC   C4A15462  22.187   7.431   7.650
 4281POPC   C1B15463  21.899   7.403   8.550
 4281POPC   C2B15464  21.923   7.500   8.250
 4281POPC   C3B15465  21.913   7.427   7.950
 4281POPC   C4B15466  21.902   7.419   7.650
 4282POPC   NC315467  36.153  11.319   9.450
 4282POPC   PO415468  36.157  11.310   9.150
 4282POPC   GL115469  36.162  11.296   8.850
 4282POPC   GL215470  36.150  11.184   8.850
 4282POPC   C1A15471  36.118  11.318   8.550
 4282POPC   D2A15472  36.173  11.295   8.250
 4282POPC   C3A15473  36.163  11.328   7.950
 4282POPC   C4A15474  36.096  11.270   7.650
 4282POPC   C1B15475  36.153  11.020   8.550
 4282POPC   C2B15476  36.197  11.074   8.250
 4282POPC   C3B15477  36.117  11.099   7.950
 4282POPC   C4B15478  36.124  11.008   7.650
 4283POPC   NC315479  36.941  29.909   9.450
 4283POPC   PO415480  36.873  29.959   9.150
 4283POPC   GL115481  36.856  29.923   8.850
 4283POPC   GL215482  36.967  29.780   8.850
 4283POPC   C1A15483  36.929  29.888   8.550
 4283POPC   D2A15484  36.918  29.940   8.250
 4283POPC   C3A15485  36.877  29.932   7.950
 4283POPC   C4A15486  36.888  29.929   7.650
 4283POPC   C1B15487  36.929  29.630   8.550
 4283POPC   C2B15488  36.986  29.643   8.250
 4283POPC   C3B15489  36.936  29.716   7.950
 4283POPC   C4B15490  36.993  29.708   7.650
 4284POPC   NC315491  19.055  12.068   9.450
 4284POPC   PO415492  19.102  12.026   9.150
 4284POPC   GL115493  19.048  12.121   8.850
 4284POPC   GL215494  19.031  11.905   8.850
 4284POPC   C1A15495  19.092  12.048   8.550
 4284POPC   D2A15496  19.058  12.045   8.250
 4284POPC   C3A15497  19.066  12.056   7.950
 4284POPC   C4A15498  19.029  12.047   7.650
 4284POPC   C1B15499  19.053  11.804   8.550
 4284POPC   C2B15500  18.978  11.872   8.250
 4284POPC   C3B15501  19.052  11.788   7.950
 4284POPC   C4B15502  18.998  11.781   7.650
 4285POPC   NC315503  38.494  15.912   9.450
 4285POPC   PO415504  38.484  15.975   9.150
 4285POPC   GL115505  38.462  15.966   8.850
 4285POPC   GL215506  38.361  15.856   8.850
 4285POPC   C1A15507  38.430  15.966   8.550
 4285POPC   D2A15508  38.449  15.924   8.250
 4285POPC   C3A15509  38.456  16.002   7.950
 4285POPC   C4A15510  38.417  16.004   7.650
 4285POPC   C1B15511  38.240  15.807   8.550
 4285POPC   C2B15512  38.274  15.850   8.250
 4285POPC   C3B15513  38.198  15.821   7.950
 4285POPC   C4B15514  38.196  15.857   7.650
 4286POPC   NC315515  13.661  17.534   9.450
 4286POPC   PO415516  13.608  17.467   9.150
 4286POPC   GL115517  13.630  17.519   8.850
 4286POPC   GL215518  13.496  17.489   8.850
 4286POPC   C1A15519  13.628  17.471   8.550
 4286POPC   D2A15520  13.584  17.545   8.250
 4286POPC   C3A15521  13.645  17.490   7.950
 4286POPC   C4A15522  13.666  17.473   7.650
 4286POPC   C1B15523  13.400  17.495   8.550
 4286POPC   C2B15524  13.396  17.527   8.250
 4286POPC   C3B15525  13.334  17.492   7.950
 4286POPC   C4B15526  13.415  17.478   7.650
 4287POPC   NC315527  22.127   0.394   9.450
 4287POPC   PO415528  22.148   0.463   9.150
 4287POPC   GL115529  22.115   0.409   8.850
 4287POPC   GL215530  22.191   0.584   8.850
 4287POPC   C1A15531  22.130   0.412   8.550
 4287POPC   D2A15532  22.141   0.401   8.250
 4287POPC   C3A15533  22.207   0.455   7.950
 4287POPC   C4A15534  22.176   0.408   7.650
 4287POPC   C1B15535  22.254   0.711   8.550
 4287POPC   C2B15536  22.271   0.673   8.250
 4287POPC   C3B15537  22.246   0.695   7.950
 4287POPC   C4B15538  22.252   0.668   7.650
 4288POPC   NC315539  28.402  33.047   9.450
 4288POPC   PO415540  28.391  33.033   9.150
 4288POPC   GL115541  28.330  33.028   8.850
 4288POPC   GL215542  28.435  33.128   8.850
 4288POPC   C1A15543  28.379  32.999   8.550
 4288POPC   D2A15544  28.370  33.043   8.250
 4288POPC   C3A15545  28.414  33.068   7.950
 4288POPC   C4A15546  28.413  33.049   7.650
 4288POPC   C1B15547  28.531  33.183   8.550
 4288POPC   C2B15548  28.507  33.186   8.250
 4288POPC   C3B15549  28.502  33.243   7.950
 4288POPC   C4B15550  28.516  33.178   7.650
 4289POPC   NC315551  28.330   3.565   9.450
 4289POPC   PO415552  28.391   3.531   9.150
 4289POPC   GL115553  28.356   3.499   8.850
 4289POPC   GL215554  28.456   3.490   8.850
 4289POPC   C1A15555  28.362   3.552   8.550
 4289POPC   D2A15556  28.409   3.508   8.250
 4289POPC   C3A15557  28.389   3.539   7.950
 4289POPC   C4A15558  28.321   3.509   7.650
 4289POPC   C1B15559  28.588   3.342   8.550
 4289POPC   C2B15560  28.507   3.390   8.250
 4289POPC   C3B15561  28.592   3.320   7.950
 4289POPC   C4B15562  28.531   3.355   7.650
 4290POPC   NC315563  14.355  30.727   9.450
 4290POPC   PO415564  14.372  30.726   9.150
 4290POPC   GL115565  14.445  30.669   8.850
 4290POPC   GL215566  14.438  30.772   8.850
 4290POPC   C1A15567  14.439  30.673   8.550
 4290POPC   D2A15568  14.441  30.650   8.250
 4290POPC   C3A15569  14.382  30.650   7.950
 4290POPC   C4A15570  14.443  30.739   7.650
 4290POPC   C1B15571  14.508  30.928   8.550
 4290POPC   C2B15572  14.428  30.956   8.250
 4290POPC   C3B15573  14.480  30.948   7.950
 4290POPC   C4B15574  14.466  30.984   7.650
 4291POPC   NC315575  20.606  14.415   9.450
 4291POPC   PO415576  20.593  14.438   9.150
 4291POPC   GL115577  20.633  14.444   8.850
 4291POPC   GL215578  20.667  14.288   8.850
 4291POPC   C1A15579  20.620  14.398   8.550
 4291POPC   D2A15580  20.584  14.383   8.250
 4291POPC   C3A15581  20.644  14.354   7.950
 4291POPC   C4A15582  20.640  14.391   7.650
 4291POPC   C1B15583  20.742  14.242   8.550
 4291POPC   C2B15584  20.766  14.238   8.250
 4291POPC   C3B15585  20.733  14.195   7.950
 4291POPC   C4B15586  20.806  14.182   7.650
 4292POPC   NC315587  33.763  34.580   9.450
 4292POPC   PO415588  33.802  34.602   9.150
 4292POPC   GL115589  33.842  34.538   8.850
 4292POPC   GL215590  33.949  34.566   8.850
 4292POPC   C1A15591  33.846  34.567   8.550
 4292POPC   D2A15592  33.846  34.529   8.250
 4292POPC   C3A15593  33.829  34.593   7.950
 4292POPC   C4A15594  33.776  34.622   7.650
 4292POPC   C1B15595  34.015  34.547   8.550
 4292POPC   C2B15596  34.004  34.558   8.250
 4292POPC   C3B15597  34.028  34.577   7.950
 4292POPC   C4B15598  34.074  34.541   7.650
 4293POPC   NC315599  12.858   2.736   9.450
 4293POPC   PO415600  12.860   2.793   9.150
 4293POPC   GL115601  12.841   2.769   8.850
 4293POPC   GL215602  12.687   2.799   8.850
 4293POPC   C1A15603  12.863   2.757   8.550
 4293POPC   D2A15604  12.859   2.785   8.250
 4293POPC   C3A15605  12.812   2.787   7.950
 4293POPC   C4A15606  12.872   2.762   7.650
 4293POPC   C1B15607  12.585   2.796   8.550
 4293POPC   C2B15608  12.613   2.822   8.250
 4293POPC   C3B15609  12.630   2.871   7.950
 4293POPC   C4B15610  12.650   2.836   7.650
 4294POPC   NC315611  23.710  38.490   9.450
 4294POPC   PO415612  23.687  38.491   9.150
 4294POPC   GL115613  23.763  38.415   8.850
 4294POPC   GL215614  23.617  38.507   8.850
 4294POPC   C1A15615  23.749  38.432   8.550
 4294POPC   D2A15616  23.763  38.481   8.250
 4294POPC   C3A15617  23.749  38.441   7.950
 4294POPC   C4A15618  23.703  38.409   7.650
 4294POPC   C1B15619  23.425  38.508   8.550
 4294POPC   C2B15620  23.502  38.503   8.250
 4294POPC   C3B15621  23.482  38.499   7.950
 4294POPC   C4B15622  23.488  38.526   7.650
 4295POPC   NC315623  24.536  35.369   9.450
 4295POPC   PO415624  24.509  35.340   9.150
 4295POPC   GL115625  24.518  35.325   8.850
 4295POPC   GL215626  24.388  35.464   8.850
 4295POPC   C1A15627  24.455  35.341   8.550
 4295POPC   D2A15628  24.461  35.337   8.250
 4295POPC   C3A15629  24.487  35.303   7.950
 4295POPC   C4A15630  24.527  35.318   7.650
 4295POPC   C1B15631  24.389  35.598   8.550
 4295POPC   C2B15632  24.351  35.551   8.250
 4295POPC   C3B15633  24.389  35.607   7.950
 4295POPC   C4B15634  24.356  35.575   7.650
 4296POPC   NC315635  18.315  38.418   9.450
 4296POPC   PO415636  18.277  38.498   9.150
 4296POPC   GL115637  18.316  38.465   8.850
 4296POPC   GL215638  18.361  38.370   8.850
 4296POPC   C1A15639  18.255  38.478   8.550
 4296POPC   D2A15640  18.240  38.468   8.250
 4296POPC   C3A15641  18.296  38.505   7.950
 4296POPC   C4A15642  18.309  38.444   7.650
 4296POPC   C1B15643  18.484  38.306   8.550
 4296POPC   C2B15644  18.494  38.306   8.250
 4296POPC   C3B15645  18.534  38.354   7.950
 4296POPC   C4B15646  18.498  38.350   7.650
 4297POPC   NC315647  21.395  22.913   9.450
 4297POPC   PO415648  21.363  22.973   9.150
 4297POPC   GL115649  21.428  22.960   8.850
 4297POPC   GL215650  21.329  22.768   8.850
 4297POPC   C1A15651  21.429  22.961   8.550
 4297POPC   D2A15652  21.351  22.952   8.250
 4297POPC   C3A15653  21.385  22.950   7.950
 4297POPC   C4A15654  21.414  22.900   7.650
 4297POPC   C1B15655  21.347  22.740   8.550
 4297POPC   C2B15656  21.384  22.694   8.250
 4297POPC   C3B15657  21.350  22.685   7.950
 4297POPC   C4B15658  21.344  22.725   7.650
 4298POPC   NC315659  19.094   8.990   9.450
 4298POPC   PO415660  19.035   8.966   9.150
 4298POPC   GL115661  19.049   8.971   8.850
 4298POPC   GL215662  19.216   8.974   8.850
 4298POPC   C1A15663  19.090   9.017   8.550
 4298POPC   D2A15664  19.035   8.970   8.250
 4298POPC   C3A15665  19.095   8.998   7.950
 4298POPC   C4A15666  19.030   8.923   7.650
 4298POPC   C1B15667  19.324   8.960   8.550
 4298POPC   C2B15668  19.272   9.001   8.250
 4298POPC   C3B15669  19.303   8.951   7.950
 4298POPC   C4B15670  19.347   8.930   7.650
 4299POPC   NC315671  35.329   5.904   9.450
 4299POPC   PO415672  35.377   5.866   9.150
 4299POPC   GL115673  35.324   5.876   8.850
 4299POPC   GL215674  35.428   5.763   8.850
 4299POPC   C1A15675  35.349   5.849   8.550
 4299POPC   D2A15676  35.312   5.822   8.250
 4299POPC   C3A15677  35.353   5.823   7.950
 4299POPC   C4A15678  35.322   5.841   7.650
 4299POPC   C1B15679  35.577   5.713   8.550
 4299POPC   C2B15680  35.534   5.686   8.250
 4299POPC   C3B15681  35.523   5.740   7.950
 4299POPC   C4B15682  35.510   5.697   7.650
 4300POPC   NC315683  22.978  20.592   9.450
 4300POPC   PO415684  22.978  20.655   9.150
 4300POPC   GL115685  22.947  20.606   8.850
 4300POPC   GL215686  22.902  20.503   8.850
 4300POPC   C1A15687  22.934  20.646   8.550
 4300POPC   D2A15688  22.897  20.578   8.250
 4300POPC   C3A15689  22.966  20.625   7.950
 4300POPC   C4A15690  22.972  20.633   7.650
 4300POPC   C1B15691  22.886  20.351   8.550
 4300POPC   C2B15692  22.947  20.394   8.250
 4300POPC   C3B15693  22.884  20.353   7.950
 4300POPC   C4B15694  22.878  20.357   7.650
 4301POPC   NC315695  38.474  34.569   9.450
 4301POPC   PO415696  38.460  34.573   9.150
 4301POPC   GL115697  38.427  34.617   8.850
 4301POPC   GL215698  38.417  34.641   8.850
 4301POPC   C1A15699  38.498  34.581   8.550
 4301POPC   D2A15700  38.459  34.554   8.250
 4301POPC   C3A15701  38.480  34.547   7.950
 4301POPC   C4A15702  38.498  34.622   7.650
 4301POPC   C1B15703  38.271  34.766   8.550
 4301POPC   C2B15704  38.332  34.724   8.250
 4301POPC   C3B15705  38.251  34.806   7.950
 4301POPC   C4B15706  38.265  34.742   7.650
 4302POPC   NC315707  19.859   1.185   9.450
 4302POPC   PO415708  19.841   1.211   9.150
 4302POPC   GL115709  19.868   1.186   8.850
 4302POPC   GL215710  19.898   1.376   8.850
 4302POPC   C1A15711  19.814   1.180   8.550
 4302POPC   D2A15712  19.793   1.246   8.250
 4302POPC   C3A15713  19.814   1.169   7.950
 4302POPC   C4A15714  19.797   1.180   7.650
 4302POPC   C1B15715  19.897   1.475   8.550
 4302POPC   C2B15716  19.863   1.485   8.250
 4302POPC   C3B15717  19.902   1.425   7.950
 4302POPC   C4B15718  19.932   1.428   7.650
 4303POPC   NC315719  14.446  16.762   9.450
 4303POPC   PO415720  14.357  16.720   9.150
 4303POPC   GL115721  14.370  16.759   8.850
 4303POPC   GL215722  14.373  16.600   8.850
 4303POPC   C1A15723  14.388  16.721   8.550
 4303POPC   D2A15724  14.400  16.685   8.250
 4303POPC   C3A15725  14.430  16.761   7.950
 4303POPC   C4A15726  14.452  16.757   7.650
 4303POPC   C1B15727  14.375  16.530   8.550
 4303POPC   C2B15728  14.382  16.511   8.250
 4303POPC   C3B15729  14.346  16.502   7.950
 4303POPC   C4B15730  14.301  16.490   7.650
 4304POPC   NC315731  16.729  37.640   9.450
 4304POPC   PO415732  16.725  37.673   9.150
 4304POPC   GL115733  16.717  37.660   8.850
 4304POPC   GL215734  16.893  37.651   8.850
 4304POPC   C1A15735  16.707  37.638   8.550
 4304POPC   D2A15736  16.726  37.643   8.250
 4304POPC   C3A15737  16.744  37.631   7.950
 4304POPC   C4A15738  16.714  37.723   7.650
 4304POPC   C1B15739  16.960  37.563   8.550
 4304POPC   C2B15740  16.927  37.559   8.250
 4304POPC   C3B15741  16.917  37.543   7.950
 4304POPC   C4B15742  16.956  37.579   7.650
 4305POPC   NC315743  43.118  16.702   9.450
 4305POPC   PO415744  43.085  16.733   9.150
 4305POPC   GL115745  43.124  16.771   8.850
 4305POPC   GL215746  43.174  16.792   8.850
 4305POPC   C1A15747  43.069  16.747   8.550
 4305POPC   D2A15748  43.160  16.706   8.250
 4305POPC   C3A15749  43.147  16.778   7.950
 4305POPC   C4A15750  43.137  16.742   7.650
 4305POPC   C1B15751  43.349  16.906   8.550
 4305POPC   C2B15752  43.355  16.899   8.250
 4305POPC   C3B15753  43.301  16.910   7.950
 4305POPC   C4B15754  43.302  16.819   7.650
 4306POPC   NC315755  18.309   1.972   9.450
 4306POPC   PO415756  18.280   1.948   9.150
 4306POPC   GL115757  18.325   2.001   8.850
 4306POPC   GL215758  18.412   1.933   8.850
 4306POPC   C1A15759  18.273   1.950   8.550
 4306POPC   D2A15760  18.308   1.988   8.250
 4306POPC   C3A15761  18.256   1.965   7.950
 4306POPC   C4A15762  18.235   1.964   7.650
 4306POPC   C1B15763  18.475   1.840   8.550
 4306POPC   C2B15764  18.424   1.778   8.250
 4306POPC   C3B15765  18.496   1.779   7.950
 4306POPC   C4B15766  18.480   1.790   7.650
 4307POPC   NC315767  11.266  36.173   9.450
 4307POPC   PO415768  11.343  36.135   9.150
 4307POPC   GL115769  11.271  36.124   8.850
 4307POPC   GL215770  11.271  36.186   8.850
 4307POPC   C1A15771  11.290  36.090   8.550
 4307POPC   D2A15772  11.296  36.134   8.250
 4307POPC   C3A15773  11.345  36.121   7.950
 4307POPC   C4A15774  11.273  36.139   7.650
 4307POPC   C1B15775  11.170  36.300   8.550
 4307POPC   C2B15776  11.132  36.355   8.250
 4307POPC   C3B15777  11.193  36.378   7.950
 4307POPC   C4B15778  11.131  36.349   7.650
 4308POPC   NC315779  24.480  36.127   9.450
 4308POPC   PO415780  24.535  36.105   9.150
 4308POPC   GL115781  24.492  36.154   8.850
 4308POPC   GL215782  24.382  36.037   8.850
 4308POPC   C1A15783  24.455  36.119   8.550
 4308POPC   D2A15784  24.522  36.166   8.250
 4308POPC   C3A15785  24.453  36.153   7.950
 4308POPC   C4A15786  24.461  36.132   7.650
 4308POPC   C1B15787  24.261  35.975   8.550
 4308POPC   C2B15788  24.326  36.021   8.250
 4308POPC   C3B15789  24.309  35.966   7.950
 4308POPC   C4B15790  24.293  35.985   7.650
 4309POPC   NC315791  19.875   6.635   9.450
 4309POPC   PO415792  19.868   6.642   9.150
 4309POPC   GL115793  19.875   6.652   8.850
 4309POPC   GL215794  19.705   6.669   8.850
 4309POPC   C1A15795  19.880   6.597   8.550
 4309POPC   D2A15796  19.831   6.670   8.250
 4309POPC   C3A15797  19.788   6.634   7.950
 4309POPC   C4A15798  19.812   6.682   7.650
 4309POPC   C1B15799  19.620   6.669   8.550
 4309POPC   C2B15800  19.569   6.620   8.250
 4309POPC   C3B15801  19.591   6.686   7.950
 4309POPC   C4B15802  19.601   6.677   7.650
 4310POPC   NC315803  18.319  43.907   9.450
 4310POPC   PO415804  18.295  43.936   9.150
 4310POPC   GL115805  18.305  43.876   8.850
 4310POPC   GL215806  18.426  43.860   8.850
 4310POPC   C1A15807  18.252  43.888   8.550
 4310POPC   D2A15808  18.249  43.885   8.250
 4310POPC   C3A15809  18.269  43.854   7.950
 4310POPC   C4A15810  18.271  43.879   7.650
 4310POPC   C1B15811  18.569  43.818   8.550
 4310POPC   C2B15812  18.575  43.851   8.250
 4310POPC   C3B15813  18.498  43.785   7.950
 4310POPC   C4B15814  18.513  43.831   7.650
 4311POPC   NC315815  15.145   3.524   9.450
 4311POPC   PO415816  15.220   3.586   9.150
 4311POPC   GL115817  15.220   3.521   8.850
 4311POPC   GL215818  15.031   3.569   8.850
 4311POPC   C1A15819  15.165   3.523   8.550
 4311POPC   D2A15820  15.190   3.545   8.250
 4311POPC   C3A15821  15.209   3.570   7.950
 4311POPC   C4A15822  15.188   3.499   7.650
 4311POPC   C1B15823  14.907   3.468   8.550
 4311POPC   C2B15824  14.912   3.525   8.250
 4311POPC   C3B15825  14.969   3.508   7.950
 4311POPC   C4B15826  14.917   3.525   7.650
 4312POPC   NC315827   6.663  21.430   9.450
 4312POPC   PO415828   6.595  21.428   9.150
 4312POPC   GL115829   6.613  21.404   8.850
 4312POPC   GL215830   6.608  21.515   8.850
 4312POPC   C1A15831   6.644  21.410   8.550
 4312POPC   D2A15832   6.663  21.410   8.250
 4312POPC   C3A15833   6.651  21.361   7.950
 4312POPC   C4A15834   6.596  21.382   7.650
 4312POPC   C1B15835   6.582  21.583   8.550
 4312POPC   C2B15836   6.605  21.663   8.250
 4312POPC   C3B15837   6.571  21.655   7.950
 4312POPC   C4B15838   6.580  21.602   7.650
 4313POPC   NC315839  41.510  26.016   9.450
 4313POPC   PO415840  41.569  26.034   9.150
 4313POPC   GL115841  41.557  26.071   8.850
 4313POPC   GL215842  41.634  26.049   8.850
 4313POPC   C1A15843  41.517  26.085   8.550
 4313POPC   D2A15844  41.577  26.037   8.250
 4313POPC   C3A15845  41.534  26.013   7.950
 4313POPC   C4A15846  41.518  26.082   7.650
 4313POPC   C1B15847  41.849  25.990   8.550
 4313POPC   C2B15848  41.842  25.961   8.250
 4313POPC   C3B15849  41.837  26.024   7.950
 4313POPC   C4B15850  41.846  25.994   7.650
 4314POPC   NC315851  33.763   5.138   9.450
 4314POPC   PO415852  33.827   5.086   9.150
 4314POPC   GL115853  33.780   5.139   8.850
 4314POPC   GL215854  33.924   5.076   8.850
 4314POPC   C1A15855  33.760   5.086   8.550
 4314POPC   D2A15856  33.842   5.121   8.250
 4314POPC   C3A15857  33.766   5.050   7.950
 4314POPC   C4A15858  33.754   5.052   7.650
 4314POPC   C1B15859  34.039   5.073   8.550
 4314POPC   C2B15860  34.065   5.039   8.250
 4314POPC   C3B15861  34.020   5.042   7.950
 4314POPC   C4B15862  34.037   5.132   7.650
 4315POPC   NC315863   6.646  25.234   9.450
 4315POPC   PO415864   6.690  25.256   9.150
 4315POPC   GL115865   6.691  25.271   8.850
 4315POPC   GL215866   6.731  25.333   8.850
 4315POPC   C1A15867   6.602  25.240   8.550
 4315POPC   D2A15868   6.649  25.261   8.250
 4315POPC   C3A15869   6.651  25.252   7.950
 4315POPC   C4A15870   6.650  25.249   7.650
 4315POPC   C1B15871   6.893  25.316   8.550
 4315POPC   C2B15872   6.886  25.326   8.250
 4315POPC   C3B15873   6.919  25.311   7.950
 4315POPC   C4B15874   6.847  25.264   7.650
 4316POPC   NC315875  19.058   1.967   9.450
 4316POPC   PO415876  19.087   1.996   9.150
 4316POPC   GL115877  19.013   1.967   8.850
 4316POPC   GL215878  18.966   2.031   8.850
 4316POPC   C1A15879  19.090   1.941   8.550
 4316POPC   D2A15880  19.025   1.992   8.250
 4316POPC   C3A15881  19.025   1.977   7.950
 4316POPC   C4A15882  19.062   2.027   7.650
 4316POPC   C1B15883  18.784   2.066   8.550
 4316POPC   C2B15884  18.791   2.037   8.250
 4316POPC   C3B15885  18.839   2.018   7.950
 4316POPC   C4B15886  18.782   2.055   7.650
 4317POPC   NC315887  30.667  10.513   9.450
 4317POPC   PO415888  30.717  10.505   9.150
 4317POPC   GL115889  30.666  10.572   8.850
 4317POPC   GL215890  30.578  10.633   8.850
 4317POPC   C1A15891  30.698  10.542   8.550
 4317POPC   D2A15892  30.716  10.547   8.250
 4317POPC   C3A15893  30.681  10.504   7.950
 4317POPC   C4A15894  30.733  10.572   7.650
 4317POPC   C1B15895  30.475  10.675   8.550
 4317POPC   C2B15896  30.539  10.638   8.250
 4317POPC   C3B15897  30.493  10.642   7.950
 4317POPC   C4B15898  30.513  10.652   7.650
 4318POPC   NC315899  19.059  33.011   9.450
 4318POPC   PO415900  19.025  33.029   9.150
 4318POPC   GL115901  19.104  33.037   8.850
 4318POPC   GL215902  19.163  33.079   8.850
 4318POPC   C1A15903  19.098  33.018   8.550
 4318POPC   D2A15904  19.051  33.021   8.250
 4318POPC   C3A15905  19.059  33.001   7.950
 4318POPC   C4A15906  19.067  33.018   7.650
 4318POPC   C1B15907  19.222  33.241   8.550
 4318POPC   C2B15908  19.240  33.193   8.250
 4318POPC   C3B15909  19.231  33.248   7.950
 4318POPC   C4B15910  19.217  33.247   7.650
 4319POPC   NC315911  39.958  19.049   9.450
 4319POPC   PO415912  40.034  19.075   9.150
 4319POPC   GL115913  39.968  19.019   8.850
 4319POPC   GL215914  39.982  19.171   8.850
 4319POPC   C1A15915  39.995  19.076   8.550
 4319POPC   D2A15916  39.976  19.010   8.250
 4319POPC   C3A15917  40.041  19.035   7.950
 4319POPC   C4A15918  39.966  19.031   7.650
 4319POPC   C1B15919  39.937  19.269   8.550
 4319POPC   C2B15920  39.991  19.331   8.250
 4319POPC   C3B15921  39.930  19.354   7.950
 4319POPC   C4B15922  39.938  19.299   7.650
 4320POPC   NC315923   7.445   8.190   9.450
 4320POPC   PO415924   7.390   8.159   9.150
 4320POPC   GL115925   7.408   8.166   8.850
 4320POPC   GL215926   7.353   8.294   8.850
 4320POPC   C1A15927   7.411   8.211   8.550
 4320POPC   D2A15928   7.376   8.148   8.250
 4320POPC   C3A15929   7.461   8.147   7.950
 4320POPC   C4A15930   7.422   8.213   7.650
 4320POPC   C1B15931   7.312   8.398   8.550
 4320POPC   C2B15932   7.279   8.404   8.250
 4320POPC   C3B15933   7.284   8.420   7.950
 4320POPC   C4B15934   7.280   8.385   7.650
 4321POPC   NC315935  36.087  19.881   9.450
 4321POPC   PO415936  36.171  19.790   9.150
 4321POPC   GL115937  36.173  19.878   8.850
 4321POPC   GL215938  36.041  19.889   8.850
 4321POPC   C1A15939  36.153  19.791   8.550
 4321POPC   D2A15940  36.162  19.841   8.250
 4321POPC   C3A15941  36.107  19.813   7.950
 4321POPC   C4A15942  36.116  19.841   7.650
 4321POPC   C1B15943  35.991  20.020   8.550
 4321POPC   C2B15944  35.941  20.055   8.250
 4321POPC   C3B15945  35.953  20.012   7.950
 4321POPC   C4B15946  35.980  20.015   7.650
 4322POPC   NC315947  29.920  30.692   9.450
 4322POPC   PO415948  29.873  30.702   9.150
 4322POPC   GL115949  29.943  30.741   8.850
 4322POPC   GL215950  29.869  30.539   8.850
 4322POPC   C1A15951  29.899  30.688   8.550
 4322POPC   D2A15952  29.890  30.711   8.250
 4322POPC   C3A15953  29.945  30.700   7.950
 4322POPC   C4A15954  29.917  30.720   7.650
 4322POPC   C1B15955  29.961  30.439   8.550
 4322POPC   C2B15956  29.915  30.468   8.250
 4322POPC   C3B15957  29.929  30.496   7.950
 4322POPC   C4B15958  29.878  30.476   7.650
 4323POPC   NC315959  14.426  24.519   9.450
 4323POPC   PO415960  14.400  24.455   9.150
 4323POPC   GL115961  14.403  24.475   8.850
 4323POPC   GL215962  14.490  24.569   8.850
 4323POPC   C1A15963  14.425  24.482   8.550
 4323POPC   D2A15964  14.370  24.534   8.250
 4323POPC   C3A15965  14.365  24.462   7.950
 4323POPC   C4A15966  14.381  24.455   7.650
 4323POPC   C1B15967  14.535  24.644   8.550
 4323POPC   C2B15968  14.515  24.662   8.250
 4323POPC   C3B15969  14.577  24.738   7.950
 4323POPC   C4B15970  14.515  24.735   7.650
 4324POPC   NC315971  29.104  25.996   9.450
 4324POPC   PO415972  29.157  26.026   9.150
 4324POPC   GL115973  29.169  26.050   8.850
 4324POPC   GL215974  29.045  26.150   8.850
 4324POPC   C1A15975  29.164  26.046   8.550
 4324POPC   D2A15976  29.120  26.036   8.250
 4324POPC   C3A15977  29.155  25.996   7.950
 4324POPC   C4A15978  29.184  26.059   7.650
 4324POPC   C1B15979  28.977  26.202   8.550
 4324POPC   C2B15980  28.974  26.226   8.250
 4324POPC   C3B15981  29.013  26.197   7.950
 4324POPC   C4B15982  28.934  26.229   7.650
 4325POPC   NC315983  19.873  14.386   9.450
 4325POPC   PO415984  19.873  14.375   9.150
 4325POPC   GL115985  19.874  14.435   8.850
 4325POPC   GL215986  19.737  14.412   8.850
 4325POPC   C1A15987  19.876  14.414   8.550
 4325POPC   D2A15988  19.785  14.401   8.250
 4325POPC   C3A15989  19.838  14.421   7.950
 4325POPC   C4A15990  19.879  14.435   7.650
 4325POPC   C1B15991  19.628  14.424   8.550
 4325POPC   C2B15992  19.564  14.424   8.250
 4325POPC   C3B15993  19.572  14.443   7.950
 4325POPC   C4B15994  19.560  14.470   7.650
 4326POPC   NC315995   1.998  36.946   9.450
 4326POPC   PO415996   1.940  36.865   9.150
 4326POPC   GL115997   2.036  36.912   8.850
 4326POPC   GL215998   1.987  36.745   8.850
 4326POPC   C1A15999   2.004  36.903   8.550
 4326POPC   D2A16000   2.027  36.912   8.250
 4326POPC   C3A16001   1.968  36.930   7.950
 4326POPC   C4A16002   1.975  36.886   7.650
 4326POPC   C1B16003   1.931  36.687   8.550
 4326POPC   C2B16004   1.967  36.643   8.250
 4326POPC   C3B16005   1.899  36.630   7.950
 4326POPC   C4B16006   1.913  36.658   7.650
 4327POPC   NC316007  19.820  43.894   9.450
 4327POPC   PO416008  19.812  43.913   9.150
 4327POPC   GL116009  19.867  43.886   8.850
 4327POPC   GL216010  19.667  43.937   8.850
 4327POPC   C1A16011  19.875  43.873   8.550
 4327POPC   D2A16012  19.854  43.901   8.250
 4327POPC   C3A16013  19.810  43.846   7.950
 4327POPC   C4A16014  19.832  43.872   7.650
 4327POPC   C1B16015  19.595  43.971   8.550
 4327POPC   C2B16016  19.568  43.946   8.250
 4327POPC   C3B16017  19.575  43.983   7.950
 4327POPC   C4B16018  19.601  43.995   7.650
 4328POPC   NC316019  20.592   1.943   9.450
 4328POPC   PO416020  20.566   1.957   9.150
 4328POPC   GL116021  20.616   2.033   8.850
 4328POPC   GL216022  20.504   1.997   8.850
 4328POPC   C1A16023  20.565   2.021   8.550
 4328POPC   D2A16024  20.629   2.037   8.250
 4328POPC   C3A16025  20.586   2.035   7.950
 4328POPC   C4A16026  20.600   1.990   7.650
 4328POPC   C1B16027  20.387   2.051   8.550
 4328POPC   C2B16028  20.396   2.054   8.250
 4328POPC   C3B16029  20.347   2.088   7.950
 4328POPC   C4B16030  20.422   2.097   7.650
 4329POPC   NC316031   4.357  13.653   9.450
 4329POPC   PO416032   4.288  13.660   9.150
 4329POPC   GL116033   4.269  13.638   8.850
 4329POPC   GL216034   4.311  13.545   8.850
 4329POPC   C1A16035   4.294  13.648   8.550
 4329POPC   D2A16036   4.300  13.664   8.250
 4329POPC   C3A16037   4.343  13.664   7.950
 4329POPC   C4A16038   4.295  13.606   7.650
 4329POPC   C1B16039   4.347  13.337   8.550
 4329POPC   C2B16040   4.316  13.379   8.250
 4329POPC   C3B16041   4.361  13.401   7.950
 4329POPC   C4B16042   4.345  13.383   7.650
 4330POPC   NC316043   3.565   8.996   9.450
 4330POPC   PO416044   3.542   9.007   9.150
 4330POPC   GL116045   3.546   8.952   8.850
 4330POPC   GL216046   3.674   9.111   8.850
 4330POPC   C1A16047   3.514   8.986   8.550
 4330POPC   D2A16048   3.566   8.961   8.250
 4330POPC   C3A16049   3.587   8.954   7.950
 4330POPC   C4A16050   3.547   8.976   7.650
 4330POPC   C1B16051   3.758   9.189   8.550
 4330POPC   C2B16052   3.751   9.132   8.250
 4330POPC   C3B16053   3.679   9.180   7.950
 4330POPC   C4B16054   3.686   9.167   7.650
 4331POPC   NC316055  27.588  37.654   9.450
 4331POPC   PO416056  27.546  37.674   9.150
 4331POPC   GL116057  27.596  37.720   8.850
 4331POPC   GL216058  27.537  37.521   8.850
 4331POPC   C1A16059  27.557  37.708   8.550
 4331POPC   D2A16060  27.597  37.650   8.250
 4331POPC   C3A16061  27.583  37.699   7.950
 4331POPC   C4A16062  27.605  37.668   7.650
 4331POPC   C1B16063  27.524  37.476   8.550
 4331POPC   C2B16064  27.561  37.412   8.250
 4331POPC   C3B16065  27.589  37.407   7.950
 4331POPC   C4B16066  27.542  37.433   7.650
 4332POPC   NC316067  28.371  42.361   9.450
 4332POPC   PO416068  28.371  42.308   9.150
 4332POPC   GL116069  28.396  42.384   8.850
 4332POPC   GL216070  28.385  42.491   8.850
 4332POPC   C1A16071  28.369  42.309   8.550
 4332POPC   D2A16072  28.363  42.306   8.250
 4332POPC   C3A16073  28.348  42.356   7.950
 4332POPC   C4A16074  28.363  42.356   7.650
 4332POPC   C1B16075  28.380  42.569   8.550
 4332POPC   C2B16076  28.346  42.586   8.250
 4332POPC   C3B16077  28.397  42.549   7.950
 4332POPC   C4B16078  28.346  42.545   7.650
 4333POPC   NC316079  12.071  16.688   9.450
 4333POPC   PO416080  12.045  16.735   9.150
 4333POPC   GL116081  12.098  16.744   8.850
 4333POPC   GL216082  12.169  16.669   8.850
 4333POPC   C1A16083  12.091  16.768   8.550
 4333POPC   D2A16084  12.087  16.770   8.250
 4333POPC   C3A16085  12.045  16.763   7.950
 4333POPC   C4A16086  12.038  16.690   7.650
 4333POPC   C1B16087  12.296  16.602   8.550
 4333POPC   C2B16088  12.309  16.624   8.250
 4333POPC   C3B16089  12.315  16.612   7.950
 4333POPC   C4B16090  12.272  16.617   7.650
 4334POPC   NC316091  37.685   8.928   9.450
 4334POPC   PO416092  37.632   9.003   9.150
 4334POPC   GL116093  37.647   9.022   8.850
 4334POPC   GL216094  37.693   9.072   8.850
 4334POPC   C1A16095  37.706   8.946   8.550
 4334POPC   D2A16096  37.634   8.946   8.250
 4334POPC   C3A16097  37.709   8.980   7.950
 4334POPC   C4A16098  37.662   8.945   7.650
 4334POPC   C1B16099  37.775   9.172   8.550
 4334POPC   C2B16100  37.735   9.211   8.250
 4334POPC   C3B16101  37.725   9.176   7.950
 4334POPC   C4B16102  37.756   9.183   7.650
 4335POPC   NC316103   9.772  29.120   9.450
 4335POPC   PO416104   9.768  29.108   9.150
 4335POPC   GL116105   9.721  29.160   8.850
 4335POPC   GL216106   9.694  29.234   8.850
 4335POPC   C1A16107   9.793  29.150   8.550
 4335POPC   D2A16108   9.777  29.191   8.250
 4335POPC   C3A16109   9.757  29.131   7.950
 4335POPC   C4A16110   9.708  29.148   7.650
 4335POPC   C1B16111   9.591  29.321   8.550
 4335POPC   C2B16112   9.575  29.293   8.250
 4335POPC   C3B16113   9.502  29.263   7.950
 4335POPC   C4B16114   9.497  29.265   7.650
 4336POPC   NC316115  34.590  15.910   9.450
 4336POPC   PO416116  34.533  15.951   9.150
 4336POPC   GL116117  34.598  15.927   8.850
 4336POPC   GL216118  34.522  15.820   8.850
 4336POPC   C1A16119  34.597  15.975   8.550
 4336POPC   D2A16120  34.625  15.960   8.250
 4336POPC   C3A16121  34.614  15.984   7.950
 4336POPC   C4A16122  34.579  15.993   7.650
 4336POPC   C1B16123  34.493  15.727   8.550
 4336POPC   C2B16124  34.473  15.749   8.250
 4336POPC   C3B16125  34.478  15.685   7.950
 4336POPC   C4B16126  34.452  15.731   7.650
 4337POPC   NC316127  16.697   8.948   9.450
 4337POPC   PO416128  16.780   8.965   9.150
 4337POPC   GL116129  16.686   8.935   8.850
 4337POPC   GL216130  16.753   8.845   8.850
 4337POPC   C1A16131  16.683   8.976   8.550
 4337POPC   D2A16132  16.703   8.966   8.250
 4337POPC   C3A16133  16.755   8.969   7.950
 4337POPC   C4A16134  16.772   8.975   7.650
 4337POPC   C1B16135  16.799   8.697   8.550
 4337POPC   C2B16136  16.851   8.731   8.250
 4337POPC   C3B16137  16.773   8.697   7.950
 4337POPC   C4B16138  16.782   8.721   7.650
 4338POPC   NC316139  19.058  39.194   9.450
 4338POPC   PO416140  19.052  39.261   9.150
 4338POPC   GL116141  19.036  39.255   8.850
 4338POPC   GL216142  19.063  39.122   8.850
 4338POPC   C1A16143  19.095  39.201   8.550
 4338POPC   D2A16144  19.078  39.228   8.250
 4338POPC   C3A16145  19.009  39.281   7.950
 4338POPC   C4A16146  19.036  39.250   7.650
 4338POPC   C1B16147  19.075  38.966   8.550
 4338POPC   C2B16148  19.087  38.960   8.250
 4338POPC   C3B16149  19.055  39.017   7.950
 4338POPC   C4B16150  19.046  38.967   7.650
 4339POPC   NC316151  33.774  32.989   9.450
 4339POPC   PO416152  33.820  32.998   9.150
 4339POPC   GL116153  33.766  33.049   8.850
 4339POPC   GL216154  33.791  32.942   8.850
 4339POPC   C1A16155  33.817  33.007   8.550
 4339POPC   D2A16156  33.801  32.980   8.250
 4339POPC   C3A16157  33.773  32.979   7.950
 4339POPC   C4A16158  33.757  33.042   7.650
 4339POPC   C1B16159  33.724  32.819   8.550
 4339POPC   C2B16160  33.753  32.752   8.250
 4339POPC   C3B16161  33.767  32.826   7.950
 4339POPC   C4B16162  33.796  32.797   7.650
 4340POPC   NC316163  33.820   6.617   9.450
 4340POPC   PO416164  33.763   6.664   9.150
 4340POPC   GL116165  33.846   6.597   8.850
 4340POPC   GL216166  33.907   6.629   8.850
 4340POPC   C1A16167  33.813   6.641   8.550
 4340POPC   D2A16168  33.795   6.628   8.250
 4340POPC   C3A16169  33.842   6.606   7.950
 4340POPC   C4A16170  33.759   6.672   7.650
 4340POPC   C1B16171  34.058   6.555   8.550
 4340POPC   C2B16172  33.978   6.555   8.250
 4340POPC   C3B16173  34.006   6.540   7.950
 4340POPC   C4B16174  33.991   6.532   7.650
 4341POPC   NC316175   5.898  15.151   9.450
 4341POPC   PO416176   5.916  15.155   9.150
 4341POPC   GL116177   5.819  15.176   8.850
 4341POPC   GL216178   5.942  15.104   8.850
 4341POPC   C1A16179   5.833  15.181   8.550
 4341POPC   D2A16180   5.898  15.225   8.250
 4341POPC   C3A16181   5.904  15.160   7.950
 4341POPC   C4A16182   5.894  15.167   7.650
 4341POPC   C1B16183   5.927  14.917   8.550
 4341POPC   C2B16184   5.949  14.915   8.250
 4341POPC   C3B16185   5.927  14.892   7.950
 4341POPC   C4B16186   5.957  14.939   7.650
 4342POPC   NC316187  22.143  15.154   9.450
 4342POPC   PO416188  22.204  15.139   9.150
 4342POPC   GL116189  22.175  15.215   8.850
 4342POPC   GL216190  22.099  15.160   8.850
 4342POPC   C1A16191  22.117  15.211   8.550
 4342POPC   D2A16192  22.146  15.135   8.250
 4342POPC   C3A16193  22.154  15.171   7.950
 4342POPC   C4A16194  22.150  15.224   7.650
 4342POPC   C1B16195  21.904  15.095   8.550
 4342POPC   C2B16196  21.959  15.046   8.250
 4342POPC   C3B16197  21.943  15.088   7.950
 4342POPC   C4B16198  21.904  15.038   7.650
 4343POPC   NC316199   9.793  19.844   9.450
 4343POPC   PO416200   9.712  19.854   9.150
 4343POPC   GL116201   9.755  19.813   8.850
 4343POPC   GL216202   9.583  19.817   8.850
 4343POPC   C1A16203   9.779  19.868   8.550
 4343POPC   D2A16204   9.701  19.844   8.250
 4343POPC   C3A16205   9.798  19.854   7.950
 4343POPC   C4A16206   9.773  19.879   7.650
 4343POPC   C1B16207   9.480  19.769   8.550
 4343POPC   C2B16208   9.507  19.810   8.250
 4343POPC   C3B16209   9.517  19.771   7.950
 4343POPC   C4B16210   9.547  19.830   7.650
 4344POPC   NC316211   3.561  24.503   9.450
 4344POPC   PO416212   3.575  24.513   9.150
 4344POPC   GL116213   3.499  24.472   8.850
 4344POPC   GL216214   3.662  24.476   8.850
 4344POPC   C1A16215   3.528  24.528   8.550
 4344POPC   D2A16216   3.524  24.442   8.250
 4344POPC   C3A16217   3.517  24.496   7.950
 4344POPC   C4A16218   3.511  24.515   7.650
 4344POPC   C1B16219   3.790  24.363   8.550
 4344POPC   C2B16220   3.777  24.441   8.250
 4344POPC   C3B16221   3.818  24.435   7.950
 4344POPC   C4B16222   3.818  24.384   7.650
 4345POPC   NC316223  35.353   2.769   9.450
 4345POPC   PO416224  35.328   2.790   9.150
 4345POPC   GL116225  35.347   2.735   8.850
 4345POPC   GL216226  35.254   2.727   8.850
 4345POPC   C1A16227  35.310   2.763   8.550
 4345POPC   D2A16228  35.321   2.732   8.250
 4345POPC   C3A16229  35.386   2.812   7.950
 4345POPC   C4A16230  35.317   2.724   7.650
 4345POPC   C1B16231  35.170   2.586   8.550
 4345POPC   C2B16232  35.137   2.602   8.250
 4345POPC   C3B16233  35.121   2.634   7.950
 4345POPC   C4B16234  35.199   2.570   7.650
 4346POPC   NC316235  33.056  29.146   9.450
 4346POPC   PO416236  33.064  29.133   9.150
 4346POPC   GL116237  32.976  29.108   8.850
 4346POPC   GL216238  33.035  29.250   8.850
 4346POPC   C1A16239  32.987  29.142   8.550
 4346POPC   D2A16240  33.001  29.184   8.250
 4346POPC   C3A16241  32.983  29.191   7.950
 4346POPC   C4A16242  32.998  29.150   7.650
 4346POPC   C1B16243  33.125  29.398   8.550
 4346POPC   C2B16244  33.117  29.397   8.250
 4346POPC   C3B16245  33.146  29.395   7.950
 4346POPC   C4B16246  33.088  29.402   7.650
 4347POPC   NC316247  28.389  24.532   9.450
 4347POPC   PO416248  28.338  24.525   9.150
 4347POPC   GL116249  28.409  24.529   8.850
 4347POPC   GL216250  28.256  24.404   8.850
 4347POPC   C1A16251  28.385  24.456   8.550
 4347POPC   D2A16252  28.397  24.516   8.250
 4347POPC   C3A16253  28.342  24.517   7.950
 4347POPC   C4A16254  28.349  24.523   7.650
 4347POPC   C1B16255  28.174  24.404   8.550
 4347POPC   C2B16256  28.160  24.379   8.250
 4347POPC   C3B16257  28.162  24.341   7.950
 4347POPC   C4B16258  28.140  24.357   7.650
 4348POPC   NC316259  35.329  29.902   9.450
 4348POPC   PO416260  35.348  29.940   9.150
 4348POPC   GL116261  35.382  29.925   8.850
 4348POPC   GL216262  35.385  30.024   8.850
 4348POPC   C1A16263  35.327  29.920   8.550
 4348POPC   D2A16264  35.338  29.915   8.250
 4348POPC   C3A16265  35.395  29.892   7.950
 4348POPC   C4A16266  35.401  29.970   7.650
 4348POPC   C1B16267  35.504  30.142   8.550
 4348POPC   C2B16268  35.477  30.085   8.250
 4348POPC   C3B16269  35.481  30.136   7.950
 4348POPC   C4B16270  35.490  30.134   7.650
 4349POPC   NC316271  25.299  21.386   9.450
 4349POPC   PO416272  25.230  21.368   9.150
 4349POPC   GL116273  25.254  21.341   8.850
 4349POPC   GL216274  25.344  21.421   8.850
 4349POPC   C1A16275  25.226  21.406   8.550
 4349POPC   D2A16276  25.300  21.416   8.250
 4349POPC   C3A16277  25.300  21.369   7.950
 4349POPC   C4A16278  25.224  21.357   7.650
 4349POPC   C1B16279  25.434  21.555   8.550
 4349POPC   C2B16280  25.443  21.522   8.250
 4349POPC   C3B16281  25.501  21.578   7.950
 4349POPC   C4B16282  25.474  21.559   7.650
 4350POPC   NC316283  29.939  20.577   9.450
 4350POPC   PO416284  29.939  20.619   9.150
 4350POPC   GL116285  29.887  20.605   8.850
 4350POPC   GL216286  29.807  20.532   8.850
 4350POPC   C1A16287  29.924  20.576   8.550
 4350POPC   D2A16288  29.941  20.622   8.250
 4350POPC   C3A16289  29.959  20.616   7.950
 4350POPC   C4A16290  29.967  20.563   7.650
 4350POPC   C1B16291  29.745  20.438   8.550
 4350POPC   C2B16292  29.740  20.396   8.250
 4350POPC   C3B16293  29.775  20.426   7.950
 4350POPC   C4B16294  29.796  20.438   7.650
 4351POPC   NC316295  13.603  23.716   9.450
 4351POPC   PO416296  13.666  23.716   9.150
 4351POPC   GL116297  13.663  23.677   8.850
 4351POPC   GL216298  13.484  23.649   8.850
 4351POPC   C1A16299  13.579  23.736   8.550
 4351POPC   D2A16300  13.598  23.737   8.250
 4351POPC   C3A16301  13.635  23.686   7.950
 4351POPC   C4A16302  13.666  23.729   7.650
 4351POPC   C1B16303  13.475  23.595   8.550
 4351POPC   C2B16304  13.387  23.534   8.250
 4351POPC   C3B16305  13.384  23.509   7.950
 4351POPC   C4B16306  13.457  23.538   7.650
 4352POPC   NC316307  38.444   1.969   9.450
 4352POPC   PO416308  38.430   2.022   9.150
 4352POPC   GL116309  38.436   1.987   8.850
 4352POPC   GL216310  38.578   2.012   8.850
 4352POPC   C1A16311  38.427   2.022   8.550
 4352POPC   D2A16312  38.483   1.976   8.250
 4352POPC   C3A16313  38.416   1.987   7.950
 4352POPC   C4A16314  38.462   2.006   7.650
 4352POPC   C1B16315  38.670   2.058   8.550
 4352POPC   C2B16316  38.720   2.062   8.250
 4352POPC   C3B16317  38.701   2.090   7.950
 4352POPC   C4B16318  38.700   2.094   7.650
 4353POPC   NC316319  21.364  44.621   9.450
 4353POPC   PO416320  21.389  44.689   9.150
 4353POPC   GL116321  21.385  44.667   8.850
 4353POPC   GL216322  21.406  44.530   8.850
 4353POPC   C1A16323  21.396  44.634   8.550
 4353POPC   D2A16324  21.349  44.682   8.250
 4353POPC   C3A16325  21.406  44.709   7.950
 4353POPC   C4A16326  21.364  44.663   7.650
 4353POPC   C1B16327  21.437  44.394   8.550
 4353POPC   C2B16328  21.413  44.387   8.250
 4353POPC   C3B16329  21.355  44.369   7.950
 4353POPC   C4B16330  21.419  44.382   7.650
 4354POPC   NC316331  36.140  12.840   9.450
 4354POPC   PO416332  36.083  12.833   9.150
 4354POPC   GL116333  36.099  12.861   8.850
 4354POPC   GL216334  36.163  13.000   8.850
 4354POPC   C1A16335  36.085  12.808   8.550
 4354POPC   D2A16336  36.134  12.813   8.250
 4354POPC   C3A16337  36.086  12.820   7.950
 4354POPC   C4A16338  36.164  12.857   7.650
 4354POPC   C1B16339  36.118  13.080   8.550
 4354POPC   C2B16340  36.124  13.147   8.250
 4354POPC   C3B16341  36.119  13.062   7.950
 4354POPC   C4B16342  36.194  13.104   7.650
 4355POPC   NC316343   8.239  35.368   9.450
 4355POPC   PO416344   8.208  35.350   9.150
 4355POPC   GL116345   8.188  35.303   8.850
 4355POPC   GL216346   8.075  35.294   8.850
 4355POPC   C1A16347   8.178  35.311   8.550
 4355POPC   D2A16348   8.203  35.375   8.250
 4355POPC   C3A16349   8.194  35.336   7.950
 4355POPC   C4A16350   8.181  35.344   7.650
 4355POPC   C1B16351   8.037  35.227   8.550
 4355POPC   C2B16352   7.994  35.227   8.250
 4355POPC   C3B16353   7.949  35.237   7.950
 4355POPC   C4B16354   8.016  35.212   7.650
 4356POPC   NC316355  22.982  26.862   9.450
 4356POPC   PO416356  22.942  26.805   9.150
 4356POPC   GL116357  22.983  26.776   8.850
 4356POPC   GL216358  22.920  26.938   8.850
 4356POPC   C1A16359  22.896  26.768   8.550
 4356POPC   D2A16360  22.894  26.792   8.250
 4356POPC   C3A16361  22.986  26.839   7.950
 4356POPC   C4A16362  22.913  26.788   7.650
 4356POPC   C1B16363  22.964  27.069   8.550
 4356POPC   C2B16364  22.970  27.072   8.250
 4356POPC   C3B16365  22.926  27.039   7.950
 4356POPC   C4B16366  22.931  27.033   7.650
 4357POPC   NC316367  36.110  10.526   9.450
 4357POPC   PO416368  36.151  10.568   9.150
 4357POPC   GL116369  36.177  10.510   8.850
 4357POPC   GL216370  36.019  10.445   8.850
 4357POPC   C1A16371  36.176  10.505   8.550
 4357POPC   D2A16372  36.115  10.485   8.250
 4357POPC   C3A16373  36.102  10.512   7.950
 4357POPC   C4A16374  36.177  10.566   7.650
 4357POPC   C1B16375  35.885  10.489   8.550
 4357POPC   C2B16376  35.857  10.491   8.250
 4357POPC   C3B16377  35.901  10.498   7.950
 4357POPC   C4B16378  35.853  10.470   7.650
 4358POPC   NC316379  36.901  25.238   9.450
 4358POPC   PO416380  36.860  25.229   9.150
 4358POPC   GL116381  36.889  25.252   8.850
 4358POPC   GL216382  36.969  25.172   8.850
 4358POPC   C1A16383  36.932  25.216   8.550
 4358POPC   D2A16384  36.859  25.292   8.250
 4358POPC   C3A16385  36.922  25.264   7.950
 4358POPC   C4A16386  36.925  25.302   7.650
 4358POPC   C1B16387  37.030  25.007   8.550
 4358POPC   C2B16388  37.001  25.048   8.250
 4358POPC   C3B16389  36.988  25.068   7.950
 4358POPC   C4B16390  37.012  24.997   7.650
 4359POPC   NC316391  43.075   1.989   9.450
 4359POPC   PO416392  43.071   1.973   9.150
 4359POPC   GL116393  43.149   2.028   8.850
 4359POPC   GL216394  43.008   1.969   8.850
 4359POPC   C1A16395  43.151   2.034   8.550
 4359POPC   D2A16396  43.094   2.031   8.250
 4359POPC   C3A16397  43.121   2.027   7.950
 4359POPC   C4A16398  43.100   2.006   7.650
 4359POPC   C1B16399  42.863   1.895   8.550
 4359POPC   C2B16400  42.891   1.928   8.250
 4359POPC   C3B16401  42.852   1.839   7.950
 4359POPC   C4B16402  42.870   1.847   7.650
 4360POPC   NC316403  34.597  27.602   9.450
 4360POPC   PO416404  34.586  27.623   9.150
 4360POPC   GL116405  34.527  27.605   8.850
 4360POPC   GL216406  34.480  27.456   8.850
 4360POPC   C1A16407  34.552  27.548   8.550
 4360POPC   D2A16408  34.551  27.549   8.250
 4360POPC   C3A16409  34.604  27.607   7.950
 4360POPC   C4A16410  34.594  27.572   7.650
 4360POPC   C1B16411  34.473  27.426   8.550
 4360POPC   C2B16412  34.391  27.395   8.250
 4360POPC   C3B16413  34.486  27.420   7.950
 4360POPC   C4B16414  34.460  27.350   7.650
 4361POPC   NC316415  37.687  44.654   9.450
 4361POPC   PO416416  37.666  44.666   9.150
 4361POPC   GL116417  37.709  44.619   8.850
 4361POPC   GL216418  37.684  44.537   8.850
 4361POPC   C1A16419  37.668  44.656   8.550
 4361POPC   D2A16420  37.670  44.666   8.250
 4361POPC   C3A16421  37.673  44.676   7.950
 4361POPC   C4A16422  37.707  44.623   7.650
 4361POPC   C1B16423  37.813  44.402   8.550
 4361POPC   C2B16424  37.771  44.431   8.250
 4361POPC   C3B16425  37.767  44.418   7.950
 4361POPC   C4B16426  37.748  44.408   7.650
 4362POPC   NC316427  25.245  30.743   9.450
 4362POPC   PO416428  25.252  30.656   9.150
 4362POPC   GL116429  25.228  30.674   8.850
 4362POPC   GL216430  25.103  30.744   8.850
 4362POPC   C1A16431  25.228  30.736   8.550
 4362POPC   D2A16432  25.308  30.654   8.250
 4362POPC   C3A16433  25.271  30.707   7.950
 4362POPC   C4A16434  25.314  30.729   7.650
 4362POPC   C1B16435  25.068  30.800   8.550
 4362POPC   C2B16436  25.010  30.821   8.250
 4362POPC   C3B16437  25.087  30.842   7.950
 4362POPC   C4B16438  25.045  30.793   7.650
 4363POPC   NC316439  40.766   7.469   9.450
 4363POPC   PO416440  40.775   7.447   9.150
 4363POPC   GL116441  40.791   7.393   8.850
 4363POPC   GL216442  40.858   7.318   8.850
 4363POPC   C1A16443  40.779   7.433   8.550
 4363POPC   D2A16444  40.828   7.470   8.250
 4363POPC   C3A16445  40.777   7.394   7.950
 4363POPC   C4A16446  40.790   7.415   7.650
 4363POPC   C1B16447  40.983   7.292   8.550
 4363POPC   C2B16448  40.951   7.293   8.250
 4363POPC   C3B16449  41.015   7.270   7.950
 4363POPC   C4B16450  40.982   7.316   7.650
 4364POPC   NC316451  36.897  26.067   9.450
 4364POPC   PO416452  36.911  26.000   9.150
 4364POPC   GL116453  36.858  26.015   8.850
 4364POPC   GL216454  36.870  25.897   8.850
 4364POPC   C1A16455  36.863  26.002   8.550
 4364POPC   D2A16456  36.945  26.004   8.250
 4364POPC   C3A16457  36.938  25.993   7.950
 4364POPC   C4A16458  36.855  26.016   7.650
 4364POPC   C1B16459  36.800  25.799   8.550
 4364POPC   C2B16460  36.771  25.805   8.250
 4364POPC   C3B16461  36.761  25.862   7.950
 4364POPC   C4B16462  36.794  25.848   7.650
 4365POPC   NC316463  12.112  22.168   9.450
 4365POPC   PO416464  12.095  22.155   9.150
 4365POPC   GL116465  12.093  22.137   8.850
 4365POPC   GL216466  12.018  22.026   8.850
 4365POPC   C1A16467  12.065  22.128   8.550
 4365POPC   D2A16468  12.091  22.168   8.250
 4365POPC   C3A16469  12.081  22.152   7.950
 4365POPC   C4A16470  12.100  22.168   7.650
 4365POPC   C1B16471  11.955  21.967   8.550
 4365POPC   C2B16472  11.927  21.948   8.250
 4365POPC   C3B16473  11.965  22.007   7.950
 4365POPC   C4B16474  11.945  21.994   7.650
 4366POPC   NC316475  39.223  26.844   9.450
 4366POPC   PO416476  39.203  26.826   9.150
 4366POPC   GL116477  39.238  26.808   8.850
 4366POPC   GL216478  39.151  26.941   8.850
 4366POPC   C1A16479  39.214  26.845   8.550
 4366POPC   D2A16480  39.221  26.813   8.250
 4366POPC   C3A16481  39.262  26.843   7.950
 4366POPC   C4A16482  39.187  26.784   7.650
 4366POPC   C1B16483  39.097  27.018   8.550
 4366POPC   C2B16484  39.060  27.055   8.250
 4366POPC   C3B16485  39.124  26.998   7.950
 4366POPC   C4B16486  39.086  27.012   7.650
 4367POPC   NC316487  36.910  15.960   9.450
 4367POPC   PO416488  36.943  15.983   9.150
 4367POPC   GL116489  36.901  15.934   8.850
 4367POPC   GL216490  36.914  15.796   8.850
 4367POPC   C1A16491  36.884  15.964   8.550
 4367POPC   D2A16492  36.953  15.968   8.250
 4367POPC   C3A16493  36.953  15.959   7.950
 4367POPC   C4A16494  36.898  15.927   7.650
 4367POPC   C1B16495  36.978  15.713   8.550
 4367POPC   C2B16496  37.026  15.702   8.250
 4367POPC   C3B16497  37.012  15.668   7.950
 4367POPC   C4B16498  36.953  15.754   7.650
 4368POPC   NC316499  23.724  29.941   9.450
 4368POPC   PO416500  23.699  29.907   9.150
 4368POPC   GL116501  23.689  29.910   8.850
 4368POPC   GL216502  23.572  29.937   8.850
 4368POPC   C1A16503  23.763  29.898   8.550
 4368POPC   D2A16504  23.724  29.923   8.250
 4368POPC   C3A16505  23.694  29.888   7.950
 4368POPC   C4A16506  23.720  29.945   7.650
 4368POPC   C1B16507  23.446  29.960   8.550
 4368POPC   C2B16508  23.475  29.937   8.250
 4368POPC   C3B16509  23.445  29.931   7.950
 4368POPC   C4B16510  23.495  29.927   7.650
 4369POPC   NC316511   7.425   7.411   9.450
 4369POPC   PO416512   7.443   7.470   9.150
 4369POPC   GL116513   7.436   7.429   8.850
 4369POPC   GL216514   7.454   7.250   8.850
 4369POPC   C1A16515   7.452   7.441   8.550
 4369POPC   D2A16516   7.435   7.416   8.250
 4369POPC   C3A16517   7.392   7.372   7.950
 4369POPC   C4A16518   7.461   7.462   7.650
 4369POPC   C1B16519   7.389   7.186   8.550
 4369POPC   C2B16520   7.354   7.222   8.250
 4369POPC   C3B16521   7.412   7.152   7.950
 4369POPC   C4B16522   7.408   7.174   7.650
 4370POPC   NC316523  18.243   4.308   9.450
 4370POPC   PO416524  18.281   4.312   9.150
 4370POPC   GL116525  18.271   4.314   8.850
 4370POPC   GL216526  18.224   4.411   8.850
 4370POPC   C1A16527  18.258   4.337   8.550
 4370POPC   D2A16528  18.323   4.343   8.250
 4370POPC   C3A16529  18.296   4.367   7.950
 4370POPC   C4A16530  18.309   4.351   7.650
 4370POPC   C1B16531  18.147   4.525   8.550
 4370POPC   C2B16532  18.119   4.502   8.250
 4370POPC   C3B16533  18.072   4.502   7.950
 4370POPC   C4B16534  18.141   4.481   7.650
 4371POPC   NC316535   6.646  13.660   9.450
 4371POPC   PO416536   6.667  13.663   9.150
 4371POPC   GL116537   6.603  13.632   8.850
 4371POPC   GL216538   6.553  13.711   8.850
 4371POPC   C1A16539   6.653  13.605   8.550
 4371POPC   D2A16540   6.646  13.634   8.250
 4371POPC   C3A16541   6.612  13.606   7.950
 4371POPC   C4A16542   6.673  13.677   7.650
 4371POPC   C1B16543   6.541  13.882   8.550
 4371POPC   C2B16544   6.511  13.810   8.250
 4371POPC   C3B16545   6.535  13.899   7.950
 4371POPC   C4B16546   6.561  13.831   7.650
 4372POPC   NC316547  38.436  38.410   9.450
 4372POPC   PO416548  38.437  38.488   9.150
 4372POPC   GL116549  38.475  38.432   8.850
 4372POPC   GL216550  38.334  38.377   8.850
 4372POPC   C1A16551  38.439  38.496   8.550
 4372POPC   D2A16552  38.440  38.408   8.250
 4372POPC   C3A16553  38.421  38.488   7.950
 4372POPC   C4A16554  38.446  38.436   7.650
 4372POPC   C1B16555  38.268  38.252   8.550
 4372POPC   C2B16556  38.271  38.252   8.250
 4372POPC   C3B16557  38.257  38.263   7.950
 4372POPC   C4B16558  38.331  38.250   7.650
 4373POPC   NC316559  21.366   8.188   9.450
 4373POPC   PO416560  21.399   8.161   9.150
 4373POPC   GL116561  21.390   8.215   8.850
 4373POPC   GL216562  21.268   8.214   8.850
 4373POPC   C1A16563  21.356   8.217   8.550
 4373POPC   D2A16564  21.399   8.208   8.250
 4373POPC   C3A16565  21.429   8.148   7.950
 4373POPC   C4A16566  21.417   8.206   7.650
 4373POPC   C1B16567  21.111   8.253   8.550
 4373POPC   C2B16568  21.179   8.234   8.250
 4373POPC   C3B16569  21.164   8.274   7.950
 4373POPC   C4B16570  21.159   8.264   7.650
 4374POPC   NC316571  17.545  19.865   9.450
 4374POPC   PO416572  17.507  19.810   9.150
 4374POPC   GL116573  17.503  19.882   8.850
 4374POPC   GL216574  17.639  19.834   8.850
 4374POPC   C1A16575  17.534  19.798   8.550
 4374POPC   D2A16576  17.479  19.834   8.250
 4374POPC   C3A16577  17.473  19.874   7.950
 4374POPC   C4A16578  17.528  19.877   7.650
 4374POPC   C1B16579  17.738  19.817   8.550
 4374POPC   C2B16580  17.765  19.823   8.250
 4374POPC   C3B16581  17.764  19.753   7.950
 4374POPC   C4B16582  17.729  19.799   7.650
 4375POPC   NC316583   0.406   3.522   9.450
 4375POPC   PO416584   0.467   3.522   9.150
 4375POPC   GL116585   0.448   3.533   8.850
 4375POPC   GL216586   0.562   3.575   8.850
 4375POPC   C1A16587   0.486   3.523   8.550
 4375POPC   D2A16588   0.455   3.543   8.250
 4375POPC   C3A16589   0.413   3.497   7.950
 4375POPC   C4A16590   0.483   3.523   7.650
 4375POPC   C1B16591   0.643   3.524   8.550
 4375POPC   C2B16592   0.708   3.582   8.250
 4375POPC   C3B16593   0.696   3.605   7.950
 4375POPC   C4B16594   0.666   3.568   7.650
 4376POPC   NC316595  12.864   5.877   9.450
 4376POPC   PO416596  12.877   5.834   9.150
 4376POPC   GL116597  12.808   5.908   8.850
 4376POPC   GL216598  13.023   5.871   8.850
 4376POPC   C1A16599  12.890   5.917   8.550
 4376POPC   D2A16600  12.897   5.883   8.250
 4376POPC   C3A16601  12.899   5.848   7.950
 4376POPC   C4A16602  12.883   5.832   7.650
 4376POPC   C1B16603  13.049   5.824   8.550
 4376POPC   C2B16604  13.072   5.847   8.250
 4376POPC   C3B16605  13.072   5.839   7.950
 4376POPC   C4B16606  13.050   5.863   7.650
 4377POPC   NC316607  40.001  20.605   9.450
 4377POPC   PO416608  40.049  20.649   9.150
 4377POPC   GL116609  40.051  20.620   8.850
 4377POPC   GL216610  39.926  20.738   8.850
 4377POPC   C1A16611  39.990  20.596   8.550
 4377POPC   D2A16612  40.042  20.637   8.250
 4377POPC   C3A16613  40.031  20.643   7.950
 4377POPC   C4A16614  40.027  20.604   7.650
 4377POPC   C1B16615  39.908  20.830   8.550
 4377POPC   C2B16616  39.960  20.809   8.250
 4377POPC   C3B16617  39.900  20.843   7.950
 4377POPC   C4B16618  39.901  20.897   7.650
 4378POPC   NC316619   1.216  32.261   9.450
 4378POPC   PO416620   1.202  32.272   9.150
 4378POPC   GL116621   1.198  32.203   8.850
 4378POPC   GL216622   1.317  32.358   8.850
 4378POPC   C1A16623   1.191  32.262   8.550
 4378POPC   D2A16624   1.177  32.258   8.250
 4378POPC   C3A16625   1.188  32.266   7.950
 4378POPC   C4A16626   1.211  32.237   7.650
 4378POPC   C1B16627   1.364  32.376   8.550
 4378POPC   C2B16628   1.440  32.373   8.250
 4378POPC   C3B16629   1.409  32.429   7.950
 4378POPC   C4B16630   1.405  32.418   7.650
 4379POPC   NC316631  41.595  35.373   9.450
 4379POPC   PO416632  41.566  35.361   9.150
 4379POPC   GL116633  41.556  35.354   8.850
 4379POPC   GL216634  41.711  35.428   8.850
 4379POPC   C1A16635  41.560  35.313   8.550
 4379POPC   D2A16636  41.579  35.363   8.250
 4379POPC   C3A16637  41.580  35.312   7.950
 4379POPC   C4A16638  41.538  35.374   7.650
 4379POPC   C1B16639  41.748  35.448   8.550
 4379POPC   C2B16640  41.813  35.455   8.250
 4379POPC   C3B16641  41.811  35.483   7.950
 4379POPC   C4B16642  41.833  35.459   7.650
 4380POPC   NC316643  18.239  17.546   9.450
 4380POPC   PO416644  18.240  17.487   9.150
 4380POPC   GL116645  18.272  17.509   8.850
 4380POPC   GL216646  18.240  17.648   8.850
 4380POPC   C1A16647  18.281  17.532   8.550
 4380POPC   D2A16648  18.282  17.486   8.250
 4380POPC   C3A16649  18.242  17.546   7.950
 4380POPC   C4A16650  18.264  17.507   7.650
 4380POPC   C1B16651  18.296  17.756   8.550
 4380POPC   C2B16652  18.241  17.742   8.250
 4380POPC   C3B16653  18.283  17.769   7.950
 4380POPC   C4B16654  18.240  17.752   7.650
 4381POPC   NC316655  15.166  43.073   9.450
 4381POPC   PO416656  15.196  43.105   9.150
 4381POPC   GL116657  15.167  43.131   8.850
 4381POPC   GL216658  15.119  43.032   8.850
 4381POPC   C1A16659  15.222  43.141   8.550
 4381POPC   D2A16660  15.185  43.078   8.250
 4381POPC   C3A16661  15.177  43.157   7.950
 4381POPC   C4A16662  15.131  43.097   7.650
 4381POPC   C1B16663  15.124  42.876   8.550
 4381POPC   C2B16664  15.108  42.911   8.250
 4381POPC   C3B16665  15.082  42.907   7.950
 4381POPC   C4B16666  15.103  42.886   7.650
 4382POPC   NC316667  27.640   0.406   9.450
 4382POPC   PO416668  27.601   0.482   9.150
 4382POPC   GL116669  27.543   0.484   8.850
 4382POPC   GL216670  27.510   0.548   8.850
 4382POPC   C1A16671  27.615   0.445   8.550
 4382POPC   D2A16672  27.621   0.422   8.250
 4382POPC   C3A16673  27.560   0.414   7.950
 4382POPC   C4A16674  27.573   0.484   7.650
 4382POPC   C1B16675  27.406   0.557   8.550
 4382POPC   C2B16676  27.360   0.548   8.250
 4382POPC   C3B16677  27.399   0.539   7.950
 4382POPC   C4B16678  27.338   0.576   7.650
 4383POPC   NC316679  42.294  17.477   9.450
 4383POPC   PO416680  42.291  17.466   9.150
 4383POPC   GL116681  42.371  17.470   8.850
 4383POPC   GL216682  42.275  17.636   8.850
 4383POPC   C1A16683  42.302  17.458   8.550
 4383POPC   D2A16684  42.340  17.464   8.250
 4383POPC   C3A16685  42.347  17.543   7.950
 4383POPC   C4A16686  42.360  17.502   7.650
 4383POPC   C1B16687  42.299  17.705   8.550
 4383POPC   C2B16688  42.323  17.796   8.250
 4383POPC   C3B16689  42.276  17.767   7.950
 4383POPC   C4B16690  42.237  17.777   7.650
 4384POPC   NC316691  20.642   4.311   9.450
 4384POPC   PO416692  20.571   4.277   9.150
 4384POPC   GL116693  20.589   4.340   8.850
 4384POPC   GL216694  20.700   4.305   8.850
 4384POPC   C1A16695  20.659   4.286   8.550
 4384POPC   D2A16696  20.646   4.326   8.250
 4384POPC   C3A16697  20.658   4.293   7.950
 4384POPC   C4A16698  20.644   4.304   7.650
 4384POPC   C1B16699  20.882   4.188   8.550
 4384POPC   C2B16700  20.854   4.278   8.250
 4384POPC   C3B16701  20.845   4.190   7.950
 4384POPC   C4B16702  20.897   4.189   7.650
 4385POPC   NC316703  33.811  10.513   9.450
 4385POPC   PO416704  33.796  10.507   9.150
 4385POPC   GL116705  33.791  10.483   8.850
 4385POPC   GL216706  33.874  10.455   8.850
 4385POPC   C1A16707  33.773  10.560   8.550
 4385POPC   D2A16708  33.758  10.496   8.250
 4385POPC   C3A16709  33.793  10.515   7.950
 4385POPC   C4A16710  33.814  10.519   7.650
 4385POPC   C1B16711  33.993  10.319   8.550
 4385POPC   C2B16712  33.977  10.328   8.250
 4385POPC   C3B16713  34.026  10.386   7.950
 4385POPC   C4B16714  33.942  10.368   7.650
 4386POPC   NC316715  10.558  18.248   9.450
 4386POPC   PO416716  10.475  18.253   9.150
 4386POPC   GL116717  10.510  18.306   8.850
 4386POPC   GL216718  10.465  18.383   8.850
 4386POPC   C1A16719  10.531  18.240   8.550
 4386POPC   D2A16720  10.534  18.282   8.250
 4386POPC   C3A16721  10.488  18.304   7.950
 4386POPC   C4A16722  10.510  18.282   7.650
 4386POPC   C1B16723  10.469  18.469   8.550
 4386POPC   C2B16724  10.464  18.541   8.250
 4386POPC   C3B16725  10.448  18.472   7.950
 4386POPC   C4B16726  10.454  18.526   7.650
 4387POPC   NC316727  43.933  26.024   9.450
 4387POPC   PO416728  43.854  25.994   9.150
 4387POPC   GL116729  43.914  26.074   8.850
 4387POPC   GL216730  43.941  26.145   8.850
 4387POPC   C1A16731  43.923  25.997   8.550
 4387POPC   D2A16732  43.932  26.056   8.250
 4387POPC   C3A16733  43.855  26.046   7.950
 4387POPC   C4A16734  43.922  26.046   7.650
 4387POPC   C1B16735  43.969  26.273   8.550
 4387POPC   C2B16736  44.037  26.288   8.250
 4387POPC   C3B16737  44.005  26.272   7.950
 4387POPC   C4B16738  43.985  26.301   7.650
 4388POPC   NC316739   3.556  43.890   9.450
 4388POPC   PO416740   3.526  43.857   9.150
 4388POPC   GL116741   3.554  43.933   8.850
 4388POPC   GL216742   3.423  43.973   8.850
 4388POPC   C1A16743   3.563  43.881   8.550
 4388POPC   D2A16744   3.512  43.865   8.250
 4388POPC   C3A16745   3.511  43.933   7.950
 4388POPC   C4A16746   3.558  43.883   7.650
 4388POPC   C1B16747   3.347  44.117   8.550
 4388POPC   C2B16748   3.394  44.084   8.250
 4388POPC   C3B16749   3.391  44.061   7.950
 4388POPC   C4B16750   3.422  44.030   7.650
 4389POPC   NC316751   4.321  28.375   9.450
 4389POPC   PO416752   4.268  28.389   9.150
 4389POPC   GL116753   4.322  28.339   8.850
 4389POPC   GL216754   4.323  28.276   8.850
 4389POPC   C1A16755   4.294  28.363   8.550
 4389POPC   D2A16756   4.318  28.320   8.250
 4389POPC   C3A16757   4.305  28.399   7.950
 4389POPC   C4A16758   4.269  28.375   7.650
 4389POPC   C1B16759   4.388  28.180   8.550
 4389POPC   C2B16760   4.428  28.159   8.250
 4389POPC   C3B16761   4.449  28.112   7.950
 4389POPC   C4B16762   4.382  28.109   7.650
 4390POPC   NC316763  36.125  23.688   9.450
 4390POPC   PO416764  36.140  23.698   9.150
 4390POPC   GL116765  36.146  23.752   8.850
 4390POPC   GL216766  36.275  23.811   8.850
 4390POPC   C1A16767  36.094  23.706   8.550
 4390POPC   D2A16768  36.174  23.729   8.250
 4390POPC   C3A16769  36.117  23.750   7.950
 4390POPC   C4A16770  36.139  23.668   7.650
 4390POPC   C1B16771  36.311  23.803   8.550
 4390POPC   C2B16772  36.398  23.781   8.250
 4390POPC   C3B16773  36.383  23.802   7.950
 4390POPC   C4B16774  36.315  23.844   7.650
 4391POPC   NC316775  30.740   9.754   9.450
 4391POPC   PO416776  30.656   9.776   9.150
 4391POPC   GL116777  30.679   9.704   8.850
 4391POPC   GL216778  30.739   9.825   8.850
 4391POPC   C1A16779  30.722   9.796   8.550
 4391POPC   D2A16780  30.667   9.769   8.250
 4391POPC   C3A16781  30.663   9.702   7.950
 4391POPC   C4A16782  30.683   9.702   7.650
 4391POPC   C1B16783  30.739  10.030   8.550
 4391POPC   C2B16784  30.726  10.030   8.250
 4391POPC   C3B16785  30.747   9.946   7.950
 4391POPC   C4B16786  30.809   9.981   7.650
 4392POPC   NC316787  26.007  24.527   9.450
 4392POPC   PO416788  26.039  24.532   9.150
 4392POPC   GL116789  26.052  24.459   8.850
 4392POPC   GL216790  26.167  24.538   8.850
 4392POPC   C1A16791  26.014  24.462   8.550
 4392POPC   D2A16792  26.024  24.506   8.250
 4392POPC   C3A16793  26.045  24.490   7.950
 4392POPC   C4A16794  26.010  24.521   7.650
 4392POPC   C1B16795  26.268  24.504   8.550
 4392POPC   C2B16796  26.267  24.554   8.250
 4392POPC   C3B16797  26.310  24.492   7.950
 4392POPC   C4B16798  26.306  24.463   7.650
 4393POPC   NC316799  33.024  13.646   9.450
 4393POPC   PO416800  32.995  13.646   9.150
 4393POPC   GL116801  32.976  13.629   8.850
 4393POPC   GL216802  32.964  13.524   8.850
 4393POPC   C1A16803  33.029  13.664   8.550
 4393POPC   D2A16804  33.060  13.600   8.250
 4393POPC   C3A16805  32.986  13.606   7.950
 4393POPC   C4A16806  33.015  13.639   7.650
 4393POPC   C1B16807  32.953  13.354   8.550
 4393POPC   C2B16808  32.995  13.430   8.250
 4393POPC   C3B16809  32.991  13.357   7.950
 4393POPC   C4B16810  32.934  13.405   7.650
 4394POPC   NC316811   3.564  37.662   9.450
 4394POPC   PO416812   3.567  37.696   9.150
 4394POPC   GL116813   3.510  37.650   8.850
 4394POPC   GL216814   3.493  37.755   8.850
 4394POPC   C1A16815   3.532  37.647   8.550
 4394POPC   D2A16816   3.498  37.723   8.250
 4394POPC   C3A16817   3.545  37.711   7.950
 4394POPC   C4A16818   3.503  37.655   7.650
 4394POPC   C1B16819   3.396  37.881   8.550
 4394POPC   C2B16820   3.428  37.852   8.250
 4394POPC   C3B16821   3.418  37.859   7.950
 4394POPC   C4B16822   3.438  37.851   7.650
 4395POPC   NC316823  12.098  42.315   9.450
 4395POPC   PO416824  12.124  42.341   9.150
 4395POPC   GL116825  12.057  42.371   8.850
 4395POPC   GL216826  12.199  42.268   8.850
 4395POPC   C1A16827  12.125  42.384   8.550
 4395POPC   D2A16828  12.044  42.366   8.250
 4395POPC   C3A16829  12.042  42.326   7.950
 4395POPC   C4A16830  12.087  42.331   7.650
 4395POPC   C1B16831  12.279  42.229   8.550
 4395POPC   C2B16832  12.318  42.286   8.250
 4395POPC   C3B16833  12.314  42.221   7.950
 4395POPC   C4B16834  12.276  42.303   7.650
 4396POPC   NC316835  27.597  43.902   9.450
 4396POPC   PO416836  27.558  43.875   9.150
 4396POPC   GL116837  27.618  43.868   8.850
 4396POPC   GL216838  27.686  43.929   8.850
 4396POPC   C1A16839  27.580  43.901   8.550
 4396POPC   D2A16840  27.630  43.930   8.250
 4396POPC   C3A16841  27.623  43.854   7.950
 4396POPC   C4A16842  27.612  43.838   7.650
 4396POPC   C1B16843  27.856  43.987   8.550
 4396POPC   C2B16844  27.815  43.985   8.250
 4396POPC   C3B16845  27.817  44.025   7.950
 4396POPC   C4B16846  27.820  43.986   7.650
 4397POPC   NC316847  37.709  12.809   9.450
 4397POPC   PO416848  37.703  12.805   9.150
 4397POPC   GL116849  37.656  12.813   8.850
 4397POPC   GL216850  37.667  12.969   8.850
 4397POPC   C1A16851  37.708  12.809   8.550
 4397POPC   D2A16852  37.655  12.848   8.250
 4397POPC   C3A16853  37.630  12.863   7.950
 4397POPC   C4A16854  37.723  12.880   7.650
 4397POPC   C1B16855  37.593  13.044   8.550
 4397POPC   C2B16856  37.529  13.040   8.250
 4397POPC   C3B16857  37.518  13.041   7.950
 4397POPC   C4B16858  37.506  13.033   7.650
 4398POPC   NC316859  22.900  31.520   9.450
 4398POPC   PO416860  22.983  31.451   9.150
 4398POPC   GL116861  22.897  31.460   8.850
 4398POPC   GL216862  22.867  31.401   8.850
 4398POPC   C1A16863  22.914  31.454   8.550
 4398POPC   D2A16864  22.926  31.495   8.250
 4398POPC   C3A16865  22.908  31.441   7.950
 4398POPC   C4A16866  22.971  31.461   7.650
 4398POPC   C1B16867  22.855  31.269   8.550
 4398POPC   C2B16868  22.858  31.255   8.250
 4398POPC   C3B16869  22.847  31.247   7.950
 4398POPC   C4B16870  22.820  31.253   7.650
 4399POPC   NC316871  19.870  40.767   9.450
 4399POPC   PO416872  19.802  40.819   9.150
 4399POPC   GL116873  19.841  40.815   8.850
 4399POPC   GL216874  19.696  40.708   8.850
 4399POPC   C1A16875  19.797  40.740   8.550
 4399POPC   D2A16876  19.843  40.823   8.250
 4399POPC   C3A16877  19.845  40.821   7.950
 4399POPC   C4A16878  19.882  40.734   7.650
 4399POPC   C1B16879  19.650  40.596   8.550
 4399POPC   C2B16880  19.649  40.646   8.250
 4399POPC   C3B16881  19.662  40.638   7.950
 4399POPC   C4B16882  19.669  40.606   7.650
 4400POPC   NC316883  26.088  12.046   9.450
 4400POPC   PO416884  26.065  12.056   9.150
 4400POPC   GL116885  26.027  12.054   8.850
 4400POPC   GL216886  26.137  12.091   8.850
 4400POPC   C1A16887  26.010  12.061   8.550
 4400POPC   D2A16888  26.080  12.097   8.250
 4400POPC   C3A16889  26.089  12.090   7.950
 4400POPC   C4A16890  26.032  12.107   7.650
 4400POPC   C1B16891  26.273  12.151   8.550
 4400POPC   C2B16892  26.279  12.169   8.250
 4400POPC   C3B16893  26.234  12.168   7.950
 4400POPC   C4B16894  26.309  12.160   7.650
 4401POPC   NC316895  38.465  24.487   9.450
 4401POPC   PO416896  38.432  24.539   9.150
 4401POPC   GL116897  38.437  24.452   8.850
 4401POPC   GL216898  38.487  24.376   8.850
 4401POPC   C1A16899  38.480  24.483   8.550
 4401POPC   D2A16900  38.487  24.470   8.250
 4401POPC   C3A16901  38.407  24.469   7.950
 4401POPC   C4A16902  38.421  24.465   7.650
 4401POPC   C1B16903  38.558  24.295   8.550
 4401POPC   C2B16904  38.546  24.280   8.250
 4401POPC   C3B16905  38.551  24.223   7.950
 4401POPC   C4B16906  38.536  24.216   7.650
 4402POPC   NC316907  14.372  20.603   9.450
 4402POPC   PO416908  14.372  20.584   9.150
 4402POPC   GL116909  14.442  20.635   8.850
 4402POPC   GL216910  14.467  20.724   8.850
 4402POPC   C1A16911  14.404  20.570   8.550
 4402POPC   D2A16912  14.446  20.591   8.250
 4402POPC   C3A16913  14.365  20.613   7.950
 4402POPC   C4A16914  14.422  20.628   7.650
 4402POPC   C1B16915  14.504  20.893   8.550
 4402POPC   C2B16916  14.500  20.811   8.250
 4402POPC   C3B16917  14.434  20.891   7.950
 4402POPC   C4B16918  14.462  20.878   7.650
 4403POPC   NC316919  12.893  26.859   9.450
 4403POPC   PO416920  12.842  26.838   9.150
 4403POPC   GL116921  12.870  26.826   8.850
 4403POPC   GL216922  12.878  26.986   8.850
 4403POPC   C1A16923  12.815  26.840   8.550
 4403POPC   D2A16924  12.823  26.781   8.250
 4403POPC   C3A16925  12.891  26.839   7.950
 4403POPC   C4A16926  12.829  26.807   7.650
 4403POPC   C1B16927  12.817  27.032   8.550
 4403POPC   C2B16928  12.798  27.062   8.250
 4403POPC   C3B16929  12.852  27.099   7.950
 4403POPC   C4B16930  12.868  27.040   7.650
 4404POPC   NC316931  39.253   5.085   9.450
 4404POPC   PO416932  39.267   5.128   9.150
 4404POPC   GL116933  39.255   5.100   8.850
 4404POPC   GL216934  39.372   5.201   8.850
 4404POPC   C1A16935  39.204   5.089   8.550
 4404POPC   D2A16936  39.237   5.110   8.250
 4404POPC   C3A16937  39.238   5.100   7.950
 4404POPC   C4A16938  39.254   5.127   7.650
 4404POPC   C1B16939  39.387   5.275   8.550
 4404POPC   C2B16940  39.413   5.265   8.250
 4404POPC   C3B16941  39.432   5.245   7.950
 4404POPC   C4B16942  39.447   5.269   7.650
 4405POPC   NC316943  32.265  17.457   9.450
 4405POPC   PO416944  32.267  17.491   9.150
 4405POPC   GL116945  32.204  17.469   8.850
 4405POPC   GL216946  32.193  17.602   8.850
 4405POPC   C1A16947  32.240  17.547   8.550
 4405POPC   D2A16948  32.250  17.532   8.250
 4405POPC   C3A16949  32.296  17.491   7.950
 4405POPC   C4A16950  32.234  17.477   7.650
 4405POPC   C1B16951  32.047  17.684   8.550
 4405POPC   C2B16952  32.107  17.670   8.250
 4405POPC   C3B16953  32.075  17.684   7.950
 4405POPC   C4B16954  32.071  17.685   7.650
 4406POPC   NC316955  18.241  14.444   9.450
 4406POPC   PO416956  18.254  14.357   9.150
 4406POPC   GL116957  18.271  14.431   8.850
 4406POPC   GL216958  18.267  14.553   8.850
 4406POPC   C1A16959  18.243  14.359   8.550
 4406POPC   D2A16960  18.259  14.438   8.250
 4406POPC   C3A16961  18.262  14.450   7.950
 4406POPC   C4A16962  18.305  14.387   7.650
 4406POPC   C1B16963  18.233  14.640   8.550
 4406POPC   C2B16964  18.232  14.622   8.250
 4406POPC   C3B16965  18.310  14.697   7.950
 4406POPC   C4B16966  18.286  14.681   7.650
 4407POPC   NC316967   1.260  34.539   9.450
 4407POPC   PO416968   1.238  34.535   9.150
 4407POPC   GL116969   1.250  34.575   8.850
 4407POPC   GL216970   1.047  34.528   8.850
 4407POPC   C1A16971   1.257  34.533   8.550
 4407POPC   D2A16972   1.198  34.621   8.250
 4407POPC   C3A16973   1.230  34.538   7.950
 4407POPC   C4A16974   1.198  34.541   7.650
 4407POPC   C1B16975   1.008  34.500   8.550
 4407POPC   C2B16976   0.928  34.523   8.250
 4407POPC   C3B16977   0.979  34.492   7.950
 4407POPC   C4B16978   0.971  34.524   7.650
 4408POPC   NC316979  36.908   1.233   9.450
 4408POPC   PO416980  36.940   1.226   9.150
 4408POPC   GL116981  36.871   1.218   8.850
 4408POPC   GL216982  36.822   1.204   8.850
 4408POPC   C1A16983  36.941   1.201   8.550
 4408POPC   D2A16984  36.920   1.220   8.250
 4408POPC   C3A16985  36.873   1.220   7.950
 4408POPC   C4A16986  36.943   1.190   7.650
 4408POPC   C1B16987  36.684   1.229   8.550
 4408POPC   C2B16988  36.650   1.246   8.250
 4408POPC   C3B16989  36.684   1.243   7.950
 4408POPC   C4B16990  36.703   1.228   7.650
 4409POPC   NC316991  43.104  31.432   9.450
 4409POPC   PO416992  43.077  31.447   9.150
 4409POPC   GL116993  43.074  31.438   8.850
 4409POPC   GL216994  43.113  31.354   8.850
 4409POPC   C1A16995  43.071  31.505   8.550
 4409POPC   D2A16996  43.097  31.477   8.250
 4409POPC   C3A16997  43.151  31.497   7.950
 4409POPC   C4A16998  43.159  31.471   7.650
 4409POPC   C1B16999  43.151  31.180   8.550
 4409POPC   C2B17000  43.153  31.188   8.250
 4409POPC   C3B17001  43.102  31.218   7.950
 4409POPC   C4B17002  43.142  31.229   7.650
 4410POPC   NC317003  29.963  15.943   9.450
 4410POPC   PO417004  29.965  15.954   9.150
 4410POPC   GL117005  29.930  15.994   8.850
 4410POPC   GL217006  30.091  15.945   8.850
 4410POPC   C1A17007  29.933  15.919   8.550
 4410POPC   D2A17008  29.885  15.956   8.250
 4410POPC   C3A17009  29.970  15.978   7.950
 4410POPC   C4A17010  29.926  15.938   7.650
 4410POPC   C1B17011  30.159  15.947   8.550
 4410POPC   C2B17012  30.202  16.001   8.250
 4410POPC   C3B17013  30.147  15.970   7.950
 4410POPC   C4B17014  30.153  15.953   7.650
 4411POPC   NC317015  21.366  20.646   9.450
 4411POPC   PO417016  21.340  20.588   9.150
 4411POPC   GL117017  21.361  20.611   8.850
 4411POPC   GL217018  21.491  20.634   8.850
 4411POPC   C1A17019  21.406  20.646   8.550
 4411POPC   D2A17020  21.413  20.656   8.250
 4411POPC   C3A17021  21.420  20.577   7.950
 4411POPC   C4A17022  21.421  20.607   7.650
 4411POPC   C1B17023  21.587  20.561   8.550
 4411POPC   C2B17024  21.678  20.626   8.250
 4411POPC   C3B17025  21.654  20.619   7.950
 4411POPC   C4B17026  21.606  20.637   7.650
 4412POPC   NC317027  24.533   4.324   9.450
 4412POPC   PO417028  24.500   4.321   9.150
 4412POPC   GL117029  24.475   4.279   8.850
 4412POPC   GL217030  24.467   4.474   8.850
 4412POPC   C1A17031  24.479   4.293   8.550
 4412POPC   D2A17032  24.468   4.333   8.250
 4412POPC   C3A17033  24.506   4.353   7.950
 4412POPC   C4A17034  24.461   4.324   7.650
 4412POPC   C1B17035  24.494   4.529   8.550
 4412POPC   C2B17036  24.428   4.541   8.250
 4412POPC   C3B17037  24.483   4.543   7.950
 4412POPC   C4B17038  24.507   4.611   7.650
 4413POPC   NC317039  38.406   0.444   9.450
 4413POPC   PO417040  38.459   0.390   9.150
 4413POPC   GL117041  38.429   0.445   8.850
 4413POPC   GL217042  38.422   0.310   8.850
 4413POPC   C1A17043  38.437   0.437   8.550
 4413POPC   D2A17044  38.472   0.430   8.250
 4413POPC   C3A17045  38.454   0.397   7.950
 4413POPC   C4A17046  38.503   0.461   7.650
 4413POPC   C1B17047  38.325   0.197   8.550
 4413POPC   C2B17048  38.259   0.282   8.250
 4413POPC   C3B17049  38.267   0.193   7.950
 4413POPC   C4B17050  38.253   0.204   7.650
 4414POPC   NC317051  43.857  36.112   9.450
 4414POPC   PO417052  43.836  36.132   9.150
 4414POPC   GL117053  43.865  36.088   8.850
 4414POPC   GL217054  44.010  36.214   8.850
 4414POPC   C1A17055  43.893  36.147   8.550
 4414POPC   D2A17056  43.882  36.147   8.250
 4414POPC   C3A17057  43.908  36.147   7.950
 4414POPC   C4A17058  43.863  36.117   7.650
 4414POPC   C1B17059  44.037  36.361   8.550
 4414POPC   C2B17060  44.066  36.365   8.250
 4414POPC   C3B17061  44.077  36.337   7.950
 4414POPC   C4B17062  44.040  36.347   7.650
 4415POPC   NC317063  32.209   1.215   9.450
 4415POPC   PO417064  32.280   1.218   9.150
 4415POPC   GL117065  32.210   1.226   8.850
 4415POPC   GL217066  32.145   1.094   8.850
 4415POPC   C1A17067  32.221   1.263   8.550
 4415POPC   D2A17068  32.292   1.218   8.250
 4415POPC   C3A17069  32.271   1.223   7.950
 4415POPC   C4A17070  32.269   1.256   7.650
 4415POPC   C1B17071  32.077   1.009   8.550
 4415POPC   C2B17072  32.120   1.041   8.250
 4415POPC   C3B17073  32.103   1.013   7.950
 4415POPC   C4B17074  32.076   1.003   7.650
 4416POPC   NC317075  25.249  31.506   9.450
 4416POPC   PO417076  25.245  31.443   9.150
 4416POPC   GL117077  25.237  31.480   8.850
 4416POPC   GL217078  25.333  31.377   8.850
 4416POPC   C1A17079  25.296  31.498   8.550
 4416POPC   D2A17080  25.298  31.520   8.250
 4416POPC   C3A17081  25.266  31.489   7.950
 4416POPC   C4A17082  25.299  31.516   7.650
 4416POPC   C1B17083  25.453  31.369   8.550
 4416POPC   C2B17084  25.469  31.335   8.250
 4416POPC   C3B17085  25.478  31.376   7.950
 4416POPC   C4B17086  25.446  31.393   7.650
 4417POPC   NC317087  28.358   7.459   9.450
 4417POPC   PO417088  28.364   7.458   9.150
 4417POPC   GL117089  28.408   7.431   8.850
 4417POPC   GL217090  28.253   7.495   8.850
 4417POPC   C1A17091  28.396   7.398   8.550
 4417POPC   D2A17092  28.396   7.436   8.250
 4417POPC   C3A17093  28.325   7.418   7.950
 4417POPC   C4A17094  28.340   7.411   7.650
 4417POPC   C1B17095  28.142   7.581   8.550
 4417POPC   C2B17096  28.177   7.531   8.250
 4417POPC   C3B17097  28.143   7.584   7.950
 4417POPC   C4B17098  28.215   7.612   7.650
 4418POPC   NC317099  32.227  36.929   9.450
 4418POPC   PO417100  32.216  36.935   9.150
 4418POPC   GL117101  32.293  36.866   8.850
 4418POPC   GL217102  32.300  36.838   8.850
 4418POPC   C1A17103  32.295  36.856   8.550
 4418POPC   D2A17104  32.298  36.891   8.250
 4418POPC   C3A17105  32.293  36.950   7.950
 4418POPC   C4A17106  32.224  36.888   7.650
 4418POPC   C1B17107  32.394  36.640   8.550
 4418POPC   C2B17108  32.364  36.687   8.250
 4418POPC   C3B17109  32.357  36.726   7.950
 4418POPC   C4B17110  32.337  36.726   7.650
 4419POPC   NC317111  12.077  20.606   9.450
 4419POPC   PO417112  12.047  20.565   9.150
 4419POPC   GL117113  12.077  20.626   8.850
 4419POPC   GL217114  11.922  20.582   8.850
 4419POPC   C1A17115  12.045  20.610   8.550
 4419POPC   D2A17116  12.074  20.570   8.250
 4419POPC   C3A17117  12.045  20.610   7.950
 4419POPC   C4A17118  12.085  20.614   7.650
 4419POPC   C1B17119  11.790  20.636   8.550
 4419POPC   C2B17120  11.815  20.553   8.250
 4419POPC   C3B17121  11.844  20.625   7.950
 4419POPC   C4B17122  11.820  20.611   7.650
 4420POPC   NC317123  34.582  39.263   9.450
 4420POPC   PO417124  34.548  39.186   9.150
 4420POPC   GL117125  34.568  39.188   8.850
 4420POPC   GL217126  34.611  39.374   8.850
 4420POPC   C1A17127  34.554  39.242   8.550
 4420POPC   D2A17128  34.625  39.206   8.250
 4420POPC   C3A17129  34.617  39.281   7.950
 4420POPC   C4A17130  34.550  39.185   7.650
 4420POPC   C1B17131  34.605  39.519   8.550
 4420POPC   C2B17132  34.581  39.515   8.250
 4420POPC   C3B17133  34.541  39.502   7.950
 4420POPC   C4B17134  34.564  39.433   7.650
 4421POPC   NC317135   8.191   0.441   9.450
 4421POPC   PO417136   8.151   0.466   9.150
 4421POPC   GL117137   8.237   0.389   8.850
 4421POPC   GL217138   8.214   0.612   8.850
 4421POPC   C1A17139   8.154   0.427   8.550
 4421POPC   D2A17140   8.214   0.468   8.250
 4421POPC   C3A17141   8.173   0.389   7.950
 4421POPC   C4A17142   8.208   0.396   7.650
 4421POPC   C1B17143   8.160   0.706   8.550
 4421POPC   C2B17144   8.163   0.717   8.250
 4421POPC   C3B17145   8.179   0.729   7.950
 4421POPC   C4B17146   8.175   0.707   7.650
 4422POPC   NC317147  11.269  19.057   9.450
 4422POPC   PO417148  11.256  19.035   9.150
 4422POPC   GL117149  11.282  19.049   8.850
 4422POPC   GL217150  11.168  19.108   8.850
 4422POPC   C1A17151  11.304  19.097   8.550
 4422POPC   D2A17152  11.336  19.051   8.250
 4422POPC   C3A17153  11.291  19.109   7.950
 4422POPC   C4A17154  11.258  19.038   7.650
 4422POPC   C1B17155  11.137  19.216   8.550
 4422POPC   C2B17156  11.072  19.237   8.250
 4422POPC   C3B17157  11.069  19.244   7.950
 4422POPC   C4B17158  11.112  19.235   7.650
 4423POPC   NC317159  15.219  18.288   9.450
 4423POPC   PO417160  15.166  18.296   9.150
 4423POPC   GL117161  15.145  18.277   8.850
 4423POPC   GL217162  15.036  18.380   8.850
 4423POPC   C1A17163  15.225  18.237   8.550
 4423POPC   D2A17164  15.184  18.253   8.250
 4423POPC   C3A17165  15.133  18.277   7.950
 4423POPC   C4A17166  15.211  18.276   7.650
 4423POPC   C1B17167  14.922  18.424   8.550
 4423POPC   C2B17168  14.997  18.410   8.250
 4423POPC   C3B17169  14.919  18.353   7.950
 4423POPC   C4B17170  14.915  18.407   7.650
 4424POPC   NC317171  26.834  43.881   9.450
 4424POPC   PO417172  26.841  43.900   9.150
 4424POPC   GL117173  26.860  43.932   8.850
 4424POPC   GL217174  26.760  43.944   8.850
 4424POPC   C1A17175  26.852  43.839   8.550
 4424POPC   D2A17176  26.853  43.908   8.250
 4424POPC   C3A17177  26.825  43.909   7.950
 4424POPC   C4A17178  26.810  43.843   7.650
 4424POPC   C1B17179  26.582  44.043   8.550
 4424POPC   C2B17180  26.585  44.039   8.250
 4424POPC   C3B17181  26.659  44.020   7.950
 4424POPC   C4B17182  26.605  44.008   7.650
 4425POPC   NC317183  36.131   5.858   9.450
 4425POPC   PO417184  36.166   5.897   9.150
 4425POPC   GL117185  36.172   5.834   8.850
 4425POPC   GL217186  36.149   5.735   8.850
 4425POPC   C1A17187  36.086   5.824   8.550
 4425POPC   D2A17188  36.115   5.868   8.250
 4425POPC   C3A17189  36.141   5.874   7.950
 4425POPC   C4A17190  36.092   5.884   7.650
 4425POPC   C1B17191  36.045   5.655   8.550
 4425POPC   C2B17192  36.088   5.655   8.250
 4425POPC   C3B17193  36.085   5.601   7.950
 4425POPC   C4B17194  36.044   5.576   7.650
 4426POPC   NC317195  41.591   2.025   9.450
 4426POPC   PO417196  41.571   1.968   9.150
 4426POPC   GL117197  41.606   1.950   8.850
 4426POPC   GL217198  41.532   2.145   8.850
 4426POPC   C1A17199  41.582   1.995   8.550
 4426POPC   D2A17200  41.561   1.968   8.250
 4426POPC   C3A17201  41.543   2.029   7.950
 4426POPC   C4A17202  41.572   1.974   7.650
 4426POPC   C1B17203  41.403   2.228   8.550
 4426POPC   C2B17204  41.468   2.221   8.250
 4426POPC   C3B17205  41.441   2.182   7.950
 4426POPC   C4B17206  41.441   2.186   7.650
 4427POPC   NC317207  35.345  33.786   9.450
 4427POPC   PO417208  35.345  33.793   9.150
 4427POPC   GL117209  35.307  33.761   8.850
 4427POPC   GL217210  35.456  33.698   8.850
 4427POPC   C1A17211  35.331  33.780   8.550
 4427POPC   D2A17212  35.395  33.765   8.250
 4427POPC   C3A17213  35.383  33.789   7.950
 4427POPC   C4A17214  35.362  33.783   7.650
 4427POPC   C1B17215  35.499  33.644   8.550
 4427POPC   C2B17216  35.586  33.660   8.250
 4427POPC   C3B17217  35.545  33.587   7.950
 4427POPC   C4B17218  35.524  33.682   7.650
 4428POPC   NC317219  17.476  29.953   9.450
 4428POPC   PO417220  17.457  29.932   9.150
 4428POPC   GL117221  17.495  29.958   8.850
 4428POPC   GL217222  17.642  30.004   8.850
 4428POPC   C1A17223  17.549  29.942   8.550
 4428POPC   D2A17224  17.549  29.968   8.250
 4428POPC   C3A17225  17.534  29.937   7.950
 4428POPC   C4A17226  17.499  29.953   7.650
 4428POPC   C1B17227  17.738  30.051   8.550
 4428POPC   C2B17228  17.737  30.090   8.250
 4428POPC   C3B17229  17.673  30.099   7.950
 4428POPC   C4B17230  17.707  30.071   7.650
 4429POPC   NC317231  12.118  13.579   9.450
 4429POPC   PO417232  12.101  13.621   9.150
 4429POPC   GL117233  12.104  13.644   8.850
 4429POPC   GL217234  11.987  13.647   8.850
 4429POPC   C1A17235  12.105  13.627   8.550
 4429POPC   D2A17236  12.034  13.672   8.250
 4429POPC   C3A17237  12.085  13.605   7.950
 4429POPC   C4A17238  12.046  13.677   7.650
 4429POPC   C1B17239  11.791  13.559   8.550
 4429POPC   C2B17240  11.786  13.530   8.250
 4429POPC   C3B17241  11.862  13.561   7.950
 4429POPC   C4B17242  11.829  13.603   7.650
 4430POPC   NC317243  36.152  34.533   9.450
 4430POPC   PO417244  36.140  34.571   9.150
 4430POPC   GL117245  36.146  34.535   8.850
 4430POPC   GL217246  36.061  34.688   8.850
 4430POPC   C1A17247  36.157  34.621   8.550
 4430POPC   D2A17248  36.137  34.596   8.250
 4430POPC   C3A17249  36.165  34.540   7.950
 4430POPC   C4A17250  36.090  34.533   7.650
 4430POPC   C1B17251  35.964  34.731   8.550
 4430POPC   C2B17252  35.882  34.742   8.250
 4430POPC   C3B17253  35.879  34.747   7.950
 4430POPC   C4B17254  35.938  34.714   7.650
 4431POPC   NC317255  31.429  18.234   9.450
 4431POPC   PO417256  31.515  18.324   9.150
 4431POPC   GL117257  31.514  18.269   8.850
 4431POPC   GL217258  31.608  18.298   8.850
 4431POPC   C1A17259  31.449  18.237   8.550
 4431POPC   D2A17260  31.458  18.302   8.250
 4431POPC   C3A17261  31.516  18.276   7.950
 4431POPC   C4A17262  31.439  18.240   7.650
 4431POPC   C1B17263  31.713  18.226   8.550
 4431POPC   C2B17264  31.746  18.207   8.250
 4431POPC   C3B17265  31.758  18.293   7.950
 4431POPC   C4B17266  31.767  18.278   7.650
 4432POPC   NC317267  29.148   4.275   9.450
 4432POPC   PO417268  29.130   4.357   9.150
 4432POPC   GL117269  29.177   4.294   8.850
 4432POPC   GL217270  29.037   4.422   8.850
 4432POPC   C1A17271  29.103   4.301   8.550
 4432POPC   D2A17272  29.096   4.332   8.250
 4432POPC   C3A17273  29.194   4.313   7.950
 4432POPC   C4A17274  29.149   4.338   7.650
 4432POPC   C1B17275  28.886   4.437   8.550
 4432POPC   C2B17276  28.924   4.466   8.250
 4432POPC   C3B17277  28.934   4.431   7.950
 4432POPC   C4B17278  28.934   4.420   7.650
 4433POPC   NC317279   9.718   6.677   9.450
 4433POPC   PO417280   9.740   6.631   9.150
 4433POPC   GL117281   9.765   6.632   8.850
 4433POPC   GL217282   9.643   6.682   8.850
 4433POPC   C1A17283   9.733   6.658   8.550
 4433POPC   D2A17284   9.752   6.613   8.250
 4433POPC   C3A17285   9.739   6.690   7.950
 4433POPC   C4A17286   9.762   6.595   7.650
 4433POPC   C1B17287   9.512   6.701   8.550
 4433POPC   C2B17288   9.539   6.644   8.250
 4433POPC   C3B17289   9.539   6.648   7.950
 4433POPC   C4B17290   9.526   6.708   7.650
 4434POPC   NC317291  31.484   1.995   9.450
 4434POPC   PO417292  31.427   1.997   9.150
 4434POPC   GL117293  31.519   2.017   8.850
 4434POPC   GL217294  31.527   1.843   8.850
 4434POPC   C1A17295  31.486   2.036   8.550
 4434POPC   D2A17296  31.426   1.950   8.250
 4434POPC   C3A17297  31.437   2.021   7.950
 4434POPC   C4A17298  31.454   2.021   7.650
 4434POPC   C1B17299  31.566   1.742   8.550
 4434POPC   C2B17300  31.585   1.703   8.250
 4434POPC   C3B17301  31.569   1.785   7.950
 4434POPC   C4B17302  31.504   1.783   7.650
 4435POPC   NC317303  29.137   0.422   9.450
 4435POPC   PO417304  29.173   0.451   9.150
 4435POPC   GL117305  29.136   0.449   8.850
 4435POPC   GL217306  29.098   0.561   8.850
 4435POPC   C1A17307  29.179   0.433   8.550
 4435POPC   D2A17308  29.128   0.462   8.250
 4435POPC   C3A17309  29.142   0.428   7.950
 4435POPC   C4A17310  29.191   0.464   7.650
 4435POPC   C1B17311  29.075   0.683   8.550
 4435POPC   C2B17312  29.002   0.628   8.250
 4435POPC   C3B17313  29.082   0.693   7.950
 4435POPC   C4B17314  29.088   0.625   7.650
 4436POPC   NC317315  40.796  26.787   9.450
 4436POPC   PO417316  40.830  26.769   9.150
 4436POPC   GL117317  40.820  26.801   8.850
 4436POPC   GL217318  40.741  26.922   8.850
 4436POPC   C1A17319  40.800  26.854   8.550
 4436POPC   D2A17320  40.737  26.838   8.250
 4436POPC   C3A17321  40.824  26.834   7.950
 4436POPC   C4A17322  40.807  26.826   7.650
 4436POPC   C1B17323  40.615  27.016   8.550
 4436POPC   C2B17324  40.660  27.067   8.250
 4436POPC   C3B17325  40.697  27.046   7.950
 4436POPC   C4B17326  40.632  26.999   7.650
 4437POPC   NC317327   0.487  22.183   9.450
 4437POPC   PO417328   0.419  22.208   9.150
 4437POPC   GL117329   0.486  22.177   8.850
 4437POPC   GL217330   0.422  22.322   8.850
 4437POPC   C1A17331   0.399  22.151   8.550
 4437POPC   D2A17332   0.399  22.200   8.250
 4437POPC   C3A17333   0.417  22.146   7.950
 4437POPC   C4A17334   0.471  22.143   7.650
 4437POPC   C1B17335   0.463  22.420   8.550
 4437POPC   C2B17336   0.473  22.430   8.250
 4437POPC   C3B17337   0.457  22.461   7.950
 4437POPC   C4B17338   0.447  22.382   7.650
 4438POPC   NC317339  14.422  14.421   9.450
 4438POPC   PO417340  14.371  14.428   9.150
 4438POPC   GL117341  14.430  14.370   8.850
 4438POPC   GL217342  14.537  14.468   8.850
 4438POPC   C1A17343  14.420  14.448   8.550
 4438POPC   D2A17344  14.407  14.443   8.250
 4438POPC   C3A17345  14.424  14.367   7.950
 4438POPC   C4A17346  14.428  14.402   7.650
 4438POPC   C1B17347  14.606  14.425   8.550
 4438POPC   C2B17348  14.642  14.509   8.250
 4438POPC   C3B17349  14.676  14.446   7.950
 4438POPC   C4B17350  14.693  14.432   7.650
 4439POPC   NC317351   9.742   1.996   9.450
 4439POPC   PO417352   9.783   1.945   9.150
 4439POPC   GL117353   9.776   1.961   8.850
 4439POPC   GL217354   9.759   1.835   8.850
 4439POPC   C1A17355   9.762   1.941   8.550
 4439POPC   D2A17356   9.719   2.003   8.250
 4439POPC   C3A17357   9.708   2.005   7.950
 4439POPC   C4A17358   9.738   1.944   7.650
 4439POPC   C1B17359   9.766   1.726   8.550
 4439POPC   C2B17360   9.762   1.765   8.250
 4439POPC   C3B17361   9.767   1.749   7.950
 4439POPC   C4B17362   9.731   1.705   7.650
 4440POPC   NC317363  19.818  28.343   9.450
 4440POPC   PO417364  19.799  28.370   9.150
 4440POPC   GL117365  19.868  28.327   8.850
 4440POPC   GL217366  19.732  28.351   8.850
 4440POPC   C1A17367  19.866  28.401   8.550
 4440POPC   D2A17368  19.829  28.371   8.250
 4440POPC   C3A17369  19.837  28.359   7.950
 4440POPC   C4A17370  19.828  28.364   7.650
 4440POPC   C1B17371  19.558  28.267   8.550
 4440POPC   C2B17372  19.556  28.314   8.250
 4440POPC   C3B17373  19.558  28.268   7.950
 4440POPC   C4B17374  19.577  28.316   7.650
 4441POPC   NC317375  34.568  43.106   9.450
 4441POPC   PO417376  34.527  43.078   9.150
 4441POPC   GL117377  34.616  43.095   8.850
 4441POPC   GL217378  34.665  43.155   8.850
 4441POPC   C1A17379  34.625  43.077   8.550
 4441POPC   D2A17380  34.548  43.118   8.250
 4441POPC   C3A17381  34.603  43.126   7.950
 4441POPC   C4A17382  34.527  43.113   7.650
 4441POPC   C1B17383  34.825  43.156   8.550
 4441POPC   C2B17384  34.844  43.122   8.250
 4441POPC   C3B17385  34.854  43.159   7.950
 4441POPC   C4B17386  34.821  43.185   7.650
 4442POPC   NC317387  17.543  44.641   9.450
 4442POPC   PO417388  17.473  44.711   9.150
 4442POPC   GL117389  17.555  44.620   8.850
 4442POPC   GL217390  17.482  44.593   8.850
 4442POPC   C1A17391  17.498  44.712   8.550
 4442POPC   D2A17392  17.526  44.696   8.250
 4442POPC   C3A17393  17.543  44.635   7.950
 4442POPC   C4A17394  17.509  44.682   7.650
 4442POPC   C1B17395  17.338  44.470   8.550
 4442POPC   C2B17396  17.410  44.462   8.250
 4442POPC   C3B17397  17.374  44.473   7.950
 4442POPC   C4B17398  17.377  44.476   7.650
 4443POPC   NC317399   7.407   5.873   9.450
 4443POPC   PO417400   7.452   5.867   9.150
 4443POPC   GL117401   7.447   5.859   8.850
 4443POPC   GL217402   7.451   5.978   8.850
 4443POPC   C1A17403   7.375   5.838   8.550
 4443POPC   D2A17404   7.381   5.901   8.250
 4443POPC   C3A17405   7.388   5.848   7.950
 4443POPC   C4A17406   7.434   5.821   7.650
 4443POPC   C1B17407   7.449   6.115   8.550
 4443POPC   C2B17408   7.492   6.145   8.250
 4443POPC   C3B17409   7.499   6.090   7.950
 4443POPC   C4B17410   7.479   6.108   7.650
 4444POPC   NC317411  26.846  43.066   9.450
 4444POPC   PO417412  26.832  43.100   9.150
 4444POPC   GL117413  26.787  43.136   8.850
 4444POPC   GL217414  26.930  43.079   8.850
 4444POPC   C1A17415  26.839  43.136   8.550
 4444POPC   D2A17416  26.848  43.069   8.250
 4444POPC   C3A17417  26.805  43.101   7.950
 4444POPC   C4A17418  26.803  43.088   7.650
 4444POPC   C1B17419  27.038  43.018   8.550
 4444POPC   C2B17420  26.987  43.031   8.250
 4444POPC   C3B17421  26.998  42.983   7.950
 4444POPC   C4B17422  27.033  42.984   7.650
 4445POPC   NC317423  19.097   4.328   9.450
 4445POPC   PO417424  19.083   4.321   9.150
 4445POPC   GL117425  19.078   4.273   8.850
 4445POPC   GL217426  18.983   4.175   8.850
 4445POPC   C1A17427  19.065   4.269   8.550
 4445POPC   D2A17428  19.053   4.285   8.250
 4445POPC   C3A17429  19.016   4.290   7.950
 4445POPC   C4A17430  19.089   4.365   7.650
 4445POPC   C1B17431  18.999   4.047   8.550
 4445POPC   C2B17432  18.982   4.035   8.250
 4445POPC   C3B17433  18.959   4.059   7.950
 4445POPC   C4B17434  18.976   4.124   7.650
 4446POPC   NC317435  39.217  25.309   9.450
 4446POPC   PO417436  39.210  25.224   9.150
 4446POPC   GL117437  39.272  25.280   8.850
 4446POPC   GL217438  39.193  25.368   8.850
 4446POPC   C1A17439  39.181  25.287   8.550
 4446POPC   D2A17440  39.199  25.218   8.250
 4446POPC   C3A17441  39.184  25.282   7.950
 4446POPC   C4A17442  39.209  25.302   7.650
 4446POPC   C1B17443  39.147  25.464   8.550
 4446POPC   C2B17444  39.202  25.530   8.250
 4446POPC   C3B17445  39.186  25.537   7.950
 4446POPC   C4B17446  39.173  25.532   7.650
 4447POPC   NC317447  28.340  23.685   9.450
 4447POPC   PO417448  28.319  23.753   9.150
 4447POPC   GL117449  28.347  23.682   8.850
 4447POPC   GL217450  28.449  23.691   8.850
 4447POPC   C1A17451  28.403  23.726   8.550
 4447POPC   D2A17452  28.340  23.702   8.250
 4447POPC   C3A17453  28.337  23.710   7.950
 4447POPC   C4A17454  28.412  23.719   7.650
 4447POPC   C1B17455  28.580  23.569   8.550
 4447POPC   C2B17456  28.556  23.603   8.250
 4447POPC   C3B17457  28.556  23.622   7.950
 4447POPC   C4B17458  28.622  23.571   7.650
 4448POPC   NC317459   8.177  39.216   9.450
 4448POPC   PO417460   8.175  39.264   9.150
 4448POPC   GL117461   8.227  39.187   8.850
 4448POPC   GL217462   8.087  39.102   8.850
 4448POPC   C1A17463   8.219  39.186   8.550
 4448POPC   D2A17464   8.199  39.240   8.250
 4448POPC   C3A17465   8.187  39.194   7.950
 4448POPC   C4A17466   8.219  39.185   7.650
 4448POPC   C1B17467   8.043  39.034   8.550
 4448POPC   C2B17468   8.106  38.982   8.250
 4448POPC   C3B17469   8.111  38.979   7.950
 4448POPC   C4B17470   8.068  39.047   7.650
 4449POPC   NC317471  26.042  14.363   9.450
 4449POPC   PO417472  26.033  14.428   9.150
 4449POPC   GL117473  26.006  14.354   8.850
 4449POPC   GL217474  26.144  14.489   8.850
 4449POPC   C1A17475  25.991  14.403   8.550
 4449POPC   D2A17476  25.994  14.376   8.250
 4449POPC   C3A17477  25.998  14.426   7.950
 4449POPC   C4A17478  26.077  14.452   7.650
 4449POPC   C1B17479  26.174  14.637   8.550
 4449POPC   C2B17480  26.154  14.620   8.250
 4449POPC   C3B17481  26.216  14.595   7.950
 4449POPC   C4B17482  26.145  14.565   7.650
 4450POPC   NC317483  34.600  22.901   9.450
 4450POPC   PO417484  34.593  22.923   9.150
 4450POPC   GL117485  34.599  22.908   8.850
 4450POPC   GL217486  34.508  22.853   8.850
 4450POPC   C1A17487  34.589  22.925   8.550
 4450POPC   D2A17488  34.578  22.982   8.250
 4450POPC   C3A17489  34.615  22.918   7.950
 4450POPC   C4A17490  34.546  22.934   7.650
 4450POPC   C1B17491  34.357  22.792   8.550
 4450POPC   C2B17492  34.425  22.774   8.250
 4450POPC   C3B17493  34.326  22.756   7.950
 4450POPC   C4B17494  34.350  22.805   7.650
 4451POPC   NC317495   5.904  42.323   9.450
 4451POPC   PO417496   5.914  42.346   9.150
 4451POPC   GL117497   5.883  42.378   8.850
 4451POPC   GL217498   5.815  42.173   8.850
 4451POPC   C1A17499   5.830  42.314   8.550
 4451POPC   D2A17500   5.898  42.336   8.250
 4451POPC   C3A17501   5.839  42.336   7.950
 4451POPC   C4A17502   5.884  42.295   7.650
 4451POPC   C1B17503   5.742  42.109   8.550
 4451POPC   C2B17504   5.818  42.096   8.250
 4451POPC   C3B17505   5.784  42.061   7.950
 4451POPC   C4B17506   5.753  42.082   7.650
 4452POPC   NC317507  17.531   7.459   9.450
 4452POPC   PO417508  17.546   7.411   9.150
 4452POPC   GL117509  17.546   7.393   8.850
 4452POPC   GL217510  17.597   7.359   8.850
 4452POPC   C1A17511  17.500   7.377   8.550
 4452POPC   D2A17512  17.493   7.425   8.250
 4452POPC   C3A17513  17.495   7.443   7.950
 4452POPC   C4A17514  17.538   7.380   7.650
 4452POPC   C1B17515  17.638   7.251   8.550
 4452POPC   C2B17516  17.716   7.290   8.250
 4452POPC   C3B17517  17.729   7.202   7.950
 4452POPC   C4B17518  17.673   7.269   7.650
 4453POPC   NC317519  36.122  33.063   9.450
 4453POPC   PO417520  36.145  33.028   9.150
 4453POPC   GL117521  36.157  33.021   8.850
 4453POPC   GL217522  36.153  33.160   8.850
 4453POPC   C1A17523  36.118  33.056   8.550
 4453POPC   D2A17524  36.137  33.046   8.250
 4453POPC   C3A17525  36.172  33.062   7.950
 4453POPC   C4A17526  36.114  33.033   7.650
 4453POPC   C1B17527  36.178  33.267   8.550
 4453POPC   C2B17528  36.130  33.277   8.250
 4453POPC   C3B17529  36.087  33.301   7.950
 4453POPC   C4B17530  36.120  33.247   7.650
 4454POPC   NC317531  41.559  22.135   9.450
 4454POPC   PO417532  41.592  22.186   9.150
 4454POPC   GL117533  41.509  22.151   8.850
 4454POPC   GL217534  41.611  22.293   8.850
 4454POPC   C1A17535  41.572  22.138   8.550
 4454POPC   D2A17536  41.592  22.156   8.250
 4454POPC   C3A17537  41.565  22.132   7.950
 4454POPC   C4A17538  41.520  22.155   7.650
 4454POPC   C1B17539  41.584  22.444   8.550
 4454POPC   C2B17540  41.596  22.440   8.250
 4454POPC   C3B17541  41.671  22.399   7.950
 4454POPC   C4B17542  41.647  22.418   7.650
 4455POPC   NC317543  19.805  16.748   9.450
 4455POPC   PO417544  19.790  16.704   9.150
 4455POPC   GL117545  19.798  16.756   8.850
 4455POPC   GL217546  19.837  16.864   8.850
 4455POPC   C1A17547  19.832  16.751   8.550
 4455POPC   D2A17548  19.824  16.724   8.250
 4455POPC   C3A17549  19.849  16.681   7.950
 4455POPC   C4A17550  19.796  16.765   7.650
 4455POPC   C1B17551  19.818  17.024   8.550
 4455POPC   C2B17552  19.882  16.994   8.250
 4455POPC   C3B17553  19.799  17.026   7.950
 4455POPC   C4B17554  19.838  16.942   7.650
 4456POPC   NC317555   0.460  43.934   9.450
 4456POPC   PO417556   0.426  43.936   9.150
 4456POPC   GL117557   0.411  43.889   8.850
 4456POPC   GL217558   0.608  43.915   8.850
 4456POPC   C1A17559   0.433  43.920   8.550
 4456POPC   D2A17560   0.429  43.838   8.250
 4456POPC   C3A17561   0.439  43.857   7.950
 4456POPC   C4A17562   0.435  43.875   7.650
 4456POPC   C1B17563   0.658  43.901   8.550
 4456POPC   C2B17564   0.734  43.824   8.250
 4456POPC   C3B17565   0.724  43.828   7.950
 4456POPC   C4B17566   0.700  43.879   7.650
 4457POPC   NC317567  11.269  28.380   9.450
 4457POPC   PO417568  11.253  28.387   9.150
 4457POPC   GL117569  11.303  28.389   8.850
 4457POPC   GL217570  11.323  28.240   8.850
 4457POPC   C1A17571  11.287  28.371   8.550
 4457POPC   D2A17572  11.301  28.382   8.250
 4457POPC   C3A17573  11.292  28.382   7.950
 4457POPC   C4A17574  11.336  28.415   7.650
 4457POPC   C1B17575  11.276  28.074   8.550
 4457POPC   C2B17576  11.310  28.099   8.250
 4457POPC   C3B17577  11.226  28.167   7.950
 4457POPC   C4B17578  11.273  28.160   7.650
 4458POPC   NC317579  25.262   5.067   9.450
 4458POPC   PO417580  25.223   5.139   9.150
 4458POPC   GL117581  25.304   5.059   8.850
 4458POPC   GL217582  25.433   5.084   8.850
 4458POPC   C1A17583  25.311   5.112   8.550
 4458POPC   D2A17584  25.276   5.114   8.250
 4458POPC   C3A17585  25.220   5.119   7.950
 4458POPC   C4A17586  25.262   5.082   7.650
 4458POPC   C1B17587  25.484   5.092   8.550
 4458POPC   C2B17588  25.506   5.101   8.250
 4458POPC   C3B17589  25.499   5.161   7.950
 4458POPC   C4B17590  25.502   5.125   7.650
 4459POPC   NC317591  20.615  31.447   9.450
 4459POPC   PO417592  20.577  31.441   9.150
 4459POPC   GL117593  20.590  31.470   8.850
 4459POPC   GL217594  20.506  31.365   8.850
 4459POPC   C1A17595  20.597  31.515   8.550
 4459POPC   D2A17596  20.623  31.502   8.250
 4459POPC   C3A17597  20.638  31.519   7.950
 4459POPC   C4A17598  20.640  31.458   7.650
 4459POPC   C1B17599  20.459  31.223   8.550
 4459POPC   C2B17600  20.468  31.241   8.250
 4459POPC   C3B17601  20.533  31.281   7.950
 4459POPC   C4B17602  20.483  31.209   7.650
 4460POPC   NC317603  33.850   5.894   9.450
 4460POPC   PO417604  33.844   5.903   9.150
 4460POPC   GL117605  33.789   5.895   8.850
 4460POPC   GL217606  33.899   5.731   8.850
 4460POPC   C1A17607  33.791   5.824   8.550
 4460POPC   D2A17608  33.763   5.864   8.250
 4460POPC   C3A17609  33.828   5.852   7.950
 4460POPC   C4A17610  33.816   5.838   7.650
 4460POPC   C1B17611  34.007   5.726   8.550
 4460POPC   C2B17612  33.977   5.650   8.250
 4460POPC   C3B17613  33.997   5.712   7.950
 4460POPC   C4B17614  33.922   5.696   7.650
 4461POPC   NC317615   8.923  44.616   9.450
 4461POPC   PO417616   8.929  44.636   9.150
 4461POPC   GL117617   8.946  44.635   8.850
 4461POPC   GL217618   8.819  44.647   8.850
 4461POPC   C1A17619   9.022  44.691   8.550
 4461POPC   D2A17620   8.970  44.650   8.250
 4461POPC   C3A17621   8.967  44.656   7.950
 4461POPC   C4A17622   8.963  44.631   7.650
 4461POPC   C1B17623   8.711  44.545   8.550
 4461POPC   C2B17624   8.771  44.547   8.250
 4461POPC   C3B17625   8.752  44.580   7.950
 4461POPC   C4B17626   8.716  44.511   7.650
 4462POPC   NC317627  35.372  39.963   9.450
 4462POPC   PO417628  35.371  39.980   9.150
 4462POPC   GL117629  35.315  40.004   8.850
 4462POPC   GL217630  35.420  39.888   8.850
 4462POPC   C1A17631  35.323  39.971   8.550
 4462POPC   D2A17632  35.385  40.019   8.250
 4462POPC   C3A17633  35.307  39.957   7.950
 4462POPC   C4A17634  35.326  39.982   7.650
 4462POPC   C1B17635  35.398  39.778   8.550
 4462POPC   C2B17636  35.437  39.761   8.250
 4462POPC   C3B17637  35.382  39.725   7.950
 4462POPC   C4B17638  35.435  39.749   7.650
 4463POPC   NC317639  33.043  32.282   9.450
 4463POPC   PO417640  33.004  32.202   9.150
 4463POPC   GL117641  33.015  32.199   8.850
 4463POPC   GL217642  33.085  32.388   8.850
 4463POPC   C1A17643  33.022  32.202   8.550
 4463POPC   D2A17644  33.000  32.205   8.250
 4463POPC   C3A17645  33.046  32.205   7.950
 4463POPC   C4A17646  32.996  32.244   7.650
 4463POPC   C1B17647  33.023  32.489   8.550
 4463POPC   C2B17648  33.029  32.543   8.250
 4463POPC   C3B17649  33.107  32.469   7.950
 4463POPC   C4B17650  33.030  32.505   7.650
 4464POPC   NC317651   4.321  15.987   9.450
 4464POPC   PO417652   4.284  15.952   9.150
 4464POPC   GL117653   4.328  15.908   8.850
 4464POPC   GL217654   4.227  15.885   8.850
 4464POPC   C1A17655   4.320  15.908   8.550
 4464POPC   D2A17656   4.336  15.980   8.250
 4464POPC   C3A17657   4.349  15.944   7.950
 4464POPC   C4A17658   4.351  15.985   7.650
 4464POPC   C1B17659   4.212  15.796   8.550
 4464POPC   C2B17660   4.178  15.788   8.250
 4464POPC   C3B17661   4.189  15.730   7.950
 4464POPC   C4B17662   4.158  15.720   7.650
 4465POPC   NC317663   5.070  29.902   9.450
 4465POPC   PO417664   5.053  29.951   9.150
 4465POPC   GL117665   5.047  29.917   8.850
 4465POPC   GL217666   5.018  29.960   8.850
 4465POPC   C1A17667   5.087  29.902   8.550
 4465POPC   D2A17668   5.128  29.910   8.250
 4465POPC   C3A17669   5.120  29.884   7.950
 4465POPC   C4A17670   5.094  29.909   7.650
 4465POPC   C1B17671   4.867  30.035   8.550
 4465POPC   C2B17672   4.845  30.102   8.250
 4465POPC   C3B17673   4.878  30.071   7.950
 4465POPC   C4B17674   4.902  30.026   7.650
 4466POPC   NC317675  30.696  32.225   9.450
 4466POPC   PO417676  30.696  32.228   9.150
 4466POPC   GL117677  30.685  32.217   8.850
 4466POPC   GL217678  30.855  32.276   8.850
 4466POPC   C1A17679  30.654  32.240   8.550
 4466POPC   D2A17680  30.667  32.213   8.250
 4466POPC   C3A17681  30.666  32.222   7.950
 4466POPC   C4A17682  30.674  32.265   7.650
 4466POPC   C1B17683  30.907  32.247   8.550
 4466POPC   C2B17684  30.912  32.299   8.250
 4466POPC   C3B17685  30.938  32.241   7.950
 4466POPC   C4B17686  30.938  32.291   7.650
 4467POPC   NC317687  27.547  34.559   9.450
 4467POPC   PO417688  27.622  34.583   9.150
 4467POPC   GL117689  27.639  34.548   8.850
 4467POPC   GL217690  27.677  34.459   8.850
 4467POPC   C1A17691  27.557  34.591   8.550
 4467POPC   D2A17692  27.595  34.567   8.250
 4467POPC   C3A17693  27.555  34.582   7.950
 4467POPC   C4A17694  27.563  34.624   7.650
 4467POPC   C1B17695  27.655  34.306   8.550
 4467POPC   C2B17696  27.653  34.296   8.250
 4467POPC   C3B17697  27.661  34.365   7.950
 4467POPC   C4B17698  27.665  34.366   7.650
 4468POPC   NC317699  18.276  44.635   9.450
 4468POPC   PO417700  18.324  44.706   9.150
 4468POPC   GL117701  18.314  44.690   8.850
 4468POPC   GL217702  18.305  44.493   8.850
 4468POPC   C1A17703  18.292  44.667   8.550
 4468POPC   D2A17704  18.259  44.646   8.250
 4468POPC   C3A17705  18.299  44.651   7.950
 4468POPC   C4A17706  18.236  44.647   7.650
 4468POPC   C1B17707  18.241  44.394   8.550
 4468POPC   C2B17708  18.262  44.379   8.250
 4468POPC   C3B17709  18.290  44.375   7.950
 4468POPC   C4B17710  18.263  44.435   7.650
 4469POPC   NC317711   5.899   3.583   9.450
 4469POPC   PO417712   5.821   3.529   9.150
 4469POPC   GL117713   5.863   3.511   8.850
 4469POPC   GL217714   6.001   3.556   8.850
 4469POPC   C1A17715   5.858   3.574   8.550
 4469POPC   D2A17716   5.917   3.572   8.250
 4469POPC   C3A17717   5.904   3.528   7.950
 4469POPC   C4A17718   5.918   3.493   7.650
 4469POPC   C1B17719   6.068   3.544   8.550
 4469POPC   C2B17720   6.096   3.528   8.250
 4469POPC   C3B17721   6.079   3.497   7.950
 4469POPC   C4B17722   6.111   3.552   7.650
 4470POPC   NC317723   2.791  42.338   9.450
 4470POPC   PO417724   2.783  42.349   9.150
 4470POPC   GL117725   2.782  42.355   8.850
 4470POPC   GL217726   2.885  42.441   8.850
 4470POPC   C1A17727   2.770  42.370   8.550
 4470POPC   D2A17728   2.753  42.377   8.250
 4470POPC   C3A17729   2.731  42.317   7.950
 4470POPC   C4A17730   2.775  42.340   7.650
 4470POPC   C1B17731   2.964  42.546   8.550
 4470POPC   C2B17732   2.967  42.517   8.250
 4470POPC   C3B17733   2.972  42.521   7.950
 4470POPC   C4B17734   2.988  42.497   7.650
 4471POPC   NC317735  44.659   9.775   9.450
 4471POPC   PO417736  44.685   9.750   9.150
 4471POPC   GL117737  44.625   9.743   8.850
 4471POPC   GL217738  44.653   9.632   8.850
 4471POPC   C1A17739  44.710   9.755   8.550
 4471POPC   D2A17740  44.688   9.714   8.250
 4471POPC   C3A17741  44.683   9.713   7.950
 4471POPC   C4A17742  44.697   9.796   7.650
 4471POPC   C1B17743  44.652   9.515   8.550
 4471POPC   C2B17744  44.624   9.522   8.250
 4471POPC   C3B17745  44.707   9.467   7.950
 4471POPC   C4B17746  44.650   9.482   7.650
 4472POPC   NC317747   2.782  14.402   9.450
 4472POPC   PO417748   2.776  14.409   9.150
 4472POPC   GL117749   2.790  14.428   8.850
 4472POPC   GL217750   2.818  14.498   8.850
 4472POPC   C1A17751   2.721  14.408   8.550
 4472POPC   D2A17752   2.793  14.359   8.250
 4472POPC   C3A17753   2.754  14.377   7.950
 4472POPC   C4A17754   2.767  14.432   7.650
 4472POPC   C1B17755   2.859  14.684   8.550
 4472POPC   C2B17756   2.817  14.684   8.250
 4472POPC   C3B17757   2.791  14.654   7.950
 4472POPC   C4B17758   2.806  14.694   7.650
 4473POPC   NC317759   4.317  44.629   9.450
 4473POPC   PO417760   4.353  44.620   9.150
 4473POPC   GL117761   4.292  44.619   8.850
 4473POPC   GL217762   4.187  44.638   8.850
 4473POPC   C1A17763   4.356  44.641   8.550
 4473POPC   D2A17764   4.335  44.711   8.250
 4473POPC   C3A17765   4.314  44.644   7.950
 4473POPC   C4A17766   4.315  44.697   7.650
 4473POPC   C1B17767   4.047  44.580   8.550
 4473POPC   C2B17768   4.096  44.530   8.250
 4473POPC   C3B17769   4.084  44.503   7.950
 4473POPC   C4B17770   4.082  44.538   7.650
 4474POPC   NC317771  29.970   8.161   9.450
 4474POPC   PO417772  29.933   8.226   9.150
 4474POPC   GL117773  29.904   8.223   8.850
 4474POPC   GL217774  29.834   8.302   8.850
 4474POPC   C1A17775  29.930   8.183   8.550
 4474POPC   D2A17776  29.911   8.223   8.250
 4474POPC   C3A17777  29.938   8.183   7.950
 4474POPC   C4A17778  29.911   8.149   7.650
 4474POPC   C1B17779  29.717   8.316   8.550
 4474POPC   C2B17780  29.747   8.282   8.250
 4474POPC   C3B17781  29.655   8.292   7.950
 4474POPC   C4B17782  29.664   8.302   7.650
 4475POPC   NC317783  10.476  34.531   9.450
 4475POPC   PO417784  10.519  34.566   9.150
 4475POPC   GL117785  10.564  34.582   8.850
 4475POPC   GL217786  10.547  34.708   8.850
 4475POPC   C1A17787  10.516  34.553   8.550
 4475POPC   D2A17788  10.527  34.597   8.250
 4475POPC   C3A17789  10.483  34.592   7.950
 4475POPC   C4A17790  10.562  34.617   7.650
 4475POPC   C1B17791  10.553  34.825   8.550
 4475POPC   C2B17792  10.552  34.821   8.250
 4475POPC   C3B17793  10.480  34.775   7.950
 4475POPC   C4B17794  10.526  34.869   7.650
 4476POPC   NC317795  43.130  23.670   9.450
 4476POPC   PO417796  43.079  23.704   9.150
 4476POPC   GL117797  43.089  23.670   8.850
 4476POPC   GL217798  43.093  23.600   8.850
 4476POPC   C1A17799  43.128  23.692   8.550
 4476POPC   D2A17800  43.141  23.696   8.250
 4476POPC   C3A17801  43.126  23.737   7.950
 4476POPC   C4A17802  43.120  23.672   7.650
 4476POPC   C1B17803  43.137  23.428   8.550
 4476POPC   C2B17804  43.104  23.450   8.250
 4476POPC   C3B17805  43.123  23.417   7.950
 4476POPC   C4B17806  43.090  23.474   7.650
 4477POPC   NC317807  38.430  26.800   9.450
 4477POPC   PO417808  38.460  26.791   9.150
 4477POPC   GL117809  38.503  26.799   8.850
 4477POPC   GL217810  38.329  26.761   8.850
 4477POPC   C1A17811  38.445  26.838   8.550
 4477POPC   D2A17812  38.429  26.778   8.250
 4477POPC   C3A17813  38.490  26.832   7.950
 4477POPC   C4A17814  38.490  26.828   7.650
 4477POPC   C1B17815  38.299  26.693   8.550
 4477POPC   C2B17816  38.281  26.660   8.250
 4477POPC   C3B17817  38.217  26.620   7.950
 4477POPC   C4B17818  38.218  26.706   7.650
 4478POPC   NC317819  43.893  44.652   9.450
 4478POPC   PO417820  43.882  44.669   9.150
 4478POPC   GL117821  43.936  44.677   8.850
 4478POPC   GL217822  43.939  44.787   8.850
 4478POPC   C1A17823  43.894  44.646   8.550
 4478POPC   D2A17824  43.883  44.711   8.250
 4478POPC   C3A17825  43.932  44.619   7.950
 4478POPC   C4A17826  43.929  44.639   7.650
 4478POPC   C1B17827  43.881  44.894   8.550
 4478POPC   C2B17828  43.890  44.912   8.250
 4478POPC   C3B17829  43.892  44.915   7.950
 4478POPC   C4B17830  43.871  44.923   7.650
 4479POPC   NC317831   8.940  12.880   9.450
 4479POPC   PO417832   8.990  12.882   9.150
 4479POPC   GL117833   9.019  12.850   8.850
 4479POPC   GL217834   8.955  12.773   8.850
 4479POPC   C1A17835   8.954  12.805   8.550
 4479POPC   D2A17836   8.975  12.811   8.250
 4479POPC   C3A17837   8.992  12.841   7.950
 4479POPC   C4A17838   8.997  12.875   7.650
 4479POPC   C1B17839   8.833  12.671   8.550
 4479POPC   C2B17840   8.841  12.590   8.250
 4479POPC   C3B17841   8.853  12.647   7.950
 4479POPC   C4B17842   8.812  12.627   7.650
 4480POPC   NC317843  31.509  29.900   9.450
 4480POPC   PO417844  31.465  29.943   9.150
 4480POPC   GL117845  31.495  29.871   8.850
 4480POPC   GL217846  31.454  29.772   8.850
 4480POPC   C1A17847  31.466  29.957   8.550
 4480POPC   D2A17848  31.485  29.872   8.250
 4480POPC   C3A17849  31.445  29.883   7.950
 4480POPC   C4A17850  31.472  29.893   7.650
 4480POPC   C1B17851  31.521  29.659   8.550
 4480POPC   C2B17852  31.482  29.697   8.250
 4480POPC   C3B17853  31.536  29.690   7.950
 4480POPC   C4B17854  31.448  29.706   7.650
 4481POPC   NC317855  36.884  29.178   9.450
 4481POPC   PO417856  36.941  29.193   9.150
 4481POPC   GL117857  36.872  29.193   8.850
 4481POPC   GL217858  36.843  29.228   8.850
 4481POPC   C1A17859  36.865  29.119   8.550
 4481POPC   D2A17860  36.952  29.134   8.250
 4481POPC   C3A17861  36.884  29.138   7.950
 4481POPC   C4A17862  36.946  29.186   7.650
 4481POPC   C1B17863  36.820  29.339   8.550
 4481POPC   C2B17864  36.802  29.333   8.250
 4481POPC   C3B17865  36.862  29.383   7.950
 4481POPC   C4B17866  36.779  29.362   7.650
 4482POPC   NC317867  26.803  17.552   9.450
 4482POPC   PO417868  26.833  17.457   9.150
 4482POPC   GL117869  26.817  17.537   8.850
 4482POPC   GL217870  26.742  17.610   8.850
 4482POPC   C1A17871  26.848  17.554   8.550
 4482POPC   D2A17872  26.812  17.457   8.250
 4482POPC   C3A17873  26.848  17.554   7.950
 4482POPC   C4A17874  26.776  17.514   7.650
 4482POPC   C1B17875  26.602  17.643   8.550
 4482POPC   C2B17876  26.562  17.646   8.250
 4482POPC   C3B17877  26.612  17.663   7.950
 4482POPC   C4B17878  26.565  17.686   7.650
 4483POPC   NC317879  24.450  31.442   9.450
 4483POPC   PO417880  24.496  31.447   9.150
 4483POPC   GL117881  24.531  31.500   8.850
 4483POPC   GL217882  24.611  31.560   8.850
 4483POPC   C1A17883  24.525  31.510   8.550
 4483POPC   D2A17884  24.512  31.433   8.250
 4483POPC   C3A17885  24.496  31.517   7.950
 4483POPC   C4A17886  24.450  31.504   7.650
 4483POPC   C1B17887  24.688  31.658   8.550
 4483POPC   C2B17888  24.743  31.563   8.250
 4483POPC   C3B17889  24.707  31.576   7.950
 4483POPC   C4B17890  24.704  31.572   7.650
 4484POPC   NC317891   2.739   7.408   9.450
 4484POPC   PO417892   2.740   7.440   9.150
 4484POPC   GL117893   2.778   7.426   8.850
 4484POPC   GL217894   2.842   7.397   8.850
 4484POPC   C1A17895   2.722   7.386   8.550
 4484POPC   D2A17896   2.805   7.459   8.250
 4484POPC   C3A17897   2.747   7.415   7.950
 4484POPC   C4A17898   2.807   7.419   7.650
 4484POPC   C1B17899   3.058   7.420   8.550
 4484POPC   C2B17900   2.966   7.410   8.250
 4484POPC   C3B17901   3.010   7.451   7.950
 4484POPC   C4B17902   3.054   7.439   7.650
 4485POPC   NC317903  12.858  28.344   9.450
 4485POPC   PO417904  12.824  28.331   9.150
 4485POPC   GL117905  12.876  28.349   8.850
 4485POPC   GL217906  12.836  28.487   8.850
 4485POPC   C1A17907  12.901  28.394   8.550
 4485POPC   D2A17908  12.830  28.336   8.250
 4485POPC   C3A17909  12.837  28.331   7.950
 4485POPC   C4A17910  12.860  28.367   7.650
 4485POPC   C1B17911  12.765  28.590   8.550
 4485POPC   C2B17912  12.813  28.569   8.250
 4485POPC   C3B17913  12.800  28.597   7.950
 4485POPC   C4B17914  12.785  28.641   7.650
 4486POPC   NC317915  44.706   8.922   9.450
 4486POPC   PO417916  44.627   8.994   9.150
 4486POPC   GL117917  44.660   8.972   8.850
 4486POPC   GL217918  44.683   9.079   8.850
 4486POPC   C1A17919  44.681   8.948   8.550
 4486POPC   D2A17920  44.625   8.946   8.250
 4486POPC   C3A17921  44.662   8.932   7.950
 4486POPC   C4A17922  44.678   8.952   7.650
 4486POPC   C1B17923  44.695   9.182   8.550
 4486POPC   C2B17924  44.743   9.215   8.250
 4486POPC   C3B17925  44.655   9.227   7.950
 4486POPC   C4B17926  44.718   9.253   7.650
 4487POPC   NC317927  12.817  23.755   9.450
 4487POPC   PO417928  12.807  23.691   9.150
 4487POPC   GL117929  12.874  23.721   8.850
 4487POPC   GL217930  12.801  23.785   8.850
 4487POPC   C1A17931  12.855  23.744   8.550
 4487POPC   D2A17932  12.859  23.679   8.250
 4487POPC   C3A17933  12.843  23.688   7.950
 4487POPC   C4A17934  12.830  23.762   7.650
 4487POPC   C1B17935  12.696  23.854   8.550
 4487POPC   C2B17936  12.636  23.863   8.250
 4487POPC   C3B17937  12.679  23.927   7.950
 4487POPC   C4B17938  12.656  23.872   7.650
 4488POPC   NC317939   9.713  41.512   9.450
 4488POPC   PO417940   9.708  41.526   9.150
 4488POPC   GL117941   9.790  41.558   8.850
 4488POPC   GL217942   9.838  41.481   8.850
 4488POPC   C1A17943   9.757  41.520   8.550
 4488POPC   D2A17944   9.765  41.579   8.250
 4488POPC   C3A17945   9.763  41.591   7.950
 4488POPC   C4A17946   9.764  41.592   7.650
 4488POPC   C1B17947   9.870  41.362   8.550
 4488POPC   C2B17948   9.854  41.306   8.250
 4488POPC   C3B17949   9.828  41.332   7.950
 4488POPC   C4B17950   9.846  41.294   7.650
 4489POPC   NC317951  37.662   4.349   9.450
 4489POPC   PO417952  37.710   4.294   9.150
 4489POPC   GL117953  37.651   4.292   8.850
 4489POPC   GL217954  37.761   4.424   8.850
 4489POPC   C1A17955  37.653   4.322   8.550
 4489POPC   D2A17956  37.691   4.296   8.250
 4489POPC   C3A17957  37.636   4.308   7.950
 4489POPC   C4A17958  37.670   4.293   7.650
 4489POPC   C1B17959  37.783   4.602   8.550
 4489POPC   C2B17960  37.750   4.576   8.250
 4489POPC   C3B17961  37.757   4.582   7.950
 4489POPC   C4B17962  37.795   4.562   7.650
 4490POPC   NC317963  30.743  25.239   9.450
 4490POPC   PO417964  30.737  25.242   9.150
 4490POPC   GL117965  30.709  25.246   8.850
 4490POPC   GL217966  30.602  25.141   8.850
 4490POPC   C1A17967  30.687  25.268   8.550
 4490POPC   D2A17968  30.662  25.246   8.250
 4490POPC   C3A17969  30.689  25.278   7.950
 4490POPC   C4A17970  30.687  25.230   7.650
 4490POPC   C1B17971  30.494  25.070   8.550
 4490POPC   C2B17972  30.510  25.126   8.250
 4490POPC   C3B17973  30.508  25.097   7.950
 4490POPC   C4B17974  30.517  25.072   7.650
 4491POPC   NC317975   6.597  23.748   9.450
 4491POPC   PO417976   6.683  23.748   9.150
 4491POPC   GL117977   6.649  23.715   8.850
 4491POPC   GL217978   6.576  23.568   8.850
 4491POPC   C1A17979   6.645  23.725   8.550
 4491POPC   D2A17980   6.652  23.669   8.250
 4491POPC   C3A17981   6.645  23.742   7.950
 4491POPC   C4A17982   6.628  23.752   7.650
 4491POPC   C1B17983   6.553  23.491   8.550
 4491POPC   C2B17984   6.575  23.503   8.250
 4491POPC   C3B17985   6.521  23.508   7.950
 4491POPC   C4B17986   6.541  23.540   7.650
 4492POPC   NC317987   1.943  44.704   9.450
 4492POPC   PO417988   1.955  44.678   9.150
 4492POPC   GL117989   1.988  44.693   8.850
 4492POPC   GL217990   1.922  44.536   8.850
 4492POPC   C1A17991   1.953  44.696   8.550
 4492POPC   D2A17992   1.955  44.676   8.250
 4492POPC   C3A17993   1.995  44.676   7.950
 4492POPC   C4A17994   1.949  44.640   7.650
 4492POPC   C1B17995   1.963  44.414   8.550
 4492POPC   C2B17996   1.873  44.425   8.250
 4492POPC   C3B17997   1.874  44.373   7.950
 4492POPC   C4B17998   1.957  44.415   7.650
 4493POPC   NC317999   8.175  23.761   9.450
 4493POPC   PO418000   8.165  23.761   9.150
 4493POPC   GL118001   8.204  23.754   8.850
 4493POPC   GL218002   8.317  23.680   8.850
 4493POPC   C1A18003   8.196  23.675   8.550
 4493POPC   D2A18004   8.192  23.689   8.250
 4493POPC   C3A18005   8.174  23.730   7.950
 4493POPC   C4A18006   8.229  23.678   7.650
 4493POPC   C1B18007   8.453  23.563   8.550
 4493POPC   C2B18008   8.379  23.638   8.250
 4493POPC   C3B18009   8.440  23.599   7.950
 4493POPC   C4B18010   8.460  23.594   7.650
 4494POPC   NC318011  27.557  30.738   9.450
 4494POPC   PO418012  27.559  30.746   9.150
 4494POPC   GL118013  27.622  30.685   8.850
 4494POPC   GL218014  27.683  30.693   8.850
 4494POPC   C1A18015  27.567  30.702   8.550
 4494POPC   D2A18016  27.617  30.737   8.250
 4494POPC   C3A18017  27.625  30.715   7.950
 4494POPC   C4A18018  27.623  30.731   7.650
 4494POPC   C1B18019  27.810  30.619   8.550
 4494POPC   C2B18020  27.798  30.667   8.250
 4494POPC   C3B18021  27.848  30.635   7.950
 4494POPC   C4B18022  27.814  30.610   7.650
 4495POPC   NC318023   8.933  43.876   9.450
 4495POPC   PO418024   9.014  43.872   9.150
 4495POPC   GL118025   8.942  43.879   8.850
 4495POPC   GL218026   9.032  43.764   8.850
 4495POPC   C1A18027   9.012  43.877   8.550
 4495POPC   D2A18028   9.015  43.935   8.250
 4495POPC   C3A18029   8.972  43.914   7.950
 4495POPC   C4A18030   8.937  43.913   7.650
 4495POPC   C1B18031   9.021  43.595   8.550
 4495POPC   C2B18032   8.948  43.592   8.250
 4495POPC   C3B18033   8.958  43.612   7.950
 4495POPC   C4B18034   9.037  43.623   7.650
 4496POPC   NC318035  29.915  43.873   9.450
 4496POPC   PO418036  29.903  43.925   9.150
 4496POPC   GL118037  29.935  43.840   8.850
 4496POPC   GL218038  29.962  43.967   8.850
 4496POPC   C1A18039  29.953  43.860   8.550
 4496POPC   D2A18040  29.904  43.897   8.250
 4496POPC   C3A18041  29.927  43.862   7.950
 4496POPC   C4A18042  29.934  43.849   7.650
 4496POPC   C1B18043  29.945  44.128   8.550
 4496POPC   C2B18044  29.991  44.128   8.250
 4496POPC   C3B18045  29.943  44.105   7.950
 4496POPC   C4B18046  29.923  44.133   7.650
 4497POPC   NC318047  36.094  29.163   9.450
 4497POPC   PO418048  36.092  29.173   9.150
 4497POPC   GL118049  36.117  29.101   8.850
 4497POPC   GL218050  36.276  29.241   8.850
 4497POPC   C1A18051  36.150  29.112   8.550
 4497POPC   D2A18052  36.081  29.161   8.250
 4497POPC   C3A18053  36.174  29.158   7.950
 4497POPC   C4A18054  36.125  29.133   7.650
 4497POPC   C1B18055  36.385  29.269   8.550
 4497POPC   C2B18056  36.315  29.253   8.250
 4497POPC   C3B18057  36.358  29.219   7.950
 4497POPC   C4B18058  36.381  29.246   7.650
 4498POPC   NC318059  38.447  12.841   9.450
 4498POPC   PO418060  38.465  12.889   9.150
 4498POPC   GL118061  38.415  12.844   8.850
 4498POPC   GL218062  38.403  13.004   8.850
 4498POPC   C1A18063  38.447  12.806   8.550
 4498POPC   D2A18064  38.497  12.828   8.250
 4498POPC   C3A18065  38.423  12.874   7.950
 4498POPC   C4A18066  38.409  12.843   7.650
 4498POPC   C1B18067  38.418  13.086   8.550
 4498POPC   C2B18068  38.445  13.136   8.250
 4498POPC   C3B18069  38.439  13.075   7.950
 4498POPC   C4B18070  38.457  13.063   7.650
 4499POPC   NC318071  14.449  18.288   9.450
 4499POPC   PO418072  14.405  18.264   9.150
 4499POPC   GL118073  14.427  18.249   8.850
 4499POPC   GL218074  14.452  18.448   8.850
 4499POPC   C1A18075  14.438  18.247   8.550
 4499POPC   D2A18076  14.427  18.324   8.250
 4499POPC   C3A18077  14.443  18.309   7.950
 4499POPC   C4A18078  14.439  18.332   7.650
 4499POPC   C1B18079  14.482  18.559   8.550
 4499POPC   C2B18080  14.522  18.558   8.250
 4499POPC   C3B18081  14.535  18.479   7.950
 4499POPC   C4B18082  14.493  18.552   7.650
 4500POPC   NC318083  11.301  42.285   9.450
 4500POPC   PO418084  11.334  42.329   9.150
 4500POPC   GL118085  11.291  42.291   8.850
 4500POPC   GL218086  11.353  42.202   8.850
 4500POPC   C1A18087  11.322  42.330   8.550
 4500POPC   D2A18088  11.308  42.348   8.250
 4500POPC   C3A18089  11.336  42.328   7.950
 4500POPC   C4A18090  11.283  42.348   7.650
 4500POPC   C1B18091  11.486  42.193   8.550
 4500POPC   C2B18092  11.424  42.128   8.250
 4500POPC   C3B18093  11.480  42.111   7.950
 4500POPC   C4B18094  11.489  42.110   7.650
 4501POPC   NC318095   5.124  25.269   9.450
 4501POPC   PO418096   5.098  25.234   9.150
 4501POPC   GL118097   5.085  25.230   8.850
 4501POPC   GL218098   5.205  25.220   8.850
 4501POPC   C1A18099   5.123  25.236   8.550
 4501POPC   D2A18100   5.097  25.242   8.250
 4501POPC   C3A18101   5.058  25.235   7.950
 4501POPC   C4A18102   5.083  25.273   7.650
 4501POPC   C1B18103   5.364  25.229   8.550
 4501POPC   C2B18104   5.333  25.207   8.250
 4501POPC   C3B18105   5.318  25.188   7.950
 4501POPC   C4B18106   5.378  25.187   7.650
 4502POPC   NC318107  13.656  26.825   9.450
 4502POPC   PO418108  13.589  26.805   9.150
 4502POPC   GL118109  13.617  26.835   8.850
 4502POPC   GL218110  13.473  26.836   8.850
 4502POPC   C1A18111  13.600  26.830   8.550
 4502POPC   D2A18112  13.601  26.795   8.250
 4502POPC   C3A18113  13.624  26.827   7.950
 4502POPC   C4A18114  13.599  26.794   7.650
 4502POPC   C1B18115  13.351  26.953   8.550
 4502POPC   C2B18116  13.424  26.957   8.250
 4502POPC   C3B18117  13.411  26.903   7.950
 4502POPC   C4B18118  13.414  26.870   7.650
 4503POPC   NC318119  14.423   1.962   9.450
 4503POPC   PO418120  14.423   2.010   9.150
 4503POPC   GL118121  14.447   1.993   8.850
 4503POPC   GL218122  14.307   2.057   8.850
 4503POPC   C1A18123  14.362   1.972   8.550
 4503POPC   D2A18124  14.419   1.977   8.250
 4503POPC   C3A18125  14.426   2.008   7.950
 4503POPC   C4A18126  14.415   2.013   7.650
 4503POPC   C1B18127  14.203   2.133   8.550
 4503POPC   C2B18128  14.222   2.138   8.250
 4503POPC   C3B18129  14.226   2.110   7.950
 4503POPC   C4B18130  14.168   2.072   7.650
 4504POPC   NC318131  42.301  22.926   9.450
 4504POPC   PO418132  42.304  22.902   9.150
 4504POPC   GL118133  42.342  22.908   8.850
 4504POPC   GL218134  42.402  22.794   8.850
 4504POPC   C1A18135  42.349  22.961   8.550
 4504POPC   D2A18136  42.334  22.910   8.250
 4504POPC   C3A18137  42.352  22.920   7.950
 4504POPC   C4A18138  42.312  22.901   7.650
 4504POPC   C1B18139  42.486  22.724   8.550
 4504POPC   C2B18140  42.493  22.679   8.250
 4504POPC   C3B18141  42.498  22.701   7.950
 4504POPC   C4B18142  42.516  22.760   7.650
 4505POPC   NC318143  44.706   1.194   9.450
 4505POPC   PO418144  44.651   1.250   9.150
 4505POPC   GL118145  44.651   1.206   8.850
 4505POPC   GL218146  44.760   1.317   8.850
 4505POPC   C1A18147  44.691   1.207   8.550
 4505POPC   D2A18148  44.616   1.180   8.250
 4505POPC   C3A18149  44.649   1.263   7.950
 4505POPC   C4A18150  44.679   1.242   7.650
 4505POPC   C1B18151  44.795   1.444   8.550
 4505POPC   C2B18152  44.856   1.397   8.250
 4505POPC   C3B18153  44.808   1.430   7.950
 4505POPC   C4B18154  44.796   1.418   7.650
 4506POPC   NC318155  34.626  12.863   9.450
 4506POPC   PO418156  34.556  12.841   9.150
 4506POPC   GL118157  34.591  12.841   8.850
 4506POPC   GL218158  34.498  12.957   8.850
 4506POPC   C1A18159  34.604  12.808   8.550
 4506POPC   D2A18160  34.593  12.868   8.250
 4506POPC   C3A18161  34.613  12.829   7.950
 4506POPC   C4A18162  34.573  12.826   7.650
 4506POPC   C1B18163  34.338  12.992   8.550
 4506POPC   C2B18164  34.343  13.042   8.250
 4506POPC   C3B18165  34.379  13.057   7.950
 4506POPC   C4B18166  34.378  13.016   7.650
 4507POPC   NC318167  41.567  14.449   9.450
 4507POPC   PO418168  41.544  14.370   9.150
 4507POPC   GL118169  41.588  14.368   8.850
 4507POPC   GL218170  41.640  14.484   8.850
 4507POPC   C1A18171  41.585  14.356   8.550
 4507POPC   D2A18172  41.517  14.410   8.250
 4507POPC   C3A18173  41.574  14.451   7.950
 4507POPC   C4A18174  41.577  14.412   7.650
 4507POPC   C1B18175  41.764  14.494   8.550
 4507POPC   C2B18176  41.822  14.458   8.250
 4507POPC   C3B18177  41.826  14.485   7.950
 4507POPC   C4B18178  41.828  14.513   7.650
 4508POPC   NC318179  13.654  36.169   9.450
 4508POPC   PO418180  13.665  36.154   9.150
 4508POPC   GL118181  13.658  36.166   8.850
 4508POPC   GL218182  13.540  35.969   8.850
 4508POPC   C1A18183  13.659  36.105   8.550
 4508POPC   D2A18184  13.671  36.120   8.250
 4508POPC   C3A18185  13.583  36.115   7.950
 4508POPC   C4A18186  13.583  36.085   7.650
 4508POPC   C1B18187  13.485  35.851   8.550
 4508POPC   C2B18188  13.509  35.872   8.250
 4508POPC   C3B18189  13.544  35.866   7.950
 4508POPC   C4B18190  13.511  35.862   7.650
 4509POPC   NC318191  29.927   6.679   9.450
 4509POPC   PO418192  29.948   6.602   9.150
 4509POPC   GL118193  29.943   6.604   8.850
 4509POPC   GL218194  30.030   6.556   8.850
 4509POPC   C1A18195  29.966   6.642   8.550
 4509POPC   D2A18196  29.892   6.688   8.250
 4509POPC   C3A18197  29.886   6.683   7.950
 4509POPC   C4A18198  29.956   6.664   7.650
 4509POPC   C1B18199  30.140   6.551   8.550
 4509POPC   C2B18200  30.167   6.542   8.250
 4509POPC   C3B18201  30.134   6.549   7.950
 4509POPC   C4B18202  30.165   6.554   7.650
 4510POPC   NC318203  20.578  22.187   9.450
 4510POPC   PO418204  20.598  22.139   9.150
 4510POPC   GL118205  20.584  22.137   8.850
 4510POPC   GL218206  20.570  22.046   8.850
 4510POPC   C1A18207  20.660  22.168   8.550
 4510POPC   D2A18208  20.629  22.185   8.250
 4510POPC   C3A18209  20.649  22.177   7.950
 4510POPC   C4A18210  20.608  22.142   7.650
 4510POPC   C1B18211  20.477  21.944   8.550
 4510POPC   C2B18212  20.452  21.971   8.250
 4510POPC   C3B18213  20.486  21.986   7.950
 4510POPC   C4B18214  20.474  21.936   7.650
 4511POPC   NC318215   5.104  33.769   9.450
 4511POPC   PO418216   5.064  33.797   9.150
 4511POPC   GL118217   5.050  33.813   8.850
 4511POPC   GL218218   5.203  33.670   8.850
 4511POPC   C1A18219   5.046  33.754   8.550
 4511POPC   D2A18220   5.080  33.837   8.250
 4511POPC   C3A18221   5.097  33.838   7.950
 4511POPC   C4A18222   5.051  33.820   7.650
 4511POPC   C1B18223   5.289  33.636   8.550
 4511POPC   C2B18224   5.206  33.648   8.250
 4511POPC   C3B18225   5.240  33.590   7.950
 4511POPC   C4B18226   5.287  33.583   7.650
 4512POPC   NC318227  34.592  16.691   9.450
 4512POPC   PO418228  34.569  16.775   9.150
 4512POPC   GL118229  34.570  16.767   8.850
 4512POPC   GL218230  34.616  16.868   8.850
 4512POPC   C1A18231  34.584  16.692   8.550
 4512POPC   D2A18232  34.529  16.730   8.250
 4512POPC   C3A18233  34.584  16.717   7.950
 4512POPC   C4A18234  34.533  16.734   7.650
 4512POPC   C1B18235  34.674  16.894   8.550
 4512POPC   C2B18236  34.761  16.915   8.250
 4512POPC   C3B18237  34.713  16.976   7.950
 4512POPC   C4B18238  34.678  16.920   7.650
 4513POPC   NC318239  42.310   0.465   9.450
 4513POPC   PO418240  42.326   0.390   9.150
 4513POPC   GL118241  42.310   0.464   8.850
 4513POPC   GL218242  42.461   0.496   8.850
 4513POPC   C1A18243  42.331   0.416   8.550
 4513POPC   D2A18244  42.324   0.452   8.250
 4513POPC   C3A18245  42.304   0.479   7.950
 4513POPC   C4A18246  42.298   0.440   7.650
 4513POPC   C1B18247  42.565   0.602   8.550
 4513POPC   C2B18248  42.512   0.588   8.250
 4513POPC   C3B18249  42.556   0.601   7.950
 4513POPC   C4B18250  42.516   0.566   7.650
 4514POPC   NC318251   5.893  41.516   9.450
 4514POPC   PO418252   5.910  41.564   9.150
 4514POPC   GL118253   5.881  41.590   8.850
 4514POPC   GL218254   5.785  41.658   8.850
 4514POPC   C1A18255   5.880  41.593   8.550
 4514POPC   D2A18256   5.902  41.599   8.250
 4514POPC   C3A18257   5.865  41.591   7.950
 4514POPC   C4A18258   5.837  41.570   7.650
 4514POPC   C1B18259   5.736  41.809   8.550
 4514POPC   C2B18260   5.751  41.797   8.250
 4514POPC   C3B18261   5.752  41.796   7.950
 4514POPC   C4B18262   5.781  41.771   7.650
 4515POPC   NC318263  20.606  11.257   9.450
 4515POPC   PO418264  20.572  11.345   9.150
 4515POPC   GL118265  20.572  11.332   8.850
 4515POPC   GL218266  20.554  11.245   8.850
 4515POPC   C1A18267  20.649  11.332   8.550
 4515POPC   D2A18268  20.599  11.338   8.250
 4515POPC   C3A18269  20.620  11.288   7.950
 4515POPC   C4A18270  20.564  11.254   7.650
 4515POPC   C1B18271  20.479  11.110   8.550
 4515POPC   C2B18272  20.495  11.077   8.250
 4515POPC   C3B18273  20.498  11.109   7.950
 4515POPC   C4B18274  20.447  11.084   7.650
 4516POPC   NC318275  29.899   2.766   9.450
 4516POPC   PO418276  29.926   2.717   9.150
 4516POPC   GL118277  29.898   2.809   8.850
 4516POPC   GL218278  29.953   2.681   8.850
 4516POPC   C1A18279  29.888   2.771   8.550
 4516POPC   D2A18280  29.916   2.770   8.250
 4516POPC   C3A18281  29.965   2.796   7.950
 4516POPC   C4A18282  29.950   2.815   7.650
 4516POPC   C1B18283  29.931   2.562   8.550
 4516POPC   C2B18284  29.980   2.511   8.250
 4516POPC   C3B18285  29.938   2.537   7.950
 4516POPC   C4B18286  29.980   2.532   7.650
 4517POPC   NC318287  11.265  16.776   9.450
 4517POPC   PO418288  11.348  16.728   9.150
 4517POPC   GL118289  11.257  16.718   8.850
 4517POPC   GL218290  11.302  16.649   8.850
 4517POPC   C1A18291  11.303  16.734   8.550
 4517POPC   D2A18292  11.328  16.766   8.250
 4517POPC   C3A18293  11.312  16.700   7.950
 4517POPC   C4A18294  11.319  16.714   7.650
 4517POPC   C1B18295  11.263  16.492   8.550
 4517POPC   C2B18296  11.307  16.505   8.250
 4517POPC   C3B18297  11.254  16.504   7.950
 4517POPC   C4B18298  11.300  16.477   7.650
 4518POPC   NC318299  12.884   7.381   9.450
 4518POPC   PO418300  12.892   7.464   9.150
 4518POPC   GL118301  12.809   7.464   8.850
 4518POPC   GL218302  12.737   7.465   8.850
 4518POPC   C1A18303  12.858   7.465   8.550
 4518POPC   D2A18304  12.845   7.417   8.250
 4518POPC   C3A18305  12.890   7.377   7.950
 4518POPC   C4A18306  12.813   7.457   7.650
 4518POPC   C1B18307  12.651   7.493   8.550
 4518POPC   C2B18308  12.605   7.499   8.250
 4518POPC   C3B18309  12.575   7.558   7.950
 4518POPC   C4B18310  12.671   7.503   7.650
 4519POPC   NC318311  43.870  12.864   9.450
 4519POPC   PO418312  43.929  12.837   9.150
 4519POPC   GL118313  43.927  12.851   8.850
 4519POPC   GL218314  43.835  12.990   8.850
 4519POPC   C1A18315  43.920  12.843   8.550
 4519POPC   D2A18316  43.935  12.811   8.250
 4519POPC   C3A18317  43.907  12.808   7.950
 4519POPC   C4A18318  43.913  12.814   7.650
 4519POPC   C1B18319  43.880  13.122   8.550
 4519POPC   C2B18320  43.846  13.066   8.250
 4519POPC   C3B18321  43.808  13.109   7.950
 4519POPC   C4B18322  43.862  13.069   7.650
 4520POPC   NC318323  43.911  15.972   9.450
 4520POPC   PO418324  43.934  15.936   9.150
 4520POPC   GL118325  43.864  15.974   8.850
 4520POPC   GL218326  43.794  15.848   8.850
 4520POPC   C1A18327  43.892  15.943   8.550
 4520POPC   D2A18328  43.917  15.946   8.250
 4520POPC   C3A18329  43.849  15.920   7.950
 4520POPC   C4A18330  43.864  15.978   7.650
 4520POPC   C1B18331  43.699  15.754   8.550
 4520POPC   C2B18332  43.718  15.732   8.250
 4520POPC   C3B18333  43.708  15.789   7.950
 4520POPC   C4B18334  43.763  15.749   7.650
 4521POPC   NC318335  34.609   8.960   9.450
 4521POPC   PO418336  34.620   9.005   9.150
 4521POPC   GL118337  34.613   8.926   8.850
 4521POPC   GL218338  34.558   9.071   8.850
 4521POPC   C1A18339  34.623   9.017   8.550
 4521POPC   D2A18340  34.557   8.950   8.250
 4521POPC   C3A18341  34.546   8.960   7.950
 4521POPC   C4A18342  34.586   9.014   7.650
 4521POPC   C1B18343  34.440   9.215   8.550
 4521POPC   C2B18344  34.440   9.178   8.250
 4521POPC   C3B18345  34.443   9.247   7.950
 4521POPC   C4B18346  34.456   9.192   7.650
 4522POPC   NC318347  31.473  16.708   9.450
 4522POPC   PO418348  31.488  16.778   9.150
 4522POPC   GL118349  31.459  16.745   8.850
 4522POPC   GL218350  31.551  16.708   8.850
 4522POPC   C1A18351  31.431  16.746   8.550
 4522POPC   D2A18352  31.479  16.748   8.250
 4522POPC   C3A18353  31.437  16.727   7.950
 4522POPC   C4A18354  31.451  16.693   7.650
 4522POPC   C1B18355  31.746  16.758   8.550
 4522POPC   C2B18356  31.766  16.779   8.250
 4522POPC   C3B18357  31.745  16.723   7.950
 4522POPC   C4B18358  31.746  16.743   7.650
 4523POPC   NC318359  33.788  18.275   9.450
 4523POPC   PO418360  33.824  18.287   9.150
 4523POPC   GL118361  33.838  18.304   8.850
 4523POPC   GL218362  33.713  18.357   8.850
 4523POPC   C1A18363  33.753  18.317   8.550
 4523POPC   D2A18364  33.785  18.246   8.250
 4523POPC   C3A18365  33.846  18.262   7.950
 4523POPC   C4A18366  33.797  18.293   7.650
 4523POPC   C1B18367  33.590  18.357   8.550
 4523POPC   C2B18368  33.516  18.309   8.250
 4523POPC   C3B18369  33.527  18.382   7.950
 4523POPC   C4B18370  33.517  18.332   7.650
 4524POPC   NC318371  19.050  25.272   9.450
 4524POPC   PO418372  19.035  25.238   9.150
 4524POPC   GL118373  19.080  25.251   8.850
 4524POPC   GL218374  19.100  25.097   8.850
 4524POPC   C1A18375  19.034  25.283   8.550
 4524POPC   D2A18376  19.021  25.221   8.250
 4524POPC   C3A18377  19.064  25.281   7.950
 4524POPC   C4A18378  19.022  25.282   7.650
 4524POPC   C1B18379  19.121  25.039   8.550
 4524POPC   C2B18380  19.159  24.997   8.250
 4524POPC   C3B18381  19.164  25.055   7.950
 4524POPC   C4B18382  19.098  25.001   7.650
 4525POPC   NC318383  43.109   5.135   9.450
 4525POPC   PO418384  43.160   5.087   9.150
 4525POPC   GL118385  43.155   5.064   8.850
 4525POPC   GL218386  43.239   5.180   8.850
 4525POPC   C1A18387  43.092   5.108   8.550
 4525POPC   D2A18388  43.079   5.142   8.250
 4525POPC   C3A18389  43.109   5.092   7.950
 4525POPC   C4A18390  43.075   5.081   7.650
 4525POPC   C1B18391  43.331   5.179   8.550
 4525POPC   C2B18392  43.295   5.221   8.250
 4525POPC   C3B18393  43.305   5.239   7.950
 4525POPC   C4B18394  43.324   5.241   7.650
 4526POPC   NC318395  19.070  41.532   9.450
 4526POPC   PO418396  19.009  41.550   9.150
 4526POPC   GL118397  19.036  41.538   8.850
 4526POPC   GL218398  18.933  41.674   8.850
 4526POPC   C1A18399  19.010  41.537   8.550
 4526POPC   D2A18400  19.074  41.565   8.250
 4526POPC   C3A18401  19.009  41.577   7.950
 4526POPC   C4A18402  19.045  41.564   7.650
 4526POPC   C1B18403  18.834  41.701   8.550
 4526POPC   C2B18404  18.842  41.678   8.250
 4526POPC   C3B18405  18.869  41.701   7.950
 4526POPC   C4B18406  18.802  41.683   7.650
 4527POPC   NC318407  15.225  12.093   9.450
 4527POPC   PO418408  15.170  12.058   9.150
 4527POPC   GL118409  15.197  12.063   8.850
 4527POPC   GL218410  15.161  12.167   8.850
 4527POPC   C1A18411  15.132  12.060   8.550
 4527POPC   D2A18412  15.226  12.030   8.250
 4527POPC   C3A18413  15.173  12.077   7.950
 4527POPC   C4A18414  15.148  12.027   7.650
 4527POPC   C1B18415  15.200  12.335   8.550
 4527POPC   C2B18416  15.250  12.287   8.250
 4527POPC   C3B18417  15.200  12.275   7.950
 4527POPC   C4B18418  15.250  12.340   7.650
 4528POPC   NC318419  43.859  11.295   9.450
 4528POPC   PO418420  43.864  11.281   9.150
 4528POPC   GL118421  43.865  11.348   8.850
 4528POPC   GL218422  43.820  11.449   8.850
 4528POPC   C1A18423  43.841  11.291   8.550
 4528POPC   D2A18424  43.850  11.250   8.250
 4528POPC   C3A18425  43.858  11.335   7.950
 4528POPC   C4A18426  43.926  11.294   7.650
 4528POPC   C1B18427  43.767  11.506   8.550
 4528POPC   C2B18428  43.805  11.543   8.250
 4528POPC   C3B18429  43.744  11.507   7.950
 4528POPC   C4B18430  43.764  11.480   7.650
 4529POPC   NC318431   4.271  27.609   9.450
 4529POPC   PO418432   4.331  27.610   9.150
 4529POPC   GL118433   4.330  27.574   8.850
 4529POPC   GL218434   4.164  27.560   8.850
 4529POPC   C1A18435   4.351  27.565   8.550
 4529POPC   D2A18436   4.305  27.627   8.250
 4529POPC   C3A18437   4.289  27.599   7.950
 4529POPC   C4A18438   4.327  27.625   7.650
 4529POPC   C1B18439   4.114  27.457   8.550
 4529POPC   C2B18440   4.104  27.515   8.250
 4529POPC   C3B18441   4.110  27.490   7.950
 4529POPC   C4B18442   4.127  27.513   7.650
 4530POPC   NC318443  22.127  13.608   9.450
 4530POPC   PO418444  22.205  13.593   9.150
 4530POPC   GL118445  22.128  13.658   8.850
 4530POPC   GL218446  22.156  13.554   8.850
 4530POPC   C1A18447  22.137  13.667   8.550
 4530POPC   D2A18448  22.193  13.625   8.250
 4530POPC   C3A18449  22.203  13.632   7.950
 4530POPC   C4A18450  22.132  13.650   7.650
 4530POPC   C1B18451  22.086  13.383   8.550
 4530POPC   C2B18452  22.073  13.425   8.250
 4530POPC   C3B18453  22.103  13.429   7.950
 4530POPC   C4B18454  22.047  13.361   7.650
 4531POPC   NC318455  11.326  15.937   9.450
 4531POPC   PO418456  11.348  15.958   9.150
 4531POPC   GL118457  11.300  15.944   8.850
 4531POPC   GL218458  11.460  15.941   8.850
 4531POPC   C1A18459  11.283  15.952   8.550
 4531POPC   D2A18460  11.316  15.949   8.250
 4531POPC   C3A18461  11.274  15.946   7.950
 4531POPC   C4A18462  11.319  15.987   7.650
 4531POPC   C1B18463  11.558  15.961   8.550
 4531POPC   C2B18464  11.574  15.943   8.250
 4531POPC   C3B18465  11.589  15.929   7.950
 4531POPC   C4B18466  11.570  15.898   7.650
 4532POPC   NC318467  37.634  21.378   9.450
 4532POPC   PO418468  37.662  21.348   9.150
 4532POPC   GL118469  37.663  21.430   8.850
 4532POPC   GL218470  37.715  21.252   8.850
 4532POPC   C1A18471  37.651  21.366   8.550
 4532POPC   D2A18472  37.676  21.408   8.250
 4532POPC   C3A18473  37.697  21.407   7.950
 4532POPC   C4A18474  37.683  21.352   7.650
 4532POPC   C1B18475  37.733  21.163   8.550
 4532POPC   C2B18476  37.808  21.125   8.250
 4532POPC   C3B18477  37.756  21.120   7.950
 4532POPC   C4B18478  37.736  21.189   7.650
 4533POPC   NC318479  33.843  19.796   9.450
 4533POPC   PO418480  33.754  19.823   9.150
 4533POPC   GL118481  33.812  19.836   8.850
 4533POPC   GL218482  33.859  19.789   8.850
 4533POPC   C1A18483  33.752  19.804   8.550
 4533POPC   D2A18484  33.837  19.821   8.250
 4533POPC   C3A18485  33.754  19.826   7.950
 4533POPC   C4A18486  33.833  19.870   7.650
 4533POPC   C1B18487  33.988  19.697   8.550
 4533POPC   C2B18488  33.985  19.741   8.250
 4533POPC   C3B18489  33.978  19.676   7.950
 4533POPC   C4B18490  34.025  19.692   7.650
 4534POPC   NC318491   0.457   8.999   9.450
 4534POPC   PO418492   0.450   8.939   9.150
 4534POPC   GL118493   0.424   8.943   8.850
 4534POPC   GL218494   0.395   9.087   8.850
 4534POPC   C1A18495   0.416   8.942   8.550
 4534POPC   D2A18496   0.435   8.929   8.250
 4534POPC   C3A18497   0.428   8.962   7.950
 4534POPC   C4A18498   0.431   8.935   7.650
 4534POPC   C1B18499   0.386   9.242   8.550
 4534POPC   C2B18500   0.462   9.247   8.250
 4534POPC   C3B18501   0.417   9.233   7.950
 4534POPC   C4B18502   0.416   9.267   7.650
 4535POPC   NC318503  12.806  30.650   9.450
 4535POPC   PO418504  12.865  30.699   9.150
 4535POPC   GL118505  12.888  30.667   8.850
 4535POPC   GL218506  12.699  30.675   8.850
 4535POPC   C1A18507  12.832  30.696   8.550
 4535POPC   D2A18508  12.813  30.738   8.250
 4535POPC   C3A18509  12.845  30.734   7.950
 4535POPC   C4A18510  12.835  30.690   7.650
 4535POPC   C1B18511  12.615  30.580   8.550
 4535POPC   C2B18512  12.653  30.618   8.250
 4535POPC   C3B18513  12.598  30.581   7.950
 4535POPC   C4B18514  12.619  30.557   7.650
 4536POPC   NC318515  19.023  22.145   9.450
 4536POPC   PO418516  19.075  22.130   9.150
 4536POPC   GL118517  19.077  22.116   8.850
 4536POPC   GL218518  18.931  22.116   8.850
 4536POPC   C1A18519  19.013  22.115   8.550
 4536POPC   D2A18520  19.034  22.167   8.250
 4536POPC   C3A18521  19.050  22.115   7.950
 4536POPC   C4A18522  19.054  22.155   7.650
 4536POPC   C1B18523  18.877  22.060   8.550
 4536POPC   C2B18524  18.890  22.041   8.250
 4536POPC   C3B18525  18.889  21.991   7.950
 4536POPC   C4B18526  18.858  22.046   7.650
 4537POPC   NC318527   1.177  43.099   9.450
 4537POPC   PO418528   1.164  43.159   9.150
 4537POPC   GL118529   1.170  43.138   8.850
 4537POPC   GL218530   1.115  43.030   8.850
 4537POPC   C1A18531   1.173  43.099   8.550
 4537POPC   D2A18532   1.257  43.121   8.250
 4537POPC   C3A18533   1.184  43.068   7.950
 4537POPC   C4A18534   1.226  43.132   7.650
 4537POPC   C1B18535   1.147  42.909   8.550
 4537POPC   C2B18536   1.108  42.894   8.250
 4537POPC   C3B18537   1.129  42.862   7.950
 4537POPC   C4B18538   1.096  42.884   7.650
 4538POPC   NC318539  43.100  26.078   9.450
 4538POPC   PO418540  43.104  26.014   9.150
 4538POPC   GL118541  43.141  26.077   8.850
 4538POPC   GL218542  43.091  26.158   8.850
 4538POPC   C1A18543  43.090  26.030   8.550
 4538POPC   D2A18544  43.111  26.021   8.250
 4538POPC   C3A18545  43.097  26.082   7.950
 4538POPC   C4A18546  43.097  26.062   7.650
 4538POPC   C1B18547  43.188  26.316   8.550
 4538POPC   C2B18548  43.126  26.278   8.250
 4538POPC   C3B18549  43.168  26.286   7.950
 4538POPC   C4B18550  43.158  26.242   7.650
 4539POPC   NC318551   3.557  42.304   9.450
 4539POPC   PO418552   3.532  42.340   9.150
 4539POPC   GL118553   3.554  42.291   8.850
 4539POPC   GL218554   3.488  42.231   8.850
 4539POPC   C1A18555   3.520  42.330   8.550
 4539POPC   D2A18556   3.519  42.383   8.250
 4539POPC   C3A18557   3.548  42.337   7.950
 4539POPC   C4A18558   3.517  42.341   7.650
 4539POPC   C1B18559   3.469  42.047   8.550
 4539POPC   C2B18560   3.487  42.142   8.250
 4539POPC   C3B18561   3.438  42.141   7.950
 4539POPC   C4B18562   3.421  42.054   7.650
 4540POPC   NC318563  23.678  25.284   9.450
 4540POPC   PO418564  23.756  25.224   9.150
 4540POPC   GL118565  23.705  25.292   8.850
 4540POPC   GL218566  23.772  25.213   8.850
 4540POPC   C1A18567  23.733  25.251   8.550
 4540POPC   D2A18568  23.694  25.309   8.250
 4540POPC   C3A18569  23.763  25.304   7.950
 4540POPC   C4A18570  23.746  25.218   7.650
 4540POPC   C1B18571  23.940  25.077   8.550
 4540POPC   C2B18572  23.939  25.040   8.250
 4540POPC   C3B18573  23.847  25.110   7.950
 4540POPC   C4B18574  23.930  25.123   7.650
 4541POPC   NC318575   0.437  29.130   9.450
 4541POPC   PO418576   0.485  29.159   9.150
 4541POPC   GL118577   0.390  29.192   8.850
 4541POPC   GL218578   0.589  29.138   8.850
 4541POPC   C1A18579   0.393  29.172   8.550
 4541POPC   D2A18580   0.419  29.173   8.250
 4541POPC   C3A18581   0.390  29.175   7.950
 4541POPC   C4A18582   0.398  29.173   7.650
 4541POPC   C1B18583   0.680  29.006   8.550
 4541POPC   C2B18584   0.624  29.009   8.250
 4541POPC   C3B18585   0.708  29.061   7.950
 4541POPC   C4B18586   0.642  29.039   7.650
 4542POPC   NC318587  23.706  44.623   9.450
 4542POPC   PO418588  23.695  44.700   9.150
 4542POPC   GL118589  23.706  44.639   8.850
 4542POPC   GL218590  23.864  44.749   8.850
 4542POPC   C1A18591  23.680  44.670   8.550
 4542POPC   D2A18592  23.725  44.711   8.250
 4542POPC   C3A18593  23.747  44.613   7.950
 4542POPC   C4A18594  23.697  44.686   7.650
 4542POPC   C1B18595  23.906  44.831   8.550
 4542POPC   C2B18596  23.908  44.766   8.250
 4542POPC   C3B18597  23.947  44.782   7.950
 4542POPC   C4B18598  23.916  44.764   7.650
 4543POPC   NC318599   4.356  35.395   9.450
 4543POPC   PO418600   4.272  35.319   9.150
 4543POPC   GL118601   4.344  35.396   8.850
 4543POPC   GL218602   4.430  35.358   8.850
 4543POPC   C1A18603   4.304  35.348   8.550
 4543POPC   D2A18604   4.300  35.356   8.250
 4543POPC   C3A18605   4.340  35.328   7.950
 4543POPC   C4A18606   4.318  35.354   7.650
 4543POPC   C1B18607   4.519  35.394   8.550
 4543POPC   C2B18608   4.595  35.379   8.250
 4543POPC   C3B18609   4.528  35.347   7.950
 4543POPC   C4B18610   4.521  35.360   7.650
 4544POPC   NC318611  37.675  40.046   9.450
 4544POPC   PO418612  37.703  40.037   9.150
 4544POPC   GL118613  37.690  40.025   8.850
 4544POPC   GL218614  37.585  40.168   8.850
 4544POPC   C1A18615  37.639  39.968   8.550
 4544POPC   D2A18616  37.713  39.970   8.250
 4544POPC   C3A18617  37.641  40.043   7.950
 4544POPC   C4A18618  37.657  40.012   7.650
 4544POPC   C1B18619  37.560  40.269   8.550
 4544POPC   C2B18620  37.575  40.239   8.250
 4544POPC   C3B18621  37.589  40.252   7.950
 4544POPC   C4B18622  37.581  40.229   7.650
 4545POPC   NC318623  30.665  24.519   9.450
 4545POPC   PO418624  30.657  24.504   9.150
 4545POPC   GL118625  30.737  24.479   8.850
 4545POPC   GL218626  30.529  24.532   8.850
 4545POPC   C1A18627  30.676  24.503   8.550
 4545POPC   D2A18628  30.710  24.537   8.250
 4545POPC   C3A18629  30.739  24.463   7.950
 4545POPC   C4A18630  30.742  24.446   7.650
 4545POPC   C1B18631  30.422  24.493   8.550
 4545POPC   C2B18632  30.456  24.483   8.250
 4545POPC   C3B18633  30.419  24.441   7.950
 4545POPC   C4B18634  30.424  24.486   7.650
 4546POPC   NC318635  26.793   2.022   9.450
 4546POPC   PO418636  26.801   1.960   9.150
 4546POPC   GL118637  26.862   1.985   8.850
 4546POPC   GL218638  26.799   1.858   8.850
 4546POPC   C1A18639  26.815   1.964   8.550
 4546POPC   D2A18640  26.851   2.001   8.250
 4546POPC   C3A18641  26.855   1.988   7.950
 4546POPC   C4A18642  26.810   2.030   7.650
 4546POPC   C1B18643  26.799   1.773   8.550
 4546POPC   C2B18644  26.833   1.773   8.250
 4546POPC   C3B18645  26.860   1.730   7.950
 4546POPC   C4B18646  26.862   1.762   7.650
 4547POPC   NC318647  26.845  37.668   9.450
 4547POPC   PO418648  26.807  37.630   9.150
 4547POPC   GL118649  26.831  37.674   8.850
 4547POPC   GL218650  26.923  37.606   8.850
 4547POPC   C1A18651  26.776  37.695   8.550
 4547POPC   D2A18652  26.794  37.681   8.250
 4547POPC   C3A18653  26.795  37.694   7.950
 4547POPC   C4A18654  26.788  37.709   7.650
 4547POPC   C1B18655  27.012  37.607   8.550
 4547POPC   C2B18656  27.062  37.634   8.250
 4547POPC   C3B18657  27.040  37.638   7.950
 4547POPC   C4B18658  27.014  37.556   7.650
 4548POPC   NC318659   1.176   3.584   9.450
 4548POPC   PO418660   1.209   3.516   9.150
 4548POPC   GL118661   1.216   3.576   8.850
 4548POPC   GL218662   1.154   3.422   8.850
 4548POPC   C1A18663   1.226   3.506   8.550
 4548POPC   D2A18664   1.246   3.552   8.250
 4548POPC   C3A18665   1.255   3.553   7.950
 4548POPC   C4A18666   1.262   3.534   7.650
 4548POPC   C1B18667   1.036   3.347   8.550
 4548POPC   C2B18668   1.071   3.317   8.250
 4548POPC   C3B18669   1.090   3.311   7.950
 4548POPC   C4B18670   1.083   3.362   7.650
 4549POPC   NC318671  22.984  12.817   9.450
 4549POPC   PO418672  22.889  12.878   9.150
 4549POPC   GL118673  22.900  12.862   8.850
 4549POPC   GL218674  22.918  12.766   8.850
 4549POPC   C1A18675  22.920  12.854   8.550
 4549POPC   D2A18676  22.915  12.874   8.250
 4549POPC   C3A18677  22.915  12.825   7.950
 4549POPC   C4A18678  22.933  12.819   7.650
 4549POPC   C1B18679  22.852  12.640   8.550
 4549POPC   C2B18680  22.817  12.581   8.250
 4549POPC   C3B18681  22.852  12.628   7.950
 4549POPC   C4B18682  22.823  12.637   7.650
 4550POPC   NC318683   5.089  13.670   9.450
 4550POPC   PO418684   5.139  13.624   9.150
 4550POPC   GL118685   5.134  13.657   8.850
 4550POPC   GL218686   5.044  13.743   8.850
 4550POPC   C1A18687   5.088  13.595   8.550
 4550POPC   D2A18688   5.079  13.582   8.250
 4550POPC   C3A18689   5.060  13.676   7.950
 4550POPC   C4A18690   5.107  13.588   7.650
 4550POPC   C1B18691   5.076  13.852   8.550
 4550POPC   C2B18692   4.984  13.843   8.250
 4550POPC   C3B18693   5.078  13.880   7.950
 4550POPC   C4B18694   5.002  13.897   7.650
 4551POPC   NC318695   5.107   8.229   9.450
 4551POPC   PO418696   5.047   8.173   9.150
 4551POPC   GL118697   5.115   8.206   8.850
 4551POPC   GL218698   5.005   8.141   8.850
 4551POPC   C1A18699   5.117   8.197   8.550
 4551POPC   D2A18700   5.057   8.147   8.250
 4551POPC   C3A18701   5.095   8.234   7.950
 4551POPC   C4A18702   5.105   8.153   7.650
 4551POPC   C1B18703   4.935   8.072   8.550
 4551POPC   C2B18704   4.933   8.042   8.250
 4551POPC   C3B18705   4.952   8.001   7.950
 4551POPC   C4B18706   4.897   8.056   7.650
 4552POPC   NC318707  35.315  43.933   9.450
 4552POPC   PO418708  35.399  43.866   9.150
 4552POPC   GL118709  35.359  43.925   8.850
 4552POPC   GL218710  35.415  43.866   8.850
 4552POPC   C1A18711  35.365  43.930   8.550
 4552POPC   D2A18712  35.313  43.911   8.250
 4552POPC   C3A18713  35.360  43.907   7.950
 4552POPC   C4A18714  35.351  43.899   7.650
 4552POPC   C1B18715  35.534  43.800   8.550
 4552POPC   C2B18716  35.609  43.744   8.250
 4552POPC   C3B18717  35.591  43.772   7.950
 4552POPC   C4B18718  35.593  43.741   7.650
 4553POPC   NC318719  29.105  32.995   9.450
 4553POPC   PO418720  29.118  33.062   9.150
 4553POPC   GL118721  29.149  33.051   8.850
 4553POPC   GL218722  29.309  33.095   8.850
 4553POPC   C1A18723  29.139  32.993   8.550
 4553POPC   D2A18724  29.129  32.974   8.250
 4553POPC   C3A18725  29.128  33.055   7.950
 4553POPC   C4A18726  29.127  33.011   7.650
 4553POPC   C1B18727  29.357  33.070   8.550
 4553POPC   C2B18728  29.366  33.129   8.250
 4553POPC   C3B18729  29.354  33.101   7.950
 4553POPC   C4B18730  29.360  33.128   7.650
 4554POPC   NC318731  29.185  22.896   9.450
 4554POPC   PO418732  29.171  22.981   9.150
 4554POPC   GL118733  29.113  22.975   8.850
 4554POPC   GL218734  29.081  22.809   8.850
 4554POPC   C1A18735  29.106  22.902   8.550
 4554POPC   D2A18736  29.160  22.890   8.250
 4554POPC   C3A18737  29.144  22.920   7.950
 4554POPC   C4A18738  29.103  22.892   7.650
 4554POPC   C1B18739  28.925  22.798   8.550
 4554POPC   C2B18740  28.970  22.825   8.250
 4554POPC   C3B18741  28.989  22.809   7.950
 4554POPC   C4B18742  28.985  22.768   7.650
 4555POPC   NC318743  33.841   0.447   9.450
 4555POPC   PO418744  33.828   0.468   9.150
 4555POPC   GL118745  33.802   0.468   8.850
 4555POPC   GL218746  33.865   0.384   8.850
 4555POPC   C1A18747  33.790   0.460   8.550
 4555POPC   D2A18748  33.779   0.412   8.250
 4555POPC   C3A18749  33.772   0.409   7.950
 4555POPC   C4A18750  33.759   0.421   7.650
 4555POPC   C1B18751  34.051   0.283   8.550
 4555POPC   C2B18752  33.994   0.355   8.250
 4555POPC   C3B18753  34.007   0.302   7.950
 4555POPC   C4B18754  33.980   0.296   7.650
 4556POPC   NC318755  43.067  11.323   9.450
 4556POPC   PO418756  43.104  11.326   9.150
 4556POPC   GL118757  43.073  11.279   8.850
 4556POPC   GL218758  43.014  11.371   8.850
 4556POPC   C1A18759  43.156  11.278   8.550
 4556POPC   D2A18760  43.154  11.253   8.250
 4556POPC   C3A18761  43.110  11.313   7.950
 4556POPC   C4A18762  43.120  11.285   7.650
 4556POPC   C1B18763  42.897  11.512   8.550
 4556POPC   C2B18764  42.884  11.497   8.250
 4556POPC   C3B18765  42.907  11.484   7.950
 4556POPC   C4B18766  42.959  11.456   7.650
 4557POPC   NC318767  22.948  25.302   9.450
 4557POPC   PO418768  22.974  25.276   9.150
 4557POPC   GL118769  22.977  25.258   8.850
 4557POPC   GL218770  22.856  25.214   8.850
 4557POPC   C1A18771  22.957  25.300   8.550
 4557POPC   D2A18772  22.961  25.216   8.250
 4557POPC   C3A18773  22.889  25.264   7.950
 4557POPC   C4A18774  22.888  25.311   7.650
 4557POPC   C1B18775  22.743  25.220   8.550
 4557POPC   C2B18776  22.707  25.209   8.250
 4557POPC   C3B18777  22.678  25.192   7.950
 4557POPC   C4B18778  22.673  25.204   7.650
 4558POPC   NC318779  15.942  40.776   9.450
 4558POPC   PO418780  15.951  40.827   9.150
 4558POPC   GL118781  15.946  40.788   8.850
 4558POPC   GL218782  16.031  40.726   8.850
 4558POPC   C1A18783  15.912  40.816   8.550
 4558POPC   D2A18784  16.001  40.792   8.250
 4558POPC   C3A18785  15.992  40.825   7.950
 4558POPC   C4A18786  15.945  40.807   7.650
 4558POPC   C1B18787  16.148  40.639   8.550
 4558POPC   C2B18788  16.183  40.616   8.250
 4558POPC   C3B18789  16.162  40.619   7.950
 4558POPC   C4B18790  16.127  40.668   7.650
 4559POPC   NC318791  11.340   7.412   9.450
 4559POPC   PO418792  11.269   7.414   9.150
 4559POPC   GL118793  11.348   7.391   8.850
 4559POPC   GL218794  11.433   7.438   8.850
 4559POPC   C1A18795  11.266   7.379   8.550
 4559POPC   D2A18796  11.319   7.381   8.250
 4559POPC   C3A18797  11.270   7.440   7.950
 4559POPC   C4A18798  11.321   7.468   7.650
 4559POPC   C1B18799  11.528   7.538   8.550
 4559POPC   C2B18800  11.489   7.559   8.250
 4559POPC   C3B18801  11.528   7.494   7.950
 4559POPC   C4B18802  11.584   7.534   7.650
 4560POPC   NC318803  14.416  34.587   9.450
 4560POPC   PO418804  14.446  34.579   9.150
 4560POPC   GL118805  14.367  34.608   8.850
 4560POPC   GL218806  14.481  34.550   8.850
 4560POPC   C1A18807  14.367  34.532   8.550
 4560POPC   D2A18808  14.377  34.618   8.250
 4560POPC   C3A18809  14.395  34.619   7.950
 4560POPC   C4A18810  14.410  34.536   7.650
 4560POPC   C1B18811  14.619  34.507   8.550
 4560POPC   C2B18812  14.651  34.553   8.250
 4560POPC   C3B18813  14.630  34.543   7.950
 4560POPC   C4B18814  14.625  34.525   7.650
 4561POPC   NC318815  42.345  33.036   9.450
 4561POPC   PO418816  42.348  33.015   9.150
 4561POPC   GL118817  42.303  33.035   8.850
 4561POPC   GL218818  42.209  32.970   8.850
 4561POPC   C1A18819  42.325  33.028   8.550
 4561POPC   D2A18820  42.348  33.041   8.250
 4561POPC   C3A18821  42.290  33.013   7.950
 4561POPC   C4A18822  42.299  32.983   7.650
 4561POPC   C1B18823  42.114  32.924   8.550
 4561POPC   C2B18824  42.083  32.898   8.250
 4561POPC   C3B18825  42.135  32.873   7.950
 4561POPC   C4B18826  42.129  32.942   7.650
 4562POPC   NC318827  18.270  30.649   9.450
 4562POPC   PO418828  18.307  30.738   9.150
 4562POPC   GL118829  18.285  30.711   8.850
 4562POPC   GL218830  18.357  30.828   8.850
 4562POPC   C1A18831  18.330  30.746   8.550
 4562POPC   D2A18832  18.269  30.654   8.250
 4562POPC   C3A18833  18.250  30.695   7.950
 4562POPC   C4A18834  18.236  30.664   7.650
 4562POPC   C1B18835  18.426  30.875   8.550
 4562POPC   C2B18836  18.477  30.864   8.250
 4562POPC   C3B18837  18.491  30.828   7.950
 4562POPC   C4B18838  18.448  30.910   7.650
 4563POPC   NC318839  19.096  23.673   9.450
 4563POPC   PO418840  19.019  23.741   9.150
 4563POPC   GL118841  19.079  23.717   8.850
 4563POPC   GL218842  19.155  23.778   8.850
 4563POPC   C1A18843  19.042  23.735   8.550
 4563POPC   D2A18844  19.077  23.761   8.250
 4563POPC   C3A18845  19.057  23.760   7.950
 4563POPC   C4A18846  19.055  23.717   7.650
 4563POPC   C1B18847  19.319  23.836   8.550
 4563POPC   C2B18848  19.270  23.758   8.250
 4563POPC   C3B18849  19.274  23.833   7.950
 4563POPC   C4B18850  19.313  23.799   7.650
 4564POPC   NC318851  17.554  15.216   9.450
 4564POPC   PO418852  17.556  15.199   9.150
 4564POPC   GL118853  17.552  15.195   8.850
 4564POPC   GL218854  17.350  15.142   8.850
 4564POPC   C1A18855  17.530  15.199   8.550
 4564POPC   D2A18856  17.505  15.207   8.250
 4564POPC   C3A18857  17.472  15.137   7.950
 4564POPC   C4A18858  17.556  15.205   7.650
 4564POPC   C1B18859  17.284  15.064   8.550
 4564POPC   C2B18860  17.226  15.129   8.250
 4564POPC   C3B18861  17.299  15.084   7.950
 4564POPC   C4B18862  17.236  15.069   7.650
 4565POPC   NC318863  44.667  39.205   9.450
 4565POPC   PO418864  44.684  39.182   9.150
 4565POPC   GL118865  44.628  39.251   8.850
 4565POPC   GL218866  44.544  39.189   8.850
 4565POPC   C1A18867  44.616  39.232   8.550
 4565POPC   D2A18868  44.628  39.280   8.250
 4565POPC   C3A18869  44.654  39.258   7.950
 4565POPC   C4A18870  44.654  39.212   7.650
 4565POPC   C1B18871  44.514  39.067   8.550
 4565POPC   C2B18872  44.470  39.099   8.250
 4565POPC   C3B18873  44.435  39.053   7.950
 4565POPC   C4B18874  44.523  39.018   7.650
 4566POPC   NC318875   4.362  26.052   9.450
 4566POPC   PO418876   4.346  26.079   9.150
 4566POPC   GL118877   4.344  26.016   8.850
 4566POPC   GL218878   4.381  26.149   8.850
 4566POPC   C1A18879   4.340  26.088   8.550
 4566POPC   D2A18880   4.312  26.037   8.250
 4566POPC   C3A18881   4.281  26.033   7.950
 4566POPC   C4A18882   4.365  26.079   7.650
 4566POPC   C1B18883   4.477  26.217   8.550
 4566POPC   C2B18884   4.546  26.190   8.250
 4566POPC   C3B18885   4.536  26.247   7.950
 4566POPC   C4B18886   4.523  26.250   7.650
 4567POPC   NC318887  43.909  24.527   9.450
 4567POPC   PO418888  43.864  24.486   9.150
 4567POPC   GL118889  43.852  24.507   8.850
 4567POPC   GL218890  43.925  24.409   8.850
 4567POPC   C1A18891  43.880  24.442   8.550
 4567POPC   D2A18892  43.891  24.452   8.250
 4567POPC   C3A18893  43.914  24.455   7.950
 4567POPC   C4A18894  43.845  24.489   7.650
 4567POPC   C1B18895  43.989  24.242   8.550
 4567POPC   C2B18896  44.045  24.272   8.250
 4567POPC   C3B18897  43.964  24.267   7.950
 4567POPC   C4B18898  43.979  24.251   7.650
 4568POPC   NC318899   4.281  37.659   9.450
 4568POPC   PO418900   4.351  37.663   9.150
 4568POPC   GL118901   4.270  37.710   8.850
 4568POPC   GL218902   4.412  37.599   8.850
 4568POPC   C1A18903   4.344  37.662   8.550
 4568POPC   D2A18904   4.365  37.705   8.250
 4568POPC   C3A18905   4.362  37.669   7.950
 4568POPC   C4A18906   4.295  37.728   7.650
 4568POPC   C1B18907   4.569  37.556   8.550
 4568POPC   C2B18908   4.538  37.512   8.250
 4568POPC   C3B18909   4.501  37.515   7.950
 4568POPC   C4B18910   4.509  37.555   7.650
 4569POPC   NC318911  22.974  29.923   9.450
 4569POPC   PO418912  22.949  29.874   9.150
 4569POPC   GL118913  22.895  29.970   8.850
 4569POPC   GL218914  22.986  29.804   8.850
 4569POPC   C1A18915  22.889  29.881   8.550
 4569POPC   D2A18916  22.916  29.884   8.250
 4569POPC   C3A18917  22.924  29.944   7.950
 4569POPC   C4A18918  22.968  29.965   7.650
 4569POPC   C1B18919  23.009  29.691   8.550
 4569POPC   C2B18920  23.014  29.707   8.250
 4569POPC   C3B18921  23.038  29.701   7.950
 4569POPC   C4B18922  23.050  29.707   7.650
 4570POPC   NC318923  39.962  21.386   9.450
 4570POPC   PO418924  40.036  21.435   9.150
 4570POPC   GL118925  40.030  21.361   8.850
 4570POPC   GL218926  40.109  21.309   8.850
 4570POPC   C1A18927  40.022  21.338   8.550
 4570POPC   D2A18928  39.984  21.427   8.250
 4570POPC   C3A18929  40.056  21.392   7.950
 4570POPC   C4A18930  39.966  21.378   7.650
 4570POPC   C1B18931  40.211  21.257   8.550
 4570POPC   C2B18932  40.245  21.247   8.250
 4570POPC   C3B18933  40.212  21.334   7.950
 4570POPC   C4B18934  40.278  21.267   7.650
 4571POPC   NC318935   5.049  30.720   9.450
 4571POPC   PO418936   5.054  30.692   9.150
 4571POPC   GL118937   5.136  30.681   8.850
 4571POPC   GL218938   5.167  30.844   8.850
 4571POPC   C1A18939   5.119  30.724   8.550
 4571POPC   D2A18940   5.111  30.683   8.250
 4571POPC   C3A18941   5.072  30.732   7.950
 4571POPC   C4A18942   5.100  30.693   7.650
 4571POPC   C1B18943   5.160  30.913   8.550
 4571POPC   C2B18944   5.116  30.912   8.250
 4571POPC   C3B18945   5.093  30.968   7.950
 4571POPC   C4B18946   5.170  30.951   7.650
 4572POPC   NC318947   5.860  33.762   9.450
 4572POPC   PO418948   5.842  33.836   9.150
 4572POPC   GL118949   5.846  33.755   8.850
 4572POPC   GL218950   5.971  33.868   8.850
 4572POPC   C1A18951   5.916  33.823   8.550
 4572POPC   D2A18952   5.846  33.758   8.250
 4572POPC   C3A18953   5.853  33.794   7.950
 4572POPC   C4A18954   5.846  33.784   7.650
 4572POPC   C1B18955   6.032  33.928   8.550
 4572POPC   C2B18956   6.011  33.932   8.250
 4572POPC   C3B18957   6.009  33.997   7.950
 4572POPC   C4B18958   6.043  33.954   7.650
 4573POPC   NC318959   5.115  12.038   9.450
 4573POPC   PO418960   5.104  12.081   9.150
 4573POPC   GL118961   5.098  12.067   8.850
 4573POPC   GL218962   4.957  12.097   8.850
 4573POPC   C1A18963   5.126  12.094   8.550
 4573POPC   D2A18964   5.131  12.101   8.250
 4573POPC   C3A18965   5.130  12.091   7.950
 4573POPC   C4A18966   5.061  12.029   7.650
 4573POPC   C1B18967   4.819  12.043   8.550
 4573POPC   C2B18968   4.850  12.070   8.250
 4573POPC   C3B18969   4.831  12.135   7.950
 4573POPC   C4B18970   4.820  12.111   7.650
 4574POPC   NC318971   5.073  15.215   9.450
 4574POPC   PO418972   5.061  15.171   9.150
 4574POPC   GL118973   5.133  15.228   8.850
 4574POPC   GL218974   5.159  15.282   8.850
 4574POPC   C1A18975   5.067  15.219   8.550
 4574POPC   D2A18976   5.121  15.223   8.250
 4574POPC   C3A18977   5.051  15.135   7.950
 4574POPC   C4A18978   5.114  15.132   7.650
 4574POPC   C1B18979   5.115  15.444   8.550
 4574POPC   C2B18980   5.183  15.386   8.250
 4574POPC   C3B18981   5.156  15.449   7.950
 4574POPC   C4B18982   5.208  15.411   7.650
 4575POPC   NC318983  30.721   8.201   9.450
 4575POPC   PO418984  30.678   8.150   9.150
 4575POPC   GL118985  30.676   8.221   8.850
 4575POPC   GL218986  30.805   8.107   8.850
 4575POPC   C1A18987  30.647   8.190   8.550
 4575POPC   D2A18988  30.712   8.149   8.250
 4575POPC   C3A18989  30.706   8.213   7.950
 4575POPC   C4A18990  30.715   8.218   7.650
 4575POPC   C1B18991  30.803   7.941   8.550
 4575POPC   C2B18992  30.857   7.979   8.250
 4575POPC   C3B18993  30.790   8.001   7.950
 4575POPC   C4B18994  30.797   7.998   7.650
 4576POPC   NC318995  18.253  36.950   9.450
 4576POPC   PO418996  18.317  36.890   9.150
 4576POPC   GL118997  18.240  36.881   8.850
 4576POPC   GL218998  18.180  36.912   8.850
 4576POPC   C1A18999  18.268  36.865   8.550
 4576POPC   D2A19000  18.283  36.914   8.250
 4576POPC   C3A19001  18.293  36.860   7.950
 4576POPC   C4A19002  18.243  36.924   7.650
 4576POPC   C1B19003  18.056  36.892   8.550
 4576POPC   C2B19004  18.045  36.930   8.250
 4576POPC   C3B19005  18.058  36.914   7.950
 4576POPC   C4B19006  18.019  36.929   7.650
 4577POPC   NC319007   1.260  29.181   9.450
 4577POPC   PO419008   1.189  29.175   9.150
 4577POPC   GL119009   1.184  29.095   8.850
 4577POPC   GL219010   1.312  29.019   8.850
 4577POPC   C1A19011   1.173  29.104   8.550
 4577POPC   D2A19012   1.218  29.185   8.250
 4577POPC   C3A19013   1.230  29.174   7.950
 4577POPC   C4A19014   1.229  29.135   7.650
 4577POPC   C1B19015   1.280  28.925   8.550
 4577POPC   C2B19016   1.286  28.878   8.250
 4577POPC   C3B19017   1.349  28.899   7.950
 4577POPC   C4B19018   1.293  28.876   7.650
 4578POPC   NC319019   1.252  15.196   9.450
 4578POPC   PO419020   1.195  15.177   9.150
 4578POPC   GL119021   1.252  15.140   8.850
 4578POPC   GL219022   1.173  15.098   8.850
 4578POPC   C1A19023   1.185  15.147   8.550
 4578POPC   D2A19024   1.257  15.214   8.250
 4578POPC   C3A19025   1.169  15.220   7.950
 4578POPC   C4A19026   1.167  15.207   7.650
 4578POPC   C1B19027   1.058  15.029   8.550
 4578POPC   C2B19028   1.049  14.960   8.250
 4578POPC   C3B19029   1.015  14.971   7.950
 4578POPC   C4B19030   0.986  14.987   7.650
 4579POPC   NC319031  12.118   5.896   9.450
 4579POPC   PO419032  12.101   5.893   9.150
 4579POPC   GL119033  12.056   5.909   8.850
 4579POPC   GL219034  12.031   5.976   8.850
 4579POPC   C1A19035  12.085   5.842   8.550
 4579POPC   D2A19036  12.027   5.836   8.250
 4579POPC   C3A19037  12.045   5.916   7.950
 4579POPC   C4A19038  12.092   5.868   7.650
 4579POPC   C1B19039  12.063   6.117   8.550
 4579POPC   C2B19040  12.091   6.092   8.250
 4579POPC   C3B19041  12.034   6.076   7.950
 4579POPC   C4B19042  12.052   6.122   7.650
 4580POPC   NC319043  14.409  36.860   9.450
 4580POPC   PO419044  14.413  36.854   9.150
 4580POPC   GL119045  14.364  36.881   8.850
 4580POPC   GL219046  14.439  37.025   8.850
 4580POPC   C1A19047  14.360  36.856   8.550
 4580POPC   D2A19048  14.399  36.867   8.250
 4580POPC   C3A19049  14.452  36.932   7.950
 4580POPC   C4A19050  14.444  36.935   7.650
 4580POPC   C1B19051  14.452  37.132   8.550
 4580POPC   C2B19052  14.509  37.132   8.250
 4580POPC   C3B19053  14.446  37.186   7.950
 4580POPC   C4B19054  14.488  37.124   7.650
 4581POPC   NC319055  20.653   5.103   9.450
 4581POPC   PO419056  20.603   5.071   9.150
 4581POPC   GL119057  20.651   5.112   8.850
 4581POPC   GL219058  20.463   5.028   8.850
 4581POPC   C1A19059  20.653   5.054   8.550
 4581POPC   D2A19060  20.628   5.054   8.250
 4581POPC   C3A19061  20.576   5.109   7.950
 4581POPC   C4A19062  20.612   5.132   7.650
 4581POPC   C1B19063  20.371   4.938   8.550
 4581POPC   C2B19064  20.342   4.959   8.250
 4581POPC   C3B19065  20.429   4.929   7.950
 4581POPC   C4B19066  20.365   5.011   7.650
 4582POPC   NC319067  33.844   9.698   9.450
 4582POPC   PO419068  33.750   9.797   9.150
 4582POPC   GL119069  33.832   9.728   8.850
 4582POPC   GL219070  33.886   9.696   8.850
 4582POPC   C1A19071  33.802   9.777   8.550
 4582POPC   D2A19072  33.824   9.786   8.250
 4582POPC   C3A19073  33.788   9.759   7.950
 4582POPC   C4A19074  33.849   9.739   7.650
 4582POPC   C1B19075  34.080   9.664   8.550
 4582POPC   C2B19076  34.037   9.684   8.250
 4582POPC   C3B19077  34.049   9.688   7.950
 4582POPC   C4B19078  34.016   9.685   7.650
 4583POPC   NC319079  33.751   1.984   9.450
 4583POPC   PO419080  33.756   1.970   9.150
 4583POPC   GL119081  33.823   1.992   8.850
 4583POPC   GL219082  33.901   1.975   8.850
 4583POPC   C1A19083  33.787   2.014   8.550
 4583POPC   D2A19084  33.761   2.009   8.250
 4583POPC   C3A19085  33.767   2.001   7.950
 4583POPC   C4A19086  33.777   1.949   7.650
 4583POPC   C1B19087  34.011   1.946   8.550
 4583POPC   C2B19088  34.007   1.955   8.250
 4583POPC   C3B19089  34.018   1.928   7.950
 4583POPC   C4B19090  34.022   1.924   7.650
 4584POPC   NC319091  29.871  27.593   9.450
 4584POPC   PO419092  29.964  27.576   9.150
 4584POPC   GL119093  29.906  27.571   8.850
 4584POPC   GL219094  29.863  27.458   8.850
 4584POPC   C1A19095  29.964  27.546   8.550
 4584POPC   D2A19096  29.934  27.584   8.250
 4584POPC   C3A19097  29.936  27.632   7.950
 4584POPC   C4A19098  29.959  27.557   7.650
 4584POPC   C1B19099  29.848  27.365   8.550
 4584POPC   C2B19100  29.837  27.313   8.250
 4584POPC   C3B19101  29.795  27.354   7.950
 4584POPC   C4B19102  29.865  27.398   7.650
 4585POPC   NC319103  32.297  18.262   9.450
 4585POPC   PO419104  32.296  18.275   9.150
 4585POPC   GL119105  32.238  18.255   8.850
 4585POPC   GL219106  32.331  18.280   8.850
 4585POPC   C1A19107  32.228  18.268   8.550
 4585POPC   D2A19108  32.218  18.318   8.250
 4585POPC   C3A19109  32.225  18.325   7.950
 4585POPC   C4A19110  32.262  18.293   7.650
 4585POPC   C1B19111  32.532  18.329   8.550
 4585POPC   C2B19112  32.461  18.336   8.250
 4585POPC   C3B19113  32.533  18.309   7.950
 4585POPC   C4B19114  32.459  18.280   7.650
 4586POPC   NC319115  32.999  22.184   9.450
 4586POPC   PO419116  33.005  22.122   9.150
 4586POPC   GL119117  33.017  22.152   8.850
 4586POPC   GL219118  33.006  22.063   8.850
 4586POPC   C1A19119  33.035  22.166   8.550
 4586POPC   D2A19120  33.070  22.159   8.250
 4586POPC   C3A19121  33.005  22.185   7.950
 4586POPC   C4A19122  32.977  22.137   7.650
 4586POPC   C1B19123  32.955  21.902   8.550
 4586POPC   C2B19124  32.972  21.876   8.250
 4586POPC   C3B19125  33.013  21.911   7.950
 4586POPC   C4B19126  33.004  21.932   7.650
 4587POPC   NC319127  23.720  42.370   9.450
 4587POPC   PO419128  23.674  42.288   9.150
 4587POPC   GL119129  23.720  42.293   8.850
 4587POPC   GL219130  23.610  42.329   8.850
 4587POPC   C1A19131  23.748  42.310   8.550
 4587POPC   D2A19132  23.749  42.355   8.250
 4587POPC   C3A19133  23.727  42.326   7.950
 4587POPC   C4A19134  23.750  42.318   7.650
 4587POPC   C1B19135  23.448  42.286   8.550
 4587POPC   C2B19136  23.428  42.363   8.250
 4587POPC   C3B19137  23.478  42.381   7.950
 4587POPC   C4B19138  23.470  42.343   7.650
 4588POPC   NC319139  44.678  36.870   9.450
 4588POPC   PO419140  44.658  36.943   9.150
 4588POPC   GL119141  44.657  36.944   8.850
 4588POPC   GL219142  44.673  36.798   8.850
 4588POPC   C1A19143  44.637  36.858   8.550
 4588POPC   D2A19144  44.704  36.899   8.250
 4588POPC   C3A19145  44.658  36.921   7.950
 4588POPC   C4A19146  44.669  36.910   7.650
 4588POPC   C1B19147  44.678  36.652   8.550
 4588POPC   C2B19148  44.657  36.636   8.250
 4588POPC   C3B19149  44.646  36.664   7.950
 4588POPC   C4B19150  44.720  36.659   7.650
 4589POPC   NC319151   5.894  43.101   9.450
 4589POPC   PO419152   5.846  43.101   9.150
 4589POPC   GL119153   5.915  43.150   8.850
 4589POPC   GL219154   5.867  43.195   8.850
 4589POPC   C1A19155   5.865  43.156   8.550
 4589POPC   D2A19156   5.825  43.081   8.250
 4589POPC   C3A19157   5.889  43.107   7.950
 4589POPC   C4A19158   5.862  43.115   7.650
 4589POPC   C1B19159   5.794  43.333   8.550
 4589POPC   C2B19160   5.808  43.338   8.250
 4589POPC   C3B19161   5.810  43.333   7.950
 4589POPC   C4B19162   5.775  43.360   7.650
 4590POPC   NC319163  23.689  14.405   9.450
 4590POPC   PO419164  23.719  14.443   9.150
 4590POPC   GL119165  23.751  14.444   8.850
 4590POPC   GL219166  23.664  14.318   8.850
 4590POPC   C1A19167  23.754  14.414   8.550
 4590POPC   D2A19168  23.743  14.410   8.250
 4590POPC   C3A19169  23.753  14.374   7.950
 4590POPC   C4A19170  23.703  14.410   7.650
 4590POPC   C1B19171  23.484  14.283   8.550
 4590POPC   C2B19172  23.486  14.283   8.250
 4590POPC   C3B19173  23.556  14.236   7.950
 4590POPC   C4B19174  23.528  14.208   7.650
 4591POPC   NC319175  19.022  29.902   9.450
 4591POPC   PO419176  19.078  29.876   9.150
 4591POPC   GL119177  19.070  29.895   8.850
 4591POPC   GL219178  19.188  29.918   8.850
 4591POPC   C1A19179  19.022  29.945   8.550
 4591POPC   D2A19180  19.081  29.899   8.250
 4591POPC   C3A19181  19.048  29.886   7.950
 4591POPC   C4A19182  19.074  29.889   7.650
 4591POPC   C1B19183  19.280  29.999   8.550
 4591POPC   C2B19184  19.324  29.958   8.250
 4591POPC   C3B19185  19.321  30.014   7.950
 4591POPC   C4B19186  19.261  30.025   7.650
 4592POPC   NC319187  43.138   5.873   9.450
 4592POPC   PO419188  43.117   5.886   9.150
 4592POPC   GL119189  43.095   5.893   8.850
 4592POPC   GL219190  43.244   5.999   8.850
 4592POPC   C1A19191  43.138   5.874   8.550
 4592POPC   D2A19192  43.085   5.847   8.250
 4592POPC   C3A19193  43.149   5.908   7.950
 4592POPC   C4A19194  43.135   5.881   7.650
 4592POPC   C1B19195  43.324   5.984   8.550
 4592POPC   C2B19196  43.347   6.073   8.250
 4592POPC   C3B19197  43.324   6.032   7.950
 4592POPC   C4B19198  43.268   6.019   7.650
 4593POPC   NC319199  24.508   0.400   9.450
 4593POPC   PO419200  24.460   0.469   9.150
 4593POPC   GL119201  24.480   0.485   8.850
 4593POPC   GL219202  24.332   0.435   8.850
 4593POPC   C1A19203  24.524   0.424   8.550
 4593POPC   D2A19204  24.464   0.452   8.250
 4593POPC   C3A19205  24.462   0.470   7.950
 4593POPC   C4A19206  24.448   0.453   7.650
 4593POPC   C1B19207  24.209   0.483   8.550
 4593POPC   C2B19208  24.248   0.476   8.250
 4593POPC   C3B19209  24.254   0.522   7.950
 4593POPC   C4B19210  24.221   0.464   7.650
 4594POPC   NC319211  12.866  19.048   9.450
 4594POPC   PO419212  12.808  19.079   9.150
 4594POPC   GL119213  12.821  19.033   8.850
 4594POPC   GL219214  12.780  18.986   8.850
 4594POPC   C1A19215  12.848  19.091   8.550
 4594POPC   D2A19216  12.883  19.101   8.250
 4594POPC   C3A19217  12.848  19.100   7.950
 4594POPC   C4A19218  12.863  19.010   7.650
 4594POPC   C1B19219  12.667  18.928   8.550
 4594POPC   C2B19220  12.664  18.832   8.250
 4594POPC   C3B19221  12.672  18.927   7.950
 4594POPC   C4B19222  12.676  18.909   7.650
 4595POPC   NC319223   7.449  10.548   9.450
 4595POPC   PO419224   7.377  10.518   9.150
 4595POPC   GL119225   7.462  10.530   8.850
 4595POPC   GL219226   7.428  10.438   8.850
 4595POPC   C1A19227   7.458  10.532   8.550
 4595POPC   D2A19228   7.398  10.527   8.250
 4595POPC   C3A19229   7.377  10.488   7.950
 4595POPC   C4A19230   7.378  10.544   7.650
 4595POPC   C1B19231   7.332  10.294   8.550
 4595POPC   C2B19232   7.388  10.284   8.250
 4595POPC   C3B19233   7.340  10.322   7.950
 4595POPC   C4B19234   7.363  10.298   7.650
 4596POPC   NC319235   3.588  20.654   9.450
 4596POPC   PO419236   3.568  20.594   9.150
 4596POPC   GL119237   3.564  20.596   8.850
 4596POPC   GL219238   3.567  20.476   8.850
 4596POPC   C1A19239   3.521  20.646   8.550
 4596POPC   D2A19240   3.505  20.606   8.250
 4596POPC   C3A19241   3.527  20.639   7.950
 4596POPC   C4A19242   3.585  20.613   7.650
 4596POPC   C1B19243   3.596  20.334   8.550
 4596POPC   C2B19244   3.663  20.423   8.250
 4596POPC   C3B19245   3.628  20.372   7.950
 4596POPC   C4B19246   3.617  20.377   7.650
 4597POPC   NC319247   9.768  33.049   9.450
 4597POPC   PO419248   9.754  32.987   9.150
 4597POPC   GL119249   9.709  32.992   8.850
 4597POPC   GL219250   9.880  32.943   8.850
 4597POPC   C1A19251   9.787  32.981   8.550
 4597POPC   D2A19252   9.769  33.040   8.250
 4597POPC   C3A19253   9.740  33.045   7.950
 4597POPC   C4A19254   9.770  33.001   7.650
 4597POPC   C1B19255   9.972  32.803   8.550
 4597POPC   C2B19256   9.967  32.855   8.250
 4597POPC   C3B19257   9.936  32.833   7.950
 4597POPC   C4B19258   9.965  32.888   7.650
 4598POPC   NC319259  35.363  20.649   9.450
 4598POPC   PO419260  35.323  20.656   9.150
 4598POPC   GL119261  35.401  20.650   8.850
 4598POPC   GL219262  35.309  20.533   8.850
 4598POPC   C1A19263  35.382  20.608   8.550
 4598POPC   D2A19264  35.318  20.621   8.250
 4598POPC   C3A19265  35.399  20.566   7.950
 4598POPC   C4A19266  35.384  20.563   7.650
 4598POPC   C1B19267  35.234  20.388   8.550
 4598POPC   C2B19268  35.276  20.401   8.250
 4598POPC   C3B19269  35.266  20.420   7.950
 4598POPC   C4B19270  35.237  20.390   7.650
 4599POPC   NC319271  18.267  25.271   9.450
 4599POPC   PO419272  18.273  25.237   9.150
 4599POPC   GL119273  18.262  25.277   8.850
 4599POPC   GL219274  18.255  25.169   8.850
 4599POPC   C1A19275  18.271  25.255   8.550
 4599POPC   D2A19276  18.327  25.309   8.250
 4599POPC   C3A19277  18.303  25.242   7.950
 4599POPC   C4A19278  18.274  25.235   7.650
 4599POPC   C1B19279  18.270  24.990   8.550
 4599POPC   C2B19280  18.307  24.997   8.250
 4599POPC   C3B19281  18.324  25.041   7.950
 4599POPC   C4B19282  18.291  24.999   7.650
 4600POPC   NC319283  35.387  13.617   9.450
 4600POPC   PO419284  35.357  13.648   9.150
 4600POPC   GL119285  35.347  13.671   8.850
 4600POPC   GL219286  35.504  13.597   8.850
 4600POPC   C1A19287  35.389  13.657   8.550
 4600POPC   D2A19288  35.362  13.630   8.250
 4600POPC   C3A19289  35.371  13.604   7.950
 4600POPC   C4A19290  35.331  13.629   7.650
 4600POPC   C1B19291  35.529  13.541   8.550
 4600POPC   C2B19292  35.539  13.514   8.250
 4600POPC   C3B19293  35.610  13.491   7.950
 4600POPC   C4B19294  35.575  13.544   7.650
 4601POPC   NC319295  26.052   1.232   9.450
 4601POPC   PO419296  26.034   1.256   9.150
 4601POPC   GL119297  26.007   1.230   8.850
 4601POPC   GL219298  26.207   1.243   8.850
 4601POPC   C1A19299  25.998   1.219   8.550
 4601POPC   D2A19300  26.008   1.167   8.250
 4601POPC   C3A19301  26.047   1.207   7.950
 4601POPC   C4A19302  26.000   1.228   7.650
 4601POPC   C1B19303  26.297   1.253   8.550
 4601POPC   C2B19304  26.283   1.285   8.250
 4601POPC   C3B19305  26.236   1.327   7.950
 4601POPC   C4B19306  26.301   1.272   7.650
 4602POPC   NC319307  20.653  26.077   9.450
 4602POPC   PO419308  20.641  26.013   9.150
 4602POPC   GL119309  20.572  26.023   8.850
 4602POPC   GL219310  20.766  26.000   8.850
 4602POPC   C1A19311  20.572  26.042   8.550
 4602POPC   D2A19312  20.649  26.018   8.250
 4602POPC   C3A19313  20.581  26.084   7.950
 4602POPC   C4A19314  20.610  26.085   7.650
 4602POPC   C1B19315  20.854  25.998   8.550
 4602POPC   C2B19316  20.806  25.931   8.250
 4602POPC   C3B19317  20.856  25.979   7.950
 4602POPC   C4B19318  20.870  25.947   7.650
 4603POPC   NC319319   3.511  22.177   9.450
 4603POPC   PO419320   3.547  22.116   9.150
 4603POPC   GL119321   3.511  22.124   8.850
 4603POPC   GL219322   3.561  22.292   8.850
 4603POPC   C1A19323   3.574  22.159   8.550
 4603POPC   D2A19324   3.535  22.130   8.250
 4603POPC   C3A19325   3.509  22.157   7.950
 4603POPC   C4A19326   3.584  22.125   7.650
 4603POPC   C1B19327   3.535  22.437   8.550
 4603POPC   C2B19328   3.498  22.421   8.250
 4603POPC   C3B19329   3.503  22.369   7.950
 4603POPC   C4B19330   3.498  22.412   7.650
 4604POPC   NC319331  38.497   9.796   9.450
 4604POPC   PO419332  38.422   9.743   9.150
 4604POPC   GL119333  38.467   9.770   8.850
 4604POPC   GL219334  38.449   9.636   8.850
 4604POPC   C1A19335  38.468   9.710   8.550
 4604POPC   D2A19336  38.411   9.707   8.250
 4604POPC   C3A19337  38.448   9.742   7.950
 4604POPC   C4A19338  38.457   9.739   7.650
 4604POPC   C1B19339  38.435   9.502   8.550
 4604POPC   C2B19340  38.445   9.507   8.250
 4604POPC   C3B19341  38.484   9.483   7.950
 4604POPC   C4B19342  38.406   9.508   7.650
 4605POPC   NC319343  29.104  31.461   9.450
 4605POPC   PO419344  29.117  31.499   9.150
 4605POPC   GL119345  29.105  31.442   8.850
 4605POPC   GL219346  29.203  31.364   8.850
 4605POPC   C1A19347  29.145  31.445   8.550
 4605POPC   D2A19348  29.125  31.423   8.250
 4605POPC   C3A19349  29.153  31.497   7.950
 4605POPC   C4A19350  29.190  31.515   7.650
 4605POPC   C1B19351  29.263  31.318   8.550
 4605POPC   C2B19352  29.342  31.232   8.250
 4605POPC   C3B19353  29.330  31.285   7.950
 4605POPC   C4B19354  29.304  31.249   7.650
 4606POPC   NC319355  42.288  14.408   9.450
 4606POPC   PO419356  42.305  14.441   9.150
 4606POPC   GL119357  42.332  14.374   8.850
 4606POPC   GL219358  42.328  14.535   8.850
 4606POPC   C1A19359  42.295  14.427   8.550
 4606POPC   D2A19360  42.316  14.442   8.250
 4606POPC   C3A19361  42.290  14.421   7.950
 4606POPC   C4A19362  42.346  14.408   7.650
 4606POPC   C1B19363  42.354  14.701   8.550
 4606POPC   C2B19364  42.270  14.638   8.250
 4606POPC   C3B19365  42.330  14.689   7.950
 4606POPC   C4B19366  42.301  14.691   7.650
 4607POPC   NC319367  40.031  16.718   9.450
 4607POPC   PO419368  40.004  16.700   9.150
 4607POPC   GL119369  39.987  16.722   8.850
 4607POPC   GL219370  39.859  16.732   8.850
 4607POPC   C1A19371  39.973  16.756   8.550
 4607POPC   D2A19372  39.994  16.705   8.250
 4607POPC   C3A19373  40.041  16.699   7.950
 4607POPC   C4A19374  40.018  16.764   7.650
 4607POPC   C1B19375  39.735  16.718   8.550
 4607POPC   C2B19376  39.758  16.767   8.250
 4607POPC   C3B19377  39.794  16.782   7.950
 4607POPC   C4B19378  39.748  16.701   7.650
 4608POPC   NC319379   7.434  39.255   9.450
 4608POPC   PO419380   7.375  39.216   9.150
 4608POPC   GL119381   7.403  39.236   8.850
 4608POPC   GL219382   7.485  39.216   8.850
 4608POPC   C1A19383   7.465  39.190   8.550
 4608POPC   D2A19384   7.443  39.203   8.250
 4608POPC   C3A19385   7.398  39.263   7.950
 4608POPC   C4A19386   7.449  39.205   7.650
 4608POPC   C1B19387   7.635  39.072   8.550
 4608POPC   C2B19388   7.608  39.159   8.250
 4608POPC   C3B19389   7.632  39.137   7.950
 4608POPC   C4B19390   7.599  39.120   7.650
 4609POPC   NC319391  17.462  28.416   9.450
 4609POPC   PO419392  17.473  28.411   9.150
 4609POPC   GL119393  17.511  28.339   8.850
 4609POPC   GL219394  17.425  28.331   8.850
 4609POPC   C1A19395  17.499  28.329   8.550
 4609POPC   D2A19396  17.530  28.408   8.250
 4609POPC   C3A19397  17.471  28.320   7.950
 4609POPC   C4A19398  17.548  28.376   7.650
 4609POPC   C1B19399  17.251  28.414   8.550
 4609POPC   C2B19400  17.244  28.370   8.250
 4609POPC   C3B19401  17.275  28.384   7.950
 4609POPC   C4B19402  17.268  28.439   7.650
 4610POPC   NC319403   1.215  33.070   9.450
 4610POPC   PO419404   1.213  32.998   9.150
 4610POPC   GL119405   1.204  33.050   8.850
 4610POPC   GL219406   1.228  32.923   8.850
 4610POPC   C1A19407   1.227  32.985   8.550
 4610POPC   D2A19408   1.235  33.060   8.250
 4610POPC   C3A19409   1.260  32.990   7.950
 4610POPC   C4A19410   1.195  33.063   7.650
 4610POPC   C1B19411   1.317  32.832   8.550
 4610POPC   C2B19412   1.303  32.821   8.250
 4610POPC   C3B19413   1.351  32.780   7.950
 4610POPC   C4B19414   1.326  32.843   7.650
 4611POPC   NC319415  26.844  29.911   9.450
 4611POPC   PO419416  26.802  29.903   9.150
 4611POPC   GL119417  26.768  29.927   8.850
 4611POPC   GL219418  26.971  29.853   8.850
 4611POPC   C1A19419  26.844  29.885   8.550
 4611POPC   D2A19420  26.809  29.969   8.250
 4611POPC   C3A19421  26.866  29.895   7.950
 4611POPC   C4A19422  26.846  29.970   7.650
 4611POPC   C1B19423  27.082  29.795   8.550
 4611POPC   C2B19424  27.002  29.858   8.250
 4611POPC   C3B19425  27.076  29.854   7.950
 4611POPC   C4B19426  27.063  29.803   7.650
 4612POPC   NC319427  10.478  33.807   9.450
 4612POPC   PO419428  10.481  33.774   9.150
 4612POPC   GL119429  10.523  33.794   8.850
 4612POPC   GL219430  10.405  33.909   8.850
 4612POPC   C1A19431  10.474  33.796   8.550
 4612POPC   D2A19432  10.494  33.839   8.250
 4612POPC   C3A19433  10.544  33.764   7.950
 4612POPC   C4A19434  10.572  33.767   7.650
 4612POPC   C1B19435  10.334  33.919   8.550
 4612POPC   C2B19436  10.364  33.978   8.250
 4612POPC   C3B19437  10.349  33.979   7.950
 4612POPC   C4B19438  10.296  33.913   7.650
 4613POPC   NC319439  29.931   7.384   9.450
 4613POPC   PO419440  29.890   7.388   9.150
 4613POPC   GL119441  29.911   7.394   8.850
 4613POPC   GL219442  29.762   7.516   8.850
 4613POPC   C1A19443  29.909   7.444   8.550
 4613POPC   D2A19444  29.896   7.451   8.250
 4613POPC   C3A19445  29.970   7.381   7.950
 4613POPC   C4A19446  29.906   7.448   7.650
 4613POPC   C1B19447  29.663   7.545   8.550
 4613POPC   C2B19448  29.732   7.475   8.250
 4613POPC   C3B19449  29.714   7.483   7.950
 4613POPC   C4B19450  29.680   7.544   7.650
 4614POPC   NC319451  35.397  27.611   9.450
 4614POPC   PO419452  35.308  27.557   9.150
 4614POPC   GL119453  35.368  27.561   8.850
 4614POPC   GL219454  35.236  27.477   8.850
 4614POPC   C1A19455  35.384  27.586   8.550
 4614POPC   D2A19456  35.315  27.559   8.250
 4614POPC   C3A19457  35.322  27.582   7.950
 4614POPC   C4A19458  35.304  27.579   7.650
 4614POPC   C1B19459  35.174  27.385   8.550
 4614POPC   C2B19460  35.218  27.400   8.250
 4614POPC   C3B19461  35.173  27.362   7.950
 4614POPC   C4B19462  35.249  27.371   7.650
 4615POPC   NC319463   1.245  43.850   9.450
 4615POPC   PO419464   1.221  43.936   9.150
 4615POPC   GL119465   1.208  43.917   8.850
 4615POPC   GL219466   1.108  43.815   8.850
 4615POPC   C1A19467   1.241  43.841   8.550
 4615POPC   D2A19468   1.220  43.910   8.250
 4615POPC   C3A19469   1.262  43.853   7.950
 4615POPC   C4A19470   1.180  43.873   7.650
 4615POPC   C1B19471   0.942  43.848   8.550
 4615POPC   C2B19472   0.988  43.773   8.250
 4615POPC   C3B19473   1.012  43.858   7.950
 4615POPC   C4B19474   0.976  43.856   7.650
 4616POPC   NC319475  32.212  31.500   9.450
 4616POPC   PO419476  32.237  31.443   9.150
 4616POPC   GL119477  32.254  31.432   8.850
 4616POPC   GL219478  32.123  31.431   8.850
 4616POPC   C1A19479  32.247  31.443   8.550
 4616POPC   D2A19480  32.258  31.433   8.250
 4616POPC   C3A19481  32.242  31.474   7.950
 4616POPC   C4A19482  32.294  31.508   7.650
 4616POPC   C1B19483  31.987  31.394   8.550
 4616POPC   C2B19484  32.028  31.355   8.250
 4616POPC   C3B19485  32.034  31.425   7.950
 4616POPC   C4B19486  32.018  31.396   7.650
 4617POPC   NC319487   8.987  26.803   9.450
 4617POPC   PO419488   8.928  26.809   9.150
 4617POPC   GL119489   9.011  26.825   8.850
 4617POPC   GL219490   8.899  26.690   8.850
 4617POPC   C1A19491   8.957  26.773   8.550
 4617POPC   D2A19492   8.951  26.807   8.250
 4617POPC   C3A19493   8.985  26.821   7.950
 4617POPC   C4A19494   8.937  26.801   7.650
 4617POPC   C1B19495   8.759  26.660   8.550
 4617POPC   C2B19496   8.744  26.610   8.250
 4617POPC   C3B19497   8.773  26.614   7.950
 4617POPC   C4B19498   8.786  26.633   7.650
 4618POPC   NC319499  31.481  13.641   9.450
 4618POPC   PO419500  31.510  13.606   9.150
 4618POPC   GL119501  31.469  13.661   8.850
 4618POPC   GL219502  31.552  13.728   8.850
 4618POPC   C1A19503  31.463  13.589   8.550
 4618POPC   D2A19504  31.492  13.653   8.250
 4618POPC   C3A19505  31.429  13.586   7.950
 4618POPC   C4A19506  31.463  13.649   7.650
 4618POPC   C1B19507  31.622  13.785   8.550
 4618POPC   C2B19508  31.591  13.806   8.250
 4618POPC   C3B19509  31.630  13.825   7.950
 4618POPC   C4B19510  31.636  13.849   7.650
 4619POPC   NC319511   6.611  44.617   9.450
 4619POPC   PO419512   6.647  44.656   9.150
 4619POPC   GL119513   6.649  44.695   8.850
 4619POPC   GL219514   6.580  44.594   8.850
 4619POPC   C1A19515   6.632  44.659   8.550
 4619POPC   D2A19516   6.597  44.708   8.250
 4619POPC   C3A19517   6.664  44.693   7.950
 4619POPC   C4A19518   6.668  44.664   7.650
 4619POPC   C1B19519   6.440  44.602   8.550
 4619POPC   C2B19520   6.462  44.591   8.250
 4619POPC   C3B19521   6.379  44.508   7.950
 4619POPC   C4B19522   6.456  44.584   7.650
 4620POPC   NC319523  29.875  22.204   9.450
 4620POPC   PO419524  29.872  22.164   9.150
 4620POPC   GL119525  29.901  22.160   8.850
 4620POPC   GL219526  29.939  22.048   8.850
 4620POPC   C1A19527  29.880  22.139   8.550
 4620POPC   D2A19528  29.916  22.184   8.250
 4620POPC   C3A19529  29.884  22.135   7.950
 4620POPC   C4A19530  29.959  22.145   7.650
 4620POPC   C1B19531  29.956  21.864   8.550
 4620POPC   C2B19532  29.947  21.900   8.250
 4620POPC   C3B19533  29.903  21.876   7.950
 4620POPC   C4B19534  29.920  21.888   7.650
 4621POPC   NC319535  42.321  28.359   9.450
 4621POPC   PO419536  42.286  28.389   9.150
 4621POPC   GL119537  42.304  28.354   8.850
 4621POPC   GL219538  42.499  28.366   8.850
 4621POPC   C1A19539  42.340  28.364   8.550
 4621POPC   D2A19540  42.374  28.331   8.250
 4621POPC   C3A19541  42.304  28.320   7.950
 4621POPC   C4A19542  42.291  28.383   7.650
 4621POPC   C1B19543  42.533  28.322   8.550
 4621POPC   C2B19544  42.607  28.327   8.250
 4621POPC   C3B19545  42.563  28.290   7.950
 4621POPC   C4B19546  42.530  28.308   7.650
 4622POPC   NC319547  30.694  31.472   9.450
 4622POPC   PO419548  30.694  31.509   9.150
 4622POPC   GL119549  30.743  31.459   8.850
 4622POPC   GL219550  30.790  31.556   8.850
 4622POPC   C1A19551  30.650  31.497   8.550
 4622POPC   D2A19552  30.698  31.497   8.250
 4622POPC   C3A19553  30.705  31.471   7.950
 4622POPC   C4A19554  30.710  31.514   7.650
 4622POPC   C1B19555  30.827  31.615   8.550
 4622POPC   C2B19556  30.832  31.606   8.250
 4622POPC   C3B19557  30.902  31.636   7.950
 4622POPC   C4B19558  30.921  31.674   7.650
 4623POPC   NC319559  23.708   5.879   9.450
 4623POPC   PO419560  23.675   5.897   9.150
 4623POPC   GL119561  23.665   5.887   8.850
 4623POPC   GL219562  23.771   5.908   8.850
 4623POPC   C1A19563  23.727   5.850   8.550
 4623POPC   D2A19564  23.705   5.854   8.250
 4623POPC   C3A19565  23.737   5.860   7.950
 4623POPC   C4A19566  23.746   5.872   7.650
 4623POPC   C1B19567  23.946   6.030   8.550
 4623POPC   C2B19568  23.927   6.014   8.250
 4623POPC   C3B19569  23.927   5.973   7.950
 4623POPC   C4B19570  23.952   6.039   7.650
 4624POPC   NC319571   5.886   2.036   9.450
 4624POPC   PO419572   5.844   1.967   9.150
 4624POPC   GL119573   5.901   2.024   8.850
 4624POPC   GL219574   5.961   2.120   8.850
 4624POPC   C1A19575   5.911   1.951   8.550
 4624POPC   D2A19576   5.880   1.978   8.250
 4624POPC   C3A19577   5.869   1.979   7.950
 4624POPC   C4A19578   5.864   1.974   7.650
 4624POPC   C1B19579   6.035   2.202   8.550
 4624POPC   C2B19580   6.004   2.161   8.250
 4624POPC   C3B19581   6.004   2.215   7.950
 4624POPC   C4B19582   5.995   2.229   7.650
 4625POPC   NC319583  27.558   4.297   9.450
 4625POPC   PO419584  27.625   4.277   9.150
 4625POPC   GL119585  27.590   4.361   8.850
 4625POPC   GL219586  27.742   4.316   8.850
 4625POPC   C1A19587  27.629   4.340   8.550
 4625POPC   D2A19588  27.570   4.290   8.250
 4625POPC   C3A19589  27.563   4.273   7.950
 4625POPC   C4A19590  27.621   4.341   7.650
 4625POPC   C1B19591  27.883   4.350   8.550
 4625POPC   C2B19592  27.830   4.315   8.250
 4625POPC   C3B19593  27.843   4.330   7.950
 4625POPC   C4B19594  27.804   4.261   7.650
 4626POPC   NC319595  36.078  26.069   9.450
 4626POPC   PO419596  36.095  26.015   9.150
 4626POPC   GL119597  36.125  26.053   8.850
 4626POPC   GL219598  36.101  25.960   8.850
 4626POPC   C1A19599  36.138  25.995   8.550
 4626POPC   D2A19600  36.174  26.011   8.250
 4626POPC   C3A19601  36.171  26.082   7.950
 4626POPC   C4A19602  36.138  26.059   7.650
 4626POPC   C1B19603  36.138  25.833   8.550
 4626POPC   C2B19604  36.144  25.839   8.250
 4626POPC   C3B19605  36.100  25.820   7.950
 4626POPC   C4B19606  36.111  25.767   7.650
 4627POPC   NC319607  13.587  42.355   9.450
 4627POPC   PO419608  13.644  42.329   9.150
 4627POPC   GL119609  13.579  42.348   8.850
 4627POPC   GL219610  13.487  42.387   8.850
 4627POPC   C1A19611  13.629  42.358   8.550
 4627POPC   D2A19612  13.586  42.287   8.250
 4627POPC   C3A19613  13.591  42.325   7.950
 4627POPC   C4A19614  13.602  42.332   7.650
 4627POPC   C1B19615  13.376  42.492   8.550
 4627POPC   C2B19616  13.462  42.448   8.250
 4627POPC   C3B19617  13.440  42.529   7.950
 4627POPC   C4B19618  13.465  42.440   7.650
 4628POPC   NC319619  33.783  23.735   9.450
 4628POPC   PO419620  33.805  23.667   9.150
 4628POPC   GL119621  33.789  23.752   8.850
 4628POPC   GL219622  33.756  23.648   8.850
 4628POPC   C1A19623  33.766  23.742   8.550
 4628POPC   D2A19624  33.774  23.740   8.250
 4628POPC   C3A19625  33.755  23.679   7.950
 4628POPC   C4A19626  33.754  23.759   7.650
 4628POPC   C1B19627  33.592  23.528   8.550
 4628POPC   C2B19628  33.608  23.519   8.250
 4628POPC   C3B19629  33.598  23.576   7.950
 4628POPC   C4B19630  33.627  23.499   7.650
 4629POPC   NC319631  36.912  44.646   9.450
 4629POPC   PO419632  36.863  44.626   9.150
 4629POPC   GL119633  36.876  44.665   8.850
 4629POPC   GL219634  36.988  44.708   8.850
 4629POPC   C1A19635  36.924  44.644   8.550
 4629POPC   D2A19636  36.876  44.694   8.250
 4629POPC   C3A19637  36.883  44.657   7.950
 4629POPC   C4A19638  36.891  44.628   7.650
 4629POPC   C1B19639  37.154  44.765   8.550
 4629POPC   C2B19640  37.101  44.765   8.250
 4629POPC   C3B19641  37.115  44.742   7.950
 4629POPC   C4B19642  37.091  44.820   7.650
 4630POPC   NC319643  37.643  13.598   9.450
 4630POPC   PO419644  37.690  13.613   9.150
 4630POPC   GL119645  37.658  13.659   8.850
 4630POPC   GL219646  37.686  13.763   8.850
 4630POPC   C1A19647  37.685  13.669   8.550
 4630POPC   D2A19648  37.674  13.637   8.250
 4630POPC   C3A19649  37.640  13.636   7.950
 4630POPC   C4A19650  37.644  13.664   7.650
 4630POPC   C1B19651  37.608  13.823   8.550
 4630POPC   C2B19652  37.651  13.865   8.250
 4630POPC   C3B19653  37.581  13.879   7.950
 4630POPC   C4B19654  37.645  13.882   7.650
 4631POPC   NC319655  28.370  19.017   9.450
 4631POPC   PO419656  28.323  19.071   9.150
 4631POPC   GL119657  28.376  19.024   8.850
 4631POPC   GL219658  28.259  19.123   8.850
 4631POPC   C1A19659  28.408  19.016   8.550
 4631POPC   D2A19660  28.364  19.083   8.250
 4631POPC   C3A19661  28.346  19.013   7.950
 4631POPC   C4A19662  28.406  19.064   7.650
 4631POPC   C1B19663  28.189  19.227   8.550
 4631POPC   C2B19664  28.140  19.208   8.250
 4631POPC   C3B19665  28.135  19.148   7.950
 4631POPC   C4B19666  28.145  19.161   7.650
 4632POPC   NC319667  13.645   5.878   9.450
 4632POPC   PO419668  13.605   5.915   9.150
 4632POPC   GL119669  13.672   5.858   8.850
 4632POPC   GL219670  13.549   5.892   8.850
 4632POPC   C1A19671  13.587   5.842   8.550
 4632POPC   D2A19672  13.643   5.859   8.250
 4632POPC   C3A19673  13.629   5.820   7.950
 4632POPC   C4A19674  13.665   5.890   7.650
 4632POPC   C1B19675  13.444   5.994   8.550
 4632POPC   C2B19676  13.427   6.009   8.250
 4632POPC   C3B19677  13.438   5.990   7.950
 4632POPC   C4B19678  13.377   5.996   7.650
 4633POPC   NC319679   5.110   5.859   9.450
 4633POPC   PO419680   5.078   5.850   9.150
 4633POPC   GL119681   5.098   5.837   8.850
 4633POPC   GL219682   5.182   5.930   8.850
 4633POPC   C1A19683   5.070   5.890   8.550
 4633POPC   D2A19684   5.069   5.830   8.250
 4633POPC   C3A19685   5.077   5.843   7.950
 4633POPC   C4A19686   5.060   5.821   7.650
 4633POPC   C1B19687   5.272   6.069   8.550
 4633POPC   C2B19688   5.237   5.989   8.250
 4633POPC   C3B19689   5.259   6.080   7.950
 4633POPC   C4B19690   5.327   6.059   7.650
 4634POPC   NC319691  35.316   8.225   9.450
 4634POPC   PO419692  35.331   8.199   9.150
 4634POPC   GL119693  35.338   8.200   8.850
 4634POPC   GL219694  35.208   8.284   8.850
 4634POPC   C1A19695  35.322   8.193   8.550
 4634POPC   D2A19696  35.319   8.187   8.250
 4634POPC   C3A19697  35.383   8.171   7.950
 4634POPC   C4A19698  35.391   8.173   7.650
 4634POPC   C1B19699  35.143   8.275   8.550
 4634POPC   C2B19700  35.089   8.356   8.250
 4634POPC   C3B19701  35.100   8.304   7.950
 4634POPC   C4B19702  35.100   8.296   7.650
 4635POPC   NC319703  16.695  43.863   9.450
 4635POPC   PO419704  16.716  43.923   9.150
 4635POPC   GL119705  16.748  43.845   8.850
 4635POPC   GL219706  16.671  44.002   8.850
 4635POPC   C1A19707  16.711  43.846   8.550
 4635POPC   D2A19708  16.718  43.870   8.250
 4635POPC   C3A19709  16.780  43.877   7.950
 4635POPC   C4A19710  16.720  43.903   7.650
 4635POPC   C1B19711  16.531  44.039   8.550
 4635POPC   C2B19712  16.532  44.033   8.250
 4635POPC   C3B19713  16.544  44.093   7.950
 4635POPC   C4B19714  16.555  44.055   7.650
 4636POPC   NC319715  27.643  25.283   9.450
 4636POPC   PO419716  27.582  25.310   9.150
 4636POPC   GL119717  27.615  25.276   8.850
 4636POPC   GL219718  27.575  25.187   8.850
 4636POPC   C1A19719  27.560  25.302   8.550
 4636POPC   D2A19720  27.550  25.312   8.250
 4636POPC   C3A19721  27.590  25.303   7.950
 4636POPC   C4A19722  27.571  25.283   7.650
 4636POPC   C1B19723  27.560  25.023   8.550
 4636POPC   C2B19724  27.536  25.060   8.250
 4636POPC   C3B19725  27.480  25.068   7.950
 4636POPC   C4B19726  27.492  25.022   7.650
 4637POPC   NC319727  21.430  21.409   9.450
 4637POPC   PO419728  21.394  21.373   9.150
 4637POPC   GL119729  21.379  21.385   8.850
 4637POPC   GL219730  21.525  21.383   8.850
 4637POPC   C1A19731  21.415  21.381   8.550
 4637POPC   D2A19732  21.404  21.378   8.250
 4637POPC   C3A19733  21.401  21.436   7.950
 4637POPC   C4A19734  21.353  21.345   7.650
 4637POPC   C1B19735  21.634  21.304   8.550
 4637POPC   C2B19736  21.614  21.346   8.250
 4637POPC   C3B19737  21.678  21.302   7.950
 4637POPC   C4B19738  21.623  21.354   7.650
 4638POPC   NC319739  15.139   0.394   9.450
 4638POPC   PO419740  15.184   0.396   9.150
 4638POPC   GL119741  15.150   0.396   8.850
 4638POPC   GL219742  15.244   0.493   8.850
 4638POPC   C1A19743  15.178   0.456   8.550
 4638POPC   D2A19744  15.172   0.440   8.250
 4638POPC   C3A19745  15.154   0.443   7.950
 4638POPC   C4A19746  15.196   0.450   7.650
 4638POPC   C1B19747  15.292   0.672   8.550
 4638POPC   C2B19748  15.374   0.683   8.250
 4638POPC   C3B19749  15.314   0.617   7.950
 4638POPC   C4B19750  15.361   0.585   7.650
 4639POPC   NC319751   6.597  15.963   9.450
 4639POPC   PO419752   6.664  15.940   9.150
 4639POPC   GL119753   6.611  15.962   8.850
 4639POPC   GL219754   6.579  16.049   8.850
 4639POPC   C1A19755   6.612  15.923   8.550
 4639POPC   D2A19756   6.656  15.921   8.250
 4639POPC   C3A19757   6.672  15.926   7.950
 4639POPC   C4A19758   6.658  15.928   7.650
 4639POPC   C1B19759   6.580  16.188   8.550
 4639POPC   C2B19760   6.538  16.191   8.250
 4639POPC   C3B19761   6.609  16.241   7.950
 4639POPC   C4B19762   6.544  16.161   7.650
 4640POPC   NC319763  12.054  43.899   9.450
 4640POPC   PO419764  12.061  43.889   9.150
 4640POPC   GL119765  12.107  43.902   8.850
 4640POPC   GL219766  11.944  43.854   8.850
 4640POPC   C1A19767  12.070  43.872   8.550
 4640POPC   D2A19768  12.101  43.915   8.250
 4640POPC   C3A19769  12.103  43.879   7.950
 4640POPC   C4A19770  12.043  43.936   7.650
 4640POPC   C1B19771  11.788  43.847   8.550
 4640POPC   C2B19772  11.815  43.911   8.250
 4640POPC   C3B19773  11.788  43.850   7.950
 4640POPC   C4B19774  11.868  43.887   7.650
 4641POPC   NC319775   4.295   3.577   9.450
 4641POPC   PO419776   4.287   3.549   9.150
 4641POPC   GL119777   4.274   3.522   8.850
 4641POPC   GL219778   4.390   3.682   8.850
 4641POPC   C1A19779   4.352   3.524   8.550
 4641POPC   D2A19780   4.284   3.540   8.250
 4641POPC   C3A19781   4.308   3.537   7.950
 4641POPC   C4A19782   4.348   3.566   7.650
 4641POPC   C1B19783   4.483   3.705   8.550
 4641POPC   C2B19784   4.487   3.715   8.250
 4641POPC   C3B19785   4.481   3.785   7.950
 4641POPC   C4B19786   4.459   3.779   7.650
 4642POPC   NC319787  15.982  12.067   9.450
 4642POPC   PO419788  15.933  12.100   9.150
 4642POPC   GL119789  15.998  12.114   8.850
 4642POPC   GL219790  15.943  11.961   8.850
 4642POPC   C1A19791  16.004  12.046   8.550
 4642POPC   D2A19792  15.909  12.065   8.250
 4642POPC   C3A19793  15.985  12.108   7.950
 4642POPC   C4A19794  15.998  12.054   7.650
 4642POPC   C1B19795  15.989  11.799   8.550
 4642POPC   C2B19796  15.965  11.822   8.250
 4642POPC   C3B19797  15.994  11.851   7.950
 4642POPC   C4B19798  16.012  11.802   7.650
 4643POPC   NC319799   8.973  30.739   9.450
 4643POPC   PO419800   8.955  30.654   9.150
 4643POPC   GL119801   8.928  30.735   8.850
 4643POPC   GL219802   9.077  30.744   8.850
 4643POPC   C1A19803   9.009  30.666   8.550
 4643POPC   D2A19804   9.012  30.681   8.250
 4643POPC   C3A19805   8.989  30.741   7.950
 4643POPC   C4A19806   8.973  30.737   7.650
 4643POPC   C1B19807   9.244  30.769   8.550
 4643POPC   C2B19808   9.187  30.774   8.250
 4643POPC   C3B19809   9.230  30.768   7.950
 4643POPC   C4B19810   9.253  30.746   7.650
 4644POPC   NC319811  42.347  15.218   9.450
 4644POPC   PO419812  42.374  15.184   9.150
 4644POPC   GL119813  42.339  15.204   8.850
 4644POPC   GL219814  42.383  15.091   8.850
 4644POPC   C1A19815  42.363  15.177   8.550
 4644POPC   D2A19816  42.361  15.152   8.250
 4644POPC   C3A19817  42.343  15.229   7.950
 4644POPC   C4A19818  42.297  15.132   7.650
 4644POPC   C1B19819  42.566  15.042   8.550
 4644POPC   C2B19820  42.503  15.034   8.250
 4644POPC   C3B19821  42.545  15.036   7.950
 4644POPC   C4B19822  42.496  15.010   7.650
 4645POPC   NC319823  26.009   7.442   9.450
 4645POPC   PO419824  26.038   7.467   9.150
 4645POPC   GL119825  26.033   7.434   8.850
 4645POPC   GL219826  25.960   7.318   8.850
 4645POPC   C1A19827  26.013   7.404   8.550
 4645POPC   D2A19828  26.075   7.446   8.250
 4645POPC   C3A19829  26.064   7.412   7.950
 4645POPC   C4A19830  26.080   7.386   7.650
 4645POPC   C1B19831  25.786   7.309   8.550
 4645POPC   C2B19832  25.874   7.243   8.250
 4645POPC   C3B19833  25.870   7.333   7.950
 4645POPC   C4B19834  25.863   7.277   7.650
 4646POPC   NC319835  40.828  14.427   9.450
 4646POPC   PO419836  40.733  14.401   9.150
 4646POPC   GL119837  40.775  14.426   8.850
 4646POPC   GL219838  40.872  14.373   8.850
 4646POPC   C1A19839  40.823  14.356   8.550
 4646POPC   D2A19840  40.791  14.392   8.250
 4646POPC   C3A19841  40.822  14.438   7.950
 4646POPC   C4A19842  40.769  14.414   7.650
 4646POPC   C1B19843  40.955  14.240   8.550
 4646POPC   C2B19844  40.974  14.271   8.250
 4646POPC   C3B19845  40.992  14.228   7.950
 4646POPC   C4B19846  40.967  14.297   7.650
 4647POPC   NC319847  34.576   5.863   9.450
 4647POPC   PO419848  34.585   5.857   9.150
 4647POPC   GL119849  34.559   5.917   8.850
 4647POPC   GL219850  34.488   5.825   8.850
 4647POPC   C1A19851  34.539   5.865   8.550
 4647POPC   D2A19852  34.534   5.907   8.250
 4647POPC   C3A19853  34.610   5.820   7.950
 4647POPC   C4A19854  34.549   5.858   7.650
 4647POPC   C1B19855  34.357   5.908   8.550
 4647POPC   C2B19856  34.367   5.887   8.250
 4647POPC   C3B19857  34.305   5.846   7.950
 4647POPC   C4B19858  34.337   5.851   7.650
 4648POPC   NC319859   6.681  16.764   9.450
 4648POPC   PO419860   6.602  16.755   9.150
 4648POPC   GL119861   6.611  16.740   8.850
 4648POPC   GL219862   6.670  16.618   8.850
 4648POPC   C1A19863   6.602  16.744   8.550
 4648POPC   D2A19864   6.635  16.753   8.250
 4648POPC   C3A19865   6.638  16.743   7.950
 4648POPC   C4A19866   6.640  16.698   7.650
 4648POPC   C1B19867   6.667  16.441   8.550
 4648POPC   C2B19868   6.601  16.486   8.250
 4648POPC   C3B19869   6.664  16.527   7.950
 4648POPC   C4B19870   6.638  16.498   7.650
 4649POPC   NC319871   0.481  26.865   9.450
 4649POPC   PO419872   0.421  26.823   9.150
 4649POPC   GL119873   0.403  26.824   8.850
 4649POPC   GL219874   0.523  26.683   8.850
 4649POPC   C1A19875   0.482  26.835   8.550
 4649POPC   D2A19876   0.428  26.806   8.250
 4649POPC   C3A19877   0.428  26.851   7.950
 4649POPC   C4A19878   0.396  26.790   7.650
 4649POPC   C1B19879   0.600  26.605   8.550
 4649POPC   C2B19880   0.598  26.620   8.250
 4649POPC   C3B19881   0.574  26.677   7.950
 4649POPC   C4B19882   0.650  26.655   7.650
 4650POPC   NC319883  28.403  34.565   9.450
 4650POPC   PO419884  28.321  34.611   9.150
 4650POPC   GL119885  28.379  34.605   8.850
 4650POPC   GL219886  28.430  34.475   8.850
 4650POPC   C1A19887  28.368  34.602   8.550
 4650POPC   D2A19888  28.321  34.596   8.250
 4650POPC   C3A19889  28.324  34.586   7.950
 4650POPC   C4A19890  28.389  34.533   7.650
 4650POPC   C1B19891  28.499  34.360   8.550
 4650POPC   C2B19892  28.513  34.412   8.250
 4650POPC   C3B19893  28.481  34.415   7.950
 4650POPC   C4B19894  28.531  34.369   7.650
 4651POPC   NC319895  39.989   0.419   9.450
 4651POPC   PO419896  40.012   0.458   9.150
 4651POPC   GL119897  40.045   0.390   8.850
 4651POPC   GL219898  40.149   0.407   8.850
 4651POPC   C1A19899  40.017   0.390   8.550
 4651POPC   D2A19900  40.022   0.440   8.250
 4651POPC   C3A19901  40.053   0.464   7.950
 4651POPC   C4A19902  39.997   0.430   7.650
 4651POPC   C1B19903  40.268   0.395   8.550
 4651POPC   C2B19904  40.256   0.438   8.250
 4651POPC   C3B19905  40.279   0.454   7.950
 4651POPC   C4B19906  40.256   0.407   7.650
 4652POPC   NC319907  28.383  36.922   9.450
 4652POPC   PO419908  28.343  36.940   9.150
 4652POPC   GL119909  28.416  36.873   8.850
 4652POPC   GL219910  28.225  36.798   8.850
 4652POPC   C1A19911  28.331  36.874   8.550
 4652POPC   D2A19912  28.414  36.939   8.250
 4652POPC   C3A19913  28.371  36.896   7.950
 4652POPC   C4A19914  28.413  36.935   7.650
 4652POPC   C1B19915  28.189  36.740   8.550
 4652POPC   C2B19916  28.195  36.739   8.250
 4652POPC   C3B19917  28.120  36.788   7.950
 4652POPC   C4B19918  28.187  36.813   7.650
 4653POPC   NC319919  26.079  40.003   9.450
 4653POPC   PO419920  26.047  40.002   9.150
 4653POPC   GL119921  26.023  39.983   8.850
 4653POPC   GL219922  25.946  40.132   8.850
 4653POPC   C1A19923  26.038  40.011   8.550
 4653POPC   D2A19924  25.993  40.055   8.250
 4653POPC   C3A19925  26.073  39.995   7.950
 4653POPC   C4A19926  26.067  40.000   7.650
 4653POPC   C1B19927  25.897  40.217   8.550
 4653POPC   C2B19928  25.901  40.142   8.250
 4653POPC   C3B19929  25.890  40.209   7.950
 4653POPC   C4B19930  25.807  40.212   7.650
 4654POPC   NC319931  43.072  27.552   9.450
 4654POPC   PO419932  43.096  27.576   9.150
 4654POPC   GL119933  43.149  27.615   8.850
 4654POPC   GL219934  43.142  27.493   8.850
 4654POPC   C1A19935  43.071  27.599   8.550
 4654POPC   D2A19936  43.134  27.634   8.250
 4654POPC   C3A19937  43.155  27.552   7.950
 4654POPC   C4A19938  43.076  27.583   7.650
 4654POPC   C1B19939  43.185  27.388   8.550
 4654POPC   C2B19940  43.164  27.385   8.250
 4654POPC   C3B19941  43.215  27.340   7.950
 4654POPC   C4B19942  43.246  27.331   7.650
 4655POPC   NC319943   5.097   5.084   9.450
 4655POPC   PO419944   5.098   5.121   9.150
 4655POPC   GL119945   5.055   5.114   8.850
 4655POPC   GL219946   5.128   5.228   8.850
 4655POPC   C1A19947   5.084   5.109   8.550
 4655POPC   D2A19948   5.141   5.067   8.250
 4655POPC   C3A19949   5.137   5.102   7.950
 4655POPC   C4A19950   5.082   5.075   7.650
 4655POPC   C1B19951   5.136   5.297   8.550
 4655POPC   C2B19952   5.099   5.296   8.250
 4655POPC   C3B19953   5.118   5.380   7.950
 4655POPC   C4B19954   5.075   5.328   7.650
 4656POPC   NC319955   5.869  12.841   9.450
 4656POPC   PO419956   5.916  12.854   9.150
 4656POPC   GL119957   5.857  12.894   8.850
 4656POPC   GL219958   5.754  12.807   8.850
 4656POPC   C1A19959   5.917  12.816   8.550
 4656POPC   D2A19960   5.853  12.854   8.250
 4656POPC   C3A19961   5.827  12.853   7.950
 4656POPC   C4A19962   5.885  12.840   7.650
 4656POPC   C1B19963   5.642  12.729   8.550
 4656POPC   C2B19964   5.627  12.775   8.250
 4656POPC   C3B19965   5.642  12.733   7.950
 4656POPC   C4B19966   5.673  12.731   7.650
 4657POPC   NC319967   3.509  30.681   9.450
 4657POPC   PO419968   3.579  30.745   9.150
 4657POPC   GL119969   3.571  30.725   8.850
 4657POPC   GL219970   3.628  30.744   8.850
 4657POPC   C1A19971   3.589  30.740   8.550
 4657POPC   D2A19972   3.554  30.664   8.250
 4657POPC   C3A19973   3.574  30.715   7.950
 4657POPC   C4A19974   3.537  30.665   7.650
 4657POPC   C1B19975   3.655  30.920   8.550
 4657POPC   C2B19976   3.744  30.918   8.250
 4657POPC   C3B19977   3.723  30.894   7.950
 4657POPC   C4B19978   3.713  30.912   7.650
 4658POPC   NC319979   9.705   8.200   9.450
 4658POPC   PO419980   9.705   8.217   9.150
 4658POPC   GL119981   9.774   8.186   8.850
 4658POPC   GL219982   9.836   8.239   8.850
 4658POPC   C1A19983   9.788   8.158   8.550
 4658POPC   D2A19984   9.770   8.205   8.250
 4658POPC   C3A19985   9.703   8.243   7.950
 4658POPC   C4A19986   9.735   8.153   7.650
 4658POPC   C1B19987  10.007   8.253   8.550
 4658POPC   C2B19988   9.958   8.257   8.250
 4658POPC   C3B19989   9.972   8.246   7.950
 4658POPC   C4B19990   9.980   8.257   7.650
 4659POPC   NC319991  16.688  36.114   9.450
 4659POPC   PO419992  16.742  36.107   9.150
 4659POPC   GL119993  16.715  36.175   8.850
 4659POPC   GL219994  16.849  36.213   8.850
 4659POPC   C1A19995  16.748  36.131   8.550
 4659POPC   D2A19996  16.711  36.078   8.250
 4659POPC   C3A19997  16.689  36.095   7.950
 4659POPC   C4A19998  16.720  36.155   7.650
 4659POPC   C1B19999  16.949  36.187   8.550
 4659POPC   C2B20000  16.985  36.213   8.250
 4659POPC   C3B20001  17.007  36.207   7.950
 4659POPC   C4B20002  16.981  36.272   7.650
 4660POPC   NC320003  24.479  25.220   9.450
 4660POPC   PO420004  24.520  25.314   9.150
 4660POPC   GL120005  24.517  25.281   8.850
 4660POPC   GL220006  24.330  25.237   8.850
 4660POPC   C1A20007  24.503  25.309   8.550
 4660POPC   D2A20008  24.533  25.249   8.250
 4660POPC   C3A20009  24.452  25.226   7.950
 4660POPC   C4A20010  24.505  25.271   7.650
 4660POPC   C1B20011  24.290  25.149   8.550
 4660POPC   C2B20012  24.273  25.204   8.250
 4660POPC   C3B20013  24.309  25.157   7.950
 4660POPC   C4B20014  24.215  25.167   7.650
 4661POPC   NC320015  36.078  18.259   9.450
 4661POPC   PO420016  36.154  18.264   9.150
 4661POPC   GL120017  36.161  18.323   8.850
 4661POPC   GL220018  36.022  18.148   8.850
 4661POPC   C1A20019  36.157  18.295   8.550
 4661POPC   D2A20020  36.159  18.329   8.250
 4661POPC   C3A20021  36.139  18.252   7.950
 4661POPC   C4A20022  36.083  18.330   7.650
 4661POPC   C1B20023  36.035  18.055   8.550
 4661POPC   C2B20024  36.036  18.108   8.250
 4661POPC   C3B20025  35.984  18.034   7.950
 4661POPC   C4B20026  36.023  18.062   7.650
 4662POPC   NC320027  12.893   5.116   9.450
 4662POPC   PO420028  12.848   5.112   9.150
 4662POPC   GL120029  12.813   5.068   8.850
 4662POPC   GL220030  12.798   5.194   8.850
 4662POPC   C1A20031  12.802   5.078   8.550
 4662POPC   D2A20032  12.831   5.050   8.250
 4662POPC   C3A20033  12.814   5.138   7.950
 4662POPC   C4A20034  12.840   5.068   7.650
 4662POPC   C1B20035  12.832   5.325   8.550
 4662POPC   C2B20036  12.881   5.375   8.250
 4662POPC   C3B20037  12.800   5.365   7.950
 4662POPC   C4B20038  12.823   5.317   7.650
 4663POPC   NC320039  12.041  31.446   9.450
 4663POPC   PO420040  12.088  31.450   9.150
 4663POPC   GL120041  12.066  31.444   8.850
 4663POPC   GL220042  11.962  31.423   8.850
 4663POPC   C1A20043  12.091  31.425   8.550
 4663POPC   D2A20044  12.065  31.459   8.250
 4663POPC   C3A20045  12.113  31.514   7.950
 4663POPC   C4A20046  12.096  31.485   7.650
 4663POPC   C1B20047  11.922  31.288   8.550
 4663POPC   C2B20048  11.927  31.290   8.250
 4663POPC   C3B20049  11.925  31.279   7.950
 4663POPC   C4B20050  11.888  31.238   7.650
 4664POPC   NC320051  26.853   7.425   9.450
 4664POPC   PO420052  26.780   7.442   9.150
 4664POPC   GL120053  26.858   7.411   8.850
 4664POPC   GL220054  26.845   7.544   8.850
 4664POPC   C1A20055  26.778   7.429   8.550
 4664POPC   D2A20056  26.809   7.393   8.250
 4664POPC   C3A20057  26.807   7.438   7.950
 4664POPC   C4A20058  26.861   7.374   7.650
 4664POPC   C1B20059  26.804   7.697   8.550
 4664POPC   C2B20060  26.873   7.691   8.250
 4664POPC   C3B20061  26.810   7.634   7.950
 4664POPC   C4B20062  26.795   7.643   7.650
 4665POPC   NC320063  35.380   9.700   9.450
 4665POPC   PO420064  35.353   9.784   9.150
 4665POPC   GL120065  35.358   9.713   8.850
 4665POPC   GL220066  35.322   9.619   8.850
 4665POPC   C1A20067  35.376   9.707   8.550
 4665POPC   D2A20068  35.348   9.732   8.250
 4665POPC   C3A20069  35.373   9.794   7.950
 4665POPC   C4A20070  35.324   9.768   7.650
 4665POPC   C1B20071  35.377   9.540   8.550
 4665POPC   C2B20072  35.429   9.462   8.250
 4665POPC   C3B20073  35.404   9.536   7.950
 4665POPC   C4B20074  35.349   9.465   7.650
 4666POPC   NC320075  29.881  23.683   9.450
 4666POPC   PO420076  29.906  23.670   9.150
 4666POPC   GL120077  29.897  23.665   8.850
 4666POPC   GL220078  29.795  23.756   8.850
 4666POPC   C1A20079  29.959  23.722   8.550
 4666POPC   D2A20080  29.933  23.762   8.250
 4666POPC   C3A20081  29.879  23.692   7.950
 4666POPC   C4A20082  29.897  23.732   7.650
 4666POPC   C1B20083  29.684  23.875   8.550
 4666POPC   C2B20084  29.662  23.854   8.250
 4666POPC   C3B20085  29.666  23.826   7.950
 4666POPC   C4B20086  29.688  23.833   7.650
 4667POPC   NC320087   8.174  31.448   9.450
 4667POPC   PO420088   8.216  31.438   9.150
 4667POPC   GL120089   8.230  31.521   8.850
 4667POPC   GL220090   8.081  31.350   8.850
 4667POPC   C1A20091   8.242  31.434   8.550
 4667POPC   D2A20092   8.158  31.431   8.250
 4667POPC   C3A20093   8.185  31.467   7.950
 4667POPC   C4A20094   8.226  31.470   7.650
 4667POPC   C1B20095   8.064  31.223   8.550
 4667POPC   C2B20096   8.014  31.236   8.250
 4667POPC   C3B20097   8.005  31.224   7.950
 4667POPC   C4B20098   8.089  31.311   7.650
 4668POPC   NC320099  31.515   4.338   9.450
 4668POPC   PO420100  31.504   4.307   9.150
 4668POPC   GL120101  31.428   4.335   8.850
 4668POPC   GL220102  31.621   4.213   8.850
 4668POPC   C1A20103  31.452   4.277   8.550
 4668POPC   D2A20104  31.477   4.353   8.250
 4668POPC   C3A20105  31.440   4.268   7.950
 4668POPC   C4A20106  31.490   4.339   7.650
 4668POPC   C1B20107  31.664   4.169   8.550
 4668POPC   C2B20108  31.734   4.216   8.250
 4668POPC   C3B20109  31.725   4.234   7.950
 4668POPC   C4B20110  31.704   4.223   7.650
 4669POPC   NC320111  38.503  26.018   9.450
 4669POPC   PO420112  38.405  26.072   9.150
 4669POPC   GL120113  38.496  26.089   8.850
 4669POPC   GL220114  38.399  26.105   8.850
 4669POPC   C1A20115  38.426  26.059   8.550
 4669POPC   D2A20116  38.453  26.002   8.250
 4669POPC   C3A20117  38.463  26.035   7.950
 4669POPC   C4A20118  38.428  26.078   7.650
 4669POPC   C1B20119  38.299  26.211   8.550
 4669POPC   C2B20120  38.319  26.213   8.250
 4669POPC   C3B20121  38.292  26.265   7.950
 4669POPC   C4B20122  38.301  26.229   7.650
 4670POPC   NC320123   6.622  12.859   9.450
 4670POPC   PO420124   6.678  12.830   9.150
 4670POPC   GL120125   6.653  12.881   8.850
 4670POPC   GL220126   6.741  12.712   8.850
 4670POPC   C1A20127   6.659  12.849   8.550
 4670POPC   D2A20128   6.631  12.889   8.250
 4670POPC   C3A20129   6.639  12.882   7.950
 4670POPC   C4A20130   6.638  12.839   7.650
 4670POPC   C1B20131   6.746  12.699   8.550
 4670POPC   C2B20132   6.743  12.699   8.250
 4670POPC   C3B20133   6.759  12.661   7.950
 4670POPC   C4B20134   6.775  12.643   7.650
 4671POPC   NC320135  43.861  36.887   9.450
 4671POPC   PO420136  43.879  36.932   9.150
 4671POPC   GL120137  43.847  36.906   8.850
 4671POPC   GL220138  44.027  36.953   8.850
 4671POPC   C1A20139  43.880  36.865   8.550
 4671POPC   D2A20140  43.865  36.863   8.250
 4671POPC   C3A20141  43.849  36.870   7.950
 4671POPC   C4A20142  43.906  36.869   7.650
 4671POPC   C1B20143  44.124  37.026   8.550
 4671POPC   C2B20144  44.052  37.020   8.250
 4671POPC   C3B20145  44.055  37.017   7.950
 4671POPC   C4B20146  44.094  37.045   7.650
 4672POPC   NC320147  22.136  22.133   9.450
 4672POPC   PO420148  22.210  22.143   9.150
 4672POPC   GL120149  22.189  22.160   8.850
 4672POPC   GL220150  22.233  22.263   8.850
 4672POPC   C1A20151  22.142  22.190   8.550
 4672POPC   D2A20152  22.168  22.195   8.250
 4672POPC   C3A20153  22.199  22.196   7.950
 4672POPC   C4A20154  22.132  22.189   7.650
 4672POPC   C1B20155  22.276  22.378   8.550
 4672POPC   C2B20156  22.261  22.406   8.250
 4672POPC   C3B20157  22.230  22.367   7.950
 4672POPC   C4B20158  22.219  22.439   7.650
 4673POPC   NC320159  27.635  40.041   9.450
 4673POPC   PO420160  27.616  39.997   9.150
 4673POPC   GL120161  27.618  40.042   8.850
 4673POPC   GL220162  27.712  39.975   8.850
 4673POPC   C1A20163  27.547  40.053   8.550
 4673POPC   D2A20164  27.620  39.991   8.250
 4673POPC   C3A20165  27.615  40.012   7.950
 4673POPC   C4A20166  27.610  39.971   7.650
 4673POPC   C1B20167  27.810  39.908   8.550
 4673POPC   C2B20168  27.820  39.932   8.250
 4673POPC   C3B20169  27.806  39.847   7.950
 4673POPC   C4B20170  27.841  39.904   7.650
 4674POPC   NC320171   9.021   5.919   9.450
 4674POPC   PO420172   9.016   5.914   9.150
 4674POPC   GL120173   9.012   5.869   8.850
 4674POPC   GL220174   9.034   5.919   8.850
 4674POPC   C1A20175   8.953   5.852   8.550
 4674POPC   D2A20176   8.992   5.861   8.250
 4674POPC   C3A20177   8.979   5.820   7.950
 4674POPC   C4A20178   8.968   5.849   7.650
 4674POPC   C1B20179   9.130   6.026   8.550
 4674POPC   C2B20180   9.171   6.020   8.250
 4674POPC   C3B20181   9.215   6.011   7.950
 4674POPC   C4B20182   9.137   5.995   7.650
 4675POPC   NC320183   8.216  11.294   9.450
 4675POPC   PO420184   8.204  11.276   9.150
 4675POPC   GL120185   8.210  11.260   8.850
 4675POPC   GL220186   8.320  11.289   8.850
 4675POPC   C1A20187   8.190  11.320   8.550
 4675POPC   D2A20188   8.197  11.286   8.250
 4675POPC   C3A20189   8.181  11.262   7.950
 4675POPC   C4A20190   8.213  11.252   7.650
 4675POPC   C1B20191   8.429  11.283   8.550
 4675POPC   C2B20192   8.441  11.253   8.250
 4675POPC   C3B20193   8.494  11.334   7.950
 4675POPC   C4B20194   8.446  11.264   7.650
 4676POPC   NC320195  42.333  33.833   9.450
 4676POPC   PO420196  42.367  33.752   9.150
 4676POPC   GL120197  42.318  33.822   8.850
 4676POPC   GL220198  42.237  33.897   8.850
 4676POPC   C1A20199  42.294  33.796   8.550
 4676POPC   D2A20200  42.305  33.843   8.250
 4676POPC   C3A20201  42.336  33.810   7.950
 4676POPC   C4A20202  42.360  33.776   7.650
 4676POPC   C1B20203  42.109  33.909   8.550
 4676POPC   C2B20204  42.190  33.999   8.250
 4676POPC   C3B20205  42.142  33.953   7.950
 4676POPC   C4B20206  42.144  33.916   7.650
 4677POPC   NC320207  29.169   1.955   9.450
 4677POPC   PO420208  29.180   1.949   9.150
 4677POPC   GL120209  29.106   2.039   8.850
 4677POPC   GL220210  29.079   1.876   8.850
 4677POPC   C1A20211  29.194   1.987   8.550
 4677POPC   D2A20212  29.163   2.033   8.250
 4677POPC   C3A20213  29.190   1.943   7.950
 4677POPC   C4A20214  29.130   1.983   7.650
 4677POPC   C1B20215  29.047   1.758   8.550
 4677POPC   C2B20216  29.082   1.743   8.250
 4677POPC   C3B20217  29.064   1.715   7.950
 4677POPC   C4B20218  29.029   1.777   7.650
 4678POPC   NC320219  14.366   2.793   9.450
 4678POPC   PO420220  14.400   2.756   9.150
 4678POPC   GL120221  14.366   2.797   8.850
 4678POPC   GL220222  14.305   2.862   8.850
 4678POPC   C1A20223  14.447   2.736   8.550
 4678POPC   D2A20224  14.396   2.767   8.250
 4678POPC   C3A20225  14.404   2.722   7.950
 4678POPC   C4A20226  14.361   2.805   7.650
 4678POPC   C1B20227  14.224   2.899   8.550
 4678POPC   C2B20228  14.138   2.861   8.250
 4678POPC   C3B20229  14.182   2.826   7.950
 4678POPC   C4B20230  14.211   2.841   7.650
 4679POPC   NC320231  34.565  17.531   9.450
 4679POPC   PO420232  34.531  17.519   9.150
 4679POPC   GL120233  34.575  17.553   8.850
 4679POPC   GL220234  34.623  17.352   8.850
 4679POPC   C1A20235  34.618  17.499   8.550
 4679POPC   D2A20236  34.623  17.483   8.250
 4679POPC   C3A20237  34.550  17.531   7.950
 4679POPC   C4A20238  34.589  17.500   7.650
 4679POPC   C1B20239  34.672  17.263   8.550
 4679POPC   C2B20240  34.598  17.235   8.250
 4679POPC   C3B20241  34.673  17.275   7.950
 4679POPC   C4B20242  34.602  17.297   7.650
 4680POPC   NC320243  44.660   0.463   9.450
 4680POPC   PO420244  44.662   0.416   9.150
 4680POPC   GL120245  44.614   0.413   8.850
 4680POPC   GL220246  44.502   0.403   8.850
 4680POPC   C1A20247  44.631   0.440   8.550
 4680POPC   D2A20248  44.702   0.439   8.250
 4680POPC   C3A20249  44.644   0.436   7.950
 4680POPC   C4A20250  44.659   0.486   7.650
 4680POPC   C1B20251  44.456   0.375   8.550
 4680POPC   C2B20252  44.409   0.370   8.250
 4680POPC   C3B20253  44.479   0.337   7.950
 4680POPC   C4B20254  44.386   0.291   7.650
 4681POPC   NC320255  24.524  12.836   9.450
 4681POPC   PO420256  24.508  12.802   9.150
 4681POPC   GL120257  24.468  12.890   8.850
 4681POPC   GL220258  24.392  12.848   8.850
 4681POPC   C1A20259  24.514  12.840   8.550
 4681POPC   D2A20260  24.445  12.805   8.250
 4681POPC   C3A20261  24.529  12.842   7.950
 4681POPC   C4A20262  24.477  12.813   7.650
 4681POPC   C1B20263  24.274  12.953   8.550
 4681POPC   C2B20264  24.291  12.945   8.250
 4681POPC   C3B20265  24.256  12.897   7.950
 4681POPC   C4B20266  24.255  12.961   7.650
 4682POPC   NC320267  20.581  34.530   9.450
 4682POPC   PO420268  20.614  34.622   9.150
 4682POPC   GL120269  20.654  34.551   8.850
 4682POPC   GL220270  20.506  34.472   8.850
 4682POPC   C1A20271  20.583  34.544   8.550
 4682POPC   D2A20272  20.591  34.619   8.250
 4682POPC   C3A20273  20.613  34.596   7.950
 4682POPC   C4A20274  20.600  34.537   7.650
 4682POPC   C1B20275  20.379  34.396   8.550
 4682POPC   C2B20276  20.376  34.400   8.250
 4682POPC   C3B20277  20.375  34.410   7.950
 4682POPC   C4B20278  20.415  34.467   7.650
 4683POPC   NC320279  41.548  15.937   9.450
 4683POPC   PO420280  41.549  15.937   9.150
 4683POPC   GL120281  41.582  15.967   8.850
 4683POPC   GL220282  41.426  16.069   8.850
 4683POPC   C1A20283  41.555  15.957   8.550
 4683POPC   D2A20284  41.531  15.966   8.250
 4683POPC   C3A20285  41.572  15.942   7.950
 4683POPC   C4A20286  41.512  16.004   7.650
 4683POPC   C1B20287  41.339  16.105   8.550
 4683POPC   C2B20288  41.406  16.110   8.250
 4683POPC   C3B20289  41.320  16.101   7.950
 4683POPC   C4B20290  41.395  16.136   7.650
 4684POPC   NC320291  28.374  21.366   9.450
 4684POPC   PO420292  28.398  21.368   9.150
 4684POPC   GL120293  28.403  21.417   8.850
 4684POPC   GL220294  28.308  21.334   8.850
 4684POPC   C1A20295  28.390  21.359   8.550
 4684POPC   D2A20296  28.394  21.349   8.250
 4684POPC   C3A20297  28.372  21.369   7.950
 4684POPC   C4A20298  28.360  21.360   7.650
 4684POPC   C1B20299  28.215  21.220   8.550
 4684POPC   C2B20300  28.222  21.181   8.250
 4684POPC   C3B20301  28.127  21.257   7.950
 4684POPC   C4B20302  28.195  21.201   7.650
 4685POPC   NC320303   0.422   5.828   9.450
 4685POPC   PO420304   0.472   5.866   9.150
 4685POPC   GL120305   0.467   5.871   8.850
 4685POPC   GL220306   0.518   5.761   8.850
 4685POPC   C1A20307   0.449   5.879   8.550
 4685POPC   D2A20308   0.463   5.888   8.250
 4685POPC   C3A20309   0.416   5.891   7.950
 4685POPC   C4A20310   0.388   5.846   7.650
 4685POPC   C1B20311   0.588   5.687   8.550
 4685POPC   C2B20312   0.634   5.684   8.250
 4685POPC   C3B20313   0.561   5.670   7.950
 4685POPC   C4B20314   0.560   5.690   7.650
 4686POPC   NC320315  21.385  36.890   9.450
 4686POPC   PO420316  21.404  36.867   9.150
 4686POPC   GL120317  21.393  36.863   8.850
 4686POPC   GL220318  21.307  37.048   8.850
 4686POPC   C1A20319  21.425  36.933   8.550
 4686POPC   D2A20320  21.417  36.864   8.250
 4686POPC   C3A20321  21.423  36.951   7.950
 4686POPC   C4A20322  21.362  36.884   7.650
 4686POPC   C1B20323  21.280  37.083   8.550
 4686POPC   C2B20324  21.261  37.061   8.250
 4686POPC   C3B20325  21.219  37.140   7.950
 4686POPC   C4B20326  21.288  37.093   7.650
 4687POPC   NC320327  22.182  41.582   9.450
 4687POPC   PO420328  22.153  41.540   9.150
 4687POPC   GL120329  22.179  41.531   8.850
 4687POPC   GL220330  22.088  41.546   8.850
 4687POPC   C1A20331  22.141  41.560   8.550
 4687POPC   D2A20332  22.200  41.540   8.250
 4687POPC   C3A20333  22.203  41.517   7.950
 4687POPC   C4A20334  22.168  41.606   7.650
 4687POPC   C1B20335  21.960  41.604   8.550
 4687POPC   C2B20336  21.963  41.595   8.250
 4687POPC   C3B20337  21.934  41.617   7.950
 4687POPC   C4B20338  21.963  41.586   7.650
 4688POPC   NC320339  12.080  44.688   9.450
 4688POPC   PO420340  12.090  44.648   9.150
 4688POPC   GL120341  12.083  44.641   8.850
 4688POPC   GL220342  12.006  44.712   8.850
 4688POPC   C1A20343  12.104  44.659   8.550
 4688POPC   D2A20344  12.074  44.616   8.250
 4688POPC   C3A20345  12.073  44.709   7.950
 4688POPC   C4A20346  12.113  44.679   7.650
 4688POPC   C1B20347  11.897  44.786   8.550
 4688POPC   C2B20348  11.873  44.842   8.250
 4688POPC   C3B20349  11.895  44.813   7.950
 4688POPC   C4B20350  11.870  44.784   7.650
 4689POPC   NC320351  38.437  23.673   9.450
 4689POPC   PO420352  38.486  23.717   9.150
 4689POPC   GL120353  38.432  23.675   8.850
 4689POPC   GL220354  38.403  23.846   8.850
 4689POPC   C1A20355  38.462  23.708   8.550
 4689POPC   D2A20356  38.474  23.704   8.250
 4689POPC   C3A20357  38.442  23.694   7.950
 4689POPC   C4A20358  38.457  23.728   7.650
 4689POPC   C1B20359  38.332  23.945   8.550
 4689POPC   C2B20360  38.310  23.884   8.250
 4689POPC   C3B20361  38.280  23.957   7.950
 4689POPC   C4B20362  38.361  23.955   7.650
 4690POPC   NC320363   6.602   5.833   9.450
 4690POPC   PO420364   6.640   5.884   9.150
 4690POPC   GL120365   6.633   5.912   8.850
 4690POPC   GL220366   6.777   5.909   8.850
 4690POPC   C1A20367   6.612   5.906   8.550
 4690POPC   D2A20368   6.636   5.913   8.250
 4690POPC   C3A20369   6.629   5.893   7.950
 4690POPC   C4A20370   6.617   5.854   7.650
 4690POPC   C1B20371   6.891   5.837   8.550
 4690POPC   C2B20372   6.943   5.903   8.250
 4690POPC   C3B20373   6.871   5.891   7.950
 4690POPC   C4B20374   6.884   5.854   7.650
 4691POPC   NC320375  35.364  23.710   9.450
 4691POPC   PO420376  35.342  23.721   9.150
 4691POPC   GL120377  35.327  23.699   8.850
 4691POPC   GL220378  35.301  23.858   8.850
 4691POPC   C1A20379  35.359  23.747   8.550
 4691POPC   D2A20380  35.365  23.720   8.250
 4691POPC   C3A20381  35.381  23.718   7.950
 4691POPC   C4A20382  35.319  23.746   7.650
 4691POPC   C1B20383  35.287  23.906   8.550
 4691POPC   C2B20384  35.243  23.966   8.250
 4691POPC   C3B20385  35.252  23.973   7.950
 4691POPC   C4B20386  35.272  23.915   7.650
 4692POPC   NC320387  33.799  43.090   9.450
 4692POPC   PO420388  33.767  43.131   9.150
 4692POPC   GL120389  33.771  43.124   8.850
 4692POPC   GL220390  33.851  43.044   8.850
 4692POPC   C1A20391  33.838  43.130   8.550
 4692POPC   D2A20392  33.781  43.122   8.250
 4692POPC   C3A20393  33.762  43.153   7.950
 4692POPC   C4A20394  33.845  43.131   7.650
 4692POPC   C1B20395  33.913  42.887   8.550
 4692POPC   C2B20396  33.906  42.932   8.250
 4692POPC   C3B20397  33.891  42.861   7.950
 4692POPC   C4B20398  33.930  42.923   7.650
 4693POPC   NC320399  21.399   4.365   9.450
 4693POPC   PO420400  21.424   4.286   9.150
 4693POPC   GL120401  21.367   4.290   8.850
 4693POPC   GL220402  21.287   4.355   8.850
 4693POPC   C1A20403  21.430   4.334   8.550
 4693POPC   D2A20404  21.414   4.350   8.250
 4693POPC   C3A20405  21.400   4.292   7.950
 4693POPC   C4A20406  21.357   4.320   7.650
 4693POPC   C1B20407  21.189   4.481   8.550
 4693POPC   C2B20408  21.150   4.490   8.250
 4693POPC   C3B20409  21.150   4.450   7.950
 4693POPC   C4B20410  21.150   4.498   7.650
 4694POPC   NC320411  32.243  21.368   9.450
 4694POPC   PO420412  32.229  21.425   9.150
 4694POPC   GL120413  32.272  21.382   8.850
 4694POPC   GL220414  32.296  21.258   8.850
 4694POPC   C1A20415  32.241  21.427   8.550
 4694POPC   D2A20416  32.199  21.393   8.250
 4694POPC   C3A20417  32.283  21.396   7.950
 4694POPC   C4A20418  32.208  21.356   7.650
 4694POPC   C1B20419  32.290  21.144   8.550
 4694POPC   C2B20420  32.253  21.170   8.250
 4694POPC   C3B20421  32.278  21.172   7.950
 4694POPC   C4B20422  32.225  21.127   7.650
 4695POPC   NC320423  30.722   5.123   9.450
 4695POPC   PO420424  30.703   5.139   9.150
 4695POPC   GL120425  30.708   5.102   8.850
 4695POPC   GL220426  30.663   5.187   8.850
 4695POPC   C1A20427  30.662   5.064   8.550
 4695POPC   D2A20428  30.675   5.053   8.250
 4695POPC   C3A20429  30.694   5.049   7.950
 4695POPC   C4A20430  30.702   5.127   7.650
 4695POPC   C1B20431  30.710   5.317   8.550
 4695POPC   C2B20432  30.747   5.377   8.250
 4695POPC   C3B20433  30.683   5.378   7.950
 4695POPC   C4B20434  30.735   5.294   7.650
 4696POPC   NC320435   1.965   2.782   9.450
 4696POPC   PO420436   1.953   2.724   9.150
 4696POPC   GL120437   1.985   2.798   8.850
 4696POPC   GL220438   1.829   2.802   8.850
 4696POPC   C1A20439   2.021   2.740   8.550
 4696POPC   D2A20440   2.001   2.778   8.250
 4696POPC   C3A20441   2.025   2.727   7.950
 4696POPC   C4A20442   2.027   2.772   7.650
 4696POPC   C1B20443   1.790   2.857   8.550
 4696POPC   C2B20444   1.806   2.886   8.250
 4696POPC   C3B20445   1.797   2.871   7.950
 4696POPC   C4B20446   1.741   2.873   7.650
 4697POPC   NC320447  18.254   6.670   9.450
 4697POPC   PO420448  18.245   6.618   9.150
 4697POPC   GL120449  18.318   6.645   8.850
 4697POPC   GL220450  18.307   6.721   8.850
 4697POPC   C1A20451  18.281   6.653   8.550
 4697POPC   D2A20452  18.323   6.684   8.250
 4697POPC   C3A20453  18.250   6.624   7.950
 4697POPC   C4A20454  18.268   6.659   7.650
 4697POPC   C1B20455  18.410   6.867   8.550
 4697POPC   C2B20456  18.406   6.860   8.250
 4697POPC   C3B20457  18.412   6.885   7.950
 4697POPC   C4B20458  18.431   6.884   7.650
 4698POPC   NC320459  25.262   3.538   9.450
 4698POPC   PO420460  25.264   3.531   9.150
 4698POPC   GL120461  25.254   3.539   8.850
 4698POPC   GL220462  25.125   3.552   8.850
 4698POPC   C1A20463  25.276   3.546   8.550
 4698POPC   D2A20464  25.264   3.574   8.250
 4698POPC   C3A20465  25.301   3.591   7.950
 4698POPC   C4A20466  25.276   3.515   7.650
 4698POPC   C1B20467  25.023   3.535   8.550
 4698POPC   C2B20468  24.976   3.530   8.250
 4698POPC   C3B20469  25.046   3.548   7.950
 4698POPC   C4B20470  25.049   3.503   7.650
 4699POPC   NC320471  26.833   9.017   9.450
 4699POPC   PO420472  26.789   8.978   9.150
 4699POPC   GL120473  26.786   9.015   8.850
 4699POPC   GL220474  26.676   8.863   8.850
 4699POPC   C1A20475  26.836   8.978   8.550
 4699POPC   D2A20476  26.801   9.020   8.250
 4699POPC   C3A20477  26.817   9.015   7.950
 4699POPC   C4A20478  26.826   9.013   7.650
 4699POPC   C1B20479  26.622   8.787   8.550
 4699POPC   C2B20480  26.579   8.874   8.250
 4699POPC   C3B20481  26.642   8.856   7.950
 4699POPC   C4B20482  26.584   8.809   7.650
 4700POPC   NC320483  12.103  26.851   9.450
 4700POPC   PO420484  12.105  26.851   9.150
 4700POPC   GL120485  12.087  26.833   8.850
 4700POPC   GL220486  12.096  26.904   8.850
 4700POPC   C1A20487  12.044  26.856   8.550
 4700POPC   D2A20488  12.029  26.775   8.250
 4700POPC   C3A20489  12.102  26.865   7.950
 4700POPC   C4A20490  12.084  26.801   7.650
 4700POPC   C1B20491  12.124  27.101   8.550
 4700POPC   C2B20492  12.089  27.076   8.250
 4700POPC   C3B20493  12.120  27.077   7.950
 4700POPC   C4B20494  12.105  27.027   7.650
 4701POPC   NC320495  40.738  22.977   9.450
 4701POPC   PO420496  40.830  22.898   9.150
 4701POPC   GL120497  40.826  22.986   8.850
 4701POPC   GL220498  40.807  22.767   8.850
 4701POPC   C1A20499  40.825  22.907   8.550
 4701POPC   D2A20500  40.751  22.892   8.250
 4701POPC   C3A20501  40.739  22.926   7.950
 4701POPC   C4A20502  40.760  22.965   7.650
 4701POPC   C1B20503  40.783  22.710   8.550
 4701POPC   C2B20504  40.736  22.695   8.250
 4701POPC   C3B20505  40.715  22.728   7.950
 4701POPC   C4B20506  40.745  22.712   7.650
 4702POPC   NC320507   2.796  32.252   9.450
 4702POPC   PO420508   2.761  32.290   9.150
 4702POPC   GL120509   2.749  32.288   8.850
 4702POPC   GL220510   2.655  32.372   8.850
 4702POPC   C1A20511   2.740  32.293   8.550
 4702POPC   D2A20512   2.793  32.278   8.250
 4702POPC   C3A20513   2.749  32.273   7.950
 4702POPC   C4A20514   2.741  32.251   7.650
 4702POPC   C1B20515   2.629  32.404   8.550
 4702POPC   C2B20516   2.651  32.458   8.250
 4702POPC   C3B20517   2.599  32.407   7.950
 4702POPC   C4B20518   2.634  32.475   7.650
 4703POPC   NC320519  30.739   2.807   9.450
 4703POPC   PO420520  30.704   2.733   9.150
 4703POPC   GL120521  30.665   2.783   8.850
 4703POPC   GL220522  30.556   2.821   8.850
 4703POPC   C1A20523  30.722   2.739   8.550
 4703POPC   D2A20524  30.729   2.779   8.250
 4703POPC   C3A20525  30.683   2.812   7.950
 4703POPC   C4A20526  30.727   2.758   7.650
 4703POPC   C1B20527  30.489   2.886   8.550
 4703POPC   C2B20528  30.508   2.950   8.250
 4703POPC   C3B20529  30.457   2.902   7.950
 4703POPC   C4B20530  30.540   2.883   7.650
 4704POPC   NC320531  20.590   2.803   9.450
 4704POPC   PO420532  20.643   2.782   9.150
 4704POPC   GL120533  20.631   2.735   8.850
 4704POPC   GL220534  20.632   2.875   8.850
 4704POPC   C1A20535  20.605   2.760   8.550
 4704POPC   D2A20536  20.588   2.754   8.250
 4704POPC   C3A20537  20.580   2.786   7.950
 4704POPC   C4A20538  20.571   2.786   7.650
 4704POPC   C1B20539  20.721   2.953   8.550
 4704POPC   C2B20540  20.709   2.949   8.250
 4704POPC   C3B20541  20.754   2.984   7.950
 4704POPC   C4B20542  20.714   3.008   7.650
 4705POPC   NC320543  18.314  40.828   9.450
 4705POPC   PO420544  18.235  40.758   9.150
 4705POPC   GL120545  18.329  40.755   8.850
 4705POPC   GL220546  18.440  40.808   8.850
 4705POPC   C1A20547  18.262  40.790   8.550
 4705POPC   D2A20548  18.298  40.733   8.250
 4705POPC   C3A20549  18.281  40.803   7.950
 4705POPC   C4A20550  18.282  40.785   7.650
 4705POPC   C1B20551  18.523  40.743   8.550
 4705POPC   C2B20552  18.533  40.730   8.250
 4705POPC   C3B20553  18.498  40.700   7.950
 4705POPC   C4B20554  18.500  40.786   7.650
 4706POPC   NC320555  32.201  25.296   9.450
 4706POPC   PO420556  32.296  25.303   9.150
 4706POPC   GL120557  32.244  25.306   8.850
 4706POPC   GL220558  32.122  25.366   8.850
 4706POPC   C1A20559  32.298  25.227   8.550
 4706POPC   D2A20560  32.239  25.216   8.250
 4706POPC   C3A20561  32.200  25.300   7.950
 4706POPC   C4A20562  32.270  25.229   7.650
 4706POPC   C1B20563  32.077  25.469   8.550
 4706POPC   C2B20564  32.089  25.462   8.250
 4706POPC   C3B20565  32.040  25.418   7.950
 4706POPC   C4B20566  32.100  25.409   7.650
 4707POPC   NC320567   7.464   4.353   9.450
 4707POPC   PO420568   7.414   4.356   9.150
 4707POPC   GL120569   7.452   4.363   8.850
 4707POPC   GL220570   7.328   4.255   8.850
 4707POPC   C1A20571   7.388   4.356   8.550
 4707POPC   D2A20572   7.377   4.349   8.250
 4707POPC   C3A20573   7.387   4.334   7.950
 4707POPC   C4A20574   7.387   4.358   7.650
 4707POPC   C1B20575   7.235   4.147   8.550
 4707POPC   C2B20576   7.183   4.218   8.250
 4707POPC   C3B20577   7.235   4.190   7.950
 4707POPC   C4B20578   7.240   4.233   7.650
 4708POPC   NC320579  29.895   3.506   9.450
 4708POPC   PO420580  29.943   3.514   9.150
 4708POPC   GL120581  29.954   3.505   8.850
 4708POPC   GL220582  29.949   3.421   8.850
 4708POPC   C1A20583  29.893   3.574   8.550
 4708POPC   D2A20584  29.920   3.524   8.250
 4708POPC   C3A20585  29.891   3.502   7.950
 4708POPC   C4A20586  29.930   3.529   7.650
 4708POPC   C1B20587  30.023   3.269   8.550
 4708POPC   C2B20588  30.024   3.272   8.250
 4708POPC   C3B20589  30.060   3.358   7.950
 4708POPC   C4B20590  30.003   3.330   7.650
 4709POPC   NC320591   8.161   6.595   9.450
 4709POPC   PO420592   8.241   6.622   9.150
 4709POPC   GL120593   8.161   6.691   8.850
 4709POPC   GL220594   8.314   6.661   8.850
 4709POPC   C1A20595   8.192   6.669   8.550
 4709POPC   D2A20596   8.156   6.662   8.250
 4709POPC   C3A20597   8.166   6.687   7.950
 4709POPC   C4A20598   8.165   6.681   7.650
 4709POPC   C1B20599   8.450   6.596   8.550
 4709POPC   C2B20600   8.466   6.608   8.250
 4709POPC   C3B20601   8.396   6.550   7.950
 4709POPC   C4B20602   8.451   6.554   7.650
 4710POPC   NC320603  26.040  43.898   9.450
 4710POPC   PO420604  26.013  43.879   9.150
 4710POPC   GL120605  26.007  43.845   8.850
 4710POPC   GL220606  26.042  43.757   8.850
 4710POPC   C1A20607  26.028  43.853   8.550
 4710POPC   D2A20608  25.997  43.876   8.250
 4710POPC   C3A20609  26.007  43.931   7.950
 4710POPC   C4A20610  26.072  43.913   7.650
 4710POPC   C1B20611  26.005  43.656   8.550
 4710POPC   C2B20612  26.024  43.660   8.250
 4710POPC   C3B20613  26.066  43.618   7.950
 4710POPC   C4B20614  26.032  43.669   7.650
 4711POPC   NC320615  12.079  35.345   9.450
 4711POPC   PO420616  12.040  35.321   9.150
 4711POPC   GL120617  12.052  35.335   8.850
 4711POPC   GL220618  12.057  35.441   8.850
 4711POPC   C1A20619  12.105  35.343   8.550
 4711POPC   D2A20620  12.052  35.329   8.250
 4711POPC   C3A20621  12.037  35.387   7.950
 4711POPC   C4A20622  12.045  35.309   7.650
 4711POPC   C1B20623  12.013  35.559   8.550
 4711POPC   C2B20624  11.921  35.581   8.250
 4711POPC   C3B20625  12.009  35.563   7.950
 4711POPC   C4B20626  11.982  35.558   7.650
 4712POPC   NC320627  20.594  13.629   9.450
 4712POPC   PO420628  20.637  13.675   9.150
 4712POPC   GL120629  20.651  13.621   8.850
 4712POPC   GL220630  20.575  13.505   8.850
 4712POPC   C1A20631  20.625  13.584   8.550
 4712POPC   D2A20632  20.578  13.600   8.250
 4712POPC   C3A20633  20.613  13.651   7.950
 4712POPC   C4A20634  20.601  13.613   7.650
 4712POPC   C1B20635  20.593  13.400   8.550
 4712POPC   C2B20636  20.595  13.329   8.250
 4712POPC   C3B20637  20.570  13.352   7.950
 4712POPC   C4B20638  20.541  13.335   7.650
 4713POPC   NC320639   5.120   6.649   9.450
 4713POPC   PO420640   5.122   6.682   9.150
 4713POPC   GL120641   5.066   6.604   8.850
 4713POPC   GL220642   5.180   6.530   8.850
 4713POPC   C1A20643   5.137   6.622   8.550
 4713POPC   D2A20644   5.060   6.603   8.250
 4713POPC   C3A20645   5.121   6.638   7.950
 4713POPC   C4A20646   5.100   6.661   7.650
 4713POPC   C1B20647   5.295   6.441   8.550
 4713POPC   C2B20648   5.297   6.440   8.250
 4713POPC   C3B20649   5.315   6.484   7.950
 4713POPC   C4B20650   5.317   6.434   7.650
 4714POPC   NC320651  22.934   8.165   9.450
 4714POPC   PO420652  22.959   8.197   9.150
 4714POPC   GL120653  22.897   8.161   8.850
 4714POPC   GL220654  23.051   8.293   8.850
 4714POPC   C1A20655  22.947   8.182   8.550
 4714POPC   D2A20656  22.891   8.218   8.250
 4714POPC   C3A20657  22.955   8.164   7.950
 4714POPC   C4A20658  22.964   8.237   7.650
 4714POPC   C1B20659  23.187   8.336   8.550
 4714POPC   C2B20660  23.130   8.313   8.250
 4714POPC   C3B20661  23.163   8.358   7.950
 4714POPC   C4B20662  23.130   8.347   7.650
 4715POPC   NC320663  36.107  22.192   9.450
 4715POPC   PO420664  36.152  22.118   9.150
 4715POPC   GL120665  36.176  22.152   8.850
 4715POPC   GL220666  36.115  22.235   8.850
 4715POPC   C1A20667  36.118  22.142   8.550
 4715POPC   D2A20668  36.157  22.178   8.250
 4715POPC   C3A20669  36.086  22.167   7.950
 4715POPC   C4A20670  36.149  22.182   7.650
 4715POPC   C1B20671  36.111  22.376   8.550
 4715POPC   C2B20672  36.107  22.419   8.250
 4715POPC   C3B20673  36.124  22.404   7.950
 4715POPC   C4B20674  36.054  22.450   7.650
 4716POPC   NC320675   1.171  28.384   9.450
 4716POPC   PO420676   1.209  28.381   9.150
 4716POPC   GL120677   1.263  28.384   8.850
 4716POPC   GL220678   1.148  28.275   8.850
 4716POPC   C1A20679   1.206  28.386   8.550
 4716POPC   D2A20680   1.230  28.355   8.250
 4716POPC   C3A20681   1.187  28.384   7.950
 4716POPC   C4A20682   1.214  28.348   7.650
 4716POPC   C1B20683   1.068  28.195   8.550
 4716POPC   C2B20684   1.000  28.152   8.250
 4716POPC   C3B20685   1.045  28.181   7.950
 4716POPC   C4B20686   1.051  28.156   7.650
 4717POPC   NC320687  19.025  30.717   9.450
 4717POPC   PO420688  19.087  30.700   9.150
 4717POPC   GL120689  19.089  30.659   8.850
 4717POPC   GL220690  18.962  30.734   8.850
 4717POPC   C1A20691  19.031  30.684   8.550
 4717POPC   D2A20692  19.092  30.711   8.250
 4717POPC   C3A20693  19.099  30.727   7.950
 4717POPC   C4A20694  19.041  30.694   7.650
 4717POPC   C1B20695  18.809  30.742   8.550
 4717POPC   C2B20696  18.845  30.706   8.250
 4717POPC   C3B20697  18.816  30.752   7.950
 4717POPC   C4B20698  18.788  30.702   7.650
 4718POPC   NC320699   9.795   3.543   9.450
 4718POPC   PO420700   9.772   3.533   9.150
 4718POPC   GL120701   9.789   3.537   8.850
 4718POPC   GL220702   9.792   3.697   8.850
 4718POPC   C1A20703   9.731   3.528   8.550
 4718POPC   D2A20704   9.735   3.511   8.250
 4718POPC   C3A20705   9.779   3.513   7.950
 4718POPC   C4A20706   9.772   3.517   7.650
 4718POPC   C1B20707   9.758   3.801   8.550
 4718POPC   C2B20708   9.816   3.820   8.250
 4718POPC   C3B20709   9.792   3.789   7.950
 4718POPC   C4B20710   9.821   3.778   7.650
 4719POPC   NC320711  44.649   7.440   9.450
 4719POPC   PO420712  44.710   7.397   9.150
 4719POPC   GL120713  44.629   7.410   8.850
 4719POPC   GL220714  44.511   7.436   8.850
 4719POPC   C1A20715  44.667   7.441   8.550
 4719POPC   D2A20716  44.652   7.396   8.250
 4719POPC   C3A20717  44.613   7.442   7.950
 4719POPC   C4A20718  44.673   7.376   7.650
 4719POPC   C1B20719  44.428   7.419   8.550
 4719POPC   C2B20720  44.369   7.424   8.250
 4719POPC   C3B20721  44.462   7.347   7.950
 4719POPC   C4B20722  44.394   7.374   7.650
 4720POPC   NC320723  38.454  33.068   9.450
 4720POPC   PO420724  38.423  33.058   9.150
 4720POPC   GL120725  38.422  32.991   8.850
 4720POPC   GL220726  38.392  32.858   8.850
 4720POPC   C1A20727  38.468  33.036   8.550
 4720POPC   D2A20728  38.476  32.984   8.250
 4720POPC   C3A20729  38.439  33.050   7.950
 4720POPC   C4A20730  38.470  33.016   7.650
 4720POPC   C1B20731  38.372  32.739   8.550
 4720POPC   C2B20732  38.421  32.807   8.250
 4720POPC   C3B20733  38.422  32.810   7.950
 4720POPC   C4B20734  38.419  32.808   7.650
 4721POPC   NC320735  12.814   8.956   9.450
 4721POPC   PO420736  12.832   8.923   9.150
 4721POPC   GL120737  12.832   8.971   8.850
 4721POPC   GL220738  12.882   9.084   8.850
 4721POPC   C1A20739  12.816   9.019   8.550
 4721POPC   D2A20740  12.878   8.977   8.250
 4721POPC   C3A20741  12.806   8.927   7.950
 4721POPC   C4A20742  12.871   9.020   7.650
 4721POPC   C1B20743  12.827   9.211   8.550
 4721POPC   C2B20744  12.809   9.194   8.250
 4721POPC   C3B20745  12.872   9.193   7.950
 4721POPC   C4B20746  12.858   9.195   7.650
 4722POPC   NC320747  18.322  35.399   9.450
 4722POPC   PO420748  18.240  35.357   9.150
 4722POPC   GL120749  18.254  35.395   8.850
 4722POPC   GL220750  18.402  35.291   8.850
 4722POPC   C1A20751  18.274  35.327   8.550
 4722POPC   D2A20752  18.309  35.391   8.250
 4722POPC   C3A20753  18.243  35.337   7.950
 4722POPC   C4A20754  18.278  35.324   7.650
 4722POPC   C1B20755  18.473  35.149   8.550
 4722POPC   C2B20756  18.467  35.146   8.250
 4722POPC   C3B20757  18.417  35.223   7.950
 4722POPC   C4B20758  18.474  35.138   7.650
 4723POPC   NC320759  23.683   4.311   9.450
 4723POPC   PO420760  23.685   4.293   9.150
 4723POPC   GL120761  23.670   4.304   8.850
 4723POPC   GL220762  23.610   4.274   8.850
 4723POPC   C1A20763  23.723   4.301   8.550
 4723POPC   D2A20764  23.751   4.276   8.250
 4723POPC   C3A20765  23.746   4.350   7.950
 4723POPC   C4A20766  23.675   4.318   7.650
 4723POPC   C1B20767  23.419   4.288   8.550
 4723POPC   C2B20768  23.456   4.288   8.250
 4723POPC   C3B20769  23.465   4.296   7.950
 4723POPC   C4B20770  23.414   4.315   7.650
 4724POPC   NC320771   2.797  33.043   9.450
 4724POPC   PO420772   2.762  32.985   9.150
 4724POPC   GL120773   2.751  32.992   8.850
 4724POPC   GL220774   2.775  33.161   8.850
 4724POPC   C1A20775   2.734  33.050   8.550
 4724POPC   D2A20776   2.746  33.023   8.250
 4724POPC   C3A20777   2.780  33.001   7.950
 4724POPC   C4A20778   2.772  32.975   7.650
 4724POPC   C1B20779   2.808  33.260   8.550
 4724POPC   C2B20780   2.830  33.232   8.250
 4724POPC   C3B20781   2.833  33.308   7.950
 4724POPC   C4B20782   2.874  33.263   7.650
 4725POPC   NC320783  29.947  12.844   9.450
 4725POPC   PO420784  29.936  12.821   9.150
 4725POPC   GL120785  29.935  12.849   8.850
 4725POPC   GL220786  29.799  12.872   8.850
 4725POPC   C1A20787  29.961  12.887   8.550
 4725POPC   D2A20788  29.903  12.848   8.250
 4725POPC   C3A20789  29.936  12.862   7.950
 4725POPC   C4A20790  29.932  12.842   7.650
 4725POPC   C1B20791  29.640  12.850   8.550
 4725POPC   C2B20792  29.654  12.823   8.250
 4725POPC   C3B20793  29.714  12.832   7.950
 4725POPC   C4B20794  29.697  12.756   7.650
 4726POPC   NC320795  14.389  22.939   9.450
 4726POPC   PO420796  14.376  22.918   9.150
 4726POPC   GL120797  14.416  22.941   8.850
 4726POPC   GL220798  14.305  23.018   8.850
 4726POPC   C1A20799  14.366  22.910   8.550
 4726POPC   D2A20800  14.444  22.920   8.250
 4726POPC   C3A20801  14.382  22.975   7.950
 4726POPC   C4A20802  14.427  22.983   7.650
 4726POPC   C1B20803  14.299  23.142   8.550
 4726POPC   C2B20804  14.255  23.181   8.250
 4726POPC   C3B20805  14.332  23.121   7.950
 4726POPC   C4B20806  14.300  23.195   7.650
 4727POPC   NC320807  36.944   8.968   9.450
 4727POPC   PO420808  36.947   9.005   9.150
 4727POPC   GL120809  36.911   8.941   8.850
 4727POPC   GL220810  36.768   9.005   8.850
 4727POPC   C1A20811  36.939   8.937   8.550
 4727POPC   D2A20812  36.872   8.939   8.250
 4727POPC   C3A20813  36.915   8.936   7.950
 4727POPC   C4A20814  36.912   8.954   7.650
 4727POPC   C1B20815  36.703   8.998   8.550
 4727POPC   C2B20816  36.669   8.969   8.250
 4727POPC   C3B20817  36.649   8.978   7.950
 4727POPC   C4B20818  36.669   8.967   7.650
 4728POPC   NC320819  24.483  37.717   9.450
 4728POPC   PO420820  24.512  37.699   9.150
 4728POPC   GL120821  24.452  37.677   8.850
 4728POPC   GL220822  24.453  37.559   8.850
 4728POPC   C1A20823  24.460  37.641   8.550
 4728POPC   D2A20824  24.465  37.709   8.250
 4728POPC   C3A20825  24.440  37.634   7.950
 4728POPC   C4A20826  24.465  37.629   7.650
 4728POPC   C1B20827  24.327  37.502   8.550
 4728POPC   C2B20828  24.352  37.482   8.250
 4728POPC   C3B20829  24.305  37.487   7.950
 4728POPC   C4B20830  24.325  37.501   7.650
 4729POPC   NC320831   0.443  12.125   9.450
 4729POPC   PO420832   0.482  12.096   9.150
 4729POPC   GL120833   0.432  12.109   8.850
 4729POPC   GL220834   0.400  12.220   8.850
 4729POPC   C1A20835   0.410  12.109   8.550
 4729POPC   D2A20836   0.486  12.121   8.250
 4729POPC   C3A20837   0.474  12.036   7.950
 4729POPC   C4A20838   0.407  12.073   7.650
 4729POPC   C1B20839   0.434  12.358   8.550
 4729POPC   C2B20840   0.454  12.336   8.250
 4729POPC   C3B20841   0.439  12.320   7.950
 4729POPC   C4B20842   0.485  12.335   7.650
 4730POPC   NC320843  10.534  44.684   9.450
 4730POPC   PO420844  10.558  44.687   9.150
 4730POPC   GL120845  10.535  44.615   8.850
 4730POPC   GL220846  10.495  44.522   8.850
 4730POPC   C1A20847  10.502  44.681   8.550
 4730POPC   D2A20848  10.506  44.656   8.250
 4730POPC   C3A20849  10.552  44.706   7.950
 4730POPC   C4A20850  10.510  44.702   7.650
 4730POPC   C1B20851  10.536  44.390   8.550
 4730POPC   C2B20852  10.562  44.394   8.250
 4730POPC   C3B20853  10.551  44.393   7.950
 4730POPC   C4B20854  10.508  44.363   7.650
 4731POPC   NC320855  12.058  17.533   9.450
 4731POPC   PO420856  12.047  17.524   9.150
 4731POPC   GL120857  12.038  17.520   8.850
 4731POPC   GL220858  11.919  17.499   8.850
 4731POPC   C1A20859  12.029  17.507   8.550
 4731POPC   D2A20860  12.118  17.462   8.250
 4731POPC   C3A20861  12.044  17.464   7.950
 4731POPC   C4A20862  12.039  17.458   7.650
 4731POPC   C1B20863  11.833  17.489   8.550
 4731POPC   C2B20864  11.848  17.485   8.250
 4731POPC   C3B20865  11.792  17.498   7.950
 4731POPC   C4B20866  11.809  17.491   7.650
 4732POPC   NC320867  10.542  39.231   9.450
 4732POPC   PO420868  10.553  39.225   9.150
 4732POPC   GL120869  10.518  39.268   8.850
 4732POPC   GL220870  10.474  39.396   8.850
 4732POPC   C1A20871  10.559  39.205   8.550
 4732POPC   D2A20872  10.491  39.246   8.250
 4732POPC   C3A20873  10.517  39.205   7.950
 4732POPC   C4A20874  10.542  39.201   7.650
 4732POPC   C1B20875  10.470  39.492   8.550
 4732POPC   C2B20876  10.477  39.440   8.250
 4732POPC   C3B20877  10.429  39.501   7.950
 4732POPC   C4B20878  10.506  39.464   7.650
 4733POPC   NC320879   1.976   7.460   9.450
 4733POPC   PO420880   2.000   7.431   9.150
 4733POPC   GL120881   2.020   7.450   8.850
 4733POPC   GL220882   1.987   7.550   8.850
 4733POPC   C1A20883   2.038   7.410   8.550
 4733POPC   D2A20884   2.029   7.439   8.250
 4733POPC   C3A20885   1.943   7.386   7.950
 4733POPC   C4A20886   2.009   7.380   7.650
 4733POPC   C1B20887   1.987   7.709   8.550
 4733POPC   C2B20888   2.033   7.627   8.250
 4733POPC   C3B20889   1.999   7.651   7.950
 4733POPC   C4B20890   2.034   7.661   7.650
 4734POPC   NC320891   5.823  19.058   9.450
 4734POPC   PO420892   5.905  19.017   9.150
 4734POPC   GL120893   5.874  19.028   8.850
 4734POPC   GL220894   6.022  19.032   8.850
 4734POPC   C1A20895   5.824  19.106   8.550
 4734POPC   D2A20896   5.888  19.070   8.250
 4734POPC   C3A20897   5.859  19.033   7.950
 4734POPC   C4A20898   5.875  19.103   7.650
 4734POPC   C1B20899   6.151  18.972   8.550
 4734POPC   C2B20900   6.136  18.996   8.250
 4734POPC   C3B20901   6.094  18.949   7.950
 4734POPC   C4B20902   6.085  18.998   7.650
 4735POPC   NC320903  22.926  40.013   9.450
 4735POPC   PO420904  22.905  40.000   9.150
 4735POPC   GL120905  22.950  40.052   8.850
 4735POPC   GL220906  23.015  40.066   8.850
 4735POPC   C1A20907  22.977  40.004   8.550
 4735POPC   D2A20908  22.905  40.055   8.250
 4735POPC   C3A20909  22.907  40.053   7.950
 4735POPC   C4A20910  22.894  39.963   7.650
 4735POPC   C1B20911  23.071  40.193   8.550
 4735POPC   C2B20912  23.058  40.186   8.250
 4735POPC   C3B20913  23.037  40.239   7.950
 4735POPC   C4B20914  23.100  40.252   7.650
 4736POPC   NC320915  41.534  24.515   9.450
 4736POPC   PO420916  41.588  24.539   9.150
 4736POPC   GL120917  41.517  24.490   8.850
 4736POPC   GL220918  41.516  24.338   8.850
 4736POPC   C1A20919  41.527  24.496   8.550
 4736POPC   D2A20920  41.551  24.516   8.250
 4736POPC   C3A20921  41.572  24.445   7.950
 4736POPC   C4A20922  41.577  24.474   7.650
 4736POPC   C1B20923  41.468  24.229   8.550
 4736POPC   C2B20924  41.381  24.317   8.250
 4736POPC   C3B20925  41.431  24.228   7.950
 4736POPC   C4B20926  41.406  24.229   7.650
 4737POPC   NC320927  19.827  31.464   9.450
 4737POPC   PO420928  19.829  31.451   9.150
 4737POPC   GL120929  19.807  31.423   8.850
 4737POPC   GL220930  19.989  31.475   8.850
 4737POPC   C1A20931  19.807  31.467   8.550
 4737POPC   D2A20932  19.803  31.479   8.250
 4737POPC   C3A20933  19.867  31.474   7.950
 4737POPC   C4A20934  19.840  31.431   7.650
 4737POPC   C1B20935  20.067  31.432   8.550
 4737POPC   C2B20936  20.058  31.418   8.250
 4737POPC   C3B20937  20.075  31.461   7.950
 4737POPC   C4B20938  20.053  31.407   7.650
 4738POPC   NC320939  15.206  11.313   9.450
 4738POPC   PO420940  15.215  11.308   9.150
 4738POPC   GL120941  15.130  11.302   8.850
 4738POPC   GL220942  15.089  11.204   8.850
 4738POPC   C1A20943  15.150  11.309   8.550
 4738POPC   D2A20944  15.158  11.332   8.250
 4738POPC   C3A20945  15.174  11.279   7.950
 4738POPC   C4A20946  15.168  11.257   7.650
 4738POPC   C1B20947  14.908  11.140   8.550
 4738POPC   C2B20948  14.962  11.176   8.250
 4738POPC   C3B20949  14.969  11.140   7.950
 4738POPC   C4B20950  14.921  11.184   7.650
 4739POPC   NC320951   3.559  44.702   9.450
 4739POPC   PO420952   3.565  44.635   9.150
 4739POPC   GL120953   3.521  44.687   8.850
 4739POPC   GL220954   3.558  44.490   8.850
 4739POPC   C1A20955   3.552  44.656   8.550
 4739POPC   D2A20956   3.526  44.614   8.250
 4739POPC   C3A20957   3.498  44.655   7.950
 4739POPC   C4A20958   3.589  44.667   7.650
 4739POPC   C1B20959   3.557  44.368   8.550
 4739POPC   C2B20960   3.520  44.401   8.250
 4739POPC   C3B20961   3.563  44.391   7.950
 4739POPC   C4B20962   3.571  44.456   7.650
 4740POPC   NC320963  43.072   9.004   9.450
 4740POPC   PO420964  43.096   8.950   9.150
 4740POPC   GL120965  43.129   8.925   8.850
 4740POPC   GL220966  43.111   8.813   8.850
 4740POPC   C1A20967  43.153   8.965   8.550
 4740POPC   D2A20968  43.090   8.932   8.250
 4740POPC   C3A20969  43.136   8.975   7.950
 4740POPC   C4A20970  43.107   8.929   7.650
 4740POPC   C1B20971  43.017   8.718   8.550
 4740POPC   C2B20972  42.992   8.698   8.250
 4740POPC   C3B20973  43.061   8.770   7.950
 4740POPC   C4B20974  42.984   8.696   7.650
 4741POPC   NC320975  16.710  19.069   9.450
 4741POPC   PO420976  16.765  19.062   9.150
 4741POPC   GL120977  16.684  19.101   8.850
 4741POPC   GL220978  16.887  18.970   8.850
 4741POPC   C1A20979  16.767  19.057   8.550
 4741POPC   D2A20980  16.690  19.012   8.250
 4741POPC   C3A20981  16.737  19.071   7.950
 4741POPC   C4A20982  16.700  19.042   7.650
 4741POPC   C1B20983  16.979  18.959   8.550
 4741POPC   C2B20984  16.998  18.960   8.250
 4741POPC   C3B20985  16.941  18.937   7.950
 4741POPC   C4B20986  16.951  18.951   7.650
 4742POPC   NC320987  30.673  14.357   9.450
 4742POPC   PO420988  30.650  14.376   9.150
 4742POPC   GL120989  30.742  14.355   8.850
 4742POPC   GL220990  30.586  14.463   8.850
 4742POPC   C1A20991  30.675  14.360   8.550
 4742POPC   D2A20992  30.738  14.413   8.250
 4742POPC   C3A20993  30.686  14.423   7.950
 4742POPC   C4A20994  30.744  14.419   7.650
 4742POPC   C1B20995  30.496  14.592   8.550
 4742POPC   C2B20996  30.492  14.530   8.250
 4742POPC   C3B20997  30.555  14.604   7.950
 4742POPC   C4B20998  30.498  14.582   7.650
 4743POPC   NC320999  38.446  17.528   9.450
 4743POPC   PO421000  38.467  17.526   9.150
 4743POPC   GL121001  38.420  17.460   8.850
 4743POPC   GL221002  38.593  17.496   8.850
 4743POPC   C1A21003  38.427  17.526   8.550
 4743POPC   D2A21004  38.463  17.543   8.250
 4743POPC   C3A21005  38.414  17.533   7.950
 4743POPC   C4A21006  38.412  17.510   7.650
 4743POPC   C1B21007  38.660  17.512   8.550
 4743POPC   C2B21008  38.670  17.456   8.250
 4743POPC   C3B21009  38.751  17.480   7.950
 4743POPC   C4B21010  38.722  17.519   7.650
 4744POPC   NC321011  25.993  19.817   9.450
 4744POPC   PO421012  26.050  19.853   9.150
 4744POPC   GL121013  26.088  19.792   8.850
 4744POPC   GL221014  26.055  19.752   8.850
 4744POPC   C1A21015  26.055  19.822   8.550
 4744POPC   D2A21016  26.016  19.786   8.250
 4744POPC   C3A21017  26.041  19.829   7.950
 4744POPC   C4A21018  26.001  19.883   7.650
 4744POPC   C1B21019  26.101  19.629   8.550
 4744POPC   C2B21020  26.122  19.569   8.250
 4744POPC   C3B21021  26.113  19.571   7.950
 4744POPC   C4B21022  26.135  19.585   7.650
 4745POPC   NC321023   8.939   8.169   9.450
 4745POPC   PO421024   8.971   8.204   9.150
 4745POPC   GL121025   8.989   8.213   8.850
 4745POPC   GL221026   8.822   8.274   8.850
 4745POPC   C1A21027   8.978   8.245   8.550
 4745POPC   D2A21028   8.962   8.186   8.250
 4745POPC   C3A21029   8.998   8.206   7.950
 4745POPC   C4A21030   9.004   8.173   7.650
 4745POPC   C1B21031   8.775   8.323   8.550
 4745POPC   C2B21032   8.759   8.344   8.250
 4745POPC   C3B21033   8.794   8.312   7.950
 4745POPC   C4B21034   8.781   8.293   7.650
 4746POPC   NC321035  14.398   8.214   9.450
 4746POPC   PO421036  14.452   8.195   9.150
 4746POPC   GL121037  14.398   8.174   8.850
 4746POPC   GL221038  14.454   8.287   8.850
 4746POPC   C1A21039  14.387   8.232   8.550
 4746POPC   D2A21040  14.444   8.207   8.250
 4746POPC   C3A21041  14.355   8.243   7.950
 4746POPC   C4A21042  14.431   8.208   7.650
 4746POPC   C1B21043  14.622   8.326   8.550
 4746POPC   C2B21044  14.547   8.404   8.250
 4746POPC   C3B21045  14.562   8.353   7.950
 4746POPC   C4B21046  14.630   8.340   7.650
 4747POPC   NC321047  39.981  36.101   9.450
 4747POPC   PO421048  40.009  36.139   9.150
 4747POPC   GL121049  39.992  36.128   8.850
 4747POPC   GL221050  40.131  36.127   8.850
 4747POPC   C1A21051  40.035  36.115   8.550
 4747POPC   D2A21052  39.997  36.135   8.250
 4747POPC   C3A21053  40.053  36.084   7.950
 4747POPC   C4A21054  40.034  36.167   7.650
 4747POPC   C1B21055  40.203  36.049   8.550
 4747POPC   C2B21056  40.288  36.095   8.250
 4747POPC   C3B21057  40.274  36.119   7.950
 4747POPC   C4B21058  40.218  36.031   7.650
 4748POPC   NC321059   5.124  41.554   9.450
 4748POPC   PO421060   5.075  41.554   9.150
 4748POPC   GL121061   5.089  41.605   8.850
 4748POPC   GL221062   4.989  41.509   8.850
 4748POPC   C1A21063   5.049  41.543   8.550
 4748POPC   D2A21064   5.079  41.576   8.250
 4748POPC   C3A21065   5.062  41.595   7.950
 4748POPC   C4A21066   5.098  41.600   7.650
 4748POPC   C1B21067   4.824  41.470   8.550
 4748POPC   C2B21068   4.841  41.510   8.250
 4748POPC   C3B21069   4.903  41.493   7.950
 4748POPC   C4B21070   4.905  41.453   7.650
 4749POPC   NC321071  19.019   5.075   9.450
 4749POPC   PO421072  19.101   5.106   9.150
 4749POPC   GL121073  19.070   5.143   8.850
 4749POPC   GL221074  19.151   5.142   8.850
 4749POPC   C1A21075  19.051   5.139   8.550
 4749POPC   D2A21076  19.045   5.128   8.250
 4749POPC   C3A21077  19.042   5.092   7.950
 4749POPC   C4A21078  19.030   5.143   7.650
 4749POPC   C1B21079  19.225   5.263   8.550
 4749POPC   C2B21080  19.315   5.262   8.250
 4749POPC   C3B21081  19.250   5.251   7.950
 4749POPC   C4B21082  19.318   5.204   7.650
 4750POPC   NC321083  44.621  27.588   9.450
 4750POPC   PO421084  44.621  27.554   9.150
 4750POPC   GL121085  44.661  27.566   8.850
 4750POPC   GL221086  44.553  27.505   8.850
 4750POPC   C1A21087  44.690  27.544   8.550
 4750POPC   D2A21088  44.701  27.579   8.250
 4750POPC   C3A21089  44.658  27.591   7.950
 4750POPC   C4A21090  44.618  27.609   7.650
 4750POPC   C1B21091  44.440  27.471   8.550
 4750POPC   C2B21092  44.495  27.477   8.250
 4750POPC   C3B21093  44.497  27.454   7.950
 4750POPC   C4B21094  44.491  27.404   7.650
 4751POPC   NC321095  13.615   8.231   9.450
 4751POPC   PO421096  13.651   8.161   9.150
 4751POPC   GL121097  13.644   8.215   8.850
 4751POPC   GL221098  13.732   8.271   8.850
 4751POPC   C1A21099  13.645   8.154   8.550
 4751POPC   D2A21100  13.636   8.246   8.250
 4751POPC   C3A21101  13.578   8.217   7.950
 4751POPC   C4A21102  13.613   8.193   7.650
 4751POPC   C1B21103  13.872   8.305   8.550
 4751POPC   C2B21104  13.881   8.310   8.250
 4751POPC   C3B21105  13.871   8.337   7.950
 4751POPC   C4B21106  13.889   8.262   7.650
 4752POPC   NC321107  26.828  40.004   9.450
 4752POPC   PO421108  26.811  40.043   9.150
 4752POPC   GL121109  26.813  40.022   8.850
 4752POPC   GL221110  26.731  39.984   8.850
 4752POPC   C1A21111  26.831  39.974   8.550
 4752POPC   D2A21112  26.827  40.032   8.250
 4752POPC   C3A21113  26.800  40.015   7.950
 4752POPC   C4A21114  26.852  40.027   7.650
 4752POPC   C1B21115  26.534  39.960   8.550
 4752POPC   C2B21116  26.524  39.947   8.250
 4752POPC   C3B21117  26.554  40.015   7.950
 4752POPC   C4B21118  26.605  39.934   7.650
 4753POPC   NC321119  21.399   9.748   9.450
 4753POPC   PO421120  21.353   9.770   9.150
 4753POPC   GL121121  21.360   9.792   8.850
 4753POPC   GL221122  21.280   9.865   8.850
 4753POPC   C1A21123  21.397   9.728   8.550
 4753POPC   D2A21124  21.386   9.748   8.250
 4753POPC   C3A21125  21.435   9.720   7.950
 4753POPC   C4A21126  21.337   9.798   7.650
 4753POPC   C1B21127  21.246  10.001   8.550
 4753POPC   C2B21128  21.242   9.990   8.250
 4753POPC   C3B21129  21.253   9.988   7.950
 4753POPC   C4B21130  21.280   9.966   7.650
 4754POPC   NC321131  39.279   4.299   9.450
 4754POPC   PO421132  39.269   4.278   9.150
 4754POPC   GL121133  39.214   4.329   8.850
 4754POPC   GL221134  39.074   4.380   8.850
 4754POPC   C1A21135  39.255   4.313   8.550
 4754POPC   D2A21136  39.247   4.309   8.250
 4754POPC   C3A21137  39.208   4.328   7.950
 4754POPC   C4A21138  39.200   4.311   7.650
 4754POPC   C1B21139  38.973   4.329   8.550
 4754POPC   C2B21140  39.001   4.349   8.250
 4754POPC   C3B21141  38.954   4.337   7.950
 4754POPC   C4B21142  38.984   4.356   7.650
 4755POPC   NC321143  12.887  43.927   9.450
 4755POPC   PO421144  12.814  43.894   9.150
 4755POPC   GL121145  12.817  43.896   8.850
 4755POPC   GL221146  12.890  44.005   8.850
 4755POPC   C1A21147  12.843  43.850   8.550
 4755POPC   D2A21148  12.866  43.923   8.250
 4755POPC   C3A21149  12.820  43.840   7.950
 4755POPC   C4A21150  12.825  43.877   7.650
 4755POPC   C1B21151  12.877  44.181   8.550
 4755POPC   C2B21152  12.830  44.139   8.250
 4755POPC   C3B21153  12.861  44.138   7.950
 4755POPC   C4B21154  12.833  44.174   7.650
 4756POPC   NC321155  34.609  29.917   9.450
 4756POPC   PO421156  34.594  29.936   9.150
 4756POPC   GL121157  34.551  29.920   8.850
 4756POPC   GL221158  34.695  29.850   8.850
 4756POPC   C1A21159  34.605  29.957   8.550
 4756POPC   D2A21160  34.593  29.890   8.250
 4756POPC   C3A21161  34.556  29.959   7.950
 4756POPC   C4A21162  34.603  29.913   7.650
 4756POPC   C1B21163  34.777  29.762   8.550
 4756POPC   C2B21164  34.685  29.684   8.250
 4756POPC   C3B21165  34.707  29.736   7.950
 4756POPC   C4B21166  34.740  29.703   7.650
 4757POPC   NC321167  37.669  37.689   9.450
 4757POPC   PO421168  37.658  37.694   9.150
 4757POPC   GL121169  37.678  37.728   8.850
 4757POPC   GL221170  37.822  37.632   8.850
 4757POPC   C1A21171  37.664  37.711   8.550
 4757POPC   D2A21172  37.669  37.705   8.250
 4757POPC   C3A21173  37.632  37.662   7.950
 4757POPC   C4A21174  37.671  37.665   7.650
 4757POPC   C1B21175  37.924  37.553   8.550
 4757POPC   C2B21176  37.920  37.564   8.250
 4757POPC   C3B21177  37.918  37.530   7.950
 4757POPC   C4B21178  37.910  37.595   7.650
 4758POPC   NC321179  12.046   4.355   9.450
 4758POPC   PO421180  12.086   4.336   9.150
 4758POPC   GL121181  12.064   4.331   8.850
 4758POPC   GL221182  12.004   4.279   8.850
 4758POPC   C1A21183  12.107   4.367   8.550
 4758POPC   D2A21184  12.073   4.277   8.250
 4758POPC   C3A21185  12.108   4.309   7.950
 4758POPC   C4A21186  12.063   4.284   7.650
 4758POPC   C1B21187  11.882   4.203   8.550
 4758POPC   C2B21188  11.859   4.205   8.250
 4758POPC   C3B21189  11.898   4.159   7.950
 4758POPC   C4B21190  11.821   4.236   7.650
 4759POPC   NC321191  19.092  38.429   9.450
 4759POPC   PO421192  19.066  38.489   9.150
 4759POPC   GL121193  19.097  38.429   8.850
 4759POPC   GL221194  19.096  38.374   8.850
 4759POPC   C1A21195  19.035  38.494   8.550
 4759POPC   D2A21196  19.024  38.450   8.250
 4759POPC   C3A21197  19.072  38.447   7.950
 4759POPC   C4A21198  19.077  38.417   7.650
 4759POPC   C1B21199  19.230  38.207   8.550
 4759POPC   C2B21200  19.219  38.208   8.250
 4759POPC   C3B21201  19.229  38.206   7.950
 4759POPC   C4B21202  19.228  38.263   7.650
 4760POPC   NC321203  21.392  43.898   9.450
 4760POPC   PO421204  21.426  43.879   9.150
 4760POPC   GL121205  21.413  43.866   8.850
 4760POPC   GL221206  21.555  43.937   8.850
 4760POPC   C1A21207  21.389  43.886   8.550
 4760POPC   D2A21208  21.431  43.898   8.250
 4760POPC   C3A21209  21.366  43.883   7.950
 4760POPC   C4A21210  21.363  43.907   7.650
 4760POPC   C1B21211  21.609  43.915   8.550
 4760POPC   C2B21212  21.596  43.935   8.250
 4760POPC   C3B21213  21.626  43.908   7.950
 4760POPC   C4B21214  21.612  43.925   7.650
 4761POPC   NC321215  22.149  29.153   9.450
 4761POPC   PO421216  22.122  29.177   9.150
 4761POPC   GL121217  22.200  29.124   8.850
 4761POPC   GL221218  22.252  29.119   8.850
 4761POPC   C1A21219  22.183  29.169   8.550
 4761POPC   D2A21220  22.129  29.164   8.250
 4761POPC   C3A21221  22.174  29.166   7.950
 4761POPC   C4A21222  22.124  29.117   7.650
 4761POPC   C1B21223  22.401  29.123   8.550
 4761POPC   C2B21224  22.438  29.191   8.250
 4761POPC   C3B21225  22.447  29.194   7.950
 4761POPC   C4B21226  22.388  29.187   7.650
 4762POPC   NC321227  24.489  33.019   9.450
 4762POPC   PO421228  24.507  33.035   9.150
 4762POPC   GL121229  24.461  32.997   8.850
 4762POPC   GL221230  24.504  32.937   8.850
 4762POPC   C1A21231  24.539  32.996   8.550
 4762POPC   D2A21232  24.505  32.978   8.250
 4762POPC   C3A21233  24.517  33.017   7.950
 4762POPC   C4A21234  24.492  33.007   7.650
 4762POPC   C1B21235  24.568  32.821   8.550
 4762POPC   C2B21236  24.583  32.780   8.250
 4762POPC   C3B21237  24.649  32.815   7.950
 4762POPC   C4B21238  24.596  32.820   7.650
 4763POPC   NC321239  39.236  34.561   9.450
 4763POPC   PO421240  39.220  34.539   9.150
 4763POPC   GL121241  39.190  34.553   8.850
 4763POPC   GL221242  39.261  34.653   8.850
 4763POPC   C1A21243  39.246  34.527   8.550
 4763POPC   D2A21244  39.216  34.535   8.250
 4763POPC   C3A21245  39.236  34.582   7.950
 4763POPC   C4A21246  39.258  34.603   7.650
 4763POPC   C1B21247  39.269  34.821   8.550
 4763POPC   C2B21248  39.277  34.836   8.250
 4763POPC   C3B21249  39.314  34.784   7.950
 4763POPC   C4B21250  39.227  34.831   7.650
 4764POPC   NC321251  20.627  40.046   9.450
 4764POPC   PO421252  20.645  39.983   9.150
 4764POPC   GL121253  20.569  39.982   8.850
 4764POPC   GL221254  20.739  40.120   8.850
 4764POPC   C1A21255  20.582  39.999   8.550
 4764POPC   D2A21256  20.634  39.978   8.250
 4764POPC   C3A21257  20.631  39.977   7.950
 4764POPC   C4A21258  20.622  40.026   7.650
 4764POPC   C1B21259  20.791  40.135   8.550
 4764POPC   C2B21260  20.761  40.128   8.250
 4764POPC   C3B21261  20.771  40.166   7.950
 4764POPC   C4B21262  20.853  40.142   7.650
 4765POPC   NC321263  27.615  40.755   9.450
 4765POPC   PO421264  27.544  40.771   9.150
 4765POPC   GL121265  27.577  40.829   8.850
 4765POPC   GL221266  27.693  40.888   8.850
 4765POPC   C1A21267  27.638  40.794   8.550
 4765POPC   D2A21268  27.574  40.827   8.250
 4765POPC   C3A21269  27.632  40.824   7.950
 4765POPC   C4A21270  27.622  40.773   7.650
 4765POPC   C1B21271  27.698  40.969   8.550
 4765POPC   C2B21272  27.671  41.009   8.250
 4765POPC   C3B21273  27.709  41.036   7.950
 4765POPC   C4B21274  27.742  40.957   7.650
 4766POPC   NC321275  16.702  28.394   9.450
 4766POPC   PO421276  16.694  28.377   9.150
 4766POPC   GL121277  16.726  28.412   8.850
 4766POPC   GL221278  16.801  28.296   8.850
 4766POPC   C1A21279  16.731  28.392   8.550
 4766POPC   D2A21280  16.718  28.411   8.250
 4766POPC   C3A21281  16.724  28.346   7.950
 4766POPC   C4A21282  16.770  28.398   7.650
 4766POPC   C1B21283  16.963  28.220   8.550
 4766POPC   C2B21284  16.987  28.196   8.250
 4766POPC   C3B21285  16.980  28.234   7.950
 4766POPC   C4B21286  16.969  28.283   7.650
 4767POPC   NC321287  13.579  25.247   9.450
 4767POPC   PO421288  13.580  25.268   9.150
 4767POPC   GL121289  13.598  25.249   8.850
 4767POPC   GL221290  13.792  25.246   8.850
 4767POPC   C1A21291  13.645  25.254   8.550
 4767POPC   D2A21292  13.676  25.252   8.250
 4767POPC   C3A21293  13.666  25.230   7.950
 4767POPC   C4A21294  13.590  25.240   7.650
 4767POPC   C1B21295  13.896  25.241   8.550
 4767POPC   C2B21296  13.870  25.217   8.250
 4767POPC   C3B21297  13.864  25.172   7.950
 4767POPC   C4B21298  13.851  25.218   7.650
 4768POPC   NC321299  27.598  24.473   9.450
 4768POPC   PO421300  27.566  24.446   9.150
 4768POPC   GL121301  27.623  24.466   8.850
 4768POPC   GL221302  27.640  24.350   8.850
 4768POPC   C1A21303  27.614  24.536   8.550
 4768POPC   D2A21304  27.593  24.477   8.250
 4768POPC   C3A21305  27.589  24.458   7.950
 4768POPC   C4A21306  27.611  24.449   7.650
 4768POPC   C1B21307  27.676  24.216   8.550
 4768POPC   C2B21308  27.699  24.252   8.250
 4768POPC   C3B21309  27.612  24.273   7.950
 4768POPC   C4B21310  27.683  24.279   7.650
 4769POPC   NC321311  32.981  11.291   9.450
 4769POPC   PO421312  32.979  11.264   9.150
 4769POPC   GL121313  33.011  11.288   8.850
 4769POPC   GL221314  33.082  11.220   8.850
 4769POPC   C1A21315  32.989  11.289   8.550
 4769POPC   D2A21316  33.013  11.342   8.250
 4769POPC   C3A21317  33.011  11.301   7.950
 4769POPC   C4A21318  33.034  11.299   7.650
 4769POPC   C1B21319  33.102  11.049   8.550
 4769POPC   C2B21320  33.182  11.120   8.250
 4769POPC   C3B21321  33.180  11.123   7.950
 4769POPC   C4B21322  33.152  11.116   7.650
 4770POPC   NC321323  17.487  36.872   9.450
 4770POPC   PO421324  17.534  36.951   9.150
 4770POPC   GL121325  17.542  36.947   8.850
 4770POPC   GL221326  17.484  36.750   8.850
 4770POPC   C1A21327  17.486  36.887   8.550
 4770POPC   D2A21328  17.522  36.864   8.250
 4770POPC   C3A21329  17.516  36.857   7.950
 4770POPC   C4A21330  17.498  36.862   7.650
 4770POPC   C1B21331  17.460  36.618   8.550
 4770POPC   C2B21332  17.489  36.629   8.250
 4770POPC   C3B21333  17.514  36.654   7.950
 4770POPC   C4B21334  17.453  36.687   7.650
 4771POPC   NC321335  21.347   8.932   9.450
 4771POPC   PO421336  21.342   8.983   9.150
 4771POPC   GL121337  21.393   8.964   8.850
 4771POPC   GL221338  21.296   8.907   8.850
 4771POPC   C1A21339  21.423   8.946   8.550
 4771POPC   D2A21340  21.347   8.990   8.250
 4771POPC   C3A21341  21.425   9.011   7.950
 4771POPC   C4A21342  21.418   8.968   7.650
 4771POPC   C1B21343  21.156   8.879   8.550
 4771POPC   C2B21344  21.092   8.876   8.250
 4771POPC   C3B21345  21.128   8.909   7.950
 4771POPC   C4B21346  21.185   8.895   7.650
 4772POPC   NC321347   7.402  20.655   9.450
 4772POPC   PO421348   7.452  20.608   9.150
 4772POPC   GL121349   7.385  20.641   8.850
 4772POPC   GL221350   7.487  20.781   8.850
 4772POPC   C1A21351   7.443  20.639   8.550
 4772POPC   D2A21352   7.460  20.583   8.250
 4772POPC   C3A21353   7.384  20.562   7.950
 4772POPC   C4A21354   7.409  20.639   7.650
 4772POPC   C1B21355   7.512  20.896   8.550
 4772POPC   C2B21356   7.462  20.870   8.250
 4772POPC   C3B21357   7.506  20.892   7.950
 4772POPC   C4B21358   7.534  20.891   7.650
 4773POPC   NC321359   1.220   4.327   9.450
 4773POPC   PO421360   1.198   4.307   9.150
 4773POPC   GL121361   1.188   4.324   8.850
 4773POPC   GL221362   1.210   4.186   8.850
 4773POPC   C1A21363   1.248   4.342   8.550
 4773POPC   D2A21364   1.165   4.327   8.250
 4773POPC   C3A21365   1.253   4.366   7.950
 4773POPC   C4A21366   1.197   4.337   7.650
 4773POPC   C1B21367   1.302   4.077   8.550
 4773POPC   C2B21368   1.278   4.040   8.250
 4773POPC   C3B21369   1.272   4.078   7.950
 4773POPC   C4B21370   1.349   4.091   7.650
 4774POPC   NC321371  21.356  18.331   9.450
 4774POPC   PO421372  21.380  18.330   9.150
 4774POPC   GL121373  21.408  18.243   8.850
 4774POPC   GL221374  21.268  18.233   8.850
 4774POPC   C1A21375  21.399  18.293   8.550
 4774POPC   D2A21376  21.399  18.288   8.250
 4774POPC   C3A21377  21.422  18.274   7.950
 4774POPC   C4A21378  21.431  18.312   7.650
 4774POPC   C1B21379  21.227  18.069   8.550
 4774POPC   C2B21380  21.196  18.138   8.250
 4774POPC   C3B21381  21.222  18.114   7.950
 4774POPC   C4B21382  21.185  18.103   7.650
 4775POPC   NC321383  44.686  23.761   9.450
 4775POPC   PO421384  44.665  23.672   9.150
 4775POPC   GL121385  44.655  23.666   8.850
 4775POPC   GL221386  44.689  23.829   8.850
 4775POPC   C1A21387  44.622  23.747   8.550
 4775POPC   D2A21388  44.685  23.755   8.250
 4775POPC   C3A21389  44.688  23.731   7.950
 4775POPC   C4A21390  44.619  23.702   7.650
 4775POPC   C1B21391  44.742  23.982   8.550
 4775POPC   C2B21392  44.701  23.987   8.250
 4775POPC   C3B21393  44.712  23.969   7.950
 4775POPC   C4B21394  44.685  23.964   7.650
 4776POPC   NC321395  36.148  42.309   9.450
 4776POPC   PO421396  36.131  42.308   9.150
 4776POPC   GL121397  36.175  42.314   8.850
 4776POPC   GL221398  36.274  42.363   8.850
 4776POPC   C1A21399  36.135  42.348   8.550
 4776POPC   D2A21400  36.148  42.311   8.250
 4776POPC   C3A21401  36.164  42.301   7.950
 4776POPC   C4A21402  36.087  42.366   7.650
 4776POPC   C1B21403  36.396  42.357   8.550
 4776POPC   C2B21404  36.415  42.373   8.250
 4776POPC   C3B21405  36.402  42.356   7.950
 4776POPC   C4B21406  36.405  42.383   7.650
 4777POPC   NC321407   7.384  41.524   9.450
 4777POPC   PO421408   7.383  41.516   9.150
 4777POPC   GL121409   7.419  41.558   8.850
 4777POPC   GL221410   7.501  41.502   8.850
 4777POPC   C1A21411   7.408  41.600   8.550
 4777POPC   D2A21412   7.461  41.517   8.250
 4777POPC   C3A21413   7.405  41.522   7.950
 4777POPC   C4A21414   7.414  41.537   7.650
 4777POPC   C1B21415   7.675  41.404   8.550
 4777POPC   C2B21416   7.684  41.411   8.250
 4777POPC   C3B21417   7.643  41.448   7.950
 4777POPC   C4B21418   7.627  41.410   7.650
 4778POPC   NC321419  31.506  12.890   9.450
 4778POPC   PO421420  31.485  12.893   9.150
 4778POPC   GL121421  31.465  12.893   8.850
 4778POPC   GL221422  31.595  12.930   8.850
 4778POPC   C1A21423  31.460  12.831   8.550
 4778POPC   D2A21424  31.494  12.850   8.250
 4778POPC   C3A21425  31.485  12.894   7.950
 4778POPC   C4A21426  31.426  12.888   7.650
 4778POPC   C1B21427  31.662  12.959   8.550
 4778POPC   C2B21428  31.705  12.921   8.250
 4778POPC   C3B21429  31.744  12.888   7.950
 4778POPC   C4B21430  31.748  12.919   7.650
 4779POPC   NC321431  12.871  14.387   9.450
 4779POPC   PO421432  12.882  14.441   9.150
 4779POPC   GL121433  12.851  14.389   8.850
 4779POPC   GL221434  12.704  14.338   8.850
 4779POPC   C1A21435  12.889  14.394   8.550
 4779POPC   D2A21436  12.828  14.415   8.250
 4779POPC   C3A21437  12.884  14.388   7.950
 4779POPC   C4A21438  12.890  14.425   7.650
 4779POPC   C1B21439  12.587  14.312   8.550
 4779POPC   C2B21440  12.578  14.312   8.250
 4779POPC   C3B21441  12.591  14.310   7.950
 4779POPC   C4B21442  12.671  14.263   7.650
 4780POPC   NC321443  37.692   9.717   9.450
 4780POPC   PO421444  37.649   9.726   9.150
 4780POPC   GL121445  37.652   9.729   8.850
 4780POPC   GL221446  37.553   9.710   8.850
 4780POPC   C1A21447  37.670   9.731   8.550
 4780POPC   D2A21448  37.696   9.768   8.250
 4780POPC   C3A21449  37.674   9.741   7.950
 4780POPC   C4A21450  37.674   9.766   7.650
 4780POPC   C1B21451  37.465   9.564   8.550
 4780POPC   C2B21452  37.422   9.561   8.250
 4780POPC   C3B21453  37.494   9.654   7.950
 4780POPC   C4B21454  37.508   9.644   7.650
 4781POPC   NC321455  25.242   1.253   9.450
 4781POPC   PO421456  25.275   1.206   9.150
 4781POPC   GL121457  25.306   1.187   8.850
 4781POPC   GL221458  25.308   1.048   8.850
 4781POPC   C1A21459  25.295   1.239   8.550
 4781POPC   D2A21460  25.250   1.236   8.250
 4781POPC   C3A21461  25.289   1.212   7.950
 4781POPC   C4A21462  25.258   1.170   7.650
 4781POPC   C1B21463  25.319   1.002   8.550
 4781POPC   C2B21464  25.306   0.927   8.250
 4781POPC   C3B21465  25.290   0.969   7.950
 4781POPC   C4B21466  25.326   0.985   7.650
 4782POPC   NC321467  25.294  13.607   9.450
 4782POPC   PO421468  25.280  13.646   9.150
 4782POPC   GL121469  25.304  13.604   8.850
 4782POPC   GL221470  25.271  13.712   8.850
 4782POPC   C1A21471  25.249  13.639   8.550
 4782POPC   D2A21472  25.274  13.634   8.250
 4782POPC   C3A21473  25.284  13.599   7.950
 4782POPC   C4A21474  25.275  13.596   7.650
 4782POPC   C1B21475  25.345  13.920   8.550
 4782POPC   C2B21476  25.270  13.860   8.250
 4782POPC   C3B21477  25.266  13.837   7.950
 4782POPC   C4B21478  25.289  13.879   7.650
 4783POPC   NC321479  15.135  26.821   9.450
 4783POPC   PO421480  15.214  26.795   9.150
 4783POPC   GL121481  15.152  26.783   8.850
 4783POPC   GL221482  15.112  26.762   8.850
 4783POPC   C1A21483  15.187  26.859   8.550
 4783POPC   D2A21484  15.152  26.864   8.250
 4783POPC   C3A21485  15.173  26.824   7.950
 4783POPC   C4A21486  15.207  26.815   7.650
 4783POPC   C1B21487  14.970  26.597   8.550
 4783POPC   C2B21488  15.026  26.613   8.250
 4783POPC   C3B21489  15.028  26.672   7.950
 4783POPC   C4B21490  14.974  26.605   7.650
 4784POPC   NC321491  38.436  20.640   9.450
 4784POPC   PO421492  38.414  20.647   9.150
 4784POPC   GL121493  38.486  20.610   8.850
 4784POPC   GL221494  38.352  20.744   8.850
 4784POPC   C1A21495  38.449  20.577   8.550
 4784POPC   D2A21496  38.490  20.633   8.250
 4784POPC   C3A21497  38.430  20.598   7.950
 4784POPC   C4A21498  38.455  20.605   7.650
 4784POPC   C1B21499  38.240  20.793   8.550
 4784POPC   C2B21500  38.302  20.793   8.250
 4784POPC   C3B21501  38.308  20.824   7.950
 4784POPC   C4B21502  38.278  20.753   7.650
 4785POPC   NC321503  31.486   8.169   9.450
 4785POPC   PO421504  31.516   8.151   9.150
 4785POPC   GL121505  31.496   8.227   8.850
 4785POPC   GL221506  31.346   8.252   8.850
 4785POPC   C1A21507  31.518   8.168   8.550
 4785POPC   D2A21508  31.460   8.224   8.250
 4785POPC   C3A21509  31.497   8.227   7.950
 4785POPC   C4A21510  31.430   8.243   7.650
 4785POPC   C1B21511  31.181   8.208   8.550
 4785POPC   C2B21512  31.262   8.207   8.250
 4785POPC   C3B21513  31.253   8.208   7.950
 4785POPC   C4B21514  31.241   8.268   7.650
 4786POPC   NC321515  39.239  15.191   9.450
 4786POPC   PO421516  39.263  15.181   9.150
 4786POPC   GL121517  39.264  15.219   8.850
 4786POPC   GL221518  39.110  15.224   8.850
 4786POPC   C1A21519  39.215  15.188   8.550
 4786POPC   D2A21520  39.218  15.130   8.250
 4786POPC   C3A21521  39.262  15.172   7.950
 4786POPC   C4A21522  39.202  15.207   7.650
 4786POPC   C1B21523  38.952  15.165   8.550
 4786POPC   C2B21524  38.979  15.240   8.250
 4786POPC   C3B21525  38.985  15.237   7.950
 4786POPC   C4B21526  39.005  15.238   7.650
 4787POPC   NC321527  25.265  15.198   9.450
 4787POPC   PO421528  25.310  15.224   9.150
 4787POPC   GL121529  25.265  15.195   8.850
 4787POPC   GL221530  25.404  15.219   8.850
 4787POPC   C1A21531  25.243  15.133   8.550
 4787POPC   D2A21532  25.248  15.165   8.250
 4787POPC   C3A21533  25.304  15.132   7.950
 4787POPC   C4A21534  25.266  15.190   7.650
 4787POPC   C1B21535  25.557  15.152   8.550
 4787POPC   C2B21536  25.501  15.136   8.250
 4787POPC   C3B21537  25.511  15.207   7.950
 4787POPC   C4B21538  25.538  15.222   7.650
 4788POPC   NC321539   1.996  28.367   9.450
 4788POPC   PO421540   1.978  28.322   9.150
 4788POPC   GL121541   1.954  28.381   8.850
 4788POPC   GL221542   2.098  28.400   8.850
 4788POPC   C1A21543   1.982  28.376   8.550
 4788POPC   D2A21544   1.998  28.328   8.250
 4788POPC   C3A21545   2.018  28.324   7.950
 4788POPC   C4A21546   1.978  28.373   7.650
 4788POPC   C1B21547   2.261  28.495   8.550
 4788POPC   C2B21548   2.263  28.423   8.250
 4788POPC   C3B21549   2.222  28.472   7.950
 4788POPC   C4B21550   2.210  28.450   7.650
 4789POPC   NC321551   5.071   0.411   9.450
 4789POPC   PO421552   5.057   0.484   9.150
 4789POPC   GL121553   5.088   0.416   8.850
 4789POPC   GL221554   5.050   0.497   8.850
 4789POPC   C1A21555   5.111   0.473   8.550
 4789POPC   D2A21556   5.129   0.470   8.250
 4789POPC   C3A21557   5.060   0.435   7.950
 4789POPC   C4A21558   5.123   0.449   7.650
 4789POPC   C1B21559   4.960   0.673   8.550
 4789POPC   C2B21560   4.985   0.621   8.250
 4789POPC   C3B21561   4.965   0.699   7.950
 4789POPC   C4B21562   4.971   0.643   7.650
 4790POPC   NC321563  15.183  37.640   9.450
 4790POPC   PO421564  15.130  37.718   9.150
 4790POPC   GL121565  15.216  37.658   8.850
 4790POPC   GL221566  15.273  37.741   8.850
 4790POPC   C1A21567  15.148  37.725   8.550
 4790POPC   D2A21568  15.196  37.679   8.250
 4790POPC   C3A21569  15.148  37.721   7.950
 4790POPC   C4A21570  15.169  37.717   7.650
 4790POPC   C1B21571  15.389  37.823   8.550
 4790POPC   C2B21572  15.402  37.789   8.250
 4790POPC   C3B21573  15.410  37.802   7.950
 4790POPC   C4B21574  15.360  37.840   7.650
 4791POPC   NC321575  22.164   5.918   9.450
 4791POPC   PO421576  22.187   5.879   9.150
 4791POPC   GL121577  22.120   5.873   8.850
 4791POPC   GL221578  22.015   5.902   8.850
 4791POPC   C1A21579  22.158   5.845   8.550
 4791POPC   D2A21580  22.141   5.844   8.250
 4791POPC   C3A21581  22.182   5.878   7.950
 4791POPC   C4A21582  22.204   5.900   7.650
 4791POPC   C1B21583  21.898   5.938   8.550
 4791POPC   C2B21584  21.941   5.952   8.250
 4791POPC   C3B21585  21.936   5.968   7.950
 4791POPC   C4B21586  21.910   5.936   7.650
 4792POPC   NC321587  12.880  12.841   9.450
 4792POPC   PO421588  12.888  12.872   9.150
 4792POPC   GL121589  12.892  12.824   8.850
 4792POPC   GL221590  12.699  12.859   8.850
 4792POPC   C1A21591  12.867  12.886   8.550
 4792POPC   D2A21592  12.861  12.864   8.250
 4792POPC   C3A21593  12.832  12.855   7.950
 4792POPC   C4A21594  12.891  12.901   7.650
 4792POPC   C1B21595  12.597  12.805   8.550
 4792POPC   C2B21596  12.659  12.760   8.250
 4792POPC   C3B21597  12.634  12.729   7.950
 4792POPC   C4B21598  12.665  12.726   7.650
 4793POPC   NC321599  32.256   7.401   9.450
 4793POPC   PO421600  32.279   7.458   9.150
 4793POPC   GL121601  32.249   7.413   8.850
 4793POPC   GL221602  32.422   7.357   8.850
 4793POPC   C1A21603  32.199   7.455   8.550
 4793POPC   D2A21604  32.296   7.425   8.250
 4793POPC   C3A21605  32.220   7.390   7.950
 4793POPC   C4A21606  32.250   7.420   7.650
 4793POPC   C1B21607  32.446   7.389   8.550
 4793POPC   C2B21608  32.482   7.373   8.250
 4793POPC   C3B21609  32.465   7.418   7.950
 4793POPC   C4B21610  32.456   7.415   7.650
 4794POPC   NC321611   4.298  39.970   9.450
 4794POPC   PO421612   4.365  39.972   9.150
 4794POPC   GL121613   4.285  39.983   8.850
 4794POPC   GL221614   4.480  40.050   8.850
 4794POPC   C1A21615   4.275  39.959   8.550
 4794POPC   D2A21616   4.300  39.959   8.250
 4794POPC   C3A21617   4.311  39.984   7.950
 4794POPC   C4A21618   4.290  39.980   7.650
 4794POPC   C1B21619   4.542  40.102   8.550
 4794POPC   C2B21620   4.545  40.058   8.250
 4794POPC   C3B21621   4.568  40.010   7.950
 4794POPC   C4B21622   4.532  40.102   7.650
 4795POPC   NC321623   1.231  12.808   9.450
 4795POPC   PO421624   1.244  12.849   9.150
 4795POPC   GL121625   1.257  12.879   8.850
 4795POPC   GL221626   1.230  13.021   8.850
 4795POPC   C1A21627   1.248  12.822   8.550
 4795POPC   D2A21628   1.217  12.811   8.250
 4795POPC   C3A21629   1.228  12.845   7.950
 4795POPC   C4A21630   1.255  12.821   7.650
 4795POPC   C1B21631   1.148  13.123   8.550
 4795POPC   C2B21632   1.206  13.118   8.250
 4795POPC   C3B21633   1.201  13.136   7.950
 4795POPC   C4B21634   1.185  13.111   7.650
 4796POPC   NC321635   9.790  22.951   9.450
 4796POPC   PO421636   9.703  22.956   9.150
 4796POPC   GL121637   9.763  22.938   8.850
 4796POPC   GL221638   9.781  23.064   8.850
 4796POPC   C1A21639   9.758  22.924   8.550
 4796POPC   D2A21640   9.706  22.916   8.250
 4796POPC   C3A21641   9.730  22.925   7.950
 4796POPC   C4A21642   9.755  22.921   7.650
 4796POPC   C1B21643   9.888  23.158   8.550
 4796POPC   C2B21644   9.812  23.173   8.250
 4796POPC   C3B21645   9.810  23.200   7.950
 4796POPC   C4B21646   9.844  23.194   7.650
 4797POPC   NC321647  15.916  28.397   9.450
 4797POPC   PO421648  15.979  28.358   9.150
 4797POPC   GL121649  15.930  28.376   8.850
 4797POPC   GL221650  15.846  28.398   8.850
 4797POPC   C1A21651  15.909  28.348   8.550
 4797POPC   D2A21652  15.981  28.382   8.250
 4797POPC   C3A21653  15.990  28.384   7.950
 4797POPC   C4A21654  15.978  28.373   7.650
 4797POPC   C1B21655  15.753  28.374   8.550
 4797POPC   C2B21656  15.673  28.321   8.250
 4797POPC   C3B21657  15.709  28.370   7.950
 4797POPC   C4B21658  15.671  28.326   7.650
 4798POPC   NC321659  29.128  32.258   9.450
 4798POPC   PO421660  29.170  32.279   9.150
 4798POPC   GL121661  29.124  32.237   8.850
 4798POPC   GL221662  29.172  32.118   8.850
 4798POPC   C1A21663  29.175  32.296   8.550
 4798POPC   D2A21664  29.121  32.255   8.250
 4798POPC   C3A21665  29.150  32.249   7.950
 4798POPC   C4A21666  29.112  32.220   7.650
 4798POPC   C1B21667  29.204  31.994   8.550
 4798POPC   C2B21668  29.183  32.055   8.250
 4798POPC   C3B21669  29.196  31.963   7.950
 4798POPC   C4B21670  29.206  31.989   7.650
 4799POPC   NC321671  29.131  22.187   9.450
 4799POPC   PO421672  29.110  22.126   9.150
 4799POPC   GL121673  29.133  22.195   8.850
 4799POPC   GL221674  29.079  22.105   8.850
 4799POPC   C1A21675  29.176  22.143   8.550
 4799POPC   D2A21676  29.153  22.182   8.250
 4799POPC   C3A21677  29.128  22.210   7.950
 4799POPC   C4A21678  29.106  22.144   7.650
 4799POPC   C1B21679  28.935  22.016   8.550
 4799POPC   C2B21680  28.975  22.014   8.250
 4799POPC   C3B21681  28.996  21.977   7.950
 4799POPC   C4B21682  28.956  22.034   7.650
 4800POPC   NC321683   1.224  37.697   9.450
 4800POPC   PO421684   1.213  37.640   9.150
 4800POPC   GL121685   1.232  37.644   8.850
 4800POPC   GL221686   1.123  37.554   8.850
 4800POPC   C1A21687   1.231  37.650   8.550
 4800POPC   D2A21688   1.180  37.698   8.250
 4800POPC   C3A21689   1.189  37.671   7.950
 4800POPC   C4A21690   1.239  37.681   7.650
 4800POPC   C1B21691   1.015  37.470   8.550
 4800POPC   C2B21692   1.067  37.459   8.250
 4800POPC   C3B21693   1.085  37.521   7.950
 4800POPC   C4B21694   1.022  37.521   7.650
 4801POPC   NC321695   2.018   1.982   9.450
 4801POPC   PO421696   1.999   2.032   9.150
 4801POPC   GL121697   2.010   1.971   8.850
 4801POPC   GL221698   2.066   1.938   8.850
 4801POPC   C1A21699   1.956   2.018   8.550
 4801POPC   D2A21700   2.032   1.965   8.250
 4801POPC   C3A21701   1.943   1.978   7.950
 4801POPC   C4A21702   1.981   1.992   7.650
 4801POPC   C1B21703   2.248   1.897   8.550
 4801POPC   C2B21704   2.244   1.927   8.250
 4801POPC   C3B21705   2.253   1.937   7.950
 4801POPC   C4B21706   2.201   1.897   7.650
 4802POPC   NC321707  25.282  12.883   9.450
 4802POPC   PO421708  25.291  12.816   9.150
 4802POPC   GL121709  25.271  12.832   8.850
 4802POPC   GL221710  25.402  12.867   8.850
 4802POPC   C1A21711  25.300  12.867   8.550
 4802POPC   D2A21712  25.270  12.857   8.250
 4802POPC   C3A21713  25.286  12.822   7.950
 4802POPC   C4A21714  25.237  12.881   7.650
 4802POPC   C1B21715  25.550  12.875   8.550
 4802POPC   C2B21716  25.497  12.850   8.250
 4802POPC   C3B21717  25.475  12.875   7.950
 4802POPC   C4B21718  25.468  12.840   7.650
 4803POPC   NC321719  22.123  34.622   9.450
 4803POPC   PO421720  22.119  34.576   9.150
 4803POPC   GL121721  22.203  34.577   8.850
 4803POPC   GL221722  21.988  34.548   8.850
 4803POPC   C1A21723  22.200  34.560   8.550
 4803POPC   D2A21724  22.156  34.582   8.250
 4803POPC   C3A21725  22.120  34.612   7.950
 4803POPC   C4A21726  22.150  34.620   7.650
 4803POPC   C1B21727  21.902  34.514   8.550
 4803POPC   C2B21728  21.932  34.606   8.250
 4803POPC   C3B21729  21.873  34.584   7.950
 4803POPC   C4B21730  21.954  34.541   7.650
 4804POPC   NC321731  40.814  24.493   9.450
 4804POPC   PO421732  40.733  24.486   9.150
 4804POPC   GL121733  40.786  24.496   8.850
 4804POPC   GL221734  40.777  24.366   8.850
 4804POPC   C1A21735  40.793  24.493   8.550
 4804POPC   D2A21736  40.821  24.446   8.250
 4804POPC   C3A21737  40.820  24.465   7.950
 4804POPC   C4A21738  40.737  24.460   7.650
 4804POPC   C1B21739  40.688  24.205   8.550
 4804POPC   C2B21740  40.748  24.252   8.250
 4804POPC   C3B21741  40.746  24.233   7.950
 4804POPC   C4B21742  40.763  24.279   7.650
 4805POPC   NC321743  20.570  36.928   9.450
 4805POPC   PO421744  20.581  36.932   9.150
 4805POPC   GL121745  20.574  36.869   8.850
 4805POPC   GL221746  20.733  36.978   8.850
 4805POPC   C1A21747  20.601  36.917   8.550
 4805POPC   D2A21748  20.634  36.864   8.250
 4805POPC   C3A21749  20.634  36.934   7.950
 4805POPC   C4A21750  20.579  36.938   7.650
 4805POPC   C1B21751  20.814  37.040   8.550
 4805POPC   C2B21752  20.761  37.048   8.250
 4805POPC   C3B21753  20.744  37.050   7.950
 4805POPC   C4B21754  20.740  37.046   7.650
 4806POPC   NC321755  22.890  32.298   9.450
 4806POPC   PO421756  22.924  32.212   9.150
 4806POPC   GL121757  22.984  32.224   8.850
 4806POPC   GL221758  22.908  32.352   8.850
 4806POPC   C1A21759  22.908  32.272   8.550
 4806POPC   D2A21760  22.899  32.232   8.250
 4806POPC   C3A21761  22.945  32.249   7.950
 4806POPC   C4A21762  22.950  32.229   7.650
 4806POPC   C1B21763  22.779  32.497   8.550
 4806POPC   C2B21764  22.796  32.423   8.250
 4806POPC   C3B21765  22.792  32.480   7.950
 4806POPC   C4B21766  22.765  32.460   7.650
 4807POPC   NC321767  15.140  19.836   9.450
 4807POPC   PO421768  15.145  19.800   9.150
 4807POPC   GL121769  15.199  19.835   8.850
 4807POPC   GL221770  15.294  19.947   8.850
 4807POPC   C1A21771  15.228  19.861   8.550
 4807POPC   D2A21772  15.225  19.832   8.250
 4807POPC   C3A21773  15.140  19.879   7.950
 4807POPC   C4A21774  15.164  19.853   7.650
 4807POPC   C1B21775  15.357  20.034   8.550
 4807POPC   C2B21776  15.346  20.057   8.250
 4807POPC   C3B21777  15.349  20.068   7.950
 4807POPC   C4B21778  15.313  20.050   7.650
 4808POPC   NC321779  32.233   8.947   9.450
 4808POPC   PO421780  32.257   8.966   9.150
 4808POPC   GL121781  32.291   9.000   8.850
 4808POPC   GL221782  32.244   8.870   8.850
 4808POPC   C1A21783  32.214   8.959   8.550
 4808POPC   D2A21784  32.265   9.019   8.250
 4808POPC   C3A21785  32.258   8.936   7.950
 4808POPC   C4A21786  32.278   8.941   7.650
 4808POPC   C1B21787  32.271   8.730   8.550
 4808POPC   C2B21788  32.306   8.737   8.250
 4808POPC   C3B21789  32.271   8.751   7.950
 4808POPC   C4B21790  32.334   8.726   7.650
 4809POPC   NC321791   6.640   3.517   9.450
 4809POPC   PO421792   6.673   3.571   9.150
 4809POPC   GL121793   6.684   3.585   8.850
 4809POPC   GL221794   6.522   3.545   8.850
 4809POPC   C1A21795   6.676   3.581   8.550
 4809POPC   D2A21796   6.628   3.570   8.250
 4809POPC   C3A21797   6.663   3.548   7.950
 4809POPC   C4A21798   6.658   3.589   7.650
 4809POPC   C1B21799   6.364   3.521   8.550
 4809POPC   C2B21800   6.352   3.600   8.250
 4809POPC   C3B21801   6.441   3.602   7.950
 4809POPC   C4B21802   6.359   3.525   7.650
 4810POPC   NC321803  36.924   3.575   9.450
 4810POPC   PO421804  36.860   3.588   9.150
 4810POPC   GL121805  36.888   3.526   8.850
 4810POPC   GL221806  36.836   3.713   8.850
 4810POPC   C1A21807  36.856   3.510   8.550
 4810POPC   D2A21808  36.879   3.510   8.250
 4810POPC   C3A21809  36.905   3.546   7.950
 4810POPC   C4A21810  36.887   3.580   7.650
 4810POPC   C1B21811  36.823   3.742   8.550
 4810POPC   C2B21812  36.902   3.822   8.250
 4810POPC   C3B21813  36.858   3.790   7.950
 4810POPC   C4B21814  36.829   3.766   7.650
 4811POPC   NC321815  20.623  15.202   9.450
 4811POPC   PO421816  20.648  15.160   9.150
 4811POPC   GL121817  20.594  15.193   8.850
 4811POPC   GL221818  20.648  15.297   8.850
 4811POPC   C1A21819  20.566  15.170   8.550
 4811POPC   D2A21820  20.606  15.138   8.250
 4811POPC   C3A21821  20.615  15.140   7.950
 4811POPC   C4A21822  20.596  15.226   7.650
 4811POPC   C1B21823  20.652  15.432   8.550
 4811POPC   C2B21824  20.671  15.414   8.250
 4811POPC   C3B21825  20.699  15.451   7.950
 4811POPC   C4B21826  20.638  15.461   7.650
 4812POPC   NC321827  36.874   4.321   9.450
 4812POPC   PO421828  36.868   4.318   9.150
 4812POPC   GL121829  36.893   4.330   8.850
 4812POPC   GL221830  36.779   4.275   8.850
 4812POPC   C1A21831  36.866   4.320   8.550
 4812POPC   D2A21832  36.888   4.281   8.250
 4812POPC   C3A21833  36.861   4.303   7.950
 4812POPC   C4A21834  36.874   4.337   7.650
 4812POPC   C1B21835  36.699   4.282   8.550
 4812POPC   C2B21836  36.674   4.350   8.250
 4812POPC   C3B21837  36.693   4.345   7.950
 4812POPC   C4B21838  36.609   4.306   7.650
 4813POPC   NC321839   8.984  35.355   9.450
 4813POPC   PO421840   8.996  35.310   9.150
 4813POPC   GL121841   8.949  35.340   8.850
 4813POPC   GL221842   8.886  35.290   8.850
 4813POPC   C1A21843   9.017  35.348   8.550
 4813POPC   D2A21844   8.975  35.317   8.250
 4813POPC   C3A21845   8.985  35.400   7.950
 4813POPC   C4A21846   8.971  35.313   7.650
 4813POPC   C1B21847   8.696  35.256   8.550
 4813POPC   C2B21848   8.763  35.317   8.250
 4813POPC   C3B21849   8.773  35.246   7.950
 4813POPC   C4B21850   8.760  35.317   7.650
 4814POPC   NC321851  36.082  32.236   9.450
 4814POPC   PO421852  36.148  32.248   9.150
 4814POPC   GL121853  36.142  32.213   8.850
 4814POPC   GL221854  36.187  32.176   8.850
 4814POPC   C1A21855  36.173  32.281   8.550
 4814POPC   D2A21856  36.093  32.235   8.250
 4814POPC   C3A21857  36.125  32.245   7.950
 4814POPC   C4A21858  36.168  32.271   7.650
 4814POPC   C1B21859  36.277  32.015   8.550
 4814POPC   C2B21860  36.263  32.049   8.250
 4814POPC   C3B21861  36.273  32.108   7.950
 4814POPC   C4B21862  36.338  32.042   7.650
 4815POPC   NC321863  26.063  22.211   9.450
 4815POPC   PO421864  26.045  22.116   9.150
 4815POPC   GL121865  26.046  22.166   8.850
 4815POPC   GL221866  25.969  22.077   8.850
 4815POPC   C1A21867  26.048  22.157   8.550
 4815POPC   D2A21868  26.022  22.167   8.250
 4815POPC   C3A21869  26.048  22.148   7.950
 4815POPC   C4A21870  26.053  22.157   7.650
 4815POPC   C1B21871  25.814  22.061   8.550
 4815POPC   C2B21872  25.825  22.063   8.250
 4815POPC   C3B21873  25.825  22.031   7.950
 4815POPC   C4B21874  25.877  22.076   7.650
 4816POPC   NC321875   0.462  27.622   9.450
 4816POPC   PO421876   0.394  27.546   9.150
 4816POPC   GL121877   0.476  27.564   8.850
 4816POPC   GL221878   0.440  27.689   8.850
 4816POPC   C1A21879   0.469  27.569   8.550
 4816POPC   D2A21880   0.429  27.588   8.250
 4816POPC   C3A21881   0.464  27.593   7.950
 4816POPC   C4A21882   0.396  27.617   7.650
 4816POPC   C1B21883   0.416  27.885   8.550
 4816POPC   C2B21884   0.407  27.802   8.250
 4816POPC   C3B21885   0.466  27.810   7.950
 4816POPC   C4B21886   0.441  27.870   7.650
 4817POPC   NC321887   6.674   6.601   9.450
 4817POPC   PO421888   6.679   6.694   9.150
 4817POPC   GL121889   6.596   6.613   8.850
 4817POPC   GL221890   6.613   6.540   8.850
 4817POPC   C1A21891   6.646   6.666   8.550
 4817POPC   D2A21892   6.604   6.617   8.250
 4817POPC   C3A21893   6.674   6.653   7.950
 4817POPC   C4A21894   6.676   6.653   7.650
 4817POPC   C1B21895   6.604   6.397   8.550
 4817POPC   C2B21896   6.668   6.404   8.250
 4817POPC   C3B21897   6.700   6.413   7.950
 4817POPC   C4B21898   6.602   6.368   7.650
 4818POPC   NC321899  37.666   3.562   9.450
 4818POPC   PO421900  37.675   3.575   9.150
 4818POPC   GL121901  37.641   3.495   8.850
 4818POPC   GL221902  37.580   3.618   8.850
 4818POPC   C1A21903  37.715   3.569   8.550
 4818POPC   D2A21904  37.717   3.498   8.250
 4818POPC   C3A21905  37.700   3.515   7.950
 4818POPC   C4A21906  37.668   3.536   7.650
 4818POPC   C1B21907  37.492   3.709   8.550
 4818POPC   C2B21908  37.492   3.682   8.250
 4818POPC   C3B21909  37.462   3.685   7.950
 4818POPC   C4B21910  37.486   3.644   7.650
 4819POPC   NC321911  28.362   5.879   9.450
 4819POPC   PO421912  28.356   5.865   9.150
 4819POPC   GL121913  28.330   5.841   8.850
 4819POPC   GL221914  28.286   5.779   8.850
 4819POPC   C1A21915  28.416   5.909   8.550
 4819POPC   D2A21916  28.332   5.887   8.250
 4819POPC   C3A21917  28.332   5.873   7.950
 4819POPC   C4A21918  28.372   5.880   7.650
 4819POPC   C1B21919  28.177   5.725   8.550
 4819POPC   C2B21920  28.191   5.649   8.250
 4819POPC   C3B21921  28.191   5.723   7.950
 4819POPC   C4B21922  28.151   5.657   7.650
 4820POPC   NC321923  20.561  29.888   9.450
 4820POPC   PO421924  20.618  29.952   9.150
 4820POPC   GL121925  20.568  29.917   8.850
 4820POPC   GL221926  20.518  29.783   8.850
 4820POPC   C1A21927  20.590  29.912   8.550
 4820POPC   D2A21928  20.651  29.877   8.250
 4820POPC   C3A21929  20.589  29.963   7.950
 4820POPC   C4A21930  20.607  29.941   7.650
 4820POPC   C1B21931  20.521  29.703   8.550
 4820POPC   C2B21932  20.482  29.728   8.250
 4820POPC   C3B21933  20.474  29.750   7.950
 4820POPC   C4B21934  20.487  29.681   7.650
 4821POPC   NC321935  29.193  13.596   9.450
 4821POPC   PO421936  29.169  13.607   9.150
 4821POPC   GL121937  29.184  13.588   8.850
 4821POPC   GL221938  29.085  13.476   8.850
 4821POPC   C1A21939  29.120  13.619   8.550
 4821POPC   D2A21940  29.160  13.661   8.250
 4821POPC   C3A21941  29.136  13.628   7.950
 4821POPC   C4A21942  29.167  13.674   7.650
 4821POPC   C1B21943  29.104  13.340   8.550
 4821POPC   C2B21944  29.137  13.419   8.250
 4821POPC   C3B21945  29.120  13.388   7.950
 4821POPC   C4B21946  29.099  13.338   7.650
 4822POPC   NC321947  41.526  43.880   9.450
 4822POPC   PO421948  41.596  43.875   9.150
 4822POPC   GL121949  41.598  43.858   8.850
 4822POPC   GL221950  41.567  43.735   8.850
 4822POPC   C1A21951  41.601  43.864   8.550
 4822POPC   D2A21952  41.534  43.853   8.250
 4822POPC   C3A21953  41.535  43.889   7.950
 4822POPC   C4A21954  41.546  43.891   7.650
 4822POPC   C1B21955  41.476  43.619   8.550
 4822POPC   C2B21956  41.513  43.666   8.250
 4822POPC   C3B21957  41.441  43.696   7.950
 4822POPC   C4B21958  41.515  43.693   7.650
 4823POPC   NC321959   8.224  38.464   9.450
 4823POPC   PO421960   8.175  38.484   9.150
 4823POPC   GL121961   8.177  38.451   8.850
 4823POPC   GL221962   8.302  38.428   8.850
 4823POPC   C1A21963   8.199  38.406   8.550
 4823POPC   D2A21964   8.201  38.500   8.250
 4823POPC   C3A21965   8.168  38.476   7.950
 4823POPC   C4A21966   8.225  38.426   7.650
 4823POPC   C1B21967   8.428  38.459   8.550
 4823POPC   C2B21968   8.397  38.440   8.250
 4823POPC   C3B21969   8.477  38.506   7.950
 4823POPC   C4B21970   8.399  38.478   7.650
 4824POPC   NC321971  22.922  36.089   9.450
 4824POPC   PO421972  22.936  36.126   9.150
 4824POPC   GL121973  22.980  36.163   8.850
 4824POPC   GL221974  22.871  36.288   8.850
 4824POPC   C1A21975  22.907  36.090   8.550
 4824POPC   D2A21976  22.960  36.119   8.250
 4824POPC   C3A21977  22.919  36.121   7.950
 4824POPC   C4A21978  22.944  36.144   7.650
 4824POPC   C1B21979  22.868  36.406   8.550
 4824POPC   C2B21980  22.877  36.381   8.250
 4824POPC   C3B21981  22.868  36.407   7.950
 4824POPC   C4B21982  22.877  36.385   7.650
 4825POPC   NC321983  36.902  15.172   9.450
 4825POPC   PO421984  36.860  15.210   9.150
 4825POPC   GL121985  36.867  15.221   8.850
 4825POPC   GL221986  36.856  15.329   8.850
 4825POPC   C1A21987  36.858  15.169   8.550
 4825POPC   D2A21988  36.923  15.132   8.250
 4825POPC   C3A21989  36.895  15.208   7.950
 4825POPC   C4A21990  36.943  15.150   7.650
 4825POPC   C1B21991  36.823  15.467   8.550
 4825POPC   C2B21992  36.880  15.452   8.250
 4825POPC   C3B21993  36.817  15.392   7.950
 4825POPC   C4B21994  36.889  15.468   7.650
 4826POPC   NC321995   0.422  32.221   9.450
 4826POPC   PO421996   0.459  32.204   9.150
 4826POPC   GL121997   0.471  32.251   8.850
 4826POPC   GL221998   0.304  32.283   8.850
 4826POPC   C1A21999   0.457  32.252   8.550
 4826POPC   D2A22000   0.446  32.291   8.250
 4826POPC   C3A22001   0.459  32.202   7.950
 4826POPC   C4A22002   0.417  32.234   7.650
 4826POPC   C1B22003   0.249  32.380   8.550
 4826POPC   C2B22004   0.229  32.365   8.250
 4826POPC   C3B22005   0.260  32.343   7.950
 4826POPC   C4B22006   0.240  32.372   7.650
 4827POPC   NC322007   2.766   6.614   9.450
 4827POPC   PO422008   2.762   6.680   9.150
 4827POPC   GL122009   2.808   6.692   8.850
 4827POPC   GL222010   2.721   6.551   8.850
 4827POPC   C1A22011   2.798   6.681   8.550
 4827POPC   D2A22012   2.755   6.677   8.250
 4827POPC   C3A22013   2.750   6.693   7.950
 4827POPC   C4A22014   2.779   6.673   7.650
 4827POPC   C1B22015   2.690   6.426   8.550
 4827POPC   C2B22016   2.649   6.414   8.250
 4827POPC   C3B22017   2.663   6.418   7.950
 4827POPC   C4B22018   2.737   6.415   7.650
 4828POPC   NC322019  29.185  15.218   9.450
 4828POPC   PO422020  29.160  15.200   9.150
 4828POPC   GL122021  29.099  15.197   8.850
 4828POPC   GL222022  29.067  15.077   8.850
 4828POPC   C1A22023  29.154  15.133   8.550
 4828POPC   D2A22024  29.099  15.177   8.250
 4828POPC   C3A22025  29.194  15.140   7.950
 4828POPC   C4A22026  29.159  15.155   7.650
 4828POPC   C1B22027  29.035  14.933   8.550
 4828POPC   C2B22028  29.038  14.984   8.250
 4828POPC   C3B22029  29.029  15.004   7.950
 4828POPC   C4B22030  29.006  15.005   7.650
 4829POPC   NC322031  44.692  16.714   9.450
 4829POPC   PO422032  44.707  16.750   9.150
 4829POPC   GL122033  44.702  16.761   8.850
 4829POPC   GL222034  44.672  16.636   8.850
 4829POPC   C1A22035  44.637  16.709   8.550
 4829POPC   D2A22036  44.664  16.701   8.250
 4829POPC   C3A22037  44.676  16.718   7.950
 4829POPC   C4A22038  44.640  16.683   7.650
 4829POPC   C1B22039  44.721  16.506   8.550
 4829POPC   C2B22040  44.689  16.443   8.250
 4829POPC   C3B22041  44.709  16.470   7.950
 4829POPC   C4B22042  44.668  16.447   7.650
 4830POPC   NC322043   2.796   9.766   9.450
 4830POPC   PO422044   2.779   9.786   9.150
 4830POPC   GL122045   2.716   9.720   8.850
 4830POPC   GL222046   2.652   9.782   8.850
 4830POPC   C1A22047   2.745   9.763   8.550
 4830POPC   D2A22048   2.770   9.776   8.250
 4830POPC   C3A22049   2.745   9.731   7.950
 4830POPC   C4A22050   2.743   9.780   7.650
 4830POPC   C1B22051   2.508   9.768   8.550
 4830POPC   C2B22052   2.487   9.730   8.250
 4830POPC   C3B22053   2.466   9.784   7.950
 4830POPC   C4B22054   2.492   9.759   7.650
 4831POPC   NC322055   5.066  29.100   9.450
 4831POPC   PO422056   5.118  29.193   9.150
 4831POPC   GL122057   5.090  29.170   8.850
 4831POPC   GL222058   4.941  29.144   8.850
 4831POPC   C1A22059   5.091  29.116   8.550
 4831POPC   D2A22060   5.097  29.125   8.250
 4831POPC   C3A22061   5.053  29.180   7.950
 4831POPC   C4A22062   5.086  29.112   7.650
 4831POPC   C1B22063   4.877  29.234   8.550
 4831POPC   C2B22064   4.888  29.181   8.250
 4831POPC   C3B22065   4.845  29.160   7.950
 4831POPC   C4B22066   4.843  29.195   7.650
 4832POPC   NC322067  22.942  30.726   9.450
 4832POPC   PO422068  22.943  30.719   9.150
 4832POPC   GL122069  22.983  30.659   8.850
 4832POPC   GL222070  23.098  30.646   8.850
 4832POPC   C1A22071  22.976  30.650   8.550
 4832POPC   D2A22072  22.932  30.660   8.250
 4832POPC   C3A22073  22.951  30.653   7.950
 4832POPC   C4A22074  22.933  30.653   7.650
 4832POPC   C1B22075  23.180  30.636   8.550
 4832POPC   C2B22076  23.204  30.610   8.250
 4832POPC   C3B22077  23.205  30.623   7.950
 4832POPC   C4B22078  23.156  30.639   7.650
 4833POPC   NC322079  33.812  21.375   9.450
 4833POPC   PO422080  33.820  21.343   9.150
 4833POPC   GL122081  33.811  21.366   8.850
 4833POPC   GL222082  33.675  21.304   8.850
 4833POPC   C1A22083  33.847  21.391   8.550
 4833POPC   D2A22084  33.754  21.395   8.250
 4833POPC   C3A22085  33.812  21.393   7.950
 4833POPC   C4A22086  33.832  21.393   7.650
 4833POPC   C1B22087  33.605  21.264   8.550
 4833POPC   C2B22088  33.563  21.210   8.250
 4833POPC   C3B22089  33.608  21.198   7.950
 4833POPC   C4B22090  33.649  21.202   7.650
 4834POPC   NC322091  20.639  41.521   9.450
 4834POPC   PO422092  20.562  41.589   9.150
 4834POPC   GL122093  20.623  41.581   8.850
 4834POPC   GL222094  20.650  41.653   8.850
 4834POPC   C1A22095  20.617  41.512   8.550
 4834POPC   D2A22096  20.618  41.575   8.250
 4834POPC   C3A22097  20.596  41.578   7.950
 4834POPC   C4A22098  20.642  41.544   7.650
 4834POPC   C1B22099  20.774  41.756   8.550
 4834POPC   C2B22100  20.711  41.741   8.250
 4834POPC   C3B22101  20.800  41.767   7.950
 4834POPC   C4B22102  20.746  41.785   7.650
 4835POPC   NC322103  19.826  30.746   9.450
 4835POPC   PO422104  19.795  30.711   9.150
 4835POPC   GL122105  19.838  30.678   8.850
 4835POPC   GL222106  19.730  30.733   8.850
 4835POPC   C1A22107  19.869  30.668   8.550
 4835POPC   D2A22108  19.863  30.722   8.250
 4835POPC   C3A22109  19.864  30.654   7.950
 4835POPC   C4A22110  19.807  30.667   7.650
 4835POPC   C1B22111  19.556  30.699   8.550
 4835POPC   C2B22112  19.615  30.712   8.250
 4835POPC   C3B22113  19.596  30.679   7.950
 4835POPC   C4B22114  19.536  30.650   7.650
 4836POPC   NC322115  33.756  16.690   9.450
 4836POPC   PO422116  33.832  16.736   9.150
 4836POPC   GL122117  33.796  16.728   8.850
 4836POPC   GL222118  33.902  16.647   8.850
 4836POPC   C1A22119  33.817  16.733   8.550
 4836POPC   D2A22120  33.803  16.692   8.250
 4836POPC   C3A22121  33.821  16.708   7.950
 4836POPC   C4A22122  33.760  16.716   7.650
 4836POPC   C1B22123  33.922  16.554   8.550
 4836POPC   C2B22124  33.962  16.552   8.250
 4836POPC   C3B22125  33.960  16.549   7.950
 4836POPC   C4B22126  33.890  16.471   7.650
 4837POPC   NC322127  35.358  41.533   9.450
 4837POPC   PO422128  35.310  41.543   9.150
 4837POPC   GL122129  35.358  41.545   8.850
 4837POPC   GL222130  35.373  41.389   8.850
 4837POPC   C1A22131  35.388  41.579   8.550
 4837POPC   D2A22132  35.351  41.560   8.250
 4837POPC   C3A22133  35.371  41.560   7.950
 4837POPC   C4A22134  35.392  41.568   7.650
 4837POPC   C1B22135  35.439  41.280   8.550
 4837POPC   C2B22136  35.439  41.307   8.250
 4837POPC   C3B22137  35.388  41.355   7.950
 4837POPC   C4B22138  35.371  41.322   7.650
 4838POPC   NC322139  12.098  18.297   9.450
 4838POPC   PO422140  12.084  18.318   9.150
 4838POPC   GL122141  12.097  18.270   8.850
 4838POPC   GL222142  12.052  18.383   8.850
 4838POPC   C1A22143  12.087  18.284   8.550
 4838POPC   D2A22144  12.114  18.304   8.250
 4838POPC   C3A22145  12.072  18.266   7.950
 4838POPC   C4A22146  12.112  18.301   7.650
 4838POPC   C1B22147  12.143  18.573   8.550
 4838POPC   C2B22148  12.131  18.522   8.250
 4838POPC   C3B22149  12.053  18.519   7.950
 4838POPC   C4B22150  12.091  18.543   7.650
 4839POPC   NC322151  15.169  17.508   9.450
 4839POPC   PO422152  15.221  17.548   9.150
 4839POPC   GL122153  15.193  17.540   8.850
 4839POPC   GL222154  15.052  17.451   8.850
 4839POPC   C1A22155  15.164  17.490   8.550
 4839POPC   D2A22156  15.224  17.464   8.250
 4839POPC   C3A22157  15.159  17.477   7.950
 4839POPC   C4A22158  15.181  17.535   7.650
 4839POPC   C1B22159  15.010  17.311   8.550
 4839POPC   C2B22160  14.999  17.270   8.250
 4839POPC   C3B22161  15.058  17.304   7.950
 4839POPC   C4B22162  15.046  17.277   7.650
 4840POPC   NC322163  35.398  28.380   9.450
 4840POPC   PO422164  35.357  28.364   9.150
 4840POPC   GL122165  35.338  28.332   8.850
 4840POPC   GL222166  35.275  28.438   8.850
 4840POPC   C1A22167  35.316  28.336   8.550
 4840POPC   D2A22168  35.335  28.361   8.250
 4840POPC   C3A22169  35.342  28.360   7.950
 4840POPC   C4A22170  35.396  28.337   7.650
 4840POPC   C1B22171  35.177  28.606   8.550
 4840POPC   C2B22172  35.217  28.537   8.250
 4840POPC   C3B22173  35.242  28.630   7.950
 4840POPC   C4B22174  35.234  28.604   7.650
 4841POPC   NC322175   9.008  33.805   9.450
 4841POPC   PO422176   8.979  33.782   9.150
 4841POPC   GL122177   8.932  33.798   8.850
 4841POPC   GL222178   8.876  33.911   8.850
 4841POPC   C1A22179   8.944  33.849   8.550
 4841POPC   D2A22180   8.925  33.754   8.250
 4841POPC   C3A22181   9.000  33.789   7.950
 4841POPC   C4A22182   8.933  33.802   7.650
 4841POPC   C1B22183   8.797  34.046   8.550
 4841POPC   C2B22184   8.833  33.985   8.250
 4841POPC   C3B22185   8.828  33.963   7.950
 4841POPC   C4B22186   8.874  34.017   7.650
 4842POPC   NC322187  35.393  30.673   9.450
 4842POPC   PO422188  35.369  30.745   9.150
 4842POPC   GL122189  35.385  30.695   8.850
 4842POPC   GL222190  35.248  30.709   8.850
 4842POPC   C1A22191  35.361  30.672   8.550
 4842POPC   D2A22192  35.398  30.687   8.250
 4842POPC   C3A22193  35.372  30.659   7.950
 4842POPC   C4A22194  35.389  30.701   7.650
 4842POPC   C1B22195  35.111  30.759   8.550
 4842POPC   C2B22196  35.078  30.728   8.250
 4842POPC   C3B22197  35.076  30.691   7.950
 4842POPC   C4B22198  35.088  30.721   7.650
 4843POPC   NC322199  18.260  41.558   9.450
 4843POPC   PO422200  18.324  41.542   9.150
 4843POPC   GL122201  18.322  41.543   8.850
 4843POPC   GL222202  18.345  41.406   8.850
 4843POPC   C1A22203  18.256  41.565   8.550
 4843POPC   D2A22204  18.324  41.572   8.250
 4843POPC   C3A22205  18.236  41.537   7.950
 4843POPC   C4A22206  18.331  41.510   7.650
 4843POPC   C1B22207  18.453  41.314   8.550
 4843POPC   C2B22208  18.455  41.321   8.250
 4843POPC   C3B22209  18.418  41.308   7.950
 4843POPC   C4B22210  18.422  41.318   7.650
 4844POPC   NC322211   8.178  20.599   9.450
 4844POPC   PO422212   8.223  20.602   9.150
 4844POPC   GL122213   8.226  20.576   8.850
 4844POPC   GL222214   8.057  20.499   8.850
 4844POPC   C1A22215   8.237  20.626   8.550
 4844POPC   D2A22216   8.194  20.651   8.250
 4844POPC   C3A22217   8.148  20.652   7.950
 4844POPC   C4A22218   8.237  20.608   7.650
 4844POPC   C1B22219   8.042  20.430   8.550
 4844POPC   C2B22220   8.057  20.452   8.250
 4844POPC   C3B22221   8.020  20.395   7.950
 4844POPC   C4B22222   8.015  20.396   7.650
 4845POPC   NC322223  15.177   7.376   9.450
 4845POPC   PO422224  15.203   7.444   9.150
 4845POPC   GL122225  15.131   7.467   8.850
 4845POPC   GL222226  15.035   7.367   8.850
 4845POPC   C1A22227  15.170   7.390   8.550
 4845POPC   D2A22228  15.192   7.460   8.250
 4845POPC   C3A22229  15.215   7.450   7.950
 4845POPC   C4A22230  15.180   7.460   7.650
 4845POPC   C1B22231  14.912   7.390   8.550
 4845POPC   C2B22232  14.930   7.372   8.250
 4845POPC   C3B22233  14.958   7.415   7.950
 4845POPC   C4B22234  14.890   7.351   7.650
 4846POPC   NC322235  44.680  43.869   9.450
 4846POPC   PO422236  44.638  43.870   9.150
 4846POPC   GL122237  44.700  43.895   8.850
 4846POPC   GL222238  44.785  43.892   8.850
 4846POPC   C1A22239  44.617  43.869   8.550
 4846POPC   D2A22240  44.664  43.901   8.250
 4846POPC   C3A22241  44.670  43.876   7.950
 4846POPC   C4A22242  44.616  43.919   7.650
 4846POPC   C1B22243  44.919  43.888   8.550
 4846POPC   C2B22244  44.940  43.868   8.250
 4846POPC   C3B22245  44.958  43.925   7.950
 4846POPC   C4B22246  44.916  43.865   7.650
 4847POPC   NC322247  27.580  12.035   9.450
 4847POPC   PO422248  27.625  12.114   9.150
 4847POPC   GL122249  27.561  12.109   8.850
 4847POPC   GL222250  27.653  12.197   8.850
 4847POPC   C1A22251  27.566  12.027   8.550
 4847POPC   D2A22252  27.614  12.037   8.250
 4847POPC   C3A22253  27.627  12.074   7.950
 4847POPC   C4A22254  27.615  12.033   7.650
 4847POPC   C1B22255  27.769  12.253   8.550
 4847POPC   C2B22256  27.714  12.327   8.250
 4847POPC   C3B22257  27.732  12.301   7.950
 4847POPC   C4B22258  27.694  12.270   7.650
 4848POPC   NC322259  31.506  17.515   9.450
 4848POPC   PO422260  31.457  17.480   9.150
 4848POPC   GL122261  31.485  17.524   8.850
 4848POPC   GL222262  31.340  17.600   8.850
 4848POPC   C1A22263  31.427  17.472   8.550
 4848POPC   D2A22264  31.428  17.521   8.250
 4848POPC   C3A22265  31.508  17.533   7.950
 4848POPC   C4A22266  31.432  17.481   7.650
 4848POPC   C1B22267  31.285  17.713   8.550
 4848POPC   C2B22268  31.266  17.696   8.250
 4848POPC   C3B22269  31.291  17.702   7.950
 4848POPC   C4B22270  31.235  17.625   7.650
 4849POPC   NC322271  30.660   4.281   9.450
 4849POPC   PO422272  30.743   4.336   9.150
 4849POPC   GL122273  30.654   4.292   8.850
 4849POPC   GL222274  30.645   4.168   8.850
 4849POPC   C1A22275  30.729   4.321   8.550
 4849POPC   D2A22276  30.701   4.270   8.250
 4849POPC   C3A22277  30.738   4.352   7.950
 4849POPC   C4A22278  30.703   4.360   7.650
 4849POPC   C1B22279  30.680   4.047   8.550
 4849POPC   C2B22280  30.731   4.100   8.250
 4849POPC   C3B22281  30.649   4.073   7.950
 4849POPC   C4B22282  30.645   4.029   7.650
 4850POPC   NC322283  20.598  33.002   9.450
 4850POPC   PO422284  20.637  33.050   9.150
 4850POPC   GL122285  20.620  32.993   8.850
 4850POPC   GL222286  20.543  33.053   8.850
 4850POPC   C1A22287  20.620  33.052   8.550
 4850POPC   D2A22288  20.626  32.998   8.250
 4850POPC   C3A22289  20.658  33.010   7.950
 4850POPC   C4A22290  20.584  33.044   7.650
 4850POPC   C1B22291  20.380  33.116   8.550
 4850POPC   C2B22292  20.333  33.109   8.250
 4850POPC   C3B22293  20.373  33.098   7.950
 4850POPC   C4B22294  20.372  33.063   7.650
 4851POPC   NC322295   9.784   2.725   9.450
 4851POPC   PO422296   9.786   2.800   9.150
 4851POPC   GL122297   9.721   2.750   8.850
 4851POPC   GL222298   9.601   2.765   8.850
 4851POPC   C1A22299   9.716   2.763   8.550
 4851POPC   D2A22300   9.749   2.780   8.250
 4851POPC   C3A22301   9.787   2.769   7.950
 4851POPC   C4A22302   9.762   2.737   7.650
 4851POPC   C1B22303   9.457   2.716   8.550
 4851POPC   C2B22304   9.545   2.780   8.250
 4851POPC   C3B22305   9.525   2.724   7.950
 4851POPC   C4B22306   9.515   2.746   7.650
 4852POPC   NC322307  40.791  17.556   9.450
 4852POPC   PO422308  40.744  17.492   9.150
 4852POPC   GL122309  40.741  17.502   8.850
 4852POPC   GL222310  40.850  17.658   8.850
 4852POPC   C1A22311  40.748  17.517   8.550
 4852POPC   D2A22312  40.810  17.511   8.250
 4852POPC   C3A22313  40.749  17.467   7.950
 4852POPC   C4A22314  40.768  17.526   7.650
 4852POPC   C1B22315  40.882  17.794   8.550
 4852POPC   C2B22316  40.799  17.746   8.250
 4852POPC   C3B22317  40.866  17.716   7.950
 4852POPC   C4B22318  40.858  17.764   7.650
 4853POPC   NC322319  29.096  11.329   9.450
 4853POPC   PO422320  29.155  11.261   9.150
 4853POPC   GL122321  29.164  11.346   8.850
 4853POPC   GL222322  29.055  11.385   8.850
 4853POPC   C1A22323  29.125  11.271   8.550
 4853POPC   D2A22324  29.130  11.292   8.250
 4853POPC   C3A22325  29.110  11.271   7.950
 4853POPC   C4A22326  29.178  11.256   7.650
 4853POPC   C1B22327  28.966  11.516   8.550
 4853POPC   C2B22328  29.025  11.446   8.250
 4853POPC   C3B22329  29.023  11.510   7.950
 4853POPC   C4B22330  28.998  11.449   7.650
 4854POPC   NC322331  39.233  27.612   9.450
 4854POPC   PO422332  39.227  27.564   9.150
 4854POPC   GL122333  39.227  27.615   8.850
 4854POPC   GL222334  39.104  27.678   8.850
 4854POPC   C1A22335  39.223  27.550   8.550
 4854POPC   D2A22336  39.199  27.564   8.250
 4854POPC   C3A22337  39.181  27.632   7.950
 4854POPC   C4A22338  39.230  27.618   7.650
 4854POPC   C1B22339  38.964  27.730   8.550
 4854POPC   C2B22340  38.979  27.716   8.250
 4854POPC   C3B22341  39.004  27.702   7.950
 4854POPC   C4B22342  39.000  27.743   7.650
 4855POPC   NC322343  36.165  12.035   9.450
 4855POPC   PO422344  36.102  12.116   9.150
 4855POPC   GL122345  36.175  12.064   8.850
 4855POPC   GL222346  36.093  12.160   8.850
 4855POPC   C1A22347  36.120  12.081   8.550
 4855POPC   D2A22348  36.142  12.064   8.250
 4855POPC   C3A22349  36.157  12.036   7.950
 4855POPC   C4A22350  36.114  12.056   7.650
 4855POPC   C1B22351  36.163  12.314   8.550
 4855POPC   C2B22352  36.158  12.365   8.250
 4855POPC   C3B22353  36.140  12.354   7.950
 4855POPC   C4B22354  36.083  12.333   7.650
 4856POPC   NC322355   8.235  19.786   9.450
 4856POPC   PO422356   8.152  19.871   9.150
 4856POPC   GL122357   8.171  19.861   8.850
 4856POPC   GL222358   8.228  19.775   8.850
 4856POPC   C1A22359   8.148  19.863   8.550
 4856POPC   D2A22360   8.238  19.825   8.250
 4856POPC   C3A22361   8.235  19.790   7.950
 4856POPC   C4A22362   8.211  19.844   7.650
 4856POPC   C1B22363   8.383  19.613   8.550
 4856POPC   C2B22364   8.297  19.609   8.250
 4856POPC   C3B22365   8.345  19.583   7.950
 4856POPC   C4B22366   8.359  19.601   7.650
 4857POPC   NC322367  22.942  11.338   9.450
 4857POPC   PO422368  22.913  11.280   9.150
 4857POPC   GL122369  22.937  11.263   8.850
 4857POPC   GL222370  22.996  11.210   8.850
 4857POPC   C1A22371  22.903  11.343   8.550
 4857POPC   D2A22372  22.895  11.300   8.250
 4857POPC   C3A22373  22.980  11.316   7.950
 4857POPC   C4A22374  22.912  11.266   7.650
 4857POPC   C1B22375  23.100  11.046   8.550
 4857POPC   C2B22376  23.105  11.057   8.250
 4857POPC   C3B22377  23.109  11.078   7.950
 4857POPC   C4B22378  23.111  11.043   7.650
 4858POPC   NC322379   8.927  39.964   9.450
 4858POPC   PO422380   8.991  39.987   9.150
 4858POPC   GL122381   8.954  39.961   8.850
 4858POPC   GL222382   9.095  39.991   8.850
 4858POPC   C1A22383   9.011  40.027   8.550
 4858POPC   D2A22384   8.993  40.033   8.250
 4858POPC   C3A22385   8.928  40.018   7.950
 4858POPC   C4A22386   8.970  39.978   7.650
 4858POPC   C1B22387   9.239  39.982   8.550
 4858POPC   C2B22388   9.270  39.985   8.250
 4858POPC   C3B22389   9.200  39.948   7.950
 4858POPC   C4B22390   9.219  40.029   7.650
 4859POPC   NC322391   2.756  39.987   9.450
 4859POPC   PO422392   2.790  40.054   9.150
 4859POPC   GL122393   2.774  39.977   8.850
 4859POPC   GL222394   2.842  40.065   8.850
 4859POPC   C1A22395   2.737  40.053   8.550
 4859POPC   D2A22396   2.781  40.020   8.250
 4859POPC   C3A22397   2.721  39.976   7.950
 4859POPC   C4A22398   2.794  40.040   7.650
 4859POPC   C1B22399   3.045  40.123   8.550
 4859POPC   C2B22400   2.993  40.114   8.250
 4859POPC   C3B22401   3.003  40.054   7.950
 4859POPC   C4B22402   2.983  40.068   7.650
 4860POPC   NC322403  13.631   7.454   9.450
 4860POPC   PO422404  13.660   7.443   9.150
 4860POPC   GL122405  13.655   7.394   8.850
 4860POPC   GL222406  13.693   7.376   8.850
 4860POPC   C1A22407  13.653   7.433   8.550
 4860POPC   D2A22408  13.606   7.385   8.250
 4860POPC   C3A22409  13.597   7.392   7.950
 4860POPC   C4A22410  13.667   7.449   7.650
 4860POPC   C1B22411  13.847   7.271   8.550
 4860POPC   C2B22412  13.786   7.261   8.250
 4860POPC   C3B22413  13.777   7.279   7.950
 4860POPC   C4B22414  13.808   7.277   7.650
 4861POPC   NC322415  40.006  29.177   9.450
 4861POPC   PO422416  40.027  29.126   9.150
 4861POPC   GL122417  40.025  29.111   8.850
 4861POPC   GL222418  40.042  28.984   8.850
 4861POPC   C1A22419  39.962  29.100   8.550
 4861POPC   D2A22420  40.000  29.126   8.250
 4861POPC   C3A22421  40.027  29.115   7.950
 4861POPC   C4A22422  39.970  29.161   7.650
 4861POPC   C1B22423  40.077  28.912   8.550
 4861POPC   C2B22424  40.107  28.912   8.250
 4861POPC   C3B22425  40.101  28.931   7.950
 4861POPC   C4B22426  40.123  28.876   7.650
 4862POPC   NC322427   8.201  13.630   9.450
 4862POPC   PO422428   8.172  13.633   9.150
 4862POPC   GL122429   8.214  13.653   8.850
 4862POPC   GL222430   8.302  13.700   8.850
 4862POPC   C1A22431   8.245  13.642   8.550
 4862POPC   D2A22432   8.197  13.650   8.250
 4862POPC   C3A22433   8.151  13.635   7.950
 4862POPC   C4A22434   8.246  13.658   7.650
 4862POPC   C1B22435   8.392  13.703   8.550
 4862POPC   C2B22436   8.404  13.705   8.250
 4862POPC   C3B22437   8.489  13.630   7.950
 4862POPC   C4B22438   8.411  13.695   7.650
 4863POPC   NC322439  30.688   7.448   9.450
 4863POPC   PO422440  30.732   7.467   9.150
 4863POPC   GL122441  30.717   7.425   8.850
 4863POPC   GL222442  30.789   7.410   8.850
 4863POPC   C1A22443  30.677   7.401   8.550
 4863POPC   D2A22444  30.664   7.377   8.250
 4863POPC   C3A22445  30.727   7.373   7.950
 4863POPC   C4A22446  30.675   7.373   7.650
 4863POPC   C1B22447  30.978   7.502   8.550
 4863POPC   C2B22448  30.973   7.509   8.250
 4863POPC   C3B22449  30.912   7.475   7.950
 4863POPC   C4B22450  30.974   7.493   7.650
 4864POPC   NC322451  41.529   0.399   9.450
 4864POPC   PO422452  41.604   0.441   9.150
 4864POPC   GL122453  41.524   0.478   8.850
 4864POPC   GL222454  41.590   0.293   8.850
 4864POPC   C1A22455  41.580   0.425   8.550
 4864POPC   D2A22456  41.538   0.439   8.250
 4864POPC   C3A22457  41.559   0.444   7.950
 4864POPC   C4A22458  41.548   0.471   7.650
 4864POPC   C1B22459  41.656   0.205   8.550
 4864POPC   C2B22460  41.666   0.211   8.250
 4864POPC   C3B22461  41.590   0.183   7.950
 4864POPC   C4B22462  41.598   0.207   7.650
 4865POPC   NC322463  33.057   7.374   9.450
 4865POPC   PO422464  33.038   7.447   9.150
 4865POPC   GL122465  33.035   7.459   8.850
 4865POPC   GL222466  33.103   7.514   8.850
 4865POPC   C1A22467  33.053   7.413   8.550
 4865POPC   D2A22468  33.032   7.440   8.250
 4865POPC   C3A22469  32.985   7.429   7.950
 4865POPC   C4A22470  33.072   7.407   7.650
 4865POPC   C1B22471  33.162   7.609   8.550
 4865POPC   C2B22472  33.158   7.604   8.250
 4865POPC   C3B22473  33.162   7.570   7.950
 4865POPC   C4B22474  33.153   7.573   7.650
 4866POPC   NC322475  18.291  26.009   9.450
 4866POPC   PO422476  18.290  26.072   9.150
 4866POPC   GL122477  18.245  25.991   8.850
 4866POPC   GL222478  18.355  26.151   8.850
 4866POPC   C1A22479  18.233  26.088   8.550
 4866POPC   D2A22480  18.280  26.039   8.250
 4866POPC   C3A22481  18.292  25.997   7.950
 4866POPC   C4A22482  18.316  26.022   7.650
 4866POPC   C1B22483  18.437  26.150   8.550
 4866POPC   C2B22484  18.522  26.195   8.250
 4866POPC   C3B22485  18.530  26.142   7.950
 4866POPC   C4B22486  18.525  26.218   7.650
 4867POPC   NC322487   2.764  43.916   9.450
 4867POPC   PO422488   2.806  43.934   9.150
 4867POPC   GL122489   2.719  43.857   8.850
 4867POPC   GL222490   2.687  43.909   8.850
 4867POPC   C1A22491   2.747  43.852   8.550
 4867POPC   D2A22492   2.746  43.862   8.250
 4867POPC   C3A22493   2.744  43.842   7.950
 4867POPC   C4A22494   2.730  43.910   7.650
 4867POPC   C1B22495   2.578  43.996   8.550
 4867POPC   C2B22496   2.585  44.028   8.250
 4867POPC   C3B22497   2.497  43.980   7.950
 4867POPC   C4B22498   2.558  44.022   7.650
 4868POPC   NC322499  19.810  12.090   9.450
 4868POPC   PO422500  19.814  12.117   9.150
 4868POPC   GL122501  19.869  12.059   8.850
 4868POPC   GL222502  19.882  11.943   8.850
 4868POPC   C1A22503  19.819  12.123   8.550
 4868POPC   D2A22504  19.796  12.035   8.250
 4868POPC   C3A22505  19.881  12.084   7.950
 4868POPC   C4A22506  19.808  12.104   7.650
 4868POPC   C1B22507  20.023  11.886   8.550
 4868POPC   C2B22508  20.041  11.853   8.250
 4868POPC   C3B22509  20.047  11.897   7.950
 4868POPC   C4B22510  19.963  11.892   7.650
 4869POPC   NC322511  26.014  15.937   9.450
 4869POPC   PO422512  26.015  15.934   9.150
 4869POPC   GL122513  26.022  16.002   8.850
 4869POPC   GL222514  26.092  15.820   8.850
 4869POPC   C1A22515  26.077  15.929   8.550
 4869POPC   D2A22516  26.070  15.951   8.250
 4869POPC   C3A22517  26.078  15.970   7.950
 4869POPC   C4A22518  26.015  15.966   7.650
 4869POPC   C1B22519  26.213  15.696   8.550
 4869POPC   C2B22520  26.128  15.750   8.250
 4869POPC   C3B22521  26.125  15.749   7.950
 4869POPC   C4B22522  26.145  15.757   7.650
 4870POPC   NC322523   7.388  12.848   9.450
 4870POPC   PO422524   7.462  12.811   9.150
 4870POPC   GL122525   7.458  12.893   8.850
 4870POPC   GL222526   7.485  12.725   8.850
 4870POPC   C1A22527   7.394  12.845   8.550
 4870POPC   D2A22528   7.470  12.876   8.250
 4870POPC   C3A22529   7.469  12.835   7.950
 4870POPC   C4A22530   7.390  12.810   7.650
 4870POPC   C1B22531   7.553  12.619   8.550
 4870POPC   C2B22532   7.559  12.652   8.250
 4870POPC   C3B22533   7.483  12.643   7.950
 4870POPC   C4B22534   7.518  12.605   7.650
 4871POPC   NC322535  19.083   5.825   9.450
 4871POPC   PO422536  19.023   5.844   9.150
 4871POPC   GL122537  19.059   5.840   8.850
 4871POPC   GL222538  19.059   6.020   8.850
 4871POPC   C1A22539  19.083   5.824   8.550
 4871POPC   D2A22540  19.025   5.850   8.250
 4871POPC   C3A22541  19.070   5.855   7.950
 4871POPC   C4A22542  19.061   5.874   7.650
 4871POPC   C1B22543  19.053   6.076   8.550
 4871POPC   C2B22544  19.074   6.101   8.250
 4871POPC   C3B22545  19.077   6.083   7.950
 4871POPC   C4B22546  19.101   6.130   7.650
 4872POPC   NC322547  27.580   3.553   9.450
 4872POPC   PO422548  27.642   3.543   9.150
 4872POPC   GL122549  27.557   3.562   8.850
 4872POPC   GL222550  27.739   3.614   8.850
 4872POPC   C1A22551  27.582   3.498   8.550
 4872POPC   D2A22552  27.624   3.526   8.250
 4872POPC   C3A22553  27.641   3.535   7.950
 4872POPC   C4A22554  27.630   3.574   7.650
 4872POPC   C1B22555  27.825   3.724   8.550
 4872POPC   C2B22556  27.822   3.654   8.250
 4872POPC   C3B22557  27.761   3.681   7.950
 4872POPC   C4B22558  27.745   3.667   7.650
 4873POPC   NC322559  23.704   1.974   9.450
 4873POPC   PO422560  23.666   2.029   9.150
 4873POPC   GL122561  23.751   1.942   8.850
 4873POPC   GL222562  23.620   1.905   8.850
 4873POPC   C1A22563  23.726   1.953   8.550
 4873POPC   D2A22564  23.724   2.009   8.250
 4873POPC   C3A22565  23.721   1.983   7.950
 4873POPC   C4A22566  23.725   1.957   7.650
 4873POPC   C1B22567  23.521   1.830   8.550
 4873POPC   C2B22568  23.519   1.799   8.250
 4873POPC   C3B22569  23.546   1.818   7.950
 4873POPC   C4B22570  23.507   1.850   7.650
 4874POPC   NC322571   4.314  22.145   9.450
 4874POPC   PO422572   4.293  22.168   9.150
 4874POPC   GL122573   4.313  22.210   8.850
 4874POPC   GL222574   4.310  22.027   8.850
 4874POPC   C1A22575   4.337  22.131   8.550
 4874POPC   D2A22576   4.336  22.186   8.250
 4874POPC   C3A22577   4.329  22.198   7.950
 4874POPC   C4A22578   4.295  22.209   7.650
 4874POPC   C1B22579   4.191  21.890   8.550
 4874POPC   C2B22580   4.243  21.977   8.250
 4874POPC   C3B22581   4.192  21.938   7.950
 4874POPC   C4B22582   4.170  21.965   7.650
 4875POPC   NC322583   8.206  26.005   9.450
 4875POPC   PO422584   8.226  26.021   9.150
 4875POPC   GL122585   8.177  26.015   8.850
 4875POPC   GL222586   8.309  26.110   8.850
 4875POPC   C1A22587   8.217  26.047   8.550
 4875POPC   D2A22588   8.171  26.031   8.250
 4875POPC   C3A22589   8.230  26.028   7.950
 4875POPC   C4A22590   8.205  26.031   7.650
 4875POPC   C1B22591   8.343  26.237   8.550
 4875POPC   C2B22592   8.349  26.259   8.250
 4875POPC   C3B22593   8.377  26.211   7.950
 4875POPC   C4B22594   8.386  26.262   7.650
 4876POPC   NC322595  20.604   5.867   9.450
 4876POPC   PO422596  20.595   5.869   9.150
 4876POPC   GL122597  20.614   5.917   8.850
 4876POPC   GL222598  20.563   5.748   8.850
 4876POPC   C1A22599  20.655   5.918   8.550
 4876POPC   D2A22600  20.637   5.829   8.250
 4876POPC   C3A22601  20.642   5.868   7.950
 4876POPC   C4A22602  20.590   5.876   7.650
 4876POPC   C1B22603  20.473   5.671   8.550
 4876POPC   C2B22604  20.509   5.675   8.250
 4876POPC   C3B22605  20.548   5.686   7.950
 4876POPC   C4B22606  20.529   5.677   7.650
 4877POPC   NC322607  43.890  30.655   9.450
 4877POPC   PO422608  43.888  30.675   9.150
 4877POPC   GL122609  43.901  30.654   8.850
 4877POPC   GL222610  43.932  30.576   8.850
 4877POPC   C1A22611  43.850  30.717   8.550
 4877POPC   D2A22612  43.840  30.694   8.250
 4877POPC   C3A22613  43.927  30.713   7.950
 4877POPC   C4A22614  43.884  30.742   7.650
 4877POPC   C1B22615  44.007  30.488   8.550
 4877POPC   C2B22616  43.982  30.434   8.250
 4877POPC   C3B22617  43.981  30.498   7.950
 4877POPC   C4B22618  43.985  30.466   7.650
 4878POPC   NC322619   4.366   5.078   9.450
 4878POPC   PO422620   4.307   5.128   9.150
 4878POPC   GL122621   4.292   5.137   8.850
 4878POPC   GL222622   4.187   5.187   8.850
 4878POPC   C1A22623   4.303   5.057   8.550
 4878POPC   D2A22624   4.317   5.046   8.250
 4878POPC   C3A22625   4.296   5.110   7.950
 4878POPC   C4A22626   4.325   5.045   7.650
 4878POPC   C1B22627   4.110   5.219   8.550
 4878POPC   C2B22628   4.060   5.150   8.250
 4878POPC   C3B22629   4.092   5.152   7.950
 4878POPC   C4B22630   4.092   5.229   7.650
 4879POPC   NC322631  32.999  19.095   9.450
 4879POPC   PO422632  33.047  19.065   9.150
 4879POPC   GL122633  33.001  19.035   8.850
 4879POPC   GL222634  33.096  18.954   8.850
 4879POPC   C1A22635  32.989  19.023   8.550
 4879POPC   D2A22636  33.051  19.105   8.250
 4879POPC   C3A22637  33.034  19.010   7.950
 4879POPC   C4A22638  33.023  19.029   7.650
 4879POPC   C1B22639  33.099  18.831   8.550
 4879POPC   C2B22640  33.143  18.857   8.250
 4879POPC   C3B22641  33.152  18.845   7.950
 4879POPC   C4B22642  33.105  18.808   7.650
 4880POPC   NC322643  36.884   0.481   9.450
 4880POPC   PO422644  36.933   0.401   9.150
 4880POPC   GL122645  36.895   0.427   8.850
 4880POPC   GL222646  36.977   0.352   8.850
 4880POPC   C1A22647  36.855   0.440   8.550
 4880POPC   D2A22648  36.927   0.423   8.250
 4880POPC   C3A22649  36.893   0.402   7.950
 4880POPC   C4A22650  36.918   0.455   7.650
 4880POPC   C1B22651  36.955   0.165   8.550
 4880POPC   C2B22652  36.933   0.238   8.250
 4880POPC   C3B22653  37.005   0.187   7.950
 4880POPC   C4B22654  36.985   0.206   7.650
 4881POPC   NC322655  43.064   2.759   9.450
 4881POPC   PO422656  43.114   2.805   9.150
 4881POPC   GL122657  43.150   2.805   8.850
 4881POPC   GL222658  43.043   2.834   8.850
 4881POPC   C1A22659  43.070   2.802   8.550
 4881POPC   D2A22660  43.082   2.731   8.250
 4881POPC   C3A22661  43.092   2.738   7.950
 4881POPC   C4A22662  43.067   2.771   7.650
 4881POPC   C1B22663  42.977   2.921   8.550
 4881POPC   C2B22664  42.947   2.917   8.250
 4881POPC   C3B22665  42.980   2.988   7.950
 4881POPC   C4B22666  42.992   2.956   7.650
 4882POPC   NC322667  40.754  25.262   9.450
 4882POPC   PO422668  40.758  25.220   9.150
 4882POPC   GL122669  40.757  25.228   8.850
 4882POPC   GL222670  40.673  25.286   8.850
 4882POPC   C1A22671  40.790  25.295   8.550
 4882POPC   D2A22672  40.817  25.223   8.250
 4882POPC   C3A22673  40.832  25.235   7.950
 4882POPC   C4A22674  40.738  25.289   7.650
 4882POPC   C1B22675  40.604  25.436   8.550
 4882POPC   C2B22676  40.530  25.426   8.250
 4882POPC   C3B22677  40.596  25.397   7.950
 4882POPC   C4B22678  40.559  25.439   7.650
 4883POPC   NC322679  26.022  34.596   9.450
 4883POPC   PO422680  26.012  34.564   9.150
 4883POPC   GL122681  26.011  34.585   8.850
 4883POPC   GL222682  26.141  34.692   8.850
 4883POPC   C1A22683  26.047  34.614   8.550
 4883POPC   D2A22684  25.995  34.560   8.250
 4883POPC   C3A22685  26.021  34.570   7.950
 4883POPC   C4A22686  26.035  34.577   7.650
 4883POPC   C1B22687  26.275  34.702   8.550
 4883POPC   C2B22688  26.231  34.704   8.250
 4883POPC   C3B22689  26.271  34.758   7.950
 4883POPC   C4B22690  26.222  34.667   7.650
 4884POPC   NC322691  19.853  22.961   9.450
 4884POPC   PO422692  19.850  22.892   9.150
 4884POPC   GL122693  19.847  22.986   8.850
 4884POPC   GL222694  19.686  22.976   8.850
 4884POPC   C1A22695  19.809  22.968   8.550
 4884POPC   D2A22696  19.880  22.901   8.250
 4884POPC   C3A22697  19.868  22.942   7.950
 4884POPC   C4A22698  19.825  22.933   7.650
 4884POPC   C1B22699  19.540  22.956   8.550
 4884POPC   C2B22700  19.548  22.943   8.250
 4884POPC   C3B22701  19.542  22.915   7.950
 4884POPC   C4B22702  19.628  22.911   7.650
 4885POPC   NC322703  31.455  12.080   9.450
 4885POPC   PO422704  31.471  12.051   9.150
 4885POPC   GL122705  31.486  12.109   8.850
 4885POPC   GL222706  31.458  12.170   8.850
 4885POPC   C1A22707  31.484  12.113   8.550
 4885POPC   D2A22708  31.502  12.119   8.250
 4885POPC   C3A22709  31.512  12.066   7.950
 4885POPC   C4A22710  31.438  12.068   7.650
 4885POPC   C1B22711  31.402  12.327   8.550
 4885POPC   C2B22712  31.376  12.277   8.250
 4885POPC   C3B22713  31.444  12.283   7.950
 4885POPC   C4B22714  31.369  12.306   7.650
 4886POPC   NC322715   1.202  24.458   9.450
 4886POPC   PO422716   1.172  24.536   9.150
 4886POPC   GL122717   1.236  24.527   8.850
 4886POPC   GL222718   1.349  24.501   8.850
 4886POPC   C1A22719   1.209  24.484   8.550
 4886POPC   D2A22720   1.239  24.512   8.250
 4886POPC   C3A22721   1.241  24.465   7.950
 4886POPC   C4A22722   1.208  24.463   7.650
 4886POPC   C1B22723   1.462  24.590   8.550
 4886POPC   C2B22724   1.420  24.625   8.250
 4886POPC   C3B22725   1.448  24.638   7.950
 4886POPC   C4B22726   1.436  24.586   7.650
 4887POPC   NC322727  39.197  38.483   9.450
 4887POPC   PO422728  39.257  38.437   9.150
 4887POPC   GL122729  39.215  38.505   8.850
 4887POPC   GL222730  39.143  38.378   8.850
 4887POPC   C1A22731  39.281  38.471   8.550
 4887POPC   D2A22732  39.219  38.470   8.250
 4887POPC   C3A22733  39.242  38.453   7.950
 4887POPC   C4A22734  39.195  38.428   7.650
 4887POPC   C1B22735  38.968  38.398   8.550
 4887POPC   C2B22736  38.984  38.342   8.250
 4887POPC   C3B22737  38.997  38.357   7.950
 4887POPC   C4B22738  38.997  38.330   7.650
 4888POPC   NC322739  35.357  15.934   9.450
 4888POPC   PO422740  35.381  15.913   9.150
 4888POPC   GL122741  35.329  15.985   8.850
 4888POPC   GL222742  35.295  15.850   8.850
 4888POPC   C1A22743  35.328  15.964   8.550
 4888POPC   D2A22744  35.383  15.993   8.250
 4888POPC   C3A22745  35.307  15.942   7.950
 4888POPC   C4A22746  35.350  15.942   7.650
 4888POPC   C1B22747  35.136  15.754   8.550
 4888POPC   C2B22748  35.196  15.822   8.250
 4888POPC   C3B22749  35.166  15.826   7.950
 4888POPC   C4B22750  35.121  15.828   7.650
 4889POPC   NC322751   7.422  31.498   9.450
 4889POPC   PO422752   7.380  31.494   9.150
 4889POPC   GL122753   7.395  31.425   8.850
 4889POPC   GL222754   7.472  31.314   8.850
 4889POPC   C1A22755   7.393  31.469   8.550
 4889POPC   D2A22756   7.414  31.482   8.250
 4889POPC   C3A22757   7.435  31.511   7.950
 4889POPC   C4A22758   7.417  31.508   7.650
 4889POPC   C1B22759   7.506  31.244   8.550
 4889POPC   C2B22760   7.513  31.209   8.250
 4889POPC   C3B22761   7.552  31.209   7.950
 4889POPC   C4B22762   7.509  31.268   7.650
 4890POPC   NC322763  44.613  33.829   9.450
 4890POPC   PO422764  44.614  33.766   9.150
 4890POPC   GL122765  44.655  33.804   8.850
 4890POPC   GL222766  44.588  33.895   8.850
 4890POPC   C1A22767  44.668  33.765   8.550
 4890POPC   D2A22768  44.638  33.828   8.250
 4890POPC   C3A22769  44.687  33.797   7.950
 4890POPC   C4A22770  44.692  33.795   7.650
 4890POPC   C1B22771  44.455  33.991   8.550
 4890POPC   C2B22772  44.468  33.923   8.250
 4890POPC   C3B22773  44.458  33.978   7.950
 4890POPC   C4B22774  44.448  33.918   7.650
 4891POPC   NC322775   6.644  37.713   9.450
 4891POPC   PO422776   6.672  37.719   9.150
 4891POPC   GL122777   6.691  37.724   8.850
 4891POPC   GL222778   6.592  37.539   8.850
 4891POPC   C1A22779   6.601  37.637   8.550
 4891POPC   D2A22780   6.690  37.649   8.250
 4891POPC   C3A22781   6.660  37.728   7.950
 4891POPC   C4A22782   6.601  37.661   7.650
 4891POPC   C1B22783   6.493  37.413   8.550
 4891POPC   C2B22784   6.515  37.413   8.250
 4891POPC   C3B22785   6.565  37.481   7.950
 4891POPC   C4B22786   6.566  37.482   7.650
 4892POPC   NC322787  31.467  24.513   9.450
 4892POPC   PO422788  31.429  24.445   9.150
 4892POPC   GL122789  31.498  24.506   8.850
 4892POPC   GL222790  31.589  24.579   8.850
 4892POPC   C1A22791  31.431  24.459   8.550
 4892POPC   D2A22792  31.430  24.518   8.250
 4892POPC   C3A22793  31.494  24.502   7.950
 4892POPC   C4A22794  31.510  24.529   7.650
 4892POPC   C1B22795  31.726  24.620   8.550
 4892POPC   C2B22796  31.655  24.621   8.250
 4892POPC   C3B22797  31.687  24.643   7.950
 4892POPC   C4B22798  31.720  24.663   7.650
 4893POPC   NC322799  30.696  12.818   9.450
 4893POPC   PO422800  30.657  12.822   9.150
 4893POPC   GL122801  30.707  12.803   8.850
 4893POPC   GL222802  30.772  12.793   8.850
 4893POPC   C1A22803  30.673  12.881   8.550
 4893POPC   D2A22804  30.731  12.817   8.250
 4893POPC   C3A22805  30.719  12.838   7.950
 4893POPC   C4A22806  30.658  12.826   7.650
 4893POPC   C1B22807  30.921  12.752   8.550
 4893POPC   C2B22808  30.957  12.775   8.250
 4893POPC   C3B22809  30.938  12.752   7.950
 4893POPC   C4B22810  30.977  12.756   7.650
 4894POPC   NC322811  36.119  43.842   9.450
 4894POPC   PO422812  36.112  43.878   9.150
 4894POPC   GL122813  36.109  43.933   8.850
 4894POPC   GL222814  36.101  44.034   8.850
 4894POPC   C1A22815  36.161  43.840   8.550
 4894POPC   D2A22816  36.160  43.885   8.250
 4894POPC   C3A22817  36.097  43.844   7.950
 4894POPC   C4A22818  36.139  43.932   7.650
 4894POPC   C1B22819  36.008  44.154   8.550
 4894POPC   C2B22820  35.982  44.133   8.250
 4894POPC   C3B22821  36.071  44.119   7.950
 4894POPC   C4B22822  35.989  44.077   7.650
 4895POPC   NC322823  26.842  35.398   9.450
 4895POPC   PO422824  26.774  35.311   9.150
 4895POPC   GL122825  26.778  35.319   8.850
 4895POPC   GL222826  26.675  35.282   8.850
 4895POPC   C1A22827  26.776  35.338   8.550
 4895POPC   D2A22828  26.809  35.356   8.250
 4895POPC   C3A22829  26.820  35.308   7.950
 4895POPC   C4A22830  26.768  35.388   7.650
 4895POPC   C1B22831  26.587  35.238   8.550
 4895POPC   C2B22832  26.581  35.308   8.250
 4895POPC   C3B22833  26.628  35.270   7.950
 4895POPC   C4B22834  26.570  35.297   7.650
 4896POPC   NC322835  43.121  40.043   9.450
 4896POPC   PO422836  43.066  39.963   9.150
 4896POPC   GL122837  43.084  40.022   8.850
 4896POPC   GL222838  43.102  39.875   8.850
 4896POPC   C1A22839  43.069  40.016   8.550
 4896POPC   D2A22840  43.133  40.005   8.250
 4896POPC   C3A22841  43.141  39.990   7.950
 4896POPC   C4A22842  43.083  40.020   7.650
 4896POPC   C1B22843  43.081  39.817   8.550
 4896POPC   C2B22844  43.035  39.725   8.250
 4896POPC   C3B22845  42.990  39.790   7.950
 4896POPC   C4B22846  43.038  39.771   7.650
 4897POPC   NC322847   0.437  28.396   9.450
 4897POPC   PO422848   0.401  28.332   9.150
 4897POPC   GL122849   0.390  28.319   8.850
 4897POPC   GL222850   0.341  28.423   8.850
 4897POPC   C1A22851   0.441  28.353   8.550
 4897POPC   D2A22852   0.440  28.369   8.250
 4897POPC   C3A22853   0.473  28.393   7.950
 4897POPC   C4A22854   0.401  28.395   7.650
 4897POPC   C1B22855   0.277  28.504   8.550
 4897POPC   C2B22856   0.238  28.552   8.250
 4897POPC   C3B22857   0.221  28.534   7.950
 4897POPC   C4B22858   0.258  28.586   7.650
 4898POPC   NC322859  33.045  12.096   9.450
 4898POPC   PO422860  33.069  12.059   9.150
 4898POPC   GL122861  33.026  12.037   8.850
 4898POPC   GL222862  32.943  12.171   8.850
 4898POPC   C1A22863  33.010  12.040   8.550
 4898POPC   D2A22864  33.026  12.099   8.250
 4898POPC   C3A22865  32.996  12.051   7.950
 4898POPC   C4A22866  32.978  12.031   7.650
 4898POPC   C1B22867  32.824  12.227   8.550
 4898POPC   C2B22868  32.853  12.211   8.250
 4898POPC   C3B22869  32.838  12.227   7.950
 4898POPC   C4B22870  32.766  12.184   7.650
 4899POPC   NC322871   7.376   1.178   9.450
 4899POPC   PO422872   7.436   1.171   9.150
 4899POPC   GL122873   7.375   1.182   8.850
 4899POPC   GL222874   7.433   1.049   8.850
 4899POPC   C1A22875   7.433   1.242   8.550
 4899POPC   D2A22876   7.384   1.249   8.250
 4899POPC   C3A22877   7.413   1.214   7.950
 4899POPC   C4A22878   7.469   1.168   7.650
 4899POPC   C1B22879   7.441   1.008   8.550
 4899POPC   C2B22880   7.447   0.961   8.250
 4899POPC   C3B22881   7.436   0.931   7.950
 4899POPC   C4B22882   7.396   0.925   7.650
 4900POPC   NC322883   7.412  32.271   9.450
 4900POPC   PO422884   7.439  32.262   9.150
 4900POPC   GL122885   7.375  32.247   8.850
 4900POPC   GL222886   7.587  32.242   8.850
 4900POPC   C1A22887   7.411  32.270   8.550
 4900POPC   D2A22888   7.396  32.217   8.250
 4900POPC   C3A22889   7.393  32.210   7.950
 4900POPC   C4A22890   7.471  32.201   7.650
 4900POPC   C1B22891   7.614  32.138   8.550
 4900POPC   C2B22892   7.698  32.148   8.250
 4900POPC   C3B22893   7.644  32.201   7.950
 4900POPC   C4B22894   7.648  32.128   7.650
 4901POPC   NC322895  19.029  20.613   9.450
 4901POPC   PO422896  19.027  20.570   9.150
 4901POPC   GL122897  19.074  20.594   8.850
 4901POPC   GL222898  19.006  20.533   8.850
 4901POPC   C1A22899  19.061  20.645   8.550
 4901POPC   D2A22900  19.014  20.583   8.250
 4901POPC   C3A22901  19.106  20.603   7.950
 4901POPC   C4A22902  19.040  20.638   7.650
 4901POPC   C1B22903  18.886  20.393   8.550
 4901POPC   C2B22904  18.858  20.397   8.250
 4901POPC   C3B22905  18.899  20.388   7.950
 4901POPC   C4B22906  18.935  20.424   7.650
 4902POPC   NC322907   1.990  13.585   9.450
 4902POPC   PO422908   1.950  13.613   9.150
 4902POPC   GL122909   1.964  13.645   8.850
 4902POPC   GL222910   2.122  13.633   8.850
 4902POPC   C1A22911   2.026  13.661   8.550
 4902POPC   D2A22912   1.978  13.602   8.250
 4902POPC   C3A22913   2.017  13.629   7.950
 4902POPC   C4A22914   2.038  13.650   7.650
 4902POPC   C1B22915   2.257  13.732   8.550
 4902POPC   C2B22916   2.206  13.737   8.250
 4902POPC   C3B22917   2.186  13.730   7.950
 4902POPC   C4B22918   2.179  13.730   7.650
 4903POPC   NC322919  16.777   7.421   9.450
 4903POPC   PO422920  16.746   7.418   9.150
 4903POPC   GL122921  16.765   7.455   8.850
 4903POPC   GL222922  16.867   7.524   8.850
 4903POPC   C1A22923  16.744   7.399   8.550
 4903POPC   D2A22924  16.758   7.383   8.250
 4903POPC   C3A22925  16.687   7.407   7.950
 4903POPC   C4A22926  16.713   7.417   7.650
 4903POPC   C1B22927  16.877   7.566   8.550
 4903POPC   C2B22928  16.876   7.604   8.250
 4903POPC   C3B22929  16.877   7.607   7.950
 4903POPC   C4B22930  16.936   7.595   7.650
 4904POPC   NC322931  44.710  39.974   9.450
 4904POPC   PO422932  44.654  39.973   9.150
 4904POPC   GL122933  44.677  40.043   8.850
 4904POPC   GL222934  44.772  39.935   8.850
 4904POPC   C1A22935  44.663  40.043   8.550
 4904POPC   D2A22936  44.612  40.046   8.250
 4904POPC   C3A22937  44.649  39.995   7.950
 4904POPC   C4A22938  44.688  40.021   7.650
 4904POPC   C1B22939  44.898  39.869   8.550
 4904POPC   C2B22940  44.869  39.909   8.250
 4904POPC   C3B22941  44.860  39.854   7.950
 4904POPC   C4B22942  44.866  39.860   7.650
 4905POPC   NC322943  40.800  21.343   9.450
 4905POPC   PO422944  40.746  21.400   9.150
 4905POPC   GL122945  40.808  21.340   8.850
 4905POPC   GL222946  40.782  21.459   8.850
 4905POPC   C1A22947  40.754  21.395   8.550
 4905POPC   D2A22948  40.786  21.393   8.250
 4905POPC   C3A22949  40.754  21.341   7.950
 4905POPC   C4A22950  40.781  21.423   7.650
 4905POPC   C1B22951  40.818  21.595   8.550
 4905POPC   C2B22952  40.849  21.629   8.250
 4905POPC   C3B22953  40.816  21.595   7.950
 4905POPC   C4B22954  40.876  21.630   7.650
 4906POPC   NC322955  32.263  44.634   9.450
 4906POPC   PO422956  32.280  44.626   9.150
 4906POPC   GL122957  32.207  44.708   8.850
 4906POPC   GL222958  32.371  44.607   8.850
 4906POPC   C1A22959  32.210  44.665   8.550
 4906POPC   D2A22960  32.256  44.664   8.250
 4906POPC   C3A22961  32.292  44.624   7.950
 4906POPC   C4A22962  32.246  44.686   7.650
 4906POPC   C1B22963  32.514  44.661   8.550
 4906POPC   C2B22964  32.544  44.633   8.250
 4906POPC   C3B22965  32.496  44.667   7.950
 4906POPC   C4B22966  32.507  44.656   7.650
 4907POPC   NC322967  36.912  34.602   9.450
 4907POPC   PO422968  36.887  34.575   9.150
 4907POPC   GL122969  36.916  34.625   8.850
 4907POPC   GL222970  36.889  34.715   8.850
 4907POPC   C1A22971  36.899  34.572   8.550
 4907POPC   D2A22972  36.899  34.606   8.250
 4907POPC   C3A22973  36.881  34.607   7.950
 4907POPC   C4A22974  36.912  34.588   7.650
 4907POPC   C1B22975  36.867  34.836   8.550
 4907POPC   C2B22976  36.877  34.844   8.250
 4907POPC   C3B22977  36.811  34.784   7.950
 4907POPC   C4B22978  36.884  34.826   7.650
 4908POPC   NC322979  40.832  36.932   9.450
 4908POPC   PO422980  40.810  36.927   9.150
 4908POPC   GL122981  40.763  36.939   8.850
 4908POPC   GL222982  40.886  36.950   8.850
 4908POPC   C1A22983  40.816  36.899   8.550
 4908POPC   D2A22984  40.787  36.952   8.250
 4908POPC   C3A22985  40.785  36.905   7.950
 4908POPC   C4A22986  40.737  36.926   7.650
 4908POPC   C1B22987  40.995  36.905   8.550
 4908POPC   C2B22988  41.013  36.893   8.250
 4908POPC   C3B22989  41.081  36.885   7.950
 4908POPC   C4B22990  41.064  36.949   7.650
 4909POPC   NC322991  20.564  29.181   9.450
 4909POPC   PO422992  20.572  29.137   9.150
 4909POPC   GL122993  20.587  29.172   8.850
 4909POPC   GL222994  20.470  29.215   8.850
 4909POPC   C1A22995  20.579  29.162   8.550
 4909POPC   D2A22996  20.561  29.141   8.250
 4909POPC   C3A22997  20.626  29.122   7.950
 4909POPC   C4A22998  20.588  29.188   7.650
 4909POPC   C1B22999  20.417  29.265   8.550
 4909POPC   C2B23000  20.442  29.313   8.250
 4909POPC   C3B23001  20.422  29.275   7.950
 4909POPC   C4B23002  20.439  29.333   7.650
 4910POPC   NC323003   4.339  41.547   9.450
 4910POPC   PO423004   4.346  41.528   9.150
 4910POPC   GL123005   4.336  41.548   8.850
 4910POPC   GL223006   4.180  41.621   8.850
 4910POPC   C1A23007   4.335  41.568   8.550
 4910POPC   D2A23008   4.308  41.538   8.250
 4910POPC   C3A23009   4.334  41.604   7.950
 4910POPC   C4A23010   4.355  41.590   7.650
 4910POPC   C1B23011   4.074  41.743   8.550
 4910POPC   C2B23012   4.149  41.679   8.250
 4910POPC   C3B23013   4.074  41.697   7.950
 4910POPC   C4B23014   4.149  41.737   7.650
 4911POPC   NC323015   9.769   5.822   9.450
 4911POPC   PO423016   9.786   5.894   9.150
 4911POPC   GL123017   9.728   5.905   8.850
 4911POPC   GL223018   9.789   5.706   8.850
 4911POPC   C1A23019   9.741   5.879   8.550
 4911POPC   D2A23020   9.753   5.867   8.250
 4911POPC   C3A23021   9.754   5.916   7.950
 4911POPC   C4A23022   9.738   5.844   7.650
 4911POPC   C1B23023   9.729   5.617   8.550
 4911POPC   C2B23024   9.780   5.601   8.250
 4911POPC   C3B23025   9.759   5.651   7.950
 4911POPC   C4B23026   9.782   5.627   7.650
 4912POPC   NC323027  26.087  39.195   9.450
 4912POPC   PO423028  26.005  39.246   9.150
 4912POPC   GL123029  26.025  39.188   8.850
 4912POPC   GL223030  26.135  39.272   8.850
 4912POPC   C1A23031  25.993  39.273   8.550
 4912POPC   D2A23032  26.025  39.235   8.250
 4912POPC   C3A23033  26.008  39.227   7.950
 4912POPC   C4A23034  26.046  39.260   7.650
 4912POPC   C1B23035  26.231  39.384   8.550
 4912POPC   C2B23036  26.276  39.322   8.250
 4912POPC   C3B23037  26.276  39.325   7.950
 4912POPC   C4B23038  26.272  39.329   7.650
 4913POPC   NC323039  37.664  24.521   9.450
 4913POPC   PO423040  37.672  24.468   9.150
 4913POPC   GL123041  37.669  24.525   8.850
 4913POPC   GL223042  37.643  24.655   8.850
 4913POPC   C1A23043  37.651  24.508   8.550
 4913POPC   D2A23044  37.718  24.481   8.250
 4913POPC   C3A23045  37.657  24.454   7.950
 4913POPC   C4A23046  37.671  24.483   7.650
 4913POPC   C1B23047  37.670  24.731   8.550
 4913POPC   C2B23048  37.641  24.720   8.250
 4913POPC   C3B23049  37.659  24.695   7.950
 4913POPC   C4B23050  37.641  24.722   7.650
 4914POPC   NC323051  24.497  11.267   9.450
 4914POPC   PO423052  24.521  11.279   9.150
 4914POPC   GL123053  24.516  11.337   8.850
 4914POPC   GL223054  24.529  11.190   8.850
 4914POPC   C1A23055  24.481  11.318   8.550
 4914POPC   D2A23056  24.449  11.329   8.250
 4914POPC   C3A23057  24.513  11.334   7.950
 4914POPC   C4A23058  24.447  11.327   7.650
 4914POPC   C1B23059  24.528  11.023   8.550
 4914POPC   C2B23060  24.552  11.079   8.250
 4914POPC   C3B23061  24.569  11.075   7.950
 4914POPC   C4B23062  24.530  11.083   7.650
 4915POPC   NC323063  20.645  17.528   9.450
 4915POPC   PO423064  20.635  17.532   9.150
 4915POPC   GL123065  20.571  17.461   8.850
 4915POPC   GL223066  20.460  17.584   8.850
 4915POPC   C1A23067  20.610  17.547   8.550
 4915POPC   D2A23068  20.626  17.520   8.250
 4915POPC   C3A23069  20.642  17.478   7.950
 4915POPC   C4A23070  20.627  17.463   7.650
 4915POPC   C1B23071  20.344  17.577   8.550
 4915POPC   C2B23072  20.343  17.606   8.250
 4915POPC   C3B23073  20.402  17.531   7.950
 4915POPC   C4B23074  20.369  17.538   7.650
 4916POPC   NC323075  44.618  12.835   9.450
 4916POPC   PO423076  44.702  12.884   9.150
 4916POPC   GL123077  44.646  12.870   8.850
 4916POPC   GL223078  44.678  12.736   8.850
 4916POPC   C1A23079  44.628  12.893   8.550
 4916POPC   D2A23080  44.708  12.859   8.250
 4916POPC   C3A23081  44.621  12.837   7.950
 4916POPC   C4A23082  44.675  12.815   7.650
 4916POPC   C1B23083  44.788  12.591   8.550
 4916POPC   C2B23084  44.768  12.659   8.250
 4916POPC   C3B23085  44.746  12.663   7.950
 4916POPC   C4B23086  44.801  12.636   7.650
 4917POPC   NC323087  22.171  12.833   9.450
 4917POPC   PO423088  22.192  12.859   9.150
 4917POPC   GL123089  22.136  12.819   8.850
 4917POPC   GL223090  22.177  12.962   8.850
 4917POPC   C1A23091  22.180  12.824   8.550
 4917POPC   D2A23092  22.183  12.819   8.250
 4917POPC   C3A23093  22.171  12.876   7.950
 4917POPC   C4A23094  22.185  12.878   7.650
 4917POPC   C1B23095  22.235  13.129   8.550
 4917POPC   C2B23096  22.261  13.125   8.250
 4917POPC   C3B23097  22.281  13.077   7.950
 4917POPC   C4B23098  22.201  13.041   7.650
 4918POPC   NC323099  18.331  39.958   9.450
 4918POPC   PO423100  18.310  40.021   9.150
 4918POPC   GL123101  18.262  40.029   8.850
 4918POPC   GL223102  18.420  39.954   8.850
 4918POPC   C1A23103  18.266  40.014   8.550
 4918POPC   D2A23104  18.279  40.046   8.250
 4918POPC   C3A23105  18.255  39.992   7.950
 4918POPC   C4A23106  18.245  40.045   7.650
 4918POPC   C1B23107  18.541  39.895   8.550
 4918POPC   C2B23108  18.486  39.839   8.250
 4918POPC   C3B23109  18.454  39.849   7.950
 4918POPC   C4B23110  18.499  39.835   7.650
 4919POPC   NC323111  35.333  10.513   9.450
 4919POPC   PO423112  35.357  10.497   9.150
 4919POPC   GL123113  35.396  10.574   8.850
 4919POPC   GL223114  35.323  10.423   8.850
 4919POPC   C1A23115  35.324  10.494   8.550
 4919POPC   D2A23116  35.377  10.551   8.250
 4919POPC   C3A23117  35.357  10.559   7.950
 4919POPC   C4A23118  35.317  10.564   7.650
 4919POPC   C1B23119  35.351  10.300   8.550
 4919POPC   C2B23120  35.404  10.259   8.250
 4919POPC   C3B23121  35.338  10.229   7.950
 4919POPC   C4B23122  35.357  10.275   7.650
 4920POPC   NC323123  30.696  11.270   9.450
 4920POPC   PO423124  30.648  11.273   9.150
 4920POPC   GL123125  30.735  11.345   8.850
 4920POPC   GL223126  30.614  11.180   8.850
 4920POPC   C1A23127  30.710  11.293   8.550
 4920POPC   D2A23128  30.693  11.269   8.250
 4920POPC   C3A23129  30.651  11.310   7.950
 4920POPC   C4A23130  30.675  11.337   7.650
 4920POPC   C1B23131  30.517  11.142   8.550
 4920POPC   C2B23132  30.489  11.098   8.250
 4920POPC   C3B23133  30.517  11.130   7.950
 4920POPC   C4B23134  30.557  11.143   7.650
 4921POPC   NC323135  37.712  17.461   9.450
 4921POPC   PO423136  37.661  17.518   9.150
 4921POPC   GL123137  37.723  17.474   8.850
 4921POPC   GL223138  37.805  17.484   8.850
 4921POPC   C1A23139  37.685  17.556   8.550
 4921POPC   D2A23140  37.664  17.533   8.250
 4921POPC   C3A23141  37.648  17.486   7.950
 4921POPC   C4A23142  37.641  17.531   7.650
 4921POPC   C1B23143  37.887  17.396   8.550
 4921POPC   C2B23144  37.883  17.360   8.250
 4921POPC   C3B23145  37.920  17.324   7.950
 4921POPC   C4B23146  37.921  17.393   7.650
 4922POPC   NC323147  15.970  36.122   9.450
 4922POPC   PO423148  15.907  36.095   9.150
 4922POPC   GL123149  15.924  36.094   8.850
 4922POPC   GL223150  16.031  36.232   8.850
 4922POPC   C1A23151  15.916  36.166   8.550
 4922POPC   D2A23152  15.998  36.083   8.250
 4922POPC   C3A23153  15.947  36.087   7.950
 4922POPC   C4A23154  15.933  36.078   7.650
 4922POPC   C1B23155  16.199  36.251   8.550
 4922POPC   C2B23156  16.119  36.280   8.250
 4922POPC   C3B23157  16.147  36.265   7.950
 4922POPC   C4B23158  16.143  36.235   7.650
 4923POPC   NC323159  36.149  30.669   9.450
 4923POPC   PO423160  36.141  30.708   9.150
 4923POPC   GL123161  36.126  30.717   8.850
 4923POPC   GL223162  36.259  30.723   8.850
 4923POPC   C1A23163  36.153  30.743   8.550
 4923POPC   D2A23164  36.103  30.662   8.250
 4923POPC   C3A23165  36.079  30.679   7.950
 4923POPC   C4A23166  36.133  30.715   7.650
 4923POPC   C1B23167  36.366  30.727   8.550
 4923POPC   C2B23168  36.422  30.738   8.250
 4923POPC   C3B23169  36.409  30.679   7.950
 4923POPC   C4B23170  36.406  30.706   7.650
 4924POPC   NC323171  13.630   3.550   9.450
 4924POPC   PO423172  13.605   3.498   9.150
 4924POPC   GL123173  13.647   3.552   8.850
 4924POPC   GL223174  13.749   3.503   8.850
 4924POPC   C1A23175  13.593   3.575   8.550
 4924POPC   D2A23176  13.668   3.579   8.250
 4924POPC   C3A23177  13.669   3.528   7.950
 4924POPC   C4A23178  13.629   3.576   7.650
 4924POPC   C1B23179  13.791   3.330   8.550
 4924POPC   C2B23180  13.842   3.348   8.250
 4924POPC   C3B23181  13.794   3.378   7.950
 4924POPC   C4B23182  13.780   3.373   7.650
 4925POPC   NC323183  41.606   1.248   9.450
 4925POPC   PO423184  41.509   1.193   9.150
 4925POPC   GL123185  41.541   1.184   8.850
 4925POPC   GL223186  41.603   1.141   8.850
 4925POPC   C1A23187  41.589   1.231   8.550
 4925POPC   D2A23188  41.522   1.232   8.250
 4925POPC   C3A23189  41.516   1.260   7.950
 4925POPC   C4A23190  41.580   1.179   7.650
 4925POPC   C1B23191  41.729   1.005   8.550
 4925POPC   C2B23192  41.759   1.030   8.250
 4925POPC   C3B23193  41.710   1.030   7.950
 4925POPC   C4B23194  41.720   1.079   7.650
 4926POPC   NC323195  36.099   6.632   9.450
 4926POPC   PO423196  36.155   6.631   9.150
 4926POPC   GL123197  36.150   6.656   8.850
 4926POPC   GL223198  36.130   6.747   8.850
 4926POPC   C1A23199  36.150   6.630   8.550
 4926POPC   D2A23200  36.105   6.666   8.250
 4926POPC   C3A23201  36.091   6.620   7.950
 4926POPC   C4A23202  36.081   6.649   7.650
 4926POPC   C1B23203  36.261   6.888   8.550
 4926POPC   C2B23204  36.266   6.829   8.250
 4926POPC   C3B23205  36.208   6.859   7.950
 4926POPC   C4B23206  36.221   6.842   7.650
 4927POPC   NC323207   1.192  15.967   9.450
 4927POPC   PO423208   1.214  15.916   9.150
 4927POPC   GL123209   1.216  15.989   8.850
 4927POPC   GL223210   1.342  15.902   8.850
 4927POPC   C1A23211   1.231  15.969   8.550
 4927POPC   D2A23212   1.195  15.959   8.250
 4927POPC   C3A23213   1.261  15.906   7.950
 4927POPC   C4A23214   1.251  15.907   7.650
 4927POPC   C1B23215   1.371  15.824   8.550
 4927POPC   C2B23216   1.407  15.792   8.250
 4927POPC   C3B23217   1.423  15.758   7.950
 4927POPC   C4B23218   1.383  15.836   7.650
 4928POPC   NC323219  40.050  13.614   9.450
 4928POPC   PO423220  40.005  13.611   9.150
 4928POPC   GL123221  39.957  13.648   8.850
 4928POPC   GL223222  39.957  13.736   8.850
 4928POPC   C1A23223  40.021  13.650   8.550
 4928POPC   D2A23224  40.011  13.677   8.250
 4928POPC   C3A23225  40.050  13.639   7.950
 4928POPC   C4A23226  40.034  13.606   7.650
 4928POPC   C1B23227  39.945  13.858   8.550
 4928POPC   C2B23228  39.862  13.866   8.250
 4928POPC   C3B23229  39.864  13.813   7.950
 4928POPC   C4B23230  39.868  13.853   7.650
 4929POPC   NC323231  43.104  42.316   9.450
 4929POPC   PO423232  43.068  42.321   9.150
 4929POPC   GL123233  43.069  42.293   8.850
 4929POPC   GL223234  43.139  42.219   8.850
 4929POPC   C1A23235  43.110  42.359   8.550
 4929POPC   D2A23236  43.155  42.356   8.250
 4929POPC   C3A23237  43.111  42.341   7.950
 4929POPC   C4A23238  43.068  42.330   7.650
 4929POPC   C1B23239  43.181  42.104   8.550
 4929POPC   C2B23240  43.180  42.161   8.250
 4929POPC   C3B23241  43.195  42.082   7.950
 4929POPC   C4B23242  43.237  42.115   7.650
 4930POPC   NC323243  10.544  28.356   9.450
 4930POPC   PO423244  10.510  28.409   9.150
 4930POPC   GL123245  10.556  28.365   8.850
 4930POPC   GL223246  10.511  28.278   8.850
 4930POPC   C1A23247  10.498  28.334   8.550
 4930POPC   D2A23248  10.502  28.364   8.250
 4930POPC   C3A23249  10.570  28.383   7.950
 4930POPC   C4A23250  10.540  28.409   7.650
 4930POPC   C1B23251  10.441  28.189   8.550
 4930POPC   C2B23252  10.382  28.200   8.250
 4930POPC   C3B23253  10.357  28.198   7.950
 4930POPC   C4B23254  10.431  28.153   7.650
 4931POPC   NC323255  19.077  12.818   9.450
 4931POPC   PO423256  19.044  12.870   9.150
 4931POPC   GL123257  19.016  12.880   8.850
 4931POPC   GL223258  18.978  12.936   8.850
 4931POPC   C1A23259  19.070  12.825   8.550
 4931POPC   D2A23260  19.082  12.831   8.250
 4931POPC   C3A23261  19.102  12.844   7.950
 4931POPC   C4A23262  19.036  12.849   7.650
 4931POPC   C1B23263  18.981  13.059   8.550
 4931POPC   C2B23264  19.013  13.086   8.250
 4931POPC   C3B23265  19.008  13.129   7.950
 4931POPC   C4B23266  19.005  13.056   7.650
 4932POPC   NC323267  12.819  21.344   9.450
 4932POPC   PO423268  12.861  21.360   9.150
 4932POPC   GL123269  12.898  21.406   8.850
 4932POPC   GL223270  12.788  21.431   8.850
 4932POPC   C1A23271  12.854  21.347   8.550
 4932POPC   D2A23272  12.892  21.356   8.250
 4932POPC   C3A23273  12.820  21.351   7.950
 4932POPC   C4A23274  12.812  21.391   7.650
 4932POPC   C1B23275  12.667  21.477   8.550
 4932POPC   C2B23276  12.650  21.557   8.250
 4932POPC   C3B23277  12.660  21.558   7.950
 4932POPC   C4B23278  12.643  21.492   7.650
 4933POPC   NC323279  33.037  36.112   9.450
 4933POPC   PO423280  33.033  36.119   9.150
 4933POPC   GL123281  32.980  36.097   8.850
 4933POPC   GL223282  33.095  36.205   8.850
 4933POPC   C1A23283  33.016  36.111   8.550
 4933POPC   D2A23284  33.049  36.095   8.250
 4933POPC   C3A23285  33.000  36.136   7.950
 4933POPC   C4A23286  32.977  36.177   7.650
 4933POPC   C1B23287  33.247  36.294   8.550
 4933POPC   C2B23288  33.188  36.318   8.250
 4933POPC   C3B23289  33.220  36.280   7.950
 4933POPC   C4B23290  33.201  36.313   7.650
 4934POPC   NC323291  33.797  35.388   9.450
 4934POPC   PO423292  33.811  35.321   9.150
 4934POPC   GL123293  33.823  35.368   8.850
 4934POPC   GL223294  33.810  35.223   8.850
 4934POPC   C1A23295  33.822  35.387   8.550
 4934POPC   D2A23296  33.783  35.374   8.250
 4934POPC   C3A23297  33.803  35.353   7.950
 4934POPC   C4A23298  33.773  35.311   7.650
 4934POPC   C1B23299  33.861  35.114   8.550
 4934POPC   C2B23300  33.874  35.135   8.250
 4934POPC   C3B23301  33.808  35.152   7.950
 4934POPC   C4B23302  33.835  35.150   7.650
 4935POPC   NC323303  13.635  12.869   9.450
 4935POPC   PO423304  13.607  12.822   9.150
 4935POPC   GL123305  13.594  12.879   8.850
 4935POPC   GL223306  13.583  12.984   8.850
 4935POPC   C1A23307  13.586  12.876   8.550
 4935POPC   D2A23308  13.579  12.845   8.250
 4935POPC   C3A23309  13.662  12.876   7.950
 4935POPC   C4A23310  13.671  12.846   7.650
 4935POPC   C1B23311  13.585  13.098   8.550
 4935POPC   C2B23312  13.543  13.067   8.250
 4935POPC   C3B23313  13.590  13.099   7.950
 4935POPC   C4B23314  13.577  13.130   7.650
 4936POPC   NC323315  22.958  13.636   9.450
 4936POPC   PO423316  22.930  13.668   9.150
 4936POPC   GL123317  22.945  13.636   8.850
 4936POPC   GL223318  23.024  13.740   8.850
 4936POPC   C1A23319  22.941  13.668   8.550
 4936POPC   D2A23320  22.892  13.583   8.250
 4936POPC   C3A23321  22.949  13.624   7.950
 4936POPC   C4A23322  22.965  13.606   7.650
 4936POPC   C1B23323  23.179  13.768   8.550
 4936POPC   C2B23324  23.118  13.723   8.250
 4936POPC   C3B23325  23.149  13.794   7.950
 4936POPC   C4B23326  23.184  13.783   7.650
 4937POPC   NC323327  22.208   2.808   9.450
 4937POPC   PO423328  22.159   2.815   9.150
 4937POPC   GL123329  22.155   2.749   8.850
 4937POPC   GL223330  22.327   2.779   8.850
 4937POPC   C1A23331  22.122   2.734   8.550
 4937POPC   D2A23332  22.160   2.778   8.250
 4937POPC   C3A23333  22.186   2.799   7.950
 4937POPC   C4A23334  22.163   2.731   7.650
 4937POPC   C1B23335  22.451   2.858   8.550
 4937POPC   C2B23336  22.388   2.791   8.250
 4937POPC   C3B23337  22.447   2.862   7.950
 4937POPC   C4B23338  22.354   2.817   7.650
 4938POPC   NC323339  29.125  21.394   9.450
 4938POPC   PO423340  29.106  21.339   9.150
 4938POPC   GL123341  29.179  21.402   8.850
 4938POPC   GL223342  29.181  21.331   8.850
 4938POPC   C1A23343  29.130  21.367   8.550
 4938POPC   D2A23344  29.135  21.432   8.250
 4938POPC   C3A23345  29.117  21.360   7.950
 4938POPC   C4A23346  29.124  21.383   7.650
 4938POPC   C1B23347  29.264  21.151   8.550
 4938POPC   C2B23348  29.301  21.199   8.250
 4938POPC   C3B23349  29.301  21.158   7.950
 4938POPC   C4B23350  29.252  21.147   7.650
 4939POPC   NC323351   5.906  36.871   9.450
 4939POPC   PO423352   5.881  36.861   9.150
 4939POPC   GL123353   5.878  36.855   8.850
 4939POPC   GL223354   5.897  36.778   8.850
 4939POPC   C1A23355   5.824  36.885   8.550
 4939POPC   D2A23356   5.859  36.880   8.250
 4939POPC   C3A23357   5.842  36.915   7.950
 4939POPC   C4A23358   5.832  36.862   7.650
 4939POPC   C1B23359   5.985  36.631   8.550
 4939POPC   C2B23360   5.985  36.676   8.250
 4939POPC   C3B23361   5.946  36.635   7.950
 4939POPC   C4B23362   5.960  36.665   7.650
 4940POPC   NC323363  42.334  12.899   9.450
 4940POPC   PO423364  42.337  12.897   9.150
 4940POPC   GL123365  42.309  12.846   8.850
 4940POPC   GL223366  42.299  12.770   8.850
 4940POPC   C1A23367  42.323  12.876   8.550
 4940POPC   D2A23368  42.293  12.824   8.250
 4940POPC   C3A23369  42.321  12.831   7.950
 4940POPC   C4A23370  42.367  12.897   7.650
 4940POPC   C1B23371  42.317  12.650   8.550
 4940POPC   C2B23372  42.314  12.618   8.250
 4940POPC   C3B23373  42.270  12.593   7.950
 4940POPC   C4B23374  42.240  12.643   7.650
 4941POPC   NC323375  33.001  20.588   9.450
 4941POPC   PO423376  33.021  20.649   9.150
 4941POPC   GL123377  33.067  20.634   8.850
 4941POPC   GL223378  33.050  20.489   8.850
 4941POPC   C1A23379  32.982  20.623   8.550
 4941POPC   D2A23380  32.987  20.652   8.250
 4941POPC   C3A23381  32.976  20.652   7.950
 4941POPC   C4A23382  33.020  20.639   7.650
 4941POPC   C1B23383  33.077  20.383   8.550
 4941POPC   C2B23384  33.032  20.358   8.250
 4941POPC   C3B23385  33.010  20.335   7.950
 4941POPC   C4B23386  33.100  20.333   7.650
 4942POPC   NC323387  12.067  33.045   9.450
 4942POPC   PO423388  12.075  33.043   9.150
 4942POPC   GL123389  12.027  32.991   8.850
 4942POPC   GL223390  11.913  32.941   8.850
 4942POPC   C1A23391  12.082  32.994   8.550
 4942POPC   D2A23392  12.085  33.027   8.250
 4942POPC   C3A23393  12.034  33.067   7.950
 4942POPC   C4A23394  12.099  33.018   7.650
 4942POPC   C1B23395  11.883  32.957   8.550
 4942POPC   C2B23396  11.815  32.985   8.250
 4942POPC   C3B23397  11.828  32.951   7.950
 4942POPC   C4B23398  11.805  32.914   7.650
 4943POPC   NC323399  37.700   1.202   9.450
 4943POPC   PO423400  37.652   1.263   9.150
 4943POPC   GL123401  37.677   1.168   8.850
 4943POPC   GL223402  37.626   1.316   8.850
 4943POPC   C1A23403  37.657   1.218   8.550
 4943POPC   D2A23404  37.692   1.197   8.250
 4943POPC   C3A23405  37.697   1.241   7.950
 4943POPC   C4A23406  37.665   1.200   7.650
 4943POPC   C1B23407  37.610   1.429   8.550
 4943POPC   C2B23408  37.639   1.416   8.250
 4943POPC   C3B23409  37.626   1.459   7.950
 4943POPC   C4B23410  37.595   1.471   7.650
 4944POPC   NC323411  33.760  26.067   9.450
 4944POPC   PO423412  33.829  26.048   9.150
 4944POPC   GL123413  33.767  26.080   8.850
 4944POPC   GL223414  33.872  26.158   8.850
 4944POPC   C1A23415  33.805  25.994   8.550
 4944POPC   D2A23416  33.790  26.037   8.250
 4944POPC   C3A23417  33.796  26.087   7.950
 4944POPC   C4A23418  33.803  26.078   7.650
 4944POPC   C1B23419  33.856  26.258   8.550
 4944POPC   C2B23420  33.889  26.334   8.250
 4944POPC   C3B23421  33.863  26.262   7.950
 4944POPC   C4B23422  33.846  26.239   7.650
 4945POPC   NC323423  18.291  39.271   9.450
 4945POPC   PO423424  18.266  39.199   9.150
 4945POPC   GL123425  18.286  39.245   8.850
 4945POPC   GL223426  18.194  39.249   8.850
 4945POPC   C1A23427  18.290  39.272   8.550
 4945POPC   D2A23428  18.276  39.269   8.250
 4945POPC   C3A23429  18.286  39.233   7.950
 4945POPC   C4A23430  18.305  39.197   7.650
 4945POPC   C1B23431  18.041  39.343   8.550
 4945POPC   C2B23432  18.038  39.267   8.250
 4945POPC   C3B23433  18.074  39.298   7.950
 4945POPC   C4B23434  18.045  39.250   7.650
 4946POPC   NC323435   1.254  14.450   9.450
 4946POPC   PO423436   1.219  14.356   9.150
 4946POPC   GL123437   1.224  14.441   8.850
 4946POPC   GL223438   1.133  14.333   8.850
 4946POPC   C1A23439   1.219  14.411   8.550
 4946POPC   D2A23440   1.219  14.393   8.250
 4946POPC   C3A23441   1.174  14.453   7.950
 4946POPC   C4A23442   1.205  14.427   7.650
 4946POPC   C1B23443   1.090  14.125   8.550
 4946POPC   C2B23444   1.172  14.128   8.250
 4946POPC   C3B23445   1.134  14.127   7.950
 4946POPC   C4B23446   1.110  14.145   7.650
 4947POPC   NC323447  18.242  15.210   9.450
 4947POPC   PO423448  18.245  15.153   9.150
 4947POPC   GL123449  18.282  15.130   8.850
 4947POPC   GL223450  18.345  15.258   8.850
 4947POPC   C1A23451  18.318  15.163   8.550
 4947POPC   D2A23452  18.279  15.130   8.250
 4947POPC   C3A23453  18.262  15.161   7.950
 4947POPC   C4A23454  18.233  15.201   7.650
 4947POPC   C1B23455  18.345  15.393   8.550
 4947POPC   C2B23456  18.333  15.469   8.250
 4947POPC   C3B23457  18.348  15.427   7.950
 4947POPC   C4B23458  18.272  15.385   7.650
 4948POPC   NC323459  19.824  23.760   9.450
 4948POPC   PO423460  19.863  23.728   9.150
 4948POPC   GL123461  19.875  23.722   8.850
 4948POPC   GL223462  19.741  23.733   8.850
 4948POPC   C1A23463  19.869  23.692   8.550
 4948POPC   D2A23464  19.786  23.726   8.250
 4948POPC   C3A23465  19.789  23.697   7.950
 4948POPC   C4A23466  19.843  23.676   7.650
 4948POPC   C1B23467  19.622  23.803   8.550
 4948POPC   C2B23468  19.635  23.755   8.250
 4948POPC   C3B23469  19.560  23.847   7.950
 4948POPC   C4B23470  19.618  23.844   7.650
 4949POPC   NC323471   2.028   1.226   9.450
 4949POPC   PO423472   1.971   1.233   9.150
 4949POPC   GL123473   1.984   1.249   8.850
 4949POPC   GL223474   2.056   1.135   8.850
 4949POPC   C1A23475   2.020   1.247   8.550
 4949POPC   D2A23476   1.995   1.166   8.250
 4949POPC   C3A23477   2.001   1.214   7.950
 4949POPC   C4A23478   1.996   1.227   7.650
 4949POPC   C1B23479   2.197   1.067   8.550
 4949POPC   C2B23480   2.250   1.048   8.250
 4949POPC   C3B23481   2.196   1.131   7.950
 4949POPC   C4B23482   2.215   1.057   7.650
 4950POPC   NC323483  34.542  19.810   9.450
 4950POPC   PO423484  34.621  19.789   9.150
 4950POPC   GL123485  34.532  19.861   8.850
 4950POPC   GL223486  34.479  19.871   8.850
 4950POPC   C1A23487  34.550  19.789   8.550
 4950POPC   D2A23488  34.591  19.861   8.250
 4950POPC   C3A23489  34.596  19.843   7.950
 4950POPC   C4A23490  34.612  19.844   7.650
 4950POPC   C1B23491  34.385  19.998   8.550
 4950POPC   C2B23492  34.397  19.996   8.250
 4950POPC   C3B23493  34.361  19.993   7.950
 4950POPC   C4B23494  34.349  20.001   7.650
 4951POPC   NC323495   3.534  33.758   9.450
 4951POPC   PO423496   3.541  33.756   9.150
 4951POPC   GL123497   3.581  33.822   8.850
 4951POPC   GL223498   3.679  33.724   8.850
 4951POPC   C1A23499   3.552  33.784   8.550
 4951POPC   D2A23500   3.551  33.810   8.250
 4951POPC   C3A23501   3.546  33.778   7.950
 4951POPC   C4A23502   3.495  33.780   7.650
 4951POPC   C1B23503   3.715  33.672   8.550
 4951POPC   C2B23504   3.785  33.627   8.250
 4951POPC   C3B23505   3.724  33.606   7.950
 4951POPC   C4B23506   3.777  33.694   7.650
 4952POPC   NC323507  12.070   7.445   9.450
 4952POPC   PO423508  12.041   7.389   9.150
 4952POPC   GL123509  12.097   7.411   8.850
 4952POPC   GL223510  12.191   7.415   8.850
 4952POPC   C1A23511  12.033   7.466   8.550
 4952POPC   D2A23512  12.119   7.448   8.250
 4952POPC   C3A23513  12.098   7.372   7.950
 4952POPC   C4A23514  12.080   7.430   7.650
 4952POPC   C1B23515  12.297   7.497   8.550
 4952POPC   C2B23516  12.288   7.523   8.250
 4952POPC   C3B23517  12.341   7.449   7.950
 4952POPC   C4B23518  12.298   7.472   7.650
 4953POPC   NC323519  11.291   1.181   9.450
 4953POPC   PO423520  11.302   1.259   9.150
 4953POPC   GL123521  11.299   1.228   8.850
 4953POPC   GL223522  11.280   1.080   8.850
 4953POPC   C1A23523  11.340   1.205   8.550
 4953POPC   D2A23524  11.299   1.222   8.250
 4953POPC   C3A23525  11.282   1.165   7.950
 4953POPC   C4A23526  11.300   1.177   7.650
 4953POPC   C1B23527  11.224   0.995   8.550
 4953POPC   C2B23528  11.236   0.991   8.250
 4953POPC   C3B23529  11.201   1.018   7.950
 4953POPC   C4B23530  11.232   1.016   7.650
 4954POPC   NC323531  22.175  21.375   9.450
 4954POPC   PO423532  22.129  21.336   9.150
 4954POPC   GL123533  22.127  21.356   8.850
 4954POPC   GL223534  22.031  21.328   8.850
 4954POPC   C1A23535  22.211  21.361   8.550
 4954POPC   D2A23536  22.164  21.435   8.250
 4954POPC   C3A23537  22.184  21.349   7.950
 4954POPC   C4A23538  22.139  21.379   7.650
 4954POPC   C1B23539  21.978  21.296   8.550
 4954POPC   C2B23540  21.969  21.261   8.250
 4954POPC   C3B23541  21.948  21.305   7.950
 4954POPC   C4B23542  21.891  21.299   7.650
 4955POPC   NC323543  38.432   5.067   9.450
 4955POPC   PO423544  38.425   5.109   9.150
 4955POPC   GL123545  38.465   5.126   8.850
 4955POPC   GL223546  38.514   5.204   8.850
 4955POPC   C1A23547  38.444   5.046   8.550
 4955POPC   D2A23548  38.442   5.139   8.250
 4955POPC   C3A23549  38.488   5.080   7.950
 4955POPC   C4A23550  38.494   5.096   7.650
 4955POPC   C1B23551  38.549   5.281   8.550
 4955POPC   C2B23552  38.612   5.263   8.250
 4955POPC   C3B23553  38.543   5.301   7.950
 4955POPC   C4B23554  38.566   5.268   7.650
 4956POPC   NC323555  24.475  29.879   9.450
 4956POPC   PO423556  24.446  29.970   9.150
 4956POPC   GL123557  24.491  29.877   8.850
 4956POPC   GL223558  24.482  29.826   8.850
 4956POPC   C1A23559  24.443  29.970   8.550
 4956POPC   D2A23560  24.514  29.889   8.250
 4956POPC   C3A23561  24.526  29.888   7.950
 4956POPC   C4A23562  24.469  29.873   7.650
 4956POPC   C1B23563  24.426  29.711   8.550
 4956POPC   C2B23564  24.393  29.710   8.250
 4956POPC   C3B23565  24.403  29.643   7.950
 4956POPC   C4B23566  24.425  29.715   7.650
 4957POPC   NC323567  26.859  10.478   9.450
 4957POPC   PO423568  26.770  10.565   9.150
 4957POPC   GL123569  26.824  10.519   8.850
 4957POPC   GL223570  26.698  10.498   8.850
 4957POPC   C1A23571  26.861  10.560   8.550
 4957POPC   D2A23572  26.815  10.529   8.250
 4957POPC   C3A23573  26.818  10.501   7.950
 4957POPC   C4A23574  26.853  10.544   7.650
 4957POPC   C1B23575  26.612  10.567   8.550
 4957POPC   C2B23576  26.567  10.569   8.250
 4957POPC   C3B23577  26.544  10.549   7.950
 4957POPC   C4B23578  26.563  10.510   7.650
 4958POPC   NC323579  44.632  43.092   9.450
 4958POPC   PO423580  44.618  43.112   9.150
 4958POPC   GL123581  44.652  43.141   8.850
 4958POPC   GL223582  44.606  42.986   8.850
 4958POPC   C1A23583  44.630  43.100   8.550
 4958POPC   D2A23584  44.616  43.149   8.250
 4958POPC   C3A23585  44.665  43.129   7.950
 4958POPC   C4A23586  44.700  43.140   7.650
 4958POPC   C1B23587  44.555  42.916   8.550
 4958POPC   C2B23588  44.539  42.918   8.250
 4958POPC   C3B23589  44.539  42.865   7.950
 4958POPC   C4B23590  44.532  42.925   7.650
 4959POPC   NC323591  25.303   8.208   9.450
 4959POPC   PO423592  25.311   8.226   9.150
 4959POPC   GL123593  25.217   8.209   8.850
 4959POPC   GL223594  25.142   8.150   8.850
 4959POPC   C1A23595  25.282   8.172   8.550
 4959POPC   D2A23596  25.302   8.218   8.250
 4959POPC   C3A23597  25.218   8.156   7.950
 4959POPC   C4A23598  25.246   8.224   7.650
 4959POPC   C1B23599  25.071   8.051   8.550
 4959POPC   C2B23600  25.088   8.042   8.250
 4959POPC   C3B23601  25.081   8.057   7.950
 4959POPC   C4B23602  25.095   8.067   7.650
 4960POPC   NC323603  31.514   7.417   9.450
 4960POPC   PO423604  31.460   7.416   9.150
 4960POPC   GL123605  31.465   7.378   8.850
 4960POPC   GL223606  31.483   7.249   8.850
 4960POPC   C1A23607  31.488   7.412   8.550
 4960POPC   D2A23608  31.458   7.386   8.250
 4960POPC   C3A23609  31.459   7.414   7.950
 4960POPC   C4A23610  31.459   7.401   7.650
 4960POPC   C1B23611  31.450   7.132   8.550
 4960POPC   C2B23612  31.440   7.176   8.250
 4960POPC   C3B23613  31.411   7.165   7.950
 4960POPC   C4B23614  31.479   7.178   7.650
 4961POPC   NC323615  19.097  18.301   9.450
 4961POPC   PO423616  19.096  18.242   9.150
 4961POPC   GL123617  19.085  18.304   8.850
 4961POPC   GL223618  19.124  18.409   8.850
 4961POPC   C1A23619  19.091  18.242   8.550
 4961POPC   D2A23620  19.022  18.319   8.250
 4961POPC   C3A23621  19.050  18.315   7.950
 4961POPC   C4A23622  19.024  18.325   7.650
 4961POPC   C1B23623  19.125  18.536   8.550
 4961POPC   C2B23624  19.116  18.548   8.250
 4961POPC   C3B23625  19.138  18.498   7.950
 4961POPC   C4B23626  19.106  18.518   7.650
 4962POPC   NC323627  32.204  35.325   9.450
 4962POPC   PO423628  32.270  35.381   9.150
 4962POPC   GL123629  32.273  35.344   8.850
 4962POPC   GL223630  32.365  35.314   8.850
 4962POPC   C1A23631  32.246  35.333   8.550
 4962POPC   D2A23632  32.273  35.338   8.250
 4962POPC   C3A23633  32.282  35.336   7.950
 4962POPC   C4A23634  32.263  35.393   7.650
 4962POPC   C1B23635  32.491  35.306   8.550
 4962POPC   C2B23636  32.457  35.342   8.250
 4962POPC   C3B23637  32.500  35.313   7.950
 4962POPC   C4B23638  32.537  35.362   7.650
 4963POPC   NC323639  43.119  37.709   9.450
 4963POPC   PO423640  43.148  37.682   9.150
 4963POPC   GL123641  43.129  37.661   8.850
 4963POPC   GL223642  43.236  37.725   8.850
 4963POPC   C1A23643  43.111  37.691   8.550
 4963POPC   D2A23644  43.087  37.638   8.250
 4963POPC   C3A23645  43.084  37.660   7.950
 4963POPC   C4A23646  43.124  37.644   7.650
 4963POPC   C1B23647  43.307  37.803   8.550
 4963POPC   C2B23648  43.291  37.862   8.250
 4963POPC   C3B23649  43.349  37.815   7.950
 4963POPC   C4B23650  43.289  37.838   7.650
 4964POPC   NC323651  29.936  10.560   9.450
 4964POPC   PO423652  29.942  10.555   9.150
 4964POPC   GL123653  29.911  10.534   8.850
 4964POPC   GL223654  29.838  10.565   8.850
 4964POPC   C1A23655  29.880  10.510   8.550
 4964POPC   D2A23656  29.874  10.562   8.250
 4964POPC   C3A23657  29.944  10.480   7.950
 4964POPC   C4A23658  29.900  10.546   7.650
 4964POPC   C1B23659  29.674  10.495   8.550
 4964POPC   C2B23660  29.671  10.535   8.250
 4964POPC   C3B23661  29.664  10.566   7.950
 4964POPC   C4B23662  29.644  10.503   7.650
 4965POPC   NC323663  21.337  25.310   9.450
 4965POPC   PO423664  21.406  25.307   9.150
 4965POPC   GL123665  21.418  25.219   8.850
 4965POPC   GL223666  21.538  25.314   8.850
 4965POPC   C1A23667  21.350  25.220   8.550
 4965POPC   D2A23668  21.408  25.239   8.250
 4965POPC   C3A23669  21.381  25.277   7.950
 4965POPC   C4A23670  21.426  25.221   7.650
 4965POPC   C1B23671  21.652  25.388   8.550
 4965POPC   C2B23672  21.594  25.407   8.250
 4965POPC   C3B23673  21.577  25.344   7.950
 4965POPC   C4B23674  21.590  25.393   7.650
 4966POPC   NC323675  26.832  33.833   9.450
 4966POPC   PO423676  26.849  33.770   9.150
 4966POPC   GL123677  26.833  33.848   8.850
 4966POPC   GL223678  26.690  33.863   8.850
 4966POPC   C1A23679  26.798  33.802   8.550
 4966POPC   D2A23680  26.863  33.842   8.250
 4966POPC   C3A23681  26.783  33.800   7.950
 4966POPC   C4A23682  26.781  33.849   7.650
 4966POPC   C1B23683  26.533  33.835   8.550
 4966POPC   C2B23684  26.582  33.912   8.250
 4966POPC   C3B23685  26.606  33.906   7.950
 4966POPC   C4B23686  26.570  33.845   7.650
 4967POPC   NC323687  23.724  23.709   9.450
 4967POPC   PO423688  23.732  23.689   9.150
 4967POPC   GL123689  23.699  23.683   8.850
 4967POPC   GL223690  23.803  23.809   8.850
 4967POPC   C1A23691  23.685  23.692   8.550
 4967POPC   D2A23692  23.670  23.735   8.250
 4967POPC   C3A23693  23.763  23.711   7.950
 4967POPC   C4A23694  23.699  23.715   7.650
 4967POPC   C1B23695  23.914  23.863   8.550
 4967POPC   C2B23696  23.906  23.801   8.250
 4967POPC   C3B23697  23.944  23.850   7.950
 4967POPC   C4B23698  23.922  23.841   7.650
 4968POPC   NC323699  21.406  40.007   9.450
 4968POPC   PO423700  21.410  39.975   9.150
 4968POPC   GL123701  21.355  40.046   8.850
 4968POPC   GL223702  21.354  39.836   8.850
 4968POPC   C1A23703  21.415  40.013   8.550
 4968POPC   D2A23704  21.419  39.996   8.250
 4968POPC   C3A23705  21.359  40.037   7.950
 4968POPC   C4A23706  21.398  39.988   7.650
 4968POPC   C1B23707  21.337  39.801   8.550
 4968POPC   C2B23708  21.359  39.729   8.250
 4968POPC   C3B23709  21.426  39.722   7.950
 4968POPC   C4B23710  21.376  39.736   7.650
 4969POPC   NC323711  30.743  29.108   9.450
 4969POPC   PO423712  30.657  29.191   9.150
 4969POPC   GL123713  30.654  29.171   8.850
 4969POPC   GL223714  30.768  28.993   8.850
 4969POPC   C1A23715  30.658  29.106   8.550
 4969POPC   D2A23716  30.651  29.193   8.250
 4969POPC   C3A23717  30.719  29.161   7.950
 4969POPC   C4A23718  30.680  29.118   7.650
 4969POPC   C1B23719  30.850  28.933   8.550
 4969POPC   C2B23720  30.869  28.969   8.250
 4969POPC   C3B23721  30.857  28.980   7.950
 4969POPC   C4B23722  30.843  28.987   7.650
 4970POPC   NC323723  21.385  33.810   9.450
 4970POPC   PO423724  21.373  33.761   9.150
 4970POPC   GL123725  21.344  33.800   8.850
 4970POPC   GL223726  21.533  33.827   8.850
 4970POPC   C1A23727  21.394  33.849   8.550
 4970POPC   D2A23728  21.368  33.774   8.250
 4970POPC   C3A23729  21.410  33.817   7.950
 4970POPC   C4A23730  21.346  33.794   7.650
 4970POPC   C1B23731  21.655  33.846   8.550
 4970POPC   C2B23732  21.660  33.803   8.250
 4970POPC   C3B23733  21.661  33.802   7.950
 4970POPC   C4B23734  21.652  33.888   7.650
 4971POPC   NC323735  13.586   9.786   9.450
 4971POPC   PO423736  13.670   9.759   9.150
 4971POPC   GL123737  13.623   9.704   8.850
 4971POPC   GL223738  13.755   9.816   8.850
 4971POPC   C1A23739  13.617   9.709   8.550
 4971POPC   D2A23740  13.597   9.762   8.250
 4971POPC   C3A23741  13.646   9.706   7.950
 4971POPC   C4A23742  13.591   9.786   7.650
 4971POPC   C1B23743  13.799   9.891   8.550
 4971POPC   C2B23744  13.799   9.925   8.250
 4971POPC   C3B23745  13.858   9.925   7.950
 4971POPC   C4B23746  13.781   9.858   7.650
 4972POPC   NC323747  15.129  27.593   9.450
 4972POPC   PO423748  15.167  27.582   9.150
 4972POPC   GL123749  15.161  27.600   8.850
 4972POPC   GL223750  15.094  27.694   8.850
 4972POPC   C1A23751  15.156  27.567   8.550
 4972POPC   D2A23752  15.139  27.622   8.250
 4972POPC   C3A23753  15.203  27.594   7.950
 4972POPC   C4A23754  15.206  27.585   7.650
 4972POPC   C1B23755  14.957  27.688   8.550
 4972POPC   C2B23756  14.976  27.712   8.250
 4972POPC   C3B23757  14.945  27.713   7.950
 4972POPC   C4B23758  14.917  27.655   7.650
 4973POPC   NC323759   1.165  29.918   9.450
 4973POPC   PO423760   1.203  29.951   9.150
 4973POPC   GL123761   1.209  29.939   8.850
 4973POPC   GL223762   1.212  29.834   8.850
 4973POPC   C1A23763   1.210  29.935   8.550
 4973POPC   D2A23764   1.261  29.924   8.250
 4973POPC   C3A23765   1.243  29.939   7.950
 4973POPC   C4A23766   1.227  29.941   7.650
 4973POPC   C1B23767   1.295  29.667   8.550
 4973POPC   C2B23768   1.322  29.671   8.250
 4973POPC   C3B23769   1.315  29.674   7.950
 4973POPC   C4B23770   1.303  29.736   7.650
 4974POPC   NC323771  29.948  35.394   9.450
 4974POPC   PO423772  29.914  35.349   9.150
 4974POPC   GL123773  29.936  35.384   8.850
 4974POPC   GL223774  29.936  35.425   8.850
 4974POPC   C1A23775  29.927  35.362   8.550
 4974POPC   D2A23776  29.914  35.316   8.250
 4974POPC   C3A23777  29.896  35.305   7.950
 4974POPC   C4A23778  29.928  35.318   7.650
 4974POPC   C1B23779  30.022  35.547   8.550
 4974POPC   C2B23780  30.076  35.559   8.250
 4974POPC   C3B23781  30.004  35.514   7.950
 4974POPC   C4B23782  30.036  35.521   7.650
 4975POPC   NC323783   5.867  22.950   9.450
 4975POPC   PO423784   5.893  22.959   9.150
 4975POPC   GL123785   5.901  22.935   8.850
 4975POPC   GL223786   5.984  22.876   8.850
 4975POPC   C1A23787   5.913  22.914   8.550
 4975POPC   D2A23788   5.857  22.987   8.250
 4975POPC   C3A23789   5.835  22.967   7.950
 4975POPC   C4A23790   5.880  22.929   7.650
 4975POPC   C1B23791   6.086  22.725   8.550
 4975POPC   C2B23792   6.074  22.731   8.250
 4975POPC   C3B23793   6.022  22.720   7.950
 4975POPC   C4B23794   6.034  22.812   7.650
 4976POPC   NC323795  19.870   9.720   9.450
 4976POPC   PO423796  19.800   9.732   9.150
 4976POPC   GL123797  19.829   9.761   8.850
 4976POPC   GL223798  19.876   9.625   8.850
 4976POPC   C1A23799  19.834   9.720   8.550
 4976POPC   D2A23800  19.797   9.762   8.250
 4976POPC   C3A23801  19.824   9.774   7.950
 4976POPC   C4A23802  19.799   9.720   7.650
 4976POPC   C1B23803  19.868   9.466   8.550
 4976POPC   C2B23804  19.786   9.504   8.250
 4976POPC   C3B23805  19.842   9.470   7.950
 4976POPC   C4B23806  19.813   9.525   7.650
 4977POPC   NC323807  32.247  36.109   9.450
 4977POPC   PO423808  32.293  36.122   9.150
 4977POPC   GL123809  32.214  36.106   8.850
 4977POPC   GL223810  32.148  36.085   8.850
 4977POPC   C1A23811  32.284  36.159   8.550
 4977POPC   D2A23812  32.229  36.170   8.250
 4977POPC   C3A23813  32.217  36.177   7.950
 4977POPC   C4A23814  32.257  36.154   7.650
 4977POPC   C1B23815  32.052  36.035   8.550
 4977POPC   C2B23816  32.071  36.065   8.250
 4977POPC   C3B23817  32.022  36.068   7.950
 4977POPC   C4B23818  32.013  36.041   7.650
 4978POPC   NC323819  18.295   0.453   9.450
 4978POPC   PO423820  18.300   0.427   9.150
 4978POPC   GL123821  18.312   0.465   8.850
 4978POPC   GL223822  18.123   0.384   8.850
 4978POPC   C1A23823  18.255   0.476   8.550
 4978POPC   D2A23824  18.245   0.428   8.250
 4978POPC   C3A23825  18.278   0.437   7.950
 4978POPC   C4A23826  18.289   0.403   7.650
 4978POPC   C1B23827  17.989   0.463   8.550
 4978POPC   C2B23828  18.005   0.451   8.250
 4978POPC   C3B23829  17.996   0.451   7.950
 4978POPC   C4B23830  18.021   0.461   7.650
 4979POPC   NC323831   5.829  34.545   9.450
 4979POPC   PO423832   5.834  34.571   9.150
 4979POPC   GL123833   5.839  34.567   8.850
 4979POPC   GL223834   5.819  34.655   8.850
 4979POPC   C1A23835   5.879  34.614   8.550
 4979POPC   D2A23836   5.832  34.547   8.250
 4979POPC   C3A23837   5.866  34.553   7.950
 4979POPC   C4A23838   5.831  34.540   7.650
 4979POPC   C1B23839   5.860  34.835   8.550
 4979POPC   C2B23840   5.839  34.818   8.250
 4979POPC   C3B23841   5.840  34.827   7.950
 4979POPC   C4B23842   5.855  34.796   7.650
 4980POPC   NC323843  29.906  26.794   9.450
 4980POPC   PO423844  29.916  26.811   9.150
 4980POPC   GL123845  29.911  26.789   8.850
 4980POPC   GL223846  29.873  26.887   8.850
 4980POPC   C1A23847  29.951  26.778   8.550
 4980POPC   D2A23848  29.911  26.823   8.250
 4980POPC   C3A23849  29.883  26.808   7.950
 4980POPC   C4A23850  29.957  26.790   7.650
 4980POPC   C1B23851  29.798  27.044   8.550
 4980POPC   C2B23852  29.792  27.064   8.250
 4980POPC   C3B23853  29.820  27.087   7.950
 4980POPC   C4B23854  29.876  26.999   7.650
 4981POPC   NC323855  24.510  10.480   9.450
 4981POPC   PO423856  24.513  10.475   9.150
 4981POPC   GL123857  24.490  10.517   8.850
 4981POPC   GL223858  24.340  10.532   8.850
 4981POPC   C1A23859  24.488  10.569   8.550
 4981POPC   D2A23860  24.491  10.502   8.250
 4981POPC   C3A23861  24.526  10.526   7.950
 4981POPC   C4A23862  24.478  10.559   7.650
 4981POPC   C1B23863  24.204  10.561   8.550
 4981POPC   C2B23864  24.227  10.587   8.250
 4981POPC   C3B23865  24.263  10.531   7.950
 4981POPC   C4B23866  24.221  10.530   7.650
 4982POPC   NC323867   4.348  33.768   9.450
 4982POPC   PO423868   4.359  33.820   9.150
 4982POPC   GL123869   4.350  33.833   8.850
 4982POPC   GL223870   4.165  33.836   8.850
 4982POPC   C1A23871   4.308  33.836   8.550
 4982POPC   D2A23872   4.357  33.830   8.250
 4982POPC   C3A23873   4.309  33.771   7.950
 4982POPC   C4A23874   4.347  33.798   7.650
 4982POPC   C1B23875   4.082  33.852   8.550
 4982POPC   C2B23876   4.101  33.854   8.250
 4982POPC   C3B23877   4.056  33.846   7.950
 4982POPC   C4B23878   4.080  33.862   7.650
 4983POPC   NC323879  33.834  22.156   9.450
 4983POPC   PO423880  33.806  22.201   9.150
 4983POPC   GL123881  33.773  22.135   8.850
 4983POPC   GL223882  33.728  22.062   8.850
 4983POPC   C1A23883  33.837  22.188   8.550
 4983POPC   D2A23884  33.802  22.155   8.250
 4983POPC   C3A23885  33.803  22.201   7.950
 4983POPC   C4A23886  33.824  22.156   7.650
 4983POPC   C1B23887  33.725  21.891   8.550
 4983POPC   C2B23888  33.660  21.945   8.250
 4983POPC   C3B23889  33.672  21.895   7.950
 4983POPC   C4B23890  33.682  21.947   7.650
 4984POPC   NC323891   4.314  36.080   9.450
 4984POPC   PO423892   4.302  36.160   9.150
 4984POPC   GL123893   4.294  36.126   8.850
 4984POPC   GL223894   4.351  36.280   8.850
 4984POPC   C1A23895   4.364  36.115   8.550
 4984POPC   D2A23896   4.319  36.134   8.250
 4984POPC   C3A23897   4.332  36.113   7.950
 4984POPC   C4A23898   4.320  36.136   7.650
 4984POPC   C1B23899   4.356  36.356   8.550
 4984POPC   C2B23900   4.362  36.327   8.250
 4984POPC   C3B23901   4.426  36.404   7.950
 4984POPC   C4B23902   4.441  36.320   7.650
 4985POPC   NC323903  22.163  14.359   9.450
 4985POPC   PO423904  22.169  14.431   9.150
 4985POPC   GL123905  22.174  14.436   8.850
 4985POPC   GL223906  22.237  14.272   8.850
 4985POPC   C1A23907  22.169  14.365   8.550
 4985POPC   D2A23908  22.202  14.452   8.250
 4985POPC   C3A23909  22.120  14.441   7.950
 4985POPC   C4A23910  22.205  14.381   7.650
 4985POPC   C1B23911  22.243  14.146   8.550
 4985POPC   C2B23912  22.334  14.204   8.250
 4985POPC   C3B23913  22.268  14.176   7.950
 4985POPC   C4B23914  22.325  14.154   7.650
 4986POPC   NC323915  11.298   1.997   9.450
 4986POPC   PO423916  11.306   2.009   9.150
 4986POPC   GL123917  11.294   1.983   8.850
 4986POPC   GL223918  11.312   1.864   8.850
 4986POPC   C1A23919  11.267   2.020   8.550
 4986POPC   D2A23920  11.319   2.027   8.250
 4986POPC   C3A23921  11.310   1.992   7.950
 4986POPC   C4A23922  11.323   1.949   7.650
 4986POPC   C1B23923  11.331   1.718   8.550
 4986POPC   C2B23924  11.363   1.743   8.250
 4986POPC   C3B23925  11.354   1.715   7.950
 4986POPC   C4B23926  11.362   1.731   7.650
 4987POPC   NC323927  33.034  43.074   9.450
 4987POPC   PO423928  33.066  43.062   9.150
 4987POPC   GL123929  33.034  43.069   8.850
 4987POPC   GL223930  33.131  43.195   8.850
 4987POPC   C1A23931  33.005  43.105   8.550
 4987POPC   D2A23932  33.019  43.121   8.250
 4987POPC   C3A23933  33.032  43.148   7.950
 4987POPC   C4A23934  33.017  43.083   7.650
 4987POPC   C1B23935  33.246  43.283   8.550
 4987POPC   C2B23936  33.228  43.221   8.250
 4987POPC   C3B23937  33.179  43.260   7.950
 4987POPC   C4B23938  33.234  43.283   7.650
 4988POPC   NC323939  35.368  39.213   9.450
 4988POPC   PO423940  35.360  39.265   9.150
 4988POPC   GL123941  35.336  39.271   8.850
 4988POPC   GL223942  35.189  39.254   8.850
 4988POPC   C1A23943  35.367  39.226   8.550
 4988POPC   D2A23944  35.350  39.244   8.250
 4988POPC   C3A23945  35.308  39.208   7.950
 4988POPC   C4A23946  35.386  39.213   7.650
 4988POPC   C1B23947  35.060  39.203   8.550
 4988POPC   C2B23948  35.148  39.205   8.250
 4988POPC   C3B23949  35.080  39.252   7.950
 4988POPC   C4B23950  35.104  39.214   7.650
 4989POPC   NC323951  11.251   0.397   9.450
 4989POPC   PO423952  11.323   0.437   9.150
 4989POPC   GL123953  11.322   0.407   8.850
 4989POPC   GL223954  11.151   0.388   8.850
 4989POPC   C1A23955  11.329   0.406   8.550
 4989POPC   D2A23956  11.343   0.406   8.250
 4989POPC   C3A23957  11.292   0.393   7.950
 4989POPC   C4A23958  11.308   0.473   7.650
 4989POPC   C1B23959  11.047   0.317   8.550
 4989POPC   C2B23960  11.045   0.290   8.250
 4989POPC   C3B23961  11.110   0.302   7.950
 4989POPC   C4B23962  11.052   0.376   7.650
 4990POPC   NC323963   4.350  25.246   9.450
 4990POPC   PO423964   4.292  25.295   9.150
 4990POPC   GL123965   4.291  25.236   8.850
 4990POPC   GL223966   4.404  25.305   8.850
 4990POPC   C1A23967   4.364  25.265   8.550
 4990POPC   D2A23968   4.297  25.294   8.250
 4990POPC   C3A23969   4.287  25.247   7.950
 4990POPC   C4A23970   4.287  25.306   7.650
 4990POPC   C1B23971   4.608  25.219   8.550
 4990POPC   C2B23972   4.610  25.214   8.250
 4990POPC   C3B23973   4.582  25.269   7.950
 4990POPC   C4B23974   4.522  25.260   7.650
 4991POPC   NC323975   5.839  13.667   9.450
 4991POPC   PO423976   5.917  13.614   9.150
 4991POPC   GL123977   5.843  13.617   8.850
 4991POPC   GL223978   5.967  13.640   8.850
 4991POPC   C1A23979   5.858  13.668   8.550
 4991POPC   D2A23980   5.872  13.597   8.250
 4991POPC   C3A23981   5.889  13.643   7.950
 4991POPC   C4A23982   5.868  13.618   7.650
 4991POPC   C1B23983   6.146  13.529   8.550
 4991POPC   C2B23984   6.073  13.582   8.250
 4991POPC   C3B23985   6.077  13.558   7.950
 4991POPC   C4B23986   6.109  13.529   7.650
 4992POPC   NC323987   9.795  22.140   9.450
 4992POPC   PO423988   9.783  22.151   9.150
 4992POPC   GL123989   9.745  22.204   8.850
 4992POPC   GL223990   9.793  22.278   8.850
 4992POPC   C1A23991   9.760  22.140   8.550
 4992POPC   D2A23992   9.712  22.119   8.250
 4992POPC   C3A23993   9.756  22.118   7.950
 4992POPC   C4A23994   9.774  22.189   7.650
 4992POPC   C1B23995   9.802  22.448   8.550
 4992POPC   C2B23996   9.745  22.385   8.250
 4992POPC   C3B23997   9.819  22.447   7.950
 4992POPC   C4B23998   9.804  22.458   7.650
 4993POPC   NC323999  39.211  12.824   9.450
 4993POPC   PO424000  39.241  12.860   9.150
 4993POPC   GL124001  39.223  12.898   8.850
 4993POPC   GL224002  39.156  12.828   8.850
 4993POPC   C1A24003  39.226  12.853   8.550
 4993POPC   D2A24004  39.236  12.889   8.250
 4993POPC   C3A24005  39.253  12.874   7.950
 4993POPC   C4A24006  39.214  12.803   7.650
 4993POPC   C1B24007  39.027  12.945   8.550
 4993POPC   C2B24008  39.016  12.921   8.250
 4993POPC   C3B24009  38.978  12.867   7.950
 4993POPC   C4B24010  38.994  12.939   7.650
 4994POPC   NC324011  13.661  19.014   9.450
 4994POPC   PO424012  13.600  19.064   9.150
 4994POPC   GL124013  13.625  19.039   8.850
 4994POPC   GL224014  13.751  18.970   8.850
 4994POPC   C1A24015  13.613  19.067   8.550
 4994POPC   D2A24016  13.618  19.023   8.250
 4994POPC   C3A24017  13.662  19.039   7.950
 4994POPC   C4A24018  13.655  19.076   7.650
 4994POPC   C1B24019  13.751  18.874   8.550
 4994POPC   C2B24020  13.830  18.854   8.250
 4994POPC   C3B24021  13.775  18.865   7.950
 4994POPC   C4B24022  13.758  18.857   7.650
 4995POPC   NC324023   8.183  22.145   9.450
 4995POPC   PO424024   8.185  22.204   9.150
 4995POPC   GL124025   8.164  22.173   8.850
 4995POPC   GL224026   8.280  22.172   8.850
 4995POPC   C1A24027   8.220  22.153   8.550
 4995POPC   D2A24028   8.179  22.181   8.250
 4995POPC   C3A24029   8.174  22.198   7.950
 4995POPC   C4A24030   8.212  22.192   7.650
 4995POPC   C1B24031   8.439  22.072   8.550
 4995POPC   C2B24032   8.442  22.077   8.250
 4995POPC   C3B24033   8.415  22.130   7.950
 4995POPC   C4B24034   8.479  22.100   7.650
 4996POPC   NC324035   1.190  38.475   9.450
 4996POPC   PO424036   1.197  38.494   9.150
 4996POPC   GL124037   1.171  38.451   8.850
 4996POPC   GL224038   1.116  38.413   8.850
 4996POPC   C1A24039   1.202  38.503   8.550
 4996POPC   D2A24040   1.227  38.417   8.250
 4996POPC   C3A24041   1.179  38.417   7.950
 4996POPC   C4A24042   1.189  38.471   7.650
 4996POPC   C1B24043   0.964  38.452   8.550
 4996POPC   C2B24044   1.009  38.438   8.250
 4996POPC   C3B24045   0.918  38.398   7.950
 4996POPC   C4B24046   0.998  38.471   7.650
 4997POPC   NC324047  43.130  29.154   9.450
 4997POPC   PO424048  43.144  29.120   9.150
 4997POPC   GL124049  43.157  29.174   8.850
 4997POPC   GL224050  43.117  29.312   8.850
 4997POPC   C1A24051  43.093  29.181   8.550
 4997POPC   D2A24052  43.083  29.118   8.250
 4997POPC   C3A24053  43.125  29.188   7.950
 4997POPC   C4A24054  43.113  29.116   7.650
 4997POPC   C1B24055  43.160  29.407   8.550
 4997POPC   C2B24056  43.100  29.429   8.250
 4997POPC   C3B24057  43.127  29.426   7.950
 4997POPC   C4B24058  43.186  29.399   7.650
 4998POPC   NC324059  11.276  41.532   9.450
 4998POPC   PO424060  11.323  41.601   9.150
 4998POPC   GL124061  11.277  41.581   8.850
 4998POPC   GL224062  11.271  41.395   8.850
 4998POPC   C1A24063  11.290  41.541   8.550
 4998POPC   D2A24064  11.335  41.589   8.250
 4998POPC   C3A24065  11.311  41.571   7.950
 4998POPC   C4A24066  11.261  41.521   7.650
 4998POPC   C1B24067  11.292  41.263   8.550
 4998POPC   C2B24068  11.358  41.357   8.250
 4998POPC   C3B24069  11.311  41.287   7.950
 4998POPC   C4B24070  11.382  41.267   7.650
 4999POPC   NC324071   2.781  13.637   9.450
 4999POPC   PO424072   2.727  13.617   9.150
 4999POPC   GL124073   2.748  13.664   8.850
 4999POPC   GL224074   2.685  13.631   8.850
 4999POPC   C1A24075   2.729  13.630   8.550
 4999POPC   D2A24076   2.801  13.666   8.250
 4999POPC   C3A24077   2.727  13.617   7.950
 4999POPC   C4A24078   2.744  13.639   7.650
 4999POPC   C1B24079   2.505  13.639   8.550
 4999POPC   C2B24080   2.566  13.658   8.250
 4999POPC   C3B24081   2.510  13.660   7.950
 4999POPC   C4B24082   2.467  13.661   7.650
 5000POPC   NC324083  18.320  19.068   9.450
 5000POPC   PO424084  18.236  19.080   9.150
 5000POPC   GL124085  18.284  19.081   8.850
 5000POPC   GL224086  18.370  19.145   8.850
 5000POPC   C1A24087  18.250  19.103   8.550
 5000POPC   D2A24088  18.312  19.029   8.250
 5000POPC   C3A24089  18.278  19.047   7.950
 5000POPC   C4A24090  18.247  19.088   7.650
 5000POPC   C1B24091  18.434  19.177   8.550
 5000POPC   C2B24092  18.426  19.253   8.250
 5000POPC   C3B24093  18.482  19.268   7.950
 5000POPC   C4B24094  18.426  19.205   7.650
 5001POPC   NC324095  29.952  11.336   9.450
 5001POPC   PO424096  29.921  11.332   9.150
 5001POPC   GL124097  29.951  11.273   8.850
 5001POPC   GL224098  30.008  11.192   8.850
 5001POPC   C1A24099  29.905  11.287   8.550
 5001POPC   D2A24100  29.942  11.312   8.250
 5001POPC   C3A24101  29.968  11.311   7.950
 5001POPC   C4A24102  29.871  11.264   7.650
 5001POPC   C1B24103  29.962  11.094   8.550
 5001POPC   C2B24104  29.958  11.088   8.250
 5001POPC   C3B24105  30.002  11.044   7.950
 5001POPC   C4B24106  29.964  11.027   7.650
 5002POPC   NC324107  12.120   1.232   9.450
 5002POPC   PO424108  12.066   1.257   9.150
 5002POPC   GL124109  12.109   1.191   8.850
 5002POPC   GL224110  11.967   1.210   8.850
 5002POPC   C1A24111  12.107   1.221   8.550
 5002POPC   D2A24112  12.040   1.211   8.250
 5002POPC   C3A24113  12.126   1.253   7.950
 5002POPC   C4A24114  12.075   1.258   7.650
 5002POPC   C1B24115  11.791   1.316   8.550
 5002POPC   C2B24116  11.880   1.231   8.250
 5002POPC   C3B24117  11.846   1.293   7.950
 5002POPC   C4B24118  11.853   1.273   7.650
 5003POPC   NC324119   3.560   8.205   9.450
 5003POPC   PO424120   3.539   8.210   9.150
 5003POPC   GL124121   3.591   8.240   8.850
 5003POPC   GL224122   3.621   8.218   8.850
 5003POPC   C1A24123   3.539   8.170   8.550
 5003POPC   D2A24124   3.511   8.213   8.250
 5003POPC   C3A24125   3.553   8.232   7.950
 5003POPC   C4A24126   3.521   8.227   7.650
 5003POPC   C1B24127   3.771   8.183   8.550
 5003POPC   C2B24128   3.757   8.121   8.250
 5003POPC   C3B24129   3.816   8.190   7.950
 5003POPC   C4B24130   3.778   8.163   7.650
 5004POPC   NC324131  31.425  33.778   9.450
 5004POPC   PO424132  31.457  33.795   9.150
 5004POPC   GL124133  31.490  33.823   8.850
 5004POPC   GL224134  31.621  33.763   8.850
 5004POPC   C1A24135  31.492  33.828   8.550
 5004POPC   D2A24136  31.510  33.823   8.250
 5004POPC   C3A24137  31.482  33.837   7.950
 5004POPC   C4A24138  31.441  33.805   7.650
 5004POPC   C1B24139  31.689  33.703   8.550
 5004POPC   C2B24140  31.726  33.740   8.250
 5004POPC   C3B24141  31.745  33.680   7.950
 5004POPC   C4B24142  31.703  33.773   7.650
 5005POPC   NC324143  40.025   4.349   9.450
 5005POPC   PO424144  39.984   4.362   9.150
 5005POPC   GL124145  39.995   4.353   8.850
 5005POPC   GL224146  39.872   4.282   8.850
 5005POPC   C1A24147  40.045   4.298   8.550
 5005POPC   D2A24148  40.005   4.359   8.250
 5005POPC   C3A24149  39.972   4.294   7.950
 5005POPC   C4A24150  40.027   4.337   7.650
 5005POPC   C1B24151  39.783   4.231   8.550
 5005POPC   C2B24152  39.776   4.235   8.250
 5005POPC   C3B24153  39.785   4.273   7.950
 5005POPC   C4B24154  39.741   4.300   7.650
 5006POPC   NC324155  16.692  44.627   9.450
 5006POPC   PO424156  16.765  44.635   9.150
 5006POPC   GL124157  16.764  44.647   8.850
 5006POPC   GL224158  16.589  44.758   8.850
 5006POPC   C1A24159  16.738  44.621   8.550
 5006POPC   D2A24160  16.716  44.660   8.250
 5006POPC   C3A24161  16.708  44.696   7.950
 5006POPC   C4A24162  16.756  44.635   7.650
 5006POPC   C1B24163  16.521  44.813   8.550
 5006POPC   C2B24164  16.467  44.834   8.250
 5006POPC   C3B24165  16.552  44.832   7.950
 5006POPC   C4B24166  16.478  44.797   7.650
 5007POPC   NC324167  13.636  31.453   9.450
 5007POPC   PO424168  13.585  31.488   9.150
 5007POPC   GL124169  13.581  31.438   8.850
 5007POPC   GL224170  13.720  31.626   8.850
 5007POPC   C1A24171  13.661  31.464   8.550
 5007POPC   D2A24172  13.617  31.478   8.250
 5007POPC   C3A24173  13.672  31.479   7.950
 5007POPC   C4A24174  13.615  31.438   7.650
 5007POPC   C1B24175  13.728  31.662   8.550
 5007POPC   C2B24176  13.715  31.699   8.250
 5007POPC   C3B24177  13.757  31.735   7.950
 5007POPC   C4B24178  13.719  31.723   7.650
 5008POPC   NC324179  29.109  34.545   9.450
 5008POPC   PO424180  29.104  34.570   9.150
 5008POPC   GL124181  29.130  34.619   8.850
 5008POPC   GL224182  29.079  34.649   8.850
 5008POPC   C1A24183  29.190  34.556   8.550
 5008POPC   D2A24184  29.147  34.582   8.250
 5008POPC   C3A24185  29.104  34.589   7.950
 5008POPC   C4A24186  29.132  34.544   7.650
 5008POPC   C1B24187  29.062  34.856   8.550
 5008POPC   C2B24188  29.048  34.806   8.250
 5008POPC   C3B24189  29.073  34.774   7.950
 5008POPC   C4B24190  29.113  34.807   7.650
 5009POPC   NC324191  14.356  19.027   9.450
 5009POPC   PO424192  14.417  19.030   9.150
 5009POPC   GL124193  14.418  19.064   8.850
 5009POPC   GL224194  14.504  19.094   8.850
 5009POPC   C1A24195  14.356  19.052   8.550
 5009POPC   D2A24196  14.383  19.042   8.250
 5009POPC   C3A24197  14.397  19.094   7.950
 5009POPC   C4A24198  14.433  19.041   7.650
 5009POPC   C1B24199  14.575  19.201   8.550
 5009POPC   C2B24200  14.562  19.224   8.250
 5009POPC   C3B24201  14.617  19.177   7.950
 5009POPC   C4B24202  14.561  19.221   7.650
 5010POPC   NC324203  11.337  43.926   9.450
 5010POPC   PO424204  11.279  43.895   9.150
 5010POPC   GL124205  11.277  43.857   8.850
 5010POPC   GL224206  11.203  44.016   8.850
 5010POPC   C1A24207  11.332  43.890   8.550
 5010POPC   D2A24208  11.255  43.905   8.250
 5010POPC   C3A24209  11.300  43.900   7.950
 5010POPC   C4A24210  11.297  43.925   7.650
 5010POPC   C1B24211  11.136  44.034   8.550
 5010POPC   C2B24212  11.112  44.035   8.250
 5010POPC   C3B24213  11.153  44.089   7.950
 5010POPC   C4B24214  11.148  44.035   7.650
 5011POPC   NC324215   2.007  23.762   9.450
 5011POPC   PO424216   1.942  23.704   9.150
 5011POPC   GL124217   1.984  23.728   8.850
 5011POPC   GL224218   2.134  23.696   8.850
 5011POPC   C1A24219   1.956  23.736   8.550
 5011POPC   D2A24220   1.950  23.699   8.250
 5011POPC   C3A24221   2.021  23.735   7.950
 5011POPC   C4A24222   1.974  23.698   7.650
 5011POPC   C1B24223   2.254  23.693   8.550
 5011POPC   C2B24224   2.256  23.650   8.250
 5011POPC   C3B24225   2.195  23.685   7.950
 5011POPC   C4B24226   2.205  23.653   7.650
 5012POPC   NC324227  26.838   5.830   9.450
 5012POPC   PO424228  26.796   5.860   9.150
 5012POPC   GL124229  26.830   5.820   8.850
 5012POPC   GL224230  26.882   5.766   8.850
 5012POPC   C1A24231  26.842   5.832   8.550
 5012POPC   D2A24232  26.775   5.823   8.250
 5012POPC   C3A24233  26.852   5.860   7.950
 5012POPC   C4A24234  26.769   5.882   7.650
 5012POPC   C1B24235  26.898   5.599   8.550
 5012POPC   C2B24236  26.856   5.643   8.250
 5012POPC   C3B24237  26.945   5.634   7.950
 5012POPC   C4B24238  26.882   5.648   7.650
 5013POPC   NC324239  43.146  38.427   9.450
 5013POPC   PO424240  43.127  38.502   9.150
 5013POPC   GL124241  43.076  38.471   8.850
 5013POPC   GL224242  43.244  38.466   8.850
 5013POPC   C1A24243  43.100  38.430   8.550
 5013POPC   D2A24244  43.132  38.459   8.250
 5013POPC   C3A24245  43.113  38.417   7.950
 5013POPC   C4A24246  43.114  38.503   7.650
 5013POPC   C1B24247  43.333  38.514   8.550
 5013POPC   C2B24248  43.314  38.544   8.250
 5013POPC   C3B24249  43.297  38.577   7.950
 5013POPC   C4B24250  43.325  38.584   7.650
 5014POPC   NC324251   6.646  38.440   9.450
 5014POPC   PO424252   6.677  38.454   9.150
 5014POPC   GL124253   6.678  38.438   8.850
 5014POPC   GL224254   6.491  38.496   8.850
 5014POPC   C1A24255   6.632  38.456   8.550
 5014POPC   D2A24256   6.642  38.465   8.250
 5014POPC   C3A24257   6.635  38.456   7.950
 5014POPC   C4A24258   6.647  38.458   7.650
 5014POPC   C1B24259   6.399  38.556   8.550
 5014POPC   C2B24260   6.428  38.546   8.250
 5014POPC   C3B24261   6.395  38.543   7.950
 5014POPC   C4B24262   6.449  38.550   7.650
 5015POPC   NC324263  29.922  33.048   9.450
 5015POPC   PO424264  29.940  32.994   9.150
 5015POPC   GL124265  29.970  33.023   8.850
 5015POPC   GL224266  29.781  32.991   8.850
 5015POPC   C1A24267  29.931  33.057   8.550
 5015POPC   D2A24268  29.876  32.980   8.250
 5015POPC   C3A24269  29.931  32.995   7.950
 5015POPC   C4A24270  29.918  32.978   7.650
 5015POPC   C1B24271  29.725  32.971   8.550
 5015POPC   C2B24272  29.712  32.938   8.250
 5015POPC   C3B24273  29.694  32.989   7.950
 5015POPC   C4B24274  29.638  32.957   7.650
 5016POPC   NC324275  21.393  36.083   9.450
 5016POPC   PO424276  21.398  36.164   9.150
 5016POPC   GL124277  21.347  36.164   8.850
 5016POPC   GL224278  21.458  36.069   8.850
 5016POPC   C1A24279  21.343  36.115   8.550
 5016POPC   D2A24280  21.409  36.168   8.250
 5016POPC   C3A24281  21.380  36.090   7.950
 5016POPC   C4A24282  21.356  36.102   7.650
 5016POPC   C1B24283  21.642  36.016   8.550
 5016POPC   C2B24284  21.638  36.086   8.250
 5016POPC   C3B24285  21.581  36.048   7.950
 5016POPC   C4B24286  21.655  36.101   7.650
 5017POPC   NC324287  10.545  39.967   9.450
 5017POPC   PO424288  10.517  40.050   9.150
 5017POPC   GL124289  10.474  40.002   8.850
 5017POPC   GL224290  10.627  40.002   8.850
 5017POPC   C1A24291  10.554  40.008   8.550
 5017POPC   D2A24292  10.480  40.005   8.250
 5017POPC   C3A24293  10.546  40.034   7.950
 5017POPC   C4A24294  10.477  39.962   7.650
 5017POPC   C1B24295  10.740  39.975   8.550
 5017POPC   C2B24296  10.765  39.949   8.250
 5017POPC   C3B24297  10.781  40.028   7.950
 5017POPC   C4B24298  10.770  40.024   7.650
 5018POPC   NC324299  14.381  21.400   9.450
 5018POPC   PO424300  14.428  21.421   9.150
 5018POPC   GL124301  14.359  21.379   8.850
 5018POPC   GL224302  14.482  21.290   8.850
 5018POPC   C1A24303  14.413  21.396   8.550
 5018POPC   D2A24304  14.446  21.394   8.250
 5018POPC   C3A24305  14.404  21.427   7.950
 5018POPC   C4A24306  14.367  21.351   7.650
 5018POPC   C1B24307  14.553  21.261   8.550
 5018POPC   C2B24308  14.627  21.261   8.250
 5018POPC   C3B24309  14.572  21.235   7.950
 5018POPC   C4B24310  14.547  21.252   7.650
 5019POPC   NC324311  40.754  16.715   9.450
 5019POPC   PO424312  40.787  16.757   9.150
 5019POPC   GL124313  40.787  16.696   8.850
 5019POPC   GL224314  40.813  16.858   8.850
 5019POPC   C1A24315  40.808  16.747   8.550
 5019POPC   D2A24316  40.823  16.745   8.250
 5019POPC   C3A24317  40.755  16.752   7.950
 5019POPC   C4A24318  40.768  16.702   7.650
 5019POPC   C1B24319  40.758  16.951   8.550
 5019POPC   C2B24320  40.717  16.975   8.250
 5019POPC   C3B24321  40.773  17.019   7.950
 5019POPC   C4B24322  40.783  17.023   7.650
 5020POPC   NC324323  10.505  20.580   9.450
 5020POPC   PO424324  10.512  20.647   9.150
 5020POPC   GL124325  10.536  20.578   8.850
 5020POPC   GL224326  10.615  20.470   8.850
 5020POPC   C1A24327  10.574  20.595   8.550
 5020POPC   D2A24328  10.478  20.599   8.250
 5020POPC   C3A24329  10.505  20.581   7.950
 5020POPC   C4A24330  10.484  20.596   7.650
 5020POPC   C1B24331  10.663  20.447   8.550
 5020POPC   C2B24332  10.709  20.419   8.250
 5020POPC   C3B24333  10.703  20.420   7.950
 5020POPC   C4B24334  10.728  20.379   7.650
 5021POPC   NC324335  34.550   8.221   9.450
 5021POPC   PO424336  34.615   8.241   9.150
 5021POPC   GL124337  34.540   8.186   8.850
 5021POPC   GL224338  34.474   8.177   8.850
 5021POPC   C1A24339  34.589   8.152   8.550
 5021POPC   D2A24340  34.581   8.227   8.250
 5021POPC   C3A24341  34.530   8.209   7.950
 5021POPC   C4A24342  34.535   8.221   7.650
 5021POPC   C1B24343  34.369   8.158   8.550
 5021POPC   C2B24344  34.321   8.141   8.250
 5021POPC   C3B24345  34.313   8.103   7.950
 5021POPC   C4B24346  34.339   8.135   7.650
 5022POPC   NC324347  33.835  30.707   9.450
 5022POPC   PO424348  33.818  30.735   9.150
 5022POPC   GL124349  33.816  30.659   8.850
 5022POPC   GL224350  33.667  30.629   8.850
 5022POPC   C1A24351  33.772  30.667   8.550
 5022POPC   D2A24352  33.827  30.745   8.250
 5022POPC   C3A24353  33.794  30.687   7.950
 5022POPC   C4A24354  33.814  30.671   7.650
 5022POPC   C1B24355  33.546  30.566   8.550
 5022POPC   C2B24356  33.562  30.614   8.250
 5022POPC   C3B24357  33.576  30.627   7.950
 5022POPC   C4B24358  33.568  30.634   7.650
 5023POPC   NC324359  31.494  33.002   9.450
 5023POPC   PO424360  31.438  33.046   9.150
 5023POPC   GL124361  31.492  33.016   8.850
 5023POPC   GL224362  31.539  33.077   8.850
 5023POPC   C1A24363  31.483  33.000   8.550
 5023POPC   D2A24364  31.430  32.975   8.250
 5023POPC   C3A24365  31.483  33.056   7.950
 5023POPC   C4A24366  31.471  32.998   7.650
 5023POPC   C1B24367  31.674  33.117   8.550
 5023POPC   C2B24368  31.712  33.162   8.250
 5023POPC   C3B24369  31.667  33.136   7.950
 5023POPC   C4B24370  31.650  33.103   7.650
 5024POPC   NC324371   1.217   0.461   9.450
 5024POPC   PO424372   1.198   0.477   9.150
 5024POPC   GL124373   1.222   0.469   8.850
 5024POPC   GL224374   1.303   0.349   8.850
 5024POPC   C1A24375   1.238   0.393   8.550
 5024POPC   D2A24376   1.216   0.416   8.250
 5024POPC   C3A24377   1.182   0.485   7.950
 5024POPC   C4A24378   1.215   0.485   7.650
 5024POPC   C1B24379   1.286   0.187   8.550
 5024POPC   C2B24380   1.348   0.201   8.250
 5024POPC   C3B24381   1.296   0.170   7.950
 5024POPC   C4B24382   1.307   0.192   7.650
 5025POPC   NC324383  30.711  19.828   9.450
 5025POPC   PO424384  30.688  19.879   9.150
 5025POPC   GL124385  30.673  19.846   8.850
 5025POPC   GL224386  30.623  19.879   8.850
 5025POPC   C1A24387  30.711  19.869   8.550
 5025POPC   D2A24388  30.739  19.883   8.250
 5025POPC   C3A24389  30.667  19.800   7.950
 5025POPC   C4A24390  30.694  19.862   7.650
 5025POPC   C1B24391  30.497  19.960   8.550
 5025POPC   C2B24392  30.475  19.956   8.250
 5025POPC   C3B24393  30.470  20.018   7.950
 5025POPC   C4B24394  30.458  19.934   7.650
 5026POPC   NC324395  38.474   5.886   9.450
 5026POPC   PO424396  38.459   5.834   9.150
 5026POPC   GL124397  38.440   5.874   8.850
 5026POPC   GL224398  38.556   5.805   8.850
 5026POPC   C1A24399  38.471   5.832   8.550
 5026POPC   D2A24400  38.413   5.851   8.250
 5026POPC   C3A24401  38.448   5.867   7.950
 5026POPC   C4A24402  38.410   5.847   7.650
 5026POPC   C1B24403  38.595   5.684   8.550
 5026POPC   C2B24404  38.611   5.715   8.250
 5026POPC   C3B24405  38.563   5.653   7.950
 5026POPC   C4B24406  38.645   5.665   7.650
 5027POPC   NC324407  25.251  32.275   9.450
 5027POPC   PO424408  25.255  32.279   9.150
 5027POPC   GL124409  25.260  32.257   8.850
 5027POPC   GL224410  25.257  32.372   8.850
 5027POPC   C1A24411  25.222  32.227   8.550
 5027POPC   D2A24412  25.250  32.213   8.250
 5027POPC   C3A24413  25.252  32.279   7.950
 5027POPC   C4A24414  25.297  32.232   7.650
 5027POPC   C1B24415  25.210  32.443   8.550
 5027POPC   C2B24416  25.210  32.480   8.250
 5027POPC   C3B24417  25.234  32.531   7.950
 5027POPC   C4B24418  25.233  32.535   7.650
 5028POPC   NC324419  29.888  17.470   9.450
 5028POPC   PO424420  29.881  17.508   9.150
 5028POPC   GL124421  29.908  17.556   8.850
 5028POPC   GL224422  29.855  17.431   8.850
 5028POPC   C1A24423  29.913  17.484   8.550
 5028POPC   D2A24424  29.947  17.535   8.250
 5028POPC   C3A24425  29.947  17.479   7.950
 5028POPC   C4A24426  29.963  17.484   7.650
 5028POPC   C1B24427  29.681  17.435   8.550
 5028POPC   C2B24428  29.709  17.414   8.250
 5028POPC   C3B24429  29.657  17.366   7.950
 5028POPC   C4B24430  29.676  17.355   7.650
 5029POPC   NC324431  28.334  27.603   9.450
 5029POPC   PO424432  28.396  27.642   9.150
 5029POPC   GL124433  28.361  27.571   8.850
 5029POPC   GL224434  28.249  27.682   8.850
 5029POPC   C1A24435  28.394  27.566   8.550
 5029POPC   D2A24436  28.334  27.643   8.250
 5029POPC   C3A24437  28.356  27.638   7.950
 5029POPC   C4A24438  28.383  27.595   7.650
 5029POPC   C1B24439  28.181  27.656   8.550
 5029POPC   C2B24440  28.088  27.704   8.250
 5029POPC   C3B24441  28.180  27.634   7.950
 5029POPC   C4B24442  28.120  27.663   7.650
 5030POPC   NC324443   1.253  22.125   9.450
 5030POPC   PO424444   1.221  22.170   9.150
 5030POPC   GL124445   1.170  22.146   8.850
 5030POPC   GL224446   1.110  22.306   8.850
 5030POPC   C1A24447   1.257  22.186   8.550
 5030POPC   D2A24448   1.204  22.131   8.250
 5030POPC   C3A24449   1.187  22.120   7.950
 5030POPC   C4A24450   1.241  22.163   7.650
 5030POPC   C1B24451   1.085  22.416   8.550
 5030POPC   C2B24452   1.056  22.419   8.250
 5030POPC   C3B24453   1.055  22.394   7.950
 5030POPC   C4B24454   1.102  22.341   7.650
 5031POPC   NC324455  27.567   8.954   9.450
 5031POPC   PO424456  27.638   8.924   9.150
 5031POPC   GL124457  27.586   8.973   8.850
 5031POPC   GL224458  27.669   8.850   8.850
 5031POPC   C1A24459  27.592   9.004   8.550
 5031POPC   D2A24460  27.549   8.998   8.250
 5031POPC   C3A24461  27.598   8.975   7.950
 5031POPC   C4A24462  27.631   8.949   7.650
 5031POPC   C1B24463  27.734   8.739   8.550
 5031POPC   C2B24464  27.734   8.803   8.250
 5031POPC   C3B24465  27.699   8.814   7.950
 5031POPC   C4B24466  27.750   8.799   7.650
 5032POPC   NC324467  23.672  33.021   9.450
 5032POPC   PO424468  23.731  33.025   9.150
 5032POPC   GL124469  23.753  33.037   8.850
 5032POPC   GL224470  23.809  33.007   8.850
 5032POPC   C1A24471  23.727  33.067   8.550
 5032POPC   D2A24472  23.762  33.027   8.250
 5032POPC   C3A24473  23.675  32.981   7.950
 5032POPC   C4A24474  23.675  33.040   7.650
 5032POPC   C1B24475  23.952  32.887   8.550
 5032POPC   C2B24476  23.949  32.883   8.250
 5032POPC   C3B24477  23.971  32.939   7.950
 5032POPC   C4B24478  23.925  32.922   7.650
 5033POPC   NC324479   4.319   2.029   9.450
 5033POPC   PO424480   4.328   1.972   9.150
 5033POPC   GL124481   4.285   1.951   8.850
 5033POPC   GL224482   4.433   2.067   8.850
 5033POPC   C1A24483   4.321   2.008   8.550
 5033POPC   D2A24484   4.364   2.012   8.250
 5033POPC   C3A24485   4.299   2.024   7.950
 5033POPC   C4A24486   4.300   2.023   7.650
 5033POPC   C1B24487   4.535   2.106   8.550
 5033POPC   C2B24488   4.488   2.137   8.250
 5033POPC   C3B24489   4.554   2.116   7.950
 5033POPC   C4B24490   4.469   2.124   7.650
 5034POPC   NC324491  17.548   3.535   9.450
 5034POPC   PO424492  17.530   3.497   9.150
 5034POPC   GL124493  17.470   3.565   8.850
 5034POPC   GL224494  17.371   3.478   8.850
 5034POPC   C1A24495  17.528   3.559   8.550
 5034POPC   D2A24496  17.515   3.517   8.250
 5034POPC   C3A24497  17.498   3.534   7.950
 5034POPC   C4A24498  17.534   3.558   7.650
 5034POPC   C1B24499  17.290   3.427   8.550
 5034POPC   C2B24500  17.255   3.459   8.250
 5034POPC   C3B24501  17.261   3.389   7.950
 5034POPC   C4B24502  17.327   3.425   7.650
 5035POPC   NC324503  25.289  11.252   9.450
 5035POPC   PO424504  25.271  11.255   9.150
 5035POPC   GL124505  25.246  11.334   8.850
 5035POPC   GL224506  25.251  11.178   8.850
 5035POPC   C1A24507  25.282  11.266   8.550
 5035POPC   D2A24508  25.308  11.316   8.250
 5035POPC   C3A24509  25.222  11.334   7.950
 5035POPC   C4A24510  25.261  11.275   7.650
 5035POPC   C1B24511  25.197  11.099   8.550
 5035POPC   C2B24512  25.167  11.103   8.250
 5035POPC   C3B24513  25.236  11.059   7.950
 5035POPC   C4B24514  25.223  11.061   7.650
 5036POPC   NC324515  33.833   7.406   9.450
 5036POPC   PO424516  33.794   7.387   9.150
 5036POPC   GL124517  33.750   7.411   8.850
 5036POPC   GL224518  33.778   7.549   8.850
 5036POPC   C1A24519  33.767   7.378   8.550
 5036POPC   D2A24520  33.823   7.468   8.250
 5036POPC   C3A24521  33.797   7.427   7.950
 5036POPC   C4A24522  33.807   7.399   7.650
 5036POPC   C1B24523  33.799   7.698   8.550
 5036POPC   C2B24524  33.800   7.657   8.250
 5036POPC   C3B24525  33.789   7.717   7.950
 5036POPC   C4B24526  33.844   7.715   7.650
 5037POPC   NC324527  24.449  22.903   9.450
 5037POPC   PO424528  24.512  22.934   9.150
 5037POPC   GL124529  24.460  22.984   8.850
 5037POPC   GL224530  24.405  22.910   8.850
 5037POPC   C1A24531  24.493  22.900   8.550
 5037POPC   D2A24532  24.517  22.963   8.250
 5037POPC   C3A24533  24.512  22.972   7.950
 5037POPC   C4A24534  24.505  22.904   7.650
 5037POPC   C1B24535  24.249  22.796   8.550
 5037POPC   C2B24536  24.296  22.886   8.250
 5037POPC   C3B24537  24.248  22.879   7.950
 5037POPC   C4B24538  24.236  22.818   7.650
 5038POPC   NC324539  32.241   2.036   9.450
 5038POPC   PO424540  32.232   1.981   9.150
 5038POPC   GL124541  32.240   1.977   8.850
 5038POPC   GL224542  32.277   1.901   8.850
 5038POPC   C1A24543  32.252   2.005   8.550
 5038POPC   D2A24544  32.253   1.992   8.250
 5038POPC   C3A24545  32.267   1.959   7.950
 5038POPC   C4A24546  32.258   1.984   7.650
 5038POPC   C1B24547  32.178   1.740   8.550
 5038POPC   C2B24548  32.271   1.736   8.250
 5038POPC   C3B24549  32.185   1.718   7.950
 5038POPC   C4B24550  32.230   1.744   7.650
 5039POPC   NC324551  22.927   2.777   9.450
 5039POPC   PO424552  22.932   2.788   9.150
 5039POPC   GL124553  22.966   2.791   8.850
 5039POPC   GL224554  23.055   2.823   8.850
 5039POPC   C1A24555  22.930   2.721   8.550
 5039POPC   D2A24556  22.937   2.763   8.250
 5039POPC   C3A24557  22.934   2.725   7.950
 5039POPC   C4A24558  22.926   2.788   7.650
 5039POPC   C1B24559  23.192   2.846   8.550
 5039POPC   C2B24560  23.166   2.788   8.250
 5039POPC   C3B24561  23.168   2.759   7.950
 5039POPC   C4B24562  23.156   2.840   7.650
 5040POPC   NC324563  12.037  32.295   9.450
 5040POPC   PO424564  12.091  32.249   9.150
 5040POPC   GL124565  12.032  32.215   8.850
 5040POPC   GL224566  11.954  32.305   8.850
 5040POPC   C1A24567  12.088  32.202   8.550
 5040POPC   D2A24568  12.040  32.269   8.250
 5040POPC   C3A24569  12.076  32.245   7.950
 5040POPC   C4A24570  12.064  32.277   7.650
 5040POPC   C1B24571  11.887  32.362   8.550
 5040POPC   C2B24572  11.827  32.367   8.250
 5040POPC   C3B24573  11.881  32.303   7.950
 5040POPC   C4B24574  11.828  32.389   7.650
 5041POPC   NC324575  35.352  40.736   9.450
 5041POPC   PO424576  35.341  40.815   9.150
 5041POPC   GL124577  35.305  40.789   8.850
 5041POPC   GL224578  35.256  40.892   8.850
 5041POPC   C1A24579  35.326  40.766   8.550
 5041POPC   D2A24580  35.378  40.757   8.250
 5041POPC   C3A24581  35.372  40.762   7.950
 5041POPC   C4A24582  35.345  40.795   7.650
 5041POPC   C1B24583  35.155  40.984   8.550
 5041POPC   C2B24584  35.144  40.970   8.250
 5041POPC   C3B24585  35.155  40.997   7.950
 5041POPC   C4B24586  35.191  40.958   7.650
 5042POPC   NC324587  17.544  30.672   9.450
 5042POPC   PO424588  17.536  30.722   9.150
 5042POPC   GL124589  17.547  30.698   8.850
 5042POPC   GL224590  17.486  30.838   8.850
 5042POPC   C1A24591  17.487  30.726   8.550
 5042POPC   D2A24592  17.534  30.665   8.250
 5042POPC   C3A24593  17.533  30.669   7.950
 5042POPC   C4A24594  17.505  30.685   7.650
 5042POPC   C1B24595  17.408  30.971   8.550
 5042POPC   C2B24596  17.404  30.977   8.250
 5042POPC   C3B24597  17.408  30.942   7.950
 5042POPC   C4B24598  17.460  30.934   7.650
 5043POPC   NC324599  36.932  30.668   9.450
 5043POPC   PO424600  36.906  30.658   9.150
 5043POPC   GL124601  36.916  30.728   8.850
 5043POPC   GL224602  36.739  30.691   8.850
 5043POPC   C1A24603  36.854  30.739   8.550
 5043POPC   D2A24604  36.943  30.720   8.250
 5043POPC   C3A24605  36.895  30.696   7.950
 5043POPC   C4A24606  36.936  30.671   7.650
 5043POPC   C1B24607  36.672  30.693   8.550
 5043POPC   C2B24608  36.623  30.686   8.250
 5043POPC   C3B24609  36.616  30.661   7.950
 5043POPC   C4B24610  36.622  30.671   7.650
 5044POPC   NC324611  12.819  36.926   9.450
 5044POPC   PO424612  12.802  36.903   9.150
 5044POPC   GL124613  12.894  36.943   8.850
 5044POPC   GL224614  12.731  36.963   8.850
 5044POPC   C1A24615  12.827  36.910   8.550
 5044POPC   D2A24616  12.831  36.891   8.250
 5044POPC   C3A24617  12.901  36.913   7.950
 5044POPC   C4A24618  12.901  36.894   7.650
 5044POPC   C1B24619  12.637  36.975   8.550
 5044POPC   C2B24620  12.602  36.920   8.250
 5044POPC   C3B24621  12.592  36.908   7.950
 5044POPC   C4B24622  12.584  36.962   7.650
 5045POPC   NC324623  35.401  12.837   9.450
 5045POPC   PO424624  35.398  12.818   9.150
 5045POPC   GL124625  35.362  12.878   8.850
 5045POPC   GL224626  35.448  12.917   8.850
 5045POPC   C1A24627  35.314  12.876   8.550
 5045POPC   D2A24628  35.392  12.815   8.250
 5045POPC   C3A24629  35.302  12.839   7.950
 5045POPC   C4A24630  35.355  12.850   7.650
 5045POPC   C1B24631  35.551  12.959   8.550
 5045POPC   C2B24632  35.578  13.004   8.250
 5045POPC   C3B24633  35.616  12.959   7.950
 5045POPC   C4B24634  35.582  12.990   7.650
 5046POPC   NC324635  40.790  29.896   9.450
 5046POPC   PO424636  40.809  29.898   9.150
 5046POPC   GL124637  40.736  29.942   8.850
 5046POPC   GL224638  40.660  29.818   8.850
 5046POPC   C1A24639  40.831  29.941   8.550
 5046POPC   D2A24640  40.806  29.931   8.250
 5046POPC   C3A24641  40.787  29.927   7.950
 5046POPC   C4A24642  40.783  29.952   7.650
 5046POPC   C1B24643  40.548  29.772   8.550
 5046POPC   C2B24644  40.543  29.727   8.250
 5046POPC   C3B24645  40.620  29.742   7.950
 5046POPC   C4B24646  40.546  29.816   7.650
 5047POPC   NC324647  39.231  11.324   9.450
 5047POPC   PO424648  39.197  11.258   9.150
 5047POPC   GL124649  39.259  11.289   8.850
 5047POPC   GL224650  39.310  11.423   8.850
 5047POPC   C1A24651  39.231  11.336   8.550
 5047POPC   D2A24652  39.265  11.337   8.250
 5047POPC   C3A24653  39.245  11.271   7.950
 5047POPC   C4A24654  39.227  11.254   7.650
 5047POPC   C1B24655  39.323  11.544   8.550
 5047POPC   C2B24656  39.299  11.558   8.250
 5047POPC   C3B24657  39.381  11.523   7.950
 5047POPC   C4B24658  39.385  11.573   7.650
 5048POPC   NC324659  29.904   1.166   9.450
 5048POPC   PO424660  29.910   1.174   9.150
 5048POPC   GL124661  29.933   1.217   8.850
 5048POPC   GL224662  29.842   1.061   8.850
 5048POPC   C1A24663  29.903   1.168   8.550
 5048POPC   D2A24664  29.897   1.176   8.250
 5048POPC   C3A24665  29.930   1.192   7.950
 5048POPC   C4A24666  29.887   1.188   7.650
 5048POPC   C1B24667  29.799   0.967   8.550
 5048POPC   C2B24668  29.856   0.960   8.250
 5048POPC   C3B24669  29.883   0.992   7.950
 5048POPC   C4B24670  29.883   0.949   7.650
 5049POPC   NC324671  34.606  43.899   9.450
 5049POPC   PO424672  34.580  43.903   9.150
 5049POPC   GL124673  34.545  43.923   8.850
 5049POPC   GL224674  34.649  43.767   8.850
 5049POPC   C1A24675  34.616  43.849   8.550
 5049POPC   D2A24676  34.576  43.872   8.250
 5049POPC   C3A24677  34.602  43.935   7.950
 5049POPC   C4A24678  34.537  43.847   7.650
 5049POPC   C1B24679  34.699  43.752   8.550
 5049POPC   C2B24680  34.784  43.663   8.250
 5049POPC   C3B24681  34.711  43.736   7.950
 5049POPC   C4B24682  34.734  43.700   7.650
 5050POPC   NC324683  40.042  29.900   9.450
 5050POPC   PO424684  40.016  29.916   9.150
 5050POPC   GL124685  40.043  29.884   8.850
 5050POPC   GL224686  40.081  29.802   8.850
 5050POPC   C1A24687  40.049  29.885   8.550
 5050POPC   D2A24688  40.017  29.963   8.250
 5050POPC   C3A24689  39.963  29.887   7.950
 5050POPC   C4A24690  40.020  29.925   7.650
 5050POPC   C1B24691  40.190  29.759   8.550
 5050POPC   C2B24692  40.159  29.705   8.250
 5050POPC   C3B24693  40.165  29.721   7.950
 5050POPC   C4B24694  40.118  29.756   7.650
 5051POPC   NC324695  42.345  43.926   9.450
 5051POPC   PO424696  42.374  43.908   9.150
 5051POPC   GL124697  42.362  43.891   8.850
 5051POPC   GL224698  42.430  43.954   8.850
 5051POPC   C1A24699  42.321  43.922   8.550
 5051POPC   D2A24700  42.377  43.917   8.250
 5051POPC   C3A24701  42.379  43.857   7.950
 5051POPC   C4A24702  42.358  43.871   7.650
 5051POPC   C1B24703  42.521  44.012   8.550
 5051POPC   C2B24704  42.558  44.066   8.250
 5051POPC   C3B24705  42.589  44.070   7.950
 5051POPC   C4B24706  42.555  44.008   7.650
 5052POPC   NC324707  38.451  18.325   9.450
 5052POPC   PO424708  38.440  18.317   9.150
 5052POPC   GL124709  38.425  18.329   8.850
 5052POPC   GL224710  38.524  18.143   8.850
 5052POPC   C1A24711  38.476  18.329   8.550
 5052POPC   D2A24712  38.479  18.247   8.250
 5052POPC   C3A24713  38.411  18.246   7.950
 5052POPC   C4A24714  38.407  18.288   7.650
 5052POPC   C1B24715  38.554  18.000   8.550
 5052POPC   C2B24716  38.472  18.073   8.250
 5052POPC   C3B24717  38.493  18.051   7.950
 5052POPC   C4B24718  38.510  18.060   7.650
 5053POPC   NC324719  36.094   9.775   9.450
 5053POPC   PO424720  36.104   9.762   9.150
 5053POPC   GL124721  36.161   9.738   8.850
 5053POPC   GL224722  36.289   9.803   8.850
 5053POPC   C1A24723  36.098   9.758   8.550
 5053POPC   D2A24724  36.152   9.783   8.250
 5053POPC   C3A24725  36.098   9.725   7.950
 5053POPC   C4A24726  36.158   9.768   7.650
 5053POPC   C1B24727  36.389   9.851   8.550
 5053POPC   C2B24728  36.362   9.776   8.250
 5053POPC   C3B24729  36.357   9.794   7.950
 5053POPC   C4B24730  36.323   9.766   7.650
 5054POPC   NC324731   2.018   4.279   9.450
 5054POPC   PO424732   2.001   4.345   9.150
 5054POPC   GL124733   1.976   4.312   8.850
 5054POPC   GL224734   2.058   4.403   8.850
 5054POPC   C1A24735   1.978   4.313   8.550
 5054POPC   D2A24736   2.037   4.289   8.250
 5054POPC   C3A24737   1.986   4.298   7.950
 5054POPC   C4A24738   2.010   4.356   7.650
 5054POPC   C1B24739   2.199   4.540   8.550
 5054POPC   C2B24740   2.122   4.525   8.250
 5054POPC   C3B24741   2.114   4.514   7.950
 5054POPC   C4B24742   2.144   4.488   7.650
 5055POPC   NC324743   5.899  18.312   9.450
 5055POPC   PO424744   5.868  18.264   9.150
 5055POPC   GL124745   5.845  18.264   8.850
 5055POPC   GL224746   5.815  18.395   8.850
 5055POPC   C1A24747   5.918  18.316   8.550
 5055POPC   D2A24748   5.893  18.293   8.250
 5055POPC   C3A24749   5.913  18.237   7.950
 5055POPC   C4A24750   5.833  18.292   7.650
 5055POPC   C1B24751   5.797  18.555   8.550
 5055POPC   C2B24752   5.843  18.535   8.250
 5055POPC   C3B24753   5.836  18.520   7.950
 5055POPC   C4B24754   5.855  18.499   7.650
 5056POPC   NC324755  38.420  21.398   9.450
 5056POPC   PO424756  38.483  21.365   9.150
 5056POPC   GL124757  38.464  21.338   8.850
 5056POPC   GL224758  38.548  21.505   8.850
 5056POPC   C1A24759  38.475  21.383   8.550
 5056POPC   D2A24760  38.412  21.433   8.250
 5056POPC   C3A24761  38.479  21.345   7.950
 5056POPC   C4A24762  38.471  21.341   7.650
 5056POPC   C1B24763  38.556  21.611   8.550
 5056POPC   C2B24764  38.557  21.575   8.250
 5056POPC   C3B24765  38.590  21.560   7.950
 5056POPC   C4B24766  38.631  21.610   7.650
 5057POPC   NC324767  14.406  13.664   9.450
 5057POPC   PO424768  14.396  13.674   9.150
 5057POPC   GL124769  14.449  13.657   8.850
 5057POPC   GL224770  14.510  13.683   8.850
 5057POPC   C1A24771  14.435  13.608   8.550
 5057POPC   D2A24772  14.412  13.640   8.250
 5057POPC   C3A24773  14.365  13.605   7.950
 5057POPC   C4A24774  14.408  13.606   7.650
 5057POPC   C1B24775  14.606  13.802   8.550
 5057POPC   C2B24776  14.540  13.808   8.250
 5057POPC   C3B24777  14.597  13.794   7.950
 5057POPC   C4B24778  14.549  13.849   7.650
 5058POPC   NC324779  28.340  39.985   9.450
 5058POPC   PO424780  28.322  40.013   9.150
 5058POPC   GL124781  28.362  39.958   8.850
 5058POPC   GL224782  28.352  39.894   8.850
 5058POPC   C1A24783  28.414  40.047   8.550
 5058POPC   D2A24784  28.405  40.017   8.250
 5058POPC   C3A24785  28.332  40.052   7.950
 5058POPC   C4A24786  28.412  39.972   7.650
 5058POPC   C1B24787  28.313  39.744   8.550
 5058POPC   C2B24788  28.310  39.749   8.250
 5058POPC   C3B24789  28.327  39.711   7.950
 5058POPC   C4B24790  28.345  39.727   7.650
 5059POPC   NC324791  36.899  12.118   9.450
 5059POPC   PO424792  36.899  12.027   9.150
 5059POPC   GL124793  36.943  12.116   8.850
 5059POPC   GL224794  36.828  12.108   8.850
 5059POPC   C1A24795  36.934  12.071   8.550
 5059POPC   D2A24796  36.948  12.051   8.250
 5059POPC   C3A24797  36.943  12.079   7.950
 5059POPC   C4A24798  36.950  12.078   7.650
 5059POPC   C1B24799  36.654  12.245   8.550
 5059POPC   C2B24800  36.694  12.231   8.250
 5059POPC   C3B24801  36.695  12.166   7.950
 5059POPC   C4B24802  36.718  12.229   7.650
 5060POPC   NC324803  22.955  10.525   9.450
 5060POPC   PO424804  22.901  10.530   9.150
 5060POPC   GL124805  22.955  10.530   8.850
 5060POPC   GL224806  23.050  10.564   8.850
 5060POPC   C1A24807  22.943  10.478   8.550
 5060POPC   D2A24808  22.974  10.493   8.250
 5060POPC   C3A24809  22.927  10.552   7.950
 5060POPC   C4A24810  22.943  10.512   7.650
 5060POPC   C1B24811  23.111  10.681   8.550
 5060POPC   C2B24812  23.111  10.660   8.250
 5060POPC   C3B24813  23.092  10.722   7.950
 5060POPC   C4B24814  23.151  10.652   7.650
 5061POPC   NC324815   9.742  38.488   9.450
 5061POPC   PO424816   9.712  38.459   9.150
 5061POPC   GL124817   9.723  38.501   8.850
 5061POPC   GL224818   9.599  38.395   8.850
 5061POPC   C1A24819   9.783  38.487   8.550
 5061POPC   D2A24820   9.723  38.496   8.250
 5061POPC   C3A24821   9.756  38.441   7.950
 5061POPC   C4A24822   9.714  38.493   7.650
 5061POPC   C1B24823   9.500  38.309   8.550
 5061POPC   C2B24824   9.540  38.298   8.250
 5061POPC   C3B24825   9.589  38.347   7.950
 5061POPC   C4B24826   9.491  38.276   7.650
 5062POPC   NC324827  26.014  43.135   9.450
 5062POPC   PO424828  26.047  43.091   9.150
 5062POPC   GL124829  25.992  43.096   8.850
 5062POPC   GL224830  26.016  42.991   8.850
 5062POPC   C1A24831  26.053  43.111   8.550
 5062POPC   D2A24832  26.067  43.068   8.250
 5062POPC   C3A24833  26.087  43.075   7.950
 5062POPC   C4A24834  26.039  43.090   7.650
 5062POPC   C1B24835  25.939  42.914   8.550
 5062POPC   C2B24836  25.939  42.841   8.250
 5062POPC   C3B24837  25.920  42.844   7.950
 5062POPC   C4B24838  25.968  42.848   7.650
 5063POPC   NC324839  21.361   2.731   9.450
 5063POPC   PO424840  21.403   2.719   9.150
 5063POPC   GL124841  21.415   2.790   8.850
 5063POPC   GL224842  21.539   2.858   8.850
 5063POPC   C1A24843  21.434   2.808   8.550
 5063POPC   D2A24844  21.381   2.746   8.250
 5063POPC   C3A24845  21.343   2.780   7.950
 5063POPC   C4A24846  21.384   2.788   7.650
 5063POPC   C1B24847  21.636   2.830   8.550
 5063POPC   C2B24848  21.660   2.852   8.250
 5063POPC   C3B24849  21.661   2.851   7.950
 5063POPC   C4B24850  21.615   2.890   7.650
 5064POPC   NC324851   0.437   2.797   9.450
 5064POPC   PO424852   0.459   2.792   9.150
 5064POPC   GL124853   0.429   2.792   8.850
 5064POPC   GL224854   0.557   2.702   8.850
 5064POPC   C1A24855   0.457   2.767   8.550
 5064POPC   D2A24856   0.422   2.747   8.250
 5064POPC   C3A24857   0.449   2.747   7.950
 5064POPC   C4A24858   0.421   2.793   7.650
 5064POPC   C1B24859   0.626   2.576   8.550
 5064POPC   C2B24860   0.589   2.577   8.250
 5064POPC   C3B24861   0.544   2.559   7.950
 5064POPC   C4B24862   0.555   2.570   7.650
 5065POPC   NC324863  10.519  42.310   9.450
 5065POPC   PO424864  10.520  42.312   9.150
 5065POPC   GL124865  10.572  42.383   8.850
 5065POPC   GL224866  10.510  42.484   8.850
 5065POPC   C1A24867  10.540  42.312   8.550
 5065POPC   D2A24868  10.486  42.317   8.250
 5065POPC   C3A24869  10.521  42.336   7.950
 5065POPC   C4A24870  10.572  42.358   7.650
 5065POPC   C1B24871  10.401  42.564   8.550
 5065POPC   C2B24872  10.444  42.549   8.250
 5065POPC   C3B24873  10.470  42.522   7.950
 5065POPC   C4B24874  10.456  42.592   7.650
 5066POPC   NC324875  19.807  19.866   9.450
 5066POPC   PO424876  19.813  19.882   9.150
 5066POPC   GL124877  19.831  19.817   8.850
 5066POPC   GL224878  19.887  19.940   8.850
 5066POPC   C1A24879  19.791  19.881   8.550
 5066POPC   D2A24880  19.847  19.805   8.250
 5066POPC   C3A24881  19.835  19.826   7.950
 5066POPC   C4A24882  19.803  19.791   7.650
 5066POPC   C1B24883  19.836  20.045   8.550
 5066POPC   C2B24884  19.914  20.040   8.250
 5066POPC   C3B24885  19.888  20.085   7.950
 5066POPC   C4B24886  19.883  20.131   7.650
 5067POPC   NC324887  28.389  31.470   9.450
 5067POPC   PO424888  28.396  31.453   9.150
 5067POPC   GL124889  28.330  31.471   8.850
 5067POPC   GL224890  28.234  31.431   8.850
 5067POPC   C1A24891  28.329  31.468   8.550
 5067POPC   D2A24892  28.375  31.437   8.250
 5067POPC   C3A24893  28.407  31.445   7.950
 5067POPC   C4A24894  28.331  31.479   7.650
 5067POPC   C1B24895  28.162  31.320   8.550
 5067POPC   C2B24896  28.211  31.344   8.250
 5067POPC   C3B24897  28.225  31.272   7.950
 5067POPC   C4B24898  28.164  31.261   7.650
 5068POPC   NC324899  40.781  22.152   9.450
 5068POPC   PO424900  40.801  22.164   9.150
 5068POPC   GL124901  40.823  22.209   8.850
 5068POPC   GL224902  40.687  22.050   8.850
 5068POPC   C1A24903  40.777  22.118   8.550
 5068POPC   D2A24904  40.790  22.121   8.250
 5068POPC   C3A24905  40.786  22.165   7.950
 5068POPC   C4A24906  40.743  22.184   7.650
 5068POPC   C1B24907  40.709  21.904   8.550
 5068POPC   C2B24908  40.713  21.896   8.250
 5068POPC   C3B24909  40.660  21.935   7.950
 5068POPC   C4B24910  40.656  21.974   7.650
 5069POPC   NC324911  37.692  20.586   9.450
 5069POPC   PO424912  37.708  20.633   9.150
 5069POPC   GL124913  37.712  20.616   8.850
 5069POPC   GL224914  37.599  20.718   8.850
 5069POPC   C1A24915  37.685  20.581   8.550
 5069POPC   D2A24916  37.669  20.642   8.250
 5069POPC   C3A24917  37.714  20.618   7.950
 5069POPC   C4A24918  37.678  20.617   7.650
 5069POPC   C1B24919  37.569  20.857   8.550
 5069POPC   C2B24920  37.583  20.807   8.250
 5069POPC   C3B24921  37.605  20.883   7.950
 5069POPC   C4B24922  37.632  20.889   7.650
 5070POPC   NC324923  26.823  15.953   9.450
 5070POPC   PO424924  26.839  15.998   9.150
 5070POPC   GL124925  26.849  15.926   8.850
 5070POPC   GL224926  26.651  15.945   8.850
 5070POPC   C1A24927  26.781  15.970   8.550
 5070POPC   D2A24928  26.824  15.979   8.250
 5070POPC   C3A24929  26.809  15.980   7.950
 5070POPC   C4A24930  26.799  16.002   7.650
 5070POPC   C1B24931  26.581  15.921   8.550
 5070POPC   C2B24932  26.618  15.880   8.250
 5070POPC   C3B24933  26.586  15.901   7.950
 5070POPC   C4B24934  26.569  15.866   7.650
 5071POPC   NC324935  15.958  42.344   9.450
 5071POPC   PO424936  15.921  42.348   9.150
 5071POPC   GL124937  15.975  42.384   8.850
 5071POPC   GL224938  15.944  42.422   8.850
 5071POPC   C1A24939  15.927  42.377   8.550
 5071POPC   D2A24940  15.943  42.299   8.250
 5071POPC   C3A24941  15.936  42.285   7.950
 5071POPC   C4A24942  15.922  42.352   7.650
 5071POPC   C1B24943  15.833  42.545   8.550
 5071POPC   C2B24944  15.889  42.527   8.250
 5071POPC   C3B24945  15.899  42.551   7.950
 5071POPC   C4B24946  15.849  42.582   7.650
 5072POPC   NC324947   2.756  38.479   9.450
 5072POPC   PO424948   2.807  38.494   9.150
 5072POPC   GL124949   2.716  38.449   8.850
 5072POPC   GL224950   2.859  38.538   8.850
 5072POPC   C1A24951   2.746  38.477   8.550
 5072POPC   D2A24952   2.775  38.429   8.250
 5072POPC   C3A24953   2.766  38.455   7.950
 5072POPC   C4A24954   2.751  38.479   7.650
 5072POPC   C1B24955   2.956  38.571   8.550
 5072POPC   C2B24956   2.958  38.579   8.250
 5072POPC   C3B24957   3.001  38.547   7.950
 5072POPC   C4B24958   2.989  38.540   7.650
 5073POPC   NC324959  22.144  28.413   9.450
 5073POPC   PO424960  22.154  28.333   9.150
 5073POPC   GL124961  22.142  28.366   8.850
 5073POPC   GL224962  22.030  28.331   8.850
 5073POPC   C1A24963  22.184  28.374   8.550
 5073POPC   D2A24964  22.171  28.323   8.250
 5073POPC   C3A24965  22.115  28.374   7.950
 5073POPC   C4A24966  22.192  28.342   7.650
 5073POPC   C1B24967  21.982  28.236   8.550
 5073POPC   C2B24968  21.966  28.296   8.250
 5073POPC   C3B24969  21.906  28.280   7.950
 5073POPC   C4B24970  21.975  28.204   7.650
 5074POPC   NC324971  20.566  28.379   9.450
 5074POPC   PO424972  20.614  28.407   9.150
 5074POPC   GL124973  20.609  28.384   8.850
 5074POPC   GL224974  20.628  28.277   8.850
 5074POPC   C1A24975  20.642  28.400   8.550
 5074POPC   D2A24976  20.632  28.385   8.250
 5074POPC   C3A24977  20.608  28.327   7.950
 5074POPC   C4A24978  20.641  28.411   7.650
 5074POPC   C1B24979  20.662  28.134   8.550
 5074POPC   C2B24980  20.638  28.126   8.250
 5074POPC   C3B24981  20.712  28.161   7.950
 5074POPC   C4B24982  20.634  28.139   7.650
 5075POPC   NC324983   2.768  10.486   9.450
 5075POPC   PO424984   2.718  10.479   9.150
 5075POPC   GL124985   2.721  10.557   8.850
 5075POPC   GL224986   2.843  10.628   8.850
 5075POPC   C1A24987   2.801  10.494   8.550
 5075POPC   D2A24988   2.803  10.515   8.250
 5075POPC   C3A24989   2.755  10.545   7.950
 5075POPC   C4A24990   2.780  10.552   7.650
 5075POPC   C1B24991   2.979  10.673   8.550
 5075POPC   C2B24992   2.932  10.742   8.250
 5075POPC   C3B24993   2.970  10.684   7.950
 5075POPC   C4B24994   2.900  10.733   7.650
 5076POPC   NC324995  33.753  27.592   9.450
 5076POPC   PO424996  33.829  27.551   9.150
 5076POPC   GL124997  33.822  27.577   8.850
 5076POPC   GL224998  33.869  27.726   8.850
 5076POPC   C1A24999  33.831  27.548   8.550
 5076POPC   D2A25000  33.836  27.543   8.250
 5076POPC   C3A25001  33.770  27.613   7.950
 5076POPC   C4A25002  33.765  27.632   7.650
 5076POPC   C1B25003  33.900  27.780   8.550
 5076POPC   C2B25004  33.940  27.791   8.250
 5076POPC   C3B25005  33.966  27.775   7.950
 5076POPC   C4B25006  33.938  27.790   7.650
 5077POPC   NC325007  15.975   0.420   9.450
 5077POPC   PO425008  15.980   0.408   9.150
 5077POPC   GL125009  15.968   0.458   8.850
 5077POPC   GL225010  16.021   0.293   8.850
 5077POPC   C1A25011  15.979   0.392   8.550
 5077POPC   D2A25012  15.984   0.416   8.250
 5077POPC   C3A25013  15.980   0.451   7.950
 5077POPC   C4A25014  15.999   0.438   7.650
 5077POPC   C1B25015  16.042   0.242   8.550
 5077POPC   C2B25016  16.004   0.200   8.250
 5077POPC   C3B25017  16.015   0.221   7.950
 5077POPC   C4B25018  16.027   0.194   7.650
 5078POPC   NC325019  28.365   0.483   9.450
 5078POPC   PO425020  28.416   0.459   9.150
 5078POPC   GL125021  28.361   0.472   8.850
 5078POPC   GL225022  28.289   0.326   8.850
 5078POPC   C1A25023  28.363   0.442   8.550
 5078POPC   D2A25024  28.322   0.415   8.250
 5078POPC   C3A25025  28.331   0.399   7.950
 5078POPC   C4A25026  28.359   0.439   7.650
 5078POPC   C1B25027  28.273   0.180   8.550
 5078POPC   C2B25028  28.234   0.213   8.250
 5078POPC   C3B25029  28.285   0.220   7.950
 5078POPC   C4B25030  28.270   0.204   7.650
 5079POPC   NC325031  37.671  11.283   9.450
 5079POPC   PO425032  37.668  11.302   9.150
 5079POPC   GL125033  37.676  11.347   8.850
 5079POPC   GL225034  37.560  11.306   8.850
 5079POPC   C1A25035  37.693  11.252   8.550
 5079POPC   D2A25036  37.683  11.260   8.250
 5079POPC   C3A25037  37.727  11.329   7.950
 5079POPC   C4A25038  37.715  11.332   7.650
 5079POPC   C1B25039  37.431  11.390   8.550
 5079POPC   C2B25040  37.469  11.341   8.250
 5079POPC   C3B25041  37.482  11.355   7.950
 5079POPC   C4B25042  37.399  11.337   7.650
 5080POPC   NC325043  37.637  36.124   9.450
 5080POPC   PO425044  37.651  36.107   9.150
 5080POPC   GL125045  37.662  36.086   8.850
 5080POPC   GL225046  37.696  35.958   8.850
 5080POPC   C1A25047  37.676  36.151   8.550
 5080POPC   D2A25048  37.681  36.104   8.250
 5080POPC   C3A25049  37.708  36.153   7.950
 5080POPC   C4A25050  37.705  36.112   7.650
 5080POPC   C1B25051  37.674  35.849   8.550
 5080POPC   C2B25052  37.673  35.925   8.250
 5080POPC   C3B25053  37.701  35.918   7.950
 5080POPC   C4B25054  37.765  35.846   7.650
 5081POPC   NC325055  40.788  27.569   9.450
 5081POPC   PO425056  40.780  27.598   9.150
 5081POPC   GL125057  40.812  27.629   8.850
 5081POPC   GL225058  40.663  27.643   8.850
 5081POPC   C1A25059  40.790  27.592   8.550
 5081POPC   D2A25060  40.770  27.573   8.250
 5081POPC   C3A25061  40.814  27.565   7.950
 5081POPC   C4A25062  40.766  27.607   7.650
 5081POPC   C1B25063  40.525  27.656   8.550
 5081POPC   C2B25064  40.533  27.702   8.250
 5081POPC   C3B25065  40.511  27.700   7.950
 5081POPC   C4B25066  40.591  27.647   7.650
 5082POPC   NC325067  44.674  32.992   9.450
 5082POPC   PO425068  44.675  33.035   9.150
 5082POPC   GL125069  44.661  32.987   8.850
 5082POPC   GL225070  44.774  33.088   8.850
 5082POPC   C1A25071  44.647  32.992   8.550
 5082POPC   D2A25072  44.615  33.062   8.250
 5082POPC   C3A25073  44.670  33.033   7.950
 5082POPC   C4A25074  44.664  33.045   7.650
 5082POPC   C1B25075  44.782  33.218   8.550
 5082POPC   C2B25076  44.815  33.239   8.250
 5082POPC   C3B25077  44.795  33.249   7.950
 5082POPC   C4B25078  44.796  33.257   7.650
 5083POPC   NC325079  15.179  15.195   9.450
 5083POPC   PO425080  15.144  15.162   9.150
 5083POPC   GL125081  15.215  15.186   8.850
 5083POPC   GL225082  15.249  15.318   8.850
 5083POPC   C1A25083  15.184  15.181   8.550
 5083POPC   D2A25084  15.152  15.137   8.250
 5083POPC   C3A25085  15.132  15.227   7.950
 5083POPC   C4A25086  15.165  15.191   7.650
 5083POPC   C1B25087  15.291  15.385   8.550
 5083POPC   C2B25088  15.327  15.407   8.250
 5083POPC   C3B25089  15.316  15.428   7.950
 5083POPC   C4B25090  15.320  15.414   7.650
 5084POPC   NC325091   2.003  35.400   9.450
 5084POPC   PO425092   1.956  35.398   9.150
 5084POPC   GL125093   1.940  35.401   8.850
 5084POPC   GL225094   1.869  35.355   8.850
 5084POPC   C1A25095   1.988  35.357   8.550
 5084POPC   D2A25096   1.990  35.354   8.250
 5084POPC   C3A25097   2.016  35.313   7.950
 5084POPC   C4A25098   2.024  35.337   7.650
 5084POPC   C1B25099   1.777  35.412   8.550
 5084POPC   C2B25100   1.749  35.403   8.250
 5084POPC   C3B25101   1.744  35.437   7.950
 5084POPC   C4B25102   1.740  35.414   7.650
 5085POPC   NC325103  25.295   6.694   9.450
 5085POPC   PO425104  25.311   6.637   9.150
 5085POPC   GL125105  25.304   6.607   8.850
 5085POPC   GL225106  25.274   6.746   8.850
 5085POPC   C1A25107  25.259   6.603   8.550
 5085POPC   D2A25108  25.257   6.662   8.250
 5085POPC   C3A25109  25.227   6.642   7.950
 5085POPC   C4A25110  25.281   6.617   7.650
 5085POPC   C1B25111  25.291   6.859   8.550
 5085POPC   C2B25112  25.259   6.879   8.250
 5085POPC   C3B25113  25.289   6.847   7.950
 5085POPC   C4B25114  25.294   6.930   7.650
 5086POPC   NC325115  30.698   6.670   9.450
 5086POPC   PO425116  30.701   6.630   9.150
 5086POPC   GL125117  30.680   6.614   8.850
 5086POPC   GL225118  30.770   6.706   8.850
 5086POPC   C1A25119  30.668   6.684   8.550
 5086POPC   D2A25120  30.683   6.642   8.250
 5086POPC   C3A25121  30.738   6.638   7.950
 5086POPC   C4A25122  30.695   6.623   7.650
 5086POPC   C1B25123  30.829   6.787   8.550
 5086POPC   C2B25124  30.840   6.881   8.250
 5086POPC   C3B25125  30.810   6.790   7.950
 5086POPC   C4B25126  30.819   6.830   7.650
 5087POPC   NC325127  10.512   1.994   9.450
 5087POPC   PO425128  10.480   2.024   9.150
 5087POPC   GL125129  10.517   1.946   8.850
 5087POPC   GL225130  10.497   2.074   8.850
 5087POPC   C1A25131  10.567   2.003   8.550
 5087POPC   D2A25132  10.492   2.022   8.250
 5087POPC   C3A25133  10.572   2.017   7.950
 5087POPC   C4A25134  10.494   2.011   7.650
 5087POPC   C1B25135  10.525   2.207   8.550
 5087POPC   C2B25136  10.548   2.232   8.250
 5087POPC   C3B25137  10.474   2.224   7.950
 5087POPC   C4B25138  10.496   2.207   7.650
 5088POPC   NC325139  29.947   5.101   9.450
 5088POPC   PO425140  29.938   5.087   9.150
 5088POPC   GL125141  29.941   5.118   8.850
 5088POPC   GL225142  29.920   4.970   8.850
 5088POPC   C1A25143  29.932   5.139   8.550
 5088POPC   D2A25144  29.890   5.116   8.250
 5088POPC   C3A25145  29.942   5.121   7.950
 5088POPC   C4A25146  29.878   5.071   7.650
 5088POPC   C1B25147  29.953   4.820   8.550
 5088POPC   C2B25148  30.010   4.820   8.250
 5088POPC   C3B25149  29.976   4.843   7.950
 5088POPC   C4B25150  29.980   4.818   7.650
 5089POPC   NC325151  14.429   0.399   9.450
 5089POPC   PO425152  14.370   0.415   9.150
 5089POPC   GL125153  14.373   0.389   8.850
 5089POPC   GL225154  14.455   0.523   8.850
 5089POPC   C1A25155  14.362   0.459   8.550
 5089POPC   D2A25156  14.386   0.417   8.250
 5089POPC   C3A25157  14.369   0.454   7.950
 5089POPC   C4A25158  14.356   0.431   7.650
 5089POPC   C1B25159  14.521   0.668   8.550
 5089POPC   C2B25160  14.566   0.612   8.250
 5089POPC   C3B25161  14.595   0.643   7.950
 5089POPC   C4B25162  14.579   0.657   7.650
 5090POPC   NC325163  11.266  35.345   9.450
 5090POPC   PO425164  11.316  35.392   9.150
 5090POPC   GL125165  11.308  35.354   8.850
 5090POPC   GL225166  11.238  35.222   8.850
 5090POPC   C1A25167  11.348  35.321   8.550
 5090POPC   D2A25168  11.257  35.367   8.250
 5090POPC   C3A25169  11.333  35.383   7.950
 5090POPC   C4A25170  11.315  35.399   7.650
 5090POPC   C1B25171  11.265  35.082   8.550
 5090POPC   C2B25172  11.208  35.140   8.250
 5090POPC   C3B25173  11.279  35.091   7.950
 5090POPC   C4B25174  11.216  35.150   7.650
 5091POPC   NC325175  22.163  43.096   9.450
 5091POPC   PO425176  22.124  43.151   9.150
 5091POPC   GL125177  22.146  43.103   8.850
 5091POPC   GL225178  22.133  43.008   8.850
 5091POPC   C1A25179  22.206  43.150   8.550
 5091POPC   D2A25180  22.194  43.155   8.250
 5091POPC   C3A25181  22.131  43.107   7.950
 5091POPC   C4A25182  22.146  43.136   7.650
 5091POPC   C1B25183  22.086  42.864   8.550
 5091POPC   C2B25184  22.088  42.929   8.250
 5091POPC   C3B25185  22.007  42.912   7.950
 5091POPC   C4B25186  22.057  42.928   7.650
 5092POPC   NC325187   4.284  29.107   9.450
 5092POPC   PO425188   4.335  29.165   9.150
 5092POPC   GL125189   4.303  29.144   8.850
 5092POPC   GL225190   4.205  29.198   8.850
 5092POPC   C1A25191   4.356  29.112   8.550
 5092POPC   D2A25192   4.344  29.104   8.250
 5092POPC   C3A25193   4.365  29.135   7.950
 5092POPC   C4A25194   4.280  29.177   7.650
 5092POPC   C1B25195   4.044  29.229   8.550
 5092POPC   C2B25196   4.120  29.187   8.250
 5092POPC   C3B25197   4.101  29.250   7.950
 5092POPC   C4B25198   4.096  29.224   7.650
 5093POPC   NC325199  11.284  15.220   9.450
 5093POPC   PO425200  11.330  15.169   9.150
 5093POPC   GL125201  11.291  15.197   8.850
 5093POPC   GL225202  11.252  15.138   8.850
 5093POPC   C1A25203  11.285  15.161   8.550
 5093POPC   D2A25204  11.310  15.213   8.250
 5093POPC   C3A25205  11.281  15.220   7.950
 5093POPC   C4A25206  11.323  15.153   7.650
 5093POPC   C1B25207  11.097  15.058   8.550
 5093POPC   C2B25208  11.157  14.988   8.250
 5093POPC   C3B25209  11.133  15.032   7.950
 5093POPC   C4B25210  11.140  14.989   7.650
 5094POPC   NC325211  35.364  24.462   9.450
 5094POPC   PO425212  35.352  24.464   9.150
 5094POPC   GL125213  35.342  24.539   8.850
 5094POPC   GL225214  35.364  24.369   8.850
 5094POPC   C1A25215  35.390  24.498   8.550
 5094POPC   D2A25216  35.396  24.495   8.250
 5094POPC   C3A25217  35.355  24.479   7.950
 5094POPC   C4A25218  35.386  24.489   7.650
 5094POPC   C1B25219  35.323  24.226   8.550
 5094POPC   C2B25220  35.313  24.270   8.250
 5094POPC   C3B25221  35.321  24.221   7.950
 5094POPC   C4B25222  35.338  24.211   7.650
 5095POPC   NC325223  24.457  38.459   9.450
 5095POPC   PO425224  24.497  38.450   9.150
 5095POPC   GL125225  24.458  38.421   8.850
 5095POPC   GL225226  24.386  38.356   8.850
 5095POPC   C1A25227  24.498  38.440   8.550
 5095POPC   D2A25228  24.476  38.410   8.250
 5095POPC   C3A25229  24.477  38.440   7.950
 5095POPC   C4A25230  24.509  38.476   7.650
 5095POPC   C1B25231  24.282  38.385   8.550
 5095POPC   C2B25232  24.309  38.311   8.250
 5095POPC   C3B25233  24.309  38.389   7.950
 5095POPC   C4B25234  24.313  38.355   7.650
 5096POPC   NC325235   8.968  41.575   9.450
 5096POPC   PO425236   8.954  41.548   9.150
 5096POPC   GL125237   8.998  41.566   8.850
 5096POPC   GL225238   9.095  41.546   8.850
 5096POPC   C1A25239   9.003  41.570   8.550
 5096POPC   D2A25240   8.924  41.535   8.250
 5096POPC   C3A25241   8.931  41.599   7.950
 5096POPC   C4A25242   8.930  41.555   7.650
 5096POPC   C1B25243   9.217  41.521   8.550
 5096POPC   C2B25244   9.258  41.475   8.250
 5096POPC   C3B25245   9.218  41.469   7.950
 5096POPC   C4B25246   9.260  41.540   7.650
 5097POPC   NC325247  12.827  29.883   9.450
 5097POPC   PO425248  12.802  29.880   9.150
 5097POPC   GL125249  12.827  29.898   8.850
 5097POPC   GL225250  12.911  30.021   8.850
 5097POPC   C1A25251  12.853  29.881   8.550
 5097POPC   D2A25252  12.819  29.936   8.250
 5097POPC   C3A25253  12.852  29.875   7.950
 5097POPC   C4A25254  12.840  29.900   7.650
 5097POPC   C1B25255  12.976  30.064   8.550
 5097POPC   C2B25256  13.003  30.078   8.250
 5097POPC   C3B25257  12.989  30.108   7.950
 5097POPC   C4B25258  13.053  30.053   7.650
 5098POPC   NC325259  37.729   0.423   9.450
 5098POPC   PO425260  37.630   0.402   9.150
 5098POPC   GL125261  37.686   0.389   8.850
 5098POPC   GL225262  37.788   0.386   8.850
 5098POPC   C1A25263  37.637   0.417   8.550
 5098POPC   D2A25264  37.649   0.479   8.250
 5098POPC   C3A25265  37.685   0.462   7.950
 5098POPC   C4A25266  37.701   0.472   7.650
 5098POPC   C1B25267  37.915   0.466   8.550
 5098POPC   C2B25268  37.901   0.406   8.250
 5098POPC   C3B25269  37.961   0.451   7.950
 5098POPC   C4B25270  37.953   0.445   7.650
 5099POPC   NC325271  20.625  36.095   9.450
 5099POPC   PO425272  20.617  36.100   9.150
 5099POPC   GL125273  20.572  36.088   8.850
 5099POPC   GL225274  20.695  36.190   8.850
 5099POPC   C1A25275  20.614  36.110   8.550
 5099POPC   D2A25276  20.592  36.149   8.250
 5099POPC   C3A25277  20.590  36.126   7.950
 5099POPC   C4A25278  20.589  36.119   7.650
 5099POPC   C1B25279  20.877  36.148   8.550
 5099POPC   C2B25280  20.870  36.124   8.250
 5099POPC   C3B25281  20.885  36.140   7.950
 5099POPC   C4B25282  20.852  36.152   7.650
 5100POPC   NC325283   4.339   2.728   9.450
 5100POPC   PO425284   4.337   2.766   9.150
 5100POPC   GL125285   4.323   2.766   8.850
 5100POPC   GL225286   4.394   2.642   8.850
 5100POPC   C1A25287   4.341   2.743   8.550
 5100POPC   D2A25288   4.302   2.791   8.250
 5100POPC   C3A25289   4.270   2.724   7.950
 5100POPC   C4A25290   4.361   2.785   7.650
 5100POPC   C1B25291   4.396   2.521   8.550
 5100POPC   C2B25292   4.454   2.552   8.250
 5100POPC   C3B25293   4.444   2.525   7.950
 5100POPC   C4B25294   4.452   2.529   7.650
 5101POPC   NC325295   5.831  36.099   9.450
 5101POPC   PO425296   5.892  36.160   9.150
 5101POPC   GL125297   5.821  36.174   8.850
 5101POPC   GL225298   5.766  36.152   8.850
 5101POPC   C1A25299   5.830  36.107   8.550
 5101POPC   D2A25300   5.908  36.109   8.250
 5101POPC   C3A25301   5.842  36.115   7.950
 5101POPC   C4A25302   5.904  36.165   7.650
 5101POPC   C1B25303   5.610  36.294   8.550
 5101POPC   C2B25304   5.627  36.292   8.250
 5101POPC   C3B25305   5.627  36.224   7.950
 5101POPC   C4B25306   5.614  36.252   7.650
 5102POPC   NC325307   1.197  42.312   9.450
 5102POPC   PO425308   1.201  42.350   9.150
 5102POPC   GL125309   1.232  42.366   8.850
 5102POPC   GL225310   1.340  42.334   8.850
 5102POPC   C1A25311   1.235  42.314   8.550
 5102POPC   D2A25312   1.166  42.297   8.250
 5102POPC   C3A25313   1.179  42.341   7.950
 5102POPC   C4A25314   1.193  42.381   7.650
 5102POPC   C1B25315   1.485  42.255   8.550
 5102POPC   C2B25316   1.415  42.274   8.250
 5102POPC   C3B25317   1.503  42.312   7.950
 5102POPC   C4B25318   1.487  42.239   7.650
 5103POPC   NC325319  44.633  10.567   9.450
 5103POPC   PO425320  44.649  10.500   9.150
 5103POPC   GL125321  44.653  10.566   8.850
 5103POPC   GL225322  44.690  10.382   8.850
 5103POPC   C1A25323  44.657  10.489   8.550
 5103POPC   D2A25324  44.686  10.565   8.250
 5103POPC   C3A25325  44.709  10.552   7.950
 5103POPC   C4A25326  44.675  10.510   7.650
 5103POPC   C1B25327  44.782  10.313   8.550
 5103POPC   C2B25328  44.766  10.318   8.250
 5103POPC   C3B25329  44.781  10.307   7.950
 5103POPC   C4B25330  44.804  10.293   7.650
 5104POPC   NC325331   1.236  40.811   9.450
 5104POPC   PO425332   1.197  40.823   9.150
 5104POPC   GL125333   1.264  40.790   8.850
 5104POPC   GL225334   1.375  40.724   8.850
 5104POPC   C1A25335   1.200  40.776   8.550
 5104POPC   D2A25336   1.225  40.828   8.250
 5104POPC   C3A25337   1.184  40.809   7.950
 5104POPC   C4A25338   1.246  40.807   7.650
 5104POPC   C1B25339   1.451  40.747   8.550
 5104POPC   C2B25340   1.459  40.763   8.250
 5104POPC   C3B25341   1.476  40.750   7.950
 5104POPC   C4B25342   1.430  40.726   7.650
 5105POPC   NC325343   3.549  35.396   9.450
 5105POPC   PO425344   3.559  35.401   9.150
 5105POPC   GL125345   3.499  35.313   8.850
 5105POPC   GL225346   3.409  35.301   8.850
 5105POPC   C1A25347   3.511  35.359   8.550
 5105POPC   D2A25348   3.507  35.382   8.250
 5105POPC   C3A25349   3.568  35.347   7.950
 5105POPC   C4A25350   3.497  35.342   7.650
 5105POPC   C1B25351   3.289  35.283   8.550
 5105POPC   C2B25352   3.331  35.271   8.250
 5105POPC   C3B25353   3.249  35.336   7.950
 5105POPC   C4B25354   3.284  35.350   7.650
 5106POPC   NC325355   2.752  25.307   9.450
 5106POPC   PO425356   2.753  25.238   9.150
 5106POPC   GL125357   2.748  25.228   8.850
 5106POPC   GL225358   2.693  25.162   8.850
 5106POPC   C1A25359   2.793  25.290   8.550
 5106POPC   D2A25360   2.733  25.301   8.250
 5106POPC   C3A25361   2.807  25.255   7.950
 5106POPC   C4A25362   2.716  25.293   7.650
 5106POPC   C1B25363   2.733  25.012   8.550
 5106POPC   C2B25364   2.696  25.037   8.250
 5106POPC   C3B25365   2.722  25.017   7.950
 5106POPC   C4B25366   2.729  25.058   7.650
 5107POPC   NC325367  11.294   6.648   9.450
 5107POPC   PO425368  11.342   6.638   9.150
 5107POPC   GL125369  11.328   6.665   8.850
 5107POPC   GL225370  11.251   6.746   8.850
 5107POPC   C1A25371  11.281   6.658   8.550
 5107POPC   D2A25372  11.309   6.611   8.250
 5107POPC   C3A25373  11.347   6.680   7.950
 5107POPC   C4A25374  11.282   6.611   7.650
 5107POPC   C1B25375  11.180   6.866   8.550
 5107POPC   C2B25376  11.104   6.842   8.250
 5107POPC   C3B25377  11.119   6.819   7.950
 5107POPC   C4B25378  11.173   6.811   7.650
 5108POPC   NC325379   8.967  42.348   9.450
 5108POPC   PO425380   8.963  42.299   9.150
 5108POPC   GL125381   9.013  42.303   8.850
 5108POPC   GL225382   8.865  42.317   8.850
 5108POPC   C1A25383   8.948  42.370   8.550
 5108POPC   D2A25384   8.962  42.295   8.250
 5108POPC   C3A25385   9.015  42.286   7.950
 5108POPC   C4A25386   8.932  42.335   7.650
 5108POPC   C1B25387   8.681  42.330   8.550
 5108POPC   C2B25388   8.708  42.300   8.250
 5108POPC   C3B25389   8.685  42.327   7.950
 5108POPC   C4B25390   8.733  42.322   7.650
 5109POPC   NC325391  29.930  14.371   9.450
 5109POPC   PO425392  29.968  14.437   9.150
 5109POPC   GL125393  29.886  14.376   8.850
 5109POPC   GL225394  29.928  14.293   8.850
 5109POPC   C1A25395  29.927  14.418   8.550
 5109POPC   D2A25396  29.931  14.383   8.250
 5109POPC   C3A25397  29.939  14.379   7.950
 5109POPC   C4A25398  29.884  14.446   7.650
 5109POPC   C1B25399  29.948  14.141   8.550
 5109POPC   C2B25400  29.971  14.168   8.250
 5109POPC   C3B25401  29.976  14.188   7.950
 5109POPC   C4B25402  29.966  14.113   7.650
 5110POPC   NC325403   6.669  26.807   9.450
 5110POPC   PO425404   6.662  26.857   9.150
 5110POPC   GL125405   6.685  26.789   8.850
 5110POPC   GL225406   6.571  26.774   8.850
 5110POPC   C1A25407   6.684  26.808   8.550
 5110POPC   D2A25408   6.597  26.859   8.250
 5110POPC   C3A25409   6.621  26.816   7.950
 5110POPC   C4A25410   6.678  26.840   7.650
 5110POPC   C1B25411   6.374  26.749   8.550
 5110POPC   C2B25412   6.428  26.692   8.250
 5110POPC   C3B25413   6.458  26.668   7.950
 5110POPC   C4B25414   6.447  26.731   7.650
 5111POPC   NC325415  23.715  31.498   9.450
 5111POPC   PO425416  23.761  31.469   9.150
 5111POPC   GL125417  23.692  31.499   8.850
 5111POPC   GL225418  23.806  31.415   8.850
 5111POPC   C1A25419  23.718  31.426   8.550
 5111POPC   D2A25420  23.687  31.457   8.250
 5111POPC   C3A25421  23.746  31.475   7.950
 5111POPC   C4A25422  23.752  31.505   7.650
 5111POPC   C1B25423  23.918  31.283   8.550
 5111POPC   C2B25424  23.889  31.276   8.250
 5111POPC   C3B25425  23.896  31.317   7.950
 5111POPC   C4B25426  23.887  31.296   7.650
 5112POPC   NC325427   6.612   8.970   9.450
 5112POPC   PO425428   6.694   9.010   9.150
 5112POPC   GL125429   6.669   8.957   8.850
 5112POPC   GL225430   6.729   9.031   8.850
 5112POPC   C1A25431   6.617   8.933   8.550
 5112POPC   D2A25432   6.680   8.991   8.250
 5112POPC   C3A25433   6.652   8.959   7.950
 5112POPC   C4A25434   6.641   8.975   7.650
 5112POPC   C1B25435   6.909   8.994   8.550
 5112POPC   C2B25436   6.849   9.036   8.250
 5112POPC   C3B25437   6.918   9.022   7.950
 5112POPC   C4B25438   6.894   9.001   7.650
 5113POPC   NC325439  17.527  43.116   9.450
 5113POPC   PO425440  17.470  43.117   9.150
 5113POPC   GL125441  17.462  43.149   8.850
 5113POPC   GL225442  17.457  42.993   8.850
 5113POPC   C1A25443  17.501  43.105   8.550
 5113POPC   D2A25444  17.489  43.136   8.250
 5113POPC   C3A25445  17.483  43.091   7.950
 5113POPC   C4A25446  17.484  43.068   7.650
 5113POPC   C1B25447  17.344  42.902   8.550
 5113POPC   C2B25448  17.342  42.972   8.250
 5113POPC   C3B25449  17.339  42.901   7.950
 5113POPC   C4B25450  17.328  42.935   7.650
 5114POPC   NC325451  32.274   3.553   9.450
 5114POPC   PO425452  32.206   3.564   9.150
 5114POPC   GL125453  32.229   3.492   8.850
 5114POPC   GL225454  32.191   3.679   8.850
 5114POPC   C1A25455  32.255   3.501   8.550
 5114POPC   D2A25456  32.283   3.586   8.250
 5114POPC   C3A25457  32.224   3.494   7.950
 5114POPC   C4A25458  32.250   3.552   7.650
 5114POPC   C1B25459  32.143   3.723   8.550
 5114POPC   C2B25460  32.148   3.763   8.250
 5114POPC   C3B25461  32.103   3.758   7.950
 5114POPC   C4B25462  32.130   3.757   7.650
 5115POPC   NC325463  40.827  33.800   9.450
 5115POPC   PO425464  40.829  33.769   9.150
 5115POPC   GL125465  40.782  33.769   8.850
 5115POPC   GL225466  40.769  33.953   8.850
 5115POPC   C1A25467  40.737  33.810   8.550
 5115POPC   D2A25468  40.811  33.758   8.250
 5115POPC   C3A25469  40.803  33.802   7.950
 5115POPC   C4A25470  40.799  33.767   7.650
 5115POPC   C1B25471  40.801  34.002   8.550
 5115POPC   C2B25472  40.779  34.036   8.250
 5115POPC   C3B25473  40.747  34.074   7.950
 5115POPC   C4B25474  40.764  34.030   7.650
 5116POPC   NC325475  36.115   7.459   9.450
 5116POPC   PO425476  36.095   7.451   9.150
 5116POPC   GL125477  36.174   7.380   8.850
 5116POPC   GL225478  36.034   7.369   8.850
 5116POPC   C1A25479  36.142   7.464   8.550
 5116POPC   D2A25480  36.142   7.392   8.250
 5116POPC   C3A25481  36.085   7.449   7.950
 5116POPC   C4A25482  36.080   7.461   7.650
 5116POPC   C1B25483  35.889   7.323   8.550
 5116POPC   C2B25484  35.904   7.377   8.250
 5116POPC   C3B25485  35.857   7.353   7.950
 5116POPC   C4B25486  35.875   7.332   7.650
 5117POPC   NC325487  41.553   5.110   9.450
 5117POPC   PO425488  41.586   5.075   9.150
 5117POPC   GL125489  41.568   5.083   8.850
 5117POPC   GL225490  41.586   5.018   8.850
 5117POPC   C1A25491  41.509   5.055   8.550
 5117POPC   D2A25492  41.517   5.045   8.250
 5117POPC   C3A25493  41.570   5.109   7.950
 5117POPC   C4A25494  41.538   5.077   7.650
 5117POPC   C1B25495  41.571   4.821   8.550
 5117POPC   C2B25496  41.611   4.860   8.250
 5117POPC   C3B25497  41.612   4.862   7.950
 5117POPC   C4B25498  41.595   4.890   7.650
 5118POPC   NC325499  19.785  26.007   9.450
 5118POPC   PO425500  19.846  26.003   9.150
 5118POPC   GL125501  19.791  26.058   8.850
 5118POPC   GL225502  19.918  25.912   8.850
 5118POPC   C1A25503  19.818  26.035   8.550
 5118POPC   D2A25504  19.862  26.075   8.250
 5118POPC   C3A25505  19.808  26.052   7.950
 5118POPC   C4A25506  19.830  26.010   7.650
 5118POPC   C1B25507  20.039  25.830   8.550
 5118POPC   C2B25508  20.035  25.807   8.250
 5118POPC   C3B25509  20.006  25.876   7.950
 5118POPC   C4B25510  20.019  25.835   7.650
 5119POPC   NC325511  33.074  15.999   9.450
 5119POPC   PO425512  33.035  15.959   9.150
 5119POPC   GL125513  33.049  15.969   8.850
 5119POPC   GL225514  32.911  15.920   8.850
 5119POPC   C1A25515  33.040  15.991   8.550
 5119POPC   D2A25516  33.068  15.981   8.250
 5119POPC   C3A25517  33.059  15.960   7.950
 5119POPC   C4A25518  33.043  15.929   7.650
 5119POPC   C1B25519  32.745  15.936   8.550
 5119POPC   C2B25520  32.727  15.969   8.250
 5119POPC   C3B25521  32.769  15.955   7.950
 5119POPC   C4B25522  32.786  15.968   7.650
 5120POPC   NC325523   5.137  42.306   9.450
 5120POPC   PO425524   5.124  42.345   9.150
 5120POPC   GL125525   5.094  42.293   8.850
 5120POPC   GL225526   5.085  42.206   8.850
 5120POPC   C1A25527   5.055  42.340   8.550
 5120POPC   D2A25528   5.119  42.329   8.250
 5120POPC   C3A25529   5.055  42.373   7.950
 5120POPC   C4A25530   5.111  42.361   7.650
 5120POPC   C1B25531   5.005  42.044   8.550
 5120POPC   C2B25532   5.014  42.118   8.250
 5120POPC   C3B25533   5.030  42.105   7.950
 5120POPC   C4B25534   5.068  42.057   7.650
 5121POPC   NC325535  19.012  37.685   9.450
 5121POPC   PO425536  19.088  37.728   9.150
 5121POPC   GL125537  19.104  37.664   8.850
 5121POPC   GL225538  18.996  37.616   8.850
 5121POPC   C1A25539  19.066  37.672   8.550
 5121POPC   D2A25540  19.097  37.656   8.250
 5121POPC   C3A25541  19.103  37.713   7.950
 5121POPC   C4A25542  19.094  37.728   7.650
 5121POPC   C1B25543  18.933  37.466   8.550
 5121POPC   C2B25544  18.872  37.525   8.250
 5121POPC   C3B25545  18.882  37.451   7.950
 5121POPC   C4B25546  18.912  37.493   7.650
 5122POPC   NC325547  21.392  29.124   9.450
 5122POPC   PO425548  21.365  29.138   9.150
 5122POPC   GL125549  21.412  29.181   8.850
 5122POPC   GL225550  21.427  29.243   8.850
 5122POPC   C1A25551  21.389  29.127   8.550
 5122POPC   D2A25552  21.342  29.118   8.250
 5122POPC   C3A25553  21.365  29.125   7.950
 5122POPC   C4A25554  21.374  29.107   7.650
 5122POPC   C1B25555  21.421  29.357   8.550
 5122POPC   C2B25556  21.435  29.349   8.250
 5122POPC   C3B25557  21.365  29.429   7.950
 5122POPC   C4B25558  21.387  29.405   7.650
 5123POPC   NC325559  13.642  43.927   9.450
 5123POPC   PO425560  13.609  43.837   9.150
 5123POPC   GL125561  13.661  43.929   8.850
 5123POPC   GL225562  13.524  43.981   8.850
 5123POPC   C1A25563  13.600  43.896   8.550
 5123POPC   D2A25564  13.670  43.906   8.250
 5123POPC   C3A25565  13.608  43.871   7.950
 5123POPC   C4A25566  13.606  43.838   7.650
 5123POPC   C1B25567  13.442  44.073   8.550
 5123POPC   C2B25568  13.464  44.112   8.250
 5123POPC   C3B25569  13.500  44.128   7.950
 5123POPC   C4B25570  13.434  44.133   7.650
 5124POPC   NC325571   8.199   5.060   9.450
 5124POPC   PO425572   8.223   5.107   9.150
 5124POPC   GL125573   8.180   5.074   8.850
 5124POPC   GL225574   8.267   5.188   8.850
 5124POPC   C1A25575   8.160   5.049   8.550
 5124POPC   D2A25576   8.182   5.066   8.250
 5124POPC   C3A25577   8.227   5.115   7.950
 5124POPC   C4A25578   8.221   5.084   7.650
 5124POPC   C1B25579   8.386   5.290   8.550
 5124POPC   C2B25580   8.430   5.300   8.250
 5124POPC   C3B25581   8.428   5.300   7.950
 5124POPC   C4B25582   8.341   5.253   7.650
 5125POPC   NC325583   7.464  26.008   9.450
 5125POPC   PO425584   7.458  26.050   9.150
 5125POPC   GL125585   7.392  26.056   8.850
 5125POPC   GL225586   7.537  26.036   8.850
 5125POPC   C1A25587   7.405  26.031   8.550
 5125POPC   D2A25588   7.442  26.022   8.250
 5125POPC   C3A25589   7.440  25.992   7.950
 5125POPC   C4A25590   7.374  26.043   7.650
 5125POPC   C1B25591   7.683  26.116   8.550
 5125POPC   C2B25592   7.686  26.079   8.250
 5125POPC   C3B25593   7.634  26.104   7.950
 5125POPC   C4B25594   7.655  26.067   7.650
 5126POPC   NC325595   7.439  19.872   9.450
 5126POPC   PO425596   7.456  19.866   9.150
 5126POPC   GL125597   7.427  19.818   8.850
 5126POPC   GL225598   7.280  19.920   8.850
 5126POPC   C1A25599   7.380  19.846   8.550
 5126POPC   D2A25600   7.423  19.855   8.250
 5126POPC   C3A25601   7.450  19.881   7.950
 5126POPC   C4A25602   7.441  19.805   7.650
 5126POPC   C1B25603   7.185  19.975   8.550
 5126POPC   C2B25604   7.251  20.038   8.250
 5126POPC   C3B25605   7.253  20.036   7.950
 5126POPC   C4B25606   7.246  20.019   7.650
 5127POPC   NC325607  11.336  36.860   9.450
 5127POPC   PO425608  11.333  36.934   9.150
 5127POPC   GL125609  11.275  36.949   8.850
 5127POPC   GL225610  11.399  36.785   8.850
 5127POPC   C1A25611  11.305  36.919   8.550
 5127POPC   D2A25612  11.329  36.950   8.250
 5127POPC   C3A25613  11.316  36.865   7.950
 5127POPC   C4A25614  11.253  36.877   7.650
 5127POPC   C1B25615  11.464  36.699   8.550
 5127POPC   C2B25616  11.436  36.753   8.250
 5127POPC   C3B25617  11.441  36.684   7.950
 5127POPC   C4B25618  11.458  36.734   7.650
 5128POPC   NC325619  30.694  26.854   9.450
 5128POPC   PO425620  30.689  26.838   9.150
 5128POPC   GL125621  30.654  26.830   8.850
 5128POPC   GL225622  30.813  26.905   8.850
 5128POPC   C1A25623  30.664  26.847   8.550
 5128POPC   D2A25624  30.657  26.803   8.250
 5128POPC   C3A25625  30.721  26.860   7.950
 5128POPC   C4A25626  30.653  26.860   7.650
 5128POPC   C1B25627  30.948  26.899   8.550
 5128POPC   C2B25628  30.928  26.961   8.250
 5128POPC   C3B25629  30.924  26.949   7.950
 5128POPC   C4B25630  30.866  26.912   7.650
 5129POPC   NC325631  12.037   2.023   9.450
 5129POPC   PO425632  12.105   1.981   9.150
 5129POPC   GL125633  12.099   1.955   8.850
 5129POPC   GL225634  11.995   2.005   8.850
 5129POPC   C1A25635  12.053   2.020   8.550
 5129POPC   D2A25636  12.064   2.014   8.250
 5129POPC   C3A25637  12.082   1.956   7.950
 5129POPC   C4A25638  12.056   1.991   7.650
 5129POPC   C1B25639  11.789   1.973   8.550
 5129POPC   C2B25640  11.803   1.884   8.250
 5129POPC   C3B25641  11.875   1.974   7.950
 5129POPC   C4B25642  11.814   1.980   7.650
 5130POPC   NC325643   5.864  26.082   9.450
 5130POPC   PO425644   5.878  26.004   9.150
 5130POPC   GL125645   5.917  26.044   8.850
 5130POPC   GL225646   5.751  25.955   8.850
 5130POPC   C1A25647   5.822  26.070   8.550
 5130POPC   D2A25648   5.828  26.072   8.250
 5130POPC   C3A25649   5.833  26.058   7.950
 5130POPC   C4A25650   5.885  26.052   7.650
 5130POPC   C1B25651   5.638  25.931   8.550
 5130POPC   C2B25652   5.669  25.994   8.250
 5130POPC   C3B25653   5.621  25.992   7.950
 5130POPC   C4B25654   5.670  25.925   7.650
 5131POPC   NC325655   4.293  26.867   9.450
 5131POPC   PO425656   4.349  26.822   9.150
 5131POPC   GL125657   4.354  26.805   8.850
 5131POPC   GL225658   4.288  26.913   8.850
 5131POPC   C1A25659   4.302  26.801   8.550
 5131POPC   D2A25660   4.287  26.853   8.250
 5131POPC   C3A25661   4.292  26.774   7.950
 5131POPC   C4A25662   4.306  26.791   7.650
 5131POPC   C1B25663   4.276  27.098   8.550
 5131POPC   C2B25664   4.231  27.104   8.250
 5131POPC   C3B25665   4.207  27.076   7.950
 5131POPC   C4B25666   4.269  27.024   7.650
 5132POPC   NC325667  43.839  22.170   9.450
 5132POPC   PO425668  43.931  22.128   9.150
 5132POPC   GL125669  43.933  22.153   8.850
 5132POPC   GL225670  43.736  22.242   8.850
 5132POPC   C1A25671  43.838  22.209   8.550
 5132POPC   D2A25672  43.870  22.182   8.250
 5132POPC   C3A25673  43.859  22.189   7.950
 5132POPC   C4A25674  43.912  22.180   7.650
 5132POPC   C1B25675  43.684  22.260   8.550
 5132POPC   C2B25676  43.659  22.191   8.250
 5132POPC   C3B25677  43.652  22.215   7.950
 5132POPC   C4B25678  43.601  22.212   7.650
 5133POPC   NC325679  15.995   5.095   9.450
 5133POPC   PO425680  15.911   5.107   9.150
 5133POPC   GL125681  15.927   5.055   8.850
 5133POPC   GL225682  15.821   5.143   8.850
 5133POPC   C1A25683  15.969   5.081   8.550
 5133POPC   D2A25684  15.969   5.116   8.250
 5133POPC   C3A25685  16.004   5.090   7.950
 5133POPC   C4A25686  15.926   5.083   7.650
 5133POPC   C1B25687  15.755   5.157   8.550
 5133POPC   C2B25688  15.661   5.160   8.250
 5133POPC   C3B25689  15.690   5.171   7.950
 5133POPC   C4B25690  15.665   5.134   7.650
 5134POPC   NC325691   7.402   2.724   9.450
 5134POPC   PO425692   7.386   2.745   9.150
 5134POPC   GL125693   7.406   2.730   8.850
 5134POPC   GL225694   7.519   2.652   8.850
 5134POPC   C1A25695   7.455   2.784   8.550
 5134POPC   D2A25696   7.397   2.806   8.250
 5134POPC   C3A25697   7.383   2.724   7.950
 5134POPC   C4A25698   7.457   2.802   7.650
 5134POPC   C1B25699   7.567   2.603   8.550
 5134POPC   C2B25700   7.570   2.536   8.250
 5134POPC   C3B25701   7.535   2.564   7.950
 5134POPC   C4B25702   7.567   2.551   7.650
 5135POPC   NC325703  21.377  31.469   9.450
 5135POPC   PO425704  21.368  31.431   9.150
 5135POPC   GL125705  21.356  31.427   8.850
 5135POPC   GL225706  21.305  31.352   8.850
 5135POPC   C1A25707  21.349  31.447   8.550
 5135POPC   D2A25708  21.379  31.444   8.250
 5135POPC   C3A25709  21.396  31.471   7.950
 5135POPC   C4A25710  21.377  31.453   7.650
 5135POPC   C1B25711  21.201  31.334   8.550
 5135POPC   C2B25712  21.175  31.281   8.250
 5135POPC   C3B25713  21.232  31.338   7.950
 5135POPC   C4B25714  21.146  31.281   7.650
 5136POPC   NC325715  42.312  38.474   9.450
 5136POPC   PO425716  42.300  38.447   9.150
 5136POPC   GL125717  42.299  38.456   8.850
 5136POPC   GL225718  42.472  38.495   8.850
 5136POPC   C1A25719  42.311  38.434   8.550
 5136POPC   D2A25720  42.380  38.482   8.250
 5136POPC   C3A25721  42.299  38.449   7.950
 5136POPC   C4A25722  42.372  38.412   7.650
 5136POPC   C1B25723  42.522  38.595   8.550
 5136POPC   C2B25724  42.530  38.587   8.250
 5136POPC   C3B25725  42.551  38.565   7.950
 5136POPC   C4B25726  42.542  38.611   7.650
 5137POPC   NC325727  36.162  37.680   9.450
 5137POPC   PO425728  36.084  37.637   9.150
 5137POPC   GL125729  36.096  37.655   8.850
 5137POPC   GL225730  36.247  37.780   8.850
 5137POPC   C1A25731  36.097  37.690   8.550
 5137POPC   D2A25732  36.168  37.631   8.250
 5137POPC   C3A25733  36.122  37.649   7.950
 5137POPC   C4A25734  36.088  37.645   7.650
 5137POPC   C1B25735  36.261  37.866   8.550
 5137POPC   C2B25736  36.278  37.854   8.250
 5137POPC   C3B25737  36.301  37.896   7.950
 5137POPC   C4B25738  36.318  37.894   7.650
 5138POPC   NC325739  33.001  17.553   9.450
 5138POPC   PO425740  33.000  17.462   9.150
 5138POPC   GL125741  33.032  17.471   8.850
 5138POPC   GL225742  32.977  17.657   8.850
 5138POPC   C1A25743  32.992  17.485   8.550
 5138POPC   D2A25744  33.071  17.475   8.250
 5138POPC   C3A25745  33.007  17.487   7.950
 5138POPC   C4A25746  32.991  17.480   7.650
 5138POPC   C1B25747  32.959  17.751   8.550
 5138POPC   C2B25748  32.925  17.718   8.250
 5138POPC   C3B25749  32.921  17.727   7.950
 5138POPC   C4B25750  32.920  17.687   7.650
 5139POPC   NC325751  13.663  10.510   9.450
 5139POPC   PO425752  13.635  10.551   9.150
 5139POPC   GL125753  13.633  10.507   8.850
 5139POPC   GL225754  13.593  10.654   8.850
 5139POPC   C1A25755  13.589  10.518   8.550
 5139POPC   D2A25756  13.584  10.529   8.250
 5139POPC   C3A25757  13.625  10.508   7.950
 5139POPC   C4A25758  13.582  10.550   7.650
 5139POPC   C1B25759  13.541  10.779   8.550
 5139POPC   C2B25760  13.496  10.740   8.250
 5139POPC   C3B25761  13.547  10.772   7.950
 5139POPC   C4B25762  13.511  10.739   7.650
 5140POPC   NC325763  31.499  31.508   9.450
 5140POPC   PO425764  31.500  31.493   9.150
 5140POPC   GL125765  31.425  31.430   8.850
 5140POPC   GL225766  31.427  31.396   8.850
 5140POPC   C1A25767  31.465  31.469   8.550
 5140POPC   D2A25768  31.446  31.458   8.250
 5140POPC   C3A25769  31.493  31.454   7.950
 5140POPC   C4A25770  31.500  31.486   7.650
 5140POPC   C1B25771  31.335  31.279   8.550
 5140POPC   C2B25772  31.262  31.324   8.250
 5140POPC   C3B25773  31.299  31.289   7.950
 5140POPC   C4B25774  31.278  31.314   7.650
 5141POPC   NC325775  39.963  25.227   9.450
 5141POPC   PO425776  39.969  25.251   9.150
 5141POPC   GL125777  39.969  25.282   8.850
 5141POPC   GL225778  40.091  25.397   8.850
 5141POPC   C1A25779  39.975  25.222   8.550
 5141POPC   D2A25780  39.965  25.225   8.250
 5141POPC   C3A25781  40.038  25.276   7.950
 5141POPC   C4A25782  39.989  25.223   7.650
 5141POPC   C1B25783  40.144  25.493   8.550
 5141POPC   C2B25784  40.078  25.507   8.250
 5141POPC   C3B25785  40.069  25.467   7.950
 5141POPC   C4B25786  40.086  25.512   7.650
 5142POPC   NC325787  36.163  35.312   9.450
 5142POPC   PO425788  36.100  35.371   9.150
 5142POPC   GL125789  36.164  35.330   8.850
 5142POPC   GL225790  36.218  35.416   8.850
 5142POPC   C1A25791  36.118  35.393   8.550
 5142POPC   D2A25792  36.120  35.384   8.250
 5142POPC   C3A25793  36.142  35.371   7.950
 5142POPC   C4A25794  36.177  35.317   7.650
 5142POPC   C1B25795  36.297  35.547   8.550
 5142POPC   C2B25796  36.311  35.505   8.250
 5142POPC   C3B25797  36.348  35.506   7.950
 5142POPC   C4B25798  36.353  35.562   7.650
 5143POPC   NC325799   5.841   5.890   9.450
 5143POPC   PO425800   5.860   5.869   9.150
 5143POPC   GL125801   5.844   5.888   8.850
 5143POPC   GL225802   6.031   5.786   8.850
 5143POPC   C1A25803   5.850   5.827   8.550
 5143POPC   D2A25804   5.918   5.869   8.250
 5143POPC   C3A25805   5.873   5.914   7.950
 5143POPC   C4A25806   5.888   5.873   7.650
 5143POPC   C1B25807   6.061   5.771   8.550
 5143POPC   C2B25808   6.128   5.757   8.250
 5143POPC   C3B25809   6.096   5.771   7.950
 5143POPC   C4B25810   6.051   5.772   7.650
 5144POPC   NC325811  30.681   8.952   9.450
 5144POPC   PO425812  30.729   8.990   9.150
 5144POPC   GL125813  30.660   8.956   8.850
 5144POPC   GL225814  30.598   9.128   8.850
 5144POPC   C1A25815  30.733   9.008   8.550
 5144POPC   D2A25816  30.741   8.995   8.250
 5144POPC   C3A25817  30.653   8.930   7.950
 5144POPC   C4A25818  30.689   9.020   7.650
 5144POPC   C1B25819  30.626   9.237   8.550
 5144POPC   C2B25820  30.604   9.154   8.250
 5144POPC   C3B25821  30.599   9.216   7.950
 5144POPC   C4B25822  30.622   9.224   7.650
 5145POPC   NC325823  28.380   5.109   9.450
 5145POPC   PO425824  28.388   5.090   9.150
 5145POPC   GL125825  28.404   5.135   8.850
 5145POPC   GL225826  28.504   5.013   8.850
 5145POPC   C1A25827  28.385   5.059   8.550
 5145POPC   D2A25828  28.351   5.077   8.250
 5145POPC   C3A25829  28.375   5.076   7.950
 5145POPC   C4A25830  28.351   5.077   7.650
 5145POPC   C1B25831  28.539   4.889   8.550
 5145POPC   C2B25832  28.526   4.906   8.250
 5145POPC   C3B25833  28.606   4.936   7.950
 5145POPC   C4B25834  28.537   4.970   7.650
 5146POPC   NC325835  40.031  24.453   9.450
 5146POPC   PO425836  39.962  24.455   9.150
 5146POPC   GL125837  40.056  24.471   8.850
 5146POPC   GL225838  39.900  24.454   8.850
 5146POPC   C1A25839  40.014  24.472   8.550
 5146POPC   D2A25840  40.009  24.491   8.250
 5146POPC   C3A25841  40.005  24.475   7.950
 5146POPC   C4A25842  39.967  24.453   7.650
 5146POPC   C1B25843  39.723  24.470   8.550
 5146POPC   C2B25844  39.749  24.533   8.250
 5146POPC   C3B25845  39.743  24.512   7.950
 5146POPC   C4B25846  39.796  24.501   7.650
 5147POPC   NC325847  37.685  14.445   9.450
 5147POPC   PO425848  37.707  14.393   9.150
 5147POPC   GL125849  37.652  14.446   8.850
 5147POPC   GL225850  37.702  14.234   8.850
 5147POPC   C1A25851  37.688  14.391   8.550
 5147POPC   D2A25852  37.659  14.362   8.250
 5147POPC   C3A25853  37.712  14.400   7.950
 5147POPC   C4A25854  37.687  14.422   7.650
 5147POPC   C1B25855  37.718  14.116   8.550
 5147POPC   C2B25856  37.791  14.151   8.250
 5147POPC   C3B25857  37.702  14.187   7.950
 5147POPC   C4B25858  37.739  14.131   7.650
 5148POPC   NC325859  42.326  23.727   9.450
 5148POPC   PO425860  42.319  23.690   9.150
 5148POPC   GL125861  42.363  23.733   8.850
 5148POPC   GL225862  42.396  23.829   8.850
 5148POPC   C1A25863  42.340  23.745   8.550
 5148POPC   D2A25864  42.332  23.727   8.250
 5148POPC   C3A25865  42.300  23.723   7.950
 5148POPC   C4A25866  42.304  23.757   7.650
 5148POPC   C1B25867  42.395  23.976   8.550
 5148POPC   C2B25868  42.443  23.929   8.250
 5148POPC   C3B25869  42.426  23.963   7.950
 5148POPC   C4B25870  42.424  23.986   7.650
 5149POPC   NC325871   5.097  32.232   9.450
 5149POPC   PO425872   5.123  32.287   9.150
 5149POPC   GL125873   5.091  32.237   8.850
 5149POPC   GL225874   5.229  32.235   8.850
 5149POPC   C1A25875   5.105  32.289   8.550
 5149POPC   D2A25876   5.048  32.231   8.250
 5149POPC   C3A25877   5.136  32.293   7.950
 5149POPC   C4A25878   5.128  32.231   7.650
 5149POPC   C1B25879   5.320  32.204   8.550
 5149POPC   C2B25880   5.322  32.220   8.250
 5149POPC   C3B25881   5.353  32.248   7.950
 5149POPC   C4B25882   5.350  32.191   7.650
 5150POPC   NC325883  11.310  14.441   9.450
 5150POPC   PO425884  11.307  14.431   9.150
 5150POPC   GL125885  11.336  14.449   8.850
 5150POPC   GL225886  11.303  14.322   8.850
 5150POPC   C1A25887  11.319  14.423   8.550
 5150POPC   D2A25888  11.256  14.402   8.250
 5150POPC   C3A25889  11.347  14.411   7.950
 5150POPC   C4A25890  11.327  14.384   7.650
 5150POPC   C1B25891  11.159  14.173   8.550
 5150POPC   C2B25892  11.236  14.150   8.250
 5150POPC   C3B25893  11.231  14.153   7.950
 5150POPC   C4B25894  11.157  14.159   7.650
 5151POPC   NC325895   4.322  16.747   9.450
 5151POPC   PO425896   4.314  16.740   9.150
 5151POPC   GL125897   4.321  16.738   8.850
 5151POPC   GL225898   4.228  16.593   8.850
 5151POPC   C1A25899   4.288  16.705   8.550
 5151POPC   D2A25900   4.309  16.726   8.250
 5151POPC   C3A25901   4.347  16.720   7.950
 5151POPC   C4A25902   4.307  16.780   7.650
 5151POPC   C1B25903   4.276  16.492   8.550
 5151POPC   C2B25904   4.239  16.535   8.250
 5151POPC   C3B25905   4.273  16.539   7.950
 5151POPC   C4B25906   4.230  16.534   7.650
 5152POPC   NC325907  42.358  36.173   9.450
 5152POPC   PO425908  42.348  36.096   9.150
 5152POPC   GL125909  42.341  36.111   8.850
 5152POPC   GL225910  42.385  36.242   8.850
 5152POPC   C1A25911  42.361  36.088   8.550
 5152POPC   D2A25912  42.328  36.149   8.250
 5152POPC   C3A25913  42.363  36.133   7.950
 5152POPC   C4A25914  42.329  36.085   7.650
 5152POPC   C1B25915  42.523  36.306   8.550
 5152POPC   C2B25916  42.485  36.321   8.250
 5152POPC   C3B25917  42.495  36.321   7.950
 5152POPC   C4B25918  42.493  36.321   7.650
 5153POPC   NC325919   9.795  34.607   9.450
 5153POPC   PO425920   9.795  34.561   9.150
 5153POPC   GL125921   9.758  34.622   8.850
 5153POPC   GL225922   9.713  34.712   8.850
 5153POPC   C1A25923   9.796  34.606   8.550
 5153POPC   D2A25924   9.721  34.596   8.250
 5153POPC   C3A25925   9.773  34.544   7.950
 5153POPC   C4A25926   9.729  34.624   7.650
 5153POPC   C1B25927   9.671  34.757   8.550
 5153POPC   C2B25928   9.636  34.814   8.250
 5153POPC   C3B25929   9.638  34.839   7.950
 5153POPC   C4B25930   9.598  34.774   7.650
 5154POPC   NC325931  19.077   3.578   9.450
 5154POPC   PO425932  19.075   3.586   9.150
 5154POPC   GL125933  19.067   3.583   8.850
 5154POPC   GL225934  19.185   3.414   8.850
 5154POPC   C1A25935  19.053   3.494   8.550
 5154POPC   D2A25936  19.015   3.492   8.250
 5154POPC   C3A25937  19.032   3.492   7.950
 5154POPC   C4A25938  19.082   3.522   7.650
 5154POPC   C1B25939  19.224   3.380   8.550
 5154POPC   C2B25940  19.219   3.396   8.250
 5154POPC   C3B25941  19.276   3.324   7.950
 5154POPC   C4B25942  19.241   3.387   7.650
 5155POPC   NC325943  40.771  33.027   9.450
 5155POPC   PO425944  40.779  33.064   9.150
 5155POPC   GL125945  40.768  33.060   8.850
 5155POPC   GL225946  40.720  33.123   8.850
 5155POPC   C1A25947  40.775  33.043   8.550
 5155POPC   D2A25948  40.787  33.038   8.250
 5155POPC   C3A25949  40.802  32.977   7.950
 5155POPC   C4A25950  40.784  32.993   7.650
 5155POPC   C1B25951  40.625  33.198   8.550
 5155POPC   C2B25952  40.628  33.248   8.250
 5155POPC   C3B25953  40.661  33.273   7.950
 5155POPC   C4B25954  40.604  33.184   7.650
 5156POPC   NC325955  36.079  40.737   9.450
 5156POPC   PO425956  36.105  40.814   9.150
 5156POPC   GL125957  36.161  40.784   8.850
 5156POPC   GL225958  36.201  40.931   8.850
 5156POPC   C1A25959  36.086  40.817   8.550
 5156POPC   D2A25960  36.091  40.755   8.250
 5156POPC   C3A25961  36.146  40.754   7.950
 5156POPC   C4A25962  36.144  40.756   7.650
 5156POPC   C1B25963  36.197  41.015   8.550
 5156POPC   C2B25964  36.222  40.978   8.250
 5156POPC   C3B25965  36.216  41.010   7.950
 5156POPC   C4B25966  36.223  41.001   7.650
 5157POPC   NC325967  21.390  40.808   9.450
 5157POPC   PO425968  21.359  40.783   9.150
 5157POPC   GL125969  21.342  40.792   8.850
 5157POPC   GL225970  21.316  40.897   8.850
 5157POPC   C1A25971  21.383  40.738   8.550
 5157POPC   D2A25972  21.421  40.767   8.250
 5157POPC   C3A25973  21.401  40.777   7.950
 5157POPC   C4A25974  21.414  40.796   7.650
 5157POPC   C1B25975  21.157  40.902   8.550
 5157POPC   C2B25976  21.153  40.954   8.250
 5157POPC   C3B25977  21.184  40.910   7.950
 5157POPC   C4B25978  21.193  40.962   7.650
 5158POPC   NC325979   6.596  24.533   9.450
 5158POPC   PO425980   6.635  24.475   9.150
 5158POPC   GL125981   6.691  24.526   8.850
 5158POPC   GL225982   6.548  24.459   8.850
 5158POPC   C1A25983   6.638  24.499   8.550
 5158POPC   D2A25984   6.641  24.499   8.250
 5158POPC   C3A25985   6.597  24.477   7.950
 5158POPC   C4A25986   6.631  24.481   7.650
 5158POPC   C1B25987   6.420  24.378   8.550
 5158POPC   C2B25988   6.442  24.298   8.250
 5158POPC   C3B25989   6.489  24.329   7.950
 5158POPC   C4B25990   6.431  24.286   7.650
 5159POPC   NC325991  12.849  13.617   9.450
 5159POPC   PO425992  12.873  13.661   9.150
 5159POPC   GL125993  12.835  13.646   8.850
 5159POPC   GL225994  12.703  13.616   8.850
 5159POPC   C1A25995  12.901  13.612   8.550
 5159POPC   D2A25996  12.833  13.650   8.250
 5159POPC   C3A25997  12.874  13.584   7.950
 5159POPC   C4A25998  12.822  13.651   7.650
 5159POPC   C1B25999  12.663  13.550   8.550
 5159POPC   C2B26000  12.598  13.548   8.250
 5159POPC   C3B26001  12.610  13.484   7.950
 5159POPC   C4B26002  12.641  13.549   7.650
 5160POPC   NC326003  38.472   9.013   9.450
 5160POPC   PO426004  38.491   8.996   9.150
 5160POPC   GL126005  38.479   8.926   8.850
 5160POPC   GL226006  38.337   8.890   8.850
 5160POPC   C1A26007  38.442   9.018   8.550
 5160POPC   D2A26008  38.452   8.974   8.250
 5160POPC   C3A26009  38.461   8.957   7.950
 5160POPC   C4A26010  38.500   9.012   7.650
 5160POPC   C1B26011  38.251   8.897   8.550
 5160POPC   C2B26012  38.240   8.844   8.250
 5160POPC   C3B26013  38.250   8.891   7.950
 5160POPC   C4B26014  38.238   8.857   7.650
 5161POPC   NC326015   7.392   9.741   9.450
 5161POPC   PO426016   7.391   9.714   9.150
 5161POPC   GL126017   7.471   9.755   8.850
 5161POPC   GL226018   7.351   9.741   8.850
 5161POPC   C1A26019   7.450   9.787   8.550
 5161POPC   D2A26020   7.384   9.744   8.250
 5161POPC   C3A26021   7.439   9.785   7.950
 5161POPC   C4A26022   7.454   9.797   7.650
 5161POPC   C1B26023   7.153   9.656   8.550
 5161POPC   C2B26024   7.186   9.602   8.250
 5161POPC   C3B26025   7.201   9.680   7.950
 5161POPC   C4B26026   7.243   9.624   7.650
 5162POPC   NC326027  32.203   5.052   9.450
 5162POPC   PO426028  32.285   5.108   9.150
 5162POPC   GL126029  32.290   5.090   8.850
 5162POPC   GL226030  32.304   4.953   8.850
 5162POPC   C1A26031  32.254   5.121   8.550
 5162POPC   D2A26032  32.298   5.092   8.250
 5162POPC   C3A26033  32.292   5.091   7.950
 5162POPC   C4A26034  32.283   5.087   7.650
 5162POPC   C1B26035  32.264   4.826   8.550
 5162POPC   C2B26036  32.327   4.827   8.250
 5162POPC   C3B26037  32.347   4.893   7.950
 5162POPC   C4B26038  32.302   4.885   7.650
 5163POPC   NC326039  17.472  17.490   9.450
 5163POPC   PO426040  17.478  17.486   9.150
 5163POPC   GL126041  17.485  17.526   8.850
 5163POPC   GL226042  17.483  17.346   8.850
 5163POPC   C1A26043  17.535  17.543   8.550
 5163POPC   D2A26044  17.531  17.467   8.250
 5163POPC   C3A26045  17.507  17.481   7.950
 5163POPC   C4A26046  17.526  17.536   7.650
 5163POPC   C1B26047  17.502  17.303   8.550
 5163POPC   C2B26048  17.513  17.231   8.250
 5163POPC   C3B26049  17.557  17.269   7.950
 5163POPC   C4B26050  17.501  17.298   7.650
 5164POPC   NC326051   8.194  22.944   9.450
 5164POPC   PO426052   8.185  22.958   9.150
 5164POPC   GL126053   8.219  22.951   8.850
 5164POPC   GL226054   8.351  23.027   8.850
 5164POPC   C1A26055   8.176  22.983   8.550
 5164POPC   D2A26056   8.243  22.944   8.250
 5164POPC   C3A26057   8.164  22.980   7.950
 5164POPC   C4A26058   8.183  22.931   7.650
 5164POPC   C1B26059   8.448  23.073   8.550
 5164POPC   C2B26060   8.398  23.029   8.250
 5164POPC   C3B26061   8.436  23.071   7.950
 5164POPC   C4B26062   8.358  23.048   7.650
 5165POPC   NC326063  36.114  33.812   9.450
 5165POPC   PO426064  36.140  33.753   9.150
 5165POPC   GL126065  36.108  33.751   8.850
 5165POPC   GL226066  36.051  33.876   8.850
 5165POPC   C1A26067  36.176  33.849   8.550
 5165POPC   D2A26068  36.123  33.794   8.250
 5165POPC   C3A26069  36.124  33.771   7.950
 5165POPC   C4A26070  36.088  33.806   7.650
 5165POPC   C1B26071  35.962  34.006   8.550
 5165POPC   C2B26072  35.969  33.932   8.250
 5165POPC   C3B26073  35.980  33.950   7.950
 5165POPC   C4B26074  35.902  34.003   7.650
 5166POPC   NC326075   6.657  29.179   9.450
 5166POPC   PO426076   6.643  29.187   9.150
 5166POPC   GL126077   6.689  29.145   8.850
 5166POPC   GL226078   6.519  29.270   8.850
 5166POPC   C1A26079   6.680  29.186   8.550
 5166POPC   D2A26080   6.611  29.161   8.250
 5166POPC   C3A26081   6.681  29.179   7.950
 5166POPC   C4A26082   6.600  29.157   7.650
 5166POPC   C1B26083   6.443  29.355   8.550
 5166POPC   C2B26084   6.495  29.312   8.250
 5166POPC   C3B26085   6.463  29.318   7.950
 5166POPC   C4B26086   6.495  29.357   7.650
 5167POPC   NC326087  34.576  44.616   9.450
 5167POPC   PO426088  34.537  44.677   9.150
 5167POPC   GL126089  34.558  44.641   8.850
 5167POPC   GL226090  34.644  44.793   8.850
 5167POPC   C1A26091  34.618  44.697   8.550
 5167POPC   D2A26092  34.534  44.698   8.250
 5167POPC   C3A26093  34.598  44.658   7.950
 5167POPC   C4A26094  34.625  44.709   7.650
 5167POPC   C1B26095  34.634  44.903   8.550
 5167POPC   C2B26096  34.662  44.925   8.250
 5167POPC   C3B26097  34.699  44.872   7.950
 5167POPC   C4B26098  34.682  44.914   7.650
 5168POPC   NC326099  29.873  18.252   9.450
 5168POPC   PO426100  29.928  18.252   9.150
 5168POPC   GL126101  29.947  18.251   8.850
 5168POPC   GL226102  29.931  18.158   8.850
 5168POPC   C1A26103  29.891  18.319   8.550
 5168POPC   D2A26104  29.940  18.265   8.250
 5168POPC   C3A26105  29.942  18.317   7.950
 5168POPC   C4A26106  29.901  18.296   7.650
 5168POPC   C1B26107  29.891  18.078   8.550
 5168POPC   C2B26108  29.946  18.039   8.250
 5168POPC   C3B26109  29.894  17.983   7.950
 5168POPC   C4B26110  29.885  18.004   7.650
 5169POPC   NC326111  29.907  39.209   9.450
 5169POPC   PO426112  29.950  39.184   9.150
 5169POPC   GL126113  29.898  39.278   8.850
 5169POPC   GL226114  29.935  39.124   8.850
 5169POPC   C1A26115  29.876  39.279   8.550
 5169POPC   D2A26116  29.882  39.279   8.250
 5169POPC   C3A26117  29.923  39.198   7.950
 5169POPC   C4A26118  29.880  39.192   7.650
 5169POPC   C1B26119  29.960  38.952   8.550
 5169POPC   C2B26120  29.959  39.005   8.250
 5169POPC   C3B26121  29.971  38.974   7.950
 5169POPC   C4B26122  29.978  38.943   7.650
 5170POPC   NC326123  44.617  22.987   9.450
 5170POPC   PO426124  44.688  22.920   9.150
 5170POPC   GL126125  44.701  22.927   8.850
 5170POPC   GL226126  44.597  22.827   8.850
 5170POPC   C1A26127  44.664  22.921   8.550
 5170POPC   D2A26128  44.671  22.922   8.250
 5170POPC   C3A26129  44.676  22.958   7.950
 5170POPC   C4A26130  44.623  22.923   7.650
 5170POPC   C1B26131  44.531  22.764   8.550
 5170POPC   C2B26132  44.526  22.735   8.250
 5170POPC   C3B26133  44.478  22.764   7.950
 5170POPC   C4B26134  44.541  22.751   7.650
 5171POPC   NC326135  31.497   9.703   9.450
 5171POPC   PO426136  31.459   9.774   9.150
 5171POPC   GL126137  31.502   9.706   8.850
 5171POPC   GL226138  31.486   9.674   8.850
 5171POPC   C1A26139  31.481   9.722   8.550
 5171POPC   D2A26140  31.435   9.770   8.250
 5171POPC   C3A26141  31.465   9.763   7.950
 5171POPC   C4A26142  31.493   9.787   7.650
 5171POPC   C1B26143  31.381   9.484   8.550
 5171POPC   C2B26144  31.431   9.471   8.250
 5171POPC   C3B26145  31.451   9.485   7.950
 5171POPC   C4B26146  31.383   9.497   7.650
 5172POPC   NC326147  25.269  43.066   9.450
 5172POPC   PO426148  25.248  43.079   9.150
 5172POPC   GL126149  25.290  43.101   8.850
 5172POPC   GL226150  25.342  43.198   8.850
 5172POPC   C1A26151  25.228  43.102   8.550
 5172POPC   D2A26152  25.259  43.094   8.250
 5172POPC   C3A26153  25.238  43.133   7.950
 5172POPC   C4A26154  25.267  43.073   7.650
 5172POPC   C1B26155  25.462  43.203   8.550
 5172POPC   C2B26156  25.453  43.275   8.250
 5172POPC   C3B26157  25.496  43.205   7.950
 5172POPC   C4B26158  25.480  43.284   7.650
 5173POPC   NC326159   8.148   5.892   9.450
 5173POPC   PO426160   8.151   5.885   9.150
 5173POPC   GL126161   8.173   5.872   8.850
 5173POPC   GL226162   8.313   5.906   8.850
 5173POPC   C1A26163   8.151   5.898   8.550
 5173POPC   D2A26164   8.170   5.876   8.250
 5173POPC   C3A26165   8.241   5.822   7.950
 5173POPC   C4A26166   8.180   5.887   7.650
 5173POPC   C1B26167   8.404   5.892   8.550
 5173POPC   C2B26168   8.397   5.962   8.250
 5173POPC   C3B26169   8.482   5.953   7.950
 5173POPC   C4B26170   8.448   5.958   7.650
 5174POPC   NC326171   1.191   9.766   9.450
 5174POPC   PO426172   1.258   9.731   9.150
 5174POPC   GL126173   1.225   9.728   8.850
 5174POPC   GL226174   1.333   9.648   8.850
 5174POPC   C1A26175   1.182   9.797   8.550
 5174POPC   D2A26176   1.204   9.781   8.250
 5174POPC   C3A26177   1.256   9.723   7.950
 5174POPC   C4A26178   1.180   9.740   7.650
 5174POPC   C1B26179   1.465   9.650   8.550
 5174POPC   C2B26180   1.447   9.620   8.250
 5174POPC   C3B26181   1.401   9.646   7.950
 5174POPC   C4B26182   1.386   9.612   7.650
 5175POPC   NC326183   7.393  29.933   9.450
 5175POPC   PO426184   7.398  29.915   9.150
 5175POPC   GL126185   7.450  29.934   8.850
 5175POPC   GL226186   7.513  29.909   8.850
 5175POPC   C1A26187   7.443  29.928   8.550
 5175POPC   D2A26188   7.470  29.934   8.250
 5175POPC   C3A26189   7.420  29.944   7.950
 5175POPC   C4A26190   7.452  29.910   7.650
 5175POPC   C1B26191   7.698  29.968   8.550
 5175POPC   C2B26192   7.702  29.951   8.250
 5175POPC   C3B26193   7.684  29.990   7.950
 5175POPC   C4B26194   7.662  29.983   7.650
 5176POPC   NC326195  29.173   7.405   9.450
 5176POPC   PO426196  29.147   7.427   9.150
 5176POPC   GL126197  29.109   7.453   8.850
 5176POPC   GL226198  29.176   7.302   8.850
 5176POPC   C1A26199  29.105   7.381   8.550
 5176POPC   D2A26200  29.173   7.468   8.250
 5176POPC   C3A26201  29.099   7.402   7.950
 5176POPC   C4A26202  29.133   7.402   7.650
 5176POPC   C1B26203  29.242   7.203   8.550
 5176POPC   C2B26204  29.170   7.170   8.250
 5176POPC   C3B26205  29.172   7.141   7.950
 5176POPC   C4B26206  29.234   7.153   7.650
 5177POPC   NC326207  37.693   2.005   9.450
 5177POPC   PO426208  37.686   1.968   9.150
 5177POPC   GL126209  37.708   1.943   8.850
 5177POPC   GL226210  37.635   1.847   8.850
 5177POPC   C1A26211  37.694   1.982   8.550
 5177POPC   D2A26212  37.708   1.942   8.250
 5177POPC   C3A26213  37.673   2.027   7.950
 5177POPC   C4A26214  37.717   2.038   7.650
 5177POPC   C1B26215  37.676   1.693   8.550
 5177POPC   C2B26216  37.674   1.714   8.250
 5177POPC   C3B26217  37.665   1.705   7.950
 5177POPC   C4B26218  37.722   1.748   7.650
 5178POPC   NC326219   9.772  13.593   9.450
 5178POPC   PO426220   9.787  13.595   9.150
 5178POPC   GL126221   9.763  13.637   8.850
 5178POPC   GL226222   9.777  13.523   8.850
 5178POPC   C1A26223   9.728  13.583   8.550
 5178POPC   D2A26224   9.741  13.657   8.250
 5178POPC   C3A26225   9.723  13.635   7.950
 5178POPC   C4A26226   9.787  13.670   7.650
 5178POPC   C1B26227   9.696  13.361   8.550
 5178POPC   C2B26228   9.686  13.398   8.250
 5178POPC   C3B26229   9.717  13.374   7.950
 5178POPC   C4B26230   9.742  13.385   7.650
 5179POPC   NC326231   1.256  21.394   9.450
 5179POPC   PO426232   1.166  21.379   9.150
 5179POPC   GL126233   1.259  21.342   8.850
 5179POPC   GL226234   1.043  21.376   8.850
 5179POPC   C1A26235   1.192  21.407   8.550
 5179POPC   D2A26236   1.211  21.422   8.250
 5179POPC   C3A26237   1.246  21.431   7.950
 5179POPC   C4A26238   1.210  21.361   7.650
 5179POPC   C1B26239   0.938  21.361   8.550
 5179POPC   C2B26240   0.953  21.343   8.250
 5179POPC   C3B26241   0.974  21.309   7.950
 5179POPC   C4B26242   1.011  21.391   7.650
 5180POPC   NC326243  29.191   5.828   9.450
 5180POPC   PO426244  29.172   5.825   9.150
 5180POPC   GL126245  29.160   5.864   8.850
 5180POPC   GL226246  29.201   5.777   8.850
 5180POPC   C1A26247  29.150   5.865   8.550
 5180POPC   D2A26248  29.105   5.857   8.250
 5180POPC   C3A26249  29.192   5.910   7.950
 5180POPC   C4A26250  29.152   5.908   7.650
 5180POPC   C1B26251  29.244   5.661   8.550
 5180POPC   C2B26252  29.199   5.585   8.250
 5180POPC   C3B26253  29.229   5.676   7.950
 5180POPC   C4B26254  29.193   5.637   7.650
 5181POPC   NC326255  42.308   5.069   9.450
 5181POPC   PO426256  42.295   5.133   9.150
 5181POPC   GL126257  42.318   5.109   8.850
 5181POPC   GL226258  42.286   5.023   8.850
 5181POPC   C1A26259  42.366   5.044   8.550
 5181POPC   D2A26260  42.313   5.106   8.250
 5181POPC   C3A26261  42.287   5.139   7.950
 5181POPC   C4A26262  42.337   5.043   7.650
 5181POPC   C1B26263  42.288   4.819   8.550
 5181POPC   C2B26264  42.276   4.818   8.250
 5181POPC   C3B26265  42.227   4.849   7.950
 5181POPC   C4B26266  42.258   4.812   7.650
 5182POPC   NC326267  44.645   2.021   9.450
 5182POPC   PO426268  44.668   2.022   9.150
 5182POPC   GL126269  44.644   2.015   8.850
 5182POPC   GL226270  44.540   2.003   8.850
 5182POPC   C1A26271  44.636   2.033   8.550
 5182POPC   D2A26272  44.648   2.002   8.250
 5182POPC   C3A26273  44.703   1.962   7.950
 5182POPC   C4A26274  44.709   1.945   7.650
 5182POPC   C1B26275  44.443   1.993   8.550
 5182POPC   C2B26276  44.375   1.996   8.250
 5182POPC   C3B26277  44.437   2.023   7.950
 5182POPC   C4B26278  44.457   1.985   7.650
 5183POPC   NC326279  42.292   1.177   9.450
 5183POPC   PO426280  42.321   1.252   9.150
 5183POPC   GL126281  42.331   1.166   8.850
 5183POPC   GL226282  42.312   1.127   8.850
 5183POPC   C1A26283  42.338   1.202   8.550
 5183POPC   D2A26284  42.333   1.171   8.250
 5183POPC   C3A26285  42.308   1.203   7.950
 5183POPC   C4A26286  42.380   1.195   7.650
 5183POPC   C1B26287  42.255   0.964   8.550
 5183POPC   C2B26288  42.291   1.014   8.250
 5183POPC   C3B26289  42.351   1.000   7.950
 5183POPC   C4B26290  42.274   0.955   7.650
 5184POPC   NC326291  43.858  35.392   9.450
 5184POPC   PO426292  43.920  35.358   9.150
 5184POPC   GL126293  43.842  35.368   8.850
 5184POPC   GL226294  43.949  35.423   8.850
 5184POPC   C1A26295  43.921  35.356   8.550
 5184POPC   D2A26296  43.852  35.374   8.250
 5184POPC   C3A26297  43.882  35.351   7.950
 5184POPC   C4A26298  43.888  35.342   7.650
 5184POPC   C1B26299  44.025  35.551   8.550
 5184POPC   C2B26300  44.039  35.542   8.250
 5184POPC   C3B26301  44.045  35.574   7.950
 5184POPC   C4B26302  44.042  35.567   7.650
 5185POPC   NC326303  30.654  22.958   9.450
 5185POPC   PO426304  30.672  22.901   9.150
 5185POPC   GL126305  30.688  22.940   8.850
 5185POPC   GL226306  30.835  22.900   8.850
 5185POPC   C1A26307  30.663  22.893   8.550
 5185POPC   D2A26308  30.738  22.936   8.250
 5185POPC   C3A26309  30.671  22.979   7.950
 5185POPC   C4A26310  30.697  22.909   7.650
 5185POPC   C1B26311  30.881  22.765   8.550
 5185POPC   C2B26312  30.902  22.803   8.250
 5185POPC   C3B26313  30.871  22.838   7.950
 5185POPC   C4B26314  30.887  22.830   7.650
 5186POPC   NC326315  19.828  24.469   9.450
 5186POPC   PO426316  19.884  24.467   9.150
 5186POPC   GL126317  19.880  24.523   8.850
 5186POPC   GL226318  19.781  24.600   8.850
 5186POPC   C1A26319  19.850  24.453   8.550
 5186POPC   D2A26320  19.826  24.515   8.250
 5186POPC   C3A26321  19.818  24.532   7.950
 5186POPC   C4A26322  19.819  24.481   7.650
 5186POPC   C1B26323  19.653  24.655   8.550
 5186POPC   C2B26324  19.607  24.620   8.250
 5186POPC   C3B26325  19.590  24.592   7.950
 5186POPC   C4B26326  19.672  24.594   7.650
 5187POPC   NC326327  34.589  33.825   9.450
 5187POPC   PO426328  34.585  33.793   9.150
 5187POPC   GL126329  34.588  33.816   8.850
 5187POPC   GL226330  34.697  33.778   8.850
 5187POPC   C1A26331  34.581  33.791   8.550
 5187POPC   D2A26332  34.613  33.753   8.250
 5187POPC   C3A26333  34.593  33.780   7.950
 5187POPC   C4A26334  34.532  33.794   7.650
 5187POPC   C1B26335  34.852  33.675   8.550
 5187POPC   C2B26336  34.812  33.648   8.250
 5187POPC   C3B26337  34.792  33.690   7.950
 5187POPC   C4B26338  34.786  33.721   7.650
 5188POPC   NC326339  11.272  21.404   9.450
 5188POPC   PO426340  11.270  21.389   9.150
 5188POPC   GL126341  11.328  21.402   8.850
 5188POPC   GL226342  11.318  21.237   8.850
 5188POPC   C1A26343  11.295  21.358   8.550
 5188POPC   D2A26344  11.302  21.419   8.250
 5188POPC   C3A26345  11.350  21.386   7.950
 5188POPC   C4A26346  11.309  21.428   7.650
 5188POPC   C1B26347  11.275  21.140   8.550
 5188POPC   C2B26348  11.314  21.141   8.250
 5188POPC   C3B26349  11.226  21.162   7.950
 5188POPC   C4B26350  11.231  21.145   7.650
 5189POPC   NC326351  13.584  30.664   9.450
 5189POPC   PO426352  13.596  30.705   9.150
 5189POPC   GL126353  13.632  30.689   8.850
 5189POPC   GL226354  13.706  30.779   8.850
 5189POPC   C1A26355  13.589  30.714   8.550
 5189POPC   D2A26356  13.655  30.739   8.250
 5189POPC   C3A26357  13.639  30.706   7.950
 5189POPC   C4A26358  13.670  30.661   7.650
 5189POPC   C1B26359  13.691  30.902   8.550
 5189POPC   C2B26360  13.678  30.965   8.250
 5189POPC   C3B26361  13.710  30.940   7.950
 5189POPC   C4B26362  13.711  30.905   7.650
 5190POPC   NC326363  10.540  40.764   9.450
 5190POPC   PO426364  10.525  40.778   9.150
 5190POPC   GL126365  10.554  40.796   8.850
 5190POPC   GL226366  10.494  40.913   8.850
 5190POPC   C1A26367  10.564  40.773   8.550
 5190POPC   D2A26368  10.561  40.807   8.250
 5190POPC   C3A26369  10.534  40.815   7.950
 5190POPC   C4A26370  10.561  40.789   7.650
 5190POPC   C1B26371  10.448  41.029   8.550
 5190POPC   C2B26372  10.445  40.982   8.250
 5190POPC   C3B26373  10.410  40.968   7.950
 5190POPC   C4B26374  10.398  41.044   7.650
 5191POPC   NC326375   0.474  31.430   9.450
 5191POPC   PO426376   0.487  31.490   9.150
 5191POPC   GL126377   0.442  31.511   8.850
 5191POPC   GL226378   0.485  31.377   8.850
 5191POPC   C1A26379   0.454  31.436   8.550
 5191POPC   D2A26380   0.413  31.483   8.250
 5191POPC   C3A26381   0.399  31.424   7.950
 5191POPC   C4A26382   0.423  31.467   7.650
 5191POPC   C1B26383   0.527  31.211   8.550
 5191POPC   C2B26384   0.567  31.279   8.250
 5191POPC   C3B26385   0.569  31.248   7.950
 5191POPC   C4B26386   0.503  31.239   7.650
 5192POPC   NC326387  44.648  16.001   9.450
 5192POPC   PO426388  44.691  15.971   9.150
 5192POPC   GL126389  44.650  15.990   8.850
 5192POPC   GL226390  44.557  15.869   8.850
 5192POPC   C1A26391  44.640  15.906   8.550
 5192POPC   D2A26392  44.665  15.995   8.250
 5192POPC   C3A26393  44.630  15.919   7.950
 5192POPC   C4A26394  44.674  15.929   7.650
 5192POPC   C1B26395  44.519  15.719   8.550
 5192POPC   C2B26396  44.541  15.731   8.250
 5192POPC   C3B26397  44.560  15.798   7.950
 5192POPC   C4B26398  44.520  15.744   7.650
 5193POPC   NC326399  15.938  26.076   9.450
 5193POPC   PO426400  15.929  25.997   9.150
 5193POPC   GL126401  15.938  26.027   8.850
 5193POPC   GL226402  15.866  26.145   8.850
 5193POPC   C1A26403  15.949  26.057   8.550
 5193POPC   D2A26404  15.957  26.017   8.250
 5193POPC   C3A26405  16.004  26.091   7.950
 5193POPC   C4A26406  15.989  26.003   7.650
 5193POPC   C1B26407  15.784  26.269   8.550
 5193POPC   C2B26408  15.834  26.260   8.250
 5193POPC   C3B26409  15.793  26.198   7.950
 5193POPC   C4B26410  15.784  26.222   7.650
 5194POPC   NC326411   5.911  40.021   9.450
 5194POPC   PO426412   5.915  40.016   9.150
 5194POPC   GL126413   5.821  39.961   8.850
 5194POPC   GL226414   5.956  40.059   8.850
 5194POPC   C1A26415   5.851  40.037   8.550
 5194POPC   D2A26416   5.898  39.980   8.250
 5194POPC   C3A26417   5.886  40.048   7.950
 5194POPC   C4A26418   5.822  39.963   7.650
 5194POPC   C1B26419   6.060  40.215   8.550
 5194POPC   C2B26420   6.037  40.223   8.250
 5194POPC   C3B26421   6.020  40.174   7.950
 5194POPC   C4B26422   6.052  40.220   7.650
 5195POPC   NC326423  23.710  12.874   9.450
 5195POPC   PO426424  23.716  12.891   9.150
 5195POPC   GL126425  23.704  12.876   8.850
 5195POPC   GL226426  23.574  12.879   8.850
 5195POPC   C1A26427  23.714  12.828   8.550
 5195POPC   D2A26428  23.762  12.833   8.250
 5195POPC   C3A26429  23.668  12.836   7.950
 5195POPC   C4A26430  23.693  12.854   7.650
 5195POPC   C1B26431  23.421  12.798   8.550
 5195POPC   C2B26432  23.442  12.817   8.250
 5195POPC   C3B26433  23.455  12.858   7.950
 5195POPC   C4B26434  23.448  12.778   7.650
 5196POPC   NC326435   0.394   4.316   9.450
 5196POPC   PO426436   0.471   4.362   9.150
 5196POPC   GL126437   0.471   4.318   8.850
 5196POPC   GL226438   0.440   4.216   8.850
 5196POPC   C1A26439   0.418   4.304   8.550
 5196POPC   D2A26440   0.485   4.366   8.250
 5196POPC   C3A26441   0.407   4.279   7.950
 5196POPC   C4A26442   0.470   4.358   7.650
 5196POPC   C1B26443   0.577   4.103   8.550
 5196POPC   C2B26444   0.578   4.111   8.250
 5196POPC   C3B26445   0.486   4.103   7.950
 5196POPC   C4B26446   0.538   4.066   7.650
 5197POPC   NC326447  38.465  36.084   9.450
 5197POPC   PO426448  38.459  36.128   9.150
 5197POPC   GL126449  38.415  36.090   8.850
 5197POPC   GL226450  38.521  36.236   8.850
 5197POPC   C1A26451  38.414  36.176   8.550
 5197POPC   D2A26452  38.470  36.096   8.250
 5197POPC   C3A26453  38.502  36.101   7.950
 5197POPC   C4A26454  38.490  36.106   7.650
 5197POPC   C1B26455  38.611  36.321   8.550
 5197POPC   C2B26456  38.555  36.322   8.250
 5197POPC   C3B26457  38.539  36.313   7.950
 5197POPC   C4B26458  38.616  36.356   7.650
 5198POPC   NC326459  41.581  23.751   9.450
 5198POPC   PO426460  41.524  23.715   9.150
 5198POPC   GL126461  41.541  23.665   8.850
 5198POPC   GL226462  41.529  23.649   8.850
 5198POPC   C1A26463  41.569  23.756   8.550
 5198POPC   D2A26464  41.596  23.758   8.250
 5198POPC   C3A26465  41.524  23.681   7.950
 5198POPC   C4A26466  41.569  23.734   7.650
 5198POPC   C1B26467  41.460  23.511   8.550
 5198POPC   C2B26468  41.479  23.525   8.250
 5198POPC   C3B26469  41.392  23.447   7.950
 5198POPC   C4B26470  41.421  23.475   7.650
 5199POPC   NC326471  44.709  41.516   9.450
 5199POPC   PO426472  44.668  41.539   9.150
 5199POPC   GL126473  44.667  41.527   8.850
 5199POPC   GL226474  44.586  41.653   8.850
 5199POPC   C1A26475  44.686  41.513   8.550
 5199POPC   D2A26476  44.621  41.556   8.250
 5199POPC   C3A26477  44.702  41.566   7.950
 5199POPC   C4A26478  44.629  41.579   7.650
 5199POPC   C1B26479  44.458  41.651   8.550
 5199POPC   C2B26480  44.421  41.723   8.250
 5199POPC   C3B26481  44.430  41.703   7.950
 5199POPC   C4B26482  44.405  41.716   7.650
 5200POPC   NC326483   5.829  12.064   9.450
 5200POPC   PO426484   5.830  12.115   9.150
 5200POPC   GL126485   5.912  12.105   8.850
 5200POPC   GL226486   5.863  11.933   8.850
 5200POPC   C1A26487   5.870  12.086   8.550
 5200POPC   D2A26488   5.855  12.060   8.250
 5200POPC   C3A26489   5.830  12.092   7.950
 5200POPC   C4A26490   5.918  12.041   7.650
 5200POPC   C1B26491   5.823  11.845   8.550
 5200POPC   C2B26492   5.828  11.795   8.250
 5200POPC   C3B26493   5.862  11.832   7.950
 5200POPC   C4B26494   5.885  11.803   7.650
 5201POPC   NC326495  40.021   2.813   9.450
 5201POPC   PO426496  40.012   2.781   9.150
 5201POPC   GL126497  39.970   2.789   8.850
 5201POPC   GL226498  40.124   2.721   8.850
 5201POPC   C1A26499  40.029   2.754   8.550
 5201POPC   D2A26500  39.978   2.771   8.250
 5201POPC   C3A26501  39.972   2.806   7.950
 5201POPC   C4A26502  39.963   2.808   7.650
 5201POPC   C1B26503  40.221   2.766   8.550
 5201POPC   C2B26504  40.290   2.756   8.250
 5201POPC   C3B26505  40.273   2.755   7.950
 5201POPC   C4B26506  40.282   2.760   7.650
 5202POPC   NC326507  27.563  19.867   9.450
 5202POPC   PO426508  27.586  19.881   9.150
 5202POPC   GL126509  27.574  19.849   8.850
 5202POPC   GL226510  27.714  19.882   8.850
 5202POPC   C1A26511  27.594  19.808   8.550
 5202POPC   D2A26512  27.635  19.791   8.250
 5202POPC   C3A26513  27.610  19.839   7.950
 5202POPC   C4A26514  27.575  19.790   7.650
 5202POPC   C1B26515  27.795  19.873   8.550
 5202POPC   C2B26516  27.809  19.914   8.250
 5202POPC   C3B26517  27.838  19.947   7.950
 5202POPC   C4B26518  27.878  19.910   7.650
 5203POPC   NC326519  44.629  32.213   9.450
 5203POPC   PO426520  44.653  32.289   9.150
 5203POPC   GL126521  44.689  32.254   8.850
 5203POPC   GL226522  44.822  32.282   8.850
 5203POPC   C1A26523  44.657  32.232   8.550
 5203POPC   D2A26524  44.621  32.283   8.250
 5203POPC   C3A26525  44.684  32.236   7.950
 5203POPC   C4A26526  44.707  32.252   7.650
 5203POPC   C1B26527  44.862  32.268   8.550
 5203POPC   C2B26528  44.899  32.282   8.250
 5203POPC   C3B26529  44.870  32.249   7.950
 5203POPC   C4B26530  44.877  32.205   7.650
 5204POPC   NC326531  29.163  29.167   9.450
 5204POPC   PO426532  29.175  29.139   9.150
 5204POPC   GL126533  29.104  29.153   8.850
 5204POPC   GL226534  29.130  28.997   8.850
 5204POPC   C1A26535  29.130  29.187   8.550
 5204POPC   D2A26536  29.156  29.149   8.250
 5204POPC   C3A26537  29.133  29.151   7.950
 5204POPC   C4A26538  29.139  29.127   7.650
 5204POPC   C1B26539  29.091  28.865   8.550
 5204POPC   C2B26540  29.076  28.848   8.250
 5204POPC   C3B26541  29.114  28.899   7.950
 5204POPC   C4B26542  29.157  28.932   7.650
 5205POPC   NC326543  27.581   9.794   9.450
 5205POPC   PO426544  27.587   9.703   9.150
 5205POPC   GL126545  27.635   9.744   8.850
 5205POPC   GL226546  27.535   9.610   8.850
 5205POPC   C1A26547  27.575   9.744   8.550
 5205POPC   D2A26548  27.573   9.757   8.250
 5205POPC   C3A26549  27.636   9.738   7.950
 5205POPC   C4A26550  27.609   9.780   7.650
 5205POPC   C1B26551  27.481   9.563   8.550
 5205POPC   C2B26552  27.478   9.487   8.250
 5205POPC   C3B26553  27.524   9.501   7.950
 5205POPC   C4B26554  27.491   9.547   7.650
 5206POPC   NC326555  18.242  37.638   9.450
 5206POPC   PO426556  18.268  37.714   9.150
 5206POPC   GL126557  18.304  37.706   8.850
 5206POPC   GL226558  18.355  37.550   8.850
 5206POPC   C1A26559  18.259  37.638   8.550
 5206POPC   D2A26560  18.234  37.643   8.250
 5206POPC   C3A26561  18.277  37.631   7.950
 5206POPC   C4A26562  18.258  37.633   7.650
 5206POPC   C1B26563  18.378  37.469   8.550
 5206POPC   C2B26564  18.439  37.468   8.250
 5206POPC   C3B26565  18.382  37.489   7.950
 5206POPC   C4B26566  18.399  37.413   7.650
 5207POPC   NC326567  36.176  41.534   9.450
 5207POPC   PO426568  36.111  41.599   9.150
 5207POPC   GL126569  36.148  41.515   8.850
 5207POPC   GL226570  36.257  41.429   8.850
 5207POPC   C1A26571  36.102  41.542   8.550
 5207POPC   D2A26572  36.114  41.535   8.250
 5207POPC   C3A26573  36.146  41.567   7.950
 5207POPC   C4A26574  36.156  41.542   7.650
 5207POPC   C1B26575  36.347  41.386   8.550
 5207POPC   C2B26576  36.321  41.417   8.250
 5207POPC   C3B26577  36.318  41.388   7.950
 5207POPC   C4B26578  36.320  41.409   7.650
 5208POPC   NC326579  29.958  26.078   9.450
 5208POPC   PO426580  29.893  25.999   9.150
 5208POPC   GL126581  29.908  26.076   8.850
 5208POPC   GL226582  29.883  25.890   8.850
 5208POPC   C1A26583  29.966  26.005   8.550
 5208POPC   D2A26584  29.890  26.005   8.250
 5208POPC   C3A26585  29.952  26.070   7.950
 5208POPC   C4A26586  29.964  25.994   7.650
 5208POPC   C1B26587  29.897  25.802   8.550
 5208POPC   C2B26588  29.886  25.802   8.250
 5208POPC   C3B26589  29.918  25.750   7.950
 5208POPC   C4B26590  29.969  25.756   7.650
 5209POPC   NC326591  37.717  22.147   9.450
 5209POPC   PO426592  37.656  22.186   9.150
 5209POPC   GL126593  37.639  22.119   8.850
 5209POPC   GL226594  37.635  22.302   8.850
 5209POPC   C1A26595  37.651  22.137   8.550
 5209POPC   D2A26596  37.669  22.183   8.250
 5209POPC   C3A26597  37.720  22.165   7.950
 5209POPC   C4A26598  37.642  22.120   7.650
 5209POPC   C1B26599  37.600  22.407   8.550
 5209POPC   C2B26600  37.591  22.423   8.250
 5209POPC   C3B26601  37.594  22.365   7.950
 5209POPC   C4B26602  37.644  22.417   7.650
 5210POPC   NC326603  38.443  35.386   9.450
 5210POPC   PO426604  38.503  35.331   9.150
 5210POPC   GL126605  38.413  35.350   8.850
 5210POPC   GL226606  38.561  35.324   8.850
 5210POPC   C1A26607  38.454  35.327   8.550
 5210POPC   D2A26608  38.453  35.311   8.250
 5210POPC   C3A26609  38.440  35.309   7.950
 5210POPC   C4A26610  38.456  35.326   7.650
 5210POPC   C1B26611  38.708  35.201   8.550
 5210POPC   C2B26612  38.625  35.178   8.250
 5210POPC   C3B26613  38.686  35.179   7.950
 5210POPC   C4B26614  38.704  35.198   7.650
 5211POPC   NC326615  13.664   2.037   9.450
 5211POPC   PO426616  13.655   1.986   9.150
 5211POPC   GL126617  13.634   1.978   8.850
 5211POPC   GL226618  13.544   1.933   8.850
 5211POPC   C1A26619  13.587   2.004   8.550
 5211POPC   D2A26620  13.606   1.948   8.250
 5211POPC   C3A26621  13.676   1.959   7.950
 5211POPC   C4A26622  13.611   2.000   7.650
 5211POPC   C1B26623  13.430   1.954   8.550
 5211POPC   C2B26624  13.417   1.926   8.250
 5211POPC   C3B26625  13.348   1.921   7.950
 5211POPC   C4B26626  13.346   1.993   7.650
 5212POPC   NC326627   9.727   5.141   9.450
 5212POPC   PO426628   9.779   5.112   9.150
 5212POPC   GL126629   9.787   5.059   8.850
 5212POPC   GL226630   9.620   5.019   8.850
 5212POPC   C1A26631   9.706   5.121   8.550
 5212POPC   D2A26632   9.750   5.084   8.250
 5212POPC   C3A26633   9.789   5.132   7.950
 5212POPC   C4A26634   9.793   5.079   7.650
 5212POPC   C1B26635   9.562   4.931   8.550
 5212POPC   C2B26636   9.553   4.964   8.250
 5212POPC   C3B26637   9.503   4.995   7.950
 5212POPC   C4B26638   9.565   4.934   7.650
 5213POPC   NC326639  43.089  22.129   9.450
 5213POPC   PO426640  43.111  22.198   9.150
 5213POPC   GL126641  43.085  22.133   8.850
 5213POPC   GL226642  43.158  22.291   8.850
 5213POPC   C1A26643  43.126  22.154   8.550
 5213POPC   D2A26644  43.066  22.204   8.250
 5213POPC   C3A26645  43.138  22.175   7.950
 5213POPC   C4A26646  43.150  22.155   7.650
 5213POPC   C1B26647  43.201  22.430   8.550
 5213POPC   C2B26648  43.169  22.405   8.250
 5213POPC   C3B26649  43.222  22.421   7.950
 5213POPC   C4B26650  43.165  22.407   7.650
 5214POPC   NC326651  27.565  44.629   9.450
 5214POPC   PO426652  27.545  44.670   9.150
 5214POPC   GL126653  27.597  44.679   8.850
 5214POPC   GL226654  27.695  44.737   8.850
 5214POPC   C1A26655  27.554  44.654   8.550
 5214POPC   D2A26656  27.631  44.651   8.250
 5214POPC   C3A26657  27.627  44.614   7.950
 5214POPC   C4A26658  27.634  44.649   7.650
 5214POPC   C1B26659  27.722  44.842   8.550
 5214POPC   C2B26660  27.739  44.853   8.250
 5214POPC   C3B26661  27.695  44.903   7.950
 5214POPC   C4B26662  27.690  44.894   7.650
 5215POPC   NC326663  12.043  37.660   9.450
 5215POPC   PO426664  12.065  37.672   9.150
 5215POPC   GL126665  12.071  37.685   8.850
 5215POPC   GL226666  12.219  37.767   8.850
 5215POPC   C1A26667  12.081  37.692   8.550
 5215POPC   D2A26668  12.106  37.706   8.250
 5215POPC   C3A26669  12.042  37.723   7.950
 5215POPC   C4A26670  12.045  37.693   7.650
 5215POPC   C1B26671  12.320  37.758   8.550
 5215POPC   C2B26672  12.314  37.835   8.250
 5215POPC   C3B26673  12.334  37.815   7.950
 5215POPC   C4B26674  12.318  37.786   7.650
 5216POPC   NC326675  10.489  32.245   9.450
 5216POPC   PO426676  10.511  32.206   9.150
 5216POPC   GL126677  10.555  32.218   8.850
 5216POPC   GL226678  10.395  32.349   8.850
 5216POPC   C1A26679  10.517  32.270   8.550
 5216POPC   D2A26680  10.546  32.281   8.250
 5216POPC   C3A26681  10.529  32.244   7.950
 5216POPC   C4A26682  10.475  32.223   7.650
 5216POPC   C1B26683  10.303  32.396   8.550
 5216POPC   C2B26684  10.285  32.382   8.250
 5216POPC   C3B26685  10.356  32.339   7.950
 5216POPC   C4B26686  10.336  32.336   7.650
 5217POPC   NC326687  15.952  38.475   9.450
 5217POPC   PO426688  15.933  38.436   9.150
 5217POPC   GL126689  15.953  38.417   8.850
 5217POPC   GL226690  15.997  38.350   8.850
 5217POPC   C1A26691  15.970  38.433   8.550
 5217POPC   D2A26692  15.965  38.494   8.250
 5217POPC   C3A26693  15.923  38.448   7.950
 5217POPC   C4A26694  15.910  38.451   7.650
 5217POPC   C1B26695  16.050  38.188   8.550
 5217POPC   C2B26696  15.968  38.254   8.250
 5217POPC   C3B26697  16.037  38.250   7.950
 5217POPC   C4B26698  15.991  38.182   7.650
 5218POPC   NC326699  38.433  44.640   9.450
 5218POPC   PO426700  38.420  44.659   9.150
 5218POPC   GL126701  38.483  44.633   8.850
 5218POPC   GL226702  38.579  44.560   8.850
 5218POPC   C1A26703  38.454  44.689   8.550
 5218POPC   D2A26704  38.451  44.618   8.250
 5218POPC   C3A26705  38.407  44.612   7.950
 5218POPC   C4A26706  38.441  44.656   7.650
 5218POPC   C1B26707  38.711  44.577   8.550
 5218POPC   C2B26708  38.669  44.531   8.250
 5218POPC   C3B26709  38.661  44.600   7.950
 5218POPC   C4B26710  38.667  44.541   7.650
 5219POPC   NC326711   2.020  22.210   9.450
 5219POPC   PO426712   2.020  22.177   9.150
 5219POPC   GL126713   2.017  22.138   8.850
 5219POPC   GL226714   2.080  22.055   8.850
 5219POPC   C1A26715   1.950  22.132   8.550
 5219POPC   D2A26716   1.961  22.133   8.250
 5219POPC   C3A26717   1.977  22.121   7.950
 5219POPC   C4A26718   1.952  22.135   7.650
 5219POPC   C1B26719   2.248  21.998   8.550
 5219POPC   C2B26720   2.174  22.047   8.250
 5219POPC   C3B26721   2.188  22.084   7.950
 5219POPC   C4B26722   2.194  22.087   7.650
 5220POPC   NC326723  10.545  36.092   9.450
 5220POPC   PO426724  10.479  36.090   9.150
 5220POPC   GL126725  10.558  36.079   8.850
 5220POPC   GL226726  10.495  36.256   8.850
 5220POPC   C1A26727  10.552  36.175   8.550
 5220POPC   D2A26728  10.558  36.150   8.250
 5220POPC   C3A26729  10.487  36.162   7.950
 5220POPC   C4A26730  10.478  36.082   7.650
 5220POPC   C1B26731  10.486  36.380   8.550
 5220POPC   C2B26732  10.565  36.328   8.250
 5220POPC   C3B26733  10.478  36.341   7.950
 5220POPC   C4B26734  10.489  36.408   7.650
 5221POPC   NC326735  22.177   6.600   9.450
 5221POPC   PO426736  22.115   6.603   9.150
 5221POPC   GL126737  22.199   6.617   8.850
 5221POPC   GL226738  22.102   6.527   8.850
 5221POPC   C1A26739  22.188   6.677   8.550
 5221POPC   D2A26740  22.165   6.688   8.250
 5221POPC   C3A26741  22.168   6.667   7.950
 5221POPC   C4A26742  22.137   6.669   7.650
 5221POPC   C1B26743  22.051   6.409   8.550
 5221POPC   C2B26744  22.123   6.378   8.250
 5221POPC   C3B26745  22.093   6.373   7.950
 5221POPC   C4B26746  22.123   6.379   7.650
 5222POPC   NC326747  40.809  36.155   9.450
 5222POPC   PO426748  40.768  36.141   9.150
 5222POPC   GL126749  40.828  36.136   8.850
 5222POPC   GL226750  40.833  35.984   8.850
 5222POPC   C1A26751  40.791  36.116   8.550
 5222POPC   D2A26752  40.794  36.177   8.250
 5222POPC   C3A26753  40.775  36.115   7.950
 5222POPC   C4A26754  40.780  36.139   7.650
 5222POPC   C1B26755  40.848  35.905   8.550
 5222POPC   C2B26756  40.868  35.922   8.250
 5222POPC   C3B26757  40.844  35.925   7.950
 5222POPC   C4B26758  40.912  35.940   7.650
 5223POPC   NC326759  39.978  15.176   9.450
 5223POPC   PO426760  40.005  15.225   9.150
 5223POPC   GL126761  39.989  15.172   8.850
 5223POPC   GL226762  39.871  15.140   8.850
 5223POPC   C1A26763  39.973  15.134   8.550
 5223POPC   D2A26764  40.015  15.175   8.250
 5223POPC   C3A26765  40.000  15.222   7.950
 5223POPC   C4A26766  40.048  15.162   7.650
 5223POPC   C1B26767  39.803  15.024   8.550
 5223POPC   C2B26768  39.777  15.067   8.250
 5223POPC   C3B26769  39.822  15.035   7.950
 5223POPC   C4B26770  39.851  15.001   7.650
 5224POPC   NC326771  36.950  36.889   9.450
 5224POPC   PO426772  36.860  36.859   9.150
 5224POPC   GL126773  36.902  36.907   8.850
 5224POPC   GL226774  36.799  36.985   8.850
 5224POPC   C1A26775  36.881  36.912   8.550
 5224POPC   D2A26776  36.903  36.894   8.250
 5224POPC   C3A26777  36.897  36.942   7.950
 5224POPC   C4A26778  36.902  36.902   7.650
 5224POPC   C1B26779  36.724  36.991   8.550
 5224POPC   C2B26780  36.677  37.022   8.250
 5224POPC   C3B26781  36.643  37.024   7.950
 5224POPC   C4B26782  36.709  37.056   7.650
 5225POPC   NC326783  16.768  30.689   9.450
 5225POPC   PO426784  16.719  30.668   9.150
 5225POPC   GL126785  16.777  30.736   8.850
 5225POPC   GL226786  16.630  30.816   8.850
 5225POPC   C1A26787  16.717  30.724   8.550
 5225POPC   D2A26788  16.694  30.676   8.250
 5225POPC   C3A26789  16.723  30.697   7.950
 5225POPC   C4A26790  16.766  30.656   7.650
 5225POPC   C1B26791  16.592  30.890   8.550
 5225POPC   C2B26792  16.633  30.897   8.250
 5225POPC   C3B26793  16.645  30.963   7.950
 5225POPC   C4B26794  16.603  30.955   7.650
 5226POPC   NC326795   8.200  16.775   9.450
 5226POPC   PO426796   8.201  16.764   9.150
 5226POPC   GL126797   8.165  16.774   8.850
 5226POPC   GL226798   8.255  16.848   8.850
 5226POPC   C1A26799   8.218  16.681   8.550
 5226POPC   D2A26800   8.178  16.703   8.250
 5226POPC   C3A26801   8.182  16.726   7.950
 5226POPC   C4A26802   8.208  16.716   7.650
 5226POPC   C1B26803   8.427  16.819   8.550
 5226POPC   C2B26804   8.448  16.895   8.250
 5226POPC   C3B26805   8.412  16.827   7.950
 5226POPC   C4B26806   8.428  16.870   7.650
 5227POPC   NC326807  15.976  43.114   9.450
 5227POPC   PO426808  15.912  43.147   9.150
 5227POPC   GL126809  15.929  43.078   8.850
 5227POPC   GL226810  16.035  42.955   8.850
 5227POPC   C1A26811  15.936  43.109   8.550
 5227POPC   D2A26812  15.950  43.093   8.250
 5227POPC   C3A26813  15.929  43.132   7.950
 5227POPC   C4A26814  15.993  43.120   7.650
 5227POPC   C1B26815  16.059  42.855   8.550
 5227POPC   C2B26816  16.029  42.823   8.250
 5227POPC   C3B26817  15.983  42.830   7.950
 5227POPC   C4B26818  15.989  42.843   7.650
 5228POPC   NC326819  33.777  44.663   9.450
 5228POPC   PO426820  33.777  44.653   9.150
 5228POPC   GL126821  33.809  44.691   8.850
 5228POPC   GL226822  33.791  44.804   8.850
 5228POPC   C1A26823  33.804  44.624   8.550
 5228POPC   D2A26824  33.752  44.703   8.250
 5228POPC   C3A26825  33.842  44.646   7.950
 5228POPC   C4A26826  33.760  44.651   7.650
 5228POPC   C1B26827  33.827  44.929   8.550
 5228POPC   C2B26828  33.874  44.892   8.250
 5228POPC   C3B26829  33.808  44.882   7.950
 5228POPC   C4B26830  33.833  44.921   7.650
 5229POPC   NC326831  40.021  17.531   9.450
 5229POPC   PO426832  40.010  17.473   9.150
 5229POPC   GL126833  39.993  17.516   8.850
 5229POPC   GL226834  40.132  17.489   8.850
 5229POPC   C1A26835  39.993  17.536   8.550
 5229POPC   D2A26836  40.032  17.527   8.250
 5229POPC   C3A26837  40.038  17.547   7.950
 5229POPC   C4A26838  40.038  17.523   7.650
 5229POPC   C1B26839  40.224  17.531   8.550
 5229POPC   C2B26840  40.246  17.537   8.250
 5229POPC   C3B26841  40.251  17.554   7.950
 5229POPC   C4B26842  40.261  17.573   7.650
 5230POPC   NC326843  23.715  27.641   9.450
 5230POPC   PO426844  23.722  27.599   9.150
 5230POPC   GL126845  23.672  27.569   8.850
 5230POPC   GL226846  23.659  27.725   8.850
 5230POPC   C1A26847  23.738  27.569   8.550
 5230POPC   D2A26848  23.757  27.642   8.250
 5230POPC   C3A26849  23.705  27.598   7.950
 5230POPC   C4A26850  23.726  27.601   7.650
 5230POPC   C1B26851  23.624  27.783   8.550
 5230POPC   C2B26852  23.644  27.789   8.250
 5230POPC   C3B26853  23.619  27.782   7.950
 5230POPC   C4B26854  23.584  27.786   7.650
 5231POPC   NC326855  39.967   8.187   9.450
 5231POPC   PO426856  40.025   8.194   9.150
 5231POPC   GL126857  40.024   8.191   8.850
 5231POPC   GL226858  39.948   8.117   8.850
 5231POPC   C1A26859  39.979   8.201   8.550
 5231POPC   D2A26860  40.007   8.179   8.250
 5231POPC   C3A26861  39.983   8.214   7.950
 5231POPC   C4A26862  39.995   8.208   7.650
 5231POPC   C1B26863  39.862   8.006   8.550
 5231POPC   C2B26864  39.810   8.054   8.250
 5231POPC   C3B26865  39.891   8.033   7.950
 5231POPC   C4B26866  39.846   8.005   7.650
 5232POPC   NC326867  19.060  29.151   9.450
 5232POPC   PO426868  19.074  29.160   9.150
 5232POPC   GL126869  19.053  29.102   8.850
 5232POPC   GL226870  19.061  29.282   8.850
 5232POPC   C1A26871  19.095  29.125   8.550
 5232POPC   D2A26872  19.039  29.155   8.250
 5232POPC   C3A26873  19.011  29.136   7.950
 5232POPC   C4A26874  19.071  29.183   7.650
 5232POPC   C1B26875  19.064  29.366   8.550
 5232POPC   C2B26876  19.116  29.441   8.250
 5232POPC   C3B26877  19.048  29.365   7.950
 5232POPC   C4B26878  19.072  29.345   7.650
 5233POPC   NC326879  42.294  30.721   9.450
 5233POPC   PO426880  42.381  30.741   9.150
 5233POPC   GL126881  42.323  30.679   8.850
 5233POPC   GL226882  42.388  30.569   8.850
 5233POPC   C1A26883  42.364  30.647   8.550
 5233POPC   D2A26884  42.367  30.671   8.250
 5233POPC   C3A26885  42.382  30.657   7.950
 5233POPC   C4A26886  42.310  30.745   7.650
 5233POPC   C1B26887  42.377  30.458   8.550
 5233POPC   C2B26888  42.371  30.433   8.250
 5233POPC   C3B26889  42.393  30.499   7.950
 5233POPC   C4B26890  42.385  30.446   7.650
 5234POPC   NC326891  22.126  32.215   9.450
 5234POPC   PO426892  22.141  32.253   9.150
 5234POPC   GL126893  22.114  32.275   8.850
 5234POPC   GL226894  22.279  32.322   8.850
 5234POPC   C1A26895  22.168  32.267   8.550
 5234POPC   D2A26896  22.155  32.227   8.250
 5234POPC   C3A26897  22.177  32.275   7.950
 5234POPC   C4A26898  22.196  32.226   7.650
 5234POPC   C1B26899  22.313  32.416   8.550
 5234POPC   C2B26900  22.381  32.451   8.250
 5234POPC   C3B26901  22.326  32.439   7.950
 5234POPC   C4B26902  22.322  32.463   7.650
 5235POPC   NC326903  39.255  17.521   9.450
 5235POPC   PO426904  39.245  17.478   9.150
 5235POPC   GL126905  39.216  17.469   8.850
 5235POPC   GL226906  39.322  17.448   8.850
 5235POPC   C1A26907  39.214  17.459   8.550
 5235POPC   D2A26908  39.228  17.510   8.250
 5235POPC   C3A26909  39.257  17.492   7.950
 5235POPC   C4A26910  39.246  17.496   7.650
 5235POPC   C1B26911  39.328  17.301   8.550
 5235POPC   C2B26912  39.319  17.274   8.250
 5235POPC   C3B26913  39.346  17.289   7.950
 5235POPC   C4B26914  39.366  17.250   7.650
 5236POPC   NC326915  39.193  28.393   9.450
 5236POPC   PO426916  39.229  28.372   9.150
 5236POPC   GL126917  39.213  28.345   8.850
 5236POPC   GL226918  39.282  28.243   8.850
 5236POPC   C1A26919  39.248  28.336   8.550
 5236POPC   D2A26920  39.239  28.343   8.250
 5236POPC   C3A26921  39.251  28.332   7.950
 5236POPC   C4A26922  39.199  28.325   7.650
 5236POPC   C1B26923  39.282  28.087   8.550
 5236POPC   C2B26924  39.277  28.145   8.250
 5236POPC   C3B26925  39.232  28.122   7.950
 5236POPC   C4B26926  39.254  28.159   7.650
 5237POPC   NC326927  34.550  28.409   9.450
 5237POPC   PO426928  34.549  28.329   9.150
 5237POPC   GL126929  34.559  28.356   8.850
 5237POPC   GL226930  34.526  28.486   8.850
 5237POPC   C1A26931  34.586  28.353   8.550
 5237POPC   D2A26932  34.597  28.390   8.250
 5237POPC   C3A26933  34.591  28.386   7.950
 5237POPC   C4A26934  34.531  28.331   7.650
 5237POPC   C1B26935  34.608  28.645   8.550
 5237POPC   C2B26936  34.518  28.583   8.250
 5237POPC   C3B26937  34.604  28.600   7.950
 5237POPC   C4B26938  34.516  28.633   7.650
 5238POPC   NC326939   3.553   6.670   9.450
 5238POPC   PO426940   3.557   6.626   9.150
 5238POPC   GL126941   3.500   6.672   8.850
 5238POPC   GL226942   3.680   6.715   8.850
 5238POPC   C1A26943   3.543   6.685   8.550
 5238POPC   D2A26944   3.522   6.599   8.250
 5238POPC   C3A26945   3.509   6.599   7.950
 5238POPC   C4A26946   3.548   6.641   7.650
 5238POPC   C1B26947   3.788   6.734   8.550
 5238POPC   C2B26948   3.769   6.653   8.250
 5238POPC   C3B26949   3.804   6.705   7.950
 5238POPC   C4B26950   3.740   6.703   7.650
 5239POPC   NC326951  19.096  36.879   9.450
 5239POPC   PO426952  19.057  36.904   9.150
 5239POPC   GL126953  19.059  36.866   8.850
 5239POPC   GL226954  19.056  36.764   8.850
 5239POPC   C1A26955  19.092  36.900   8.550
 5239POPC   D2A26956  19.020  36.855   8.250
 5239POPC   C3A26957  19.109  36.904   7.950
 5239POPC   C4A26958  19.089  36.901   7.650
 5239POPC   C1B26959  19.007  36.678   8.550
 5239POPC   C2B26960  19.002  36.644   8.250
 5239POPC   C3B26961  18.986  36.665   7.950
 5239POPC   C4B26962  18.972  36.650   7.650
 5240POPC   NC326963  26.787  19.794   9.450
 5240POPC   PO426964  26.807  19.825   9.150
 5240POPC   GL126965  26.809  19.866   8.850
 5240POPC   GL226966  26.676  19.863   8.850
 5240POPC   C1A26967  26.769  19.869   8.550
 5240POPC   D2A26968  26.835  19.793   8.250
 5240POPC   C3A26969  26.778  19.867   7.950
 5240POPC   C4A26970  26.779  19.806   7.650
 5240POPC   C1B26971  26.600  19.844   8.550
 5240POPC   C2B26972  26.569  19.863   8.250
 5240POPC   C3B26973  26.523  19.827   7.950
 5240POPC   C4B26974  26.524  19.857   7.650
 5241POPC   NC326975  37.660  15.152   9.450
 5241POPC   PO426976  37.672  15.215   9.150
 5241POPC   GL126977  37.647  15.189   8.850
 5241POPC   GL226978  37.641  15.330   8.850
 5241POPC   C1A26979  37.693  15.151   8.550
 5241POPC   D2A26980  37.655  15.212   8.250
 5241POPC   C3A26981  37.702  15.153   7.950
 5241POPC   C4A26982  37.705  15.161   7.650
 5241POPC   C1B26983  37.650  15.405   8.550
 5241POPC   C2B26984  37.597  15.394   8.250
 5241POPC   C3B26985  37.577  15.450   7.950
 5241POPC   C4B26986  37.599  15.443   7.650
 5242POPC   NC326987  12.859  17.523   9.450
 5242POPC   PO426988  12.824  17.553   9.150
 5242POPC   GL126989  12.888  17.528   8.850
 5242POPC   GL226990  12.775  17.399   8.850
 5242POPC   C1A26991  12.817  17.458   8.550
 5242POPC   D2A26992  12.806  17.529   8.250
 5242POPC   C3A26993  12.854  17.526   7.950
 5242POPC   C4A26994  12.881  17.470   7.650
 5242POPC   C1B26995  12.605  17.337   8.550
 5242POPC   C2B26996  12.635  17.326   8.250
 5242POPC   C3B26997  12.662  17.350   7.950
 5242POPC   C4B26998  12.658  17.370   7.650
 5243POPC   NC326999   4.331  12.027   9.450
 5243POPC   PO427000   4.304  12.100   9.150
 5243POPC   GL127001   4.278  12.038   8.850
 5243POPC   GL227002   4.316  12.206   8.850
 5243POPC   C1A27003   4.293  12.048   8.550
 5243POPC   D2A27004   4.364  12.103   8.250
 5243POPC   C3A27005   4.299  12.063   7.950
 5243POPC   C4A27006   4.291  12.044   7.650
 5243POPC   C1B27007   4.247  12.268   8.550
 5243POPC   C2B27008   4.241  12.277   8.250
 5243POPC   C3B27009   4.204  12.294   7.950
 5243POPC   C4B27010   4.266  12.342   7.650
 5244POPC   NC327011  16.737  14.413   9.450
 5244POPC   PO427012  16.749  14.393   9.150
 5244POPC   GL127013  16.734  14.424   8.850
 5244POPC   GL227014  16.887  14.413   8.850
 5244POPC   C1A27015  16.765  14.415   8.550
 5244POPC   D2A27016  16.722  14.388   8.250
 5244POPC   C3A27017  16.712  14.449   7.950
 5244POPC   C4A27018  16.725  14.361   7.650
 5244POPC   C1B27019  17.029  14.378   8.550
 5244POPC   C2B27020  16.972  14.365   8.250
 5244POPC   C3B27021  16.970  14.340   7.950
 5244POPC   C4B27022  16.998  14.365   7.650
 5245POPC   NC327023  22.169  20.659   9.450
 5245POPC   PO427024  22.127  20.563   9.150
 5245POPC   GL127025  22.138  20.660   8.850
 5245POPC   GL227026  22.192  20.709   8.850
 5245POPC   C1A27027  22.120  20.637   8.550
 5245POPC   D2A27028  22.179  20.631   8.250
 5245POPC   C3A27029  22.157  20.617   7.950
 5245POPC   C4A27030  22.131  20.565   7.650
 5245POPC   C1B27031  22.125  20.897   8.550
 5245POPC   C2B27032  22.202  20.826   8.250
 5245POPC   C3B27033  22.202  20.829   7.950
 5245POPC   C4B27034  22.164  20.822   7.650
 5246POPC   NC327035  36.895  40.035   9.450
 5246POPC   PO427036  36.898  40.006   9.150
 5246POPC   GL127037  36.855  40.024   8.850
 5246POPC   GL227038  36.924  39.924   8.850
 5246POPC   C1A27039  36.948  39.981   8.550
 5246POPC   D2A27040  36.873  39.971   8.250
 5246POPC   C3A27041  36.930  40.043   7.950
 5246POPC   C4A27042  36.927  39.985   7.650
 5246POPC   C1B27043  36.983  39.778   8.550
 5246POPC   C2B27044  36.950  39.742   8.250
 5246POPC   C3B27045  36.912  39.723   7.950
 5246POPC   C4B27046  36.935  39.788   7.650
 5247POPC   NC327047  23.675  24.493   9.450
 5247POPC   PO427048  23.760  24.445   9.150
 5247POPC   GL127049  23.671  24.487   8.850
 5247POPC   GL227050  23.810  24.375   8.850
 5247POPC   C1A27051  23.671  24.490   8.550
 5247POPC   D2A27052  23.743  24.491   8.250
 5247POPC   C3A27053  23.675  24.525   7.950
 5247POPC   C4A27054  23.720  24.469   7.650
 5247POPC   C1B27055  23.803  24.262   8.550
 5247POPC   C2B27056  23.761  24.231   8.250
 5247POPC   C3B27057  23.802  24.236   7.950
 5247POPC   C4B27058  23.795  24.282   7.650
 5248POPC   NC327059  43.917  43.909   9.450
 5248POPC   PO427060  43.868  43.849   9.150
 5248POPC   GL127061  43.905  43.904   8.850
 5248POPC   GL227062  44.034  43.863   8.850
 5248POPC   C1A27063  43.882  43.867   8.550
 5248POPC   D2A27064  43.927  43.878   8.250
 5248POPC   C3A27065  43.858  43.914   7.950
 5248POPC   C4A27066  43.838  43.893   7.650
 5248POPC   C1B27067  44.123  43.838   8.550
 5248POPC   C2B27068  44.093  43.805   8.250
 5248POPC   C3B27069  44.129  43.778   7.950
 5248POPC   C4B27070  44.075  43.823   7.650
 5249POPC   NC327071  33.811  20.594   9.450
 5249POPC   PO427072  33.765  20.591   9.150
 5249POPC   GL127073  33.763  20.647   8.850
 5249POPC   GL227074  33.867  20.684   8.850
 5249POPC   C1A27075  33.812  20.585   8.550
 5249POPC   D2A27076  33.807  20.568   8.250
 5249POPC   C3A27077  33.832  20.575   7.950
 5249POPC   C4A27078  33.809  20.574   7.650
 5249POPC   C1B27079  33.963  20.765   8.550
 5249POPC   C2B27080  33.995  20.773   8.250
 5249POPC   C3B27081  34.052  20.769   7.950
 5249POPC   C4B27082  33.968  20.722   7.650
 5250POPC   NC327083   0.428  42.335   9.450
 5250POPC   PO427084   0.446  42.381   9.150
 5250POPC   GL127085   0.449  42.319   8.850
 5250POPC   GL227086   0.470  42.190   8.850
 5250POPC   C1A27087   0.391  42.343   8.550
 5250POPC   D2A27088   0.427  42.299   8.250
 5250POPC   C3A27089   0.460  42.346   7.950
 5250POPC   C4A27090   0.446  42.291   7.650
 5250POPC   C1B27091   0.470  42.042   8.550
 5250POPC   C2B27092   0.436  42.095   8.250
 5250POPC   C3B27093   0.426  42.050   7.950
 5250POPC   C4B27094   0.465  42.090   7.650
 5251POPC   NC327095   7.379  42.287   9.450
 5251POPC   PO427096   7.408  42.305   9.150
 5251POPC   GL127097   7.393  42.353   8.850
 5251POPC   GL227098   7.473  42.287   8.850
 5251POPC   C1A27099   7.431  42.338   8.550
 5251POPC   D2A27100   7.450  42.363   8.250
 5251POPC   C3A27101   7.452  42.375   7.950
 5251POPC   C4A27102   7.408  42.349   7.650
 5251POPC   C1B27103   7.612  42.157   8.550
 5251POPC   C2B27104   7.657  42.146   8.250
 5251POPC   C3B27105   7.655  42.159   7.950
 5251POPC   C4B27106   7.573  42.205   7.650
 5252POPC   NC327107  36.867  11.330   9.450
 5252POPC   PO427108  36.885  11.271   9.150
 5252POPC   GL127109  36.896  11.323   8.850
 5252POPC   GL227110  36.924  11.360   8.850
 5252POPC   C1A27111  36.870  11.287   8.550
 5252POPC   D2A27112  36.905  11.296   8.250
 5252POPC   C3A27113  36.945  11.297   7.950
 5252POPC   C4A27114  36.941  11.258   7.650
 5252POPC   C1B27115  37.081  11.498   8.550
 5252POPC   C2B27116  37.042  11.495   8.250
 5252POPC   C3B27117  36.996  11.560   7.950
 5252POPC   C4B27118  37.039  11.474   7.650
 5253POPC   NC327119  37.704  33.845   9.450
 5253POPC   PO427120  37.634  33.839   9.150
 5253POPC   GL127121  37.666  33.832   8.850
 5253POPC   GL227122  37.585  33.835   8.850
 5253POPC   C1A27123  37.636  33.831   8.550
 5253POPC   D2A27124  37.712  33.777   8.250
 5253POPC   C3A27125  37.727  33.843   7.950
 5253POPC   C4A27126  37.700  33.760   7.650
 5253POPC   C1B27127  37.438  33.811   8.550
 5253POPC   C2B27128  37.405  33.835   8.250
 5253POPC   C3B27129  37.427  33.818   7.950
 5253POPC   C4B27130  37.459  33.851   7.650
 5254POPC   NC327131  11.311  24.498   9.450
 5254POPC   PO427132  11.338  24.457   9.150
 5254POPC   GL127133  11.262  24.513   8.850
 5254POPC   GL227134  11.229  24.370   8.850
 5254POPC   C1A27135  11.261  24.467   8.550
 5254POPC   D2A27136  11.327  24.537   8.250
 5254POPC   C3A27137  11.311  24.523   7.950
 5254POPC   C4A27138  11.333  24.539   7.650
 5254POPC   C1B27139  11.271  24.198   8.550
 5254POPC   C2B27140  11.225  24.211   8.250
 5254POPC   C3B27141  11.238  24.246   7.950
 5254POPC   C4B27142  11.295  24.230   7.650
 5255POPC   NC327143  35.306  42.375   9.450
 5255POPC   PO427144  35.319  42.328   9.150
 5255POPC   GL127145  35.371  42.372   8.850
 5255POPC   GL227146  35.346  42.187   8.850
 5255POPC   C1A27147  35.364  42.375   8.550
 5255POPC   D2A27148  35.352  42.366   8.250
 5255POPC   C3A27149  35.367  42.306   7.950
 5255POPC   C4A27150  35.383  42.369   7.650
 5255POPC   C1B27151  35.365  42.133   8.550
 5255POPC   C2B27152  35.365  42.098   8.250
 5255POPC   C3B27153  35.357  42.060   7.950
 5255POPC   C4B27154  35.452  42.106   7.650
 5256POPC   NC327155  29.961  33.815   9.450
 5256POPC   PO427156  29.871  33.784   9.150
 5256POPC   GL127157  29.909  33.849   8.850
 5256POPC   GL227158  29.987  33.905   8.850
 5256POPC   C1A27159  29.886  33.760   8.550
 5256POPC   D2A27160  29.916  33.843   8.250
 5256POPC   C3A27161  29.949  33.786   7.950
 5256POPC   C4A27162  29.883  33.773   7.650
 5256POPC   C1B27163  30.022  34.009   8.550
 5256POPC   C2B27164  30.018  33.967   8.250
 5256POPC   C3B27165  30.080  33.980   7.950
 5256POPC   C4B27166  30.028  34.031   7.650
 5257POPC   NC327167  19.809   4.275   9.450
 5257POPC   PO427168  19.863   4.269   9.150
 5257POPC   GL127169  19.843   4.272   8.850
 5257POPC   GL227170  19.725   4.392   8.850
 5257POPC   C1A27171  19.809   4.324   8.550
 5257POPC   D2A27172  19.795   4.303   8.250
 5257POPC   C3A27173  19.826   4.322   7.950
 5257POPC   C4A27174  19.785   4.362   7.650
 5257POPC   C1B27175  19.697   4.539   8.550
 5257POPC   C2B27176  19.700   4.468   8.250
 5257POPC   C3B27177  19.607   4.498   7.950
 5257POPC   C4B27178  19.659   4.446   7.650
 5258POPC   NC327179  32.993  29.946   9.450
 5258POPC   PO427180  33.011  29.929   9.150
 5258POPC   GL127181  32.978  29.882   8.850
 5258POPC   GL227182  33.022  30.044   8.850
 5258POPC   C1A27183  32.986  29.889   8.550
 5258POPC   D2A27184  32.986  29.928   8.250
 5258POPC   C3A27185  33.068  29.970   7.950
 5258POPC   C4A27186  33.058  29.929   7.650
 5258POPC   C1B27187  32.983  30.207   8.550
 5258POPC   C2B27188  32.936  30.205   8.250
 5258POPC   C3B27189  32.963  30.194   7.950
 5258POPC   C4B27190  33.002  30.172   7.650
 5259POPC   NC327191  26.800  20.655   9.450
 5259POPC   PO427192  26.856  20.588   9.150
 5259POPC   GL127193  26.776  20.642   8.850
 5259POPC   GL227194  26.943  20.471   8.850
 5259POPC   C1A27195  26.838  20.646   8.550
 5259POPC   D2A27196  26.786  20.572   8.250
 5259POPC   C3A27197  26.798  20.631   7.950
 5259POPC   C4A27198  26.811  20.602   7.650
 5259POPC   C1B27199  26.949  20.462   8.550
 5259POPC   C2B27200  27.002  20.388   8.250
 5259POPC   C3B27201  26.929  20.407   7.950
 5259POPC   C4B27202  26.989  20.418   7.650
 5260POPC   NC327203   4.269  33.004   9.450
 5260POPC   PO427204   4.281  33.046   9.150
 5260POPC   GL127205   4.302  33.030   8.850
 5260POPC   GL227206   4.306  32.893   8.850
 5260POPC   C1A27207   4.285  32.986   8.550
 5260POPC   D2A27208   4.352  32.977   8.250
 5260POPC   C3A27209   4.354  33.049   7.950
 5260POPC   C4A27210   4.294  33.049   7.650
 5260POPC   C1B27211   4.268  32.736   8.550
 5260POPC   C2B27212   4.265  32.819   8.250
 5260POPC   C3B27213   4.246  32.750   7.950
 5260POPC   C4B27214   4.282  32.785   7.650
 5261POPC   NC327215  24.465  39.996   9.450
 5261POPC   PO427216  24.495  40.027   9.150
 5261POPC   GL127217  24.505  39.978   8.850
 5261POPC   GL227218  24.442  39.850   8.850
 5261POPC   C1A27219  24.532  40.016   8.550
 5261POPC   D2A27220  24.458  40.044   8.250
 5261POPC   C3A27221  24.443  39.998   7.950
 5261POPC   C4A27222  24.494  39.994   7.650
 5261POPC   C1B27223  24.363  39.760   8.550
 5261POPC   C2B27224  24.411  39.820   8.250
 5261POPC   C3B27225  24.335  39.841   7.950
 5261POPC   C4B27226  24.349  39.822   7.650
 5262POPC   NC327227  28.337  20.580   9.450
 5262POPC   PO427228  28.392  20.609   9.150
 5262POPC   GL127229  28.392  20.636   8.850
 5262POPC   GL227230  28.272  20.749   8.850
 5262POPC   C1A27231  28.411  20.607   8.550
 5262POPC   D2A27232  28.399  20.592   8.250
 5262POPC   C3A27233  28.331  20.646   7.950
 5262POPC   C4A27234  28.382  20.620   7.650
 5262POPC   C1B27235  28.259  20.865   8.550
 5262POPC   C2B27236  28.266  20.872   8.250
 5262POPC   C3B27237  28.275  20.872   7.950
 5262POPC   C4B27238  28.276  20.803   7.650
 5263POPC   NC327239  37.666  43.144   9.450
 5263POPC   PO427240  37.680  43.086   9.150
 5263POPC   GL127241  37.677  43.122   8.850
 5263POPC   GL227242  37.756  43.003   8.850
 5263POPC   C1A27243  37.721  43.119   8.550
 5263POPC   D2A27244  37.660  43.137   8.250
 5263POPC   C3A27245  37.720  43.105   7.950
 5263POPC   C4A27246  37.669  43.084   7.650
 5263POPC   C1B27247  37.745  42.834   8.550
 5263POPC   C2B27248  37.794  42.912   8.250
 5263POPC   C3B27249  37.773  42.903   7.950
 5263POPC   C4B27250  37.744  42.877   7.650
 5264POPC   NC327251   1.173  20.634   9.450
 5264POPC   PO427252   1.191  20.657   9.150
 5264POPC   GL127253   1.210  20.582   8.850
 5264POPC   GL227254   1.253  20.503   8.850
 5264POPC   C1A27255   1.250  20.625   8.550
 5264POPC   D2A27256   1.168  20.656   8.250
 5264POPC   C3A27257   1.194  20.639   7.950
 5264POPC   C4A27258   1.221  20.627   7.650
 5264POPC   C1B27259   1.262  20.366   8.550
 5264POPC   C2B27260   1.330  20.342   8.250
 5264POPC   C3B27261   1.280  20.383   7.950
 5264POPC   C4B27262   1.291  20.342   7.650
 5265POPC   NC327263  44.709  42.297   9.450
 5265POPC   PO427264  44.624  42.383   9.150
 5265POPC   GL127265  44.648  42.289   8.850
 5265POPC   GL227266  44.543  42.334   8.850
 5265POPC   C1A27267  44.619  42.333   8.550
 5265POPC   D2A27268  44.623  42.361   8.250
 5265POPC   C3A27269  44.643  42.313   7.950
 5265POPC   C4A27270  44.682  42.285   7.650
 5265POPC   C1B27271  44.416  42.356   8.550
 5265POPC   C2B27272  44.371  42.369   8.250
 5265POPC   C3B27273  44.391  42.410   7.950
 5265POPC   C4B27274  44.381  42.408   7.650
 5266POPC   NC327275  26.786   4.305   9.450
 5266POPC   PO427276  26.824   4.323   9.150
 5266POPC   GL127277  26.850   4.349   8.850
 5266POPC   GL227278  26.747   4.171   8.850
 5266POPC   C1A27279  26.803   4.344   8.550
 5266POPC   D2A27280  26.845   4.317   8.250
 5266POPC   C3A27281  26.776   4.317   7.950
 5266POPC   C4A27282  26.842   4.318   7.650
 5266POPC   C1B27283  26.696   4.053   8.550
 5266POPC   C2B27284  26.682   4.111   8.250
 5266POPC   C3B27285  26.691   4.070   7.950
 5266POPC   C4B27286  26.700   4.044   7.650
 5267POPC   NC327287  36.882  33.822   9.450
 5267POPC   PO427288  36.896  33.830   9.150
 5267POPC   GL127289  36.863  33.825   8.850
 5267POPC   GL227290  36.842  33.842   8.850
 5267POPC   C1A27291  36.908  33.845   8.550
 5267POPC   D2A27292  36.939  33.848   8.250
 5267POPC   C3A27293  36.899  33.800   7.950
 5267POPC   C4A27294  36.871  33.847   7.650
 5267POPC   C1B27295  36.693  33.914   8.550
 5267POPC   C2B27296  36.655  33.982   8.250
 5267POPC   C3B27297  36.667  33.941   7.950
 5267POPC   C4B27298  36.662  33.913   7.650
 5268POPC   NC327299  38.481  19.869   9.450
 5268POPC   PO427300  38.417  19.864   9.150
 5268POPC   GL127301  38.425  19.795   8.850
 5268POPC   GL227302  38.293  19.914   8.850
 5268POPC   C1A27303  38.469  19.865   8.550
 5268POPC   D2A27304  38.423  19.870   8.250
 5268POPC   C3A27305  38.409  19.806   7.950
 5268POPC   C4A27306  38.435  19.807   7.650
 5268POPC   C1B27307  38.272  19.932   8.550
 5268POPC   C2B27308  38.258  19.936   8.250
 5268POPC   C3B27309  38.267  19.957   7.950
 5268POPC   C4B27310  38.233  19.895   7.650
 5269POPC   NC327311  36.904  10.491   9.450
 5269POPC   PO427312  36.907  10.573   9.150
 5269POPC   GL127313  36.876  10.561   8.850
 5269POPC   GL227314  37.017  10.628   8.850
 5269POPC   C1A27315  36.936  10.517   8.550
 5269POPC   D2A27316  36.947  10.482   8.250
 5269POPC   C3A27317  36.941  10.491   7.950
 5269POPC   C4A27318  36.941  10.518   7.650
 5269POPC   C1B27319  37.139  10.673   8.550
 5269POPC   C2B27320  37.129  10.675   8.250
 5269POPC   C3B27321  37.116  10.681   7.950
 5269POPC   C4B27322  37.135  10.625   7.650
 5270POPC   NC327323  29.913  12.049   9.450
 5270POPC   PO427324  29.952  12.028   9.150
 5270POPC   GL127325  29.885  12.116   8.850
 5270POPC   GL227326  29.823  12.049   8.850
 5270POPC   C1A27327  29.910  12.040   8.550
 5270POPC   D2A27328  29.891  12.078   8.250
 5270POPC   C3A27329  29.937  12.084   7.950
 5270POPC   C4A27330  29.890  12.043   7.650
 5270POPC   C1B27331  29.664  12.043   8.550
 5270POPC   C2B27332  29.651  11.994   8.250
 5270POPC   C3B27333  29.664  12.015   7.950
 5270POPC   C4B27334  29.654  11.993   7.650
 5271POPC   NC327335   7.377  12.090   9.450
 5271POPC   PO427336   7.412  12.096   9.150
 5271POPC   GL127337   7.466  12.046   8.850
 5271POPC   GL227338   7.337  11.956   8.850
 5271POPC   C1A27339   7.469  12.102   8.550
 5271POPC   D2A27340   7.441  12.111   8.250
 5271POPC   C3A27341   7.452  12.107   7.950
 5271POPC   C4A27342   7.413  12.031   7.650
 5271POPC   C1B27343   7.193  11.954   8.550
 5271POPC   C2B27344   7.225  11.971   8.250
 5271POPC   C3B27345   7.199  11.956   7.950
 5271POPC   C4B27346   7.250  11.978   7.650
 5272POPC   NC327347  15.218   1.181   9.450
 5272POPC   PO427348  15.222   1.209   9.150
 5272POPC   GL127349  15.185   1.204   8.850
 5272POPC   GL227350  15.139   1.086   8.850
 5272POPC   C1A27351  15.141   1.237   8.550
 5272POPC   D2A27352  15.199   1.212   8.250
 5272POPC   C3A27353  15.217   1.244   7.950
 5272POPC   C4A27354  15.177   1.245   7.650
 5272POPC   C1B27355  15.141   0.939   8.550
 5272POPC   C2B27356  15.052   0.930   8.250
 5272POPC   C3B27357  15.065   0.936   7.950
 5272POPC   C4B27358  15.078   1.019   7.650
 5273POPC   NC327359   8.928  11.301   9.450
 5273POPC   PO427360   9.012  11.293   9.150
 5273POPC   GL127361   8.949  11.349   8.850
 5273POPC   GL227362   8.831  11.215   8.850
 5273POPC   C1A27363   8.986  11.316   8.550
 5273POPC   D2A27364   8.986  11.344   8.250
 5273POPC   C3A27365   9.000  11.287   7.950
 5273POPC   C4A27366   8.983  11.319   7.650
 5273POPC   C1B27367   8.779  11.245   8.550
 5273POPC   C2B27368   8.767  11.246   8.250
 5273POPC   C3B27369   8.751  11.177   7.950
 5273POPC   C4B27370   8.766  11.204   7.650
 5274POPC   NC327371  14.417  19.807   9.450
 5274POPC   PO427372  14.384  19.854   9.150
 5274POPC   GL127373  14.419  19.824   8.850
 5274POPC   GL227374  14.449  19.939   8.850
 5274POPC   C1A27375  14.385  19.872   8.550
 5274POPC   D2A27376  14.365  19.845   8.250
 5274POPC   C3A27377  14.422  19.871   7.950
 5274POPC   C4A27378  14.449  19.802   7.650
 5274POPC   C1B27379  14.455  20.096   8.550
 5274POPC   C2B27380  14.456  20.065   8.250
 5274POPC   C3B27381  14.426  20.044   7.950
 5274POPC   C4B27382  14.393  20.130   7.650
 5275POPC   NC327383   8.981  32.286   9.450
 5275POPC   PO427384   8.922  32.277   9.150
 5275POPC   GL127385   9.014  32.211   8.850
 5275POPC   GL227386   9.093  32.312   8.850
 5275POPC   C1A27387   9.003  32.229   8.550
 5275POPC   D2A27388   8.961  32.248   8.250
 5275POPC   C3A27389   8.948  32.232   7.950
 5275POPC   C4A27390   8.944  32.205   7.650
 5275POPC   C1B27391   9.163  32.422   8.550
 5275POPC   C2B27392   9.193  32.394   8.250
 5275POPC   C3B27393   9.188  32.416   7.950
 5275POPC   C4B27394   9.199  32.414   7.650
 5276POPC   NC327395  11.255  40.760   9.450
 5276POPC   PO427396  11.252  40.773   9.150
 5276POPC   GL127397  11.292  40.824   8.850
 5276POPC   GL227398  11.364  40.881   8.850
 5276POPC   C1A27399  11.253  40.798   8.550
 5276POPC   D2A27400  11.287  40.779   8.250
 5276POPC   C3A27401  11.307  40.737   7.950
 5276POPC   C4A27402  11.300  40.734   7.650
 5276POPC   C1B27403  11.551  40.897   8.550
 5276POPC   C2B27404  11.549  40.955   8.250
 5276POPC   C3B27405  11.481  40.975   7.950
 5276POPC   C4B27406  11.553  40.970   7.650
 5277POPC   NC327407  19.847  17.543   9.450
 5277POPC   PO427408  19.867  17.526   9.150
 5277POPC   GL127409  19.826  17.519   8.850
 5277POPC   GL227410  19.763  17.476   8.850
 5277POPC   C1A27411  19.862  17.467   8.550
 5277POPC   D2A27412  19.882  17.494   8.250
 5277POPC   C3A27413  19.880  17.513   7.950
 5277POPC   C4A27414  19.862  17.543   7.650
 5277POPC   C1B27415  19.565  17.437   8.550
 5277POPC   C2B27416  19.619  17.415   8.250
 5277POPC   C3B27417  19.596  17.431   7.950
 5277POPC   C4B27418  19.581  17.445   7.650
 5278POPC   NC327419  24.507   3.554   9.450
 5278POPC   PO427420  24.455   3.509   9.150
 5278POPC   GL127421  24.487   3.556   8.850
 5278POPC   GL227422  24.553   3.512   8.850
 5278POPC   C1A27423  24.454   3.515   8.550
 5278POPC   D2A27424  24.513   3.525   8.250
 5278POPC   C3A27425  24.532   3.522   7.950
 5278POPC   C4A27426  24.500   3.584   7.650
 5278POPC   C1B27427  24.711   3.354   8.550
 5278POPC   C2B27428  24.710   3.355   8.250
 5278POPC   C3B27429  24.692   3.375   7.950
 5278POPC   C4B27430  24.739   3.380   7.650
 5279POPC   NC327431   8.941  36.912   9.450
 5279POPC   PO427432   8.937  36.941   9.150
 5279POPC   GL127433   9.013  36.941   8.850
 5279POPC   GL227434   8.950  36.987   8.850
 5279POPC   C1A27435   8.992  36.882   8.550
 5279POPC   D2A27436   8.996  36.941   8.250
 5279POPC   C3A27437   8.960  36.951   7.950
 5279POPC   C4A27438   9.010  36.906   7.650
 5279POPC   C1B27439   8.931  37.181   8.550
 5279POPC   C2B27440   8.940  37.122   8.250
 5279POPC   C3B27441   8.956  37.140   7.950
 5279POPC   C4B27442   8.916  37.135   7.650
 5280POPC   NC327443  33.766  31.473   9.450
 5280POPC   PO427444  33.755  31.454   9.150
 5280POPC   GL127445  33.833  31.488   8.850
 5280POPC   GL227446  33.903  31.350   8.850
 5280POPC   C1A27447  33.790  31.478   8.550
 5280POPC   D2A27448  33.787  31.474   8.250
 5280POPC   C3A27449  33.816  31.474   7.950
 5280POPC   C4A27450  33.815  31.454   7.650
 5280POPC   C1B27451  33.941  31.250   8.550
 5280POPC   C2B27452  33.900  31.242   8.250
 5280POPC   C3B27453  33.884  31.228   7.950
 5280POPC   C4B27454  33.897  31.207   7.650
 5281POPC   NC327455  36.121  36.160   9.450
 5281POPC   PO427456  36.150  36.146   9.150
 5281POPC   GL127457  36.159  36.106   8.850
 5281POPC   GL227458  36.283  36.134   8.850
 5281POPC   C1A27459  36.167  36.167   8.550
 5281POPC   D2A27460  36.114  36.109   8.250
 5281POPC   C3A27461  36.142  36.150   7.950
 5281POPC   C4A27462  36.150  36.123   7.650
 5281POPC   C1B27463  36.336  36.153   8.550
 5281POPC   C2B27464  36.327  36.224   8.250
 5281POPC   C3B27465  36.413  36.172   7.950
 5281POPC   C4B27466  36.399  36.166   7.650
 5282POPC   NC327467  31.446   5.127   9.450
 5282POPC   PO427468  31.434   5.136   9.150
 5282POPC   GL127469  31.453   5.066   8.850
 5282POPC   GL227470  31.381   5.209   8.850
 5282POPC   C1A27471  31.442   5.050   8.550
 5282POPC   D2A27472  31.492   5.077   8.250
 5282POPC   C3A27473  31.509   5.099   7.950
 5282POPC   C4A27474  31.453   5.122   7.650
 5282POPC   C1B27475  31.335   5.269   8.550
 5282POPC   C2B27476  31.331   5.302   8.250
 5282POPC   C3B27477  31.391   5.357   7.950
 5282POPC   C4B27478  31.396   5.315   7.650
 5283POPC   NC327479  21.426  37.680   9.450
 5283POPC   PO427480  21.413  37.632   9.150
 5283POPC   GL127481  21.418  37.631   8.850
 5283POPC   GL227482  21.281  37.604   8.850
 5283POPC   C1A27483  21.391  37.716   8.550
 5283POPC   D2A27484  21.412  37.700   8.250
 5283POPC   C3A27485  21.418  37.672   7.950
 5283POPC   C4A27486  21.370  37.713   7.650
 5283POPC   C1B27487  21.107  37.620   8.550
 5283POPC   C2B27488  21.107  37.638   8.250
 5283POPC   C3B27489  21.179  37.645   7.950
 5283POPC   C4B27490  21.112  37.570   7.650
 5284POPC   NC327491  22.972   5.094   9.450
 5284POPC   PO427492  22.956   5.111   9.150
 5284POPC   GL127493  22.904   5.120   8.850
 5284POPC   GL227494  23.093   5.051   8.850
 5284POPC   C1A27495  22.935   5.051   8.550
 5284POPC   D2A27496  22.893   5.068   8.250
 5284POPC   C3A27497  22.933   5.118   7.950
 5284POPC   C4A27498  22.891   5.095   7.650
 5284POPC   C1B27499  23.201   5.074   8.550
 5284POPC   C2B27500  23.204   5.072   8.250
 5284POPC   C3B27501  23.211   5.092   7.950
 5284POPC   C4B27502  23.202   5.006   7.650
 5285POPC   NC327503   6.596  36.160   9.450
 5285POPC   PO427504   6.618  36.132   9.150
 5285POPC   GL127505   6.645  36.130   8.850
 5285POPC   GL227506   6.595  36.056   8.850
 5285POPC   C1A27507   6.606  36.085   8.550
 5285POPC   D2A27508   6.652  36.153   8.250
 5285POPC   C3A27509   6.663  36.159   7.950
 5285POPC   C4A27510   6.631  36.128   7.650
 5285POPC   C1B27511   6.589  35.876   8.550
 5285POPC   C2B27512   6.536  35.876   8.250
 5285POPC   C3B27513   6.553  35.840   7.950
 5285POPC   C4B27514   6.542  35.904   7.650
 5286POPC   NC327515   1.256   6.616   9.450
 5286POPC   PO427516   1.183   6.678   9.150
 5286POPC   GL127517   1.191   6.694   8.850
 5286POPC   GL227518   1.127   6.587   8.850
 5286POPC   C1A27519   1.188   6.604   8.550
 5286POPC   D2A27520   1.208   6.690   8.250
 5286POPC   C3A27521   1.195   6.629   7.950
 5286POPC   C4A27522   1.203   6.657   7.650
 5286POPC   C1B27523   1.012   6.674   8.550
 5286POPC   C2B27524   0.930   6.637   8.250
 5286POPC   C3B27525   0.996   6.643   7.950
 5286POPC   C4B27526   0.957   6.613   7.650
 5287POPC   NC327527  17.480  12.057   9.450
 5287POPC   PO427528  17.483  12.090   9.150
 5287POPC   GL127529  17.517  12.105   8.850
 5287POPC   GL227530  17.561  11.948   8.850
 5287POPC   C1A27531  17.528  12.107   8.550
 5287POPC   D2A27532  17.463  12.077   8.250
 5287POPC   C3A27533  17.466  12.028   7.950
 5287POPC   C4A27534  17.508  12.113   7.650
 5287POPC   C1B27535  17.631  11.877   8.550
 5287POPC   C2B27536  17.606  11.891   8.250
 5287POPC   C3B27537  17.589  11.809   7.950
 5287POPC   C4B27538  17.586  11.889   7.650
 5288POPC   NC327539   3.573   5.852   9.450
 5288POPC   PO427540   3.579   5.830   9.150
 5288POPC   GL127541   3.503   5.905   8.850
 5288POPC   GL227542   3.389   5.845   8.850
 5288POPC   C1A27543   3.519   5.847   8.550
 5288POPC   D2A27544   3.544   5.872   8.250
 5288POPC   C3A27545   3.493   5.874   7.950
 5288POPC   C4A27546   3.560   5.873   7.650
 5288POPC   C1B27547   3.340   5.965   8.550
 5288POPC   C2B27548   3.305   5.934   8.250
 5288POPC   C3B27549   3.272   5.888   7.950
 5288POPC   C4B27550   3.312   5.938   7.650
 5289POPC   NC327551   1.977  26.060   9.450
 5289POPC   PO427552   2.015  26.044   9.150
 5289POPC   GL127553   1.962  26.087   8.850
 5289POPC   GL227554   2.035  26.179   8.850
 5289POPC   C1A27555   1.995  26.081   8.550
 5289POPC   D2A27556   2.021  26.047   8.250
 5289POPC   C3A27557   1.976  26.003   7.950
 5289POPC   C4A27558   1.975  26.044   7.650
 5289POPC   C1B27559   2.120  26.318   8.550
 5289POPC   C2B27560   2.097  26.301   8.250
 5289POPC   C3B27561   2.037  26.245   7.950
 5289POPC   C4B27562   2.095  26.269   7.650
 5290POPC   NC327563  40.803   8.923   9.450
 5290POPC   PO427564  40.757   8.929   9.150
 5290POPC   GL127565  40.740   8.927   8.850
 5290POPC   GL227566  40.865   8.983   8.850
 5290POPC   C1A27567  40.794   8.930   8.550
 5290POPC   D2A27568  40.744   8.983   8.250
 5290POPC   C3A27569  40.767   8.959   7.950
 5290POPC   C4A27570  40.818   8.957   7.650
 5290POPC   C1B27571  40.997   8.870   8.550
 5290POPC   C2B27572  41.056   8.895   8.250
 5290POPC   C3B27573  41.015   8.882   7.950
 5290POPC   C4B27574  41.011   8.856   7.650
 5291POPC   NC327575  21.392   1.952   9.450
 5291POPC   PO427576  21.412   2.036   9.150
 5291POPC   GL127577  21.419   1.988   8.850
 5291POPC   GL227578  21.350   2.078   8.850
 5291POPC   C1A27579  21.379   1.988   8.550
 5291POPC   D2A27580  21.420   1.943   8.250
 5291POPC   C3A27581  21.365   1.989   7.950
 5291POPC   C4A27582  21.379   2.018   7.650
 5291POPC   C1B27583  21.182   2.131   8.550
 5291POPC   C2B27584  21.246   2.171   8.250
 5291POPC   C3B27585  21.175   2.135   7.950
 5291POPC   C4B27586  21.246   2.217   7.650
 5292POPC   NC327587  36.931   2.734   9.450
 5292POPC   PO427588  36.880   2.790   9.150
 5292POPC   GL127589  36.911   2.720   8.850
 5292POPC   GL227590  37.009   2.648   8.850
 5292POPC   C1A27591  36.947   2.777   8.550
 5292POPC   D2A27592  36.945   2.733   8.250
 5292POPC   C3A27593  36.892   2.809   7.950
 5292POPC   C4A27594  36.870   2.798   7.650
 5292POPC   C1B27595  37.117   2.609   8.550
 5292POPC   C2B27596  37.094   2.619   8.250
 5292POPC   C3B27597  37.072   2.615   7.950
 5292POPC   C4B27598  37.161   2.664   7.650
 5293POPC   NC327599  15.973   9.008   9.450
 5293POPC   PO427600  15.934   8.948   9.150
 5293POPC   GL127601  15.923   8.970   8.850
 5293POPC   GL227602  16.095   8.948   8.850
 5293POPC   C1A27603  15.983   8.930   8.550
 5293POPC   D2A27604  15.942   8.978   8.250
 5293POPC   C3A27605  15.907   8.996   7.950
 5293POPC   C4A27606  15.983   8.988   7.650
 5293POPC   C1B27607  16.155   8.984   8.550
 5293POPC   C2B27608  16.188   8.989   8.250
 5293POPC   C3B27609  16.213   9.009   7.950
 5293POPC   C4B27610  16.188   9.018   7.650
 5294POPC   NC327611  41.607  37.701   9.450
 5294POPC   PO427612  41.592  37.689   9.150
 5294POPC   GL127613  41.595  37.714   8.850
 5294POPC   GL227614  41.447  37.749   8.850
 5294POPC   C1A27615  41.564  37.691   8.550
 5294POPC   D2A27616  41.609  37.710   8.250
 5294POPC   C3A27617  41.572  37.629   7.950
 5294POPC   C4A27618  41.513  37.659   7.650
 5294POPC   C1B27619  41.330  37.719   8.550
 5294POPC   C2B27620  41.362  37.689   8.250
 5294POPC   C3B27621  41.345  37.692   7.950
 5294POPC   C4B27622  41.330  37.764   7.650
 5295POPC   NC327623  14.370  42.307   9.450
 5295POPC   PO427624  14.439  42.318   9.150
 5295POPC   GL127625  14.423  42.372   8.850
 5295POPC   GL227626  14.423  42.472   8.850
 5295POPC   C1A27627  14.356  42.377   8.550
 5295POPC   D2A27628  14.386  42.346   8.250
 5295POPC   C3A27629  14.404  42.300   7.950
 5295POPC   C4A27630  14.453  42.360   7.650
 5295POPC   C1B27631  14.409  42.627   8.550
 5295POPC   C2B27632  14.364  42.546   8.250
 5295POPC   C3B27633  14.421  42.594   7.950
 5295POPC   C4B27634  14.397  42.568   7.650
 5296POPC   NC327635  43.931  27.614   9.450
 5296POPC   PO427636  43.934  27.598   9.150
 5296POPC   GL127637  43.876  27.614   8.850
 5296POPC   GL227638  43.888  27.683   8.850
 5296POPC   C1A27639  43.932  27.588   8.550
 5296POPC   D2A27640  43.873  27.553   8.250
 5296POPC   C3A27641  43.839  27.612   7.950
 5296POPC   C4A27642  43.919  27.551   7.650
 5296POPC   C1B27643  43.882  27.796   8.550
 5296POPC   C2B27644  43.869  27.836   8.250
 5296POPC   C3B27645  43.862  27.869   7.950
 5296POPC   C4B27646  43.868  27.888   7.650
 5297POPC   NC327647  23.665  10.572   9.450
 5297POPC   PO427648  23.684  10.526   9.150
 5297POPC   GL127649  23.671  10.474   8.850
 5297POPC   GL227650  23.753  10.434   8.850
 5297POPC   C1A27651  23.731  10.516   8.550
 5297POPC   D2A27652  23.724  10.475   8.250
 5297POPC   C3A27653  23.716  10.504   7.950
 5297POPC   C4A27654  23.755  10.533   7.650
 5297POPC   C1B27655  23.824  10.290   8.550
 5297POPC   C2B27656  23.864  10.333   8.250
 5297POPC   C3B27657  23.779  10.309   7.950
 5297POPC   C4B27658  23.802  10.259   7.650
 5298POPC   NC327659  27.583   7.425   9.450
 5298POPC   PO427660  27.548   7.393   9.150
 5298POPC   GL127661  27.605   7.382   8.850
 5298POPC   GL227662  27.470   7.504   8.850
 5298POPC   C1A27663  27.600   7.417   8.550
 5298POPC   D2A27664  27.584   7.377   8.250
 5298POPC   C3A27665  27.620   7.392   7.950
 5298POPC   C4A27666  27.628   7.403   7.650
 5298POPC   C1B27667  27.390   7.551   8.550
 5298POPC   C2B27668  27.367   7.558   8.250
 5298POPC   C3B27669  27.381   7.572   7.950
 5298POPC   C4B27670  27.409   7.571   7.650
 5299POPC   NC327671   8.188   1.178   9.450
 5299POPC   PO427672   8.191   1.197   9.150
 5299POPC   GL127673   8.240   1.169   8.850
 5299POPC   GL227674   8.262   1.113   8.850
 5299POPC   C1A27675   8.154   1.249   8.550
 5299POPC   D2A27676   8.224   1.248   8.250
 5299POPC   C3A27677   8.173   1.217   7.950
 5299POPC   C4A27678   8.153   1.240   7.650
 5299POPC   C1B27679   8.320   0.992   8.550
 5299POPC   C2B27680   8.338   1.044   8.250
 5299POPC   C3B27681   8.295   1.014   7.950
 5299POPC   C4B27682   8.318   1.013   7.650
 5300POPC   NC327683  15.144  10.500   9.450
 5300POPC   PO427684  15.207  10.499   9.150
 5300POPC   GL127685  15.212  10.522   8.850
 5300POPC   GL227686  15.072  10.447   8.850
 5300POPC   C1A27687  15.168  10.521   8.550
 5300POPC   D2A27688  15.185  10.541   8.250
 5300POPC   C3A27689  15.154  10.545   7.950
 5300POPC   C4A27690  15.154  10.564   7.650
 5300POPC   C1B27691  14.902  10.474   8.550
 5300POPC   C2B27692  14.937  10.427   8.250
 5300POPC   C3B27693  14.915  10.505   7.950
 5300POPC   C4B27694  14.906  10.429   7.650
 5301POPC   NC327695   0.474  21.406   9.450
 5301POPC   PO427696   0.461  21.376   9.150
 5301POPC   GL127697   0.388  21.373   8.850
 5301POPC   GL227698   0.331  21.478   8.850
 5301POPC   C1A27699   0.471  21.426   8.550
 5301POPC   D2A27700   0.465  21.407   8.250
 5301POPC   C3A27701   0.390  21.430   7.950
 5301POPC   C4A27702   0.482  21.430   7.650
 5301POPC   C1B27703   0.231  21.514   8.550
 5301POPC   C2B27704   0.250  21.594   8.250
 5301POPC   C3B27705   0.218  21.577   7.950
 5301POPC   C4B27706   0.203  21.573   7.650
 5302POPC   NC327707   0.426  14.409   9.450
 5302POPC   PO427708   0.467  14.436   9.150
 5302POPC   GL127709   0.426  14.423   8.850
 5302POPC   GL227710   0.560  14.472   8.850
 5302POPC   C1A27711   0.413  14.403   8.550
 5302POPC   D2A27712   0.482  14.372   8.250
 5302POPC   C3A27713   0.469  14.432   7.950
 5302POPC   C4A27714   0.487  14.381   7.650
 5302POPC   C1B27715   0.605  14.571   8.550
 5302POPC   C2B27716   0.633  14.550   8.250
 5302POPC   C3B27717   0.634  14.571   7.950
 5302POPC   C4B27718   0.643  14.486   7.650
 5303POPC   NC327719   8.947  16.767   9.450
 5303POPC   PO427720   8.964  16.781   9.150
 5303POPC   GL127721   9.005  16.751   8.850
 5303POPC   GL227722   8.802  16.746   8.850
 5303POPC   C1A27723   8.947  16.714   8.550
 5303POPC   D2A27724   8.997  16.696   8.250
 5303POPC   C3A27725   9.002  16.684   7.950
 5303POPC   C4A27726   8.981  16.719   7.650
 5303POPC   C1B27727   8.729  16.701   8.550
 5303POPC   C2B27728   8.677  16.673   8.250
 5303POPC   C3B27729   8.765  16.691   7.950
 5303POPC   C4B27730   8.769  16.663   7.650
 5304POPC   NC327731   5.077  36.081   9.450
 5304POPC   PO427732   5.111  36.089   9.150
 5304POPC   GL127733   5.138  36.100   8.850
 5304POPC   GL227734   5.105  36.222   8.850
 5304POPC   C1A27735   5.143  36.117   8.550
 5304POPC   D2A27736   5.103  36.164   8.250
 5304POPC   C3A27737   5.090  36.108   7.950
 5304POPC   C4A27738   5.084  36.082   7.650
 5304POPC   C1B27739   5.131  36.374   8.550
 5304POPC   C2B27740   5.089  36.410   8.250
 5304POPC   C3B27741   5.065  36.354   7.950
 5304POPC   C4B27742   5.048  36.382   7.650
 5305POPC   NC327743  16.715  40.777   9.450
 5305POPC   PO427744  16.755  40.829   9.150
 5305POPC   GL127745  16.735  40.811   8.850
 5305POPC   GL227746  16.640  40.919   8.850
 5305POPC   C1A27747  16.683  40.746   8.550
 5305POPC   D2A27748  16.728  40.811   8.250
 5305POPC   C3A27749  16.704  40.749   7.950
 5305POPC   C4A27750  16.767  40.809   7.650
 5305POPC   C1B27751  16.558  40.941   8.550
 5305POPC   C2B27752  16.595  40.928   8.250
 5305POPC   C3B27753  16.533  40.947   7.950
 5305POPC   C4B27754  16.607  40.971   7.650
 5306POPC   NC327755  37.708  19.014   9.450
 5306POPC   PO427756  37.729  19.058   9.150
 5306POPC   GL127757  37.655  19.081   8.850
 5306POPC   GL227758  37.695  18.948   8.850
 5306POPC   C1A27759  37.694  19.097   8.550
 5306POPC   D2A27760  37.636  19.090   8.250
 5306POPC   C3A27761  37.638  19.030   7.950
 5306POPC   C4A27762  37.655  19.014   7.650
 5306POPC   C1B27763  37.763  18.814   8.550
 5306POPC   C2B27764  37.738  18.845   8.250
 5306POPC   C3B27765  37.755  18.857   7.950
 5306POPC   C4B27766  37.705  18.798   7.650
 5307POPC   NC327767  12.838  22.147   9.450
 5307POPC   PO427768  12.862  22.115   9.150
 5307POPC   GL127769  12.830  22.191   8.850
 5307POPC   GL227770  12.873  22.239   8.850
 5307POPC   C1A27771  12.802  22.123   8.550
 5307POPC   D2A27772  12.812  22.196   8.250
 5307POPC   C3A27773  12.853  22.122   7.950
 5307POPC   C4A27774  12.899  22.119   7.650
 5307POPC   C1B27775  12.924  22.371   8.550
 5307POPC   C2B27776  12.908  22.418   8.250
 5307POPC   C3B27777  12.904  22.350   7.950
 5307POPC   C4B27778  12.956  22.425   7.650
 5308POPC   NC327779   6.602  26.026   9.450
 5308POPC   PO427780   6.664  26.069   9.150
 5308POPC   GL127781   6.615  26.068   8.850
 5308POPC   GL227782   6.549  26.167   8.850
 5308POPC   C1A27783   6.628  26.087   8.550
 5308POPC   D2A27784   6.642  26.040   8.250
 5308POPC   C3A27785   6.625  26.056   7.950
 5308POPC   C4A27786   6.612  26.014   7.650
 5308POPC   C1B27787   6.506  26.225   8.550
 5308POPC   C2B27788   6.508  26.273   8.250
 5308POPC   C3B27789   6.484  26.243   7.950
 5308POPC   C4B27790   6.465  26.239   7.650
 5309POPC   NC327791   7.448  38.463   9.450
 5309POPC   PO427792   7.380  38.405   9.150
 5309POPC   GL127793   7.376  38.469   8.850
 5309POPC   GL227794   7.445  38.534   8.850
 5309POPC   C1A27795   7.409  38.407   8.550
 5309POPC   D2A27796   7.451  38.442   8.250
 5309POPC   C3A27797   7.378  38.428   7.950
 5309POPC   C4A27798   7.447  38.433   7.650
 5309POPC   C1B27799   7.520  38.696   8.550
 5309POPC   C2B27800   7.445  38.663   8.250
 5309POPC   C3B27801   7.478  38.742   7.950
 5309POPC   C4B27802   7.507  38.735   7.650
 5310POPC   NC327803  22.963  33.065   9.450
 5310POPC   PO427804  22.948  33.031   9.150
 5310POPC   GL127805  22.977  33.033   8.850
 5310POPC   GL227806  22.916  33.095   8.850
 5310POPC   C1A27807  22.946  33.052   8.550
 5310POPC   D2A27808  22.941  32.981   8.250
 5310POPC   C3A27809  22.913  33.064   7.950
 5310POPC   C4A27810  22.949  32.981   7.650
 5310POPC   C1B27811  22.783  33.210   8.550
 5310POPC   C2B27812  22.850  33.248   8.250
 5310POPC   C3B27813  22.826  33.280   7.950
 5310POPC   C4B27814  22.836  33.188   7.650
 5311POPC   NC327815  33.031  31.469   9.450
 5311POPC   PO427816  32.977  31.495   9.150
 5311POPC   GL127817  32.981  31.522   8.850
 5311POPC   GL227818  32.908  31.517   8.850
 5311POPC   C1A27819  32.992  31.468   8.550
 5311POPC   D2A27820  33.057  31.477   8.250
 5311POPC   C3A27821  32.979  31.447   7.950
 5311POPC   C4A27822  33.024  31.466   7.650
 5311POPC   C1B27823  32.872  31.594   8.550
 5311POPC   C2B27824  32.835  31.588   8.250
 5311POPC   C3B27825  32.783  31.582   7.950
 5311POPC   C4B27826  32.776  31.671   7.650
 5312POPC   NC327827  16.774  19.875   9.450
 5312POPC   PO427828  16.762  19.826   9.150
 5312POPC   GL127829  16.773  19.862   8.850
 5312POPC   GL227830  16.656  19.821   8.850
 5312POPC   C1A27831  16.757  19.796   8.550
 5312POPC   D2A27832  16.749  19.884   8.250
 5312POPC   C3A27833  16.725  19.786   7.950
 5312POPC   C4A27834  16.768  19.843   7.650
 5312POPC   C1B27835  16.489  19.868   8.550
 5312POPC   C2B27836  16.449  19.872   8.250
 5312POPC   C3B27837  16.494  19.862   7.950
 5312POPC   C4B27838  16.474  19.915   7.650
 5313POPC   NC327839  12.037  29.960   9.450
 5313POPC   PO427840  12.110  29.921   9.150
 5313POPC   GL127841  12.066  29.903   8.850
 5313POPC   GL227842  11.983  29.858   8.850
 5313POPC   C1A27843  12.044  29.907   8.550
 5313POPC   D2A27844  12.106  29.913   8.250
 5313POPC   C3A27845  12.101  29.899   7.950
 5313POPC   C4A27846  12.081  29.878   7.650
 5313POPC   C1B27847  11.892  29.700   8.550
 5313POPC   C2B27848  11.930  29.777   8.250
 5313POPC   C3B27849  11.916  29.703   7.950
 5313POPC   C4B27850  11.942  29.690   7.650
 5314POPC   NC327851   8.968  17.548   9.450
 5314POPC   PO427852   8.943  17.536   9.150
 5314POPC   GL127853   8.992  17.521   8.850
 5314POPC   GL227854   9.060  17.519   8.850
 5314POPC   C1A27855   8.953  17.534   8.550
 5314POPC   D2A27856   8.963  17.534   8.250
 5314POPC   C3A27857   8.972  17.522   7.950
 5314POPC   C4A27858   8.989  17.550   7.650
 5314POPC   C1B27859   9.236  17.434   8.550
 5314POPC   C2B27860   9.245  17.445   8.250
 5314POPC   C3B27861   9.194  17.444   7.950
 5314POPC   C4B27862   9.215  17.484   7.650
 5315POPC   NC327863  20.633  38.502   9.450
 5315POPC   PO427864  20.644  38.494   9.150
 5315POPC   GL127865  20.649  38.409   8.850
 5315POPC   GL227866  20.573  38.623   8.850
 5315POPC   C1A27867  20.601  38.419   8.550
 5315POPC   D2A27868  20.606  38.482   8.250
 5315POPC   C3A27869  20.563  38.462   7.950
 5315POPC   C4A27870  20.642  38.455   7.650
 5315POPC   C1B27871  20.504  38.670   8.550
 5315POPC   C2B27872  20.555  38.654   8.250
 5315POPC   C3B27873  20.498  38.679   7.950
 5315POPC   C4B27874  20.512  38.657   7.650
 5316POPC   NC327875  43.073  35.385   9.450
 5316POPC   PO427876  43.142  35.361   9.150
 5316POPC   GL127877  43.137  35.355   8.850
 5316POPC   GL227878  43.046  35.214   8.850
 5316POPC   C1A27879  43.148  35.333   8.550
 5316POPC   D2A27880  43.111  35.368   8.250
 5316POPC   C3A27881  43.103  35.338   7.950
 5316POPC   C4A27882  43.073  35.393   7.650
 5316POPC   C1B27883  43.076  35.122   8.550
 5316POPC   C2B27884  43.078  35.157   8.250
 5316POPC   C3B27885  43.051  35.079   7.950
 5316POPC   C4B27886  43.032  35.128   7.650
 5317POPC   NC327887  26.856  18.255   9.450
 5317POPC   PO427888  26.844  18.260   9.150
 5317POPC   GL127889  26.790  18.280   8.850
 5317POPC   GL227890  26.824  18.434   8.850
 5317POPC   C1A27891  26.796  18.321   8.550
 5317POPC   D2A27892  26.842  18.251   8.250
 5317POPC   C3A27893  26.825  18.264   7.950
 5317POPC   C4A27894  26.851  18.292   7.650
 5317POPC   C1B27895  26.700  18.506   8.550
 5317POPC   C2B27896  26.758  18.549   8.250
 5317POPC   C3B27897  26.762  18.565   7.950
 5317POPC   C4B27898  26.692  18.530   7.650
 5318POPC   NC327899   8.993  15.188   9.450
 5318POPC   PO427900   8.933  15.225   9.150
 5318POPC   GL127901   9.007  15.137   8.850
 5318POPC   GL227902   8.811  15.182   8.850
 5318POPC   C1A27903   8.953  15.170   8.550
 5318POPC   D2A27904   8.990  15.165   8.250
 5318POPC   C3A27905   8.934  15.185   7.950
 5318POPC   C4A27906   9.008  15.171   7.650
 5318POPC   C1B27907   8.697  15.168   8.550
 5318POPC   C2B27908   8.725  15.185   8.250
 5318POPC   C3B27909   8.764  15.177   7.950
 5318POPC   C4B27910   8.695  15.200   7.650
 5319POPC   NC327911  18.313   8.149   9.450
 5319POPC   PO427912  18.322   8.242   9.150
 5319POPC   GL127913  18.291   8.154   8.850
 5319POPC   GL227914  18.150   8.275   8.850
 5319POPC   C1A27915  18.294   8.207   8.550
 5319POPC   D2A27916  18.327   8.149   8.250
 5319POPC   C3A27917  18.284   8.168   7.950
 5319POPC   C4A27918  18.242   8.218   7.650
 5319POPC   C1B27919  18.087   8.293   8.550
 5319POPC   C2B27920  18.037   8.359   8.250
 5319POPC   C3B27921  18.036   8.343   7.950
 5319POPC   C4B27922  18.054   8.274   7.650
 5320POPC   NC327923  39.242  26.029   9.450
 5320POPC   PO427924  39.213  26.020   9.150
 5320POPC   GL127925  39.184  26.057   8.850
 5320POPC   GL227926  39.169  25.999   8.850
 5320POPC   C1A27927  39.244  26.089   8.550
 5320POPC   D2A27928  39.216  26.023   8.250
 5320POPC   C3A27929  39.248  26.033   7.950
 5320POPC   C4A27930  39.181  26.016   7.650
 5320POPC   C1B27931  38.996  25.913   8.550
 5320POPC   C2B27932  39.032  25.855   8.250
 5320POPC   C3B27933  39.017  25.904   7.950
 5320POPC   C4B27934  39.002  25.850   7.650
 5321POPC   NC327935  39.972   9.732   9.450
 5321POPC   PO427936  40.029   9.743   9.150
 5321POPC   GL127937  40.001   9.725   8.850
 5321POPC   GL227938  39.921   9.868   8.850
 5321POPC   C1A27939  40.017   9.796   8.550
 5321POPC   D2A27940  40.009   9.720   8.250
 5321POPC   C3A27941  40.015   9.788   7.950
 5321POPC   C4A27942  40.035   9.760   7.650
 5321POPC   C1B27943  39.861  10.007   8.550
 5321POPC   C2B27944  39.902   9.950   8.250
 5321POPC   C3B27945  39.904  10.002   7.950
 5321POPC   C4B27946  39.899   9.921   7.650
 5322POPC   NC327947   1.956  29.173   9.450
 5322POPC   PO427948   2.018  29.148   9.150
 5322POPC   GL127949   1.993  29.171   8.850
 5322POPC   GL227950   1.998  28.979   8.850
 5322POPC   C1A27951   1.985  29.183   8.550
 5322POPC   D2A27952   1.956  29.114   8.250
 5322POPC   C3A27953   1.953  29.110   7.950
 5322POPC   C4A27954   1.995  29.182   7.650
 5322POPC   C1B27955   2.099  28.913   8.550
 5322POPC   C2B27956   2.086  28.858   8.250
 5322POPC   C3B27957   2.093  28.945   7.950
 5322POPC   C4B27958   2.050  28.871   7.650
 5323POPC   NC327959  17.479  18.328   9.450
 5323POPC   PO427960  17.542  18.293   9.150
 5323POPC   GL127961  17.467  18.313   8.850
 5323POPC   GL227962  17.544  18.134   8.850
 5323POPC   C1A27963  17.554  18.250   8.550
 5323POPC   D2A27964  17.540  18.306   8.250
 5323POPC   C3A27965  17.504  18.273   7.950
 5323POPC   C4A27966  17.556  18.322   7.650
 5323POPC   C1B27967  17.599  18.026   8.550
 5323POPC   C2B27968  17.647  18.011   8.250
 5323POPC   C3B27969  17.560  18.015   7.950
 5323POPC   C4B27970  17.643  18.063   7.650
 5324POPC   NC327971   3.588  29.935   9.450
 5324POPC   PO427972   3.507  29.931   9.150
 5324POPC   GL127973   3.547  29.927   8.850
 5324POPC   GL227974   3.628  29.935   8.850
 5324POPC   C1A27975   3.560  29.897   8.550
 5324POPC   D2A27976   3.522  29.943   8.250
 5324POPC   C3A27977   3.497  29.923   7.950
 5324POPC   C4A27978   3.521  29.884   7.650
 5324POPC   C1B27979   3.743  29.931   8.550
 5324POPC   C2B27980   3.822  29.903   8.250
 5324POPC   C3B27981   3.827  29.937   7.950
 5324POPC   C4B27982   3.836  29.903   7.650
 5325POPC   NC327983   1.252   8.233   9.450
 5325POPC   PO427984   1.258   8.193   9.150
 5325POPC   GL127985   1.257   8.206   8.850
 5325POPC   GL227986   1.256   8.299   8.850
 5325POPC   C1A27987   1.215   8.150   8.550
 5325POPC   D2A27988   1.210   8.171   8.250
 5325POPC   C3A27989   1.218   8.197   7.950
 5325POPC   C4A27990   1.221   8.225   7.650
 5325POPC   C1B27991   1.424   8.386   8.550
 5325POPC   C2B27992   1.387   8.372   8.250
 5325POPC   C3B27993   1.359   8.421   7.950
 5325POPC   C4B27994   1.355   8.421   7.650
 5326POPC   NC327995  29.124  15.949   9.450
 5326POPC   PO427996  29.124  15.913   9.150
 5326POPC   GL127997  29.157  16.000   8.850
 5326POPC   GL227998  29.289  15.972   8.850
 5326POPC   C1A27999  29.179  15.953   8.550
 5326POPC   D2A28000  29.141  15.944   8.250
 5326POPC   C3A28001  29.160  15.908   7.950
 5326POPC   C4A28002  29.096  15.981   7.650
 5326POPC   C1B28003  29.331  16.031   8.550
 5326POPC   C2B28004  29.386  16.055   8.250
 5326POPC   C3B28005  29.347  16.107   7.950
 5326POPC   C4B28006  29.396  16.094   7.650
 5327POPC   NC328007  35.318  38.414   9.450
 5327POPC   PO428008  35.341  38.416   9.150
 5327POPC   GL128009  35.338  38.505   8.850
 5327POPC   GL228010  35.220  38.399   8.850
 5327POPC   C1A28011  35.396  38.478   8.550
 5327POPC   D2A28012  35.331  38.504   8.250
 5327POPC   C3A28013  35.323  38.486   7.950
 5327POPC   C4A28014  35.386  38.424   7.650
 5327POPC   C1B28015  35.166  38.300   8.550
 5327POPC   C2B28016  35.212  38.294   8.250
 5327POPC   C3B28017  35.132  38.297   7.950
 5327POPC   C4B28018  35.130  38.275   7.650
 5328POPC   NC328019  31.517  29.127   9.450
 5328POPC   PO428020  31.478  29.194   9.150
 5328POPC   GL128021  31.453  29.129   8.850
 5328POPC   GL228022  31.439  29.222   8.850
 5328POPC   C1A28023  31.435  29.106   8.550
 5328POPC   D2A28024  31.506  29.164   8.250
 5328POPC   C3A28025  31.431  29.149   7.950
 5328POPC   C4A28026  31.460  29.139   7.650
 5328POPC   C1B28027  31.356  29.369   8.550
 5328POPC   C2B28028  31.378  29.337   8.250
 5328POPC   C3B28029  31.333  29.392   7.950
 5328POPC   C4B28030  31.347  29.313   7.650
 5329POPC   NC328031  28.404  44.670   9.450
 5329POPC   PO428032  28.343  44.658   9.150
 5329POPC   GL128033  28.369  44.704   8.850
 5329POPC   GL228034  28.237  44.699   8.850
 5329POPC   C1A28035  28.343  44.615   8.550
 5329POPC   D2A28036  28.418  44.650   8.250
 5329POPC   C3A28037  28.346  44.698   7.950
 5329POPC   C4A28038  28.354  44.704   7.650
 5329POPC   C1B28039  28.076  44.639   8.550
 5329POPC   C2B28040  28.132  44.636   8.250
 5329POPC   C3B28041  28.098  44.618   7.950
 5329POPC   C4B28042  28.124  44.613   7.650
 5330POPC   NC328043  23.673  40.022   9.450
 5330POPC   PO428044  23.715  40.029   9.150
 5330POPC   GL128045  23.707  39.984   8.850
 5330POPC   GL228046  23.862  39.980   8.850
 5330POPC   C1A28047  23.706  40.037   8.550
 5330POPC   D2A28048  23.708  40.055   8.250
 5330POPC   C3A28049  23.708  39.991   7.950
 5330POPC   C4A28050  23.674  39.966   7.650
 5330POPC   C1B28051  23.943  39.863   8.550
 5330POPC   C2B28052  23.957  39.915   8.250
 5330POPC   C3B28053  23.971  39.918   7.950
 5330POPC   C4B28054  23.892  39.917   7.650
 5331POPC   NC328055   5.108  26.845   9.450
 5331POPC   PO428056   5.049  26.801   9.150
 5331POPC   GL128057   5.097  26.822   8.850
 5331POPC   GL228058   5.222  26.785   8.850
 5331POPC   C1A28059   5.074  26.779   8.550
 5331POPC   D2A28060   5.067  26.816   8.250
 5331POPC   C3A28061   5.054  26.768   7.950
 5331POPC   C4A28062   5.105  26.810   7.650
 5331POPC   C1B28063   5.347  26.800   8.550
 5331POPC   C2B28064   5.321  26.810   8.250
 5331POPC   C3B28065   5.369  26.718   7.950
 5331POPC   C4B28066   5.322  26.739   7.650
 5332POPC   NC328067  12.046   8.171   9.450
 5332POPC   PO428068  12.102   8.155   9.150
 5332POPC   GL128069  12.118   8.221   8.850
 5332POPC   GL228070  11.970   8.136   8.850
 5332POPC   C1A28071  12.098   8.186   8.550
 5332POPC   D2A28072  12.054   8.170   8.250
 5332POPC   C3A28073  12.059   8.181   7.950
 5332POPC   C4A28074  12.081   8.191   7.650
 5332POPC   C1B28075  11.895   7.955   8.550
 5332POPC   C2B28076  11.892   7.995   8.250
 5332POPC   C3B28077  11.961   7.976   7.950
 5332POPC   C4B28078  11.869   8.017   7.650
 5333POPC   NC328079   1.222  27.595   9.450
 5333POPC   PO428080   1.210  27.582   9.150
 5333POPC   GL128081   1.248  27.573   8.850
 5333POPC   GL228082   1.356  27.529   8.850
 5333POPC   C1A28083   1.184  27.574   8.550
 5333POPC   D2A28084   1.187  27.605   8.250
 5333POPC   C3A28085   1.216  27.610   7.950
 5333POPC   C4A28086   1.183  27.602   7.650
 5333POPC   C1B28087   1.412  27.428   8.550
 5333POPC   C2B28088   1.445  27.415   8.250
 5333POPC   C3B28089   1.419  27.422   7.950
 5333POPC   C4B28090   1.473  27.477   7.650
 5334POPC   NC328091  43.115   8.178   9.450
 5334POPC   PO428092  43.097   8.172   9.150
 5334POPC   GL128093  43.065   8.230   8.850
 5334POPC   GL228094  42.943   8.204   8.850
 5334POPC   C1A28095  43.116   8.225   8.550
 5334POPC   D2A28096  43.094   8.241   8.250
 5334POPC   C3A28097  43.084   8.243   7.950
 5334POPC   C4A28098  43.110   8.215   7.650
 5334POPC   C1B28099  42.873   8.229   8.550
 5334POPC   C2B28100  42.891   8.274   8.250
 5334POPC   C3B28101  42.818   8.200   7.950
 5334POPC   C4B28102  42.820   8.244   7.650
 5335POPC   NC328103   7.398  25.304   9.450
 5335POPC   PO428104   7.454  25.314   9.150
 5335POPC   GL128105   7.434  25.292   8.850
 5335POPC   GL228106   7.318  25.194   8.850
 5335POPC   C1A28107   7.403  25.235   8.550
 5335POPC   D2A28108   7.427  25.224   8.250
 5335POPC   C3A28109   7.450  25.280   7.950
 5335POPC   C4A28110   7.391  25.244   7.650
 5335POPC   C1B28111   7.175  25.173   8.550
 5335POPC   C2B28112   7.158  25.147   8.250
 5335POPC   C3B28113   7.226  25.150   7.950
 5335POPC   C4B28114   7.155  25.187   7.650
 5336POPC   NC328115  37.697   6.627   9.450
 5336POPC   PO428116  37.695   6.614   9.150
 5336POPC   GL128117  37.659   6.618   8.850
 5336POPC   GL228118  37.528   6.580   8.850
 5336POPC   C1A28119  37.692   6.690   8.550
 5336POPC   D2A28120  37.645   6.612   8.250
 5336POPC   C3A28121  37.706   6.637   7.950
 5336POPC   C4A28122  37.687   6.690   7.650
 5336POPC   C1B28123  37.505   6.474   8.550
 5336POPC   C2B28124  37.430   6.570   8.250
 5336POPC   C3B28125  37.475   6.487   7.950
 5336POPC   C4B28126  37.502   6.477   7.650
 5337POPC   NC328127   4.280  20.619   9.450
 5337POPC   PO428128   4.337  20.599   9.150
 5337POPC   GL128129   4.270  20.600   8.850
 5337POPC   GL228130   4.447  20.646   8.850
 5337POPC   C1A28131   4.268  20.564   8.550
 5337POPC   D2A28132   4.271  20.595   8.250
 5337POPC   C3A28133   4.337  20.570   7.950
 5337POPC   C4A28134   4.361  20.640   7.650
 5337POPC   C1B28135   4.530  20.618   8.550
 5337POPC   C2B28136   4.579  20.591   8.250
 5337POPC   C3B28137   4.562  20.645   7.950
 5337POPC   C4B28138   4.558  20.660   7.650
 5338POPC   NC328139  30.703  44.657   9.450
 5338POPC   PO428140  30.729  44.711   9.150
 5338POPC   GL128141  30.733  44.691   8.850
 5338POPC   GL228142  30.787  44.611   8.850
 5338POPC   C1A28143  30.720  44.626   8.550
 5338POPC   D2A28144  30.743  44.645   8.250
 5338POPC   C3A28145  30.674  44.702   7.950
 5338POPC   C4A28146  30.672  44.685   7.650
 5338POPC   C1B28147  30.876  44.531   8.550
 5338POPC   C2B28148  30.841  44.448   8.250
 5338POPC   C3B28149  30.835  44.448   7.950
 5338POPC   C4B28150  30.848  44.478   7.650
 5339POPC   NC328151  41.607  13.587   9.450
 5339POPC   PO428152  41.543  13.612   9.150
 5339POPC   GL128153  41.555  13.666   8.850
 5339POPC   GL228154  41.613  13.725   8.850
 5339POPC   C1A28155  41.543  13.597   8.550
 5339POPC   D2A28156  41.606  13.648   8.250
 5339POPC   C3A28157  41.585  13.641   7.950
 5339POPC   C4A28158  41.582  13.620   7.650
 5339POPC   C1B28159  41.582  13.879   8.550
 5339POPC   C2B28160  41.606  13.866   8.250
 5339POPC   C3B28161  41.620  13.828   7.950
 5339POPC   C4B28162  41.606  13.840   7.650
 5340POPC   NC328163  43.154  17.528   9.450
 5340POPC   PO428164  43.067  17.479   9.150
 5340POPC   GL128165  43.103  17.513   8.850
 5340POPC   GL228166  43.196  17.480   8.850
 5340POPC   C1A28167  43.097  17.522   8.550
 5340POPC   D2A28168  43.100  17.530   8.250
 5340POPC   C3A28169  43.082  17.517   7.950
 5340POPC   C4A28170  43.123  17.487   7.650
 5340POPC   C1B28171  43.317  17.413   8.550
 5340POPC   C2B28172  43.389  17.453   8.250
 5340POPC   C3B28173  43.344  17.464   7.950
 5340POPC   C4B28174  43.386  17.402   7.650
 5341POPC   NC328175  26.826   2.768   9.450
 5341POPC   PO428176  26.821   2.803   9.150
 5341POPC   GL128177  26.856   2.797   8.850
 5341POPC   GL228178  26.820   2.873   8.850
 5341POPC   C1A28179  26.807   2.731   8.550
 5341POPC   D2A28180  26.830   2.726   8.250
 5341POPC   C3A28181  26.848   2.765   7.950
 5341POPC   C4A28182  26.791   2.739   7.650
 5341POPC   C1B28183  26.777   2.982   8.550
 5341POPC   C2B28184  26.754   3.046   8.250
 5341POPC   C3B28185  26.752   2.995   7.950
 5341POPC   C4B28186  26.796   2.982   7.650
 5342POPC   NC328187  12.856  22.937   9.450
 5342POPC   PO428188  12.867  22.986   9.150
 5342POPC   GL128189  12.884  22.973   8.850
 5342POPC   GL228190  12.733  22.948   8.850
 5342POPC   C1A28191  12.871  22.899   8.550
 5342POPC   D2A28192  12.805  22.948   8.250
 5342POPC   C3A28193  12.822  22.978   7.950
 5342POPC   C4A28194  12.826  22.941   7.650
 5342POPC   C1B28195  12.631  22.867   8.550
 5342POPC   C2B28196  12.640  22.854   8.250
 5342POPC   C3B28197  12.584  22.831   7.950
 5342POPC   C4B28198  12.561  22.850   7.650
 5343POPC   NC328199  10.546  29.158   9.450
 5343POPC   PO428200  10.566  29.135   9.150
 5343POPC   GL128201  10.530  29.126   8.850
 5343POPC   GL228202  10.632  29.239   8.850
 5343POPC   C1A28203  10.573  29.116   8.550
 5343POPC   D2A28204  10.487  29.172   8.250
 5343POPC   C3A28205  10.573  29.126   7.950
 5343POPC   C4A28206  10.524  29.111   7.650
 5343POPC   C1B28207  10.764  29.249   8.550
 5343POPC   C2B28208  10.730  29.230   8.250
 5343POPC   C3B28209  10.772  29.205   7.950
 5343POPC   C4B28210  10.795  29.220   7.650
 5344POPC   NC328211  13.675  24.534   9.450
 5344POPC   PO428212  13.635  24.449   9.150
 5344POPC   GL128213  13.617  24.487   8.850
 5344POPC   GL228214  13.485  24.533   8.850
 5344POPC   C1A28215  13.591  24.504   8.550
 5344POPC   D2A28216  13.635  24.461   8.250
 5344POPC   C3A28217  13.624  24.474   7.950
 5344POPC   C4A28218  13.581  24.510   7.650
 5344POPC   C1B28219  13.411  24.639   8.550
 5344POPC   C2B28220  13.403  24.618   8.250
 5344POPC   C3B28221  13.427  24.633   7.950
 5344POPC   C4B28222  13.459  24.652   7.650
 5345POPC   NC328223   8.236  29.136   9.450
 5345POPC   PO428224   8.163  29.125   9.150
 5345POPC   GL128225   8.197  29.161   8.850
 5345POPC   GL228226   8.306  29.176   8.850
 5345POPC   C1A28227   8.240  29.110   8.550
 5345POPC   D2A28228   8.223  29.142   8.250
 5345POPC   C3A28229   8.243  29.173   7.950
 5345POPC   C4A28230   8.221  29.194   7.650
 5345POPC   C1B28231   8.368  29.278   8.550
 5345POPC   C2B28232   8.409  29.227   8.250
 5345POPC   C3B28233   8.455  29.284   7.950
 5345POPC   C4B28234   8.368  29.237   7.650
 5346POPC   NC328235   8.174  32.983   9.450
 5346POPC   PO428236   8.208  32.991   9.150
 5346POPC   GL128237   8.222  33.022   8.850
 5346POPC   GL228238   8.258  32.884   8.850
 5346POPC   C1A28239   8.183  33.058   8.550
 5346POPC   D2A28240   8.174  33.058   8.250
 5346POPC   C3A28241   8.242  32.991   7.950
 5346POPC   C4A28242   8.206  33.029   7.650
 5346POPC   C1B28243   8.221  32.797   8.550
 5346POPC   C2B28244   8.293  32.812   8.250
 5346POPC   C3B28245   8.302  32.782   7.950
 5346POPC   C4B28246   8.260  32.798   7.650
 5347POPC   NC328247   1.238   5.853   9.450
 5347POPC   PO428248   1.194   5.879   9.150
 5347POPC   GL128249   1.246   5.827   8.850
 5347POPC   GL228250   1.134   5.788   8.850
 5347POPC   C1A28251   1.181   5.899   8.550
 5347POPC   D2A28252   1.226   5.871   8.250
 5347POPC   C3A28253   1.222   5.862   7.950
 5347POPC   C4A28254   1.212   5.874   7.650
 5347POPC   C1B28255   1.008   5.644   8.550
 5347POPC   C2B28256   1.027   5.702   8.250
 5347POPC   C3B28257   1.078   5.718   7.950
 5347POPC   C4B28258   1.041   5.634   7.650
 5348POPC   NC328259  30.722  23.684   9.450
 5348POPC   PO428260  30.725  23.708   9.150
 5348POPC   GL128261  30.675  23.748   8.850
 5348POPC   GL228262  30.618  23.593   8.850
 5348POPC   C1A28263  30.650  23.718   8.550
 5348POPC   D2A28264  30.648  23.743   8.250
 5348POPC   C3A28265  30.734  23.734   7.950
 5348POPC   C4A28266  30.702  23.703   7.650
 5348POPC   C1B28267  30.530  23.558   8.550
 5348POPC   C2B28268  30.504  23.486   8.250
 5348POPC   C3B28269  30.532  23.483   7.950
 5348POPC   C4B28270  30.560  23.559   7.650
 5349POPC   NC328271   3.589  15.984   9.450
 5349POPC   PO428272   3.506  15.912   9.150
 5349POPC   GL128273   3.510  15.916   8.850
 5349POPC   GL228274   3.460  15.954   8.850
 5349POPC   C1A28275   3.497  15.956   8.550
 5349POPC   D2A28276   3.549  15.995   8.250
 5349POPC   C3A28277   3.498  15.973   7.950
 5349POPC   C4A28278   3.583  15.974   7.650
 5349POPC   C1B28279   3.303  16.017   8.550
 5349POPC   C2B28280   3.321  16.012   8.250
 5349POPC   C3B28281   3.322  16.016   7.950
 5349POPC   C4B28282   3.339  16.015   7.650
 5350POPC   NC328283  23.726  30.668   9.450
 5350POPC   PO428284  23.693  30.725   9.150
 5350POPC   GL128285  23.759  30.657   8.850
 5350POPC   GL228286  23.658  30.615   8.850
 5350POPC   C1A28287  23.666  30.741   8.550
 5350POPC   D2A28288  23.679  30.708   8.250
 5350POPC   C3A28289  23.734  30.665   7.950
 5350POPC   C4A28290  23.676  30.734   7.650
 5350POPC   C1B28291  23.521  30.516   8.550
 5350POPC   C2B28292  23.595  30.528   8.250
 5350POPC   C3B28293  23.552  30.470   7.950
 5350POPC   C4B28294  23.503  30.460   7.650
 5351POPC   NC328295  22.145  31.470   9.450
 5351POPC   PO428296  22.146  31.475   9.150
 5351POPC   GL128297  22.157  31.510   8.850
 5351POPC   GL228298  22.104  31.414   8.850
 5351POPC   C1A28299  22.180  31.431   8.550
 5351POPC   D2A28300  22.157  31.467   8.250
 5351POPC   C3A28301  22.136  31.434   7.950
 5351POPC   C4A28302  22.131  31.468   7.650
 5351POPC   C1B28303  21.941  31.329   8.550
 5351POPC   C2B28304  21.952  31.295   8.250
 5351POPC   C3B28305  21.904  31.313   7.950
 5351POPC   C4B28306  21.910  31.346   7.650
 5352POPC   NC328307  13.603   6.633   9.450
 5352POPC   PO428308  13.661   6.601   9.150
 5352POPC   GL128309  13.609   6.603   8.850
 5352POPC   GL228310  13.710   6.553   8.850
 5352POPC   C1A28311  13.605   6.627   8.550
 5352POPC   D2A28312  13.655   6.641   8.250
 5352POPC   C3A28313  13.639   6.657   7.950
 5352POPC   C4A28314  13.631   6.645   7.650
 5352POPC   C1B28315  13.772   6.509   8.550
 5352POPC   C2B28316  13.819   6.456   8.250
 5352POPC   C3B28317  13.849   6.490   7.950
 5352POPC   C4B28318  13.857   6.450   7.650
 5353POPC   NC328319  13.613  32.212   9.450
 5353POPC   PO428320  13.595  32.285   9.150
 5353POPC   GL128321  13.582  32.283   8.850
 5353POPC   GL228322  13.697  32.270   8.850
 5353POPC   C1A28323  13.593  32.293   8.550
 5353POPC   D2A28324  13.593  32.214   8.250
 5353POPC   C3A28325  13.660  32.204   7.950
 5353POPC   C4A28326  13.650  32.237   7.650
 5353POPC   C1B28327  13.858  32.411   8.550
 5353POPC   C2B28328  13.858  32.337   8.250
 5353POPC   C3B28329  13.804  32.378   7.950
 5353POPC   C4B28330  13.881  32.418   7.650
 5354POPC   NC328331   1.198  22.907   9.450
 5354POPC   PO428332   1.205  22.902   9.150
 5354POPC   GL128333   1.172  22.974   8.850
 5354POPC   GL228334   1.358  22.989   8.850
 5354POPC   C1A28335   1.189  22.972   8.550
 5354POPC   D2A28336   1.246  22.928   8.250
 5354POPC   C3A28337   1.252  22.896   7.950
 5354POPC   C4A28338   1.215  22.985   7.650
 5354POPC   C1B28339   1.427  23.001   8.550
 5354POPC   C2B28340   1.491  23.002   8.250
 5354POPC   C3B28341   1.469  22.992   7.950
 5354POPC   C4B28342   1.492  23.060   7.650
 5355POPC   NC328343  41.523   8.228   9.450
 5355POPC   PO428344  41.537   8.219   9.150
 5355POPC   GL128345  41.577   8.213   8.850
 5355POPC   GL228346  41.689   8.179   8.850
 5355POPC   C1A28347  41.572   8.225   8.550
 5355POPC   D2A28348  41.593   8.153   8.250
 5355POPC   C3A28349  41.561   8.169   7.950
 5355POPC   C4A28350  41.573   8.223   7.650
 5355POPC   C1B28351  41.831   8.251   8.550
 5355POPC   C2B28352  41.771   8.259   8.250
 5355POPC   C3B28353  41.814   8.283   7.950
 5355POPC   C4B28354  41.841   8.294   7.650
 5356POPC   NC328355  14.420  26.850   9.450
 5356POPC   PO428356  14.366  26.853   9.150
 5356POPC   GL128357  14.426  26.771   8.850
 5356POPC   GL228358  14.492  26.703   8.850
 5356POPC   C1A28359  14.413  26.821   8.550
 5356POPC   D2A28360  14.355  26.792   8.250
 5356POPC   C3A28361  14.417  26.771   7.950
 5356POPC   C4A28362  14.393  26.858   7.650
 5356POPC   C1B28363  14.530  26.615   8.550
 5356POPC   C2B28364  14.534  26.662   8.250
 5356POPC   C3B28365  14.585  26.677   7.950
 5356POPC   C4B28366  14.560  26.638   7.650
 5357POPC   NC328367   3.559   5.080   9.450
 5357POPC   PO428368   3.550   5.099   9.150
 5357POPC   GL128369   3.501   5.101   8.850
 5357POPC   GL228370   3.631   5.177   8.850
 5357POPC   C1A28371   3.509   5.124   8.550
 5357POPC   D2A28372   3.526   5.115   8.250
 5357POPC   C3A28373   3.562   5.118   7.950
 5357POPC   C4A28374   3.521   5.073   7.650
 5357POPC   C1B28375   3.613   5.339   8.550
 5357POPC   C2B28376   3.618   5.306   8.250
 5357POPC   C3B28377   3.676   5.363   7.950
 5357POPC   C4B28378   3.660   5.301   7.650
 5358POPC   NC328379  25.278  12.097   9.450
 5358POPC   PO428380  25.264  12.068   9.150
 5358POPC   GL128381  25.240  12.030   8.850
 5358POPC   GL228382  25.379  12.040   8.850
 5358POPC   C1A28383  25.297  12.070   8.550
 5358POPC   D2A28384  25.245  12.029   8.250
 5358POPC   C3A28385  25.219  12.079   7.950
 5358POPC   C4A28386  25.302  12.047   7.650
 5358POPC   C1B28387  25.487  12.011   8.550
 5358POPC   C2B28388  25.544  12.061   8.250
 5358POPC   C3B28389  25.511  12.047   7.950
 5358POPC   C4B28390  25.466  12.013   7.650
 5359POPC   NC328391  36.154  36.885   9.450
 5359POPC   PO428392  36.134  36.871   9.150
 5359POPC   GL128393  36.132  36.926   8.850
 5359POPC   GL228394  36.062  37.009   8.850
 5359POPC   C1A28395  36.091  36.861   8.550
 5359POPC   D2A28396  36.115  36.945   8.250
 5359POPC   C3A28397  36.091  36.931   7.950
 5359POPC   C4A28398  36.083  36.922   7.650
 5359POPC   C1B28399  35.957  37.024   8.550
 5359POPC   C2B28400  35.987  37.097   8.250
 5359POPC   C3B28401  35.917  37.024   7.950
 5359POPC   C4B28402  35.977  37.103   7.650
 5360POPC   NC328403  27.565  33.822   9.450
 5360POPC   PO428404  27.546  33.775   9.150
 5360POPC   GL128405  27.559  33.824   8.850
 5360POPC   GL228406  27.513  33.861   8.850
 5360POPC   C1A28407  27.599  33.806   8.550
 5360POPC   D2A28408  27.553  33.766   8.250
 5360POPC   C3A28409  27.584  33.775   7.950
 5360POPC   C4A28410  27.560  33.810   7.650
 5360POPC   C1B28411  27.387  33.892   8.550
 5360POPC   C2B28412  27.396  33.826   8.250
 5360POPC   C3B28413  27.399  33.870   7.950
 5360POPC   C4B28414  27.341  33.906   7.650
 5361POPC   NC328415  37.725  16.002   9.450
 5361POPC   PO428416  37.696  15.946   9.150
 5361POPC   GL128417  37.643  15.956   8.850
 5361POPC   GL228418  37.603  16.024   8.850
 5361POPC   C1A28419  37.677  15.915   8.550
 5361POPC   D2A28420  37.662  15.961   8.250
 5361POPC   C3A28421  37.676  15.929   7.950
 5361POPC   C4A28422  37.635  15.922   7.650
 5361POPC   C1B28423  37.556  16.164   8.550
 5361POPC   C2B28424  37.598  16.189   8.250
 5361POPC   C3B28425  37.527  16.215   7.950
 5361POPC   C4B28426  37.547  16.174   7.650
 5362POPC   NC328427  13.626  34.619   9.450
 5362POPC   PO428428  13.627  34.573   9.150
 5362POPC   GL128429  13.583  34.549   8.850
 5362POPC   GL228430  13.637  34.721   8.850
 5362POPC   C1A28431  13.609  34.558   8.550
 5362POPC   D2A28432  13.616  34.622   8.250
 5362POPC   C3A28433  13.649  34.568   7.950
 5362POPC   C4A28434  13.615  34.607   7.650
 5362POPC   C1B28435  13.623  34.859   8.550
 5362POPC   C2B28436  13.590  34.869   8.250
 5362POPC   C3B28437  13.621  34.831   7.950
 5362POPC   C4B28438  13.637  34.853   7.650
 5363POPC   NC328439  32.242  12.805   9.450
 5363POPC   PO428440  32.279  12.887   9.150
 5363POPC   GL128441  32.204  12.844   8.850
 5363POPC   GL228442  32.384  12.919   8.850
 5363POPC   C1A28443  32.233  12.867   8.550
 5363POPC   D2A28444  32.276  12.826   8.250
 5363POPC   C3A28445  32.203  12.838   7.950
 5363POPC   C4A28446  32.230  12.811   7.650
 5363POPC   C1B28447  32.520  12.937   8.550
 5363POPC   C2B28448  32.509  12.892   8.250
 5363POPC   C3B28449  32.506  12.856   7.950
 5363POPC   C4B28450  32.452  12.847   7.650
 5364POPC   NC328451  16.709  26.805   9.450
 5364POPC   PO428452  16.780  26.832   9.150
 5364POPC   GL128453  16.749  26.841   8.850
 5364POPC   GL228454  16.642  26.836   8.850
 5364POPC   C1A28455  16.685  26.777   8.550
 5364POPC   D2A28456  16.723  26.823   8.250
 5364POPC   C3A28457  16.763  26.826   7.950
 5364POPC   C4A28458  16.768  26.778   7.650
 5364POPC   C1B28459  16.506  26.829   8.550
 5364POPC   C2B28460  16.493  26.838   8.250
 5364POPC   C3B28461  16.504  26.786   7.950
 5364POPC   C4B28462  16.517  26.800   7.650
 5365POPC   NC328463  25.278  33.825   9.450
 5365POPC   PO428464  25.273  33.790   9.150
 5365POPC   GL128465  25.293  33.803   8.850
 5365POPC   GL228466  25.375  33.900   8.850
 5365POPC   C1A28467  25.297  33.774   8.550
 5365POPC   D2A28468  25.217  33.754   8.250
 5365POPC   C3A28469  25.315  33.839   7.950
 5365POPC   C4A28470  25.235  33.760   7.650
 5365POPC   C1B28471  25.467  33.942   8.550
 5365POPC   C2B28472  25.487  33.908   8.250
 5365POPC   C3B28473  25.443  33.921   7.950
 5365POPC   C4B28474  25.468  33.885   7.650
 5366POPC   NC328475   3.575   1.234   9.450
 5366POPC   PO428476   3.527   1.196   9.150
 5366POPC   GL128477   3.525   1.202   8.850
 5366POPC   GL228478   3.688   1.132   8.850
 5366POPC   C1A28479   3.570   1.185   8.550
 5366POPC   D2A28480   3.533   1.243   8.250
 5366POPC   C3A28481   3.497   1.250   7.950
 5366POPC   C4A28482   3.559   1.239   7.650
 5366POPC   C1B28483   3.795   1.165   8.550
 5366POPC   C2B28484   3.768   1.149   8.250
 5366POPC   C3B28485   3.769   1.134   7.950
 5366POPC   C4B28486   3.773   1.186   7.650
 5367POPC   NC328487  31.439   8.957   9.450
 5367POPC   PO428488  31.460   9.022   9.150
 5367POPC   GL128489  31.508   8.941   8.850
 5367POPC   GL228490  31.565   9.024   8.850
 5367POPC   C1A28491  31.511   9.000   8.550
 5367POPC   D2A28492  31.433   8.993   8.250
 5367POPC   C3A28493  31.509   8.990   7.950
 5367POPC   C4A28494  31.439   8.964   7.650
 5367POPC   C1B28495  31.714   9.077   8.550
 5367POPC   C2B28496  31.659   9.145   8.250
 5367POPC   C3B28497  31.725   9.140   7.950
 5367POPC   C4B28498  31.641   9.125   7.650
 5368POPC   NC328499  11.267   5.885   9.450
 5368POPC   PO428500  11.310   5.844   9.150
 5368POPC   GL128501  11.275   5.894   8.850
 5368POPC   GL228502  11.238   5.966   8.850
 5368POPC   C1A28503  11.283   5.860   8.550
 5368POPC   D2A28504  11.262   5.831   8.250
 5368POPC   C3A28505  11.274   5.831   7.950
 5368POPC   C4A28506  11.312   5.864   7.650
 5368POPC   C1B28507  11.276   6.148   8.550
 5368POPC   C2B28508  11.253   6.083   8.250
 5368POPC   C3B28509  11.220   6.102   7.950
 5368POPC   C4B28510  11.260   6.069   7.650
 5369POPC   NC328511   9.764   0.444   9.450
 5369POPC   PO428512   9.782   0.473   9.150
 5369POPC   GL128513   9.767   0.473   8.850
 5369POPC   GL228514   9.670   0.293   8.850
 5369POPC   C1A28515   9.755   0.484   8.550
 5369POPC   D2A28516   9.779   0.403   8.250
 5369POPC   C3A28517   9.755   0.394   7.950
 5369POPC   C4A28518   9.722   0.477   7.650
 5369POPC   C1B28519   9.703   0.207   8.550
 5369POPC   C2B28520   9.644   0.170   8.250
 5369POPC   C3B28521   9.643   0.150   7.950
 5369POPC   C4B28522   9.677   0.227   7.650
 5370POPC   NC328523  36.094  16.695   9.450
 5370POPC   PO428524  36.136  16.704   9.150
 5370POPC   GL128525  36.170  16.726   8.850
 5370POPC   GL228526  36.170  16.600   8.850
 5370POPC   C1A28527  36.147  16.690   8.550
 5370POPC   D2A28528  36.176  16.738   8.250
 5370POPC   C3A28529  36.135  16.693   7.950
 5370POPC   C4A28530  36.151  16.715   7.650
 5370POPC   C1B28531  36.193  16.434   8.550
 5370POPC   C2B28532  36.192  16.511   8.250
 5370POPC   C3B28533  36.151  16.523   7.950
 5370POPC   C4B28534  36.136  16.529   7.650
 5371POPC   NC328535  42.371  15.942   9.450
 5371POPC   PO428536  42.341  15.915   9.150
 5371POPC   GL128537  42.347  15.950   8.850
 5371POPC   GL228538  42.397  15.977   8.850
 5371POPC   C1A28539  42.299  15.942   8.550
 5371POPC   D2A28540  42.314  15.915   8.250
 5371POPC   C3A28541  42.336  15.928   7.950
 5371POPC   C4A28542  42.293  15.934   7.650
 5371POPC   C1B28543  42.501  16.060   8.550
 5371POPC   C2B28544  42.556  16.114   8.250
 5371POPC   C3B28545  42.502  16.099   7.950
 5371POPC   C4B28546  42.564  16.128   7.650
 5372POPC   NC328547  13.630  22.131   9.450
 5372POPC   PO428548  13.600  22.146   9.150
 5372POPC   GL128549  13.590  22.151   8.850
 5372POPC   GL228550  13.701  22.262   8.850
 5372POPC   C1A28551  13.627  22.196   8.550
 5372POPC   D2A28552  13.639  22.118   8.250
 5372POPC   C3A28553  13.662  22.140   7.950
 5372POPC   C4A28554  13.649  22.164   7.650
 5372POPC   C1B28555  13.769  22.409   8.550
 5372POPC   C2B28556  13.800  22.350   8.250
 5372POPC   C3B28557  13.803  22.396   7.950
 5372POPC   C4B28558  13.772  22.335   7.650
 5373POPC   NC328559  11.318  33.001   9.450
 5373POPC   PO428560  11.288  32.986   9.150
 5373POPC   GL128561  11.316  33.040   8.850
 5373POPC   GL228562  11.348  33.139   8.850
 5373POPC   C1A28563  11.315  33.036   8.550
 5373POPC   D2A28564  11.261  33.049   8.250
 5373POPC   C3A28565  11.334  32.974   7.950
 5373POPC   C4A28566  11.293  33.072   7.650
 5373POPC   C1B28567  11.299  33.278   8.550
 5373POPC   C2B28568  11.296  33.301   8.250
 5373POPC   C3B28569  11.375  33.277   7.950
 5373POPC   C4B28570  11.280  33.231   7.650
 5374POPC   NC328571  29.127  42.289   9.450
 5374POPC   PO428572  29.095  42.343   9.150
 5374POPC   GL128573  29.098  42.380   8.850
 5374POPC   GL228574  28.987  42.309   8.850
 5374POPC   C1A28575  29.181  42.285   8.550
 5374POPC   D2A28576  29.146  42.347   8.250
 5374POPC   C3A28577  29.178  42.352   7.950
 5374POPC   C4A28578  29.130  42.285   7.650
 5374POPC   C1B28579  28.938  42.283   8.550
 5374POPC   C2B28580  28.891  42.221   8.250
 5374POPC   C3B28581  28.862  42.259   7.950
 5374POPC   C4B28582  28.912  42.231   7.650
 5375POPC   NC328583   9.775  36.937   9.450
 5375POPC   PO428584   9.741  36.920   9.150
 5375POPC   GL128585   9.731  36.859   8.850
 5375POPC   GL228586   9.722  37.073   8.850
 5375POPC   C1A28587   9.763  36.856   8.550
 5375POPC   D2A28588   9.749  36.924   8.250
 5375POPC   C3A28589   9.704  36.917   7.950
 5375POPC   C4A28590   9.777  36.904   7.650
 5375POPC   C1B28591   9.768  37.131   8.550
 5375POPC   C2B28592   9.767  37.113   8.250
 5375POPC   C3B28593   9.713  37.173   7.950
 5375POPC   C4B28594   9.704  37.115   7.650
 5376POPC   NC328595   6.598  43.930   9.450
 5376POPC   PO428596   6.677  43.846   9.150
 5376POPC   GL128597   6.649  43.847   8.850
 5376POPC   GL228598   6.777  43.947   8.850
 5376POPC   C1A28599   6.679  43.892   8.550
 5376POPC   D2A28600   6.659  43.838   8.250
 5376POPC   C3A28601   6.616  43.900   7.950
 5376POPC   C4A28602   6.626  43.876   7.650
 5376POPC   C1B28603   6.805  44.075   8.550
 5376POPC   C2B28604   6.843  44.014   8.250
 5376POPC   C3B28605   6.803  43.997   7.950
 5376POPC   C4B28606   6.847  44.044   7.650
 5377POPC   NC328607   2.779  28.319   9.450
 5377POPC   PO428608   2.791  28.415   9.150
 5377POPC   GL128609   2.811  28.385   8.850
 5377POPC   GL228610   2.732  28.247   8.850
 5377POPC   C1A28611   2.752  28.400   8.550
 5377POPC   D2A28612   2.758  28.329   8.250
 5377POPC   C3A28613   2.812  28.413   7.950
 5377POPC   C4A28614   2.732  28.417   7.650
 5377POPC   C1B28615   2.681  28.132   8.550
 5377POPC   C2B28616   2.754  28.160   8.250
 5377POPC   C3B28617   2.773  28.147   7.950
 5377POPC   C4B28618   2.713  28.167   7.650
 5378POPC   NC328619  40.055   8.923   9.450
 5378POPC   PO428620  40.002   8.934   9.150
 5378POPC   GL128621  39.983   8.937   8.850
 5378POPC   GL228622  40.168   9.049   8.850
 5378POPC   C1A28623  39.967   8.991   8.550
 5378POPC   D2A28624  40.016   9.015   8.250
 5378POPC   C3A28625  40.009   8.981   7.950
 5378POPC   C4A28626  40.013   8.926   7.650
 5378POPC   C1B28627  40.262   9.024   8.550
 5378POPC   C2B28628  40.266   9.056   8.250
 5378POPC   C3B28629  40.213   9.086   7.950
 5378POPC   C4B28630  40.248   9.009   7.650
 5379POPC   NC328631  44.671   3.581   9.450
 5379POPC   PO428632  44.697   3.510   9.150
 5379POPC   GL128633  44.668   3.571   8.850
 5379POPC   GL228634  44.572   3.502   8.850
 5379POPC   C1A28635  44.641   3.562   8.550
 5379POPC   D2A28636  44.621   3.552   8.250
 5379POPC   C3A28637  44.661   3.503   7.950
 5379POPC   C4A28638  44.662   3.548   7.650
 5379POPC   C1B28639  44.420   3.366   8.550
 5379POPC   C2B28640  44.460   3.423   8.250
 5379POPC   C3B28641  44.464   3.375   7.950
 5379POPC   C4B28642  44.432   3.406   7.650
 5380POPC   NC328643  14.425  12.108   9.450
 5380POPC   PO428644  14.390  12.066   9.150
 5380POPC   GL128645  14.418  12.102   8.850
 5380POPC   GL228646  14.492  12.157   8.850
 5380POPC   C1A28647  14.440  12.112   8.550
 5380POPC   D2A28648  14.375  12.064   8.250
 5380POPC   C3A28649  14.444  12.125   7.950
 5380POPC   C4A28650  14.404  12.098   7.650
 5380POPC   C1B28651  14.666  12.147   8.550
 5380POPC   C2B28652  14.601  12.126   8.250
 5380POPC   C3B28653  14.642  12.125   7.950
 5380POPC   C4B28654  14.595  12.158   7.650
 5381POPC   NC328655  36.920  23.717   9.450
 5381POPC   PO428656  36.857  23.708   9.150
 5381POPC   GL128657  36.921  23.726   8.850
 5381POPC   GL228658  36.771  23.691   8.850
 5381POPC   C1A28659  36.893  23.702   8.550
 5381POPC   D2A28660  36.946  23.727   8.250
 5381POPC   C3A28661  36.945  23.685   7.950
 5381POPC   C4A28662  36.891  23.693   7.650
 5381POPC   C1B28663  36.619  23.690   8.550
 5381POPC   C2B28664  36.621  23.711   8.250
 5381POPC   C3B28665  36.636  23.655   7.950
 5381POPC   C4B28666  36.677  23.725   7.650
 5382POPC   NC328667   1.941  12.863   9.450
 5382POPC   PO428668   1.959  12.851   9.150
 5382POPC   GL128669   2.001  12.856   8.850
 5382POPC   GL228670   1.855  12.836   8.850
 5382POPC   C1A28671   1.965  12.851   8.550
 5382POPC   D2A28672   1.966  12.860   8.250
 5382POPC   C3A28673   1.982  12.851   7.950
 5382POPC   C4A28674   1.975  12.873   7.650
 5382POPC   C1B28675   1.801  12.704   8.550
 5382POPC   C2B28676   1.730  12.702   8.250
 5382POPC   C3B28677   1.791  12.769   7.950
 5382POPC   C4B28678   1.740  12.694   7.650
 5383POPC   NC328679  28.345   9.002   9.450
 5383POPC   PO428680  28.407   8.939   9.150
 5383POPC   GL128681  28.368   8.931   8.850
 5383POPC   GL228682  28.384   8.803   8.850
 5383POPC   C1A28683  28.349   8.987   8.550
 5383POPC   D2A28684  28.407   8.965   8.250
 5383POPC   C3A28685  28.361   9.009   7.950
 5383POPC   C4A28686  28.397   8.993   7.650
 5383POPC   C1B28687  28.261   8.740   8.550
 5383POPC   C2B28688  28.275   8.742   8.250
 5383POPC   C3B28689  28.312   8.758   7.950
 5383POPC   C4B28690  28.292   8.778   7.650
 5384POPC   NC328691  35.389   6.669   9.450
 5384POPC   PO428692  35.368   6.643   9.150
 5384POPC   GL128693  35.359   6.630   8.850
 5384POPC   GL228694  35.418   6.610   8.850
 5384POPC   C1A28695  35.358   6.670   8.550
 5384POPC   D2A28696  35.321   6.619   8.250
 5384POPC   C3A28697  35.357   6.601   7.950
 5384POPC   C4A28698  35.334   6.596   7.650
 5384POPC   C1B28699  35.524   6.441   8.550
 5384POPC   C2B28700  35.535   6.456   8.250
 5384POPC   C3B28701  35.560   6.450   7.950
 5384POPC   C4B28702  35.582   6.465   7.650
 5385POPC   NC328703  29.124  30.674   9.450
 5385POPC   PO428704  29.123  30.723   9.150
 5385POPC   GL128705  29.186  30.673   8.850
 5385POPC   GL228706  29.149  30.838   8.850
 5385POPC   C1A28707  29.133  30.699   8.550
 5385POPC   D2A28708  29.165  30.654   8.250
 5385POPC   C3A28709  29.097  30.666   7.950
 5385POPC   C4A28710  29.175  30.679   7.650
 5385POPC   C1B28711  29.080  30.907   8.550
 5385POPC   C2B28712  29.114  30.954   8.250
 5385POPC   C3B28713  29.088  30.916   7.950
 5385POPC   C4B28714  29.130  30.916   7.650
 5386POPC   NC328715   6.608  11.294   9.450
 5386POPC   PO428716   6.650  11.341   9.150
 5386POPC   GL128717   6.639  11.271   8.850
 5386POPC   GL228718   6.528  11.402   8.850
 5386POPC   C1A28719   6.669  11.305   8.550
 5386POPC   D2A28720   6.645  11.339   8.250
 5386POPC   C3A28721   6.602  11.347   7.950
 5386POPC   C4A28722   6.680  11.264   7.650
 5386POPC   C1B28723   6.395  11.382   8.550
 5386POPC   C2B28724   6.413  11.398   8.250
 5386POPC   C3B28725   6.463  11.394   7.950
 5386POPC   C4B28726   6.373  11.412   7.650
 5387POPC   NC328727  10.501  43.914   9.450
 5387POPC   PO428728  10.474  43.878   9.150
 5387POPC   GL128729  10.524  43.857   8.850
 5387POPC   GL228730  10.607  43.802   8.850
 5387POPC   C1A28731  10.481  43.875   8.550
 5387POPC   D2A28732  10.524  43.853   8.250
 5387POPC   C3A28733  10.497  43.892   7.950
 5387POPC   C4A28734  10.526  43.896   7.650
 5387POPC   C1B28735  10.696  43.711   8.550
 5387POPC   C2B28736  10.647  43.723   8.250
 5387POPC   C3B28737  10.704  43.742   7.950
 5387POPC   C4B28738  10.708  43.747   7.650
 5388POPC   NC328739  26.767  16.700   9.450
 5388POPC   PO428740  26.778  16.751   9.150
 5388POPC   GL128741  26.787  16.742   8.850
 5388POPC   GL228742  26.667  16.802   8.850
 5388POPC   C1A28743  26.837  16.727   8.550
 5388POPC   D2A28744  26.811  16.702   8.250
 5388POPC   C3A28745  26.862  16.691   7.950
 5388POPC   C4A28746  26.779  16.684   7.650
 5388POPC   C1B28747  26.593  16.849   8.550
 5388POPC   C2B28748  26.554  16.798   8.250
 5388POPC   C3B28749  26.597  16.782   7.950
 5388POPC   C4B28750  26.556  16.794   7.650
 5389POPC   NC328751  15.937  10.475   9.450
 5389POPC   PO428752  15.911  10.525   9.150
 5389POPC   GL128753  15.956  10.554   8.850
 5389POPC   GL228754  16.041  10.571   8.850
 5389POPC   C1A28755  15.930  10.493   8.550
 5389POPC   D2A28756  15.911  10.549   8.250
 5389POPC   C3A28757  15.978  10.511   7.950
 5389POPC   C4A28758  15.908  10.531   7.650
 5389POPC   C1B28759  16.191  10.521   8.550
 5389POPC   C2B28760  16.186  10.573   8.250
 5389POPC   C3B28761  16.189  10.497   7.950
 5389POPC   C4B28762  16.167  10.544   7.650
 5390POPC   NC328763   5.881  39.210   9.450
 5390POPC   PO428764   5.821  39.243   9.150
 5390POPC   GL128765   5.882  39.248   8.850
 5390POPC   GL228766   5.711  39.235   8.850
 5390POPC   C1A28767   5.823  39.185   8.550
 5390POPC   D2A28768   5.879  39.195   8.250
 5390POPC   C3A28769   5.853  39.219   7.950
 5390POPC   C4A28770   5.918  39.193   7.650
 5390POPC   C1B28771   5.642  39.160   8.550
 5390POPC   C2B28772   5.650  39.233   8.250
 5390POPC   C3B28773   5.650  39.225   7.950
 5390POPC   C4B28774   5.631  39.170   7.650
 5391POPC   NC328775  19.843  19.103   9.450
 5391POPC   PO428776  19.791  19.027   9.150
 5391POPC   GL128777  19.786  19.064   8.850
 5391POPC   GL228778  19.853  18.897   8.850
 5391POPC   C1A28779  19.873  19.087   8.550
 5391POPC   D2A28780  19.880  19.085   8.250
 5391POPC   C3A28781  19.859  19.070   7.950
 5391POPC   C4A28782  19.791  19.071   7.650
 5391POPC   C1B28783  19.928  18.778   8.550
 5391POPC   C2B28784  19.910  18.797   8.250
 5391POPC   C3B28785  19.908  18.817   7.950
 5391POPC   C4B28786  19.858  18.850   7.650
 5392POPC   NC328787  16.703   5.883   9.450
 5392POPC   PO428788  16.753   5.917   9.150
 5392POPC   GL128789  16.767   5.919   8.850
 5392POPC   GL228790  16.624   5.921   8.850
 5392POPC   C1A28791  16.757   5.874   8.550
 5392POPC   D2A28792  16.728   5.868   8.250
 5392POPC   C3A28793  16.778   5.899   7.950
 5392POPC   C4A28794  16.741   5.855   7.650
 5392POPC   C1B28795  16.590   6.048   8.550
 5392POPC   C2B28796  16.516   6.097   8.250
 5392POPC   C3B28797  16.532   6.013   7.950
 5392POPC   C4B28798  16.581   6.103   7.650
 5393POPC   NC328799  27.579  12.846   9.450
 5393POPC   PO428800  27.614  12.895   9.150
 5393POPC   GL128801  27.623  12.832   8.850
 5393POPC   GL228802  27.622  12.916   8.850
 5393POPC   C1A28803  27.555  12.901   8.550
 5393POPC   D2A28804  27.595  12.810   8.250
 5393POPC   C3A28805  27.633  12.836   7.950
 5393POPC   C4A28806  27.614  12.847   7.650
 5393POPC   C1B28807  27.753  13.094   8.550
 5393POPC   C2B28808  27.706  13.078   8.250
 5393POPC   C3B28809  27.764  13.101   7.950
 5393POPC   C4B28810  27.758  13.097   7.650
 5394POPC   NC328811   4.275  19.798   9.450
 5394POPC   PO428812   4.312  19.854   9.150
 5394POPC   GL128813   4.358  19.806   8.850
 5394POPC   GL228814   4.410  19.970   8.850
 5394POPC   C1A28815   4.317  19.827   8.550
 5394POPC   D2A28816   4.282  19.810   8.250
 5394POPC   C3A28817   4.327  19.798   7.950
 5394POPC   C4A28818   4.326  19.814   7.650
 5394POPC   C1B28819   4.451  20.017   8.550
 5394POPC   C2B28820   4.509  19.963   8.250
 5394POPC   C3B28821   4.495  20.015   7.950
 5394POPC   C4B28822   4.524  19.997   7.650
 5395POPC   NC328823  28.334  16.708   9.450
 5395POPC   PO428824  28.402  16.740   9.150
 5395POPC   GL128825  28.368  16.775   8.850
 5395POPC   GL228826  28.403  16.847   8.850
 5395POPC   C1A28827  28.409  16.720   8.550
 5395POPC   D2A28828  28.366  16.684   8.250
 5395POPC   C3A28829  28.372  16.732   7.950
 5395POPC   C4A28830  28.385  16.779   7.650
 5395POPC   C1B28831  28.423  16.951   8.550
 5395POPC   C2B28832  28.404  16.983   8.250
 5395POPC   C3B28833  28.422  16.966   7.950
 5395POPC   C4B28834  28.425  17.000   7.650
 5396POPC   NC328835  34.579  37.676   9.450
 5396POPC   PO428836  34.545  37.634   9.150
 5396POPC   GL128837  34.550  37.693   8.850
 5396POPC   GL228838  34.515  37.830   8.850
 5396POPC   C1A28839  34.610  37.676   8.550
 5396POPC   D2A28840  34.604  37.677   8.250
 5396POPC   C3A28841  34.620  37.652   7.950
 5396POPC   C4A28842  34.568  37.636   7.650
 5396POPC   C1B28843  34.462  37.901   8.550
 5396POPC   C2B28844  34.461  37.908   8.250
 5396POPC   C3B28845  34.421  37.880   7.950
 5396POPC   C4B28846  34.475  37.856   7.650
 5397POPC   NC328847  18.257  31.492   9.450
 5397POPC   PO428848  18.276  31.498   9.150
 5397POPC   GL128849  18.313  31.517   8.850
 5397POPC   GL228850  18.341  31.336   8.850
 5397POPC   C1A28851  18.328  31.458   8.550
 5397POPC   D2A28852  18.320  31.498   8.250
 5397POPC   C3A28853  18.329  31.464   7.950
 5397POPC   C4A28854  18.236  31.486   7.650
 5397POPC   C1B28855  18.360  31.238   8.550
 5397POPC   C2B28856  18.329  31.201   8.250
 5397POPC   C3B28857  18.319  31.247   7.950
 5397POPC   C4B28858  18.392  31.199   7.650
 5398POPC   NC328859  39.226  20.570   9.450
 5398POPC   PO428860  39.225  20.636   9.150
 5398POPC   GL128861  39.209  20.588   8.850
 5398POPC   GL228862  39.125  20.698   8.850
 5398POPC   C1A28863  39.255  20.636   8.550
 5398POPC   D2A28864  39.238  20.631   8.250
 5398POPC   C3A28865  39.190  20.612   7.950
 5398POPC   C4A28866  39.250  20.650   7.650
 5398POPC   C1B28867  38.974  20.719   8.550
 5398POPC   C2B28868  38.994  20.724   8.250
 5398POPC   C3B28869  39.053  20.684   7.950
 5398POPC   C4B28870  39.035  20.693   7.650
 5399POPC   NC328871  36.175  19.096   9.450
 5399POPC   PO428872  36.174  19.068   9.150
 5399POPC   GL128873  36.139  19.034   8.850
 5399POPC   GL228874  36.210  18.982   8.850
 5399POPC   C1A28875  36.143  19.095   8.550
 5399POPC   D2A28876  36.163  19.053   8.250
 5399POPC   C3A28877  36.088  19.096   7.950
 5399POPC   C4A28878  36.104  19.019   7.650
 5399POPC   C1B28879  36.322  18.850   8.550
 5399POPC   C2B28880  36.292  18.842   8.250
 5399POPC   C3B28881  36.258  18.866   7.950
 5399POPC   C4B28882  36.306  18.908   7.650
 5400POPC   NC328883  33.761  37.719   9.450
 5400POPC   PO428884  33.843  37.661   9.150
 5400POPC   GL128885  33.794  37.655   8.850
 5400POPC   GL228886  33.942  37.654   8.850
 5400POPC   C1A28887  33.829  37.728   8.550
 5400POPC   D2A28888  33.750  37.636   8.250
 5400POPC   C3A28889  33.815  37.655   7.950
 5400POPC   C4A28890  33.773  37.694   7.650
 5400POPC   C1B28891  34.057  37.573   8.550
 5400POPC   C2B28892  34.041  37.603   8.250
 5400POPC   C3B28893  34.001  37.575   7.950
 5400POPC   C4B28894  34.063  37.604   7.650
 5401POPC   NC328895  13.666  15.224   9.450
 5401POPC   PO428896  13.582  15.165   9.150
 5401POPC   GL128897  13.626  15.185   8.850
 5401POPC   GL228898  13.712  15.283   8.850
 5401POPC   C1A28899  13.626  15.199   8.550
 5401POPC   D2A28900  13.635  15.131   8.250
 5401POPC   C3A28901  13.621  15.130   7.950
 5401POPC   C4A28902  13.582  15.214   7.650
 5401POPC   C1B28903  13.803  15.370   8.550
 5401POPC   C2B28904  13.795  15.326   8.250
 5401POPC   C3B28905  13.844  15.356   7.950
 5401POPC   C4B28906  13.806  15.308   7.650
 5402POPC   NC328907  26.087  44.621   9.450
 5402POPC   PO428908  26.001  44.637   9.150
 5402POPC   GL128909  26.084  44.688   8.850
 5402POPC   GL228910  26.141  44.605   8.850
 5402POPC   C1A28911  26.034  44.634   8.550
 5402POPC   D2A28912  26.004  44.663   8.250
 5402POPC   C3A28913  26.075  44.635   7.950
 5402POPC   C4A28914  26.013  44.690   7.650
 5402POPC   C1B28915  26.265  44.605   8.550
 5402POPC   C2B28916  26.322  44.627   8.250
 5402POPC   C3B28917  26.261  44.572   7.950
 5402POPC   C4B28918  26.283  44.612   7.650
 5403POPC   NC328919   2.756   4.344   9.450
 5403POPC   PO428920   2.722   4.350   9.150
 5403POPC   GL128921   2.809   4.283   8.850
 5403POPC   GL228922   2.674   4.430   8.850
 5403POPC   C1A28923   2.762   4.278   8.550
 5403POPC   D2A28924   2.782   4.361   8.250
 5403POPC   C3A28925   2.729   4.342   7.950
 5403POPC   C4A28926   2.804   4.362   7.650
 5403POPC   C1B28927   2.672   4.580   8.550
 5403POPC   C2B28928   2.609   4.577   8.250
 5403POPC   C3B28929   2.590   4.538   7.950
 5403POPC   C4B28930   2.664   4.561   7.650
 5404POPC   NC328931   2.023  37.642   9.450
 5404POPC   PO428932   2.019  37.694   9.150
 5404POPC   GL128933   2.003  37.645   8.850
 5404POPC   GL228934   1.950  37.780   8.850
 5404POPC   C1A28935   2.036  37.645   8.550
 5404POPC   D2A28936   1.986  37.725   8.250
 5404POPC   C3A28937   2.010  37.661   7.950
 5404POPC   C4A28938   2.012  37.649   7.650
 5404POPC   C1B28939   1.799  37.857   8.550
 5404POPC   C2B28940   1.769  37.888   8.250
 5404POPC   C3B28941   1.814  37.867   7.950
 5404POPC   C4B28942   1.794  37.829   7.650
 5405POPC   NC328943  29.901  42.315   9.450
 5405POPC   PO428944  29.970  42.351   9.150
 5405POPC   GL128945  29.895  42.335   8.850
 5405POPC   GL228946  29.965  42.252   8.850
 5405POPC   C1A28947  29.910  42.325   8.550
 5405POPC   D2A28948  29.936  42.368   8.250
 5405POPC   C3A28949  29.962  42.316   7.950
 5405POPC   C4A28950  29.895  42.376   7.650
 5405POPC   C1B28951  30.078  42.112   8.550
 5405POPC   C2B28952  30.036  42.108   8.250
 5405POPC   C3B28953  30.064  42.116   7.950
 5405POPC   C4B28954  30.082  42.162   7.650
 5406POPC   NC328955  38.494  12.116   9.450
 5406POPC   PO428956  38.406  12.107   9.150
 5406POPC   GL128957  38.443  12.052   8.850
 5406POPC   GL228958  38.387  11.958   8.850
 5406POPC   C1A28959  38.432  12.080   8.550
 5406POPC   D2A28960  38.412  12.031   8.250
 5406POPC   C3A28961  38.495  12.045   7.950
 5406POPC   C4A28962  38.454  12.047   7.650
 5406POPC   C1B28963  38.270  11.891   8.550
 5406POPC   C2B28964  38.311  11.891   8.250
 5406POPC   C3B28965  38.305  11.913   7.950
 5406POPC   C4B28966  38.231  11.941   7.650
 5407POPC   NC328967  11.284  32.219   9.450
 5407POPC   PO428968  11.343  32.226   9.150
 5407POPC   GL128969  11.265  32.238   8.850
 5407POPC   GL228970  11.185  32.234   8.850
 5407POPC   C1A28971  11.286  32.274   8.550
 5407POPC   D2A28972  11.300  32.246   8.250
 5407POPC   C3A28973  11.278  32.274   7.950
 5407POPC   C4A28974  11.320  32.279   7.650
 5407POPC   C1B28975  11.082  32.159   8.550
 5407POPC   C2B28976  11.026  32.174   8.250
 5407POPC   C3B28977  11.106  32.170   7.950
 5407POPC   C4B28978  11.032  32.183   7.650
 5408POPC   NC328979  27.640  22.967   9.450
 5408POPC   PO428980  27.554  22.986   9.150
 5408POPC   GL128981  27.614  22.921   8.850
 5408POPC   GL228982  27.651  23.074   8.850
 5408POPC   C1A28983  27.602  22.962   8.550
 5408POPC   D2A28984  27.634  22.945   8.250
 5408POPC   C3A28985  27.590  22.903   7.950
 5408POPC   C4A28986  27.590  22.963   7.650
 5408POPC   C1B28987  27.743  23.147   8.550
 5408POPC   C2B28988  27.689  23.180   8.250
 5408POPC   C3B28989  27.662  23.164   7.950
 5408POPC   C4B28990  27.686  23.135   7.650
 5409POPC   NC328991   1.984  43.935   9.450
 5409POPC   PO428992   1.995  43.905   9.150
 5409POPC   GL128993   1.970  43.899   8.850
 5409POPC   GL228994   1.947  43.990   8.850
 5409POPC   C1A28995   1.978  43.859   8.550
 5409POPC   D2A28996   2.004  43.896   8.250
 5409POPC   C3A28997   1.951  43.923   7.950
 5409POPC   C4A28998   2.037  43.887   7.650
 5409POPC   C1B28999   1.829  44.067   8.550
 5409POPC   C2B29000   1.826  44.142   8.250
 5409POPC   C3B29001   1.900  44.096   7.950
 5409POPC   C4B29002   1.807  44.141   7.650
 5410POPC   NC329003   7.378  14.434   9.450
 5410POPC   PO429004   7.393  14.409   9.150
 5410POPC   GL129005   7.376  14.441   8.850
 5410POPC   GL229006   7.362  14.349   8.850
 5410POPC   C1A29007   7.434  14.419   8.550
 5410POPC   D2A29008   7.413  14.433   8.250
 5410POPC   C3A29009   7.429  14.360   7.950
 5410POPC   C4A29010   7.412  14.394   7.650
 5410POPC   C1B29011   7.232  14.241   8.550
 5410POPC   C2B29012   7.229  14.252   8.250
 5410POPC   C3B29013   7.258  14.255   7.950
 5410POPC   C4B29014   7.254  14.278   7.650
 5411POPC   NC329015  29.151  12.875   9.450
 5411POPC   PO429016  29.141  12.809   9.150
 5411POPC   GL129017  29.141  12.838   8.850
 5411POPC   GL229018  29.033  12.962   8.850
 5411POPC   C1A29019  29.164  12.884   8.550
 5411POPC   D2A29020  29.157  12.848   8.250
 5411POPC   C3A29021  29.141  12.872   7.950
 5411POPC   C4A29022  29.119  12.848   7.650
 5411POPC   C1B29023  28.898  12.960   8.550
 5411POPC   C2B29024  28.976  13.008   8.250
 5411POPC   C3B29025  28.935  12.994   7.950
 5411POPC   C4B29026  28.887  12.970   7.650
 5412POPC   NC329027  30.744  42.294   9.450
 5412POPC   PO429028  30.653  42.301   9.150
 5412POPC   GL129029  30.730  42.295   8.850
 5412POPC   GL229030  30.811  42.213   8.850
 5412POPC   C1A29031  30.696  42.316   8.550
 5412POPC   D2A29032  30.696  42.330   8.250
 5412POPC   C3A29033  30.741  42.383   7.950
 5412POPC   C4A29034  30.717  42.323   7.650
 5412POPC   C1B29035  30.875  42.160   8.550
 5412POPC   C2B29036  30.882  42.146   8.250
 5412POPC   C3B29037  30.888  42.216   7.950
 5412POPC   C4B29038  30.890  42.154   7.650
 5413POPC   NC329039  43.107  40.736   9.450
 5413POPC   PO429040  43.101  40.760   9.150
 5413POPC   GL129041  43.110  40.742   8.850
 5413POPC   GL229042  43.187  40.928   8.850
 5413POPC   C1A29043  43.065  40.758   8.550
 5413POPC   D2A29044  43.101  40.814   8.250
 5413POPC   C3A29045  43.133  40.770   7.950
 5413POPC   C4A29046  43.077  40.819   7.650
 5413POPC   C1B29047  43.155  41.055   8.550
 5413POPC   C2B29048  43.216  40.993   8.250
 5413POPC   C3B29049  43.232  41.052   7.950
 5413POPC   C4B29050  43.161  40.975   7.650
 5414POPC   NC329051  37.700  31.438   9.450
 5414POPC   PO429052  37.632  31.439   9.150
 5414POPC   GL129053  37.691  31.511   8.850
 5414POPC   GL229054  37.627  31.558   8.850
 5414POPC   C1A29055  37.695  31.490   8.550
 5414POPC   D2A29056  37.724  31.499   8.250
 5414POPC   C3A29057  37.664  31.432   7.950
 5414POPC   C4A29058  37.722  31.445   7.650
 5414POPC   C1B29059  37.579  31.736   8.550
 5414POPC   C2B29060  37.584  31.676   8.250
 5414POPC   C3B29061  37.612  31.734   7.950
 5414POPC   C4B29062  37.585  31.696   7.650
 5415POPC   NC329063  44.701   5.899   9.450
 5415POPC   PO429064  44.659   5.847   9.150
 5415POPC   GL129065  44.706   5.908   8.850
 5415POPC   GL229066  44.592   5.935   8.850
 5415POPC   C1A29067  44.683   5.834   8.550
 5415POPC   D2A29068  44.663   5.859   8.250
 5415POPC   C3A29069  44.648   5.859   7.950
 5415POPC   C4A29070  44.641   5.910   7.650
 5415POPC   C1B29071  44.527   6.123   8.550
 5415POPC   C2B29072  44.566   6.076   8.250
 5415POPC   C3B29073  44.505   6.047   7.950
 5415POPC   C4B29074  44.583   6.074   7.650
 5416POPC   NC329075  18.238  13.601   9.450
 5416POPC   PO429076  18.324  13.629   9.150
 5416POPC   GL129077  18.287  13.633   8.850
 5416POPC   GL229078  18.167  13.559   8.850
 5416POPC   C1A29079  18.312  13.623   8.550
 5416POPC   D2A29080  18.286  13.651   8.250
 5416POPC   C3A29081  18.263  13.588   7.950
 5416POPC   C4A29082  18.297  13.609   7.650
 5416POPC   C1B29083  18.050  13.536   8.550
 5416POPC   C2B29084  18.010  13.545   8.250
 5416POPC   C3B29085  18.084  13.565   7.950
 5416POPC   C4B29086  18.079  13.606   7.650
 5417POPC   NC329087  13.658  18.298   9.450
 5417POPC   PO429088  13.591  18.310   9.150
 5417POPC   GL129089  13.601  18.241   8.850
 5417POPC   GL229090  13.734  18.242   8.850
 5417POPC   C1A29091  13.613  18.269   8.550
 5417POPC   D2A29092  13.662  18.307   8.250
 5417POPC   C3A29093  13.626  18.299   7.950
 5417POPC   C4A29094  13.634  18.328   7.650
 5417POPC   C1B29095  13.846  18.165   8.550
 5417POPC   C2B29096  13.893  18.189   8.250
 5417POPC   C3B29097  13.843  18.153   7.950
 5417POPC   C4B29098  13.808  18.198   7.650
 5418POPC   NC329099   7.404   3.507   9.450
 5418POPC   PO429100   7.458   3.575   9.150
 5418POPC   GL129101   7.378   3.528   8.850
 5418POPC   GL229102   7.550   3.608   8.850
 5418POPC   C1A29103   7.394   3.534   8.550
 5418POPC   D2A29104   7.403   3.557   8.250
 5418POPC   C3A29105   7.390   3.546   7.950
 5418POPC   C4A29106   7.409   3.563   7.650
 5418POPC   C1B29107   7.692   3.609   8.550
 5418POPC   C2B29108   7.672   3.621   8.250
 5418POPC   C3B29109   7.641   3.626   7.950
 5418POPC   C4B29110   7.679   3.609   7.650
 5419POPC   NC329111   6.645  19.011   9.450
 5419POPC   PO429112   6.665  19.022   9.150
 5419POPC   GL129113   6.624  19.011   8.850
 5419POPC   GL229114   6.558  19.154   8.850
 5419POPC   C1A29115   6.630  19.064   8.550
 5419POPC   D2A29116   6.633  19.051   8.250
 5419POPC   C3A29117   6.659  19.068   7.950
 5419POPC   C4A29118   6.673  19.096   7.650
 5419POPC   C1B29119   6.475  19.287   8.550
 5419POPC   C2B29120   6.487  19.318   8.250
 5419POPC   C3B29121   6.472  19.295   7.950
 5419POPC   C4B29122   6.500  19.237   7.650
 5420POPC   NC329123  18.246   7.461   9.450
 5420POPC   PO429124  18.312   7.426   9.150
 5420POPC   GL129125  18.330   7.373   8.850
 5420POPC   GL229126  18.209   7.464   8.850
 5420POPC   C1A29127  18.314   7.400   8.550
 5420POPC   D2A29128  18.268   7.409   8.250
 5420POPC   C3A29129  18.250   7.426   7.950
 5420POPC   C4A29130  18.270   7.452   7.650
 5420POPC   C1B29131  18.037   7.474   8.550
 5420POPC   C2B29132  18.076   7.510   8.250
 5420POPC   C3B29133  18.014   7.486   7.950
 5420POPC   C4B29134  18.089   7.492   7.650
 5421POPC   NC329135  20.638  16.000   9.450
 5421POPC   PO429136  20.577  15.950   9.150
 5421POPC   GL129137  20.640  15.973   8.850
 5421POPC   GL229138  20.692  15.819   8.850
 5421POPC   C1A29139  20.597  15.939   8.550
 5421POPC   D2A29140  20.606  16.001   8.250
 5421POPC   C3A29141  20.593  15.953   7.950
 5421POPC   C4A29142  20.598  15.988   7.650
 5421POPC   C1B29143  20.661  15.711   8.550
 5421POPC   C2B29144  20.694  15.677   8.250
 5421POPC   C3B29145  20.692  15.693   7.950
 5421POPC   C4B29146  20.739  15.695   7.650
 5422POPC   NC329147  22.931  24.443   9.450
 5422POPC   PO429148  22.900  24.508   9.150
 5422POPC   GL129149  22.975  24.459   8.850
 5422POPC   GL229150  22.783  24.449   8.850
 5422POPC   C1A29151  22.937  24.493   8.550
 5422POPC   D2A29152  22.941  24.456   8.250
 5422POPC   C3A29153  22.939  24.524   7.950
 5422POPC   C4A29154  22.916  24.508   7.650
 5422POPC   C1B29155  22.725  24.460   8.550
 5422POPC   C2B29156  22.736  24.509   8.250
 5422POPC   C3B29157  22.709  24.506   7.950
 5422POPC   C4B29158  22.696  24.528   7.650
 5423POPC   NC329159  34.604   3.530   9.450
 5423POPC   PO429160  34.574   3.510   9.150
 5423POPC   GL129161  34.624   3.582   8.850
 5423POPC   GL229162  34.620   3.706   8.850
 5423POPC   C1A29163  34.558   3.569   8.550
 5423POPC   D2A29164  34.562   3.519   8.250
 5423POPC   C3A29165  34.611   3.584   7.950
 5423POPC   C4A29166  34.585   3.526   7.650
 5423POPC   C1B29167  34.543   3.830   8.550
 5423POPC   C2B29168  34.564   3.742   8.250
 5423POPC   C3B29169  34.594   3.761   7.950
 5423POPC   C4B29170  34.567   3.764   7.650
 5424POPC   NC329171   1.195   1.943   9.450
 5424POPC   PO429172   1.181   2.015   9.150
 5424POPC   GL129173   1.207   1.988   8.850
 5424POPC   GL229174   1.369   2.028   8.850
 5424POPC   C1A29175   1.216   1.940   8.550
 5424POPC   D2A29176   1.251   2.000   8.250
 5424POPC   C3A29177   1.251   1.942   7.950
 5424POPC   C4A29178   1.203   1.965   7.650
 5424POPC   C1B29179   1.412   2.138   8.550
 5424POPC   C2B29180   1.467   2.057   8.250
 5424POPC   C3B29181   1.470   2.080   7.950
 5424POPC   C4B29182   1.390   2.116   7.650
 5425POPC   NC329183  35.364  31.497   9.450
 5425POPC   PO429184  35.304  31.452   9.150
 5425POPC   GL129185  35.305  31.468   8.850
 5425POPC   GL229186  35.271  31.361   8.850
 5425POPC   C1A29187  35.328  31.462   8.550
 5425POPC   D2A29188  35.384  31.494   8.250
 5425POPC   C3A29189  35.341  31.519   7.950
 5425POPC   C4A29190  35.321  31.509   7.650
 5425POPC   C1B29191  35.264  31.207   8.550
 5425POPC   C2B29192  35.305  31.219   8.250
 5425POPC   C3B29193  35.243  31.256   7.950
 5425POPC   C4B29194  35.236  31.248   7.650
 5426POPC   NC329195  26.044  37.709   9.450
 5426POPC   PO429196  26.081  37.721   9.150
 5426POPC   GL129197  26.034  37.655   8.850
 5426POPC   GL229198  25.903  37.621   8.850
 5426POPC   C1A29199  26.011  37.724   8.550
 5426POPC   D2A29200  26.044  37.675   8.250
 5426POPC   C3A29201  26.028  37.712   7.950
 5426POPC   C4A29202  26.071  37.644   7.650
 5426POPC   C1B29203  25.841  37.471   8.550
 5426POPC   C2B29204  25.812  37.464   8.250
 5426POPC   C3B29205  25.909  37.555   7.950
 5426POPC   C4B29206  25.832  37.457   7.650
 5427POPC   NC329207  15.991  36.898   9.450
 5427POPC   PO429208  15.924  36.860   9.150
 5427POPC   GL129209  15.926  36.936   8.850
 5427POPC   GL229210  16.093  36.881   8.850
 5427POPC   C1A29211  15.967  36.885   8.550
 5427POPC   D2A29212  16.001  36.868   8.250
 5427POPC   C3A29213  15.956  36.854   7.950
 5427POPC   C4A29214  15.969  36.923   7.650
 5427POPC   C1B29215  16.194  36.788   8.550
 5427POPC   C2B29216  16.203  36.754   8.250
 5427POPC   C3B29217  16.190  36.798   7.950
 5427POPC   C4B29218  16.208  36.807   7.650
 5428POPC   NC329219  10.563  33.059   9.450
 5428POPC   PO429220  10.566  33.013   9.150
 5428POPC   GL129221  10.573  33.019   8.850
 5428POPC   GL229222  10.593  32.935   8.850
 5428POPC   C1A29223  10.516  32.977   8.550
 5428POPC   D2A29224  10.521  33.057   8.250
 5428POPC   C3A29225  10.515  33.042   7.950
 5428POPC   C4A29226  10.571  32.983   7.650
 5428POPC   C1B29227  10.585  32.776   8.550
 5428POPC   C2B29228  10.678  32.831   8.250
 5428POPC   C3B29229  10.629  32.788   7.950
 5428POPC   C4B29230  10.652  32.836   7.650
 5429POPC   NC329231  43.859   2.739   9.450
 5429POPC   PO429232  43.897   2.772   9.150
 5429POPC   GL129233  43.870   2.740   8.850
 5429POPC   GL229234  43.993   2.867   8.850
 5429POPC   C1A29235  43.923   2.813   8.550
 5429POPC   D2A29236  43.932   2.773   8.250
 5429POPC   C3A29237  43.918   2.796   7.950
 5429POPC   C4A29238  43.900   2.790   7.650
 5429POPC   C1B29239  44.013   2.941   8.550
 5429POPC   C2B29240  44.074   2.992   8.250
 5429POPC   C3B29241  44.054   3.007   7.950
 5429POPC   C4B29242  44.080   2.969   7.650
 5430POPC   NC329243  13.615   2.731   9.450
 5430POPC   PO429244  13.609   2.775   9.150
 5430POPC   GL129245  13.654   2.748   8.850
 5430POPC   GL229246  13.706   2.796   8.850
 5430POPC   C1A29247  13.646   2.796   8.550
 5430POPC   D2A29248  13.615   2.735   8.250
 5430POPC   C3A29249  13.590   2.814   7.950
 5430POPC   C4A29250  13.638   2.786   7.650
 5430POPC   C1B29251  13.848   2.701   8.550
 5430POPC   C2B29252  13.863   2.715   8.250
 5430POPC   C3B29253  13.907   2.711   7.950
 5430POPC   C4B29254  13.840   2.723   7.650
 5431POPC   NC329255  15.995  17.520   9.450
 5431POPC   PO429256  15.988  17.492   9.150
 5431POPC   GL129257  15.977  17.555   8.850
 5431POPC   GL229258  15.981  17.441   8.850
 5431POPC   C1A29259  15.916  17.498   8.550
 5431POPC   D2A29260  15.977  17.490   8.250
 5431POPC   C3A29261  15.906  17.486   7.950
 5431POPC   C4A29262  15.932  17.481   7.650
 5431POPC   C1B29263  16.054  17.266   8.550
 5431POPC   C2B29264  16.115  17.279   8.250
 5431POPC   C3B29265  16.062  17.316   7.950
 5431POPC   C4B29266  16.031  17.301   7.650
 5432POPC   NC329267  22.115  39.252   9.450
 5432POPC   PO429268  22.144  39.272   9.150
 5432POPC   GL129269  22.134  39.268   8.850
 5432POPC   GL229270  22.021  39.224   8.850
 5432POPC   C1A29271  22.152  39.230   8.550
 5432POPC   D2A29272  22.124  39.226   8.250
 5432POPC   C3A29273  22.196  39.272   7.950
 5432POPC   C4A29274  22.194  39.241   7.650
 5432POPC   C1B29275  21.932  39.311   8.550
 5432POPC   C2B29276  21.975  39.268   8.250
 5432POPC   C3B29277  21.926  39.353   7.950
 5432POPC   C4B29278  21.915  39.290   7.650
 5433POPC   NC329279  29.123   9.786   9.450
 5433POPC   PO429280  29.116   9.758   9.150
 5433POPC   GL129281  29.187   9.701   8.850
 5433POPC   GL229282  29.027   9.637   8.850
 5433POPC   C1A29283  29.105   9.701   8.550
 5433POPC   D2A29284  29.174   9.775   8.250
 5433POPC   C3A29285  29.155   9.778   7.950
 5433POPC   C4A29286  29.191   9.741   7.650
 5433POPC   C1B29287  28.977   9.592   8.550
 5433POPC   C2B29288  29.019   9.516   8.250
 5433POPC   C3B29289  29.020   9.585   7.950
 5433POPC   C4B29290  28.950   9.593   7.650
 5434POPC   NC329291  40.055  22.954   9.450
 5434POPC   PO429292  39.998  22.936   9.150
 5434POPC   GL129293  39.964  22.904   8.850
 5434POPC   GL229294  40.121  22.951   8.850
 5434POPC   C1A29295  39.964  22.958   8.550
 5434POPC   D2A29296  39.966  22.895   8.250
 5434POPC   C3A29297  40.026  22.963   7.950
 5434POPC   C4A29298  40.054  22.915   7.650
 5434POPC   C1B29299  40.216  23.006   8.550
 5434POPC   C2B29300  40.282  22.975   8.250
 5434POPC   C3B29301  40.286  22.997   7.950
 5434POPC   C4B29302  40.281  22.968   7.650
 5435POPC   NC329303   2.802  36.103   9.450
 5435POPC   PO429304   2.776  36.146   9.150
 5435POPC   GL129305   2.749  36.142   8.850
 5435POPC   GL229306   2.800  36.295   8.850
 5435POPC   C1A29307   2.720  36.153   8.550
 5435POPC   D2A29308   2.815  36.114   8.250
 5435POPC   C3A29309   2.746  36.120   7.950
 5435POPC   C4A29310   2.784  36.150   7.650
 5435POPC   C1B29311   2.689  36.410   8.550
 5435POPC   C2B29312   2.753  36.387   8.250
 5435POPC   C3B29313   2.748  36.386   7.950
 5435POPC   C4B29314   2.784  36.383   7.650
 5436POPC   NC329315   0.454  15.178   9.450
 5436POPC   PO429316   0.442  15.173   9.150
 5436POPC   GL129317   0.487  15.196   8.850
 5436POPC   GL229318   0.344  15.321   8.850
 5436POPC   C1A29319   0.471  15.139   8.550
 5436POPC   D2A29320   0.393  15.188   8.250
 5436POPC   C3A29321   0.436  15.217   7.950
 5436POPC   C4A29322   0.414  15.181   7.650
 5436POPC   C1B29323   0.315  15.364   8.550
 5436POPC   C2B29324   0.345  15.394   8.250
 5436POPC   C3B29325   0.377  15.402   7.950
 5436POPC   C4B29326   0.302  15.445   7.650
 5437POPC   NC329327   7.421  36.952   9.450
 5437POPC   PO429328   7.417  36.862   9.150
 5437POPC   GL129329   7.449  36.902   8.850
 5437POPC   GL229330   7.317  36.963   8.850
 5437POPC   C1A29331   7.375  36.879   8.550
 5437POPC   D2A29332   7.457  36.933   8.250
 5437POPC   C3A29333   7.440  36.941   7.950
 5437POPC   C4A29334   7.388  36.909   7.650
 5437POPC   C1B29335   7.151  36.985   8.550
 5437POPC   C2B29336   7.173  36.924   8.250
 5437POPC   C3B29337   7.175  36.941   7.950
 5437POPC   C4B29338   7.161  36.978   7.650
 5438POPC   NC329339  26.781  36.953   9.450
 5438POPC   PO429340  26.776  36.867   9.150
 5438POPC   GL129341  26.852  36.903   8.850
 5438POPC   GL229342  26.704  36.938   8.850
 5438POPC   C1A29343  26.797  36.914   8.550
 5438POPC   D2A29344  26.788  36.869   8.250
 5438POPC   C3A29345  26.864  36.935   7.950
 5438POPC   C4A29346  26.773  36.867   7.650
 5438POPC   C1B29347  26.585  37.010   8.550
 5438POPC   C2B29348  26.583  37.081   8.250
 5438POPC   C3B29349  26.571  37.061   7.950
 5438POPC   C4B29350  26.603  37.094   7.650
 5439POPC   NC329351   8.983   2.027   9.450
 5439POPC   PO429352   8.983   1.986   9.150
 5439POPC   GL129353   9.000   2.037   8.850
 5439POPC   GL229354   8.996   1.877   8.850
 5439POPC   C1A29355   8.978   2.023   8.550
 5439POPC   D2A29356   8.977   1.943   8.250
 5439POPC   C3A29357   8.981   1.960   7.950
 5439POPC   C4A29358   8.924   1.963   7.650
 5439POPC   C1B29359   8.929   1.771   8.550
 5439POPC   C2B29360   8.964   1.783   8.250
 5439POPC   C3B29361   8.889   1.706   7.950
 5439POPC   C4B29362   8.871   1.700   7.650
 5440POPC   NC329363  34.542   1.183   9.450
 5440POPC   PO429364  34.594   1.204   9.150
 5440POPC   GL129365  34.527   1.170   8.850
 5440POPC   GL229366  34.516   1.096   8.850
 5440POPC   C1A29367  34.548   1.210   8.550
 5440POPC   D2A29368  34.582   1.230   8.250
 5440POPC   C3A29369  34.578   1.250   7.950
 5440POPC   C4A29370  34.549   1.214   7.650
 5440POPC   C1B29371  34.401   1.086   8.550
 5440POPC   C2B29372  34.391   1.097   8.250
 5440POPC   C3B29373  34.374   1.087   7.950
 5440POPC   C4B29374  34.330   1.047   7.650
 5441POPC   NC329375  10.499  30.681   9.450
 5441POPC   PO429376  10.570  30.712   9.150
 5441POPC   GL129377  10.505  30.679   8.850
 5441POPC   GL229378  10.567  30.861   8.850
 5441POPC   C1A29379  10.520  30.703   8.550
 5441POPC   D2A29380  10.518  30.684   8.250
 5441POPC   C3A29381  10.506  30.693   7.950
 5441POPC   C4A29382  10.528  30.653   7.650
 5441POPC   C1B29383  10.588  30.933   8.550
 5441POPC   C2B29384  10.557  30.972   8.250
 5441POPC   C3B29385  10.607  30.917   7.950
 5441POPC   C4B29386  10.541  30.947   7.650
 5442POPC   NC329387   2.024   6.601   9.450
 5442POPC   PO429388   2.008   6.623   9.150
 5442POPC   GL129389   1.947   6.600   8.850
 5442POPC   GL229390   1.868   6.548   8.850
 5442POPC   C1A29391   2.038   6.684   8.550
 5442POPC   D2A29392   1.943   6.692   8.250
 5442POPC   C3A29393   1.944   6.647   7.950
 5442POPC   C4A29394   1.991   6.605   7.650
 5442POPC   C1B29395   1.800   6.425   8.550
 5442POPC   C2B29396   1.834   6.434   8.250
 5442POPC   C3B29397   1.811   6.472   7.950
 5442POPC   C4B29398   1.786   6.493   7.650
 5443POPC   NC329399  43.860  14.418   9.450
 5443POPC   PO429400  43.849  14.431   9.150
 5443POPC   GL129401  43.863  14.438   8.850
 5443POPC   GL229402  43.970  14.498   8.850
 5443POPC   C1A29403  43.843  14.438   8.550
 5443POPC   D2A29404  43.841  14.413   8.250
 5443POPC   C3A29405  43.880  14.449   7.950
 5443POPC   C4A29406  43.862  14.378   7.650
 5443POPC   C1B29407  43.965  14.618   8.550
 5443POPC   C2B29408  43.938  14.591   8.250
 5443POPC   C3B29409  43.938  14.661   7.950
 5443POPC   C4B29410  43.923  14.673   7.650
 5444POPC   NC329411  19.828  33.061   9.450
 5444POPC   PO429412  19.877  33.068   9.150
 5444POPC   GL129413  19.834  33.062   8.850
 5444POPC   GL229414  19.926  32.944   8.850
 5444POPC   C1A29415  19.824  33.002   8.550
 5444POPC   D2A29416  19.867  33.047   8.250
 5444POPC   C3A29417  19.789  33.037   7.950
 5444POPC   C4A29418  19.851  33.049   7.650
 5444POPC   C1B29419  20.000  32.872   8.550
 5444POPC   C2B29420  20.002  32.834   8.250
 5444POPC   C3B29421  20.029  32.862   7.950
 5444POPC   C4B29422  20.059  32.925   7.650
 5445POPC   NC329423  21.421  12.806   9.450
 5445POPC   PO429424  21.391  12.841   9.150
 5445POPC   GL129425  21.411  12.876   8.850
 5445POPC   GL229426  21.255  12.898   8.850
 5445POPC   C1A29427  21.363  12.825   8.550
 5445POPC   D2A29428  21.416  12.867   8.250
 5445POPC   C3A29429  21.387  12.847   7.950
 5445POPC   C4A29430  21.405  12.871   7.650
 5445POPC   C1B29431  21.200  12.895   8.550
 5445POPC   C2B29432  21.160  12.985   8.250
 5445POPC   C3B29433  21.125  12.927   7.950
 5445POPC   C4B29434  21.151  12.929   7.650
 5446POPC   NC329435  36.921  20.589   9.450
 5446POPC   PO429436  36.873  20.657   9.150
 5446POPC   GL129437  36.910  20.660   8.850
 5446POPC   GL229438  37.041  20.570   8.850
 5446POPC   C1A29439  36.939  20.562   8.550
 5446POPC   D2A29440  36.877  20.642   8.250
 5446POPC   C3A29441  36.888  20.615   7.950
 5446POPC   C4A29442  36.887  20.628   7.650
 5446POPC   C1B29443  37.119  20.537   8.550
 5446POPC   C2B29444  37.151  20.569   8.250
 5446POPC   C3B29445  37.106  20.605   7.950
 5446POPC   C4B29446  37.102  20.543   7.650
 5447POPC   NC329447  15.169   4.303   9.450
 5447POPC   PO429448  15.200   4.336   9.150
 5447POPC   GL129449  15.206   4.287   8.850
 5447POPC   GL229450  15.086   4.223   8.850
 5447POPC   C1A29451  15.132   4.361   8.550
 5447POPC   D2A29452  15.195   4.306   8.250
 5447POPC   C3A29453  15.222   4.322   7.950
 5447POPC   C4A29454  15.200   4.290   7.650
 5447POPC   C1B29455  14.985   4.157   8.550
 5447POPC   C2B29456  14.986   4.143   8.250
 5447POPC   C3B29457  14.943   4.183   7.950
 5447POPC   C4B29458  15.026   4.128   7.650
 5448POPC   NC329459  13.597  13.654   9.450
 5448POPC   PO429460  13.647  13.629   9.150
 5448POPC   GL129461  13.622  13.645   8.850
 5448POPC   GL229462  13.553  13.487   8.850
 5448POPC   C1A29463  13.660  13.656   8.550
 5448POPC   D2A29464  13.602  13.595   8.250
 5448POPC   C3A29465  13.632  13.603   7.950
 5448POPC   C4A29466  13.607  13.638   7.650
 5448POPC   C1B29467  13.507  13.418   8.550
 5448POPC   C2B29468  13.472  13.365   8.250
 5448POPC   C3B29469  13.530  13.404   7.950
 5448POPC   C4B29470  13.490  13.378   7.650
 5449POPC   NC329471   8.148  32.254   9.450
 5449POPC   PO429472   8.208  32.274   9.150
 5449POPC   GL129473   8.245  32.210   8.850
 5449POPC   GL229474   8.192  32.326   8.850
 5449POPC   C1A29475   8.242  32.210   8.550
 5449POPC   D2A29476   8.203  32.249   8.250
 5449POPC   C3A29477   8.201  32.294   7.950
 5449POPC   C4A29478   8.196  32.233   7.650
 5449POPC   C1B29479   8.217  32.539   8.550
 5449POPC   C2B29480   8.182  32.454   8.250
 5449POPC   C3B29481   8.169  32.540   7.950
 5449POPC   C4B29482   8.247  32.463   7.650
 5450POPC   NC329483  36.158  15.970   9.450
 5450POPC   PO429484  36.096  15.997   9.150
 5450POPC   GL129485  36.167  15.967   8.850
 5450POPC   GL229486  36.190  15.995   8.850
 5450POPC   C1A29487  36.127  15.991   8.550
 5450POPC   D2A29488  36.141  15.926   8.250
 5450POPC   C3A29489  36.084  15.972   7.950
 5450POPC   C4A29490  36.110  15.914   7.650
 5450POPC   C1B29491  36.368  16.117   8.550
 5450POPC   C2B29492  36.291  16.048   8.250
 5450POPC   C3B29493  36.350  16.056   7.950
 5450POPC   C4B29494  36.343  16.066   7.650
 5451POPC   NC329495  37.717   5.071   9.450
 5451POPC   PO429496  37.634   5.099   9.150
 5451POPC   GL129497  37.666   5.067   8.850
 5451POPC   GL229498  37.760   5.217   8.850
 5451POPC   C1A29499  37.664   5.052   8.550
 5451POPC   D2A29500  37.702   5.060   8.250
 5451POPC   C3A29501  37.650   5.086   7.950
 5451POPC   C4A29502  37.659   5.072   7.650
 5451POPC   C1B29503  37.873   5.251   8.550
 5451POPC   C2B29504  37.879   5.267   8.250
 5451POPC   C3B29505  37.841   5.307   7.950
 5451POPC   C4B29506  37.815   5.310   7.650
 5452POPC   NC329507  34.615  25.306   9.450
 5452POPC   PO429508  34.621  25.242   9.150
 5452POPC   GL129509  34.534  25.269   8.850
 5452POPC   GL229510  34.532  25.387   8.850
 5452POPC   C1A29511  34.555  25.310   8.550
 5452POPC   D2A29512  34.590  25.270   8.250
 5452POPC   C3A29513  34.556  25.285   7.950
 5452POPC   C4A29514  34.604  25.248   7.650
 5452POPC   C1B29515  34.548  25.501   8.550
 5452POPC   C2B29516  34.558  25.506   8.250
 5452POPC   C3B29517  34.565  25.545   7.950
 5452POPC   C4B29518  34.559  25.515   7.650
 5453POPC   NC329519  17.550  16.692   9.450
 5453POPC   PO429520  17.527  16.705   9.150
 5453POPC   GL129521  17.535  16.702   8.850
 5453POPC   GL229522  17.489  16.898   8.850
 5453POPC   C1A29523  17.522  16.696   8.550
 5453POPC   D2A29524  17.546  16.699   8.250
 5453POPC   C3A29525  17.541  16.740   7.950
 5453POPC   C4A29526  17.533  16.717   7.650
 5453POPC   C1B29527  17.522  16.947   8.550
 5453POPC   C2B29528  17.523  17.009   8.250
 5453POPC   C3B29529  17.597  16.949   7.950
 5453POPC   C4B29530  17.573  17.001   7.650
 5454POPC   NC329531  33.850   8.237   9.450
 5454POPC   PO429532  33.805   8.173   9.150
 5454POPC   GL129533  33.846   8.196   8.850
 5454POPC   GL229534  33.807   8.301   8.850
 5454POPC   C1A29535  33.849   8.223   8.550
 5454POPC   D2A29536  33.767   8.226   8.250
 5454POPC   C3A29537  33.770   8.166   7.950
 5454POPC   C4A29538  33.838   8.196   7.650
 5454POPC   C1B29539  33.687   8.393   8.550
 5454POPC   C2B29540  33.733   8.400   8.250
 5454POPC   C3B29541  33.716   8.426   7.950
 5454POPC   C4B29542  33.767   8.478   7.650
 5455POPC   NC329543  38.444  32.296   9.450
 5455POPC   PO429544  38.425  32.264   9.150
 5455POPC   GL129545  38.480  32.266   8.850
 5455POPC   GL229546  38.554  32.341   8.850
 5455POPC   C1A29547  38.465  32.258   8.550
 5455POPC   D2A29548  38.433  32.226   8.250
 5455POPC   C3A29549  38.424  32.218   7.950
 5455POPC   C4A29550  38.422  32.223   7.650
 5455POPC   C1B29551  38.544  32.427   8.550
 5455POPC   C2B29552  38.595  32.460   8.250
 5455POPC   C3B29553  38.554  32.449   7.950
 5455POPC   C4B29554  38.602  32.452   7.650
 5456POPC   NC329555  18.328   3.512   9.450
 5456POPC   PO429556  18.254   3.547   9.150
 5456POPC   GL129557  18.297   3.508   8.850
 5456POPC   GL229558  18.258   3.704   8.850
 5456POPC   C1A29559  18.247   3.577   8.550
 5456POPC   D2A29560  18.332   3.586   8.250
 5456POPC   C3A29561  18.305   3.588   7.950
 5456POPC   C4A29562  18.327   3.524   7.650
 5456POPC   C1B29563  18.219   3.760   8.550
 5456POPC   C2B29564  18.220   3.825   8.250
 5456POPC   C3B29565  18.247   3.763   7.950
 5456POPC   C4B29566  18.241   3.781   7.650
 5457POPC   NC329567   4.299  43.147   9.450
 5457POPC   PO429568   4.344  43.158   9.150
 5457POPC   GL129569   4.330  43.078   8.850
 5457POPC   GL229570   4.284  43.200   8.850
 5457POPC   C1A29571   4.303  43.153   8.550
 5457POPC   D2A29572   4.291  43.160   8.250
 5457POPC   C3A29573   4.267  43.153   7.950
 5457POPC   C4A29574   4.366  43.155   7.650
 5457POPC   C1B29575   4.215  43.380   8.550
 5457POPC   C2B29576   4.266  43.354   8.250
 5457POPC   C3B29577   4.219  43.363   7.950
 5457POPC   C4B29578   4.266  43.320   7.650
 5458POPC   NC329579   6.678  39.278   9.450
 5458POPC   PO429580   6.603  39.280   9.150
 5458POPC   GL129581   6.604  39.281   8.850
 5458POPC   GL229582   6.611  39.107   8.850
 5458POPC   C1A29583   6.632  39.207   8.550
 5458POPC   D2A29584   6.644  39.218   8.250
 5458POPC   C3A29585   6.664  39.184   7.950
 5458POPC   C4A29586   6.654  39.258   7.650
 5458POPC   C1B29587   6.628  38.991   8.550
 5458POPC   C2B29588   6.615  39.001   8.250
 5458POPC   C3B29589   6.650  39.002   7.950
 5458POPC   C4B29590   6.666  38.991   7.650
 5459POPC   NC329591  25.262   2.750   9.450
 5459POPC   PO429592  25.281   2.746   9.150
 5459POPC   GL129593  25.261   2.774   8.850
 5459POPC   GL229594  25.335   2.667   8.850
 5459POPC   C1A29595  25.221   2.759   8.550
 5459POPC   D2A29596  25.274   2.778   8.250
 5459POPC   C3A29597  25.283   2.797   7.950
 5459POPC   C4A29598  25.229   2.732   7.650
 5459POPC   C1B29599  25.497   2.578   8.550
 5459POPC   C2B29600  25.499   2.640   8.250
 5459POPC   C3B29601  25.441   2.612   7.950
 5459POPC   C4B29602  25.439   2.638   7.650
 5460POPC   NC329603   5.083  24.495   9.450
 5460POPC   PO429604   5.093  24.505   9.150
 5460POPC   GL129605   5.134  24.472   8.850
 5460POPC   GL229606   5.162  24.398   8.850
 5460POPC   C1A29607   5.090  24.521   8.550
 5460POPC   D2A29608   5.096  24.462   8.250
 5460POPC   C3A29609   5.111  24.474   7.950
 5460POPC   C4A29610   5.141  24.503   7.650
 5460POPC   C1B29611   5.217  24.249   8.550
 5460POPC   C2B29612   5.281  24.292   8.250
 5460POPC   C3B29613   5.244  24.269   7.950
 5460POPC   C4B29614   5.264  24.248   7.650
 5461POPC   NC329615  40.030   1.208   9.450
 5461POPC   PO429616  39.967   1.235   9.150
 5461POPC   GL129617  39.958   1.235   8.850
 5461POPC   GL229618  40.100   1.278   8.850
 5461POPC   C1A29619  40.015   1.260   8.550
 5461POPC   D2A29620  40.024   1.195   8.250
 5461POPC   C3A29621  40.036   1.261   7.950
 5461POPC   C4A29622  40.005   1.169   7.650
 5461POPC   C1B29623  40.192   1.436   8.550
 5461POPC   C2B29624  40.185   1.414   8.250
 5461POPC   C3B29625  40.166   1.380   7.950
 5461POPC   C4B29626  40.126   1.373   7.650
 5462POPC   NC329627  22.925   8.971   9.450
 5462POPC   PO429628  22.954   8.974   9.150
 5462POPC   GL129629  22.893   8.991   8.850
 5462POPC   GL229630  22.813   8.948   8.850
 5462POPC   C1A29631  22.970   9.012   8.550
 5462POPC   D2A29632  22.918   8.932   8.250
 5462POPC   C3A29633  22.957   8.976   7.950
 5462POPC   C4A29634  22.967   9.009   7.650
 5462POPC   C1B29635  22.657   8.979   8.550
 5462POPC   C2B29636  22.648   8.973   8.250
 5462POPC   C3B29637  22.736   8.959   7.950
 5462POPC   C4B29638  22.716   9.009   7.650
 5463POPC   NC329639  41.570  44.647   9.450
 5463POPC   PO429640  41.570  44.652   9.150
 5463POPC   GL129641  41.512  44.623   8.850
 5463POPC   GL229642  41.607  44.548   8.850
 5463POPC   C1A29643  41.605  44.653   8.550
 5463POPC   D2A29644  41.564  44.616   8.250
 5463POPC   C3A29645  41.595  44.644   7.950
 5463POPC   C4A29646  41.531  44.666   7.650
 5463POPC   C1B29647  41.566  44.428   8.550
 5463POPC   C2B29648  41.600  44.454   8.250
 5463POPC   C3B29649  41.571  44.388   7.950
 5463POPC   C4B29650  41.607  44.418   7.650
 5464POPC   NC329651   3.554  15.163   9.450
 5464POPC   PO429652   3.503  15.225   9.150
 5464POPC   GL129653   3.589  15.155   8.850
 5464POPC   GL229654   3.618  15.084   8.850
 5464POPC   C1A29655   3.493  15.187   8.550
 5464POPC   D2A29656   3.524  15.221   8.250
 5464POPC   C3A29657   3.579  15.160   7.950
 5464POPC   C4A29658   3.497  15.164   7.650
 5464POPC   C1B29659   3.762  15.070   8.550
 5464POPC   C2B29660   3.768  15.060   8.250
 5464POPC   C3B29661   3.782  15.070   7.950
 5464POPC   C4B29662   3.767  15.128   7.650
 5465POPC   NC329663  25.275  43.928   9.450
 5465POPC   PO429664  25.311  43.840   9.150
 5465POPC   GL129665  25.295  43.887   8.850
 5465POPC   GL229666  25.204  43.743   8.850
 5465POPC   C1A29667  25.240  43.903   8.550
 5465POPC   D2A29668  25.270  43.878   8.250
 5465POPC   C3A29669  25.297  43.904   7.950
 5465POPC   C4A29670  25.238  43.853   7.650
 5465POPC   C1B29671  25.189  43.641   8.550
 5465POPC   C2B29672  25.179  43.676   8.250
 5465POPC   C3B29673  25.147  43.647   7.950
 5465POPC   C4B29674  25.161  43.649   7.650
 5466POPC   NC329675  43.838  39.996   9.450
 5466POPC   PO429676  43.936  39.978   9.150
 5466POPC   GL129677  43.859  39.965   8.850
 5466POPC   GL229678  43.810  39.936   8.850
 5466POPC   C1A29679  43.867  40.031   8.550
 5466POPC   D2A29680  43.921  40.049   8.250
 5466POPC   C3A29681  43.911  40.037   7.950
 5466POPC   C4A29682  43.914  39.984   7.650
 5466POPC   C1B29683  43.758  39.816   8.550
 5466POPC   C2B29684  43.757  39.788   8.250
 5466POPC   C3B29685  43.775  39.787   7.950
 5466POPC   C4B29686  43.747  39.848   7.650
 5467POPC   NC329687   9.006  36.161   9.450
 5467POPC   PO429688   8.967  36.144   9.150
 5467POPC   GL129689   8.940  36.090   8.850
 5467POPC   GL229690   8.851  36.183   8.850
 5467POPC   C1A29691   9.000  36.088   8.550
 5467POPC   D2A29692   9.020  36.092   8.250
 5467POPC   C3A29693   8.963  36.136   7.950
 5467POPC   C4A29694   8.922  36.158   7.650
 5467POPC   C1B29695   8.798  36.293   8.550
 5467POPC   C2B29696   8.786  36.362   8.250
 5467POPC   C3B29697   8.824  36.300   7.950
 5467POPC   C4B29698   8.834  36.306   7.650
 5468POPC   NC329699  40.812  37.662   9.450
 5468POPC   PO429700  40.742  37.680   9.150
 5468POPC   GL129701  40.763  37.673   8.850
 5468POPC   GL229702  40.861  37.583   8.850
 5468POPC   C1A29703  40.793  37.710   8.550
 5468POPC   D2A29704  40.764  37.640   8.250
 5468POPC   C3A29705  40.738  37.672   7.950
 5468POPC   C4A29706  40.739  37.698   7.650
 5468POPC   C1B29707  41.007  37.540   8.550
 5468POPC   C2B29708  40.938  37.547   8.250
 5468POPC   C3B29709  40.995  37.535   7.950
 5468POPC   C4B29710  40.940  37.479   7.650
 5469POPC   NC329711  12.813  36.126   9.450
 5469POPC   PO429712  12.881  36.163   9.150
 5469POPC   GL129713  12.890  36.143   8.850
 5469POPC   GL229714  12.787  36.045   8.850
 5469POPC   C1A29715  12.900  36.136   8.550
 5469POPC   D2A29716  12.853  36.091   8.250
 5469POPC   C3A29717  12.884  36.095   7.950
 5469POPC   C4A29718  12.826  36.147   7.650
 5469POPC   C1B29719  12.694  35.902   8.550
 5469POPC   C2B29720  12.764  35.957   8.250
 5469POPC   C3B29721  12.716  35.895   7.950
 5469POPC   C4B29722  12.716  35.895   7.650
 5470POPC   NC329723   8.951  37.704   9.450
 5470POPC   PO429724   8.974  37.683   9.150
 5470POPC   GL129725   8.984  37.722   8.850
 5470POPC   GL229726   8.799  37.666   8.850
 5470POPC   C1A29727   8.930  37.683   8.550
 5470POPC   D2A29728   9.014  37.655   8.250
 5470POPC   C3A29729   8.982  37.703   7.950
 5470POPC   C4A29730   8.954  37.729   7.650
 5470POPC   C1B29731   8.740  37.708   8.550
 5470POPC   C2B29732   8.757  37.698   8.250
 5470POPC   C3B29733   8.743  37.681   7.950
 5470POPC   C4B29734   8.720  37.729   7.650
 5471POPC   NC329735   6.677  10.499   9.450
 5471POPC   PO429736   6.633  10.571   9.150
 5471POPC   GL129737   6.628  10.522   8.850
 5471POPC   GL229738   6.564  10.488   8.850
 5471POPC   C1A29739   6.605  10.488   8.550
 5471POPC   D2A29740   6.652  10.520   8.250
 5471POPC   C3A29741   6.687  10.534   7.950
 5471POPC   C4A29742   6.629  10.489   7.650
 5471POPC   C1B29743   6.486  10.341   8.550
 5471POPC   C2B29744   6.498  10.388   8.250
 5471POPC   C3B29745   6.453  10.395   7.950
 5471POPC   C4B29746   6.406  10.367   7.650
 5472POPC   NC329747  21.392  16.740   9.450
 5472POPC   PO429748  21.433  16.729   9.150
 5472POPC   GL129749  21.363  16.707   8.850
 5472POPC   GL229750  21.502  16.658   8.850
 5472POPC   C1A29751  21.382  16.745   8.550
 5472POPC   D2A29752  21.407  16.753   8.250
 5472POPC   C3A29753  21.431  16.718   7.950
 5472POPC   C4A29754  21.349  16.694   7.650
 5472POPC   C1B29755  21.599  16.641   8.550
 5472POPC   C2B29756  21.599  16.622   8.250
 5472POPC   C3B29757  21.666  16.714   7.950
 5472POPC   C4B29758  21.665  16.622   7.650
 5473POPC   NC329759   8.195  43.864   9.450
 5473POPC   PO429760   8.199  43.872   9.150
 5473POPC   GL129761   8.226  43.899   8.850
 5473POPC   GL229762   8.101  43.822   8.850
 5473POPC   C1A29763   8.213  43.893   8.550
 5473POPC   D2A29764   8.160  43.851   8.250
 5473POPC   C3A29765   8.220  43.886   7.950
 5473POPC   C4A29766   8.217  43.857   7.650
 5473POPC   C1B29767   8.080  43.651   8.550
 5473POPC   C2B29768   8.063  43.677   8.250
 5473POPC   C3B29769   8.060  43.662   7.950
 5473POPC   C4B29770   8.030  43.656   7.650
 5474POPC   NC329771  33.066   2.776   9.450
 5474POPC   PO429772  33.049   2.755   9.150
 5474POPC   GL129773  33.010   2.738   8.850
 5474POPC   GL229774  33.080   2.886   8.850
 5474POPC   C1A29775  33.025   2.736   8.550
 5474POPC   D2A29776  33.073   2.767   8.250
 5474POPC   C3A29777  32.984   2.733   7.950
 5474POPC   C4A29778  33.032   2.787   7.650
 5474POPC   C1B29779  33.196   2.963   8.550
 5474POPC   C2B29780  33.200   2.917   8.250
 5474POPC   C3B29781  33.197   2.946   7.950
 5474POPC   C4B29782  33.244   2.890   7.650
 5475POPC   NC329783   5.900  15.915   9.450
 5475POPC   PO429784   5.846  16.001   9.150
 5475POPC   GL129785   5.829  15.930   8.850
 5475POPC   GL229786   5.807  15.809   8.850
 5475POPC   C1A29787   5.878  15.935   8.550
 5475POPC   D2A29788   5.851  15.983   8.250
 5475POPC   C3A29789   5.870  15.996   7.950
 5475POPC   C4A29790   5.873  15.974   7.650
 5475POPC   C1B29791   5.737  15.768   8.550
 5475POPC   C2B29792   5.736  15.784   8.250
 5475POPC   C3B29793   5.735  15.760   7.950
 5475POPC   C4B29794   5.770  15.754   7.650
 5476POPC   NC329795  10.508  36.949   9.450
 5476POPC   PO429796  10.530  36.932   9.150
 5476POPC   GL129797  10.514  36.927   8.850
 5476POPC   GL229798  10.649  36.923   8.850
 5476POPC   C1A29799  10.522  36.884   8.550
 5476POPC   D2A29800  10.559  36.937   8.250
 5476POPC   C3A29801  10.562  36.951   7.950
 5476POPC   C4A29802  10.566  36.922   7.650
 5476POPC   C1B29803  10.765  36.862   8.550
 5476POPC   C2B29804  10.796  36.894   8.250
 5476POPC   C3B29805  10.728  36.857   7.950
 5476POPC   C4B29806  10.803  36.809   7.650
 5477POPC   NC329807   8.964  20.645   9.450
 5477POPC   PO429808   8.960  20.598   9.150
 5477POPC   GL129809   8.940  20.581   8.850
 5477POPC   GL229810   8.906  20.639   8.850
 5477POPC   C1A29811   9.021  20.641   8.550
 5477POPC   D2A29812   9.004  20.594   8.250
 5477POPC   C3A29813   9.021  20.659   7.950
 5477POPC   C4A29814   8.939  20.565   7.650
 5477POPC   C1B29815   8.807  20.727   8.550
 5477POPC   C2B29816   8.788  20.730   8.250
 5477POPC   C3B29817   8.764  20.791   7.950
 5477POPC   C4B29818   8.808  20.743   7.650
 5478POPC   NC329819  29.179   6.649   9.450
 5478POPC   PO429820  29.180   6.633   9.150
 5478POPC   GL129821  29.193   6.616   8.850
 5478POPC   GL229822  29.050   6.601   8.850
 5478POPC   C1A29823  29.191   6.618   8.550
 5478POPC   D2A29824  29.145   6.669   8.250
 5478POPC   C3A29825  29.159   6.627   7.950
 5478POPC   C4A29826  29.121   6.668   7.650
 5478POPC   C1B29827  28.950   6.517   8.550
 5478POPC   C2B29828  28.999   6.506   8.250
 5478POPC   C3B29829  28.952   6.498   7.950
 5478POPC   C4B29830  29.004   6.455   7.650
 5479POPC   NC329831  43.899  41.605   9.450
 5479POPC   PO429832  43.873  41.592   9.150
 5479POPC   GL129833  43.904  41.526   8.850
 5479POPC   GL229834  43.904  41.403   8.850
 5479POPC   C1A29835  43.897  41.583   8.550
 5479POPC   D2A29836  43.855  41.553   8.250
 5479POPC   C3A29837  43.927  41.525   7.950
 5479POPC   C4A29838  43.912  41.604   7.650
 5479POPC   C1B29839  43.921  41.319   8.550
 5479POPC   C2B29840  43.928  41.325   8.250
 5479POPC   C3B29841  43.934  41.321   7.950
 5479POPC   C4B29842  43.937  41.276   7.650
 5480POPC   NC329843  29.109  18.275   9.450
 5480POPC   PO429844  29.121  18.278   9.150
 5480POPC   GL129845  29.117  18.332   8.850
 5480POPC   GL229846  29.270  18.337   8.850
 5480POPC   C1A29847  29.129  18.253   8.550
 5480POPC   D2A29848  29.115  18.240   8.250
 5480POPC   C3A29849  29.147  18.295   7.950
 5480POPC   C4A29850  29.173  18.317   7.650
 5480POPC   C1B29851  29.384  18.341   8.550
 5480POPC   C2B29852  29.416  18.335   8.250
 5480POPC   C3B29853  29.373  18.316   7.950
 5480POPC   C4B29854  29.434  18.337   7.650
 5481POPC   NC329855   1.182  36.859   9.450
 5481POPC   PO429856   1.238  36.880   9.150
 5481POPC   GL129857   1.240  36.922   8.850
 5481POPC   GL229858   1.179  36.827   8.850
 5481POPC   C1A29859   1.261  36.928   8.550
 5481POPC   D2A29860   1.258  36.899   8.250
 5481POPC   C3A29861   1.190  36.926   7.950
 5481POPC   C4A29862   1.193  36.925   7.650
 5481POPC   C1B29863   1.154  36.643   8.550
 5481POPC   C2B29864   1.104  36.702   8.250
 5481POPC   C3B29865   1.101  36.637   7.950
 5481POPC   C4B29866   1.184  36.682   7.650
 5482POPC   NC329867  26.080   3.569   9.450
 5482POPC   PO429868  26.063   3.565   9.150
 5482POPC   GL129869  26.013   3.540   8.850
 5482POPC   GL229870  26.116   3.596   8.850
 5482POPC   C1A29871  26.008   3.555   8.550
 5482POPC   D2A29872  26.036   3.492   8.250
 5482POPC   C3A29873  26.027   3.537   7.950
 5482POPC   C4A29874  26.091   3.505   7.650
 5482POPC   C1B29875  26.219   3.773   8.550
 5482POPC   C2B29876  26.218   3.714   8.250
 5482POPC   C3B29877  26.171   3.713   7.950
 5482POPC   C4B29878  26.182   3.706   7.650
 5483POPC   NC329879  14.401  16.000   9.450
 5483POPC   PO429880  14.362  15.961   9.150
 5483POPC   GL129881  14.433  15.910   8.850
 5483POPC   GL229882  14.294  15.863   8.850
 5483POPC   C1A29883  14.375  15.980   8.550
 5483POPC   D2A29884  14.436  15.945   8.250
 5483POPC   C3A29885  14.381  15.912   7.950
 5483POPC   C4A29886  14.386  15.954   7.650
 5483POPC   C1B29887  14.205  15.769   8.550
 5483POPC   C2B29888  14.206  15.810   8.250
 5483POPC   C3B29889  14.259  15.831   7.950
 5483POPC   C4B29890  14.208  15.777   7.650
 5484POPC   NC329891   8.164   3.560   9.450
 5484POPC   PO429892   8.161   3.537   9.150
 5484POPC   GL129893   8.208   3.574   8.850
 5484POPC   GL229894   8.162   3.640   8.850
 5484POPC   C1A29895   8.187   3.493   8.550
 5484POPC   D2A29896   8.148   3.573   8.250
 5484POPC   C3A29897   8.220   3.588   7.950
 5484POPC   C4A29898   8.183   3.521   7.650
 5484POPC   C1B29899   8.086   3.817   8.550
 5484POPC   C2B29900   8.127   3.759   8.250
 5484POPC   C3B29901   8.147   3.786   7.950
 5484POPC   C4B29902   8.136   3.827   7.650
 5485POPC   NC329903  25.993  41.569   9.450
 5485POPC   PO429904  26.089  41.589   9.150
 5485POPC   GL129905  26.040  41.603   8.850
 5485POPC   GL229906  25.920  41.609   8.850
 5485POPC   C1A29907  26.053  41.520   8.550
 5485POPC   D2A29908  26.066  41.590   8.250
 5485POPC   C3A29909  26.075  41.608   7.950
 5485POPC   C4A29910  26.078  41.581   7.650
 5485POPC   C1B29911  25.799  41.581   8.550
 5485POPC   C2B29912  25.840  41.581   8.250
 5485POPC   C3B29913  25.745  41.610   7.950
 5485POPC   C4B29914  25.756  41.607   7.650
 5486POPC   NC329915   5.822  31.469   9.450
 5486POPC   PO429916   5.917  31.490   9.150
 5486POPC   GL129917   5.859  31.492   8.850
 5486POPC   GL229918   5.802  31.384   8.850
 5486POPC   C1A29919   5.833  31.426   8.550
 5486POPC   D2A29920   5.891  31.466   8.250
 5486POPC   C3A29921   5.845  31.512   7.950
 5486POPC   C4A29922   5.856  31.510   7.650
 5486POPC   C1B29923   5.734  31.289   8.550
 5486POPC   C2B29924   5.739  31.214   8.250
 5486POPC   C3B29925   5.779  31.206   7.950
 5486POPC   C4B29926   5.758  31.216   7.650
 5487POPC   NC329927  18.316  12.052   9.450
 5487POPC   PO429928  18.306  12.102   9.150
 5487POPC   GL129929  18.263  12.082   8.850
 5487POPC   GL229930  18.179  12.189   8.850
 5487POPC   C1A29931  18.259  12.108   8.550
 5487POPC   D2A29932  18.280  12.045   8.250
 5487POPC   C3A29933  18.298  12.093   7.950
 5487POPC   C4A29934  18.258  12.119   7.650
 5487POPC   C1B29935  18.086  12.217   8.550
 5487POPC   C2B29936  18.130  12.281   8.250
 5487POPC   C3B29937  18.091  12.263   7.950
 5487POPC   C4B29938  18.066  12.285   7.650
 5488POPC   NC329939  36.952  16.731   9.450
 5488POPC   PO429940  36.908  16.683   9.150
 5488POPC   GL129941  36.888  16.716   8.850
 5488POPC   GL229942  36.781  16.825   8.850
 5488POPC   C1A29943  36.924  16.769   8.550
 5488POPC   D2A29944  36.914  16.719   8.250
 5488POPC   C3A29945  36.890  16.740   7.950
 5488POPC   C4A29946  36.915  16.780   7.650
 5488POPC   C1B29947  36.719  16.872   8.550
 5488POPC   C2B29948  36.710  16.872   8.250
 5488POPC   C3B29949  36.692  16.833   7.950
 5488POPC   C4B29950  36.628  16.801   7.650
 5489POPC   NC329951  35.335  17.530   9.450
 5489POPC   PO429952  35.360  17.499   9.150
 5489POPC   GL129953  35.324  17.523   8.850
 5489POPC   GL229954  35.254  17.433   8.850
 5489POPC   C1A29955  35.338  17.550   8.550
 5489POPC   D2A29956  35.321  17.525   8.250
 5489POPC   C3A29957  35.365  17.508   7.950
 5489POPC   C4A29958  35.397  17.478   7.650
 5489POPC   C1B29959  35.121  17.314   8.550
 5489POPC   C2B29960  35.134  17.347   8.250
 5489POPC   C3B29961  35.116  17.323   7.950
 5489POPC   C4B29962  35.169  17.349   7.650
 5490POPC   NC329963  33.815  13.588   9.450
 5490POPC   PO429964  33.822  13.615   9.150
 5490POPC   GL129965  33.794  13.652   8.850
 5490POPC   GL229966  33.900  13.591   8.850
 5490POPC   C1A29967  33.789  13.598   8.550
 5490POPC   D2A29968  33.798  13.589   8.250
 5490POPC   C3A29969  33.758  13.671   7.950
 5490POPC   C4A29970  33.837  13.595   7.650
 5490POPC   C1B29971  33.978  13.440   8.550
 5490POPC   C2B29972  34.035  13.453   8.250
 5490POPC   C3B29973  33.972  13.506   7.950
 5490POPC   C4B29974  34.022  13.434   7.650
 5491POPC   NC329975  31.433  25.224   9.450
 5491POPC   PO429976  31.428  25.246   9.150
 5491POPC   GL129977  31.452  25.287   8.850
 5491POPC   GL229978  31.576  25.289   8.850
 5491POPC   C1A29979  31.515  25.305   8.550
 5491POPC   D2A29980  31.520  25.264   8.250
 5491POPC   C3A29981  31.430  25.275   7.950
 5491POPC   C4A29982  31.482  25.288   7.650
 5491POPC   C1B29983  31.697  25.379   8.550
 5491POPC   C2B29984  31.682  25.454   8.250
 5491POPC   C3B29985  31.638  25.380   7.950
 5491POPC   C4B29986  31.634  25.414   7.650
 5492POPC   NC329987  22.903  15.197   9.450
 5492POPC   PO429988  22.982  15.194   9.150
 5492POPC   GL129989  22.890  15.224   8.850
 5492POPC   GL229990  23.013  15.289   8.850
 5492POPC   C1A29991  22.961  15.132   8.550
 5492POPC   D2A29992  22.906  15.142   8.250
 5492POPC   C3A29993  22.960  15.191   7.950
 5492POPC   C4A29994  22.969  15.195   7.650
 5492POPC   C1B29995  23.100  15.355   8.550
 5492POPC   C2B29996  23.120  15.320   8.250
 5492POPC   C3B29997  23.139  15.313   7.950
 5492POPC   C4B29998  23.072  15.314   7.650
 5493POPC   NC329999  12.079  24.504   9.450
 5493POPC   PO430000  12.061  24.526   9.150
 5493POPC   GL130001  12.032  24.489   8.850
 5493POPC   GL230002  12.012  24.415   8.850
 5493POPC   C1A30003  12.121  24.453   8.550
 5493POPC   D2A30004  12.076  24.506   8.250
 5493POPC   C3A30005  12.069  24.484   7.950
 5493POPC   C4A30006  12.046  24.527   7.650
 5493POPC   C1B30007  11.906  24.263   8.550
 5493POPC   C2B30008  11.908  24.241   8.250
 5493POPC   C3B30009  11.966  24.233   7.950
 5493POPC   C4B30010  11.929  24.227   7.650
 5494POPC   NC330011  16.719   2.728   9.450
 5494POPC   PO430012  16.739   2.771   9.150
 5494POPC   GL130013  16.689   2.815   8.850
 5494POPC   GL230014  16.789   2.907   8.850
 5494POPC   C1A30015  16.702   2.723   8.550
 5494POPC   D2A30016  16.738   2.740   8.250
 5494POPC   C3A30017  16.737   2.787   7.950
 5494POPC   C4A30018  16.691   2.770   7.650
 5494POPC   C1B30019  16.843   2.956   8.550
 5494POPC   C2B30020  16.823   2.986   8.250
 5494POPC   C3B30021  16.844   3.045   7.950
 5494POPC   C4B30022  16.823   2.958   7.650
 5495POPC   NC330023  18.286   8.950   9.450
 5495POPC   PO430024  18.252   8.967   9.150
 5495POPC   GL130025  18.259   8.962   8.850
 5495POPC   GL230026  18.328   9.082   8.850
 5495POPC   C1A30027  18.281   8.938   8.550
 5495POPC   D2A30028  18.235   8.966   8.250
 5495POPC   C3A30029  18.237   9.016   7.950
 5495POPC   C4A30030  18.287   8.977   7.650
 5495POPC   C1B30031  18.295   9.236   8.550
 5495POPC   C2B30032  18.281   9.235   8.250
 5495POPC   C3B30033  18.287   9.243   7.950
 5495POPC   C4B30034  18.338   9.228   7.650
 5496POPC   NC330035  34.574  23.751   9.450
 5496POPC   PO430036  34.585  23.708   9.150
 5496POPC   GL130037  34.580  23.732   8.850
 5496POPC   GL230038  34.483  23.850   8.850
 5496POPC   C1A30039  34.583  23.690   8.550
 5496POPC   D2A30040  34.573  23.747   8.250
 5496POPC   C3A30041  34.541  23.721   7.950
 5496POPC   C4A30042  34.558  23.699   7.650
 5496POPC   C1B30043  34.469  23.874   8.550
 5496POPC   C2B30044  34.477  23.908   8.250
 5496POPC   C3B30045  34.439  23.927   7.950
 5496POPC   C4B30046  34.414  23.892   7.650
 5497POPC   NC330047   9.001   6.660   9.450
 5497POPC   PO430048   8.980   6.689   9.150
 5497POPC   GL130049   9.011   6.647   8.850
 5497POPC   GL230050   8.894   6.548   8.850
 5497POPC   C1A30051   8.928   6.654   8.550
 5497POPC   D2A30052   8.948   6.674   8.250
 5497POPC   C3A30053   8.927   6.690   7.950
 5497POPC   C4A30054   8.960   6.624   7.650
 5497POPC   C1B30055   8.835   6.400   8.550
 5497POPC   C2B30056   8.907   6.422   8.250
 5497POPC   C3B30057   8.837   6.397   7.950
 5497POPC   C4B30058   8.901   6.444   7.650
 5498POPC   NC330059  20.561  33.826   9.450
 5498POPC   PO430060  20.601  33.763   9.150
 5498POPC   GL130061  20.652  33.755   8.850
 5498POPC   GL230062  20.650  33.854   8.850
 5498POPC   C1A30063  20.593  33.837   8.550
 5498POPC   D2A30064  20.625  33.807   8.250
 5498POPC   C3A30065  20.651  33.800   7.950
 5498POPC   C4A30066  20.589  33.805   7.650
 5498POPC   C1B30067  20.800  34.021   8.550
 5498POPC   C2B30068  20.748  34.037   8.250
 5498POPC   C3B30069  20.773  34.030   7.950
 5498POPC   C4B30070  20.737  33.956   7.650
 5499POPC   NC330071  10.549   5.064   9.450
 5499POPC   PO430072  10.501   5.062   9.150
 5499POPC   GL130073  10.524   5.141   8.850
 5499POPC   GL230074  10.538   4.961   8.850
 5499POPC   C1A30075  10.478   5.138   8.550
 5499POPC   D2A30076  10.495   5.092   8.250
 5499POPC   C3A30077  10.554   5.054   7.950
 5499POPC   C4A30078  10.517   5.094   7.650
 5499POPC   C1B30079  10.576   4.881   8.550
 5499POPC   C2B30080  10.490   4.850   8.250
 5499POPC   C3B30081  10.506   4.833   7.950
 5499POPC   C4B30082  10.548   4.859   7.650
 5500POPC   NC330083  16.717   8.190   9.450
 5500POPC   PO430084  16.739   8.151   9.150
 5500POPC   GL130085  16.735   8.153   8.850
 5500POPC   GL230086  16.884   8.201   8.850
 5500POPC   C1A30087  16.709   8.158   8.550
 5500POPC   D2A30088  16.719   8.214   8.250
 5500POPC   C3A30089  16.705   8.244   7.950
 5500POPC   C4A30090  16.694   8.154   7.650
 5500POPC   C1B30091  16.926   8.253   8.550
 5500POPC   C2B30092  16.967   8.259   8.250
 5500POPC   C3B30093  16.987   8.288   7.950
 5500POPC   C4B30094  16.972   8.251   7.650
 5501POPC   NC330095  28.380   2.000   9.450
 5501POPC   PO430096  28.352   1.973   9.150
 5501POPC   GL130097  28.405   2.020   8.850
 5501POPC   GL230098  28.425   1.913   8.850
 5501POPC   C1A30099  28.392   2.029   8.550
 5501POPC   D2A30100  28.338   1.987   8.250
 5501POPC   C3A30101  28.400   2.020   7.950
 5501POPC   C4A30102  28.395   1.977   7.650
 5501POPC   C1B30103  28.542   1.770   8.550
 5501POPC   C2B30104  28.556   1.825   8.250
 5501POPC   C3B30105  28.535   1.772   7.950
 5501POPC   C4B30106  28.509   1.768   7.650
 5502POPC   NC330107   2.785   5.820   9.450
 5502POPC   PO430108   2.725   5.893   9.150
 5502POPC   GL130109   2.767   5.915   8.850
 5502POPC   GL230110   2.779   5.764   8.850
 5502POPC   C1A30111   2.800   5.853   8.550
 5502POPC   D2A30112   2.716   5.834   8.250
 5502POPC   C3A30113   2.769   5.867   7.950
 5502POPC   C4A30114   2.766   5.839   7.650
 5502POPC   C1B30115   2.869   5.647   8.550
 5502POPC   C2B30116   2.861   5.677   8.250
 5502POPC   C3B30117   2.914   5.613   7.950
 5502POPC   C4B30118   2.865   5.638   7.650
 5503POPC   NC330119  14.368   4.362   9.450
 5503POPC   PO430120  14.436   4.291   9.150
 5503POPC   GL130121  14.380   4.350   8.850
 5503POPC   GL230122  14.319   4.210   8.850
 5503POPC   C1A30123  14.441   4.338   8.550
 5503POPC   D2A30124  14.389   4.332   8.250
 5503POPC   C3A30125  14.451   4.355   7.950
 5503POPC   C4A30126  14.388   4.324   7.650
 5503POPC   C1B30127  14.235   4.223   8.550
 5503POPC   C2B30128  14.229   4.163   8.250
 5503POPC   C3B30129  14.213   4.163   7.950
 5503POPC   C4B30130  14.228   4.170   7.650
 5504POPC   NC330131   0.460  40.029   9.450
 5504POPC   PO430132   0.481  40.040   9.150
 5504POPC   GL130133   0.443  40.041   8.850
 5504POPC   GL230134   0.544  40.134   8.850
 5504POPC   C1A30135   0.395  39.970   8.550
 5504POPC   D2A30136   0.444  40.024   8.250
 5504POPC   C3A30137   0.447  39.982   7.950
 5504POPC   C4A30138   0.476  40.017   7.650
 5504POPC   C1B30139   0.644  40.150   8.550
 5504POPC   C2B30140   0.604  40.211   8.250
 5504POPC   C3B30141   0.654  40.242   7.950
 5504POPC   C4B30142   0.624  40.188   7.650
 5505POPC   NC330143  19.015   6.621   9.450
 5505POPC   PO430144  19.042   6.686   9.150
 5505POPC   GL130145  19.067   6.657   8.850
 5505POPC   GL230146  18.963   6.555   8.850
 5505POPC   C1A30147  19.084   6.683   8.550
 5505POPC   D2A30148  19.094   6.667   8.250
 5505POPC   C3A30149  19.053   6.672   7.950
 5505POPC   C4A30150  19.048   6.685   7.650
 5505POPC   C1B30151  18.889   6.493   8.550
 5505POPC   C2B30152  18.918   6.407   8.250
 5505POPC   C3B30153  18.888   6.500   7.950
 5505POPC   C4B30154  18.876   6.454   7.650
 5506POPC   NC330155  32.236   0.438   9.450
 5506POPC   PO430156  32.256   0.438   9.150
 5506POPC   GL130157  32.239   0.395   8.850
 5506POPC   GL230158  32.223   0.558   8.850
 5506POPC   C1A30159  32.285   0.488   8.550
 5506POPC   D2A30160  32.279   0.399   8.250
 5506POPC   C3A30161  32.214   0.402   7.950
 5506POPC   C4A30162  32.208   0.433   7.650
 5506POPC   C1B30163  32.145   0.646   8.550
 5506POPC   C2B30164  32.194   0.654   8.250
 5506POPC   C3B30165  32.154   0.686   7.950
 5506POPC   C4B30166  32.153   0.706   7.650
 5507POPC   NC330167  23.742   2.809   9.450
 5507POPC   PO430168  23.717   2.797   9.150
 5507POPC   GL130169  23.760   2.786   8.850
 5507POPC   GL230170  23.624   2.706   8.850
 5507POPC   C1A30171  23.713   2.806   8.550
 5507POPC   D2A30172  23.706   2.782   8.250
 5507POPC   C3A30173  23.720   2.734   7.950
 5507POPC   C4A30174  23.740   2.806   7.650
 5507POPC   C1B30175  23.587   2.533   8.550
 5507POPC   C2B30176  23.573   2.599   8.250
 5507POPC   C3B30177  23.533   2.582   7.950
 5507POPC   C4B30178  23.571   2.569   7.650
 5508POPC   NC330179   8.215  21.405   9.450
 5508POPC   PO430180   8.201  21.401   9.150
 5508POPC   GL130181   8.151  21.338   8.850
 5508POPC   GL230182   8.031  21.426   8.850
 5508POPC   C1A30183   8.186  21.432   8.550
 5508POPC   D2A30184   8.245  21.394   8.250
 5508POPC   C3A30185   8.199  21.429   7.950
 5508POPC   C4A30186   8.160  21.352   7.650
 5508POPC   C1B30187   7.994  21.473   8.550
 5508POPC   C2B30188   7.911  21.463   8.250
 5508POPC   C3B30189   7.943  21.471   7.950
 5508POPC   C4B30190   7.951  21.502   7.650
 5509POPC   NC330191  24.492  20.571   9.450
 5509POPC   PO430192  24.473  20.593   9.150
 5509POPC   GL130193  24.481  20.617   8.850
 5509POPC   GL230194  24.367  20.480   8.850
 5509POPC   C1A30195  24.450  20.619   8.550
 5509POPC   D2A30196  24.527  20.632   8.250
 5509POPC   C3A30197  24.489  20.644   7.950
 5509POPC   C4A30198  24.484  20.611   7.650
 5509POPC   C1B30199  24.263  20.484   8.550
 5509POPC   C2B30200  24.262  20.437   8.250
 5509POPC   C3B30201  24.281  20.446   7.950
 5509POPC   C4B30202  24.253  20.412   7.650
 5510POPC   NC330203  10.550  19.100   9.450
 5510POPC   PO430204  10.528  19.054   9.150
 5510POPC   GL130205  10.523  19.055   8.850
 5510POPC   GL230206  10.388  19.154   8.850
 5510POPC   C1A30207  10.523  19.093   8.550
 5510POPC   D2A30208  10.528  19.049   8.250
 5510POPC   C3A30209  10.567  19.043   7.950
 5510POPC   C4A30210  10.538  19.012   7.650
 5510POPC   C1B30211  10.320  19.186   8.550
 5510POPC   C2B30212  10.257  19.164   8.250
 5510POPC   C3B30213  10.320  19.151   7.950
 5510POPC   C4B30214  10.317  19.136   7.650
 5511POPC   NC330215  21.351  27.632   9.450
 5511POPC   PO430216  21.345  27.556   9.150
 5511POPC   GL130217  21.429  27.631   8.850
 5511POPC   GL230218  21.309  27.622   8.850
 5511POPC   C1A30219  21.429  27.596   8.550
 5511POPC   D2A30220  21.341  27.545   8.250
 5511POPC   C3A30221  21.433  27.612   7.950
 5511POPC   C4A30222  21.356  27.604   7.650
 5511POPC   C1B30223  21.103  27.709   8.550
 5511POPC   C2B30224  21.162  27.696   8.250
 5511POPC   C3B30225  21.104  27.675   7.950
 5511POPC   C4B30226  21.141  27.641   7.650
 5512POPC   NC330227   1.218  23.677   9.450
 5512POPC   PO430228   1.174  23.719   9.150
 5512POPC   GL130229   1.226  23.677   8.850
 5512POPC   GL230230   1.190  23.570   8.850
 5512POPC   C1A30231   1.234  23.677   8.550
 5512POPC   D2A30232   1.206  23.754   8.250
 5512POPC   C3A30233   1.207  23.708   7.950
 5512POPC   C4A30234   1.187  23.733   7.650
 5512POPC   C1B30235   1.140  23.469   8.550
 5512POPC   C2B30236   1.066  23.441   8.250
 5512POPC   C3B30237   1.162  23.447   7.950
 5512POPC   C4B30238   1.157  23.466   7.650
 5513POPC   NC330239   7.412  13.639   9.450
 5513POPC   PO430240   7.376  13.620   9.150
 5513POPC   GL130241   7.376  13.617   8.850
 5513POPC   GL230242   7.248  13.588   8.850
 5513POPC   C1A30243   7.450  13.613   8.550
 5513POPC   D2A30244   7.411  13.677   8.250
 5513POPC   C3A30245   7.405  13.609   7.950
 5513POPC   C4A30246   7.389  13.628   7.650
 5513POPC   C1B30247   7.215  13.687   8.550
 5513POPC   C2B30248   7.220  13.675   8.250
 5513POPC   C3B30249   7.159  13.617   7.950
 5513POPC   C4B30250   7.199  13.607   7.650
 5514POPC   NC330251  33.042  18.259   9.450
 5514POPC   PO430252  33.059  18.332   9.150
 5514POPC   GL130253  32.983  18.317   8.850
 5514POPC   GL230254  33.144  18.344   8.850
 5514POPC   C1A30255  33.047  18.279   8.550
 5514POPC   D2A30256  33.067  18.286   8.250
 5514POPC   C3A30257  33.005  18.321   7.950
 5514POPC   C4A30258  33.062  18.262   7.650
 5514POPC   C1B30259  33.156  18.422   8.550
 5514POPC   C2B30260  33.153  18.449   8.250
 5514POPC   C3B30261  33.176  18.450   7.950
 5514POPC   C4B30262  33.180  18.434   7.650
 5515POPC   NC330263   8.147  26.834   9.450
 5515POPC   PO430264   8.231  26.786   9.150
 5515POPC   GL130265   8.218  26.777   8.850
 5515POPC   GL230266   8.261  26.703   8.850
 5515POPC   C1A30267   8.195  26.853   8.550
 5515POPC   D2A30268   8.164  26.844   8.250
 5515POPC   C3A30269   8.230  26.826   7.950
 5515POPC   C4A30270   8.175  26.816   7.650
 5515POPC   C1B30271   8.328  26.608   8.550
 5515POPC   C2B30272   8.280  26.593   8.250
 5515POPC   C3B30273   8.248  26.595   7.950
 5515POPC   C4B30274   8.263  26.631   7.650
 5516POPC   NC330275  26.020  40.818   9.450
 5516POPC   PO430276  25.992  40.766   9.150
 5516POPC   GL130277  26.029  40.736   8.850
 5516POPC   GL230278  25.915  40.771   8.850
 5516POPC   C1A30279  26.023  40.747   8.550
 5516POPC   D2A30280  26.070  40.832   8.250
 5516POPC   C3A30281  26.029  40.828   7.950
 5516POPC   C4A30282  26.083  40.799   7.650
 5516POPC   C1B30283  25.828  40.793   8.550
 5516POPC   C2B30284  25.798  40.756   8.250
 5516POPC   C3B30285  25.753  40.818   7.950
 5516POPC   C4B30286  25.818  40.760   7.650
 5517POPC   NC330287  36.905  41.534   9.450
 5517POPC   PO430288  36.938  41.588   9.150
 5517POPC   GL130289  36.906  41.531   8.850
 5517POPC   GL230290  36.805  41.436   8.850
 5517POPC   C1A30291  36.862  41.604   8.550
 5517POPC   D2A30292  36.924  41.586   8.250
 5517POPC   C3A30293  36.923  41.516   7.950
 5517POPC   C4A30294  36.938  41.555   7.650
 5517POPC   C1B30295  36.760  41.346   8.550
 5517POPC   C2B30296  36.728  41.395   8.250
 5517POPC   C3B30297  36.774  41.375   7.950
 5517POPC   C4B30298  36.692  41.352   7.650
 5518POPC   NC330299   8.987  29.149   9.450
 5518POPC   PO430300   8.997  29.129   9.150
 5518POPC   GL130301   8.966  29.142   8.850
 5518POPC   GL230302   8.804  29.195   8.850
 5518POPC   C1A30303   8.974  29.189   8.550
 5518POPC   D2A30304   8.924  29.174   8.250
 5518POPC   C3A30305   8.944  29.118   7.950
 5518POPC   C4A30306   8.979  29.155   7.650
 5518POPC   C1B30307   8.712  29.186   8.550
 5518POPC   C2B30308   8.742  29.188   8.250
 5518POPC   C3B30309   8.707  29.205   7.950
 5518POPC   C4B30310   8.768  29.225   7.650
 5519POPC   NC330311  33.002  12.813   9.450
 5519POPC   PO430312  32.979  12.802   9.150
 5519POPC   GL130313  33.007  12.840   8.850
 5519POPC   GL230314  32.996  12.735   8.850
 5519POPC   C1A30315  33.063  12.814   8.550
 5519POPC   D2A30316  32.990  12.897   8.250
 5519POPC   C3A30317  33.036  12.825   7.950
 5519POPC   C4A30318  32.991  12.833   7.650
 5519POPC   C1B30319  32.897  12.662   8.550
 5519POPC   C2B30320  32.919  12.697   8.250
 5519POPC   C3B30321  32.897  12.641   7.950
 5519POPC   C4B30322  32.851  12.700   7.650
 5520POPC   NC330323   0.397  35.327   9.450
 5520POPC   PO430324   0.425  35.390   9.150
 5520POPC   GL130325   0.388  35.385   8.850
 5520POPC   GL230326   0.564  35.256   8.850
 5520POPC   C1A30327   0.444  35.343   8.550
 5520POPC   D2A30328   0.401  35.355   8.250
 5520POPC   C3A30329   0.389  35.314   7.950
 5520POPC   C4A30330   0.477  35.350   7.650
 5520POPC   C1B30331   0.633  35.163   8.550
 5520POPC   C2B30332   0.655  35.227   8.250
 5520POPC   C3B30333   0.578  35.173   7.950
 5520POPC   C4B30334   0.574  35.132   7.650
 5521POPC   NC330335  11.258  37.650   9.450
 5521POPC   PO430336  11.283  37.675   9.150
 5521POPC   GL130337  11.257  37.714   8.850
 5521POPC   GL230338  11.309  37.849   8.850
 5521POPC   C1A30339  11.256  37.638   8.550
 5521POPC   D2A30340  11.264  37.676   8.250
 5521POPC   C3A30341  11.336  37.644   7.950
 5521POPC   C4A30342  11.294  37.721   7.650
 5521POPC   C1B30343  11.383  37.943   8.550
 5521POPC   C2B30344  11.305  37.940   8.250
 5521POPC   C3B30345  11.342  37.916   7.950
 5521POPC   C4B30346  11.329  37.974   7.650
 5522POPC   NC330347  39.279  36.875   9.450
 5522POPC   PO430348  39.189  36.877   9.150
 5522POPC   GL130349  39.197  36.924   8.850
 5522POPC   GL230350  39.342  37.025   8.850
 5522POPC   C1A30351  39.233  36.855   8.550
 5522POPC   D2A30352  39.237  36.854   8.250
 5522POPC   C3A30353  39.200  36.866   7.950
 5522POPC   C4A30354  39.240  36.929   7.650
 5522POPC   C1B30355  39.380  37.084   8.550
 5522POPC   C2B30356  39.333  37.098   8.250
 5522POPC   C3B30357  39.375  37.111   7.950
 5522POPC   C4B30358  39.335  37.138   7.650
 5523POPC   NC330359  43.869  10.539   9.450
 5523POPC   PO430360  43.896  10.504   9.150
 5523POPC   GL130361  43.857  10.482   8.850
 5523POPC   GL230362  43.997  10.426   8.850
 5523POPC   C1A30363  43.898  10.564   8.550
 5523POPC   D2A30364  43.930  10.567   8.250
 5523POPC   C3A30365  43.837  10.537   7.950
 5523POPC   C4A30366  43.910  10.486   7.650
 5523POPC   C1B30367  44.096  10.439   8.550
 5523POPC   C2B30368  44.144  10.456   8.250
 5523POPC   C3B30369  44.162  10.439   7.950
 5523POPC   C4B30370  44.066  10.428   7.650
 5524POPC   NC330371  34.597  35.321   9.450
 5524POPC   PO430372  34.543  35.329   9.150
 5524POPC   GL130373  34.601  35.341   8.850
 5524POPC   GL230374  34.533  35.262   8.850
 5524POPC   C1A30375  34.533  35.398   8.550
 5524POPC   D2A30376  34.575  35.333   8.250
 5524POPC   C3A30377  34.620  35.384   7.950
 5524POPC   C4A30378  34.553  35.310   7.650
 5524POPC   C1B30379  34.505  35.098   8.550
 5524POPC   C2B30380  34.482  35.153   8.250
 5524POPC   C3B30381  34.550  35.077   7.950
 5524POPC   C4B30382  34.494  35.145   7.650
 5525POPC   NC330383  25.291  42.335   9.450
 5525POPC   PO430384  25.284  42.378   9.150
 5525POPC   GL130385  25.305  42.329   8.850
 5525POPC   GL230386  25.126  42.351   8.850
 5525POPC   C1A30387  25.298  42.366   8.550
 5525POPC   D2A30388  25.304  42.338   8.250
 5525POPC   C3A30389  25.228  42.299   7.950
 5525POPC   C4A30390  25.283  42.327   7.650
 5525POPC   C1B30391  25.063  42.390   8.550
 5525POPC   C2B30392  25.084  42.463   8.250
 5525POPC   C3B30393  25.042  42.453   7.950
 5525POPC   C4B30394  25.033  42.439   7.650
 5526POPC   NC330395  44.690   8.151   9.450
 5526POPC   PO430396  44.676   8.184   9.150
 5526POPC   GL130397  44.708   8.204   8.850
 5526POPC   GL230398  44.788   8.151   8.850
 5526POPC   C1A30399  44.633   8.191   8.550
 5526POPC   D2A30400  44.620   8.158   8.250
 5526POPC   C3A30401  44.671   8.198   7.950
 5526POPC   C4A30402  44.656   8.198   7.650
 5526POPC   C1B30403  44.897   8.164   8.550
 5526POPC   C2B30404  44.937   8.097   8.250
 5526POPC   C3B30405  44.878   8.140   7.950
 5526POPC   C4B30406  44.900   8.167   7.650
 5527POPC   NC330407  12.057  19.012   9.450
 5527POPC   PO430408  12.079  19.086   9.150
 5527POPC   GL130409  12.032  19.026   8.850
 5527POPC   GL230410  12.081  18.982   8.850
 5527POPC   C1A30411  12.104  19.085   8.550
 5527POPC   D2A30412  12.056  19.046   8.250
 5527POPC   C3A30413  12.081  19.022   7.950
 5527POPC   C4A30414  12.112  19.086   7.650
 5527POPC   C1B30415  12.077  18.801   8.550
 5527POPC   C2B30416  12.107  18.832   8.250
 5527POPC   C3B30417  12.114  18.772   7.950
 5527POPC   C4B30418  12.088  18.846   7.650
 5528POPC   NC330419   8.231  33.829   9.450
 5528POPC   PO430420   8.202  33.843   9.150
 5528POPC   GL130421   8.235  33.787   8.850
 5528POPC   GL230422   8.298  33.850   8.850
 5528POPC   C1A30423   8.164  33.843   8.550
 5528POPC   D2A30424   8.230  33.756   8.250
 5528POPC   C3A30425   8.244  33.754   7.950
 5528POPC   C4A30426   8.150  33.791   7.650
 5528POPC   C1B30427   8.442  33.976   8.550
 5528POPC   C2B30428   8.381  33.906   8.250
 5528POPC   C3B30429   8.392  33.955   7.950
 5528POPC   C4B30430   8.379  33.882   7.650
 5529POPC   NC330431   8.943  27.636   9.450
 5529POPC   PO430432   9.009  27.601   9.150
 5529POPC   GL130433   9.021  27.567   8.850
 5529POPC   GL230434   8.946  27.514   8.850
 5529POPC   C1A30435   8.996  27.598   8.550
 5529POPC   D2A30436   8.971  27.641   8.250
 5529POPC   C3A30437   8.923  27.566   7.950
 5529POPC   C4A30438   8.925  27.624   7.650
 5529POPC   C1B30439   8.988  27.372   8.550
 5529POPC   C2B30440   8.952  27.388   8.250
 5529POPC   C3B30441   8.970  27.379   7.950
 5529POPC   C4B30442   8.974  27.315   7.650
 5530POPC   NC330443   4.315   4.273   9.450
 5530POPC   PO430444   4.269   4.295   9.150
 5530POPC   GL130445   4.367   4.317   8.850
 5530POPC   GL230446   4.258   4.378   8.850
 5530POPC   C1A30447   4.290   4.333   8.550
 5530POPC   D2A30448   4.297   4.328   8.250
 5530POPC   C3A30449   4.279   4.287   7.950
 5530POPC   C4A30450   4.283   4.291   7.650
 5530POPC   C1B30451   4.167   4.472   8.550
 5530POPC   C2B30452   4.150   4.459   8.250
 5530POPC   C3B30453   4.178   4.528   7.950
 5530POPC   C4B30454   4.108   4.498   7.650
 5531POPC   NC330455   4.309  23.746   9.450
 5531POPC   PO430456   4.366  23.701   9.150
 5531POPC   GL130457   4.360  23.718   8.850
 5531POPC   GL230458   4.450  23.712   8.850
 5531POPC   C1A30459   4.308  23.690   8.550
 5531POPC   D2A30460   4.348  23.758   8.250
 5531POPC   C3A30461   4.293  23.760   7.950
 5531POPC   C4A30462   4.297  23.731   7.650
 5531POPC   C1B30463   4.531  23.736   8.550
 5531POPC   C2B30464   4.610  23.786   8.250
 5531POPC   C3B30465   4.566  23.792   7.950
 5531POPC   C4B30466   4.584  23.708   7.650
 5532POPC   NC330467  36.888  17.504   9.450
 5532POPC   PO430468  36.867  17.511   9.150
 5532POPC   GL130469  36.951  17.476   8.850
 5532POPC   GL230470  36.980  17.425   8.850
 5532POPC   C1A30471  36.901  17.502   8.550
 5532POPC   D2A30472  36.929  17.550   8.250
 5532POPC   C3A30473  36.948  17.487   7.950
 5532POPC   C4A30474  36.902  17.507   7.650
 5532POPC   C1B30475  37.088  17.372   8.550
 5532POPC   C2B30476  37.077  17.335   8.250
 5532POPC   C3B30477  37.077  17.381   7.950
 5532POPC   C4B30478  37.126  17.329   7.650
 5533POPC   NC330479  10.558  16.751   9.450
 5533POPC   PO430480  10.481  16.740   9.150
 5533POPC   GL130481  10.567  16.761   8.850
 5533POPC   GL230482  10.404  16.772   8.850
 5533POPC   C1A30483  10.501  16.751   8.550
 5533POPC   D2A30484  10.492  16.721   8.250
 5533POPC   C3A30485  10.565  16.735   7.950
 5533POPC   C4A30486  10.532  16.747   7.650
 5533POPC   C1B30487  10.280  16.791   8.550
 5533POPC   C2B30488  10.266  16.768   8.250
 5533POPC   C3B30489  10.266  16.742   7.950
 5533POPC   C4B30490  10.285  16.810   7.650
 5534POPC   NC330491   2.782  39.224   9.450
 5534POPC   PO430492   2.733  39.259   9.150
 5534POPC   GL130493   2.755  39.204   8.850
 5534POPC   GL230494   2.871  39.220   8.850
 5534POPC   C1A30495   2.759  39.217   8.550
 5534POPC   D2A30496   2.773  39.213   8.250
 5534POPC   C3A30497   2.782  39.272   7.950
 5534POPC   C4A30498   2.726  39.204   7.650
 5534POPC   C1B30499   3.034  39.118   8.550
 5534POPC   C2B30500   2.997  39.107   8.250
 5534POPC   C3B30501   3.031  39.089   7.950
 5534POPC   C4B30502   3.025  39.184   7.650
 5535POPC   NC330503  29.147   8.212   9.450
 5535POPC   PO430504  29.153   8.156   9.150
 5535POPC   GL130505  29.160   8.189   8.850
 5535POPC   GL230506  29.063   8.113   8.850
 5535POPC   C1A30507  29.109   8.201   8.550
 5535POPC   D2A30508  29.157   8.178   8.250
 5535POPC   C3A30509  29.104   8.164   7.950
 5535POPC   C4A30510  29.169   8.155   7.650
 5535POPC   C1B30511  28.892   8.144   8.550
 5535POPC   C2B30512  28.930   8.099   8.250
 5535POPC   C3B30513  28.913   8.075   7.950
 5535POPC   C4B30514  28.915   8.135   7.650
 5536POPC   NC330515  44.631  11.301   9.450
 5536POPC   PO430516  44.712  11.344   9.150
 5536POPC   GL130517  44.662  11.329   8.850
 5536POPC   GL230518  44.687  11.240   8.850
 5536POPC   C1A30519  44.622  11.263   8.550
 5536POPC   D2A30520  44.699  11.273   8.250
 5536POPC   C3A30521  44.703  11.326   7.950
 5536POPC   C4A30522  44.657  11.316   7.650
 5536POPC   C1B30523  44.822  11.095   8.550
 5536POPC   C2B30524  44.817  11.120   8.250
 5536POPC   C3B30525  44.834  11.068   7.950
 5536POPC   C4B30526  44.757  11.046   7.650
 5537POPC   NC330527  25.258  10.520   9.450
 5537POPC   PO430528  25.236  10.490   9.150
 5537POPC   GL130529  25.274  10.565   8.850
 5537POPC   GL230530  25.379  10.492   8.850
 5537POPC   C1A30531  25.282  10.501   8.550
 5537POPC   D2A30532  25.312  10.487   8.250
 5537POPC   C3A30533  25.251  10.568   7.950
 5537POPC   C4A30534  25.296  10.541   7.650
 5537POPC   C1B30535  25.525  10.540   8.550
 5537POPC   C2B30536  25.484  10.459   8.250
 5537POPC   C3B30537  25.556  10.466   7.950
 5537POPC   C4B30538  25.534  10.525   7.650
 5538POPC   NC330539  44.619  15.197   9.450
 5538POPC   PO430540  44.620  15.227   9.150
 5538POPC   GL130541  44.693  15.138   8.850
 5538POPC   GL230542  44.570  15.181   8.850
 5538POPC   C1A30543  44.644  15.207   8.550
 5538POPC   D2A30544  44.632  15.147   8.250
 5538POPC   C3A30545  44.705  15.209   7.950
 5538POPC   C4A30546  44.642  15.155   7.650
 5538POPC   C1B30547  44.374  15.143   8.550
 5538POPC   C2B30548  44.400  15.173   8.250
 5538POPC   C3B30549  44.403  15.156   7.950
 5538POPC   C4B30550  44.438  15.200   7.650
 5539POPC   NC330551  27.595  11.266   9.450
 5539POPC   PO430552  27.574  11.264   9.150
 5539POPC   GL130553  27.615  11.253   8.850
 5539POPC   GL230554  27.534  11.446   8.850
 5539POPC   C1A30555  27.602  11.308   8.550
 5539POPC   D2A30556  27.637  11.264   8.250
 5539POPC   C3A30557  27.582  11.326   7.950
 5539POPC   C4A30558  27.611  11.267   7.650
 5539POPC   C1B30559  27.507  11.514   8.550
 5539POPC   C2B30560  27.577  11.587   8.250
 5539POPC   C3B30561  27.542  11.548   7.950
 5539POPC   C4B30562  27.602  11.546   7.650
 5540POPC   NC330563   7.407  15.979   9.450
 5540POPC   PO430564   7.456  15.934   9.150
 5540POPC   GL130565   7.461  15.928   8.850
 5540POPC   GL230566   7.520  16.054   8.850
 5540POPC   C1A30567   7.415  16.000   8.550
 5540POPC   D2A30568   7.439  15.979   8.250
 5540POPC   C3A30569   7.385  15.916   7.950
 5540POPC   C4A30570   7.387  16.000   7.650
 5540POPC   C1B30571   7.489  16.149   8.550
 5540POPC   C2B30572   7.553  16.167   8.250
 5540POPC   C3B30573   7.533  16.214   7.950
 5540POPC   C4B30574   7.518  16.223   7.650
 5541POPC   NC330575   3.563  38.445   9.450
 5541POPC   PO430576   3.510  38.412   9.150
 5541POPC   GL130577   3.562  38.490   8.850
 5541POPC   GL230578   3.669  38.546   8.850
 5541POPC   C1A30579   3.519  38.452   8.550
 5541POPC   D2A30580   3.559  38.413   8.250
 5541POPC   C3A30581   3.555  38.457   7.950
 5541POPC   C4A30582   3.573  38.468   7.650
 5541POPC   C1B30583   3.656  38.638   8.550
 5541POPC   C2B30584   3.670  38.664   8.250
 5541POPC   C3B30585   3.735  38.682   7.950
 5541POPC   C4B30586   3.689  38.644   7.650
 5542POPC   NC330587   1.194  36.135   9.450
 5542POPC   PO430588   1.253  36.157   9.150
 5542POPC   GL130589   1.205  36.134   8.850
 5542POPC   GL230590   1.134  36.008   8.850
 5542POPC   C1A30591   1.197  36.145   8.550
 5542POPC   D2A30592   1.190  36.169   8.250
 5542POPC   C3A30593   1.245  36.107   7.950
 5542POPC   C4A30594   1.255  36.170   7.650
 5542POPC   C1B30595   1.180  35.913   8.550
 5542POPC   C2B30596   1.167  35.930   8.250
 5542POPC   C3B30597   1.182  35.860   7.950
 5542POPC   C4B30598   1.153  35.865   7.650
 5543POPC   NC330599  17.557  29.148   9.450
 5543POPC   PO430600  17.507  29.170   9.150
 5543POPC   GL130601  17.478  29.100   8.850
 5543POPC   GL230602  17.336  29.164   8.850
 5543POPC   C1A30603  17.525  29.145   8.550
 5543POPC   D2A30604  17.504  29.104   8.250
 5543POPC   C3A30605  17.457  29.105   7.950
 5543POPC   C4A30606  17.556  29.117   7.650
 5543POPC   C1B30607  17.306  29.201   8.550
 5543POPC   C2B30608  17.230  29.196   8.250
 5543POPC   C3B30609  17.294  29.226   7.950
 5543POPC   C4B30610  17.301  29.198   7.650
 5544POPC   NC330611  34.537  24.497   9.450
 5544POPC   PO430612  34.621  24.524   9.150
 5544POPC   GL130613  34.575  24.458   8.850
 5544POPC   GL230614  34.639  24.640   8.850
 5544POPC   C1A30615  34.568  24.461   8.550
 5544POPC   D2A30616  34.545  24.479   8.250
 5544POPC   C3A30617  34.567  24.538   7.950
 5544POPC   C4A30618  34.538  24.479   7.650
 5544POPC   C1B30619  34.751  24.685   8.550
 5544POPC   C2B30620  34.737  24.719   8.250
 5544POPC   C3B30621  34.702  24.727   7.950
 5544POPC   C4B30622  34.669  24.726   7.650
 5545POPC   NC330623  21.372  39.273   9.450
 5545POPC   PO430624  21.345  39.260   9.150
 5545POPC   GL130625  21.358  39.218   8.850
 5545POPC   GL230626  21.381  39.357   8.850
 5545POPC   C1A30627  21.430  39.195   8.550
 5545POPC   D2A30628  21.429  39.183   8.250
 5545POPC   C3A30629  21.351  39.208   7.950
 5545POPC   C4A30630  21.400  39.259   7.650
 5545POPC   C1B30631  21.441  39.512   8.550
 5545POPC   C2B30632  21.410  39.465   8.250
 5545POPC   C3B30633  21.374  39.478   7.950
 5545POPC   C4B30634  21.422  39.512   7.650
 5546POPC   NC330635  26.039   8.975   9.450
 5546POPC   PO430636  25.997   8.946   9.150
 5546POPC   GL130637  26.049   8.961   8.850
 5546POPC   GL230638  25.959   8.857   8.850
 5546POPC   C1A30639  26.033   9.005   8.550
 5546POPC   D2A30640  26.015   9.004   8.250
 5546POPC   C3A30641  26.003   9.010   7.950
 5546POPC   C4A30642  26.007   8.957   7.650
 5546POPC   C1B30643  25.871   8.764   8.550
 5546POPC   C2B30644  25.930   8.719   8.250
 5546POPC   C3B30645  25.873   8.742   7.950
 5546POPC   C4B30646  25.880   8.746   7.650
 5547POPC   NC330647   6.671   2.010   9.450
 5547POPC   PO430648   6.667   1.989   9.150
 5547POPC   GL130649   6.669   1.952   8.850
 5547POPC   GL230650   6.807   1.975   8.850
 5547POPC   C1A30651   6.636   1.941   8.550
 5547POPC   D2A30652   6.598   2.019   8.250
 5547POPC   C3A30653   6.668   2.021   7.950
 5547POPC   C4A30654   6.686   2.036   7.650
 5547POPC   C1B30655   6.877   2.049   8.550
 5547POPC   C2B30656   6.883   2.046   8.250
 5547POPC   C3B30657   6.853   2.074   7.950
 5547POPC   C4B30658   6.885   2.060   7.650
 5548POPC   NC330659   0.400  34.526   9.450
 5548POPC   PO430660   0.423  34.546   9.150
 5548POPC   GL130661   0.454  34.605   8.850
 5548POPC   GL230662   0.333  34.648   8.850
 5548POPC   C1A30663   0.396  34.595   8.550
 5548POPC   D2A30664   0.404  34.534   8.250
 5548POPC   C3A30665   0.486  34.560   7.950
 5548POPC   C4A30666   0.418  34.585   7.650
 5548POPC   C1B30667   0.307  34.758   8.550
 5548POPC   C2B30668   0.283  34.787   8.250
 5548POPC   C3B30669   0.295  34.788   7.950
 5548POPC   C4B30670   0.279  34.750   7.650
 5549POPC   NC330671  35.381   5.121   9.450
 5549POPC   PO430672  35.308   5.093   9.150
 5549POPC   GL130673  35.379   5.112   8.850
 5549POPC   GL230674  35.381   4.976   8.850
 5549POPC   C1A30675  35.400   5.100   8.550
 5549POPC   D2A30676  35.332   5.105   8.250
 5549POPC   C3A30677  35.338   5.055   7.950
 5549POPC   C4A30678  35.376   5.072   7.650
 5549POPC   C1B30679  35.390   4.898   8.550
 5549POPC   C2B30680  35.421   4.887   8.250
 5549POPC   C3B30681  35.423   4.858   7.950
 5549POPC   C4B30682  35.427   4.841   7.650
 5550POPC   NC330683   1.168  31.476   9.450
 5550POPC   PO430684   1.180  31.465   9.150
 5550POPC   GL130685   1.234  31.485   8.850
 5550POPC   GL230686   1.306  31.387   8.850
 5550POPC   C1A30687   1.168  31.436   8.550
 5550POPC   D2A30688   1.260  31.461   8.250
 5550POPC   C3A30689   1.191  31.436   7.950
 5550POPC   C4A30690   1.226  31.483   7.650
 5550POPC   C1B30691   1.467  31.322   8.550
 5550POPC   C2B30692   1.376  31.346   8.250
 5550POPC   C3B30693   1.373  31.372   7.950
 5550POPC   C4B30694   1.398  31.320   7.650
 5551POPC   NC330695  29.128  28.344   9.450
 5551POPC   PO430696  29.101  28.371   9.150
 5551POPC   GL130697  29.169  28.323   8.850
 5551POPC   GL230698  29.242  28.299   8.850
 5551POPC   C1A30699  29.170  28.390   8.550
 5551POPC   D2A30700  29.155  28.379   8.250
 5551POPC   C3A30701  29.142  28.406   7.950
 5551POPC   C4A30702  29.154  28.392   7.650
 5551POPC   C1B30703  29.339  28.224   8.550
 5551POPC   C2B30704  29.334  28.305   8.250
 5551POPC   C3B30705  29.319  28.278   7.950
 5551POPC   C4B30706  29.408  28.264   7.650
 5552POPC   NC330707  19.871  37.638   9.450
 5552POPC   PO430708  19.817  37.656   9.150
 5552POPC   GL130709  19.831  37.727   8.850
 5552POPC   GL230710  19.782  37.777   8.850
 5552POPC   C1A30711  19.793  37.641   8.550
 5552POPC   D2A30712  19.789  37.693   8.250
 5552POPC   C3A30713  19.839  37.692   7.950
 5552POPC   C4A30714  19.873  37.691   7.650
 5552POPC   C1B30715  19.679  37.910   8.550
 5552POPC   C2B30716  19.718  37.914   8.250
 5552POPC   C3B30717  19.723  37.866   7.950
 5552POPC   C4B30718  19.738  37.941   7.650
 5553POPC   NC330719  30.686   0.425   9.450
 5553POPC   PO430720  30.701   0.404   9.150
 5553POPC   GL130721  30.649   0.458   8.850
 5553POPC   GL230722  30.718   0.596   8.850
 5553POPC   C1A30723  30.656   0.447   8.550
 5553POPC   D2A30724  30.685   0.455   8.250
 5553POPC   C3A30725  30.692   0.432   7.950
 5553POPC   C4A30726  30.669   0.472   7.650
 5553POPC   C1B30727  30.691   0.644   8.550
 5553POPC   C2B30728  30.681   0.668   8.250
 5553POPC   C3B30729  30.738   0.643   7.950
 5553POPC   C4B30730  30.698   0.684   7.650
 5554POPC   NC330731  37.662  22.941   9.450
 5554POPC   PO430732  37.631  22.961   9.150
 5554POPC   GL130733  37.679  22.944   8.850
 5554POPC   GL230734  37.596  22.819   8.850
 5554POPC   C1A30735  37.654  22.965   8.550
 5554POPC   D2A30736  37.664  22.906   8.250
 5554POPC   C3A30737  37.630  22.921   7.950
 5554POPC   C4A30738  37.707  22.945   7.650
 5554POPC   C1B30739  37.480  22.749   8.550
 5554POPC   C2B30740  37.477  22.827   8.250
 5554POPC   C3B30741  37.450  22.771   7.950
 5554POPC   C4B30742  37.428  22.838   7.650
 5555POPC   NC330743  34.591  36.880   9.450
 5555POPC   PO430744  34.618  36.940   9.150
 5555POPC   GL130745  34.604  36.877   8.850
 5555POPC   GL230746  34.537  37.074   8.850
 5555POPC   C1A30747  34.615  36.922   8.550
 5555POPC   D2A30748  34.536  36.871   8.250
 5555POPC   C3A30749  34.617  36.875   7.950
 5555POPC   C4A30750  34.535  36.864   7.650
 5555POPC   C1B30751  34.615  37.182   8.550
 5555POPC   C2B30752  34.602  37.134   8.250
 5555POPC   C3B30753  34.578  37.115   7.950
 5555POPC   C4B30754  34.638  37.140   7.650
 5556POPC   NC330755  32.296  32.263   9.450
 5556POPC   PO430756  32.233  32.215   9.150
 5556POPC   GL130757  32.201  32.239   8.850
 5556POPC   GL230758  32.103  32.293   8.850
 5556POPC   C1A30759  32.246  32.250   8.550
 5556POPC   D2A30760  32.231  32.223   8.250
 5556POPC   C3A30761  32.260  32.249   7.950
 5556POPC   C4A30762  32.279  32.202   7.650
 5556POPC   C1B30763  31.981  32.250   8.550
 5556POPC   C2B30764  32.024  32.224   8.250
 5556POPC   C3B30765  32.026  32.240   7.950
 5556POPC   C4B30766  32.016  32.192   7.650
 5557POPC   NC330767   2.733  26.849   9.450
 5557POPC   PO430768   2.719  26.775   9.150
 5557POPC   GL130769   2.781  26.787   8.850
 5557POPC   GL230770   2.628  26.766   8.850
 5557POPC   C1A30771   2.802  26.832   8.550
 5557POPC   D2A30772   2.800  26.842   8.250
 5557POPC   C3A30773   2.745  26.806   7.950
 5557POPC   C4A30774   2.718  26.844   7.650
 5557POPC   C1B30775   2.493  26.817   8.550
 5557POPC   C2B30776   2.477  26.819   8.250
 5557POPC   C3B30777   2.513  26.781   7.950
 5557POPC   C4B30778   2.567  26.741   7.650
 5558POPC   NC330779   8.181  10.507   9.450
 5558POPC   PO430780   8.170  10.564   9.150
 5558POPC   GL130781   8.230  10.574   8.850
 5558POPC   GL230782   8.194  10.694   8.850
 5558POPC   C1A30783   8.238  10.489   8.550
 5558POPC   D2A30784   8.211  10.523   8.250
 5558POPC   C3A30785   8.172  10.563   7.950
 5558POPC   C4A30786   8.196  10.551   7.650
 5558POPC   C1B30787   8.288  10.782   8.550
 5558POPC   C2B30788   8.268  10.770   8.250
 5558POPC   C3B30789   8.287  10.743   7.950
 5558POPC   C4B30790   8.237  10.721   7.650
 5559POPC   NC330791   2.746  44.692   9.450
 5559POPC   PO430792   2.732  44.654   9.150
 5559POPC   GL130793   2.806  44.638   8.850
 5559POPC   GL230794   2.756  44.777   8.850
 5559POPC   C1A30795   2.805  44.706   8.550
 5559POPC   D2A30796   2.793  44.645   8.250
 5559POPC   C3A30797   2.734  44.708   7.950
 5559POPC   C4A30798   2.745  44.636   7.650
 5559POPC   C1B30799   2.836  44.924   8.550
 5559POPC   C2B30800   2.823  44.897   8.250
 5559POPC   C3B30801   2.817  44.872   7.950
 5559POPC   C4B30802   2.789  44.939   7.650
 5560POPC   NC330803  15.139  14.446   9.450
 5560POPC   PO430804  15.213  14.399   9.150
 5560POPC   GL130805  15.154  14.424   8.850
 5560POPC   GL230806  15.173  14.507   8.850
 5560POPC   C1A30807  15.137  14.386   8.550
 5560POPC   D2A30808  15.195  14.423   8.250
 5560POPC   C3A30809  15.168  14.381   7.950
 5560POPC   C4A30810  15.193  14.413   7.650
 5560POPC   C1B30811  15.088  14.663   8.550
 5560POPC   C2B30812  15.087  14.627   8.250
 5560POPC   C3B30813  15.153  14.669   7.950
 5560POPC   C4B30814  15.149  14.682   7.650
 5561POPC   NC330815  22.930   6.643   9.450
 5561POPC   PO430816  22.935   6.653   9.150
 5561POPC   GL130817  22.958   6.665   8.850
 5561POPC   GL230818  23.033   6.639   8.850
 5561POPC   C1A30819  22.914   6.627   8.550
 5561POPC   D2A30820  22.987   6.653   8.250
 5561POPC   C3A30821  22.952   6.668   7.950
 5561POPC   C4A30822  22.902   6.665   7.650
 5561POPC   C1B30823  23.149   6.536   8.550
 5561POPC   C2B30824  23.197   6.507   8.250
 5561POPC   C3B30825  23.177   6.500   7.950
 5561POPC   C4B30826  23.201   6.537   7.650
 5562POPC   NC330827  22.152   3.518   9.450
 5562POPC   PO430828  22.146   3.521   9.150
 5562POPC   GL130829  22.147   3.578   8.850
 5562POPC   GL230830  22.115   3.461   8.850
 5562POPC   C1A30831  22.204   3.577   8.550
 5562POPC   D2A30832  22.179   3.492   8.250
 5562POPC   C3A30833  22.189   3.553   7.950
 5562POPC   C4A30834  22.131   3.577   7.650
 5562POPC   C1B30835  22.174   3.285   8.550
 5562POPC   C2B30836  22.189   3.271   8.250
 5562POPC   C3B30837  22.132   3.304   7.950
 5562POPC   C4B30838  22.203   3.308   7.650
 5563POPC   NC330839  43.070  13.628   9.450
 5563POPC   PO430840  43.110  13.665   9.150
 5563POPC   GL130841  43.134  13.637   8.850
 5563POPC   GL230842  43.074  13.718   8.850
 5563POPC   C1A30843  43.145  13.628   8.550
 5563POPC   D2A30844  43.097  13.578   8.250
 5563POPC   C3A30845  43.154  13.674   7.950
 5563POPC   C4A30846  43.098  13.644   7.650
 5563POPC   C1B30847  43.038  13.816   8.550
 5563POPC   C2B30848  43.024  13.864   8.250
 5563POPC   C3B30849  43.011  13.845   7.950
 5563POPC   C4B30850  42.964  13.849   7.650
 5564POPC   NC330851   8.217  44.686   9.450
 5564POPC   PO430852   8.166  44.627   9.150
 5564POPC   GL130853   8.211  44.638   8.850
 5564POPC   GL230854   8.087  44.621   8.850
 5564POPC   C1A30855   8.218  44.674   8.550
 5564POPC   D2A30856   8.200  44.697   8.250
 5564POPC   C3A30857   8.153  44.630   7.950
 5564POPC   C4A30858   8.193  44.694   7.650
 5564POPC   C1B30859   7.953  44.617   8.550
 5564POPC   C2B30860   7.927  44.627   8.250
 5564POPC   C3B30861   7.935  44.598   7.950
 5564POPC   C4B30862   7.975  44.608   7.650
 5565POPC   NC330863  20.609  44.696   9.450
 5565POPC   PO430864  20.602  44.616   9.150
 5565POPC   GL130865  20.584  44.692   8.850
 5565POPC   GL230866  20.525  44.541   8.850
 5565POPC   C1A30867  20.578  44.645   8.550
 5565POPC   D2A30868  20.588  44.705   8.250
 5565POPC   C3A30869  20.574  44.688   7.950
 5565POPC   C4A30870  20.645  44.683   7.650
 5565POPC   C1B30871  20.495  44.423   8.550
 5565POPC   C2B30872  20.555  44.464   8.250
 5565POPC   C3B30873  20.502  44.479   7.950
 5565POPC   C4B30874  20.492  44.478   7.650
 5566POPC   NC330875  21.359  22.175   9.450
 5566POPC   PO430876  21.375  22.204   9.150
 5566POPC   GL130877  21.379  22.132   8.850
 5566POPC   GL230878  21.238  22.191   8.850
 5566POPC   C1A30879  21.366  22.160   8.550
 5566POPC   D2A30880  21.351  22.146   8.250
 5566POPC   C3A30881  21.385  22.112   7.950
 5566POPC   C4A30882  21.422  22.114   7.650
 5566POPC   C1B30883  21.127  22.300   8.550
 5566POPC   C2B30884  21.189  22.267   8.250
 5566POPC   C3B30885  21.207  22.331   7.950
 5566POPC   C4B30886  21.198  22.251   7.650
 5567POPC   NC330887  10.572  24.530   9.450
 5567POPC   PO430888  10.545  24.471   9.150
 5567POPC   GL130889  10.477  24.513   8.850
 5567POPC   GL230890  10.493  24.428   8.850
 5567POPC   C1A30891  10.535  24.450   8.550
 5567POPC   D2A30892  10.568  24.514   8.250
 5567POPC   C3A30893  10.529  24.523   7.950
 5567POPC   C4A30894  10.506  24.495   7.650
 5567POPC   C1B30895  10.384  24.294   8.550
 5567POPC   C2B30896  10.339  24.266   8.250
 5567POPC   C3B30897  10.429  24.246   7.950
 5567POPC   C4B30898  10.396  24.322   7.650
 5568POPC   NC330899  28.393  28.327   9.450
 5568POPC   PO430900  28.335  28.354   9.150
 5568POPC   GL130901  28.368  28.414   8.850
 5568POPC   GL230902  28.260  28.317   8.850
 5568POPC   C1A30903  28.329  28.375   8.550
 5568POPC   D2A30904  28.400  28.320   8.250
 5568POPC   C3A30905  28.332  28.412   7.950
 5568POPC   C4A30906  28.332  28.409   7.650
 5568POPC   C1B30907  28.080  28.356   8.550
 5568POPC   C2B30908  28.085  28.300   8.250
 5568POPC   C3B30909  28.140  28.365   7.950
 5568POPC   C4B30910  28.072  28.332   7.650
 5569POPC   NC330911  35.373  25.305   9.450
 5569POPC   PO430912  35.363  25.304   9.150
 5569POPC   GL130913  35.312  25.295   8.850
 5569POPC   GL230914  35.474  25.253   8.850
 5569POPC   C1A30915  35.343  25.224   8.550
 5569POPC   D2A30916  35.365  25.297   8.250
 5569POPC   C3A30917  35.304  25.297   7.950
 5569POPC   C4A30918  35.351  25.258   7.650
 5569POPC   C1B30919  35.607  25.267   8.550
 5569POPC   C2B30920  35.618  25.296   8.250
 5569POPC   C3B30921  35.630  25.217   7.950
 5569POPC   C4B30922  35.639  25.228   7.650
 5570POPC   NC330923  42.374  43.073   9.450
 5570POPC   PO430924  42.321  43.093   9.150
 5570POPC   GL130925  42.301  43.142   8.850
 5570POPC   GL230926  42.502  43.098   8.850
 5570POPC   C1A30927  42.334  43.086   8.550
 5570POPC   D2A30928  42.368  43.092   8.250
 5570POPC   C3A30929  42.296  43.066   7.950
 5570POPC   C4A30930  42.380  43.136   7.650
 5570POPC   C1B30931  42.559  43.128   8.550
 5570POPC   C2B30932  42.557  43.074   8.250
 5570POPC   C3B30933  42.608  43.151   7.950
 5570POPC   C4B30934  42.544  43.140   7.650
 5571POPC   NC330935   9.703  43.084   9.450
 5571POPC   PO430936   9.707  43.066   9.150
 5571POPC   GL130937   9.777  43.138   8.850
 5571POPC   GL230938   9.861  43.236   8.850
 5571POPC   C1A30939   9.789  43.140   8.550
 5571POPC   D2A30940   9.746  43.081   8.250
 5571POPC   C3A30941   9.739  43.155   7.950
 5571POPC   C4A30942   9.786  43.144   7.650
 5571POPC   C1B30943   9.933  43.326   8.550
 5571POPC   C2B30944   9.904  43.338   8.250
 5571POPC   C3B30945   9.935  43.337   7.950
 5571POPC   C4B30946   9.935  43.327   7.650
 5572POPC   NC330947   5.868  35.322   9.450
 5572POPC   PO430948   5.842  35.377   9.150
 5572POPC   GL130949   5.913  35.335   8.850
 5572POPC   GL230950   5.975  35.278   8.850
 5572POPC   C1A30951   5.850  35.353   8.550
 5572POPC   D2A30952   5.880  35.344   8.250
 5572POPC   C3A30953   5.827  35.368   7.950
 5572POPC   C4A30954   5.857  35.359   7.650
 5572POPC   C1B30955   6.058  35.131   8.550
 5572POPC   C2B30956   6.002  35.158   8.250
 5572POPC   C3B30957   6.043  35.179   7.950
 5572POPC   C4B30958   6.059  35.195   7.650
 5573POPC   NC330959   1.970  25.308   9.450
 5573POPC   PO430960   1.959  25.295   9.150
 5573POPC   GL130961   2.023  25.279   8.850
 5573POPC   GL230962   1.847  25.364   8.850
 5573POPC   C1A30963   1.943  25.312   8.550
 5573POPC   D2A30964   2.019  25.232   8.250
 5573POPC   C3A30965   1.979  25.289   7.950
 5573POPC   C4A30966   2.015  25.300   7.650
 5573POPC   C1B30967   1.798  25.369   8.550
 5573POPC   C2B30968   1.775  25.437   8.250
 5573POPC   C3B30969   1.790  25.419   7.950
 5573POPC   C4B30970   1.787  25.380   7.650
 5574POPC   NC330971  33.752  14.383   9.450
 5574POPC   PO430972  33.773  14.399   9.150
 5574POPC   GL130973  33.832  14.363   8.850
 5574POPC   GL230974  33.907  14.500   8.850
 5574POPC   C1A30975  33.759  14.435   8.550
 5574POPC   D2A30976  33.770  14.394   8.250
 5574POPC   C3A30977  33.806  14.403   7.950
 5574POPC   C4A30978  33.826  14.372   7.650
 5574POPC   C1B30979  34.046  14.452   8.550
 5574POPC   C2B30980  33.982  14.463   8.250
 5574POPC   C3B30981  34.067  14.486   7.950
 5574POPC   C4B30982  34.054  14.475   7.650
 5575POPC   NC330983  39.183  44.658   9.450
 5575POPC   PO430984  39.267  44.677   9.150
 5575POPC   GL130985  39.211  44.675   8.850
 5575POPC   GL230986  39.209  44.541   8.850
 5575POPC   C1A30987  39.197  44.665   8.550
 5575POPC   D2A30988  39.209  44.659   8.250
 5575POPC   C3A30989  39.209  44.617   7.950
 5575POPC   C4A30990  39.222  44.702   7.650
 5575POPC   C1B30991  39.143  44.419   8.550
 5575POPC   C2B30992  39.132  44.480   8.250
 5575POPC   C3B30993  39.179  44.400   7.950
 5575POPC   C4B30994  39.148  44.409   7.650
 5576POPC   NC330995   2.034  33.807   9.450
 5576POPC   PO430996   2.029  33.800   9.150
 5576POPC   GL130997   1.944  33.795   8.850
 5576POPC   GL230998   1.915  33.890   8.850
 5576POPC   C1A30999   2.004  33.785   8.550
 5576POPC   D2A31000   1.978  33.848   8.250
 5576POPC   C3A31001   2.002  33.809   7.950
 5576POPC   C4A31002   2.011  33.824   7.650
 5576POPC   C1B31003   1.929  34.071   8.550
 5576POPC   C2B31004   1.929  34.049   8.250
 5576POPC   C3B31005   1.928  34.051   7.950
 5576POPC   C4B31006   1.957  34.024   7.650
 5577POPC   NC331007  43.854   5.129   9.450
 5577POPC   PO431008  43.931   5.098   9.150
 5577POPC   GL131009  43.903   5.111   8.850
 5577POPC   GL231010  43.878   4.925   8.850
 5577POPC   C1A31011  43.907   5.063   8.550
 5577POPC   D2A31012  43.882   5.129   8.250
 5577POPC   C3A31013  43.892   5.109   7.950
 5577POPC   C4A31014  43.903   5.059   7.650
 5577POPC   C1B31015  43.833   4.863   8.550
 5577POPC   C2B31016  43.907   4.806   8.250
 5577POPC   C3B31017  43.873   4.830   7.950
 5577POPC   C4B31018  43.820   4.819   7.650
 5578POPC   NC331019  19.853  27.609   9.450
 5578POPC   PO431020  19.828  27.642   9.150
 5578POPC   GL131021  19.817  27.619   8.850
 5578POPC   GL231022  19.711  27.652   8.850
 5578POPC   C1A31023  19.809  27.598   8.550
 5578POPC   D2A31024  19.791  27.575   8.250
 5578POPC   C3A31025  19.867  27.640   7.950
 5578POPC   C4A31026  19.870  27.564   7.650
 5578POPC   C1B31027  19.694  27.780   8.550
 5578POPC   C2B31028  19.642  27.792   8.250
 5578POPC   C3B31029  19.691  27.796   7.950
 5578POPC   C4B31030  19.672  27.811   7.650
 5579POPC   NC331031  26.820  44.629   9.450
 5579POPC   PO431032  26.841  44.655   9.150
 5579POPC   GL131033  26.799  44.675   8.850
 5579POPC   GL231034  26.684  44.596   8.850
 5579POPC   C1A31035  26.838  44.707   8.550
 5579POPC   D2A31036  26.811  44.664   8.250
 5579POPC   C3A31037  26.792  44.689   7.950
 5579POPC   C4A31038  26.796  44.644   7.650
 5579POPC   C1B31039  26.601  44.498   8.550
 5579POPC   C2B31040  26.567  44.529   8.250
 5579POPC   C3B31041  26.615  44.544   7.950
 5579POPC   C4B31042  26.571  44.485   7.650
 5580POPC   NC331043  29.122  12.074   9.450
 5580POPC   PO431044  29.125  12.105   9.150
 5580POPC   GL131045  29.118  12.049   8.850
 5580POPC   GL231046  29.029  12.042   8.850
 5580POPC   C1A31047  29.151  12.058   8.550
 5580POPC   D2A31048  29.141  12.125   8.250
 5580POPC   C3A31049  29.152  12.114   7.950
 5580POPC   C4A31050  29.183  12.107   7.650
 5580POPC   C1B31051  28.906  12.054   8.550
 5580POPC   C2B31052  28.927  12.104   8.250
 5580POPC   C3B31053  28.943  12.136   7.950
 5580POPC   C4B31054  28.890  12.062   7.650
 5581POPC   NC331055  13.596  15.910   9.450
 5581POPC   PO431056  13.630  15.988   9.150
 5581POPC   GL131057  13.649  15.987   8.850
 5581POPC   GL231058  13.494  15.842   8.850
 5581POPC   C1A31059  13.652  16.003   8.550
 5581POPC   D2A31060  13.674  15.971   8.250
 5581POPC   C3A31061  13.621  15.954   7.950
 5581POPC   C4A31062  13.593  15.913   7.650
 5581POPC   C1B31063  13.419  15.764   8.550
 5581POPC   C2B31064  13.460  15.818   8.250
 5581POPC   C3B31065  13.452  15.770   7.950
 5581POPC   C4B31066  13.393  15.820   7.650
 5582POPC   NC331067  32.982  36.861   9.450
 5582POPC   PO431068  33.070  36.921   9.150
 5582POPC   GL131069  33.004  36.871   8.850
 5582POPC   GL231070  32.928  36.939   8.850
 5582POPC   C1A31071  33.064  36.953   8.550
 5582POPC   D2A31072  33.071  36.921   8.250
 5582POPC   C3A31073  33.015  36.903   7.950
 5582POPC   C4A31074  33.010  36.864   7.650
 5582POPC   C1B31075  32.841  37.078   8.550
 5582POPC   C2B31076  32.818  37.052   8.250
 5582POPC   C3B31077  32.826  37.010   7.950
 5582POPC   C4B31078  32.844  37.036   7.650
 5583POPC   NC331079  42.371  12.119   9.450
 5583POPC   PO431080  42.322  12.098   9.150
 5583POPC   GL131081  42.349  12.110   8.850
 5583POPC   GL231082  42.490  12.057   8.850
 5583POPC   C1A31083  42.300  12.073   8.550
 5583POPC   D2A31084  42.361  12.058   8.250
 5583POPC   C3A31085  42.308  12.089   7.950
 5583POPC   C4A31086  42.322  12.054   7.650
 5583POPC   C1B31087  42.592  12.054   8.550
 5583POPC   C2B31088  42.552  12.010   8.250
 5583POPC   C3B31089  42.537  12.009   7.950
 5583POPC   C4B31090  42.568  12.039   7.650
 5584POPC   NC331091  10.480  19.872   9.450
 5584POPC   PO431092  10.498  19.876   9.150
 5584POPC   GL131093  10.524  19.866   8.850
 5584POPC   GL231094  10.423  19.755   8.850
 5584POPC   C1A31095  10.502  19.817   8.550
 5584POPC   D2A31096  10.569  19.871   8.250
 5584POPC   C3A31097  10.565  19.868   7.950
 5584POPC   C4A31098  10.532  19.825   7.650
 5584POPC   C1B31099  10.314  19.757   8.550
 5584POPC   C2B31100  10.312  19.738   8.250
 5584POPC   C3B31101  10.318  19.749   7.950
 5584POPC   C4B31102  10.333  19.720   7.650
 5585POPC   NC331103  32.290  15.969   9.450
 5585POPC   PO431104  32.285  15.921   9.150
 5585POPC   GL131105  32.244  15.907   8.850
 5585POPC   GL231106  32.192  15.834   8.850
 5585POPC   C1A31107  32.211  15.920   8.550
 5585POPC   D2A31108  32.266  15.930   8.250
 5585POPC   C3A31109  32.255  15.926   7.950
 5585POPC   C4A31110  32.240  15.960   7.650
 5585POPC   C1B31111  32.117  15.697   8.550
 5585POPC   C2B31112  32.129  15.701   8.250
 5585POPC   C3B31113  32.209  15.712   7.950
 5585POPC   C4B31114  32.156  15.685   7.650
 5586POPC   NC331115  23.673  26.001   9.450
 5586POPC   PO431116  23.706  26.078   9.150
 5586POPC   GL131117  23.707  26.032   8.850
 5586POPC   GL231118  23.730  25.905   8.850
 5586POPC   C1A31119  23.735  26.038   8.550
 5586POPC   D2A31120  23.671  26.042   8.250
 5586POPC   C3A31121  23.674  26.058   7.950
 5586POPC   C4A31122  23.754  26.026   7.650
 5586POPC   C1B31123  23.724  25.836   8.550
 5586POPC   C2B31124  23.730  25.781   8.250
 5586POPC   C3B31125  23.751  25.760   7.950
 5586POPC   C4B31126  23.753  25.814   7.650
 5587POPC   NC331127  19.798  13.669   9.450
 5587POPC   PO431128  19.832  13.598   9.150
 5587POPC   GL131129  19.802  13.651   8.850
 5587POPC   GL231130  19.706  13.571   8.850
 5587POPC   C1A31131  19.788  13.645   8.550
 5587POPC   D2A31132  19.841  13.651   8.250
 5587POPC   C3A31133  19.828  13.670   7.950
 5587POPC   C4A31134  19.806  13.634   7.650
 5587POPC   C1B31135  19.627  13.446   8.550
 5587POPC   C2B31136  19.657  13.491   8.250
 5587POPC   C3B31137  19.678  13.488   7.950
 5587POPC   C4B31138  19.671  13.449   7.650
 5588POPC   NC331139   1.192  13.666   9.450
 5588POPC   PO431140   1.254  13.663   9.150
 5588POPC   GL131141   1.203  13.648   8.850
 5588POPC   GL231142   1.364  13.647   8.850
 5588POPC   C1A31143   1.178  13.673   8.550
 5588POPC   D2A31144   1.227  13.590   8.250
 5588POPC   C3A31145   1.204  13.632   7.950
 5588POPC   C4A31146   1.246  13.669   7.650
 5588POPC   C1B31147   1.496  13.661   8.550
 5588POPC   C2B31148   1.480  13.671   8.250
 5588POPC   C3B31149   1.495  13.665   7.950
 5588POPC   C4B31150   1.451  13.629   7.650
 5589POPC   NC331151   1.960  21.430   9.450
 5589POPC   PO431152   1.988  21.421   9.150
 5589POPC   GL131153   2.001  21.346   8.850
 5589POPC   GL231154   2.107  21.292   8.850
 5589POPC   C1A31155   2.002  21.433   8.550
 5589POPC   D2A31156   2.016  21.382   8.250
 5589POPC   C3A31157   1.987  21.341   7.950
 5589POPC   C4A31158   2.022  21.341   7.650
 5589POPC   C1B31159   2.198  21.230   8.550
 5589POPC   C2B31160   2.197  21.252   8.250
 5589POPC   C3B31161   2.196  21.285   7.950
 5589POPC   C4B31162   2.156  21.232   7.650
 5590POPC   NC331163  30.702  37.662   9.450
 5590POPC   PO431164  30.671  37.683   9.150
 5590POPC   GL131165  30.667  37.670   8.850
 5590POPC   GL231166  30.797  37.590   8.850
 5590POPC   C1A31167  30.675  37.635   8.550
 5590POPC   D2A31168  30.738  37.682   8.250
 5590POPC   C3A31169  30.648  37.711   7.950
 5590POPC   C4A31170  30.667  37.669   7.650
 5590POPC   C1B31171  30.865  37.451   8.550
 5590POPC   C2B31172  30.829  37.514   8.250
 5590POPC   C3B31173  30.820  37.425   7.950
 5590POPC   C4B31174  30.845  37.435   7.650
 5591POPC   NC331175  33.042  24.517   9.450
 5591POPC   PO431176  33.019  24.464   9.150
 5591POPC   GL131177  33.028  24.534   8.850
 5591POPC   GL231178  32.891  24.457   8.850
 5591POPC   C1A31179  33.063  24.458   8.550
 5591POPC   D2A31180  32.993  24.512   8.250
 5591POPC   C3A31181  32.989  24.526   7.950
 5591POPC   C4A31182  32.985  24.472   7.650
 5591POPC   C1B31183  32.819  24.378   8.550
 5591POPC   C2B31184  32.836  24.377   8.250
 5591POPC   C3B31185  32.834  24.286   7.950
 5591POPC   C4B31186  32.828  24.303   7.650
 5592POPC   NC331187  17.524   4.330   9.450
 5592POPC   PO431188  17.552   4.314   9.150
 5592POPC   GL131189  17.512   4.281   8.850
 5592POPC   GL231190  17.545   4.199   8.850
 5592POPC   C1A31191  17.511   4.359   8.550
 5592POPC   D2A31192  17.548   4.334   8.250
 5592POPC   C3A31193  17.543   4.300   7.950
 5592POPC   C4A31194  17.470   4.355   7.650
 5592POPC   C1B31195  17.540   4.095   8.550
 5592POPC   C2B31196  17.493   4.031   8.250
 5592POPC   C3B31197  17.552   4.042   7.950
 5592POPC   C4B31198  17.552   4.058   7.650
 5593POPC   NC331199  14.425  23.740   9.450
 5593POPC   PO431200  14.358  23.744   9.150
 5593POPC   GL131201  14.443  23.762   8.850
 5593POPC   GL231202  14.307  23.774   8.850
 5593POPC   C1A31203  14.453  23.665   8.550
 5593POPC   D2A31204  14.413  23.689   8.250
 5593POPC   C3A31205  14.452  23.711   7.950
 5593POPC   C4A31206  14.360  23.740   7.650
 5593POPC   C1B31207  14.203  23.780   8.550
 5593POPC   C2B31208  14.114  23.805   8.250
 5593POPC   C3B31209  14.158  23.761   7.950
 5593POPC   C4B31210  14.182  23.758   7.650
 5594POPC   NC331211  42.337  32.219   9.450
 5594POPC   PO431212  42.358  32.222   9.150
 5594POPC   GL131213  42.334  32.273   8.850
 5594POPC   GL231214  42.244  32.168   8.850
 5594POPC   C1A31215  42.360  32.206   8.550
 5594POPC   D2A31216  42.300  32.240   8.250
 5594POPC   C3A31217  42.347  32.223   7.950
 5594POPC   C4A31218  42.315  32.288   7.650
 5594POPC   C1B31219  42.138  32.028   8.550
 5594POPC   C2B31220  42.235  32.033   8.250
 5594POPC   C3B31221  42.185  32.044   7.950
 5594POPC   C4B31222  42.197  32.005   7.650
 5595POPC   NC331223  34.598  13.596   9.450
 5595POPC   PO431224  34.538  13.642   9.150
 5595POPC   GL131225  34.613  13.654   8.850
 5595POPC   GL231226  34.450  13.634   8.850
 5595POPC   C1A31227  34.548  13.594   8.550
 5595POPC   D2A31228  34.562  13.602   8.250
 5595POPC   C3A31229  34.551  13.620   7.950
 5595POPC   C4A31230  34.540  13.609   7.650
 5595POPC   C1B31231  34.347  13.713   8.550
 5595POPC   C2B31232  34.320  13.772   8.250
 5595POPC   C3B31233  34.316  13.746   7.950
 5595POPC   C4B31234  34.373  13.697   7.650
 5596POPC   NC331235  36.923  40.774   9.450
 5596POPC   PO431236  36.869  40.811   9.150
 5596POPC   GL131237  36.872  40.800   8.850
 5596POPC   GL231238  36.817  40.733   8.850
 5596POPC   C1A31239  36.895  40.814   8.550
 5596POPC   D2A31240  36.875  40.756   8.250
 5596POPC   C3A31241  36.884  40.813   7.950
 5596POPC   C4A31242  36.891  40.763   7.650
 5596POPC   C1B31243  36.674  40.666   8.550
 5596POPC   C2B31244  36.667  40.706   8.250
 5596POPC   C3B31245  36.618  40.732   7.950
 5596POPC   C4B31246  36.708  40.732   7.650
 5597POPC   NC331247  19.795  10.550   9.450
 5597POPC   PO431248  19.882  10.550   9.150
 5597POPC   GL131249  19.852  10.494   8.850
 5597POPC   GL231250  19.755  10.531   8.850
 5597POPC   C1A31251  19.871  10.491   8.550
 5597POPC   D2A31252  19.862  10.544   8.250
 5597POPC   C3A31253  19.818  10.506   7.950
 5597POPC   C4A31254  19.822  10.523   7.650
 5597POPC   C1B31255  19.557  10.520   8.550
 5597POPC   C2B31256  19.589  10.577   8.250
 5597POPC   C3B31257  19.579  10.533   7.950
 5597POPC   C4B31258  19.603  10.542   7.650
 5598POPC   NC331259   5.112  44.648   9.450
 5598POPC   PO431260   5.139  44.685   9.150
 5598POPC   GL131261   5.048  44.657   8.850
 5598POPC   GL231262   5.066  44.724   8.850
 5598POPC   C1A31263   5.101  44.639   8.550
 5598POPC   D2A31264   5.063  44.630   8.250
 5598POPC   C3A31265   5.089  44.628   7.950
 5598POPC   C4A31266   5.054  44.620   7.650
 5598POPC   C1B31267   4.978  44.847   8.550
 5598POPC   C2B31268   4.931  44.861   8.250
 5598POPC   C3B31269   4.968  44.864   7.950
 5598POPC   C4B31270   4.940  44.834   7.650
 5599POPC   NC331271  39.987  23.719   9.450
 5599POPC   PO431272  40.048  23.750   9.150
 5599POPC   GL131273  39.986  23.746   8.850
 5599POPC   GL231274  39.927  23.802   8.850
 5599POPC   C1A31275  40.038  23.722   8.550
 5599POPC   D2A31276  40.010  23.714   8.250
 5599POPC   C3A31277  40.005  23.735   7.950
 5599POPC   C4A31278  40.009  23.759   7.650
 5599POPC   C1B31279  39.895  23.969   8.550
 5599POPC   C2B31280  39.915  23.901   8.250
 5599POPC   C3B31281  39.866  23.977   7.950
 5599POPC   C4B31282  39.869  23.940   7.650
 5600POPC   NC331283  34.559  34.562   9.450
 5600POPC   PO431284  34.604  34.549   9.150
 5600POPC   GL131285  34.536  34.622   8.850
 5600POPC   GL231286  34.677  34.520   8.850
 5600POPC   C1A31287  34.582  34.562   8.550
 5600POPC   D2A31288  34.569  34.555   8.250
 5600POPC   C3A31289  34.546  34.600   7.950
 5600POPC   C4A31290  34.580  34.544   7.650
 5600POPC   C1B31291  34.753  34.360   8.550
 5600POPC   C2B31292  34.740  34.356   8.250
 5600POPC   C3B31293  34.698  34.369   7.950
 5600POPC   C4B31294  34.739  34.364   7.650
 5601POPC   NC331295  13.657  29.955   9.450
 5601POPC   PO431296  13.612  29.950   9.150
 5601POPC   GL131297  13.659  29.927   8.850
 5601POPC   GL231298  13.509  29.780   8.850
 5601POPC   C1A31299  13.665  29.922   8.550
 5601POPC   D2A31300  13.626  29.957   8.250
 5601POPC   C3A31301  13.582  29.917   7.950
 5601POPC   C4A31302  13.637  29.894   7.650
 5601POPC   C1B31303  13.492  29.739   8.550
 5601POPC   C2B31304  13.507  29.711   8.250
 5601POPC   C3B31305  13.450  29.755   7.950
 5601POPC   C4B31306  13.435  29.744   7.650
 5602POPC   NC331307   6.616   0.407   9.450
 5602POPC   PO431308   6.648   0.432   9.150
 5602POPC   GL131309   6.652   0.453   8.850
 5602POPC   GL231310   6.627   0.517   8.850
 5602POPC   C1A31311   6.610   0.462   8.550
 5602POPC   D2A31312   6.622   0.398   8.250
 5602POPC   C3A31313   6.660   0.482   7.950
 5602POPC   C4A31314   6.644   0.483   7.650
 5602POPC   C1B31315   6.646   0.675   8.550
 5602POPC   C2B31316   6.633   0.639   8.250
 5602POPC   C3B31317   6.693   0.715   7.950
 5602POPC   C4B31318   6.690   0.673   7.650
 5603POPC   NC331319  33.763  24.452   9.450
 5603POPC   PO431320  33.775  24.495   9.150
 5603POPC   GL131321  33.838  24.446   8.850
 5603POPC   GL231322  33.879  24.533   8.850
 5603POPC   C1A31323  33.840  24.521   8.550
 5603POPC   D2A31324  33.842  24.479   8.250
 5603POPC   C3A31325  33.755  24.517   7.950
 5603POPC   C4A31326  33.758  24.467   7.650
 5603POPC   C1B31327  33.927  24.637   8.550
 5603POPC   C2B31328  34.001  24.699   8.250
 5603POPC   C3B31329  33.980  24.705   7.950
 5603POPC   C4B31330  33.984  24.684   7.650
 5604POPC   NC331331  41.608  32.211   9.450
 5604POPC   PO431332  41.578  32.272   9.150
 5604POPC   GL131333  41.581  32.230   8.850
 5604POPC   GL231334  41.580  32.153   8.850
 5604POPC   C1A31335  41.522  32.231   8.550
 5604POPC   D2A31336  41.526  32.256   8.250
 5604POPC   C3A31337  41.558  32.292   7.950
 5604POPC   C4A31338  41.598  32.229   7.650
 5604POPC   C1B31339  41.629  32.028   8.550
 5604POPC   C2B31340  41.609  31.985   8.250
 5604POPC   C3B31341  41.641  31.987   7.950
 5604POPC   C4B31342  41.592  31.986   7.650
 5605POPC   NC331343   5.122  28.357   9.450
 5605POPC   PO431344   5.090  28.357   9.150
 5605POPC   GL131345   5.105  28.409   8.850
 5605POPC   GL231346   5.028  28.491   8.850
 5605POPC   C1A31347   5.127  28.356   8.550
 5605POPC   D2A31348   5.125  28.385   8.250
 5605POPC   C3A31349   5.076  28.335   7.950
 5605POPC   C4A31350   5.108  28.368   7.650
 5605POPC   C1B31351   5.008  28.610   8.550
 5605POPC   C2B31352   5.076  28.571   8.250
 5605POPC   C3B31353   5.017  28.605   7.950
 5605POPC   C4B31354   5.003  28.621   7.650
 5606POPC   NC331355  16.003  25.288   9.450
 5606POPC   PO431356  15.955  25.311   9.150
 5606POPC   GL131357  15.956  25.243   8.850
 5606POPC   GL231358  15.858  25.367   8.850
 5606POPC   C1A31359  15.918  25.234   8.550
 5606POPC   D2A31360  15.939  25.275   8.250
 5606POPC   C3A31361  16.000  25.230   7.950
 5606POPC   C4A31362  15.915  25.311   7.650
 5606POPC   C1B31363  15.852  25.508   8.550
 5606POPC   C2B31364  15.809  25.502   8.250
 5606POPC   C3B31365  15.832  25.449   7.950
 5606POPC   C4B31366  15.890  25.468   7.650
 5607POPC   NC331367  43.872   4.288   9.450
 5607POPC   PO431368  43.890   4.289   9.150
 5607POPC   GL131369  43.851   4.286   8.850
 5607POPC   GL231370  43.894   4.213   8.850
 5607POPC   C1A31371  43.844   4.366   8.550
 5607POPC   D2A31372  43.915   4.353   8.250
 5607POPC   C3A31373  43.838   4.335   7.950
 5607POPC   C4A31374  43.868   4.327   7.650
 5607POPC   C1B31375  43.961   4.060   8.550
 5607POPC   C2B31376  43.954   4.073   8.250
 5607POPC   C3B31377  44.015   4.078   7.950
 5607POPC   C4B31378  44.021   4.065   7.650
 5608POPC   NC331379  11.290  22.120   9.450
 5608POPC   PO431380  11.330  22.141   9.150
 5608POPC   GL131381  11.305  22.155   8.850
 5608POPC   GL231382  11.410  22.253   8.850
 5608POPC   C1A31383  11.337  22.196   8.550
 5608POPC   D2A31384  11.312  22.148   8.250
 5608POPC   C3A31385  11.279  22.123   7.950
 5608POPC   C4A31386  11.315  22.173   7.650
 5608POPC   C1B31387  11.508  22.301   8.550
 5608POPC   C2B31388  11.454  22.354   8.250
 5608POPC   C3B31389  11.517  22.328   7.950
 5608POPC   C4B31390  11.481  22.347   7.650
 5609POPC   NC331391   0.407  26.062   9.450
 5609POPC   PO431392   0.394  26.027   9.150
 5609POPC   GL131393   0.390  26.009   8.850
 5609POPC   GL231394   0.566  26.012   8.850
 5609POPC   C1A31395   0.391  26.019   8.550
 5609POPC   D2A31396   0.470  26.066   8.250
 5609POPC   C3A31397   0.462  26.048   7.950
 5609POPC   C4A31398   0.455  26.045   7.650
 5609POPC   C1B31399   0.659  25.985   8.550
 5609POPC   C2B31400   0.703  25.922   8.250
 5609POPC   C3B31401   0.646  25.928   7.950
 5609POPC   C4B31402   0.715  25.968   7.650
 5610POPC   NC331403  32.995  32.986   9.450
 5610POPC   PO431404  33.063  33.066   9.150
 5610POPC   GL131405  33.035  33.062   8.850
 5610POPC   GL231406  32.909  33.055   8.850
 5610POPC   C1A31407  33.040  33.010   8.550
 5610POPC   D2A31408  33.036  33.045   8.250
 5610POPC   C3A31409  33.074  32.984   7.950
 5610POPC   C4A31410  33.015  33.024   7.650
 5610POPC   C1B31411  32.775  33.068   8.550
 5610POPC   C2B31412  32.740  33.061   8.250
 5610POPC   C3B31413  32.783  33.086   7.950
 5610POPC   C4B31414  32.838  33.096   7.650
 5611POPC   NC331415  21.369  15.214   9.450
 5611POPC   PO431416  21.386  15.189   9.150
 5611POPC   GL131417  21.384  15.227   8.850
 5611POPC   GL231418  21.410  15.253   8.850
 5611POPC   C1A31419  21.345  15.220   8.550
 5611POPC   D2A31420  21.374  15.218   8.250
 5611POPC   C3A31421  21.417  15.201   7.950
 5611POPC   C4A31422  21.392  15.171   7.650
 5611POPC   C1B31423  21.422  15.407   8.550
 5611POPC   C2B31424  21.498  15.369   8.250
 5611POPC   C3B31425  21.478  15.459   7.950
 5611POPC   C4B31426  21.508  15.439   7.650
 5612POPC   NC331427  27.567   6.611   9.450
 5612POPC   PO431428  27.634   6.656   9.150
 5612POPC   GL131429  27.616   6.672   8.850
 5612POPC   GL231430  27.456   6.663   8.850
 5612POPC   C1A31431  27.599   6.682   8.550
 5612POPC   D2A31432  27.550   6.642   8.250
 5612POPC   C3A31433  27.632   6.604   7.950
 5612POPC   C4A31434  27.606   6.625   7.650
 5612POPC   C1B31435  27.375   6.781   8.550
 5612POPC   C2B31436  27.361   6.749   8.250
 5612POPC   C3B31437  27.423   6.721   7.950
 5612POPC   C4B31438  27.405   6.763   7.650
 5613POPC   NC331439  22.953  37.654   9.450
 5613POPC   PO431440  22.936  37.664   9.150
 5613POPC   GL131441  22.939  37.656   8.850
 5613POPC   GL231442  23.054  37.755   8.850
 5613POPC   C1A31443  22.962  37.718   8.550
 5613POPC   D2A31444  22.968  37.714   8.250
 5613POPC   C3A31445  22.933  37.680   7.950
 5613POPC   C4A31446  22.959  37.713   7.650
 5613POPC   C1B31447  23.087  37.829   8.550
 5613POPC   C2B31448  23.142  37.849   8.250
 5613POPC   C3B31449  23.153  37.812   7.950
 5613POPC   C4B31450  23.081  37.845   7.650
 5614POPC   NC331451  44.675  26.029   9.450
 5614POPC   PO431452  44.630  26.071   9.150
 5614POPC   GL131453  44.662  26.073   8.850
 5614POPC   GL231454  44.795  25.967   8.850
 5614POPC   C1A31455  44.699  26.041   8.550
 5614POPC   D2A31456  44.693  26.050   8.250
 5614POPC   C3A31457  44.621  25.996   7.950
 5614POPC   C4A31458  44.650  26.012   7.650
 5614POPC   C1B31459  44.945  25.966   8.550
 5614POPC   C2B31460  44.863  25.949   8.250
 5614POPC   C3B31461  44.901  25.967   7.950
 5614POPC   C4B31462  44.933  25.990   7.650
 5615POPC   NC331463  23.746  29.177   9.450
 5615POPC   PO431464  23.671  29.116   9.150
 5615POPC   GL131465  23.705  29.155   8.850
 5615POPC   GL231466  23.692  29.311   8.850
 5615POPC   C1A31467  23.696  29.157   8.550
 5615POPC   D2A31468  23.722  29.104   8.250
 5615POPC   C3A31469  23.741  29.107   7.950
 5615POPC   C4A31470  23.680  29.183   7.650
 5615POPC   C1B31471  23.736  29.424   8.550
 5615POPC   C2B31472  23.660  29.353   8.250
 5615POPC   C3B31473  23.674  29.350   7.950
 5615POPC   C4B31474  23.700  29.430   7.650
 5616POPC   NC331475   5.075  25.996   9.450
 5616POPC   PO431476   5.095  26.076   9.150
 5616POPC   GL131477   5.079  26.026   8.850
 5616POPC   GL231478   5.111  25.884   8.850
 5616POPC   C1A31479   5.105  25.993   8.550
 5616POPC   D2A31480   5.046  26.002   8.250
 5616POPC   C3A31481   5.131  26.000   7.950
 5616POPC   C4A31482   5.079  26.072   7.650
 5616POPC   C1B31483   5.144  25.808   8.550
 5616POPC   C2B31484   5.119  25.818   8.250
 5616POPC   C3B31485   5.067  25.784   7.950
 5616POPC   C4B31486   5.106  25.814   7.650
 5617POPC   NC331487  16.767  39.973   9.450
 5617POPC   PO431488  16.767  39.990   9.150
 5617POPC   GL131489  16.781  40.012   8.850
 5617POPC   GL231490  16.647  40.105   8.850
 5617POPC   C1A31491  16.690  40.047   8.550
 5617POPC   D2A31492  16.746  39.987   8.250
 5617POPC   C3A31493  16.779  40.014   7.950
 5617POPC   C4A31494  16.685  39.990   7.650
 5617POPC   C1B31495  16.585  40.211   8.550
 5617POPC   C2B31496  16.579  40.240   8.250
 5617POPC   C3B31497  16.602  40.188   7.950
 5617POPC   C4B31498  16.647  40.199   7.650
 5618POPC   NC331499  17.503  14.389   9.450
 5618POPC   PO431500  17.554  14.399   9.150
 5618POPC   GL131501  17.513  14.378   8.850
 5618POPC   GL231502  17.597  14.414   8.850
 5618POPC   C1A31503  17.508  14.382   8.550
 5618POPC   D2A31504  17.484  14.422   8.250
 5618POPC   C3A31505  17.555  14.429   7.950
 5618POPC   C4A31506  17.457  14.400   7.650
 5618POPC   C1B31507  17.724  14.304   8.550
 5618POPC   C2B31508  17.709  14.286   8.250
 5618POPC   C3B31509  17.784  14.304   7.950
 5618POPC   C4B31510  17.770  14.321   7.650
 5619POPC   NC331511  15.227   2.013   9.450
 5619POPC   PO431512  15.184   1.947   9.150
 5619POPC   GL131513  15.161   2.001   8.850
 5619POPC   GL231514  15.270   1.920   8.850
 5619POPC   C1A31515  15.139   1.963   8.550
 5619POPC   D2A31516  15.229   1.995   8.250
 5619POPC   C3A31517  15.215   1.957   7.950
 5619POPC   C4A31518  15.163   2.032   7.650
 5619POPC   C1B31519  15.383   1.868   8.550
 5619POPC   C2B31520  15.376   1.897   8.250
 5619POPC   C3B31521  15.453   1.894   7.950
 5619POPC   C4B31522  15.413   1.962   7.650
 5620POPC   NC331523  38.484   2.783   9.450
 5620POPC   PO431524  38.451   2.783   9.150
 5620POPC   GL131525  38.419   2.784   8.850
 5620POPC   GL231526  38.494   2.628   8.850
 5620POPC   C1A31527  38.487   2.748   8.550
 5620POPC   D2A31528  38.472   2.729   8.250
 5620POPC   C3A31529  38.482   2.795   7.950
 5620POPC   C4A31530  38.468   2.744   7.650
 5620POPC   C1B31531  38.487   2.471   8.550
 5620POPC   C2B31532  38.449   2.521   8.250
 5620POPC   C3B31533  38.458   2.563   7.950
 5620POPC   C4B31534  38.425   2.530   7.650
 5621POPC   NC331535   5.084   1.224   9.450
 5621POPC   PO431536   5.105   1.224   9.150
 5621POPC   GL131537   5.125   1.211   8.850
 5621POPC   GL231538   5.067   1.074   8.850
 5621POPC   C1A31539   5.044   1.232   8.550
 5621POPC   D2A31540   5.116   1.214   8.250
 5621POPC   C3A31541   5.059   1.169   7.950
 5621POPC   C4A31542   5.086   1.193   7.650
 5621POPC   C1B31543   5.061   0.948   8.550
 5621POPC   C2B31544   5.101   0.951   8.250
 5621POPC   C3B31545   5.104   0.962   7.950
 5621POPC   C4B31546   5.122   0.989   7.650
 5622POPC   NC331547  11.330  20.613   9.450
 5622POPC   PO431548  11.318  20.640   9.150
 5622POPC   GL131549  11.301  20.633   8.850
 5622POPC   GL231550  11.462  20.605   8.850
 5622POPC   C1A31551  11.307  20.615   8.550
 5622POPC   D2A31552  11.278  20.583   8.250
 5622POPC   C3A31553  11.269  20.616   7.950
 5622POPC   C4A31554  11.276  20.568   7.650
 5622POPC   C1B31555  11.586  20.566   8.550
 5622POPC   C2B31556  11.512  20.600   8.250
 5622POPC   C3B31557  11.581  20.588   7.950
 5622POPC   C4B31558  11.503  20.582   7.650
 5623POPC   NC331559  20.626   6.691   9.450
 5623POPC   PO431560  20.636   6.602   9.150
 5623POPC   GL131561  20.621   6.629   8.850
 5623POPC   GL231562  20.517   6.686   8.850
 5623POPC   C1A31563  20.644   6.598   8.550
 5623POPC   D2A31564  20.562   6.611   8.250
 5623POPC   C3A31565  20.644   6.596   7.950
 5623POPC   C4A31566  20.624   6.675   7.650
 5623POPC   C1B31567  20.417   6.776   8.550
 5623POPC   C2B31568  20.412   6.749   8.250
 5623POPC   C3B31569  20.416   6.711   7.950
 5623POPC   C4B31570  20.386   6.739   7.650
 5624POPC   NC331571  12.858  15.984   9.450
 5624POPC   PO431572  12.890  15.997   9.150
 5624POPC   GL131573  12.870  15.923   8.850
 5624POPC   GL231574  12.968  16.043   8.850
 5624POPC   C1A31575  12.895  15.941   8.550
 5624POPC   D2A31576  12.840  15.922   8.250
 5624POPC   C3A31577  12.899  15.914   7.950
 5624POPC   C4A31578  12.808  15.961   7.650
 5624POPC   C1B31579  13.040  16.189   8.550
 5624POPC   C2B31580  13.010  16.114   8.250
 5624POPC   C3B31581  13.063  16.098   7.950
 5624POPC   C4B31582  13.037  16.152   7.650
 5625POPC   NC331583  43.927  38.427   9.450
 5625POPC   PO431584  43.870  38.424   9.150
 5625POPC   GL131585  43.845  38.450   8.850
 5625POPC   GL231586  44.039  38.522   8.850
 5625POPC   C1A31587  43.908  38.435   8.550
 5625POPC   D2A31588  43.838  38.497   8.250
 5625POPC   C3A31589  43.890  38.424   7.950
 5625POPC   C4A31590  43.910  38.471   7.650
 5625POPC   C1B31591  44.181  38.469   8.550
 5625POPC   C2B31592  44.167  38.475   8.250
 5625POPC   C3B31593  44.107  38.510   7.950
 5625POPC   C4B31594  44.149  38.528   7.650
 5626POPC   NC331595  33.781   1.183   9.450
 5626POPC   PO431596  33.773   1.240   9.150
 5626POPC   GL131597  33.847   1.228   8.850
 5626POPC   GL231598  33.649   1.259   8.850
 5626POPC   C1A31599  33.790   1.222   8.550
 5626POPC   D2A31600  33.813   1.233   8.250
 5626POPC   C3A31601  33.753   1.176   7.950
 5626POPC   C4A31602  33.835   1.215   7.650
 5626POPC   C1B31603  33.616   1.334   8.550
 5626POPC   C2B31604  33.601   1.353   8.250
 5626POPC   C3B31605  33.555   1.374   7.950
 5626POPC   C4B31606  33.550   1.374   7.650
 5627POPC   NC331607  43.159  28.322   9.450
 5627POPC   PO431608  43.103  28.398   9.150
 5627POPC   GL131609  43.134  28.388   8.850
 5627POPC   GL231610  43.186  28.409   8.850
 5627POPC   C1A31611  43.138  28.390   8.550
 5627POPC   D2A31612  43.099  28.337   8.250
 5627POPC   C3A31613  43.129  28.409   7.950
 5627POPC   C4A31614  43.136  28.358   7.650
 5627POPC   C1B31615  43.313  28.382   8.550
 5627POPC   C2B31616  43.368  28.444   8.250
 5627POPC   C3B31617  43.320  28.372   7.950
 5627POPC   C4B31618  43.327  28.382   7.650
 5628POPC   NC331619  22.916  28.386   9.450
 5628POPC   PO431620  22.899  28.352   9.150
 5628POPC   GL131621  22.915  28.393   8.850
 5628POPC   GL231622  22.830  28.443   8.850
 5628POPC   C1A31623  22.965  28.323   8.550
 5628POPC   D2A31624  22.901  28.413   8.250
 5628POPC   C3A31625  22.938  28.418   7.950
 5628POPC   C4A31626  22.915  28.357   7.650
 5628POPC   C1B31627  22.696  28.459   8.550
 5628POPC   C2B31628  22.655  28.448   8.250
 5628POPC   C3B31629  22.713  28.416   7.950
 5628POPC   C4B31630  22.710  28.394   7.650
 5629POPC   NC331631  43.088  43.101   9.450
 5629POPC   PO431632  43.109  43.155   9.150
 5629POPC   GL131633  43.113  43.129   8.850
 5629POPC   GL231634  42.979  43.210   8.850
 5629POPC   C1A31635  43.093  43.061   8.550
 5629POPC   D2A31636  43.070  43.123   8.250
 5629POPC   C3A31637  43.061  43.156   7.950
 5629POPC   C4A31638  43.126  43.078   7.650
 5629POPC   C1B31639  42.847  43.233   8.550
 5629POPC   C2B31640  42.937  43.232   8.250
 5629POPC   C3B31641  42.850  43.275   7.950
 5629POPC   C4B31642  42.875  43.215   7.650
 5630POPC   NC331643  40.769  29.139   9.450
 5630POPC   PO431644  40.743  29.100   9.150
 5630POPC   GL131645  40.760  29.116   8.850
 5630POPC   GL231646  40.746  29.285   8.850
 5630POPC   C1A31647  40.789  29.169   8.550
 5630POPC   D2A31648  40.823  29.160   8.250
 5630POPC   C3A31649  40.793  29.099   7.950
 5630POPC   C4A31650  40.790  29.135   7.650
 5630POPC   C1B31651  40.816  29.375   8.550
 5630POPC   C2B31652  40.814  29.391   8.250
 5630POPC   C3B31653  40.805  29.442   7.950
 5630POPC   C4B31654  40.817  29.430   7.650
 5631POPC   NC331655  15.996  43.920   9.450
 5631POPC   PO431656  15.945  43.924   9.150
 5631POPC   GL131657  15.935  43.930   8.850
 5631POPC   GL231658  16.045  43.930   8.850
 5631POPC   C1A31659  15.926  43.870   8.550
 5631POPC   D2A31660  15.909  43.936   8.250
 5631POPC   C3A31661  15.920  43.886   7.950
 5631POPC   C4A31662  15.923  43.870   7.650
 5631POPC   C1B31663  16.171  44.079   8.550
 5631POPC   C2B31664  16.165  44.058   8.250
 5631POPC   C3B31665  16.203  44.051   7.950
 5631POPC   C4B31666  16.139  44.010   7.650
 5632POPC   NC331667  34.608   2.747   9.450
 5632POPC   PO431668  34.588   2.795   9.150
 5632POPC   GL131669  34.532   2.731   8.850
 5632POPC   GL231670  34.448   2.689   8.850
 5632POPC   C1A31671  34.575   2.717   8.550
 5632POPC   D2A31672  34.611   2.790   8.250
 5632POPC   C3A31673  34.573   2.800   7.950
 5632POPC   C4A31674  34.617   2.781   7.650
 5632POPC   C1B31675  34.361   2.634   8.550
 5632POPC   C2B31676  34.309   2.664   8.250
 5632POPC   C3B31677  34.350   2.688   7.950
 5632POPC   C4B31678  34.323   2.650   7.650
 5633POPC   NC331679   6.648   5.083   9.450
 5633POPC   PO431680   6.614   5.087   9.150
 5633POPC   GL131681   6.619   5.114   8.850
 5633POPC   GL231682   6.721   5.017   8.850
 5633POPC   C1A31683   6.633   5.120   8.550
 5633POPC   D2A31684   6.660   5.074   8.250
 5633POPC   C3A31685   6.640   5.112   7.950
 5633POPC   C4A31686   6.650   5.045   7.650
 5633POPC   C1B31687   6.833   5.007   8.550
 5633POPC   C2B31688   6.828   4.961   8.250
 5633POPC   C3B31689   6.837   4.952   7.950
 5633POPC   C4B31690   6.870   4.971   7.650
 5634POPC   NC331691  23.725  40.741   9.450
 5634POPC   PO431692  23.704  40.749   9.150
 5634POPC   GL131693  23.697  40.771   8.850
 5634POPC   GL231694  23.817  40.729   8.850
 5634POPC   C1A31695  23.680  40.810   8.550
 5634POPC   D2A31696  23.709  40.799   8.250
 5634POPC   C3A31697  23.700  40.744   7.950
 5634POPC   C4A31698  23.667  40.770   7.650
 5634POPC   C1B31699  23.970  40.777   8.550
 5634POPC   C2B31700  23.946  40.721   8.250
 5634POPC   C3B31701  23.970  40.721   7.950
 5634POPC   C4B31702  23.948  40.754   7.650
 5635POPC   NC331703   5.072   4.359   9.450
 5635POPC   PO431704   5.054   4.311   9.150
 5635POPC   GL131705   5.070   4.304   8.850
 5635POPC   GL231706   4.969   4.350   8.850
 5635POPC   C1A31707   5.084   4.303   8.550
 5635POPC   D2A31708   5.106   4.285   8.250
 5635POPC   C3A31709   5.072   4.362   7.950
 5635POPC   C4A31710   5.050   4.328   7.650
 5635POPC   C1B31711   4.829   4.328   8.550
 5635POPC   C2B31712   4.858   4.326   8.250
 5635POPC   C3B31713   4.871   4.349   7.950
 5635POPC   C4B31714   4.858   4.292   7.650
 5636POPC   NC331715  19.839  38.469   9.450
 5636POPC   PO431716  19.787  38.467   9.150
 5636POPC   GL131717  19.830  38.496   8.850
 5636POPC   GL231718  19.837  38.341   8.850
 5636POPC   C1A31719  19.847  38.495   8.550
 5636POPC   D2A31720  19.857  38.497   8.250
 5636POPC   C3A31721  19.884  38.485   7.950
 5636POPC   C4A31722  19.814  38.431   7.650
 5636POPC   C1B31723  19.787  38.267   8.550
 5636POPC   C2B31724  19.757  38.229   8.250
 5636POPC   C3B31725  19.731  38.236   7.950
 5636POPC   C4B31726  19.774  38.178   7.650
 5637POPC   NC331727  43.870  33.795   9.450
 5637POPC   PO431728  43.866  33.798   9.150
 5637POPC   GL131729  43.921  33.778   8.850
 5637POPC   GL231730  44.037  33.698   8.850
 5637POPC   C1A31731  43.903  33.805   8.550
 5637POPC   D2A31732  43.893  33.803   8.250
 5637POPC   C3A31733  43.928  33.815   7.950
 5637POPC   C4A31734  43.914  33.819   7.650
 5637POPC   C1B31735  44.071  33.627   8.550
 5637POPC   C2B31736  44.107  33.679   8.250
 5637POPC   C3B31737  44.110  33.657   7.950
 5637POPC   C4B31738  44.052  33.648   7.650
 5638POPC   NC331739   1.255  44.666   9.450
 5638POPC   PO431740   1.180  44.632   9.150
 5638POPC   GL131741   1.207  44.649   8.850
 5638POPC   GL231742   1.054  44.681   8.850
 5638POPC   C1A31743   1.231  44.630   8.550
 5638POPC   D2A31744   1.172  44.615   8.250
 5638POPC   C3A31745   1.237  44.694   7.950
 5638POPC   C4A31746   1.172  44.616   7.650
 5638POPC   C1B31747   0.965  44.672   8.550
 5638POPC   C2B31748   0.975  44.671   8.250
 5638POPC   C3B31749   0.962  44.711   7.950
 5638POPC   C4B31750   0.991  44.731   7.650
 5639POPC   NC331751  17.458  36.177   9.450
 5639POPC   PO431752  17.540  36.124   9.150
 5639POPC   GL131753  17.471  36.160   8.850
 5639POPC   GL231754  17.455  35.994   8.850
 5639POPC   C1A31755  17.465  36.157   8.550
 5639POPC   D2A31756  17.538  36.117   8.250
 5639POPC   C3A31757  17.545  36.079   7.950
 5639POPC   C4A31758  17.464  36.113   7.650
 5639POPC   C1B31759  17.442  35.896   8.550
 5639POPC   C2B31760  17.471  35.872   8.250
 5639POPC   C3B31761  17.490  35.929   7.950
 5639POPC   C4B31762  17.479  35.903   7.650
 5640POPC   NC331763  27.581   2.786   9.450
 5640POPC   PO431764  27.570   2.736   9.150
 5640POPC   GL131765  27.627   2.737   8.850
 5640POPC   GL231766  27.516   2.613   8.850
 5640POPC   C1A31767  27.607   2.759   8.550
 5640POPC   D2A31768  27.559   2.744   8.250
 5640POPC   C3A31769  27.583   2.765   7.950
 5640POPC   C4A31770  27.593   2.733   7.650
 5640POPC   C1B31771  27.567   2.573   8.550
 5640POPC   C2B31772  27.494   2.488   8.250
 5640POPC   C3B31773  27.547   2.525   7.950
 5640POPC   C4B31774  27.528   2.536   7.650
 5641POPC   NC331775  41.536  26.830   9.450
 5641POPC   PO431776  41.526  26.845   9.150
 5641POPC   GL131777  41.597  26.840   8.850
 5641POPC   GL231778  41.488  26.692   8.850
 5641POPC   C1A31779  41.572  26.848   8.550
 5641POPC   D2A31780  41.587  26.818   8.250
 5641POPC   C3A31781  41.567  26.791   7.950
 5641POPC   C4A31782  41.560  26.845   7.650
 5641POPC   C1B31783  41.412  26.663   8.550
 5641POPC   C2B31784  41.349  26.624   8.250
 5641POPC   C3B31785  41.338  26.660   7.950
 5641POPC   C4B31786  41.420  26.652   7.650
 5642POPC   NC331787  13.623  22.898   9.450
 5642POPC   PO431788  13.590  22.936   9.150
 5642POPC   GL131789  13.608  22.889   8.850
 5642POPC   GL231790  13.633  22.839   8.850
 5642POPC   C1A31791  13.657  22.890   8.550
 5642POPC   D2A31792  13.595  22.908   8.250
 5642POPC   C3A31793  13.668  22.911   7.950
 5642POPC   C4A31794  13.668  22.952   7.650
 5642POPC   C1B31795  13.574  22.668   8.550
 5642POPC   C2B31796  13.611  22.699   8.250
 5642POPC   C3B31797  13.588  22.670   7.950
 5642POPC   C4B31798  13.574  22.717   7.650
 5643POPC   NC331799  21.369  23.705   9.450
 5643POPC   PO431800  21.337  23.665   9.150
 5643POPC   GL131801  21.353  23.749   8.850
 5643POPC   GL231802  21.452  23.599   8.850
 5643POPC   C1A31803  21.389  23.760   8.550
 5643POPC   D2A31804  21.352  23.742   8.250
 5643POPC   C3A31805  21.337  23.764   7.950
 5643POPC   C4A31806  21.352  23.726   7.650
 5643POPC   C1B31807  21.511  23.473   8.550
 5643POPC   C2B31808  21.429  23.521   8.250
 5643POPC   C3B31809  21.504  23.500   7.950
 5643POPC   C4B31810  21.490  23.453   7.650
 5644POPC   NC331811   5.049  11.275   9.450
 5644POPC   PO431812   5.103  11.295   9.150
 5644POPC   GL131813   5.121  11.256   8.850
 5644POPC   GL231814   5.112  11.465   8.850
 5644POPC   C1A31815   5.091  11.304   8.550
 5644POPC   D2A31816   5.131  11.337   8.250
 5644POPC   C3A31817   5.100  11.274   7.950
 5644POPC   C4A31818   5.135  11.342   7.650
 5644POPC   C1B31819   5.089  11.547   8.550
 5644POPC   C2B31820   5.160  11.521   8.250
 5644POPC   C3B31821   5.087  11.520   7.950
 5644POPC   C4B31822   5.156  11.507   7.650
 5645POPC   NC331823  18.290  11.266   9.450
 5645POPC   PO431824  18.266  11.292   9.150
 5645POPC   GL131825  18.252  11.343   8.850
 5645POPC   GL231826  18.157  11.274   8.850
 5645POPC   C1A31827  18.239  11.326   8.550
 5645POPC   D2A31828  18.240  11.328   8.250
 5645POPC   C3A31829  18.284  11.339   7.950
 5645POPC   C4A31830  18.286  11.323   7.650
 5645POPC   C1B31831  18.066  11.239   8.550
 5645POPC   C2B31832  18.026  11.247   8.250
 5645POPC   C3B31833  18.034  11.207   7.950
 5645POPC   C4B31834  18.048  11.202   7.650
 5646POPC   NC331835  39.243  16.696   9.450
 5646POPC   PO431836  39.216  16.705   9.150
 5646POPC   GL131837  39.210  16.749   8.850
 5646POPC   GL231838  39.243  16.665   8.850
 5646POPC   C1A31839  39.243  16.751   8.550
 5646POPC   D2A31840  39.209  16.767   8.250
 5646POPC   C3A31841  39.238  16.737   7.950
 5646POPC   C4A31842  39.260  16.771   7.650
 5646POPC   C1B31843  39.288  16.489   8.550
 5646POPC   C2B31844  39.318  16.524   8.250
 5646POPC   C3B31845  39.301  16.521   7.950
 5646POPC   C4B31846  39.284  16.518   7.650
 5647POPC   NC331847  37.661  40.778   9.450
 5647POPC   PO431848  37.681  40.810   9.150
 5647POPC   GL131849  37.643  40.797   8.850
 5647POPC   GL231850  37.766  40.786   8.850
 5647POPC   C1A31851  37.644  40.752   8.550
 5647POPC   D2A31852  37.650  40.789   8.250
 5647POPC   C3A31853  37.694  40.820   7.950
 5647POPC   C4A31854  37.634  40.736   7.650
 5647POPC   C1B31855  37.882  40.717   8.550
 5647POPC   C2B31856  37.881  40.744   8.250
 5647POPC   C3B31857  37.957  40.750   7.950
 5647POPC   C4B31858  37.884  40.728   7.650
 5648POPC   NC331859  12.123   2.773   9.450
 5648POPC   PO431860  12.104   2.741   9.150
 5648POPC   GL131861  12.113   2.762   8.850
 5648POPC   GL231862  11.960   2.804   8.850
 5648POPC   C1A31863  12.066   2.721   8.550
 5648POPC   D2A31864  12.081   2.803   8.250
 5648POPC   C3A31865  12.120   2.768   7.950
 5648POPC   C4A31866  12.080   2.748   7.650
 5648POPC   C1B31867  11.911   2.924   8.550
 5648POPC   C2B31868  11.842   2.962   8.250
 5648POPC   C3B31869  11.874   2.906   7.950
 5648POPC   C4B31870  11.924   2.949   7.650
 5649POPC   NC331871   6.646  17.547   9.450
 5649POPC   PO431872   6.680  17.486   9.150
 5649POPC   GL131873   6.598  17.495   8.850
 5649POPC   GL231874   6.733  17.388   8.850
 5649POPC   C1A31875   6.631  17.522   8.550
 5649POPC   D2A31876   6.649  17.511   8.250
 5649POPC   C3A31877   6.604  17.462   7.950
 5649POPC   C4A31878   6.617  17.539   7.650
 5649POPC   C1B31879   6.880  17.322   8.550
 5649POPC   C2B31880   6.856  17.356   8.250
 5649POPC   C3B31881   6.865  17.358   7.950
 5649POPC   C4B31882   6.865  17.323   7.650
 5650POPC   NC331883   5.849   8.223   9.450
 5650POPC   PO431884   5.823   8.193   9.150
 5650POPC   GL131885   5.856   8.200   8.850
 5650POPC   GL231886   5.945   8.325   8.850
 5650POPC   C1A31887   5.889   8.222   8.550
 5650POPC   D2A31888   5.845   8.173   8.250
 5650POPC   C3A31889   5.895   8.188   7.950
 5650POPC   C4A31890   5.917   8.198   7.650
 5650POPC   C1B31891   6.052   8.359   8.550
 5650POPC   C2B31892   6.083   8.375   8.250
 5650POPC   C3B31893   6.073   8.424   7.950
 5650POPC   C4B31894   6.018   8.361   7.650
 5651POPC   NC331895  37.708  38.494   9.450
 5651POPC   PO431896  37.718  38.446   9.150
 5651POPC   GL131897  37.682  38.426   8.850
 5651POPC   GL231898  37.528  38.427   8.850
 5651POPC   C1A31899  37.687  38.448   8.550
 5651POPC   D2A31900  37.666  38.444   8.250
 5651POPC   C3A31901  37.636  38.446   7.950
 5651POPC   C4A31902  37.669  38.416   7.650
 5651POPC   C1B31903  37.461  38.444   8.550
 5651POPC   C2B31904  37.390  38.439   8.250
 5651POPC   C3B31905  37.476  38.369   7.950
 5651POPC   C4B31906  37.428  38.352   7.650
 5652POPC   NC331907  43.839   8.931   9.450
 5652POPC   PO431908  43.894   8.995   9.150
 5652POPC   GL131909  43.860   8.978   8.850
 5652POPC   GL231910  43.864   8.904   8.850
 5652POPC   C1A31911  43.905   8.967   8.550
 5652POPC   D2A31912  43.920   8.982   8.250
 5652POPC   C3A31913  43.913   8.960   7.950
 5652POPC   C4A31914  43.845   8.935   7.650
 5652POPC   C1B31915  43.770   8.773   8.550
 5652POPC   C2B31916  43.753   8.785   8.250
 5652POPC   C3B31917  43.757   8.776   7.950
 5652POPC   C4B31918  43.790   8.754   7.650
 5653POPC   NC331919  40.794   5.918   9.450
 5653POPC   PO431920  40.819   5.844   9.150
 5653POPC   GL131921  40.812   5.829   8.850
 5653POPC   GL231922  40.698   5.925   8.850
 5653POPC   C1A31923  40.775   5.897   8.550
 5653POPC   D2A31924  40.784   5.878   8.250
 5653POPC   C3A31925  40.781   5.835   7.950
 5653POPC   C4A31926  40.788   5.855   7.650
 5653POPC   C1B31927  40.509   5.981   8.550
 5653POPC   C2B31928  40.533   5.959   8.250
 5653POPC   C3B31929  40.541   5.927   7.950
 5653POPC   C4B31930  40.507   5.944   7.650
 5654POPC   NC331931   9.000  13.588   9.450
 5654POPC   PO431932   8.980  13.626   9.150
 5654POPC   GL131933   8.967  13.581   8.850
 5654POPC   GL231934   9.099  13.670   8.850
 5654POPC   C1A31935   8.990  13.648   8.550
 5654POPC   D2A31936   8.966  13.654   8.250
 5654POPC   C3A31937   8.991  13.618   7.950
 5654POPC   C4A31938   8.942  13.630   7.650
 5654POPC   C1B31939   9.180  13.720   8.550
 5654POPC   C2B31940   9.252  13.747   8.250
 5654POPC   C3B31941   9.243  13.738   7.950
 5654POPC   C4B31942   9.251  13.700   7.650
 5655POPC   NC331943  31.499   3.528   9.450
 5655POPC   PO431944  31.425   3.585   9.150
 5655POPC   GL131945  31.435   3.570   8.850
 5655POPC   GL231946  31.576   3.616   8.850
 5655POPC   C1A31947  31.427   3.518   8.550
 5655POPC   D2A31948  31.521   3.502   8.250
 5655POPC   C3A31949  31.498   3.549   7.950
 5655POPC   C4A31950  31.439   3.581   7.650
 5655POPC   C1B31951  31.666   3.732   8.550
 5655POPC   C2B31952  31.659   3.774   8.250
 5655POPC   C3B31953  31.600   3.734   7.950
 5655POPC   C4B31954  31.608   3.742   7.650
 5656POPC   NC331955  44.680  26.832   9.450
 5656POPC   PO431956  44.656  26.850   9.150
 5656POPC   GL131957  44.690  26.807   8.850
 5656POPC   GL231958  44.588  26.771   8.850
 5656POPC   C1A31959  44.618  26.790   8.550
 5656POPC   D2A31960  44.647  26.789   8.250
 5656POPC   C3A31961  44.691  26.822   7.950
 5656POPC   C4A31962  44.632  26.819   7.650
 5656POPC   C1B31963  44.493  26.706   8.550
 5656POPC   C2B31964  44.477  26.620   8.250
 5656POPC   C3B31965  44.476  26.642   7.950
 5656POPC   C4B31966  44.447  26.657   7.650
 5657POPC   NC331967  32.249  12.118   9.450
 5657POPC   PO431968  32.237  12.099   9.150
 5657POPC   GL131969  32.280  12.108   8.850
 5657POPC   GL231970  32.322  12.100   8.850
 5657POPC   C1A31971  32.229  12.052   8.550
 5657POPC   D2A31972  32.266  12.045   8.250
 5657POPC   C3A31973  32.212  12.113   7.950
 5657POPC   C4A31974  32.220  12.082   7.650
 5657POPC   C1B31975  32.534  12.170   8.550
 5657POPC   C2B31976  32.530  12.097   8.250
 5657POPC   C3B31977  32.522  12.134   7.950
 5657POPC   C4B31978  32.480  12.101   7.650
 5658POPC   NC331979   9.740  43.882   9.450
 5658POPC   PO431980   9.771  43.923   9.150
 5658POPC   GL131981   9.742  43.884   8.850
 5658POPC   GL231982   9.848  43.872   8.850
 5658POPC   C1A31983   9.768  43.869   8.550
 5658POPC   D2A31984   9.749  43.889   8.250
 5658POPC   C3A31985   9.726  43.848   7.950
 5658POPC   C4A31986   9.772  43.839   7.650
 5658POPC   C1B31987   9.951  43.858   8.550
 5658POPC   C2B31988  10.034  43.843   8.250
 5658POPC   C3B31989  10.010  43.890   7.950
 5658POPC   C4B31990  10.026  43.802   7.650
 5659POPC   NC331991  42.335  20.606   9.450
 5659POPC   PO431992  42.310  20.612   9.150
 5659POPC   GL131993  42.330  20.611   8.850
 5659POPC   GL231994  42.249  20.683   8.850
 5659POPC   C1A31995  42.313  20.572   8.550
 5659POPC   D2A31996  42.345  20.634   8.250
 5659POPC   C3A31997  42.353  20.561   7.950
 5659POPC   C4A31998  42.289  20.590   7.650
 5659POPC   C1B31999  42.177  20.757   8.550
 5659POPC   C2B32000  42.086  20.755   8.250
 5659POPC   C3B32001  42.173  20.712   7.950
 5659POPC   C4B32002  42.109  20.734   7.650
 5660POPC   NC332003  43.155  15.909   9.450
 5660POPC   PO432004  43.108  15.997   9.150
 5660POPC   GL132005  43.117  15.951   8.850
 5660POPC   GL232006  43.196  15.936   8.850
 5660POPC   C1A32007  43.116  16.002   8.550
 5660POPC   D2A32008  43.140  15.973   8.250
 5660POPC   C3A32009  43.135  15.940   7.950
 5660POPC   C4A32010  43.119  15.971   7.650
 5660POPC   C1B32011  43.291  15.823   8.550
 5660POPC   C2B32012  43.333  15.879   8.250
 5660POPC   C3B32013  43.330  15.876   7.950
 5660POPC   C4B32014  43.303  15.877   7.650
 5661POPC   NC332015  25.255  41.536   9.450
 5661POPC   PO432016  25.265  41.520   9.150
 5661POPC   GL132017  25.262  41.584   8.850
 5661POPC   GL232018  25.346  41.471   8.850
 5661POPC   C1A32019  25.233  41.571   8.550
 5661POPC   D2A32020  25.256  41.555   8.250
 5661POPC   C3A32021  25.290  41.606   7.950
 5661POPC   C4A32022  25.315  41.600   7.650
 5661POPC   C1B32023  25.330  41.293   8.550
 5661POPC   C2B32024  25.301  41.321   8.250
 5661POPC   C3B32025  25.316  41.279   7.950
 5661POPC   C4B32026  25.360  41.330   7.650
 5662POPC   NC332027  15.187   5.879   9.450
 5662POPC   PO432028  15.142   5.891   9.150
 5662POPC   GL132029  15.156   5.882   8.850
 5662POPC   GL232030  15.113   5.763   8.850
 5662POPC   C1A32031  15.141   5.829   8.550
 5662POPC   D2A32032  15.201   5.873   8.250
 5662POPC   C3A32033  15.146   5.860   7.950
 5662POPC   C4A32034  15.208   5.826   7.650
 5662POPC   C1B32035  15.072   5.616   8.550
 5662POPC   C2B32036  15.086   5.593   8.250
 5662POPC   C3B32037  15.086   5.612   7.950
 5662POPC   C4B32038  15.120   5.654   7.650
 5663POPC   NC332039  37.637  35.353   9.450
 5663POPC   PO432040  37.728  35.324   9.150
 5663POPC   GL132041  37.666  35.364   8.850
 5663POPC   GL232042  37.549  35.262   8.850
 5663POPC   C1A32043  37.654  35.373   8.550
 5663POPC   D2A32044  37.655  35.390   8.250
 5663POPC   C3A32045  37.641  35.374   7.950
 5663POPC   C4A32046  37.660  35.313   7.650
 5663POPC   C1B32047  37.461  35.216   8.550
 5663POPC   C2B32048  37.480  35.257   8.250
 5663POPC   C3B32049  37.475  35.279   7.950
 5663POPC   C4B32050  37.412  35.240   7.650
 5664POPC   NC332051  15.949  16.773   9.450
 5664POPC   PO432052  15.994  16.727   9.150
 5664POPC   GL132053  15.917  16.742   8.850
 5664POPC   GL232054  15.862  16.644   8.850
 5664POPC   C1A32055  15.940  16.780   8.550
 5664POPC   D2A32056  15.994  16.763   8.250
 5664POPC   C3A32057  15.956  16.709   7.950
 5664POPC   C4A32058  15.973  16.775   7.650
 5664POPC   C1B32059  15.703  16.632   8.550
 5664POPC   C2B32060  15.723  16.617   8.250
 5664POPC   C3B32061  15.707  16.644   7.950
 5664POPC   C4B32062  15.727  16.615   7.650
 5665POPC   NC332063   1.991  15.206   9.450
 5665POPC   PO432064   1.969  15.177   9.150
 5665POPC   GL132065   1.979  15.199   8.850
 5665POPC   GL232066   1.994  15.021   8.850
 5665POPC   C1A32067   1.993  15.140   8.550
 5665POPC   D2A32068   1.956  15.192   8.250
 5665POPC   C3A32069   1.947  15.200   7.950
 5665POPC   C4A32070   2.036  15.218   7.650
 5665POPC   C1B32071   2.052  14.980   8.550
 5665POPC   C2B32072   2.113  14.916   8.250
 5665POPC   C3B32073   2.099  14.988   7.950
 5665POPC   C4B32074   2.118  14.955   7.650
 5666POPC   NC332075  40.820   0.447   9.450
 5666POPC   PO432076  40.790   0.419   9.150
 5666POPC   GL132077  40.808   0.479   8.850
 5666POPC   GL232078  40.878   0.448   8.850
 5666POPC   C1A32079  40.758   0.417   8.550
 5666POPC   D2A32080  40.794   0.473   8.250
 5666POPC   C3A32081  40.815   0.447   7.950
 5666POPC   C4A32082  40.825   0.399   7.650
 5666POPC   C1B32083  41.050   0.506   8.550
 5666POPC   C2B32084  41.029   0.487   8.250
 5666POPC   C3B32085  41.036   0.475   7.950
 5666POPC   C4B32086  40.983   0.433   7.650
 5667POPC   NC332087  22.956  44.667   9.450
 5667POPC   PO432088  22.912  44.640   9.150
 5667POPC   GL132089  22.913  44.646   8.850
 5667POPC   GL232090  22.976  44.567   8.850
 5667POPC   C1A32091  22.938  44.704   8.550
 5667POPC   D2A32092  22.975  44.615   8.250
 5667POPC   C3A32093  22.976  44.619   7.950
 5667POPC   C4A32094  22.905  44.640   7.650
 5667POPC   C1B32095  22.913  44.364   8.550
 5667POPC   C2B32096  22.944  44.401   8.250
 5667POPC   C3B32097  22.978  44.401   7.950
 5667POPC   C4B32098  23.001  44.392   7.650
 5668POPC   NC332099  32.207  20.636   9.450
 5668POPC   PO432100  32.285  20.578   9.150
 5668POPC   GL132101  32.216  20.656   8.850
 5668POPC   GL232102  32.399  20.645   8.850
 5668POPC   C1A32103  32.201  20.561   8.550
 5668POPC   D2A32104  32.230  20.656   8.250
 5668POPC   C3A32105  32.284  20.563   7.950
 5668POPC   C4A32106  32.224  20.565   7.650
 5668POPC   C1B32107  32.422  20.717   8.550
 5668POPC   C2B32108  32.445  20.743   8.250
 5668POPC   C3B32109  32.504  20.779   7.950
 5668POPC   C4B32110  32.415  20.775   7.650
 5669POPC   NC332111  12.869  15.183   9.450
 5669POPC   PO432112  12.838  15.212   9.150
 5669POPC   GL132113  12.884  15.174   8.850
 5669POPC   GL232114  12.717  15.128   8.850
 5669POPC   C1A32115  12.822  15.144   8.550
 5669POPC   D2A32116  12.869  15.195   8.250
 5669POPC   C3A32117  12.832  15.187   7.950
 5669POPC   C4A32118  12.861  15.187   7.650
 5669POPC   C1B32119  12.597  15.157   8.550
 5669POPC   C2B32120  12.560  15.182   8.250
 5669POPC   C3B32121  12.595  15.210   7.950
 5669POPC   C4B32122  12.585  15.137   7.650
 5670POPC   NC332123   7.380  22.160   9.450
 5670POPC   PO432124   7.379  22.198   9.150
 5670POPC   GL132125   7.434  22.155   8.850
 5670POPC   GL232126   7.311  22.061   8.850
 5670POPC   C1A32127   7.381  22.159   8.550
 5670POPC   D2A32128   7.423  22.197   8.250
 5670POPC   C3A32129   7.469  22.137   7.950
 5670POPC   C4A32130   7.400  22.210   7.650
 5670POPC   C1B32131   7.339  21.897   8.550
 5670POPC   C2B32132   7.273  21.918   8.250
 5670POPC   C3B32133   7.313  21.984   7.950
 5670POPC   C4B32134   7.279  21.910   7.650
 5671POPC   NC332135  41.541  39.993   9.450
 5671POPC   PO432136  41.606  39.985   9.150
 5671POPC   GL132137  41.511  40.034   8.850
 5671POPC   GL232138  41.634  39.940   8.850
 5671POPC   C1A32139  41.596  39.976   8.550
 5671POPC   D2A32140  41.605  40.013   8.250
 5671POPC   C3A32141  41.543  39.987   7.950
 5671POPC   C4A32142  41.561  40.052   7.650
 5671POPC   C1B32143  41.767  39.902   8.550
 5671POPC   C2B32144  41.820  39.934   8.250
 5671POPC   C3B32145  41.814  39.865   7.950
 5671POPC   C4B32146  41.781  39.959   7.650
 5672POPC   NC332147   9.716  31.455   9.450
 5672POPC   PO432148   9.786  31.463   9.150
 5672POPC   GL132149   9.701  31.465   8.850
 5672POPC   GL232150   9.816  31.585   8.850
 5672POPC   C1A32151   9.749  31.520   8.550
 5672POPC   D2A32152   9.732  31.475   8.250
 5672POPC   C3A32153   9.751  31.429   7.950
 5672POPC   C4A32154   9.723  31.508   7.650
 5672POPC   C1B32155   9.816  31.764   8.550
 5672POPC   C2B32156   9.810  31.713   8.250
 5672POPC   C3B32157   9.779  31.680   7.950
 5672POPC   C4B32158   9.802  31.685   7.650
 5673POPC   NC332159  25.237  38.434   9.450
 5673POPC   PO432160  25.222  38.411   9.150
 5673POPC   GL132161  25.281  38.500   8.850
 5673POPC   GL232162  25.142  38.527   8.850
 5673POPC   C1A32163  25.223  38.429   8.550
 5673POPC   D2A32164  25.223  38.483   8.250
 5673POPC   C3A32165  25.226  38.467   7.950
 5673POPC   C4A32166  25.294  38.415   7.650
 5673POPC   C1B32167  24.979  38.530   8.550
 5673POPC   C2B32168  25.031  38.554   8.250
 5673POPC   C3B32169  25.024  38.547   7.950
 5673POPC   C4B32170  25.042  38.511   7.650
 5674POPC   NC332171  42.375  31.514   9.450
 5674POPC   PO432172  42.308  31.460   9.150
 5674POPC   GL132173  42.363  31.452   8.850
 5674POPC   GL232174  42.191  31.369   8.850
 5674POPC   C1A32175  42.286  31.425   8.550
 5674POPC   D2A32176  42.363  31.490   8.250
 5674POPC   C3A32177  42.333  31.503   7.950
 5674POPC   C4A32178  42.365  31.450   7.650
 5674POPC   C1B32179  42.130  31.316   8.550
 5674POPC   C2B32180  42.140  31.365   8.250
 5674POPC   C3B32181  42.081  31.318   7.950
 5674POPC   C4B32182  42.125  31.299   7.650
 5675POPC   NC332183  39.182   2.029   9.450
 5675POPC   PO432184  39.210   1.962   9.150
 5675POPC   GL132185  39.202   1.960   8.850
 5675POPC   GL232186  39.178   2.086   8.850
 5675POPC   C1A32187  39.234   1.940   8.550
 5675POPC   D2A32188  39.256   2.008   8.250
 5675POPC   C3A32189  39.223   1.986   7.950
 5675POPC   C4A32190  39.220   2.028   7.650
 5675POPC   C1B32191  39.056   2.136   8.550
 5675POPC   C2B32192  39.035   2.144   8.250
 5675POPC   C3B32193  39.072   2.167   7.950
 5675POPC   C4B32194  39.064   2.143   7.650
 5676POPC   NC332195  35.344  37.672   9.450
 5676POPC   PO432196  35.401  37.675   9.150
 5676POPC   GL132197  35.312  37.701   8.850
 5676POPC   GL232198  35.342  37.580   8.850
 5676POPC   C1A32199  35.311  37.693   8.550
 5676POPC   D2A32200  35.359  37.680   8.250
 5676POPC   C3A32201  35.401  37.708   7.950
 5676POPC   C4A32202  35.379  37.719   7.650
 5676POPC   C1B32203  35.331  37.456   8.550
 5676POPC   C2B32204  35.355  37.467   8.250
 5676POPC   C3B32205  35.345  37.445   7.950
 5676POPC   C4B32206  35.401  37.434   7.650
 5677POPC   NC332207  29.131  29.953   9.450
 5677POPC   PO432208  29.184  29.954   9.150
 5677POPC   GL132209  29.189  29.943   8.850
 5677POPC   GL232210  28.997  29.874   8.850
 5677POPC   C1A32211  29.160  29.903   8.550
 5677POPC   D2A32212  29.181  29.943   8.250
 5677POPC   C3A32213  29.100  29.927   7.950
 5677POPC   C4A32214  29.142  29.889   7.650
 5677POPC   C1B32215  28.977  29.786   8.550
 5677POPC   C2B32216  28.945  29.817   8.250
 5677POPC   C3B32217  28.934  29.779   7.950
 5677POPC   C4B32218  28.919  29.784   7.650
 5678POPC   NC332219  20.643  19.855   9.450
 5678POPC   PO432220  20.588  19.790   9.150
 5678POPC   GL132221  20.589  19.878   8.850
 5678POPC   GL232222  20.637  19.744   8.850
 5678POPC   C1A32223  20.569  19.799   8.550
 5678POPC   D2A32224  20.569  19.802   8.250
 5678POPC   C3A32225  20.612  19.787   7.950
 5678POPC   C4A32226  20.625  19.873   7.650
 5678POPC   C1B32227  20.587  19.550   8.550
 5678POPC   C2B32228  20.615  19.610   8.250
 5678POPC   C3B32229  20.592  19.579   7.950
 5678POPC   C4B32230  20.602  19.626   7.650
 5679POPC   NC332231  22.147   1.193   9.450
 5679POPC   PO432232  22.114   1.222   9.150
 5679POPC   GL132233  22.174   1.219   8.850
 5679POPC   GL232234  22.336   1.187   8.850
 5679POPC   C1A32235  22.172   1.190   8.550
 5679POPC   D2A32236  22.136   1.181   8.250
 5679POPC   C3A32237  22.141   1.174   7.950
 5679POPC   C4A32238  22.151   1.227   7.650
 5679POPC   C1B32239  22.457   1.137   8.550
 5679POPC   C2B32240  22.443   1.233   8.250
 5679POPC   C3B32241  22.392   1.199   7.950
 5679POPC   C4B32242  22.413   1.182   7.650
 5680POPC   NC332243  15.207  36.146   9.450
 5680POPC   PO432244  15.174  36.132   9.150
 5680POPC   GL132245  15.207  36.153   8.850
 5680POPC   GL232246  15.314  36.015   8.850
 5680POPC   C1A32247  15.159  36.118   8.550
 5680POPC   D2A32248  15.147  36.104   8.250
 5680POPC   C3A32249  15.150  36.153   7.950
 5680POPC   C4A32250  15.200  36.114   7.650
 5680POPC   C1B32251  15.385  35.999   8.550
 5680POPC   C2B32252  15.389  36.016   8.250
 5680POPC   C3B32253  15.381  36.001   7.950
 5680POPC   C4B32254  15.370  35.976   7.650
 5681POPC   NC332255  11.302  17.552   9.450
 5681POPC   PO432256  11.330  17.467   9.150
 5681POPC   GL132257  11.307  17.509   8.850
 5681POPC   GL232258  11.207  17.388   8.850
 5681POPC   C1A32259  11.302  17.533   8.550
 5681POPC   D2A32260  11.343  17.541   8.250
 5681POPC   C3A32261  11.349  17.503   7.950
 5681POPC   C4A32262  11.322  17.526   7.650
 5681POPC   C1B32263  11.187  17.346   8.550
 5681POPC   C2B32264  11.188  17.348   8.250
 5681POPC   C3B32265  11.123  17.284   7.950
 5681POPC   C4B32266  11.105  17.363   7.650
 5682POPC   NC332267  23.715  41.583   9.450
 5682POPC   PO432268  23.749  41.555   9.150
 5682POPC   GL132269  23.720  41.549   8.850
 5682POPC   GL232270  23.684  41.633   8.850
 5682POPC   C1A32271  23.690  41.596   8.550
 5682POPC   D2A32272  23.741  41.597   8.250
 5682POPC   C3A32273  23.756  41.562   7.950
 5682POPC   C4A32274  23.745  41.588   7.650
 5682POPC   C1B32275  23.588  41.780   8.550
 5682POPC   C2B32276  23.587  41.795   8.250
 5682POPC   C3B32277  23.589  41.788   7.950
 5682POPC   C4B32278  23.645  41.798   7.650
 5683POPC   NC332279  34.559  18.266   9.450
 5683POPC   PO432280  34.534  18.285   9.150
 5683POPC   GL132281  34.551  18.273   8.850
 5683POPC   GL232282  34.623  18.369   8.850
 5683POPC   C1A32283  34.590  18.256   8.550
 5683POPC   D2A32284  34.568  18.332   8.250
 5683POPC   C3A32285  34.570  18.260   7.950
 5683POPC   C4A32286  34.621  18.291   7.650
 5683POPC   C1B32287  34.641  18.557   8.550
 5683POPC   C2B32288  34.607  18.490   8.250
 5683POPC   C3B32289  34.611  18.547   7.950
 5683POPC   C4B32290  34.572  18.501   7.650
 5684POPC   NC332291  22.916  38.496   9.450
 5684POPC   PO432292  22.922  38.423   9.150
 5684POPC   GL132293  22.925  38.415   8.850
 5684POPC   GL232294  22.932  38.563   8.850
 5684POPC   C1A32295  22.986  38.458   8.550
 5684POPC   D2A32296  22.973  38.440   8.250
 5684POPC   C3A32297  22.905  38.443   7.950
 5684POPC   C4A32298  22.937  38.486   7.650
 5684POPC   C1B32299  22.988  38.734   8.550
 5684POPC   C2B32300  22.931  38.682   8.250
 5684POPC   C3B32301  23.001  38.674   7.950
 5684POPC   C4B32302  23.025  38.707   7.650
 5685POPC   NC332303  20.600  20.602   9.450
 5685POPC   PO432304  20.607  20.644   9.150
 5685POPC   GL132305  20.654  20.623   8.850
 5685POPC   GL232306  20.675  20.719   8.850
 5685POPC   C1A32307  20.638  20.613   8.550
 5685POPC   D2A32308  20.636  20.588   8.250
 5685POPC   C3A32309  20.616  20.576   7.950
 5685POPC   C4A32310  20.629  20.626   7.650
 5685POPC   C1B32311  20.861  20.725   8.550
 5685POPC   C2B32312  20.868  20.780   8.250
 5685POPC   C3B32313  20.838  20.742   7.950
 5685POPC   C4B32314  20.860  20.765   7.650
 5686POPC   NC332315  41.560  28.359   9.450
 5686POPC   PO432316  41.567  28.323   9.150
 5686POPC   GL132317  41.559  28.401   8.850
 5686POPC   GL232318  41.713  28.411   8.850
 5686POPC   C1A32319  41.544  28.380   8.550
 5686POPC   D2A32320  41.594  28.407   8.250
 5686POPC   C3A32321  41.540  28.366   7.950
 5686POPC   C4A32322  41.593  28.355   7.650
 5686POPC   C1B32323  41.822  28.474   8.550
 5686POPC   C2B32324  41.838  28.476   8.250
 5686POPC   C3B32325  41.772  28.502   7.950
 5686POPC   C4B32326  41.802  28.514   7.650
 5687POPC   NC332327   5.854  40.779   9.450
 5687POPC   PO432328   5.834  40.743   9.150
 5687POPC   GL132329   5.908  40.832   8.850
 5687POPC   GL232330   5.771  40.756   8.850
 5687POPC   C1A32331   5.850  40.820   8.550
 5687POPC   D2A32332   5.917  40.774   8.250
 5687POPC   C3A32333   5.855  40.815   7.950
 5687POPC   C4A32334   5.873  40.734   7.650
 5687POPC   C1B32335   5.653  40.796   8.550
 5687POPC   C2B32336   5.588  40.825   8.250
 5687POPC   C3B32337   5.663  40.776   7.950
 5687POPC   C4B32338   5.608  40.808   7.650
 5688POPC   NC332339  41.563  11.346   9.450
 5688POPC   PO432340  41.526  11.285   9.150
 5688POPC   GL132341  41.573  11.273   8.850
 5688POPC   GL232342  41.696  11.268   8.850
 5688POPC   C1A32343  41.540  11.306   8.550
 5688POPC   D2A32344  41.559  11.292   8.250
 5688POPC   C3A32345  41.526  11.293   7.950
 5688POPC   C4A32346  41.575  11.281   7.650
 5688POPC   C1B32347  41.714  11.126   8.550
 5688POPC   C2B32348  41.736  11.157   8.250
 5688POPC   C3B32349  41.769  11.164   7.950
 5688POPC   C4B32350  41.797  11.116   7.650
 5689POPC   NC332351   9.735  37.729   9.450
 5689POPC   PO432352   9.700  37.648   9.150
 5689POPC   GL132353   9.760  37.662   8.850
 5689POPC   GL232354   9.904  37.658   8.850
 5689POPC   C1A32355   9.747  37.644   8.550
 5689POPC   D2A32356   9.780  37.722   8.250
 5689POPC   C3A32357   9.780  37.727   7.950
 5689POPC   C4A32358   9.725  37.713   7.650
 5689POPC   C1B32359   9.971  37.662   8.550
 5689POPC   C2B32360  10.007  37.743   8.250
 5689POPC   C3B32361   9.953  37.716   7.950
 5689POPC   C4B32362   9.986  37.757   7.650
 5690POPC   NC332363  12.078   5.082   9.450
 5690POPC   PO432364  12.106   5.082   9.150
 5690POPC   GL132365  12.095   5.117   8.850
 5690POPC   GL232366  12.225   5.131   8.850
 5690POPC   C1A32367  12.124   5.075   8.550
 5690POPC   D2A32368  12.118   5.132   8.250
 5690POPC   C3A32369  12.033   5.060   7.950
 5690POPC   C4A32370  12.117   5.114   7.650
 5690POPC   C1B32371  12.250   5.247   8.550
 5690POPC   C2B32372  12.307   5.157   8.250
 5690POPC   C3B32373  12.307   5.203   7.950
 5690POPC   C4B32374  12.256   5.212   7.650
 5691POPC   NC332375  33.069  28.370   9.450
 5691POPC   PO432376  33.008  28.348   9.150
 5691POPC   GL132377  33.022  28.402   8.850
 5691POPC   GL232378  33.094  28.412   8.850
 5691POPC   C1A32379  32.995  28.370   8.550
 5691POPC   D2A32380  33.051  28.400   8.250
 5691POPC   C3A32381  32.996  28.361   7.950
 5691POPC   C4A32382  33.053  28.380   7.650
 5691POPC   C1B32383  33.216  28.557   8.550
 5691POPC   C2B32384  33.215  28.601   8.250
 5691POPC   C3B32385  33.202  28.522   7.950
 5691POPC   C4B32386  33.189  28.557   7.650
 5692POPC   NC332387  29.123   2.760   9.450
 5692POPC   PO432388  29.113   2.722   9.150
 5692POPC   GL132389  29.129   2.720   8.850
 5692POPC   GL232390  28.994   2.715   8.850
 5692POPC   C1A32391  29.193   2.724   8.550
 5692POPC   D2A32392  29.133   2.737   8.250
 5692POPC   C3A32393  29.144   2.724   7.950
 5692POPC   C4A32394  29.108   2.721   7.650
 5692POPC   C1B32395  28.872   2.746   8.550
 5692POPC   C2B32396  28.900   2.720   8.250
 5692POPC   C3B32397  28.872   2.699   7.950
 5692POPC   C4B32398  28.926   2.768   7.650
 5693POPC   NC332399  40.052   7.417   9.450
 5693POPC   PO432400  40.016   7.409   9.150
 5693POPC   GL132401  39.958   7.422   8.850
 5693POPC   GL232402  40.117   7.556   8.850
 5693POPC   C1A32403  39.959   7.468   8.550
 5693POPC   D2A32404  40.044   7.380   8.250
 5693POPC   C3A32405  39.978   7.403   7.950
 5693POPC   C4A32406  40.001   7.420   7.650
 5693POPC   C1B32407  40.133   7.579   8.550
 5693POPC   C2B32408  40.150   7.595   8.250
 5693POPC   C3B32409  40.196   7.591   7.950
 5693POPC   C4B32410  40.148   7.598   7.650
 5694POPC   NC332411   1.254   1.231   9.450
 5694POPC   PO432412   1.212   1.242   9.150
 5694POPC   GL132413   1.255   1.219   8.850
 5694POPC   GL232414   1.270   1.102   8.850
 5694POPC   C1A32415   1.164   1.249   8.550
 5694POPC   D2A32416   1.219   1.238   8.250
 5694POPC   C3A32417   1.253   1.260   7.950
 5694POPC   C4A32418   1.212   1.189   7.650
 5694POPC   C1B32419   1.222   1.012   8.550
 5694POPC   C2B32420   1.291   0.930   8.250
 5694POPC   C3B32421   1.295   0.995   7.950
 5694POPC   C4B32422   1.276   1.014   7.650
 5695POPC   NC332423  38.464  25.246   9.450
 5695POPC   PO432424  38.424  25.300   9.150
 5695POPC   GL132425  38.482  25.275   8.850
 5695POPC   GL232426  38.532  25.118   8.850
 5695POPC   C1A32427  38.503  25.296   8.550
 5695POPC   D2A32428  38.441  25.298   8.250
 5695POPC   C3A32429  38.444  25.254   7.950
 5695POPC   C4A32430  38.407  25.273   7.650
 5695POPC   C1B32431  38.611  25.084   8.550
 5695POPC   C2B32432  38.637  25.008   8.250
 5695POPC   C3B32433  38.624  25.033   7.950
 5695POPC   C4B32434  38.631  25.083   7.650
 5696POPC   NC332435   4.318   9.009   9.450
 5696POPC   PO432436   4.298   9.001   9.150
 5696POPC   GL132437   4.304   8.942   8.850
 5696POPC   GL232438   4.405   8.961   8.850
 5696POPC   C1A32439   4.351   8.954   8.550
 5696POPC   D2A32440   4.366   8.960   8.250
 5696POPC   C3A32441   4.329   9.001   7.950
 5696POPC   C4A32442   4.277   8.992   7.650
 5696POPC   C1B32443   4.558   8.939   8.550
 5696POPC   C2B32444   4.544   8.952   8.250
 5696POPC   C3B32445   4.575   8.950   7.950
 5696POPC   C4B32446   4.581   8.860   7.650
 5697POPC   NC332447   4.350   8.169   9.450
 5697POPC   PO432448   4.273   8.151   9.150
 5697POPC   GL132449   4.324   8.239   8.850
 5697POPC   GL232450   4.434   8.166   8.850
 5697POPC   C1A32451   4.325   8.217   8.550
 5697POPC   D2A32452   4.349   8.186   8.250
 5697POPC   C3A32453   4.290   8.198   7.950
 5697POPC   C4A32454   4.363   8.213   7.650
 5697POPC   C1B32455   4.515   8.113   8.550
 5697POPC   C2B32456   4.526   8.083   8.250
 5697POPC   C3B32457   4.520   8.094   7.950
 5697POPC   C4B32458   4.573   8.080   7.650
 5698POPC   NC332459   2.772  12.850   9.450
 5698POPC   PO432460   2.725  12.888   9.150
 5698POPC   GL132461   2.753  12.853   8.850
 5698POPC   GL232462   2.855  12.919   8.850
 5698POPC   C1A32463   2.751  12.884   8.550
 5698POPC   D2A32464   2.732  12.842   8.250
 5698POPC   C3A32465   2.771  12.822   7.950
 5698POPC   C4A32466   2.812  12.844   7.650
 5698POPC   C1B32467   2.887  12.992   8.550
 5698POPC   C2B32468   2.929  13.035   8.250
 5698POPC   C3B32469   2.970  13.018   7.950
 5698POPC   C4B32470   2.949  13.019   7.650
 5699POPC   NC332471  23.665   6.644   9.450
 5699POPC   PO432472  23.724   6.634   9.150
 5699POPC   GL132473  23.701   6.646   8.850
 5699POPC   GL232474  23.737   6.790   8.850
 5699POPC   C1A32475  23.674   6.614   8.550
 5699POPC   D2A32476  23.762   6.647   8.250
 5699POPC   C3A32477  23.689   6.677   7.950
 5699POPC   C4A32478  23.724   6.615   7.650
 5699POPC   C1B32479  23.657   6.855   8.550
 5699POPC   C2B32480  23.664   6.876   8.250
 5699POPC   C3B32481  23.636   6.861   7.950
 5699POPC   C4B32482  23.648   6.933   7.650
 5700POPC   NC332483  19.041   8.235   9.450
 5700POPC   PO432484  19.047   8.232   9.150
 5700POPC   GL132485  19.056   8.239   8.850
 5700POPC   GL232486  18.944   8.090   8.850
 5700POPC   C1A32487  19.058   8.148   8.550
 5700POPC   D2A32488  19.055   8.235   8.250
 5700POPC   C3A32489  19.037   8.181   7.950
 5700POPC   C4A32490  19.051   8.218   7.650
 5700POPC   C1B32491  18.907   8.031   8.550
 5700POPC   C2B32492  18.825   8.097   8.250
 5700POPC   C3B32493  18.831   8.079   7.950
 5700POPC   C4B32494  18.860   8.085   7.650
 5701POPC   NC332495   9.791  19.080   9.450
 5701POPC   PO432496   9.740  19.083   9.150
 5701POPC   GL132497   9.709  19.106   8.850
 5701POPC   GL232498   9.838  19.117   8.850
 5701POPC   C1A32499   9.761  19.088   8.550
 5701POPC   D2A32500   9.737  19.055   8.250
 5701POPC   C3A32501   9.733  19.056   7.950
 5701POPC   C4A32502   9.783  19.099   7.650
 5701POPC   C1B32503   9.989  19.143   8.550
 5701POPC   C2B32504   9.985  19.139   8.250
 5701POPC   C3B32505   9.962  19.153   7.950
 5701POPC   C4B32506   9.952  19.101   7.650
 5702POPC   NC332507   1.239  39.258   9.450
 5702POPC   PO432508   1.168  39.185   9.150
 5702POPC   GL132509   1.206  39.183   8.850
 5702POPC   GL232510   1.114  39.181   8.850
 5702POPC   C1A32511   1.201  39.195   8.550
 5702POPC   D2A32512   1.225  39.246   8.250
 5702POPC   C3A32513   1.190  39.278   7.950
 5702POPC   C4A32514   1.168  39.188   7.650
 5702POPC   C1B32515   0.989  39.088   8.550
 5702POPC   C2B32516   1.018  39.053   8.250
 5702POPC   C3B32517   1.023  39.102   7.950
 5702POPC   C4B32518   1.069  39.111   7.650
 5703POPC   NC332519   5.095  21.338   9.450
 5703POPC   PO432520   5.139  21.406   9.150
 5703POPC   GL132521   5.061  21.419   8.850
 5703POPC   GL232522   5.023  21.435   8.850
 5703POPC   C1A32523   5.052  21.337   8.550
 5703POPC   D2A32524   5.081  21.400   8.250
 5703POPC   C3A32525   5.076  21.391   7.950
 5703POPC   C4A32526   5.081  21.412   7.650
 5703POPC   C1B32527   4.898  21.596   8.550
 5703POPC   C2B32528   4.904  21.577   8.250
 5703POPC   C3B32529   4.923  21.569   7.950
 5703POPC   C4B32530   4.898  21.532   7.650
 5704POPC   NC332531  26.832  42.350   9.450
 5704POPC   PO432532  26.799  42.355   9.150
 5704POPC   GL132533  26.801  42.345   8.850
 5704POPC   GL232534  26.659  42.388   8.850
 5704POPC   C1A32535  26.808  42.292   8.550
 5704POPC   D2A32536  26.865  42.373   8.250
 5704POPC   C3A32537  26.844  42.343   7.950
 5704POPC   C4A32538  26.802  42.299   7.650
 5704POPC   C1B32539  26.581  42.405   8.550
 5704POPC   C2B32540  26.569  42.454   8.250
 5704POPC   C3B32541  26.639  42.463   7.950
 5704POPC   C4B32542  26.647  42.474   7.650
 5705POPC   NC332543  42.337  29.107   9.450
 5705POPC   PO432544  42.328  29.102   9.150
 5705POPC   GL132545  42.342  29.096   8.850
 5705POPC   GL232546  42.273  29.284   8.850
 5705POPC   C1A32547  42.357  29.181   8.550
 5705POPC   D2A32548  42.286  29.192   8.250
 5705POPC   C3A32549  42.295  29.195   7.950
 5705POPC   C4A32550  42.285  29.153   7.650
 5705POPC   C1B32551  42.287  29.423   8.550
 5705POPC   C2B32552  42.286  29.354   8.250
 5705POPC   C3B32553  42.207  29.378   7.950
 5705POPC   C4B32554  42.246  29.374   7.650
 5706POPC   NC332555  24.516  36.858   9.450
 5706POPC   PO432556  24.458  36.879   9.150
 5706POPC   GL132557  24.516  36.923   8.850
 5706POPC   GL232558  24.627  36.991   8.850
 5706POPC   C1A32559  24.504  36.868   8.550
 5706POPC   D2A32560  24.445  36.890   8.250
 5706POPC   C3A32561  24.509  36.854   7.950
 5706POPC   C4A32562  24.494  36.855   7.650
 5706POPC   C1B32563  24.705  37.002   8.550
 5706POPC   C2B32564  24.692  37.055   8.250
 5706POPC   C3B32565  24.687  37.024   7.950
 5706POPC   C4B32566  24.732  37.048   7.650
 5707POPC   NC332567  38.450  16.720   9.450
 5707POPC   PO432568  38.474  16.713   9.150
 5707POPC   GL132569  38.420  16.711   8.850
 5707POPC   GL232570  38.417  16.627   8.850
 5707POPC   C1A32571  38.441  16.737   8.550
 5707POPC   D2A32572  38.482  16.762   8.250
 5707POPC   C3A32573  38.433  16.686   7.950
 5707POPC   C4A32574  38.477  16.770   7.650
 5707POPC   C1B32575  38.413  16.456   8.550
 5707POPC   C2B32576  38.424  16.496   8.250
 5707POPC   C3B32577  38.400  16.489   7.950
 5707POPC   C4B32578  38.391  16.523   7.650
 5708POPC   NC332579  44.649  24.471   9.450
 5708POPC   PO432580  44.634  24.538   9.150
 5708POPC   GL132581  44.694  24.447   8.850
 5708POPC   GL232582  44.813  24.430   8.850
 5708POPC   C1A32583  44.690  24.535   8.550
 5708POPC   D2A32584  44.636  24.500   8.250
 5708POPC   C3A32585  44.700  24.516   7.950
 5708POPC   C4A32586  44.650  24.441   7.650
 5708POPC   C1B32587  44.879  24.371   8.550
 5708POPC   C2B32588  44.879  24.407   8.250
 5708POPC   C3B32589  44.915  24.433   7.950
 5708POPC   C4B32590  44.877  24.447   7.650
 5709POPC   NC332591  27.546  18.286   9.450
 5709POPC   PO432592  27.558  18.314   9.150
 5709POPC   GL132593  27.583  18.271   8.850
 5709POPC   GL232594  27.710  18.151   8.850
 5709POPC   C1A32595  27.583  18.243   8.550
 5709POPC   D2A32596  27.547  18.279   8.250
 5709POPC   C3A32597  27.575  18.318   7.950
 5709POPC   C4A32598  27.545  18.319   7.650
 5709POPC   C1B32599  27.729  18.071   8.550
 5709POPC   C2B32600  27.727  18.059   8.250
 5709POPC   C3B32601  27.706  18.081   7.950
 5709POPC   C4B32602  27.704  18.031   7.650
 5710POPC   NC332603  29.106   3.550   9.450
 5710POPC   PO432604  29.100   3.534   9.150
 5710POPC   GL132605  29.173   3.540   8.850
 5710POPC   GL232606  29.203   3.454   8.850
 5710POPC   C1A32607  29.184   3.493   8.550
 5710POPC   D2A32608  29.173   3.584   8.250
 5710POPC   C3A32609  29.127   3.515   7.950
 5710POPC   C4A32610  29.185   3.521   7.650
 5710POPC   C1B32611  29.257   3.374   8.550
 5710POPC   C2B32612  29.259   3.383   8.250
 5710POPC   C3B32613  29.333   3.325   7.950
 5710POPC   C4B32614  29.340   3.307   7.650
 5711POPC   NC332615  33.025   5.894   9.450
 5711POPC   PO432616  33.056   5.840   9.150
 5711POPC   GL132617  33.028   5.896   8.850
 5711POPC   GL232618  32.908   5.777   8.850
 5711POPC   C1A32619  33.048   5.885   8.550
 5711POPC   D2A32620  32.994   5.832   8.250
 5711POPC   C3A32621  32.998   5.901   7.950
 5711POPC   C4A32622  32.977   5.849   7.650
 5711POPC   C1B32623  32.786   5.688   8.550
 5711POPC   C2B32624  32.815   5.714   8.250
 5711POPC   C3B32625  32.834   5.701   7.950
 5711POPC   C4B32626  32.833   5.694   7.650
 5712POPC   NC332627   1.952  27.631   9.450
 5712POPC   PO432628   1.970  27.624   9.150
 5712POPC   GL132629   1.995  27.609   8.850
 5712POPC   GL232630   2.030  27.748   8.850
 5712POPC   C1A32631   2.002  27.602   8.550
 5712POPC   D2A32632   1.942  27.626   8.250
 5712POPC   C3A32633   2.003  27.618   7.950
 5712POPC   C4A32634   2.023  27.631   7.650
 5712POPC   C1B32635   2.065  27.885   8.550
 5712POPC   C2B32636   1.990  27.849   8.250
 5712POPC   C3B32637   2.066  27.806   7.950
 5712POPC   C4B32638   1.990  27.835   7.650
 5713POPC   NC332639  17.521   1.993   9.450
 5713POPC   PO432640  17.515   1.950   9.150
 5713POPC   GL132641  17.509   2.027   8.850
 5713POPC   GL232642  17.451   1.851   8.850
 5713POPC   C1A32643  17.508   2.021   8.550
 5713POPC   D2A32644  17.496   1.949   8.250
 5713POPC   C3A32645  17.481   2.039   7.950
 5713POPC   C4A32646  17.499   1.992   7.650
 5713POPC   C1B32647  17.377   1.805   8.550
 5713POPC   C2B32648  17.381   1.814   8.250
 5713POPC   C3B32649  17.362   1.817   7.950
 5713POPC   C4B32650  17.329   1.823   7.650
 5714POPC   NC332651  32.250  13.642   9.450
 5714POPC   PO432652  32.238  13.647   9.150
 5714POPC   GL132653  32.248  13.641   8.850
 5714POPC   GL232654  32.275  13.563   8.850
 5714POPC   C1A32655  32.262  13.637   8.550
 5714POPC   D2A32656  32.232  13.641   8.250
 5714POPC   C3A32657  32.240  13.592   7.950
 5714POPC   C4A32658  32.231  13.609   7.650
 5714POPC   C1B32659  32.371  13.406   8.550
 5714POPC   C2B32660  32.388  13.462   8.250
 5714POPC   C3B32661  32.355  13.463   7.950
 5714POPC   C4B32662  32.412  13.430   7.650
 5715POPC   NC332663  39.189   3.584   9.450
 5715POPC   PO432664  39.256   3.531   9.150
 5715POPC   GL132665  39.239   3.532   8.850
 5715POPC   GL232666  39.330   3.526   8.850
 5715POPC   C1A32667  39.252   3.500   8.550
 5715POPC   D2A32668  39.244   3.528   8.250
 5715POPC   C3A32669  39.199   3.515   7.950
 5715POPC   C4A32670  39.194   3.584   7.650
 5715POPC   C1B32671  39.461   3.545   8.550
 5715POPC   C2B32672  39.524   3.600   8.250
 5715POPC   C3B32673  39.451   3.599   7.950
 5715POPC   C4B32674  39.509   3.576   7.650
 5716POPC   NC332675  14.451  29.170   9.450
 5716POPC   PO432676  14.358  29.177   9.150
 5716POPC   GL132677  14.416  29.166   8.850
 5716POPC   GL232678  14.374  29.020   8.850
 5716POPC   C1A32679  14.393  29.178   8.550
 5716POPC   D2A32680  14.434  29.175   8.250
 5716POPC   C3A32681  14.403  29.142   7.950
 5716POPC   C4A32682  14.411  29.188   7.650
 5716POPC   C1B32683  14.370  28.865   8.550
 5716POPC   C2B32684  14.371  28.848   8.250
 5716POPC   C3B32685  14.368  28.925   7.950
 5716POPC   C4B32686  14.411  28.924   7.650
 5717POPC   NC332687  14.411   5.915   9.450
 5717POPC   PO432688  14.450   5.900   9.150
 5717POPC   GL132689  14.376   5.847   8.850
 5717POPC   GL232690  14.390   5.723   8.850
 5717POPC   C1A32691  14.361   5.840   8.550
 5717POPC   D2A32692  14.393   5.822   8.250
 5717POPC   C3A32693  14.359   5.841   7.950
 5717POPC   C4A32694  14.439   5.913   7.650
 5717POPC   C1B32695  14.387   5.640   8.550
 5717POPC   C2B32696  14.387   5.595   8.250
 5717POPC   C3B32697  14.413   5.602   7.950
 5717POPC   C4B32698  14.443   5.651   7.650
 5718POPC   NC332699  11.306  18.260   9.450
 5718POPC   PO432700  11.318  18.256   9.150
 5718POPC   GL132701  11.319  18.267   8.850
 5718POPC   GL232702  11.226  18.216   8.850
 5718POPC   C1A32703  11.273  18.250   8.550
 5718POPC   D2A32704  11.311  18.274   8.250
 5718POPC   C3A32705  11.313  18.284   7.950
 5718POPC   C4A32706  11.282  18.262   7.650
 5718POPC   C1B32707  11.091  18.131   8.550
 5718POPC   C2B32708  11.051  18.155   8.250
 5718POPC   C3B32709  11.095  18.165   7.950
 5718POPC   C4B32710  11.097  18.219   7.650
 5719POPC   NC332711   1.994  39.274   9.450
 5719POPC   PO432712   1.946  39.221   9.150
 5719POPC   GL132713   1.948  39.251   8.850
 5719POPC   GL232714   2.137  39.282   8.850
 5719POPC   C1A32715   1.965  39.191   8.550
 5719POPC   D2A32716   2.012  39.196   8.250
 5719POPC   C3A32717   2.036  39.268   7.950
 5719POPC   C4A32718   1.971  39.230   7.650
 5719POPC   C1B32719   2.225  39.321   8.550
 5719POPC   C2B32720   2.201  39.244   8.250
 5719POPC   C3B32721   2.274  39.278   7.950
 5719POPC   C4B32722   2.251  39.286   7.650
 5720POPC   NC332723  30.660   1.244   9.450
 5720POPC   PO432724  30.723   1.244   9.150
 5720POPC   GL132725  30.708   1.194   8.850
 5720POPC   GL232726  30.616   1.228   8.850
 5720POPC   C1A32727  30.653   1.221   8.550
 5720POPC   D2A32728  30.661   1.228   8.250
 5720POPC   C3A32729  30.682   1.262   7.950
 5720POPC   C4A32730  30.740   1.256   7.650
 5720POPC   C1B32731  30.484   1.225   8.550
 5720POPC   C2B32732  30.467   1.204   8.250
 5720POPC   C3B32733  30.485   1.233   7.950
 5720POPC   C4B32734  30.478   1.211   7.650
 5721POPC   NC332735  39.224  29.136   9.450
 5721POPC   PO432736  39.227  29.195   9.150
 5721POPC   GL132737  39.269  29.135   8.850
 5721POPC   GL232738  39.240  29.258   8.850
 5721POPC   C1A32739  39.193  29.151   8.550
 5721POPC   D2A32740  39.264  29.170   8.250
 5721POPC   C3A32741  39.237  29.194   7.950
 5721POPC   C4A32742  39.247  29.194   7.650
 5721POPC   C1B32743  39.135  29.391   8.550
 5721POPC   C2B32744  39.163  29.385   8.250
 5721POPC   C3B32745  39.166  29.366   7.950
 5721POPC   C4B32746  39.171  29.427   7.650
 5722POPC   NC332747  11.305  27.569   9.450
 5722POPC   PO432748  11.327  27.575   9.150
 5722POPC   GL132749  11.318  27.555   8.850
 5722POPC   GL232750  11.313  27.682   8.850
 5722POPC   C1A32751  11.301  27.560   8.550
 5722POPC   D2A32752  11.290  27.635   8.250
 5722POPC   C3A32753  11.293  27.596   7.950
 5722POPC   C4A32754  11.330  27.591   7.650
 5722POPC   C1B32755  11.403  27.807   8.550
 5722POPC   C2B32756  11.421  27.844   8.250
 5722POPC   C3B32757  11.410  27.801   7.950
 5722POPC   C4B32758  11.395  27.773   7.650
 5723POPC   NC332759  16.004  37.704   9.450
 5723POPC   PO432760  16.004  37.675   9.150
 5723POPC   GL132761  15.933  37.639   8.850
 5723POPC   GL232762  15.925  37.802   8.850
 5723POPC   C1A32763  15.994  37.713   8.550
 5723POPC   D2A32764  15.922  37.714   8.250
 5723POPC   C3A32765  15.981  37.726   7.950
 5723POPC   C4A32766  15.914  37.631   7.650
 5723POPC   C1B32767  15.953  37.946   8.550
 5723POPC   C2B32768  15.901  37.922   8.250
 5723POPC   C3B32769  15.972  37.910   7.950
 5723POPC   C4B32770  15.957  37.963   7.650
 5724POPC   NC332771  17.505  25.267   9.450
 5724POPC   PO432772  17.467  25.241   9.150
 5724POPC   GL132773  17.510  25.222   8.850
 5724POPC   GL232774  17.419  25.335   8.850
 5724POPC   C1A32775  17.495  25.281   8.550
 5724POPC   D2A32776  17.469  25.271   8.250
 5724POPC   C3A32777  17.509  25.240   7.950
 5724POPC   C4A32778  17.488  25.235   7.650
 5724POPC   C1B32779  17.380  25.449   8.550
 5724POPC   C2B32780  17.380  25.485   8.250
 5724POPC   C3B32781  17.347  25.483   7.950
 5724POPC   C4B32782  17.423  25.479   7.650
 5725POPC   NC332783  28.413   6.658   9.450
 5725POPC   PO432784  28.389   6.686   9.150
 5725POPC   GL132785  28.386   6.655   8.850
 5725POPC   GL232786  28.466   6.697   8.850
 5725POPC   C1A32787  28.383   6.671   8.550
 5725POPC   D2A32788  28.346   6.649   8.250
 5725POPC   C3A32789  28.362   6.649   7.950
 5725POPC   C4A32790  28.338   6.605   7.650
 5725POPC   C1B32791  28.608   6.774   8.550
 5725POPC   C2B32792  28.571   6.766   8.250
 5725POPC   C3B32793  28.577   6.750   7.950
 5725POPC   C4B32794  28.536   6.781   7.650
 5726POPC   NC332795   8.975   2.805   9.450
 5726POPC   PO432796   8.977   2.785   9.150
 5726POPC   GL132797   8.966   2.732   8.850
 5726POPC   GL232798   8.927   2.693   8.850
 5726POPC   C1A32799   8.924   2.721   8.550
 5726POPC   D2A32800   9.007   2.806   8.250
 5726POPC   C3A32801   8.932   2.750   7.950
 5726POPC   C4A32802   8.942   2.814   7.650
 5726POPC   C1B32803   8.903   2.523   8.550
 5726POPC   C2B32804   8.886   2.516   8.250
 5726POPC   C3B32805   8.886   2.480   7.950
 5726POPC   C4B32806   8.941   2.528   7.650
 5727POPC   NC332807  21.365   0.448   9.450
 5727POPC   PO432808  21.428   0.402   9.150
 5727POPC   GL132809  21.360   0.470   8.850
 5727POPC   GL232810  21.505   0.487   8.850
 5727POPC   C1A32811  21.433   0.448   8.550
 5727POPC   D2A32812  21.418   0.422   8.250
 5727POPC   C3A32813  21.356   0.471   7.950
 5727POPC   C4A32814  21.403   0.396   7.650
 5727POPC   C1B32815  21.562   0.583   8.550
 5727POPC   C2B32816  21.597   0.593   8.250
 5727POPC   C3B32817  21.589   0.565   7.950
 5727POPC   C4B32818  21.604   0.645   7.650
 5728POPC   NC332819  28.323  12.817   9.450
 5728POPC   PO432820  28.383  12.852   9.150
 5728POPC   GL132821  28.369  12.810   8.850
 5728POPC   GL232822  28.482  12.754   8.850
 5728POPC   C1A32823  28.385  12.902   8.550
 5728POPC   D2A32824  28.355  12.875   8.250
 5728POPC   C3A32825  28.416  12.842   7.950
 5728POPC   C4A32826  28.414  12.851   7.650
 5728POPC   C1B32827  28.501  12.692   8.550
 5728POPC   C2B32828  28.550  12.668   8.250
 5728POPC   C3B32829  28.498  12.608   7.950
 5728POPC   C4B32830  28.507  12.620   7.650
 5729POPC   NC332831   5.056  43.925   9.450
 5729POPC   PO432832   5.125  43.913   9.150
 5729POPC   GL132833   5.068  43.836   8.850
 5729POPC   GL232834   5.036  43.786   8.850
 5729POPC   C1A32835   5.110  43.926   8.550
 5729POPC   D2A32836   5.120  43.888   8.250
 5729POPC   C3A32837   5.058  43.867   7.950
 5729POPC   C4A32838   5.102  43.856   7.650
 5729POPC   C1B32839   5.063  43.620   8.550
 5729POPC   C2B32840   5.063  43.651   8.250
 5729POPC   C3B32841   5.047  43.627   7.950
 5729POPC   C4B32842   5.064  43.602   7.650
 5730POPC   NC332843  19.799  21.404   9.450
 5730POPC   PO432844  19.870  21.362   9.150
 5730POPC   GL132845  19.861  21.410   8.850
 5730POPC   GL232846  19.687  21.428   8.850
 5730POPC   C1A32847  19.817  21.399   8.550
 5730POPC   D2A32848  19.820  21.409   8.250
 5730POPC   C3A32849  19.827  21.358   7.950
 5730POPC   C4A32850  19.800  21.376   7.650
 5730POPC   C1B32851  19.593  21.419   8.550
 5730POPC   C2B32852  19.636  21.470   8.250
 5730POPC   C3B32853  19.555  21.495   7.950
 5730POPC   C4B32854  19.589  21.414   7.650
 5731POPC   NC332855  19.865  12.835   9.450
 5731POPC   PO432856  19.793  12.833   9.150
 5731POPC   GL132857  19.863  12.832   8.850
 5731POPC   GL232858  19.769  12.938   8.850
 5731POPC   C1A32859  19.846  12.891   8.550
 5731POPC   D2A32860  19.865  12.900   8.250
 5731POPC   C3A32861  19.827  12.855   7.950
 5731POPC   C4A32862  19.872  12.885   7.650
 5731POPC   C1B32863  19.671  13.019   8.550
 5731POPC   C2B32864  19.692  13.021   8.250
 5731POPC   C3B32865  19.648  13.056   7.950
 5731POPC   C4B32866  19.721  13.014   7.650
 5732POPC   NC332867  15.962  12.857   9.450
 5732POPC   PO432868  15.988  12.855   9.150
 5732POPC   GL132869  15.970  12.836   8.850
 5732POPC   GL232870  16.062  12.739   8.850
 5732POPC   C1A32871  15.956  12.829   8.550
 5732POPC   D2A32872  15.950  12.836   8.250
 5732POPC   C3A32873  15.947  12.866   7.950
 5732POPC   C4A32874  15.999  12.870   7.650
 5732POPC   C1B32875  16.104  12.628   8.550
 5732POPC   C2B32876  16.110  12.697   8.250
 5732POPC   C3B32877  16.149  12.694   7.950
 5732POPC   C4B32878  16.146  12.641   7.650
 5733POPC   NC332879  39.979  38.500   9.450
 5733POPC   PO432880  40.036  38.449   9.150
 5733POPC   GL132881  40.020  38.458   8.850
 5733POPC   GL232882  39.937  38.425   8.850
 5733POPC   C1A32883  40.042  38.459   8.550
 5733POPC   D2A32884  40.003  38.482   8.250
 5733POPC   C3A32885  39.974  38.460   7.950
 5733POPC   C4A32886  39.986  38.452   7.650
 5733POPC   C1B32887  39.744  38.417   8.550
 5733POPC   C2B32888  39.806  38.337   8.250
 5733POPC   C3B32889  39.727  38.409   7.950
 5733POPC   C4B32890  39.756  38.368   7.650
 5734POPC   NC332891   3.576  28.335   9.450
 5734POPC   PO432892   3.578  28.396   9.150
 5734POPC   GL132893   3.524  28.339   8.850
 5734POPC   GL232894   3.482  28.504   8.850
 5734POPC   C1A32895   3.548  28.380   8.550
 5734POPC   D2A32896   3.520  28.345   8.250
 5734POPC   C3A32897   3.574  28.338   7.950
 5734POPC   C4A32898   3.572  28.394   7.650
 5734POPC   C1B32899   3.468  28.645   8.550
 5734POPC   C2B32900   3.469  28.638   8.250
 5734POPC   C3B32901   3.474  28.600   7.950
 5734POPC   C4B32902   3.415  28.564   7.650
 5735POPC   NC332903  30.704  35.320   9.450
 5735POPC   PO432904  30.699  35.324   9.150
 5735POPC   GL132905  30.675  35.341   8.850
 5735POPC   GL232906  30.802  35.486   8.850
 5735POPC   C1A32907  30.687  35.400   8.550
 5735POPC   D2A32908  30.699  35.352   8.250
 5735POPC   C3A32909  30.713  35.352   7.950
 5735POPC   C4A32910  30.709  35.310   7.650
 5735POPC   C1B32911  30.850  35.565   8.550
 5735POPC   C2B32912  30.890  35.562   8.250
 5735POPC   C3B32913  30.916  35.577   7.950
 5735POPC   C4B32914  30.862  35.561   7.650
 5736POPC   NC332915  27.559  41.576   9.450
 5736POPC   PO432916  27.626  41.604   9.150
 5736POPC   GL132917  27.615  41.537   8.850
 5736POPC   GL232918  27.542  41.675   8.850
 5736POPC   C1A32919  27.574  41.584   8.550
 5736POPC   D2A32920  27.630  41.510   8.250
 5736POPC   C3A32921  27.581  41.530   7.950
 5736POPC   C4A32922  27.544  41.517   7.650
 5736POPC   C1B32923  27.474  41.752   8.550
 5736POPC   C2B32924  27.457  41.746   8.250
 5736POPC   C3B32925  27.417  41.751   7.950
 5736POPC   C4B32926  27.387  41.787   7.650
 5737POPC   NC332927  43.905  32.203   9.450
 5737POPC   PO432928  43.854  32.241   9.150
 5737POPC   GL132929  43.907  32.208   8.850
 5737POPC   GL232930  43.777  32.310   8.850
 5737POPC   C1A32931  43.909  32.289   8.550
 5737POPC   D2A32932  43.920  32.264   8.250
 5737POPC   C3A32933  43.846  32.264   7.950
 5737POPC   C4A32934  43.882  32.251   7.650
 5737POPC   C1B32935  43.716  32.441   8.550
 5737POPC   C2B32936  43.685  32.406   8.250
 5737POPC   C3B32937  43.734  32.446   7.950
 5737POPC   C4B32938  43.711  32.389   7.650
 5738POPC   NC332939  39.183   7.398   9.450
 5738POPC   PO432940  39.260   7.457   9.150
 5738POPC   GL132941  39.202   7.427   8.850
 5738POPC   GL232942  39.104   7.425   8.850
 5738POPC   C1A32943  39.270   7.439   8.550
 5738POPC   D2A32944  39.269   7.450   8.250
 5738POPC   C3A32945  39.197   7.394   7.950
 5738POPC   C4A32946  39.235   7.394   7.650
 5738POPC   C1B32947  38.999   7.486   8.550
 5738POPC   C2B32948  39.033   7.539   8.250
 5738POPC   C3B32949  39.043   7.494   7.950
 5738POPC   C4B32950  38.956   7.514   7.650
 5739POPC   NC332951  33.780  26.805   9.450
 5739POPC   PO432952  33.842  26.804   9.150
 5739POPC   GL132953  33.811  26.800   8.850
 5739POPC   GL232954  33.934  26.859   8.850
 5739POPC   C1A32955  33.819  26.792   8.550
 5739POPC   D2A32956  33.791  26.780   8.250
 5739POPC   C3A32957  33.813  26.849   7.950
 5739POPC   C4A32958  33.786  26.844   7.650
 5739POPC   C1B32959  34.041  26.797   8.550
 5739POPC   C2B32960  33.999  26.796   8.250
 5739POPC   C3B32961  34.053  26.855   7.950
 5739POPC   C4B32962  34.078  26.803   7.650
 5740POPC   NC332963   3.569  23.728   9.450
 5740POPC   PO432964   3.512  23.704   9.150
 5740POPC   GL132965   3.585  23.706   8.850
 5740POPC   GL232966   3.469  23.544   8.850
 5740POPC   C1A32967   3.537  23.722   8.550
 5740POPC   D2A32968   3.570  23.690   8.250
 5740POPC   C3A32969   3.579  23.753   7.950
 5740POPC   C4A32970   3.587  23.672   7.650
 5740POPC   C1B32971   3.498  23.456   8.550
 5740POPC   C2B32972   3.477  23.481   8.250
 5740POPC   C3B32973   3.508  23.446   7.950
 5740POPC   C4B32974   3.469  23.507   7.650
 5741POPC   NC332975   7.435  23.672   9.450
 5741POPC   PO432976   7.389  23.667   9.150
 5741POPC   GL132977   7.408  23.687   8.850
 5741POPC   GL232978   7.473  23.838   8.850
 5741POPC   C1A32979   7.381  23.715   8.550
 5741POPC   D2A32980   7.464  23.673   8.250
 5741POPC   C3A32981   7.406  23.743   7.950
 5741POPC   C4A32982   7.459  23.742   7.650
 5741POPC   C1B32983   7.431  23.981   8.550
 5741POPC   C2B32984   7.468  23.998   8.250
 5741POPC   C3B32985   7.403  23.923   7.950
 5741POPC   C4B32986   7.465  23.933   7.650
 5742POPC   NC332987   3.578  36.128   9.450
 5742POPC   PO432988   3.514  36.089   9.150
 5742POPC   GL132989   3.561  36.085   8.850
 5742POPC   GL232990   3.404  36.078   8.850
 5742POPC   C1A32991   3.527  36.165   8.550
 5742POPC   D2A32992   3.589  36.090   8.250
 5742POPC   C3A32993   3.505  36.147   7.950
 5742POPC   C4A32994   3.506  36.138   7.650
 5742POPC   C1B32995   3.324  35.938   8.550
 5742POPC   C2B32996   3.367  35.991   8.250
 5742POPC   C3B32997   3.364  35.960   7.950
 5742POPC   C4B32998   3.352  35.969   7.650
 5743POPC   NC332999  25.234  19.820   9.450
 5743POPC   PO433000  25.309  19.826   9.150
 5743POPC   GL133001  25.287  19.854   8.850
 5743POPC   GL233002  25.143  19.876   8.850
 5743POPC   C1A33003  25.281  19.858   8.550
 5743POPC   D2A33004  25.259  19.845   8.250
 5743POPC   C3A33005  25.296  19.811   7.950
 5743POPC   C4A33006  25.314  19.847   7.650
 5743POPC   C1B33007  24.999  19.960   8.550
 5743POPC   C2B33008  25.048  19.879   8.250
 5743POPC   C3B33009  25.054  19.912   7.950
 5743POPC   C4B33010  25.055  19.952   7.650
 5744POPC   NC333011  15.989  41.598   9.450
 5744POPC   PO433012  15.995  41.513   9.150
 5744POPC   GL133013  15.959  41.514   8.850
 5744POPC   GL233014  15.838  41.531   8.850
 5744POPC   C1A33015  15.950  41.539   8.550
 5744POPC   D2A33016  15.937  41.519   8.250
 5744POPC   C3A33017  15.954  41.540   7.950
 5744POPC   C4A33018  15.982  41.567   7.650
 5744POPC   C1B33019  15.677  41.505   8.550
 5744POPC   C2B33020  15.739  41.433   8.250
 5744POPC   C3B33021  15.750  41.440   7.950
 5744POPC   C4B33022  15.689  41.508   7.650
 5745POPC   NC333023  19.024  42.359   9.450
 5745POPC   PO433024  19.041  42.322   9.150
 5745POPC   GL133025  19.066  42.328   8.850
 5745POPC   GL233026  18.917  42.347   8.850
 5745POPC   C1A33027  19.016  42.366   8.550
 5745POPC   D2A33028  19.030  42.367   8.250
 5745POPC   C3A33029  19.091  42.343   7.950
 5745POPC   C4A33030  19.027  42.336   7.650
 5745POPC   C1B33031  18.788  42.269   8.550
 5745POPC   C2B33032  18.793  42.294   8.250
 5745POPC   C3B33033  18.822  42.259   7.950
 5745POPC   C4B33034  18.855  42.315   7.650
 5746POPC   NC333035   4.279  14.371   9.450
 5746POPC   PO433036   4.361  14.408   9.150
 5746POPC   GL133037   4.311  14.365   8.850
 5746POPC   GL233038   4.223  14.512   8.850
 5746POPC   C1A33039   4.352  14.364   8.550
 5746POPC   D2A33040   4.274  14.380   8.250
 5746POPC   C3A33041   4.320  14.375   7.950
 5746POPC   C4A33042   4.314  14.449   7.650
 5746POPC   C1B33043   4.180  14.617   8.550
 5746POPC   C2B33044   4.175  14.585   8.250
 5746POPC   C3B33045   4.202  14.655   7.950
 5746POPC   C4B33046   4.204  14.644   7.650
 5747POPC   NC333047  19.018  11.312   9.450
 5747POPC   PO433048  19.018  11.255   9.150
 5747POPC   GL133049  19.027  11.254   8.850
 5747POPC   GL233050  18.972  11.271   8.850
 5747POPC   C1A33051  19.089  11.347   8.550
 5747POPC   D2A33052  19.054  11.302   8.250
 5747POPC   C3A33053  19.077  11.269   7.950
 5747POPC   C4A33054  19.108  11.346   7.650
 5747POPC   C1B33055  18.847  11.174   8.550
 5747POPC   C2B33056  18.848  11.225   8.250
 5747POPC   C3B33057  18.829  11.199   7.950
 5747POPC   C4B33058  18.794  11.193   7.650
 5748POPC   NC333059  32.227  29.095   9.450
 5748POPC   PO433060  32.199  29.173   9.150
 5748POPC   GL133061  32.280  29.166   8.850
 5748POPC   GL233062  32.134  29.205   8.850
 5748POPC   C1A33063  32.263  29.163   8.550
 5748POPC   D2A33064  32.231  29.187   8.250
 5748POPC   C3A33065  32.252  29.162   7.950
 5748POPC   C4A33066  32.209  29.147   7.650
 5748POPC   C1B33067  32.056  29.270   8.550
 5748POPC   C2B33068  32.050  29.281   8.250
 5748POPC   C3B33069  32.017  29.228   7.950
 5748POPC   C4B33070  31.976  29.299   7.650
 5749POPC   NC333071  31.443  26.069   9.450
 5749POPC   PO433072  31.452  26.024   9.150
 5749POPC   GL133073  31.487  26.019   8.850
 5749POPC   GL233074  31.451  26.142   8.850
 5749POPC   C1A33075  31.449  26.059   8.550
 5749POPC   D2A33076  31.445  26.086   8.250
 5749POPC   C3A33077  31.503  26.027   7.950
 5749POPC   C4A33078  31.447  26.090   7.650
 5749POPC   C1B33079  31.361  26.289   8.550
 5749POPC   C2B33080  31.321  26.253   8.250
 5749POPC   C3B33081  31.302  26.290   7.950
 5749POPC   C4B33082  31.327  26.288   7.650
 5750POPC   NC333083  19.028  40.764   9.450
 5750POPC   PO433084  19.102  40.813   9.150
 5750POPC   GL133085  19.035  40.793   8.850
 5750POPC   GL233086  19.201  40.837   8.850
 5750POPC   C1A33087  19.060  40.769   8.550
 5750POPC   D2A33088  19.019  40.805   8.250
 5750POPC   C3A33089  19.087  40.792   7.950
 5750POPC   C4A33090  19.101  40.819   7.650
 5750POPC   C1B33091  19.263  40.802   8.550
 5750POPC   C2B33092  19.292  40.797   8.250
 5750POPC   C3B33093  19.335  40.799   7.950
 5750POPC   C4B33094  19.334  40.768   7.650
 5751POPC   NC333095  36.894   5.882   9.450
 5751POPC   PO433096  36.881   5.839   9.150
 5751POPC   GL133097  36.879   5.918   8.850
 5751POPC   GL233098  36.943   5.995   8.850
 5751POPC   C1A33099  36.887   5.855   8.550
 5751POPC   D2A33100  36.909   5.821   8.250
 5751POPC   C3A33101  36.857   5.866   7.950
 5751POPC   C4A33102  36.914   5.910   7.650
 5751POPC   C1B33103  36.976   6.104   8.550
 5751POPC   C2B33104  37.008   6.051   8.250
 5751POPC   C3B33105  37.030   6.076   7.950
 5751POPC   C4B33106  36.952   6.065   7.650
 5752POPC   NC333107   5.869  26.814   9.450
 5752POPC   PO433108   5.846  26.803   9.150
 5752POPC   GL133109   5.830  26.842   8.850
 5752POPC   GL233110   5.895  26.911   8.850
 5752POPC   C1A33111   5.916  26.851   8.550
 5752POPC   D2A33112   5.912  26.813   8.250
 5752POPC   C3A33113   5.850  26.773   7.950
 5752POPC   C4A33114   5.879  26.827   7.650
 5752POPC   C1B33115   5.860  27.032   8.550
 5752POPC   C2B33116   5.950  27.045   8.250
 5752POPC   C3B33117   5.942  27.081   7.950
 5752POPC   C4B33118   5.920  27.092   7.650
 5753POPC   NC333119  25.251   9.735   9.450
 5753POPC   PO433120  25.221   9.775   9.150
 5753POPC   GL133121  25.287   9.790   8.850
 5753POPC   GL233122  25.232   9.879   8.850
 5753POPC   C1A33123  25.295   9.741   8.550
 5753POPC   D2A33124  25.251   9.790   8.250
 5753POPC   C3A33125  25.285   9.776   7.950
 5753POPC   C4A33126  25.243   9.704   7.650
 5753POPC   C1B33127  25.229   9.962   8.550
 5753POPC   C2B33128  25.197  10.003   8.250
 5753POPC   C3B33129  25.221   9.951   7.950
 5753POPC   C4B33130  25.217  10.032   7.650
 5754POPC   NC333131  33.004  21.398   9.450
 5754POPC   PO433132  33.016  21.395   9.150
 5754POPC   GL133133  33.002  21.404   8.850
 5754POPC   GL233134  33.106  21.346   8.850
 5754POPC   C1A33135  32.998  21.389   8.550
 5754POPC   D2A33136  32.993  21.384   8.250
 5754POPC   C3A33137  32.986  21.409   7.950
 5754POPC   C4A33138  33.025  21.382   7.650
 5754POPC   C1B33139  33.244  21.367   8.550
 5754POPC   C2B33140  33.317  21.370   8.250
 5754POPC   C3B33141  33.292  21.381   7.950
 5754POPC   C4B33142  33.274  21.368   7.650
 5755POPC   NC333143   4.325  12.889   9.450
 5755POPC   PO433144   4.348  12.814   9.150
 5755POPC   GL133145   4.271  12.860   8.850
 5755POPC   GL233146   4.209  12.798   8.850
 5755POPC   C1A33147   4.277  12.891   8.550
 5755POPC   D2A33148   4.286  12.884   8.250
 5755POPC   C3A33149   4.279  12.864   7.950
 5755POPC   C4A33150   4.288  12.840   7.650
 5755POPC   C1B33151   4.113  12.716   8.550
 5755POPC   C2B33152   4.172  12.668   8.250
 5755POPC   C3B33153   4.148  12.656   7.950
 5755POPC   C4B33154   4.177  12.647   7.650
 5756POPC   NC333155   5.903  29.139   9.450
 5756POPC   PO433156   5.891  29.168   9.150
 5756POPC   GL133157   5.893  29.192   8.850
 5756POPC   GL233158   5.836  29.079   8.850
 5756POPC   C1A33159   5.899  29.167   8.550
 5756POPC   D2A33160   5.822  29.174   8.250
 5756POPC   C3A33161   5.854  29.131   7.950
 5756POPC   C4A33162   5.850  29.129   7.650
 5756POPC   C1B33163   5.804  28.924   8.550
 5756POPC   C2B33164   5.775  28.891   8.250
 5756POPC   C3B33165   5.730  28.958   7.950
 5756POPC   C4B33166   5.757  28.909   7.650
 5757POPC   NC333167  22.910  39.265   9.450
 5757POPC   PO433168  22.907  39.203   9.150
 5757POPC   GL133169  22.955  39.217   8.850
 5757POPC   GL233170  22.846  39.120   8.850
 5757POPC   C1A33171  22.895  39.247   8.550
 5757POPC   D2A33172  22.892  39.239   8.250
 5757POPC   C3A33173  22.915  39.277   7.950
 5757POPC   C4A33174  22.908  39.276   7.650
 5757POPC   C1B33175  22.723  39.063   8.550
 5757POPC   C2B33176  22.716  39.140   8.250
 5757POPC   C3B33177  22.687  39.138   7.950
 5757POPC   C4B33178  22.713  39.089   7.650
 5758POPC   NC333179  39.252   5.890   9.450
 5758POPC   PO433180  39.257   5.872   9.150
 5758POPC   GL133181  39.248   5.858   8.850
 5758POPC   GL233182  39.083   5.925   8.850
 5758POPC   C1A33183  39.211   5.836   8.550
 5758POPC   D2A33184  39.219   5.826   8.250
 5758POPC   C3A33185  39.237   5.888   7.950
 5758POPC   C4A33186  39.182   5.845   7.650
 5758POPC   C1B33187  39.019   5.884   8.550
 5758POPC   C2B33188  39.006   5.927   8.250
 5758POPC   C3B33189  39.030   5.936   7.950
 5758POPC   C4B33190  39.030   5.935   7.650
 5759POPC   NC333191  41.603  43.103   9.450
 5759POPC   PO433192  41.601  43.093   9.150
 5759POPC   GL133193  41.604  43.142   8.850
 5759POPC   GL233194  41.626  43.038   8.850
 5759POPC   C1A33195  41.557  43.141   8.550
 5759POPC   D2A33196  41.583  43.104   8.250
 5759POPC   C3A33197  41.585  43.130   7.950
 5759POPC   C4A33198  41.585  43.065   7.650
 5759POPC   C1B33199  41.727  42.942   8.550
 5759POPC   C2B33200  41.722  42.934   8.250
 5759POPC   C3B33201  41.713  42.954   7.950
 5759POPC   C4B33202  41.722  42.902   7.650
 5760POPC   NC333203  22.174  36.899   9.450
 5760POPC   PO433204  22.163  36.877   9.150
 5760POPC   GL133205  22.120  36.856   8.850
 5760POPC   GL233206  22.212  36.783   8.850
 5760POPC   C1A33207  22.197  36.897   8.550
 5760POPC   D2A33208  22.141  36.932   8.250
 5760POPC   C3A33209  22.202  36.934   7.950
 5760POPC   C4A33210  22.176  36.871   7.650
 5760POPC   C1B33211  22.308  36.645   8.550
 5760POPC   C2B33212  22.279  36.670   8.250
 5760POPC   C3B33213  22.276  36.668   7.950
 5760POPC   C4B33214  22.253  36.677   7.650
 5761POPC   NC333215   5.851  28.387   9.450
 5761POPC   PO433216   5.872  28.360   9.150
 5761POPC   GL133217   5.851  28.346   8.850
 5761POPC   GL233218   5.936  28.442   8.850
 5761POPC   C1A33219   5.828  28.336   8.550
 5761POPC   D2A33220   5.895  28.343   8.250
 5761POPC   C3A33221   5.863  28.410   7.950
 5761POPC   C4A33222   5.916  28.366   7.650
 5761POPC   C1B33223   5.957  28.618   8.550
 5761POPC   C2B33224   6.024  28.644   8.250
 5761POPC   C3B33225   5.974  28.565   7.950
 5761POPC   C4B33226   5.941  28.614   7.650
 5762POPC   NC333227   6.613   2.723   9.450
 5762POPC   PO433228   6.687   2.728   9.150
 5762POPC   GL133229   6.667   2.723   8.850
 5762POPC   GL233230   6.580   2.600   8.850
 5762POPC   C1A33231   6.669   2.794   8.550
 5762POPC   D2A33232   6.661   2.720   8.250
 5762POPC   C3A33233   6.622   2.732   7.950
 5762POPC   C4A33234   6.626   2.755   7.650
 5762POPC   C1B33235   6.622   2.539   8.550
 5762POPC   C2B33236   6.523   2.560   8.250
 5762POPC   C3B33237   6.600   2.519   7.950
 5762POPC   C4B33238   6.530   2.558   7.650
 5763POPC   NC333239  26.799  25.227   9.450
 5763POPC   PO433240  26.831  25.306   9.150
 5763POPC   GL133241  26.791  25.266   8.850
 5763POPC   GL233242  26.718  25.291   8.850
 5763POPC   C1A33243  26.859  25.286   8.550
 5763POPC   D2A33244  26.848  25.287   8.250
 5763POPC   C3A33245  26.866  25.250   7.950
 5763POPC   C4A33246  26.784  25.263   7.650
 5763POPC   C1B33247  26.646  25.430   8.550
 5763POPC   C2B33248  26.659  25.378   8.250
 5763POPC   C3B33249  26.599  25.368   7.950
 5763POPC   C4B33250  26.632  25.401   7.650
 5764POPC   NC333251  24.518  13.618   9.450
 5764POPC   PO433252  24.506  13.622   9.150
 5764POPC   GL133253  24.486  13.596   8.850
 5764POPC   GL233254  24.509  13.523   8.850
 5764POPC   C1A33255  24.496  13.626   8.550
 5764POPC   D2A33256  24.480  13.590   8.250
 5764POPC   C3A33257  24.529  13.619   7.950
 5764POPC   C4A33258  24.462  13.665   7.650
 5764POPC   C1B33259  24.505  13.348   8.550
 5764POPC   C2B33260  24.504  13.418   8.250
 5764POPC   C3B33261  24.569  13.386   7.950
 5764POPC   C4B33262  24.499  13.340   7.650
 5765POPC   NC333263  29.190  26.777   9.450
 5765POPC   PO433264  29.131  26.771   9.150
 5765POPC   GL133265  29.142  26.826   8.850
 5765POPC   GL233266  29.072  26.703   8.850
 5765POPC   C1A33267  29.134  26.844   8.550
 5765POPC   D2A33268  29.141  26.837   8.250
 5765POPC   C3A33269  29.097  26.769   7.950
 5765POPC   C4A33270  29.153  26.813   7.650
 5765POPC   C1B33271  29.101  26.616   8.550
 5765POPC   C2B33272  29.020  26.536   8.250
 5765POPC   C3B33273  29.083  26.590   7.950
 5765POPC   C4B33274  29.091  26.565   7.650
 5766POPC   NC333275  36.882  22.916   9.450
 5766POPC   PO433276  36.886  22.896   9.150
 5766POPC   GL133277  36.952  22.939   8.850
 5766POPC   GL233278  36.791  23.053   8.850
 5766POPC   C1A33279  36.883  22.905   8.550
 5766POPC   D2A33280  36.874  22.937   8.250
 5766POPC   C3A33281  36.873  22.912   7.950
 5766POPC   C4A33282  36.910  22.927   7.650
 5766POPC   C1B33283  36.693  23.086   8.550
 5766POPC   C2B33284  36.714  23.135   8.250
 5766POPC   C3B33285  36.696  23.061   7.950
 5766POPC   C4B33286  36.721  23.058   7.650
 5767POPC   NC333287  23.733  11.287   9.450
 5767POPC   PO433288  23.712  11.292   9.150
 5767POPC   GL133289  23.729  11.347   8.850
 5767POPC   GL233290  23.823  11.362   8.850
 5767POPC   C1A33291  23.764  11.283   8.550
 5767POPC   D2A33292  23.711  11.257   8.250
 5767POPC   C3A33293  23.670  11.302   7.950
 5767POPC   C4A33294  23.756  11.297   7.650
 5767POPC   C1B33295  23.863  11.531   8.550
 5767POPC   C2B33296  23.891  11.511   8.250
 5767POPC   C3B33297  23.847  11.534   7.950
 5767POPC   C4B33298  23.875  11.456   7.650
 5768POPC   NC333299   2.807  15.995   9.450
 5768POPC   PO433300   2.788  15.929   9.150
 5768POPC   GL133301   2.749  15.959   8.850
 5768POPC   GL233302   2.824  15.862   8.850
 5768POPC   C1A33303   2.806  15.987   8.550
 5768POPC   D2A33304   2.773  15.951   8.250
 5768POPC   C3A33305   2.773  15.964   7.950
 5768POPC   C4A33306   2.736  15.997   7.650
 5768POPC   C1B33307   2.887  15.739   8.550
 5768POPC   C2B33308   2.868  15.787   8.250
 5768POPC   C3B33309   2.882  15.761   7.950
 5768POPC   C4B33310   2.919  15.774   7.650
 5769POPC   NC333311  31.501  35.342   9.450
 5769POPC   PO433312  31.509  35.304   9.150
 5769POPC   GL133313  31.426  35.360   8.850
 5769POPC   GL233314  31.531  35.291   8.850
 5769POPC   C1A33315  31.425  35.383   8.550
 5769POPC   D2A33316  31.455  35.335   8.250
 5769POPC   C3A33317  31.437  35.325   7.950
 5769POPC   C4A33318  31.468  35.329   7.650
 5769POPC   C1B33319  31.699  35.138   8.550
 5769POPC   C2B33320  31.617  35.169   8.250
 5769POPC   C3B33321  31.697  35.212   7.950
 5769POPC   C4B33322  31.652  35.147   7.650
 5770POPC   NC333323  41.550  12.841   9.450
 5770POPC   PO433324  41.595  12.833   9.150
 5770POPC   GL133325  41.600  12.814   8.850
 5770POPC   GL233326  41.629  12.725   8.850
 5770POPC   C1A33327  41.528  12.859   8.550
 5770POPC   D2A33328  41.573  12.805   8.250
 5770POPC   C3A33329  41.594  12.892   7.950
 5770POPC   C4A33330  41.531  12.880   7.650
 5770POPC   C1B33331  41.748  12.680   8.550
 5770POPC   C2B33332  41.713  12.624   8.250
 5770POPC   C3B33333  41.693  12.661   7.950
 5770POPC   C4B33334  41.727  12.625   7.650
 5771POPC   NC333335  11.299  25.257   9.450
 5771POPC   PO433336  11.281  25.268   9.150
 5771POPC   GL133337  11.258  25.298   8.850
 5771POPC   GL233338  11.306  25.172   8.850
 5771POPC   C1A33339  11.326  25.263   8.550
 5771POPC   D2A33340  11.290  25.232   8.250
 5771POPC   C3A33341  11.253  25.283   7.950
 5771POPC   C4A33342  11.271  25.255   7.650
 5771POPC   C1B33343  11.228  25.014   8.550
 5771POPC   C2B33344  11.229  25.019   8.250
 5771POPC   C3B33345  11.216  25.028   7.950
 5771POPC   C4B33346  11.190  25.031   7.650
 5772POPC   NC333347  23.688   5.050   9.450
 5772POPC   PO433348  23.748   5.132   9.150
 5772POPC   GL133349  23.736   5.132   8.850
 5772POPC   GL233350  23.807   4.946   8.850
 5772POPC   C1A33351  23.712   5.062   8.550
 5772POPC   D2A33352  23.691   5.135   8.250
 5772POPC   C3A33353  23.675   5.048   7.950
 5772POPC   C4A33354  23.690   5.049   7.650
 5772POPC   C1B33355  23.804   4.834   8.550
 5772POPC   C2B33356  23.821   4.894   8.250
 5772POPC   C3B33357  23.837   4.843   7.950
 5772POPC   C4B33358  23.827   4.830   7.650
 5773POPC   NC333359  12.827  43.089   9.450
 5773POPC   PO433360  12.809  43.102   9.150
 5773POPC   GL133361  12.820  43.140   8.850
 5773POPC   GL233362  12.911  43.268   8.850
 5773POPC   C1A33363  12.880  43.107   8.550
 5773POPC   D2A33364  12.899  43.071   8.250
 5773POPC   C3A33365  12.808  43.081   7.950
 5773POPC   C4A33366  12.815  43.139   7.650
 5773POPC   C1B33367  12.901  43.330   8.550
 5773POPC   C2B33368  12.950  43.357   8.250
 5773POPC   C3B33369  12.858  43.308   7.950
 5773POPC   C4B33370  12.920  43.371   7.650
 5774POPC   NC333371  28.357  37.630   9.450
 5774POPC   PO433372  28.344  37.680   9.150
 5774POPC   GL133373  28.407  37.710   8.850
 5774POPC   GL233374  28.468  37.779   8.850
 5774POPC   C1A33375  28.327  37.697   8.550
 5774POPC   D2A33376  28.379  37.710   8.250
 5774POPC   C3A33377  28.377  37.727   7.950
 5774POPC   C4A33378  28.415  37.640   7.650
 5774POPC   C1B33379  28.560  37.826   8.550
 5774POPC   C2B33380  28.544  37.919   8.250
 5774POPC   C3B33381  28.498  37.834   7.950
 5774POPC   C4B33382  28.515  37.882   7.650
 5775POPC   NC333383  44.675  29.962   9.450
 5775POPC   PO433384  44.615  29.901   9.150
 5775POPC   GL133385  44.660  29.952   8.850
 5775POPC   GL233386  44.621  29.793   8.850
 5775POPC   C1A33387  44.618  29.924   8.550
 5775POPC   D2A33388  44.613  29.893   8.250
 5775POPC   C3A33389  44.708  29.906   7.950
 5775POPC   C4A33390  44.662  29.934   7.650
 5775POPC   C1B33391  44.713  29.622   8.550
 5775POPC   C2B33392  44.679  29.705   8.250
 5775POPC   C3B33393  44.694  29.650   7.950
 5775POPC   C4B33394  44.694  29.681   7.650
 5776POPC   NC333395  22.149  17.526   9.450
 5776POPC   PO433396  22.124  17.520   9.150
 5776POPC   GL133397  22.211  17.532   8.850
 5776POPC   GL233398  22.218  17.619   8.850
 5776POPC   C1A33399  22.149  17.547   8.550
 5776POPC   D2A33400  22.118  17.504   8.250
 5776POPC   C3A33401  22.188  17.531   7.950
 5776POPC   C4A33402  22.166  17.528   7.650
 5776POPC   C1B33403  22.349  17.682   8.550
 5776POPC   C2B33404  22.343  17.670   8.250
 5776POPC   C3B33405  22.257  17.670   7.950
 5776POPC   C4B33406  22.335  17.719   7.650
 5777POPC   NC333407  36.924  14.414   9.450
 5777POPC   PO433408  36.952  14.441   9.150
 5777POPC   GL133409  36.924  14.397   8.850
 5777POPC   GL233410  37.033  14.334   8.850
 5777POPC   C1A33411  36.927  14.379   8.550
 5777POPC   D2A33412  36.919  14.433   8.250
 5777POPC   C3A33413  36.898  14.410   7.950
 5777POPC   C4A33414  36.864  14.363   7.650
 5777POPC   C1B33415  37.072  14.280   8.550
 5777POPC   C2B33416  37.059  14.274   8.250
 5777POPC   C3B33417  37.070  14.200   7.950
 5777POPC   C4B33418  37.115  14.274   7.650
 5778POPC   NC333419   8.930  22.156   9.450
 5778POPC   PO433420   8.941  22.155   9.150
 5778POPC   GL133421   8.986  22.196   8.850
 5778POPC   GL233422   8.811  22.154   8.850
 5778POPC   C1A33423   8.933  22.155   8.550
 5778POPC   D2A33424   8.988  22.133   8.250
 5778POPC   C3A33425   8.996  22.185   7.950
 5778POPC   C4A33426   8.943  22.155   7.650
 5778POPC   C1B33427   8.718  22.075   8.550
 5778POPC   C2B33428   8.732  22.083   8.250
 5778POPC   C3B33429   8.775  22.074   7.950
 5778POPC   C4B33430   8.722  22.043   7.650
 5779POPC   NC333431  29.923  43.112   9.450
 5779POPC   PO433432  29.934  43.091   9.150
 5779POPC   GL133433  29.885  43.117   8.850
 5779POPC   GL233434  29.964  43.035   8.850
 5779POPC   C1A33435  29.959  43.155   8.550
 5779POPC   D2A33436  29.915  43.087   8.250
 5779POPC   C3A33437  29.955  43.061   7.950
 5779POPC   C4A33438  29.892  43.121   7.650
 5779POPC   C1B33439  29.961  42.832   8.550
 5779POPC   C2B33440  29.999  42.829   8.250
 5779POPC   C3B33441  30.017  42.844   7.950
 5779POPC   C4B33442  29.999  42.855   7.650
 5780POPC   NC333443  31.432  23.685   9.450
 5780POPC   PO433444  31.471  23.717   9.150
 5780POPC   GL133445  31.443  23.692   8.850
 5780POPC   GL233446  31.620  23.758   8.850
 5780POPC   C1A33447  31.470  23.757   8.550
 5780POPC   D2A33448  31.442  23.750   8.250
 5780POPC   C3A33449  31.468  23.689   7.950
 5780POPC   C4A33450  31.456  23.667   7.650
 5780POPC   C1B33451  31.758  23.697   8.550
 5780POPC   C2B33452  31.764  23.758   8.250
 5780POPC   C3B33453  31.754  23.749   7.950
 5780POPC   C4B33454  31.684  23.777   7.650
 5781POPC   NC333455  12.046  28.321   9.450
 5781POPC   PO433456  12.032  28.393   9.150
 5781POPC   GL133457  12.030  28.396   8.850
 5781POPC   GL233458  12.137  28.313   8.850
 5781POPC   C1A33459  12.038  28.321   8.550
 5781POPC   D2A33460  12.065  28.333   8.250
 5781POPC   C3A33461  12.048  28.389   7.950
 5781POPC   C4A33462  12.040  28.320   7.650
 5781POPC   C1B33463  12.276  28.250   8.550
 5781POPC   C2B33464  12.267  28.292   8.250
 5781POPC   C3B33465  12.274  28.243   7.950
 5781POPC   C4B33466  12.315  28.240   7.650
 5782POPC   NC333467  29.166  20.640   9.450
 5782POPC   PO433468  29.103  20.612   9.150
 5782POPC   GL133469  29.160  20.636   8.850
 5782POPC   GL233470  29.070  20.725   8.850
 5782POPC   C1A33471  29.143  20.591   8.550
 5782POPC   D2A33472  29.193  20.579   8.250
 5782POPC   C3A33473  29.099  20.564   7.950
 5782POPC   C4A33474  29.161  20.609   7.650
 5782POPC   C1B33475  29.102  20.806   8.550
 5782POPC   C2B33476  29.099  20.867   8.250
 5782POPC   C3B33477  29.063  20.875   7.950
 5782POPC   C4B33478  29.014  20.891   7.650
 5783POPC   NC333479  19.033  34.568   9.450
 5783POPC   PO433480  19.036  34.617   9.150
 5783POPC   GL133481  19.098  34.544   8.850
 5783POPC   GL233482  19.184  34.571   8.850
 5783POPC   C1A33483  19.078  34.591   8.550
 5783POPC   D2A33484  19.043  34.569   8.250
 5783POPC   C3A33485  19.031  34.527   7.950
 5783POPC   C4A33486  19.102  34.534   7.650
 5783POPC   C1B33487  19.288  34.657   8.550
 5783POPC   C2B33488  19.266  34.657   8.250
 5783POPC   C3B33489  19.345  34.657   7.950
 5783POPC   C4B33490  19.299  34.606   7.650
 5784POPC   NC333491  27.576  15.918   9.450
 5784POPC   PO433492  27.580  16.001   9.150
 5784POPC   GL133493  27.575  15.926   8.850
 5784POPC   GL233494  27.730  15.969   8.850
 5784POPC   C1A33495  27.565  15.921   8.550
 5784POPC   D2A33496  27.565  15.951   8.250
 5784POPC   C3A33497  27.630  15.999   7.950
 5784POPC   C4A33498  27.548  15.946   7.650
 5784POPC   C1B33499  27.854  16.042   8.550
 5784POPC   C2B33500  27.776  16.075   8.250
 5784POPC   C3B33501  27.788  16.011   7.950
 5784POPC   C4B33502  27.793  16.094   7.650
 5785POPC   NC333503  33.779  36.147   9.450
 5785POPC   PO433504  33.772  36.138   9.150
 5785POPC   GL133505  33.845  36.134   8.850
 5785POPC   GL233506  33.856  36.188   8.850
 5785POPC   C1A33507  33.763  36.113   8.550
 5785POPC   D2A33508  33.842  36.175   8.250
 5785POPC   C3A33509  33.793  36.104   7.950
 5785POPC   C4A33510  33.755  36.103   7.650
 5785POPC   C1B33511  33.915  36.348   8.550
 5785POPC   C2B33512  33.975  36.343   8.250
 5785POPC   C3B33513  33.932  36.310   7.950
 5785POPC   C4B33514  33.984  36.336   7.650
 5786POPC   NC333515  12.089  30.708   9.450
 5786POPC   PO433516  12.070  30.683   9.150
 5786POPC   GL133517  12.028  30.655   8.850
 5786POPC   GL233518  12.029  30.551   8.850
 5786POPC   C1A33519  12.121  30.734   8.550
 5786POPC   D2A33520  12.097  30.665   8.250
 5786POPC   C3A33521  12.083  30.711   7.950
 5786POPC   C4A33522  12.030  30.655   7.650
 5786POPC   C1B33523  11.922  30.444   8.550
 5786POPC   C2B33524  11.967  30.497   8.250
 5786POPC   C3B33525  11.898  30.517   7.950
 5786POPC   C4B33526  11.978  30.484   7.650
 5787POPC   NC333527  24.525  33.815   9.450
 5787POPC   PO433528  24.477  33.780   9.150
 5787POPC   GL133529  24.476  33.796   8.850
 5787POPC   GL233530  24.464  33.940   8.850
 5787POPC   C1A33531  24.472  33.848   8.550
 5787POPC   D2A33532  24.538  33.801   8.250
 5787POPC   C3A33533  24.491  33.828   7.950
 5787POPC   C4A33534  24.528  33.816   7.650
 5787POPC   C1B33535  24.389  34.058   8.550
 5787POPC   C2B33536  24.401  33.988   8.250
 5787POPC   C3B33537  24.428  34.075   7.950
 5787POPC   C4B33538  24.419  34.015   7.650
 5788POPC   NC333539   1.210  19.881   9.450
 5788POPC   PO433540   1.166  19.814   9.150
 5788POPC   GL133541   1.173  19.805   8.850
 5788POPC   GL233542   1.072  19.813   8.850
 5788POPC   C1A33543   1.195  19.882   8.550
 5788POPC   D2A33544   1.224  19.872   8.250
 5788POPC   C3A33545   1.255  19.878   7.950
 5788POPC   C4A33546   1.249  19.874   7.650
 5788POPC   C1B33547   0.978  19.759   8.550
 5788POPC   C2B33548   0.978  19.748   8.250
 5788POPC   C3B33549   0.946  19.738   7.950
 5788POPC   C4B33550   0.942  19.749   7.650
 5789POPC   NC333551  39.237   6.620   9.450
 5789POPC   PO433552  39.248   6.605   9.150
 5789POPC   GL133553  39.243   6.690   8.850
 5789POPC   GL233554  39.363   6.689   8.850
 5789POPC   C1A33555  39.229   6.623   8.550
 5789POPC   D2A33556  39.218   6.690   8.250
 5789POPC   C3A33557  39.267   6.640   7.950
 5789POPC   C4A33558  39.247   6.683   7.650
 5789POPC   C1B33559  39.444   6.692   8.550
 5789POPC   C2B33560  39.464   6.671   8.250
 5789POPC   C3B33561  39.495   6.651   7.950
 5789POPC   C4B33562  39.479   6.642   7.650
 5790POPC   NC333563   5.837  44.709   9.450
 5790POPC   PO433564   5.855  44.652   9.150
 5790POPC   GL133565   5.824  44.691   8.850
 5790POPC   GL233566   5.809  44.563   8.850
 5790POPC   C1A33567   5.906  44.626   8.550
 5790POPC   D2A33568   5.919  44.669   8.250
 5790POPC   C3A33569   5.880  44.623   7.950
 5790POPC   C4A33570   5.871  44.675   7.650
 5790POPC   C1B33571   5.638  44.551   8.550
 5790POPC   C2B33572   5.691  44.555   8.250
 5790POPC   C3B33573   5.697  44.538   7.950
 5790POPC   C4B33574   5.675  44.550   7.650
 5791POPC   NC333575  26.040  22.967   9.450
 5791POPC   PO433576  26.065  22.918   9.150
 5791POPC   GL133577  26.052  22.956   8.850
 5791POPC   GL233578  26.159  23.072   8.850
 5791POPC   C1A33579  26.016  22.947   8.550
 5791POPC   D2A33580  26.028  22.924   8.250
 5791POPC   C3A33581  26.008  22.953   7.950
 5791POPC   C4A33582  26.053  22.927   7.650
 5791POPC   C1B33583  26.207  23.117   8.550
 5791POPC   C2B33584  26.211  23.129   8.250
 5791POPC   C3B33585  26.183  23.078   7.950
 5791POPC   C4B33586  26.259  23.149   7.650
 5792POPC   NC333587  36.934  18.256   9.450
 5792POPC   PO433588  36.951  18.301   9.150
 5792POPC   GL133589  36.910  18.289   8.850
 5792POPC   GL233590  36.839  18.352   8.850
 5792POPC   C1A33591  36.875  18.281   8.550
 5792POPC   D2A33592  36.856  18.324   8.250
 5792POPC   C3A33593  36.947  18.238   7.950
 5792POPC   C4A33594  36.903  18.302   7.650
 5792POPC   C1B33595  36.807  18.512   8.550
 5792POPC   C2B33596  36.763  18.486   8.250
 5792POPC   C3B33597  36.823  18.477   7.950
 5792POPC   C4B33598  36.779  18.473   7.650
 5793POPC   NC333599  27.558  10.486   9.450
 5793POPC   PO433600  27.578  10.522   9.150
 5793POPC   GL133601  27.595  10.492   8.850
 5793POPC   GL233602  27.516  10.452   8.850
 5793POPC   C1A33603  27.610  10.541   8.550
 5793POPC   D2A33604  27.573  10.539   8.250
 5793POPC   C3A33605  27.565  10.535   7.950
 5793POPC   C4A33606  27.615  10.500   7.650
 5793POPC   C1B33607  27.372  10.302   8.550
 5793POPC   C2B33608  27.433  10.334   8.250
 5793POPC   C3B33609  27.382  10.343   7.950
 5793POPC   C4B33610  27.385  10.341   7.650
 5794POPC   NC333611  30.738  19.029   9.450
 5794POPC   PO433612  30.653  19.029   9.150
 5794POPC   GL133613  30.744  19.071   8.850
 5794POPC   GL233614  30.691  18.921   8.850
 5794POPC   C1A33615  30.662  19.068   8.550
 5794POPC   D2A33616  30.715  19.028   8.250
 5794POPC   C3A33617  30.715  19.057   7.950
 5794POPC   C4A33618  30.727  19.087   7.650
 5794POPC   C1B33619  30.643  18.852   8.550
 5794POPC   C2B33620  30.705  18.785   8.250
 5794POPC   C3B33621  30.726  18.765   7.950
 5794POPC   C4B33622  30.642  18.780   7.650
 5795POPC   NC333623  19.855   8.193   9.450
 5795POPC   PO433624  19.823   8.192   9.150
 5795POPC   GL133625  19.799   8.162   8.850
 5795POPC   GL233626  19.887   8.313   8.850
 5795POPC   C1A33627  19.822   8.201   8.550
 5795POPC   D2A33628  19.820   8.168   8.250
 5795POPC   C3A33629  19.797   8.241   7.950
 5795POPC   C4A33630  19.785   8.164   7.650
 5795POPC   C1B33631  19.945   8.411   8.550
 5795POPC   C2B33632  19.945   8.428   8.250
 5795POPC   C3B33633  19.981   8.406   7.950
 5795POPC   C4B33634  20.036   8.381   7.650
 5796POPC   NC333635  29.141  36.945   9.450
 5796POPC   PO433636  29.146  36.938   9.150
 5796POPC   GL133637  29.161  36.928   8.850
 5796POPC   GL233638  29.073  36.803   8.850
 5796POPC   C1A33639  29.099  36.860   8.550
 5796POPC   D2A33640  29.158  36.895   8.250
 5796POPC   C3A33641  29.193  36.876   7.950
 5796POPC   C4A33642  29.119  36.875   7.650
 5796POPC   C1B33643  29.069  36.654   8.550
 5796POPC   C2B33644  29.047  36.704   8.250
 5796POPC   C3B33645  29.109  36.705   7.950
 5796POPC   C4B33646  29.061  36.690   7.650
 5797POPC   NC333647  20.569   1.182   9.450
 5797POPC   PO433648  20.612   1.180   9.150
 5797POPC   GL133649  20.630   1.168   8.850
 5797POPC   GL233650  20.519   1.148   8.850
 5797POPC   C1A33651  20.622   1.243   8.550
 5797POPC   D2A33652  20.647   1.228   8.250
 5797POPC   C3A33653  20.588   1.213   7.950
 5797POPC   C4A33654  20.563   1.192   7.650
 5797POPC   C1B33655  20.451   1.056   8.550
 5797POPC   C2B33656  20.483   0.994   8.250
 5797POPC   C3B33657  20.441   1.029   7.950
 5797POPC   C4B33658  20.500   0.978   7.650
 5798POPC   NC333659  26.010   5.123   9.450
 5798POPC   PO433660  26.035   5.088   9.150
 5798POPC   GL133661  26.056   5.141   8.850
 5798POPC   GL233662  25.927   5.184   8.850
 5798POPC   C1A33663  26.085   5.082   8.550
 5798POPC   D2A33664  26.012   5.105   8.250
 5798POPC   C3A33665  26.044   5.076   7.950
 5798POPC   C4A33666  26.040   5.088   7.650
 5798POPC   C1B33667  25.807   5.220   8.550
 5798POPC   C2B33668  25.820   5.225   8.250
 5798POPC   C3B33669  25.835   5.285   7.950
 5798POPC   C4B33670  25.843   5.207   7.650
 5799POPC   NC333671  31.451  15.946   9.450
 5799POPC   PO433672  31.437  15.982   9.150
 5799POPC   GL133673  31.470  16.001   8.850
 5799POPC   GL233674  31.411  16.009   8.850
 5799POPC   C1A33675  31.457  15.991   8.550
 5799POPC   D2A33676  31.464  15.906   8.250
 5799POPC   C3A33677  31.449  15.945   7.950
 5799POPC   C4A33678  31.495  15.981   7.650
 5799POPC   C1B33679  31.324  16.185   8.550
 5799POPC   C2B33680  31.292  16.179   8.250
 5799POPC   C3B33681  31.290  16.111   7.950
 5799POPC   C4B33682  31.277  16.159   7.650
 5800POPC   NC333683   1.231  11.272   9.450
 5800POPC   PO433684   1.172  11.280   9.150
 5800POPC   GL133685   1.226  11.288   8.850
 5800POPC   GL233686   1.330  11.270   8.850
 5800POPC   C1A33687   1.242  11.265   8.550
 5800POPC   D2A33688   1.209  11.333   8.250
 5800POPC   C3A33689   1.173  11.330   7.950
 5800POPC   C4A33690   1.194  11.305   7.650
 5800POPC   C1B33691   1.484  11.275   8.550
 5800POPC   C2B33692   1.468  11.311   8.250
 5800POPC   C3B33693   1.450  11.288   7.950
 5800POPC   C4B33694   1.438  11.348   7.650
 5801POPC   NC333695  27.570  14.390   9.450
 5801POPC   PO433696  27.558  14.380   9.150
 5801POPC   GL133697  27.585  14.376   8.850
 5801POPC   GL233698  27.438  14.358   8.850
 5801POPC   C1A33699  27.627  14.369   8.550
 5801POPC   D2A33700  27.578  14.365   8.250
 5801POPC   C3A33701  27.559  14.443   7.950
 5801POPC   C4A33702  27.577  14.420   7.650
 5801POPC   C1B33703  27.406  14.279   8.550
 5801POPC   C2B33704  27.383  14.297   8.250
 5801POPC   C3B33705  27.366  14.312   7.950
 5801POPC   C4B33706  27.324  14.291   7.650
 5802POPC   NC333707   9.767   4.304   9.450
 5802POPC   PO433708   9.709   4.299   9.150
 5802POPC   GL133709   9.739   4.267   8.850
 5802POPC   GL233710   9.758   4.452   8.850
 5802POPC   C1A33711   9.715   4.268   8.550
 5802POPC   D2A33712   9.778   4.367   8.250
 5802POPC   C3A33713   9.757   4.274   7.950
 5802POPC   C4A33714   9.764   4.322   7.650
 5802POPC   C1B33715   9.879   4.534   8.550
 5802POPC   C2B33716   9.915   4.582   8.250
 5802POPC   C3B33717   9.822   4.558   7.950
 5802POPC   C4B33718   9.880   4.513   7.650
 5803POPC   NC333719  43.131  24.451   9.450
 5803POPC   PO433720  43.132  24.492   9.150
 5803POPC   GL133721  43.098  24.522   8.850
 5803POPC   GL233722  43.004  24.487   8.850
 5803POPC   C1A33723  43.102  24.480   8.550
 5803POPC   D2A33724  43.096  24.484   8.250
 5803POPC   C3A33725  43.140  24.519   7.950
 5803POPC   C4A33726  43.160  24.514   7.650
 5803POPC   C1B33727  42.830  24.466   8.550
 5803POPC   C2B33728  42.865  24.427   8.250
 5803POPC   C3B33729  42.841  24.514   7.950
 5803POPC   C4B33730  42.829  24.508   7.650
 5804POPC   NC333731  10.527   6.659   9.450
 5804POPC   PO433732  10.498   6.645   9.150
 5804POPC   GL133733  10.530   6.631   8.850
 5804POPC   GL233734  10.630   6.684   8.850
 5804POPC   C1A33735  10.534   6.649   8.550
 5804POPC   D2A33736  10.513   6.654   8.250
 5804POPC   C3A33737  10.540   6.673   7.950
 5804POPC   C4A33738  10.543   6.679   7.650
 5804POPC   C1B33739  10.799   6.698   8.550
 5804POPC   C2B33740  10.781   6.758   8.250
 5804POPC   C3B33741  10.764   6.710   7.950
 5804POPC   C4B33742  10.774   6.706   7.650
 5805POPC   NC333743  12.049  21.427   9.450
 5805POPC   PO433744  12.067  21.371   9.150
 5805POPC   GL133745  12.049  21.369   8.850
 5805POPC   GL233746  11.961  21.453   8.850
 5805POPC   C1A33747  12.069  21.350   8.550
 5805POPC   D2A33748  12.092  21.398   8.250
 5805POPC   C3A33749  12.122  21.363   7.950
 5805POPC   C4A33750  12.054  21.418   7.650
 5805POPC   C1B33751  11.906  21.620   8.550
 5805POPC   C2B33752  11.961  21.632   8.250
 5805POPC   C3B33753  11.944  21.616   7.950
 5805POPC   C4B33754  11.891  21.620   7.650
 5806POPC   NC333755  34.558   5.058   9.450
 5806POPC   PO433756  34.607   5.110   9.150
 5806POPC   GL133757  34.589   5.114   8.850
 5806POPC   GL233758  34.472   5.048   8.850
 5806POPC   C1A33759  34.579   5.132   8.550
 5806POPC   D2A33760  34.549   5.126   8.250
 5806POPC   C3A33761  34.541   5.095   7.950
 5806POPC   C4A33762  34.593   5.105   7.650
 5806POPC   C1B33763  34.362   5.009   8.550
 5806POPC   C2B33764  34.329   5.025   8.250
 5806POPC   C3B33765  34.378   5.043   7.950
 5806POPC   C4B33766  34.391   5.008   7.650
 5807POPC   NC333767  35.302   0.426   9.450
 5807POPC   PO433768  35.332   0.440   9.150
 5807POPC   GL133769  35.381   0.425   8.850
 5807POPC   GL233770  35.255   0.517   8.850
 5807POPC   C1A33771  35.360   0.469   8.550
 5807POPC   D2A33772  35.371   0.413   8.250
 5807POPC   C3A33773  35.399   0.463   7.950
 5807POPC   C4A33774  35.366   0.397   7.650
 5807POPC   C1B33775  35.081   0.472   8.550
 5807POPC   C2B33776  35.141   0.511   8.250
 5807POPC   C3B33777  35.128   0.492   7.950
 5807POPC   C4B33778  35.064   0.489   7.650
 5808POPC   NC333779  30.693  36.912   9.450
 5808POPC   PO433780  30.659  36.859   9.150
 5808POPC   GL133781  30.678  36.903   8.850
 5808POPC   GL233782  30.569  36.984   8.850
 5808POPC   C1A33783  30.681  36.934   8.550
 5808POPC   D2A33784  30.717  36.909   8.250
 5808POPC   C3A33785  30.652  36.869   7.950
 5808POPC   C4A33786  30.741  36.883   7.650
 5808POPC   C1B33787  30.511  37.054   8.550
 5808POPC   C2B33788  30.463  37.062   8.250
 5808POPC   C3B33789  30.470  37.009   7.950
 5808POPC   C4B33790  30.524  37.064   7.650
 5809POPC   NC333791   6.690  32.209   9.450
 5809POPC   PO433792   6.672  32.288   9.150
 5809POPC   GL133793   6.599  32.235   8.850
 5809POPC   GL233794   6.581  32.176   8.850
 5809POPC   C1A33795   6.645  32.214   8.550
 5809POPC   D2A33796   6.655  32.268   8.250
 5809POPC   C3A33797   6.637  32.279   7.950
 5809POPC   C4A33798   6.687  32.278   7.650
 5809POPC   C1B33799   6.467  32.088   8.550
 5809POPC   C2B33800   6.455  32.104   8.250
 5809POPC   C3B33801   6.425  32.180   7.950
 5809POPC   C4B33802   6.385  32.083   7.650
 5810POPC   NC333803  26.853  14.453   9.450
 5810POPC   PO433804  26.843  14.401   9.150
 5810POPC   GL133805  26.808  14.435   8.850
 5810POPC   GL233806  26.720  14.373   8.850
 5810POPC   C1A33807  26.828  14.412   8.550
 5810POPC   D2A33808  26.823  14.394   8.250
 5810POPC   C3A33809  26.825  14.394   7.950
 5810POPC   C4A33810  26.807  14.371   7.650
 5810POPC   C1B33811  26.577  14.292   8.550
 5810POPC   C2B33812  26.545  14.320   8.250
 5810POPC   C3B33813  26.551  14.310   7.950
 5810POPC   C4B33814  26.620  14.346   7.650
 5811POPC   NC333815  31.474   6.626   9.450
 5811POPC   PO433816  31.516   6.637   9.150
 5811POPC   GL133817  31.463   6.632   8.850
 5811POPC   GL233818  31.460   6.531   8.850
 5811POPC   C1A33819  31.439   6.649   8.550
 5811POPC   D2A33820  31.444   6.688   8.250
 5811POPC   C3A33821  31.474   6.620   7.950
 5811POPC   C4A33822  31.454   6.628   7.650
 5811POPC   C1B33823  31.510   6.379   8.550
 5811POPC   C2B33824  31.472   6.415   8.250
 5811POPC   C3B33825  31.511   6.433   7.950
 5811POPC   C4B33826  31.444   6.384   7.650
 5812POPC   NC333827  33.820   4.367   9.450
 5812POPC   PO433828  33.796   4.355   9.150
 5812POPC   GL133829  33.824   4.323   8.850
 5812POPC   GL233830  33.698   4.364   8.850
 5812POPC   C1A33831  33.773   4.341   8.550
 5812POPC   D2A33832  33.764   4.284   8.250
 5812POPC   C3A33833  33.827   4.346   7.950
 5812POPC   C4A33834  33.799   4.304   7.650
 5812POPC   C1B33835  33.593   4.447   8.550
 5812POPC   C2B33836  33.532   4.407   8.250
 5812POPC   C3B33837  33.588   4.447   7.950
 5812POPC   C4B33838  33.578   4.365   7.650
 5813POPC   NC333839   8.246  30.649   9.450
 5813POPC   PO433840   8.241  30.732   9.150
 5813POPC   GL133841   8.181  30.739   8.850
 5813POPC   GL233842   8.071  30.673   8.850
 5813POPC   C1A33843   8.164  30.726   8.550
 5813POPC   D2A33844   8.238  30.727   8.250
 5813POPC   C3A33845   8.206  30.698   7.950
 5813POPC   C4A33846   8.158  30.684   7.650
 5813POPC   C1B33847   7.943  30.720   8.550
 5813POPC   C2B33848   7.929  30.727   8.250
 5813POPC   C3B33849   7.902  30.715   7.950
 5813POPC   C4B33850   7.985  30.682   7.650
 5814POPC   NC333851  13.592  29.150   9.450
 5814POPC   PO433852  13.595  29.136   9.150
 5814POPC   GL133853  13.651  29.190   8.850
 5814POPC   GL233854  13.496  29.172   8.850
 5814POPC   C1A33855  13.620  29.129   8.550
 5814POPC   D2A33856  13.603  29.174   8.250
 5814POPC   C3A33857  13.607  29.120   7.950
 5814POPC   C4A33858  13.619  29.162   7.650
 5814POPC   C1B33859  13.382  29.269   8.550
 5814POPC   C2B33860  13.397  29.322   8.250
 5814POPC   C3B33861  13.427  29.315   7.950
 5814POPC   C4B33862  13.456  29.253   7.650
 5815POPC   NC333863  18.242   9.727   9.450
 5815POPC   PO433864  18.269   9.792   9.150
 5815POPC   GL133865  18.278   9.771   8.850
 5815POPC   GL233866  18.220   9.581   8.850
 5815POPC   C1A33867  18.246   9.730   8.550
 5815POPC   D2A33868  18.319   9.748   8.250
 5815POPC   C3A33869  18.258   9.726   7.950
 5815POPC   C4A33870  18.283   9.734   7.650
 5815POPC   C1B33871  18.257   9.476   8.550
 5815POPC   C2B33872  18.237   9.468   8.250
 5815POPC   C3B33873  18.294   9.505   7.950
 5815POPC   C4B33874  18.244   9.487   7.650
 5816POPC   NC333875  20.623  37.671   9.450
 5816POPC   PO433876  20.597  37.714   9.150
 5816POPC   GL133877  20.570  37.680   8.850
 5816POPC   GL233878  20.577  37.602   8.850
 5816POPC   C1A33879  20.648  37.717   8.550
 5816POPC   D2A33880  20.577  37.698   8.250
 5816POPC   C3A33881  20.634  37.694   7.950
 5816POPC   C4A33882  20.650  37.673   7.650
 5816POPC   C1B33883  20.579  37.473   8.550
 5816POPC   C2B33884  20.607  37.441   8.250
 5816POPC   C3B33885  20.594  37.428   7.950
 5816POPC   C4B33886  20.549  37.431   7.650
 5817POPC   NC333887  20.637  22.905   9.450
 5817POPC   PO433888  20.632  22.916   9.150
 5817POPC   GL133889  20.570  22.930   8.850
 5817POPC   GL233890  20.691  22.847   8.850
 5817POPC   C1A33891  20.644  22.950   8.550
 5817POPC   D2A33892  20.620  22.948   8.250
 5817POPC   C3A33893  20.643  22.966   7.950
 5817POPC   C4A33894  20.641  22.927   7.650
 5817POPC   C1B33895  20.788  22.737   8.550
 5817POPC   C2B33896  20.719  22.788   8.250
 5817POPC   C3B33897  20.780  22.773   7.950
 5817POPC   C4B33898  20.715  22.714   7.650
 5818POPC   NC333899   2.039   5.843   9.450
 5818POPC   PO433900   1.950   5.832   9.150
 5818POPC   GL133901   2.017   5.840   8.850
 5818POPC   GL233902   1.838   5.836   8.850
 5818POPC   C1A33903   2.022   5.855   8.550
 5818POPC   D2A33904   1.985   5.902   8.250
 5818POPC   C3A33905   2.019   5.860   7.950
 5818POPC   C4A33906   2.020   5.891   7.650
 5818POPC   C1B33907   1.781   5.779   8.550
 5818POPC   C2B33908   1.706   5.843   8.250
 5818POPC   C3B33909   1.796   5.778   7.950
 5818POPC   C4B33910   1.704   5.839   7.650
 5819POPC   NC333911  23.750   8.936   9.450
 5819POPC   PO433912  23.705   8.986   9.150
 5819POPC   GL133913  23.731   8.962   8.850
 5819POPC   GL233914  23.783   9.080   8.850
 5819POPC   C1A33915  23.677   8.979   8.550
 5819POPC   D2A33916  23.752   8.986   8.250
 5819POPC   C3A33917  23.724   8.997   7.950
 5819POPC   C4A33918  23.746   8.996   7.650
 5819POPC   C1B33919  23.743   9.245   8.550
 5819POPC   C2B33920  23.809   9.198   8.250
 5819POPC   C3B33921  23.789   9.245   7.950
 5819POPC   C4B33922  23.785   9.180   7.650
 5820POPC   NC333923  32.294   4.280   9.450
 5820POPC   PO433924  32.256   4.316   9.150
 5820POPC   GL133925  32.219   4.354   8.850
 5820POPC   GL233926  32.322   4.331   8.850
 5820POPC   C1A33927  32.259   4.284   8.550
 5820POPC   D2A33928  32.226   4.282   8.250
 5820POPC   C3A33929  32.212   4.353   7.950
 5820POPC   C4A33930  32.199   4.356   7.650
 5820POPC   C1B33931  32.426   4.454   8.550
 5820POPC   C2B33932  32.505   4.462   8.250
 5820POPC   C3B33933  32.485   4.385   7.950
 5820POPC   C4B33934  32.435   4.404   7.650
 5821POPC   NC333935   7.433  43.156   9.450
 5821POPC   PO433936   7.421  43.121   9.150
 5821POPC   GL133937   7.391  43.066   8.850
 5821POPC   GL233938   7.453  42.975   8.850
 5821POPC   C1A33939   7.389  43.142   8.550
 5821POPC   D2A33940   7.414  43.091   8.250
 5821POPC   C3A33941   7.388  43.142   7.950
 5821POPC   C4A33942   7.374  43.150   7.650
 5821POPC   C1B33943   7.497  42.893   8.550
 5821POPC   C2B33944   7.504  42.876   8.250
 5821POPC   C3B33945   7.427  42.878   7.950
 5821POPC   C4B33946   7.443  42.834   7.650
 5822POPC   NC333947   2.733  22.169   9.450
 5822POPC   PO433948   2.792  22.162   9.150
 5822POPC   GL133949   2.764  22.132   8.850
 5822POPC   GL233950   2.679  22.161   8.850
 5822POPC   C1A33951   2.721  22.135   8.550
 5822POPC   D2A33952   2.779  22.138   8.250
 5822POPC   C3A33953   2.751  22.134   7.950
 5822POPC   C4A33954   2.758  22.189   7.650
 5822POPC   C1B33955   2.543  22.169   8.550
 5822POPC   C2B33956   2.528  22.172   8.250
 5822POPC   C3B33957   2.546  22.151   7.950
 5822POPC   C4B33958   2.467  22.184   7.650
 5823POPC   NC333959  42.289  44.680   9.450
 5823POPC   PO433960  42.331  44.698   9.150
 5823POPC   GL133961  42.317  44.667   8.850
 5823POPC   GL233962  42.309  44.499   8.850
 5823POPC   C1A33963  42.358  44.657   8.550
 5823POPC   D2A33964  42.328  44.693   8.250
 5823POPC   C3A33965  42.296  44.712   7.950
 5823POPC   C4A33966  42.312  44.664   7.650
 5823POPC   C1B33967  42.315  44.381   8.550
 5823POPC   C2B33968  42.366  44.461   8.250
 5823POPC   C3B33969  42.294  44.462   7.950
 5823POPC   C4B33970  42.328  44.454   7.650
 5824POPC   NC333971  22.160  37.673   9.450
 5824POPC   PO433972  22.189  37.642   9.150
 5824POPC   GL133973  22.149  37.643   8.850
 5824POPC   GL233974  22.083  37.776   8.850
 5824POPC   C1A33975  22.144  37.725   8.550
 5824POPC   D2A33976  22.114  37.672   8.250
 5824POPC   C3A33977  22.175  37.654   7.950
 5824POPC   C4A33978  22.190  37.678   7.650
 5824POPC   C1B33979  21.989  37.875   8.550
 5824POPC   C2B33980  21.956  37.845   8.250
 5824POPC   C3B33981  21.993  37.840   7.950
 5824POPC   C4B33982  21.965  37.870   7.650
 5825POPC   NC333983  14.395  35.392   9.450
 5825POPC   PO433984  14.408  35.308   9.150
 5825POPC   GL133985  14.406  35.332   8.850
 5825POPC   GL233986  14.494  35.223   8.850
 5825POPC   C1A33987  14.407  35.326   8.550
 5825POPC   D2A33988  14.362  35.363   8.250
 5825POPC   C3A33989  14.374  35.382   7.950
 5825POPC   C4A33990  14.406  35.350   7.650
 5825POPC   C1B33991  14.502  35.069   8.550
 5825POPC   C2B33992  14.489  35.129   8.250
 5825POPC   C3B33993  14.519  35.092   7.950
 5825POPC   C4B33994  14.480  35.165   7.650
 5826POPC   NC333995  24.453  43.158   9.450
 5826POPC   PO433996  24.510  43.141   9.150
 5826POPC   GL133997  24.456  43.131   8.850
 5826POPC   GL233998  24.621  43.097   8.850
 5826POPC   C1A33999  24.529  43.079   8.550
 5826POPC   D2A34000  24.526  43.087   8.250
 5826POPC   C3A34001  24.471  43.145   7.950
 5826POPC   C4A34002  24.452  43.096   7.650
 5826POPC   C1B34003  24.768  43.055   8.550
 5826POPC   C2B34004  24.699  43.089   8.250
 5826POPC   C3B34005  24.705  43.106   7.950
 5826POPC   C4B34006  24.713  43.134   7.650
 5827POPC   NC334007  43.061  43.919   9.450
 5827POPC   PO434008  43.139  43.899   9.150
 5827POPC   GL134009  43.140  43.910   8.850
 5827POPC   GL234010  43.227  43.848   8.850
 5827POPC   C1A34011  43.142  43.862   8.550
 5827POPC   D2A34012  43.099  43.935   8.250
 5827POPC   C3A34013  43.096  43.858   7.950
 5827POPC   C4A34014  43.086  43.838   7.650
 5827POPC   C1B34015  43.323  43.798   8.550
 5827POPC   C2B34016  43.373  43.818   8.250
 5827POPC   C3B34017  43.348  43.782   7.950
 5827POPC   C4B34018  43.378  43.765   7.650
 5828POPC   NC334019  12.063   0.437   9.450
 5828POPC   PO434020  12.053   0.407   9.150
 5828POPC   GL134021  12.029   0.388   8.850
 5828POPC   GL234022  12.200   0.452   8.850
 5828POPC   C1A34023  12.047   0.479   8.550
 5828POPC   D2A34024  12.052   0.422   8.250
 5828POPC   C3A34025  12.026   0.416   7.950
 5828POPC   C4A34026  12.069   0.464   7.650
 5828POPC   C1B34027  12.318   0.409   8.550
 5828POPC   C2B34028  12.372   0.404   8.250
 5828POPC   C3B34029  12.311   0.448   7.950
 5828POPC   C4B34030  12.344   0.463   7.650
 5829POPC   NC334031  43.878  40.815   9.450
 5829POPC   PO434032  43.935  40.751   9.150
 5829POPC   GL134033  43.927  40.779   8.850
 5829POPC   GL234034  43.843  40.622   8.850
 5829POPC   C1A34035  43.862  40.826   8.550
 5829POPC   D2A34036  43.860  40.826   8.250
 5829POPC   C3A34037  43.886  40.822   7.950
 5829POPC   C4A34038  43.882  40.829   7.650
 5829POPC   C1B34039  43.872  40.559   8.550
 5829POPC   C2B34040  43.920  40.573   8.250
 5829POPC   C3B34041  43.871  40.568   7.950
 5829POPC   C4B34042  43.920  40.524   7.650
 5830POPC   NC334043   0.421  12.803   9.450
 5830POPC   PO434044   0.477  12.843   9.150
 5830POPC   GL134045   0.475  12.832   8.850
 5830POPC   GL234046   0.300  12.817   8.850
 5830POPC   C1A34047   0.447  12.870   8.550
 5830POPC   D2A34048   0.426  12.820   8.250
 5830POPC   C3A34049   0.480  12.818   7.950
 5830POPC   C4A34050   0.450  12.855   7.650
 5830POPC   C1B34051   0.251  12.645   8.550
 5830POPC   C2B34052   0.201  12.687   8.250
 5830POPC   C3B34053   0.250  12.690   7.950
 5830POPC   C4B34054   0.245  12.673   7.650
 5831POPC   NC334055  16.735  36.915   9.450
 5831POPC   PO434056  16.724  36.885   9.150
 5831POPC   GL134057  16.760  36.953   8.850
 5831POPC   GL234058  16.672  36.766   8.850
 5831POPC   C1A34059  16.769  36.905   8.550
 5831POPC   D2A34060  16.696  36.856   8.250
 5831POPC   C3A34061  16.727  36.950   7.950
 5831POPC   C4A34062  16.770  36.884   7.650
 5831POPC   C1B34063  16.634  36.715   8.550
 5831POPC   C2B34064  16.577  36.691   8.250
 5831POPC   C3B34065  16.563  36.725   7.950
 5831POPC   C4B34066  16.618  36.701   7.650
 5832POPC   NC334067   2.744  11.333   9.450
 5832POPC   PO434068   2.779  11.307   9.150
 5832POPC   GL134069   2.749  11.284   8.850
 5832POPC   GL234070   2.693  11.430   8.850
 5832POPC   C1A34071   2.756  11.288   8.550
 5832POPC   D2A34072   2.773  11.258   8.250
 5832POPC   C3A34073   2.744  11.332   7.950
 5832POPC   C4A34074   2.800  11.341   7.650
 5832POPC   C1B34075   2.627  11.550   8.550
 5832POPC   C2B34076   2.672  11.491   8.250
 5832POPC   C3B34077   2.633  11.544   7.950
 5832POPC   C4B34078   2.676  11.485   7.650
 5833POPC   NC334079  24.451  39.251   9.450
 5833POPC   PO434080  24.457  39.205   9.150
 5833POPC   GL134081  24.508  39.255   8.850
 5833POPC   GL234082  24.509  39.329   8.850
 5833POPC   C1A34083  24.504  39.274   8.550
 5833POPC   D2A34084  24.522  39.279   8.250
 5833POPC   C3A34085  24.445  39.209   7.950
 5833POPC   C4A34086  24.492  39.190   7.650
 5833POPC   C1B34087  24.477  39.519   8.550
 5833POPC   C2B34088  24.490  39.439   8.250
 5833POPC   C3B34089  24.481  39.507   7.950
 5833POPC   C4B34090  24.467  39.479   7.650
 5834POPC   NC334091  36.124   8.168   9.450
 5834POPC   PO434092  36.158   8.207   9.150
 5834POPC   GL134093  36.163   8.227   8.850
 5834POPC   GL234094  36.199   8.266   8.850
 5834POPC   C1A34095  36.148   8.216   8.550
 5834POPC   D2A34096  36.124   8.225   8.250
 5834POPC   C3A34097  36.119   8.169   7.950
 5834POPC   C4A34098  36.132   8.168   7.650
 5834POPC   C1B34099  36.276   8.397   8.550
 5834POPC   C2B34100  36.279   8.420   8.250
 5834POPC   C3B34101  36.267   8.410   7.950
 5834POPC   C4B34102  36.256   8.442   7.650
 5835POPC   NC334103  41.597  29.154   9.450
 5835POPC   PO434104  41.527  29.120   9.150
 5835POPC   GL134105  41.606  29.136   8.850
 5835POPC   GL234106  41.528  29.306   8.850
 5835POPC   C1A34107  41.535  29.103   8.550
 5835POPC   D2A34108  41.601  29.184   8.250
 5835POPC   C3A34109  41.509  29.111   7.950
 5835POPC   C4A34110  41.539  29.190   7.650
 5835POPC   C1B34111  41.536  29.381   8.550
 5835POPC   C2B34112  41.556  29.403   8.250
 5835POPC   C3B34113  41.595  29.366   7.950
 5835POPC   C4B34114  41.557  29.358   7.650
 5836POPC   NC334115  11.263   3.500   9.450
 5836POPC   PO434116  11.278   3.516   9.150
 5836POPC   GL134117  11.341   3.577   8.850
 5836POPC   GL234118  11.211   3.505   8.850
 5836POPC   C1A34119  11.296   3.502   8.550
 5836POPC   D2A34120  11.336   3.560   8.250
 5836POPC   C3A34121  11.323   3.522   7.950
 5836POPC   C4A34122  11.291   3.515   7.650
 5836POPC   C1B34123  11.074   3.514   8.550
 5836POPC   C2B34124  11.094   3.516   8.250
 5836POPC   C3B34125  11.020   3.445   7.950
 5836POPC   C4B34126  11.072   3.510   7.650
 5837POPC   NC334127  24.524  21.428   9.450
 5837POPC   PO434128  24.460  21.353   9.150
 5837POPC   GL134129  24.473  21.420   8.850
 5837POPC   GL234130  24.430  21.495   8.850
 5837POPC   C1A34131  24.518  21.354   8.550
 5837POPC   D2A34132  24.468  21.413   8.250
 5837POPC   C3A34133  24.514  21.406   7.950
 5837POPC   C4A34134  24.477  21.386   7.650
 5837POPC   C1B34135  24.278  21.518   8.550
 5837POPC   C2B34136  24.296  21.554   8.250
 5837POPC   C3B34137  24.286  21.516   7.950
 5837POPC   C4B34138  24.279  21.540   7.650
 5838POPC   NC334139   7.396  43.853   9.450
 5838POPC   PO434140   7.393  43.931   9.150
 5838POPC   GL134141   7.418  43.843   8.850
 5838POPC   GL234142   7.487  43.966   8.850
 5838POPC   C1A34143   7.394  43.908   8.550
 5838POPC   D2A34144   7.441  43.837   8.250
 5838POPC   C3A34145   7.436  43.853   7.950
 5838POPC   C4A34146   7.452  43.873   7.650
 5838POPC   C1B34147   7.663  44.028   8.550
 5838POPC   C2B34148   7.599  44.043   8.250
 5838POPC   C3B34149   7.593  43.987   7.950
 5838POPC   C4B34150   7.608  43.981   7.650
 5839POPC   NC334151  38.410  29.139   9.450
 5839POPC   PO434152  38.443  29.146   9.150
 5839POPC   GL134153  38.438  29.187   8.850
 5839POPC   GL234154  38.492  29.291   8.850
 5839POPC   C1A34155  38.483  29.152   8.550
 5839POPC   D2A34156  38.498  29.165   8.250
 5839POPC   C3A34157  38.504  29.194   7.950
 5839POPC   C4A34158  38.479  29.132   7.650
 5839POPC   C1B34159  38.523  29.369   8.550
 5839POPC   C2B34160  38.497  29.426   8.250
 5839POPC   C3B34161  38.508  29.405   7.950
 5839POPC   C4B34162  38.493  29.426   7.650
 5840POPC   NC334163  20.648  18.281   9.450
 5840POPC   PO434164  20.575  18.314   9.150
 5840POPC   GL134165  20.603  18.270   8.850
 5840POPC   GL234166  20.687  18.403   8.850
 5840POPC   C1A34167  20.630  18.279   8.550
 5840POPC   D2A34168  20.605  18.294   8.250
 5840POPC   C3A34169  20.645  18.332   7.950
 5840POPC   C4A34170  20.600  18.242   7.650
 5840POPC   C1B34171  20.662  18.493   8.550
 5840POPC   C2B34172  20.690  18.532   8.250
 5840POPC   C3B34173  20.735  18.556   7.950
 5840POPC   C4B34174  20.712  18.552   7.650
 5841POPC   NC334175  35.306  43.093   9.450
 5841POPC   PO434176  35.330  43.086   9.150
 5841POPC   GL134177  35.304  43.126   8.850
 5841POPC   GL234178  35.182  43.137   8.850
 5841POPC   C1A34179  35.369  43.081   8.550
 5841POPC   D2A34180  35.302  43.146   8.250
 5841POPC   C3A34181  35.385  43.104   7.950
 5841POPC   C4A34182  35.374  43.076   7.650
 5841POPC   C1B34183  35.138  43.055   8.550
 5841POPC   C2B34184  35.074  43.131   8.250
 5841POPC   C3B34185  35.084  43.121   7.950
 5841POPC   C4B34186  35.084  43.121   7.650
 5842POPC   NC334187  37.708   5.871   9.450
 5842POPC   PO434188  37.653   5.888   9.150
 5842POPC   GL134189  37.656   5.903   8.850
 5842POPC   GL234190  37.724   5.966   8.850
 5842POPC   C1A34191  37.643   5.857   8.550
 5842POPC   D2A34192  37.661   5.823   8.250
 5842POPC   C3A34193  37.650   5.902   7.950
 5842POPC   C4A34194  37.705   5.837   7.650
 5842POPC   C1B34195  37.764   6.117   8.550
 5842POPC   C2B34196  37.717   6.080   8.250
 5842POPC   C3B34197  37.696   6.084   7.950
 5842POPC   C4B34198  37.740   6.108   7.650
 5843POPC   NC334199  10.478  14.382   9.450
 5843POPC   PO434200  10.569  14.396   9.150
 5843POPC   GL134201  10.541  14.362   8.850
 5843POPC   GL234202  10.642  14.443   8.850
 5843POPC   C1A34203  10.527  14.356   8.550
 5843POPC   D2A34204  10.527  14.447   8.250
 5843POPC   C3A34205  10.569  14.442   7.950
 5843POPC   C4A34206  10.523  14.408   7.650
 5843POPC   C1B34207  10.774  14.444   8.550
 5843POPC   C2B34208  10.739  14.443   8.250
 5843POPC   C3B34209  10.724  14.425   7.950
 5843POPC   C4B34210  10.820  14.479   7.650
 5844POPC   NC334211  24.459  34.600   9.450
 5844POPC   PO434212  24.444  34.569   9.150
 5844POPC   GL134213  24.496  34.589   8.850
 5844POPC   GL234214  24.415  34.443   8.850
 5844POPC   C1A34215  24.472  34.564   8.550
 5844POPC   D2A34216  24.458  34.582   8.250
 5844POPC   C3A34217  24.493  34.590   7.950
 5844POPC   C4A34218  24.530  34.597   7.650
 5844POPC   C1B34219  24.431  34.351   8.550
 5844POPC   C2B34220  24.457  34.379   8.250
 5844POPC   C3B34221  24.448  34.365   7.950
 5844POPC   C4B34222  24.428  34.373   7.650
 5845POPC   NC334223  33.819  43.845   9.450
 5845POPC   PO434224  33.848  43.839   9.150
 5845POPC   GL134225  33.795  43.851   8.850
 5845POPC   GL234226  33.704  43.963   8.850
 5845POPC   C1A34227  33.759  43.930   8.550
 5845POPC   D2A34228  33.829  43.855   8.250
 5845POPC   C3A34229  33.823  43.863   7.950
 5845POPC   C4A34230  33.771  43.926   7.650
 5845POPC   C1B34231  33.649  44.064   8.550
 5845POPC   C2B34232  33.599  44.033   8.250
 5845POPC   C3B34233  33.596  44.030   7.950
 5845POPC   C4B34234  33.565  44.038   7.650
 5846POPC   NC334235   3.561   1.944   9.450
 5846POPC   PO434236   3.580   2.039   9.150
 5846POPC   GL134237   3.586   1.973   8.850
 5846POPC   GL234238   3.456   1.886   8.850
 5846POPC   C1A34239   3.546   2.037   8.550
 5846POPC   D2A34240   3.575   1.968   8.250
 5846POPC   C3A34241   3.507   1.960   7.950
 5846POPC   C4A34242   3.551   1.956   7.650
 5846POPC   C1B34243   3.513   1.749   8.550
 5846POPC   C2B34244   3.435   1.746   8.250
 5846POPC   C3B34245   3.450   1.776   7.950
 5846POPC   C4B34246   3.464   1.777   7.650
 5847POPC   NC334247  31.431  43.103   9.450
 5847POPC   PO434248  31.481  43.093   9.150
 5847POPC   GL134249  31.518  43.089   8.850
 5847POPC   GL234250  31.566  43.139   8.850
 5847POPC   C1A34251  31.484  43.063   8.550
 5847POPC   D2A34252  31.449  43.138   8.250
 5847POPC   C3A34253  31.432  43.083   7.950
 5847POPC   C4A34254  31.480  43.111   7.650
 5847POPC   C1B34255  31.719  43.168   8.550
 5847POPC   C2B34256  31.737  43.224   8.250
 5847POPC   C3B34257  31.744  43.229   7.950
 5847POPC   C4B34258  31.706  43.186   7.650
 5848POPC   NC334259  36.115  28.418   9.450
 5848POPC   PO434260  36.101  28.358   9.150
 5848POPC   GL134261  36.082  28.339   8.850
 5848POPC   GL234262  36.162  28.471   8.850
 5848POPC   C1A34263  36.157  28.324   8.550
 5848POPC   D2A34264  36.121  28.354   8.250
 5848POPC   C3A34265  36.130  28.333   7.950
 5848POPC   C4A34266  36.164  28.334   7.650
 5848POPC   C1B34267  36.317  28.563   8.550
 5848POPC   C2B34268  36.249  28.548   8.250
 5848POPC   C3B34269  36.334  28.609   7.950
 5848POPC   C4B34270  36.330  28.583   7.650
 5849POPC   NC334271  26.035  29.929   9.450
 5849POPC   PO434272  26.016  29.880   9.150
 5849POPC   GL134273  26.061  29.930   8.850
 5849POPC   GL234274  25.978  30.010   8.850
 5849POPC   C1A34275  26.041  29.879   8.550
 5849POPC   D2A34276  26.062  29.914   8.250
 5849POPC   C3A34277  26.076  29.901   7.950
 5849POPC   C4A34278  26.089  29.920   7.650
 5849POPC   C1B34279  25.973  30.173   8.550
 5849POPC   C2B34280  26.032  30.127   8.250
 5849POPC   C3B34281  25.962  30.148   7.950
 5849POPC   C4B34282  26.049  30.154   7.650
 5850POPC   NC334283  16.777  29.928   9.450
 5850POPC   PO434284  16.775  29.951   9.150
 5850POPC   GL134285  16.731  29.875   8.850
 5850POPC   GL234286  16.760  30.010   8.850
 5850POPC   C1A34287  16.709  29.938   8.550
 5850POPC   D2A34288  16.764  29.913   8.250
 5850POPC   C3A34289  16.720  29.884   7.950
 5850POPC   C4A34290  16.750  29.931   7.650
 5850POPC   C1B34291  16.881  30.129   8.550
 5850POPC   C2B34292  16.840  30.125   8.250
 5850POPC   C3B34293  16.850  30.125   7.950
 5850POPC   C4B34294  16.928  30.133   7.650
 5851POPC   NC334295  32.242  19.870   9.450
 5851POPC   PO434296  32.289  19.790   9.150
 5851POPC   GL134297  32.243  19.810   8.850
 5851POPC   GL234298  32.273  19.666   8.850
 5851POPC   C1A34299  32.213  19.803   8.550
 5851POPC   D2A34300  32.260  19.837   8.250
 5851POPC   C3A34301  32.225  19.853   7.950
 5851POPC   C4A34302  32.289  19.857   7.650
 5851POPC   C1B34303  32.253  19.538   8.550
 5851POPC   C2B34304  32.212  19.630   8.250
 5851POPC   C3B34305  32.233  19.612   7.950
 5851POPC   C4B34306  32.207  19.611   7.650
 5852POPC   NC334307  10.538   5.830   9.450
 5852POPC   PO434308  10.498   5.886   9.150
 5852POPC   GL134309  10.476   5.835   8.850
 5852POPC   GL234310  10.463   5.976   8.850
 5852POPC   C1A34311  10.550   5.895   8.550
 5852POPC   D2A34312  10.511   5.850   8.250
 5852POPC   C3A34313  10.527   5.901   7.950
 5852POPC   C4A34314  10.553   5.854   7.650
 5852POPC   C1B34315  10.510   6.143   8.550
 5852POPC   C2B34316  10.431   6.131   8.250
 5852POPC   C3B34317  10.468   6.067   7.950
 5852POPC   C4B34318  10.496   6.097   7.650
 5853POPC   NC334319  15.223   2.792   9.450
 5853POPC   PO434320  15.185   2.810   9.150
 5853POPC   GL134321  15.172   2.783   8.850
 5853POPC   GL234322  15.207   2.890   8.850
 5853POPC   C1A34323  15.169   2.790   8.550
 5853POPC   D2A34324  15.225   2.796   8.250
 5853POPC   C3A34325  15.144   2.775   7.950
 5853POPC   C4A34326  15.209   2.755   7.650
 5853POPC   C1B34327  15.177   2.981   8.550
 5853POPC   C2B34328  15.196   2.987   8.250
 5853POPC   C3B34329  15.226   2.993   7.950
 5853POPC   C4B34330  15.195   3.054   7.650
 5854POPC   NC334331   2.002  31.470   9.450
 5854POPC   PO434332   2.017  31.496   9.150
 5854POPC   GL134333   1.950  31.502   8.850
 5854POPC   GL234334   1.905  31.423   8.850
 5854POPC   C1A34335   1.991  31.423   8.550
 5854POPC   D2A34336   1.949  31.440   8.250
 5854POPC   C3A34337   1.978  31.476   7.950
 5854POPC   C4A34338   2.009  31.490   7.650
 5854POPC   C1B34339   1.771  31.431   8.550
 5854POPC   C2B34340   1.720  31.433   8.250
 5854POPC   C3B34341   1.790  31.479   7.950
 5854POPC   C4B34342   1.753  31.398   7.650
 5855POPC   NC334343  27.623  31.486   9.450
 5855POPC   PO434344  27.561  31.457   9.150
 5855POPC   GL134345  27.556  31.479   8.850
 5855POPC   GL234346  27.534  31.316   8.850
 5855POPC   C1A34347  27.543  31.449   8.550
 5855POPC   D2A34348  27.550  31.479   8.250
 5855POPC   C3A34349  27.574  31.445   7.950
 5855POPC   C4A34350  27.587  31.477   7.650
 5855POPC   C1B34351  27.508  31.205   8.550
 5855POPC   C2B34352  27.510  31.256   8.250
 5855POPC   C3B34353  27.503  31.228   7.950
 5855POPC   C4B34354  27.456  31.263   7.650
 5856POPC   NC334355  42.303   6.665   9.450
 5856POPC   PO434356  42.296   6.689   9.150
 5856POPC   GL134357  42.370   6.669   8.850
 5856POPC   GL234358  42.285   6.721   8.850
 5856POPC   C1A34359  42.363   6.638   8.550
 5856POPC   D2A34360  42.291   6.666   8.250
 5856POPC   C3A34361  42.364   6.692   7.950
 5856POPC   C4A34362  42.325   6.672   7.650
 5856POPC   C1B34363  42.135   6.798   8.550
 5856POPC   C2B34364  42.157   6.842   8.250
 5856POPC   C3B34365  42.143   6.799   7.950
 5856POPC   C4B34366  42.141   6.815   7.650
 5857POPC   NC334367  36.888  38.461   9.450
 5857POPC   PO434368  36.872  38.415   9.150
 5857POPC   GL134369  36.857  38.476   8.850
 5857POPC   GL234370  36.787  38.381   8.850
 5857POPC   C1A34371  36.860  38.485   8.550
 5857POPC   D2A34372  36.948  38.445   8.250
 5857POPC   C3A34373  36.877  38.415   7.950
 5857POPC   C4A34374  36.865  38.410   7.650
 5857POPC   C1B34375  36.660  38.270   8.550
 5857POPC   C2B34376  36.719  38.351   8.250
 5857POPC   C3B34377  36.732  38.273   7.950
 5857POPC   C4B34378  36.699  38.347   7.650
 5858POPC   NC334379  34.568  11.334   9.450
 5858POPC   PO434380  34.576  11.291   9.150
 5858POPC   GL134381  34.617  11.254   8.850
 5858POPC   GL234382  34.625  11.423   8.850
 5858POPC   C1A34383  34.621  11.345   8.550
 5858POPC   D2A34384  34.528  11.309   8.250
 5858POPC   C3A34385  34.567  11.348   7.950
 5858POPC   C4A34386  34.548  11.327   7.650
 5858POPC   C1B34387  34.605  11.514   8.550
 5858POPC   C2B34388  34.564  11.557   8.250
 5858POPC   C3B34389  34.585  11.517   7.950
 5858POPC   C4B34390  34.627  11.593   7.650
 5859POPC   NC334391   5.913  19.813   9.450
 5859POPC   PO434392   5.832  19.847   9.150
 5859POPC   GL134393   5.837  19.871   8.850
 5859POPC   GL234394   5.854  19.967   8.850
 5859POPC   C1A34395   5.918  19.835   8.550
 5859POPC   D2A34396   5.857  19.804   8.250
 5859POPC   C3A34397   5.883  19.877   7.950
 5859POPC   C4A34398   5.894  19.828   7.650
 5859POPC   C1B34399   5.726  20.088   8.550
 5859POPC   C2B34400   5.800  20.096   8.250
 5859POPC   C3B34401   5.794  20.057   7.950
 5859POPC   C4B34402   5.709  20.066   7.650
 5860POPC   NC334403  33.794  25.250   9.450
 5860POPC   PO434404  33.821  25.240   9.150
 5860POPC   GL134405  33.787  25.258   8.850
 5860POPC   GL234406  33.748  25.436   8.850
 5860POPC   C1A34407  33.805  25.270   8.550
 5860POPC   D2A34408  33.776  25.241   8.250
 5860POPC   C3A34409  33.846  25.290   7.950
 5860POPC   C4A34410  33.766  25.241   7.650
 5860POPC   C1B34411  33.758  25.490   8.550
 5860POPC   C2B34412  33.782  25.516   8.250
 5860POPC   C3B34413  33.769  25.542   7.950
 5860POPC   C4B34414  33.707  25.482   7.650
 5861POPC   NC334415  29.966  40.782   9.450
 5861POPC   PO434416  29.957  40.808   9.150
 5861POPC   GL134417  29.930  40.816   8.850
 5861POPC   GL234418  30.023  40.885   8.850
 5861POPC   C1A34419  29.906  40.745   8.550
 5861POPC   D2A34420  29.968  40.810   8.250
 5861POPC   C3A34421  29.935  40.760   7.950
 5861POPC   C4A34422  29.930  40.791   7.650
 5861POPC   C1B34423  30.116  40.868   8.550
 5861POPC   C2B34424  30.181  40.884   8.250
 5861POPC   C3B34425  30.170  40.933   7.950
 5861POPC   C4B34426  30.153  40.916   7.650
 5862POPC   NC334427  43.873  32.978   9.450
 5862POPC   PO434428  43.924  33.033   9.150
 5862POPC   GL134429  43.877  33.014   8.850
 5862POPC   GL234430  43.904  32.914   8.850
 5862POPC   C1A34431  43.934  32.977   8.550
 5862POPC   D2A34432  43.891  33.065   8.250
 5862POPC   C3A34433  43.896  33.053   7.950
 5862POPC   C4A34434  43.874  33.053   7.650
 5862POPC   C1B34435  43.976  32.782   8.550
 5862POPC   C2B34436  43.999  32.798   8.250
 5862POPC   C3B34437  43.989  32.834   7.950
 5862POPC   C4B34438  43.973  32.853   7.650
 5863POPC   NC334439   4.298  31.504   9.450
 5863POPC   PO434440   4.362  31.426   9.150
 5863POPC   GL134441   4.335  31.459   8.850
 5863POPC   GL234442   4.367  31.324   8.850
 5863POPC   C1A34443   4.311  31.514   8.550
 5863POPC   D2A34444   4.290  31.459   8.250
 5863POPC   C3A34445   4.349  31.493   7.950
 5863POPC   C4A34446   4.268  31.457   7.650
 5863POPC   C1B34447   4.383  31.267   8.550
 5863POPC   C2B34448   4.430  31.222   8.250
 5863POPC   C3B34449   4.356  31.243   7.950
 5863POPC   C4B34450   4.388  31.227   7.650
 5864POPC   NC334451  27.550  36.164   9.450
 5864POPC   PO434452  27.600  36.135   9.150
 5864POPC   GL134453  27.618  36.177   8.850
 5864POPC   GL234454  27.447  36.226   8.850
 5864POPC   C1A34455  27.565  36.116   8.550
 5864POPC   D2A34456  27.594  36.158   8.250
 5864POPC   C3A34457  27.621  36.087   7.950
 5864POPC   C4A34458  27.555  36.081   7.650
 5864POPC   C1B34459  27.397  36.273   8.550
 5864POPC   C2B34460  27.382  36.255   8.250
 5864POPC   C3B34461  27.369  36.267   7.950
 5864POPC   C4B34462  27.347  36.265   7.650
 5865POPC   NC334463  24.534   5.841   9.450
 5865POPC   PO434464  24.471   5.912   9.150
 5865POPC   GL134465  24.479   5.828   8.850
 5865POPC   GL234466  24.338   5.881   8.850
 5865POPC   C1A34467  24.504   5.837   8.550
 5865POPC   D2A34468  24.536   5.837   8.250
 5865POPC   C3A34469  24.464   5.844   7.950
 5865POPC   C4A34470  24.482   5.884   7.650
 5865POPC   C1B34471  24.264   5.805   8.550
 5865POPC   C2B34472  24.230   5.815   8.250
 5865POPC   C3B34473  24.217   5.835   7.950
 5865POPC   C4B34474  24.244   5.843   7.650
 5866POPC   NC334475  25.229   7.389   9.450
 5866POPC   PO434476  25.272   7.413   9.150
 5866POPC   GL134477  25.239   7.414   8.850
 5866POPC   GL234478  25.209   7.484   8.850
 5866POPC   C1A34479  25.291   7.440   8.550
 5866POPC   D2A34480  25.285   7.433   8.250
 5866POPC   C3A34481  25.259   7.403   7.950
 5866POPC   C4A34482  25.286   7.394   7.650
 5866POPC   C1B34483  25.111   7.597   8.550
 5866POPC   C2B34484  25.099   7.651   8.250
 5866POPC   C3B34485  25.152   7.575   7.950
 5866POPC   C4B34486  25.152   7.608   7.650
 5867POPC   NC334487  18.280  34.589   9.450
 5867POPC   PO434488  18.298  34.575   9.150
 5867POPC   GL134489  18.263  34.599   8.850
 5867POPC   GL234490  18.249  34.672   8.850
 5867POPC   C1A34491  18.257  34.590   8.550
 5867POPC   D2A34492  18.303  34.624   8.250
 5867POPC   C3A34493  18.310  34.622   7.950
 5867POPC   C4A34494  18.315  34.557   7.650
 5867POPC   C1B34495  18.162  34.782   8.550
 5867POPC   C2B34496  18.158  34.793   8.250
 5867POPC   C3B34497  18.213  34.831   7.950
 5867POPC   C4B34498  18.186  34.830   7.650
 5868POPC   NC334499  13.584   5.081   9.450
 5868POPC   PO434500  13.664   5.137   9.150
 5868POPC   GL134501  13.665   5.122   8.850
 5868POPC   GL234502  13.760   5.011   8.850
 5868POPC   C1A34503  13.594   5.049   8.550
 5868POPC   D2A34504  13.611   5.127   8.250
 5868POPC   C3A34505  13.667   5.059   7.950
 5868POPC   C4A34506  13.646   5.104   7.650
 5868POPC   C1B34507  13.815   4.923   8.550
 5868POPC   C2B34508  13.853   4.942   8.250
 5868POPC   C3B34509  13.857   4.980   7.950
 5868POPC   C4B34510  13.838   4.987   7.650
 5869POPC   NC334511   9.798  18.318   9.450
 5869POPC   PO434512   9.752  18.265   9.150
 5869POPC   GL134513   9.733  18.285   8.850
 5869POPC   GL234514   9.703  18.204   8.850
 5869POPC   C1A34515   9.753  18.276   8.550
 5869POPC   D2A34516   9.713  18.243   8.250
 5869POPC   C3A34517   9.701  18.235   7.950
 5869POPC   C4A34518   9.787  18.262   7.650
 5869POPC   C1B34519   9.663  18.023   8.550
 5869POPC   C2B34520   9.698  18.086   8.250
 5869POPC   C3B34521   9.658  18.024   7.950
 5869POPC   C4B34522   9.705  18.057   7.650
 5870POPC   NC334523  11.285  31.470   9.450
 5870POPC   PO434524  11.288  31.471   9.150
 5870POPC   GL134525  11.313  31.478   8.850
 5870POPC   GL234526  11.300  31.316   8.850
 5870POPC   C1A34527  11.278  31.488   8.550
 5870POPC   D2A34528  11.337  31.435   8.250
 5870POPC   C3A34529  11.316  31.473   7.950
 5870POPC   C4A34530  11.319  31.474   7.650
 5870POPC   C1B34531  11.257  31.239   8.550
 5870POPC   C2B34532  11.241  31.181   8.250
 5870POPC   C3B34533  11.247  31.184   7.950
 5870POPC   C4B34534  11.270  31.206   7.650
 5871POPC   NC334535  35.396  18.270   9.450
 5871POPC   PO434536  35.335  18.291   9.150
 5871POPC   GL134537  35.373  18.234   8.850
 5871POPC   GL234538  35.474  18.331   8.850
 5871POPC   C1A34539  35.376  18.303   8.550
 5871POPC   D2A34540  35.396  18.305   8.250
 5871POPC   C3A34541  35.325  18.246   7.950
 5871POPC   C4A34542  35.375  18.276   7.650
 5871POPC   C1B34543  35.517  18.437   8.550
 5871POPC   C2B34544  35.554  18.396   8.250
 5871POPC   C3B34545  35.563  18.445   7.950
 5871POPC   C4B34546  35.541  18.433   7.650
 5872POPC   NC334547  31.490  36.126   9.450
 5872POPC   PO434548  31.510  36.175   9.150
 5872POPC   GL134549  31.469  36.084   8.850
 5872POPC   GL234550  31.597  36.154   8.850
 5872POPC   C1A34551  31.510  36.162   8.550
 5872POPC   D2A34552  31.448  36.108   8.250
 5872POPC   C3A34553  31.505  36.167   7.950
 5872POPC   C4A34554  31.424  36.109   7.650
 5872POPC   C1B34555  31.713  36.321   8.550
 5872POPC   C2B34556  31.680  36.299   8.250
 5872POPC   C3B34557  31.656  36.315   7.950
 5872POPC   C4B34558  31.665  36.243   7.650
 5873POPC   NC334559  32.264  19.029   9.450
 5873POPC   PO434560  32.240  19.025   9.150
 5873POPC   GL134561  32.295  19.019   8.850
 5873POPC   GL234562  32.341  19.101   8.850
 5873POPC   C1A34563  32.251  19.019   8.550
 5873POPC   D2A34564  32.256  19.055   8.250
 5873POPC   C3A34565  32.224  19.099   7.950
 5873POPC   C4A34566  32.240  19.084   7.650
 5873POPC   C1B34567  32.464  19.224   8.550
 5873POPC   C2B34568  32.479  19.203   8.250
 5873POPC   C3B34569  32.445  19.203   7.950
 5873POPC   C4B34570  32.434  19.194   7.650
 5874POPC   NC334571  37.641  12.045   9.450
 5874POPC   PO434572  37.631  12.050   9.150
 5874POPC   GL134573  37.634  12.090   8.850
 5874POPC   GL234574  37.697  11.909   8.850
 5874POPC   C1A34575  37.697  12.031   8.550
 5874POPC   D2A34576  37.642  12.090   8.250
 5874POPC   C3A34577  37.643  12.052   7.950
 5874POPC   C4A34578  37.685  12.079   7.650
 5874POPC   C1B34579  37.785  11.875   8.550
 5874POPC   C2B34580  37.757  11.875   8.250
 5874POPC   C3B34581  37.720  11.849   7.950
 5874POPC   C4B34582  37.785  11.864   7.650
 5875POPC   NC334583  16.739  12.842   9.450
 5875POPC   PO434584  16.724  12.809   9.150
 5875POPC   GL134585  16.770  12.898   8.850
 5875POPC   GL234586  16.651  12.764   8.850
 5875POPC   C1A34587  16.698  12.842   8.550
 5875POPC   D2A34588  16.776  12.873   8.250
 5875POPC   C3A34589  16.763  12.808   7.950
 5875POPC   C4A34590  16.727  12.844   7.650
 5875POPC   C1B34591  16.541  12.605   8.550
 5875POPC   C2B34592  16.542  12.628   8.250
 5875POPC   C3B34593  16.621  12.671   7.950
 5875POPC   C4B34594  16.617  12.661   7.650
 5876POPC   NC334595   7.374   2.029   9.450
 5876POPC   PO434596   7.416   2.012   9.150
 5876POPC   GL134597   7.390   2.014   8.850
 5876POPC   GL234598   7.415   2.120   8.850
 5876POPC   C1A34599   7.413   1.970   8.550
 5876POPC   D2A34600   7.417   2.017   8.250
 5876POPC   C3A34601   7.420   1.979   7.950
 5876POPC   C4A34602   7.395   2.019   7.650
 5876POPC   C1B34603   7.339   2.173   8.550
 5876POPC   C2B34604   7.353   2.189   8.250
 5876POPC   C3B34605   7.347   2.193   7.950
 5876POPC   C4B34606   7.341   2.246   7.650
 5877POPC   NC334607   5.892   5.046   9.450
 5877POPC   PO434608   5.841   5.112   9.150
 5877POPC   GL134609   5.893   5.052   8.850
 5877POPC   GL234610   5.894   5.258   8.850
 5877POPC   C1A34611   5.886   5.088   8.550
 5877POPC   D2A34612   5.826   5.138   8.250
 5877POPC   C3A34613   5.886   5.140   7.950
 5877POPC   C4A34614   5.892   5.137   7.650
 5877POPC   C1B34615   5.899   5.341   8.550
 5877POPC   C2B34616   5.899   5.381   8.250
 5877POPC   C3B34617   5.893   5.389   7.950
 5877POPC   C4B34618   5.845   5.298   7.650
 5878POPC   NC334619  19.103  35.337   9.450
 5878POPC   PO434620  19.073  35.402   9.150
 5878POPC   GL134621  19.066  35.352   8.850
 5878POPC   GL234622  18.970  35.194   8.850
 5878POPC   C1A34623  19.063  35.379   8.550
 5878POPC   D2A34624  19.023  35.362   8.250
 5878POPC   C3A34625  19.050  35.400   7.950
 5878POPC   C4A34626  19.094  35.328   7.650
 5878POPC   C1B34627  18.943  35.103   8.550
 5878POPC   C2B34628  18.965  35.094   8.250
 5878POPC   C3B34629  18.896  35.124   7.950
 5878POPC   C4B34630  18.900  35.101   7.650
 5879POPC   NC334631  11.305  26.074   9.450
 5879POPC   PO434632  11.327  26.077   9.150
 5879POPC   GL134633  11.304  26.002   8.850
 5879POPC   GL234634  11.313  25.956   8.850
 5879POPC   C1A34635  11.315  26.007   8.550
 5879POPC   D2A34636  11.323  26.056   8.250
 5879POPC   C3A34637  11.343  25.996   7.950
 5879POPC   C4A34638  11.253  26.067   7.650
 5879POPC   C1B34639  11.323  25.828   8.550
 5879POPC   C2B34640  11.315  25.760   8.250
 5879POPC   C3B34641  11.368  25.775   7.950
 5879POPC   C4B34642  11.350  25.783   7.650
 5880POPC   NC334643  43.105  26.809   9.450
 5880POPC   PO434644  43.141  26.846   9.150
 5880POPC   GL134645  43.105  26.846   8.850
 5880POPC   GL234646  43.046  26.964   8.850
 5880POPC   C1A34647  43.117  26.781   8.550
 5880POPC   D2A34648  43.146  26.808   8.250
 5880POPC   C3A34649  43.135  26.830   7.950
 5880POPC   C4A34650  43.087  26.819   7.650
 5880POPC   C1B34651  43.047  27.051   8.550
 5880POPC   C2B34652  43.015  27.024   8.250
 5880POPC   C3B34653  43.013  27.075   7.950
 5880POPC   C4B34654  42.995  27.075   7.650
 5881POPC   NC334655   0.465  24.530   9.450
 5881POPC   PO434656   0.454  24.459   9.150
 5881POPC   GL134657   0.410  24.473   8.850
 5881POPC   GL234658   0.362  24.441   8.850
 5881POPC   C1A34659   0.468  24.506   8.550
 5881POPC   D2A34660   0.406  24.451   8.250
 5881POPC   C3A34661   0.402  24.495   7.950
 5881POPC   C4A34662   0.415  24.444   7.650
 5881POPC   C1B34663   0.249  24.332   8.550
 5881POPC   C2B34664   0.187  24.316   8.250
 5881POPC   C3B34665   0.257  24.316   7.950
 5881POPC   C4B34666   0.185  24.415   7.650
 5882POPC   NC334667  36.878  35.391   9.450
 5882POPC   PO434668  36.868  35.369   9.150
 5882POPC   GL134669  36.858  35.313   8.850
 5882POPC   GL234670  36.974  35.438   8.850
 5882POPC   C1A34671  36.929  35.324   8.550
 5882POPC   D2A34672  36.877  35.374   8.250
 5882POPC   C3A34673  36.951  35.360   7.950
 5882POPC   C4A34674  36.922  35.349   7.650
 5882POPC   C1B34675  37.000  35.580   8.550
 5882POPC   C2B34676  36.965  35.637   8.250
 5882POPC   C3B34677  36.997  35.552   7.950
 5882POPC   C4B34678  36.909  35.620   7.650
 5883POPC   NC334679  42.334   9.769   9.450
 5883POPC   PO434680  42.326   9.763   9.150
 5883POPC   GL134681  42.335   9.782   8.850
 5883POPC   GL234682  42.347   9.831   8.850
 5883POPC   C1A34683  42.369   9.776   8.550
 5883POPC   D2A34684  42.354   9.712   8.250
 5883POPC   C3A34685  42.299   9.735   7.950
 5883POPC   C4A34686  42.359   9.700   7.650
 5883POPC   C1B34687  42.462   9.987   8.550
 5883POPC   C2B34688  42.423   9.935   8.250
 5883POPC   C3B34689  42.467  10.001   7.950
 5883POPC   C4B34690  42.467   9.948   7.650
 5884POPC   NC334691  26.818  33.007   9.450
 5884POPC   PO434692  26.782  33.048   9.150
 5884POPC   GL134693  26.820  33.072   8.850
 5884POPC   GL234694  26.950  32.999   8.850
 5884POPC   C1A34695  26.836  33.019   8.550
 5884POPC   D2A34696  26.827  33.001   8.250
 5884POPC   C3A34697  26.827  32.998   7.950
 5884POPC   C4A34698  26.804  33.025   7.650
 5884POPC   C1B34699  27.114  33.049   8.550
 5884POPC   C2B34700  27.032  33.025   8.250
 5884POPC   C3B34701  27.050  33.067   7.950
 5884POPC   C4B34702  27.048  33.083   7.650
 5885POPC   NC334703  44.622  30.660   9.450
 5885POPC   PO434704  44.627  30.712   9.150
 5885POPC   GL134705  44.658  30.695   8.850
 5885POPC   GL234706  44.569  30.593   8.850
 5885POPC   C1A34707  44.711  30.653   8.550
 5885POPC   D2A34708  44.623  30.736   8.250
 5885POPC   C3A34709  44.700  30.678   7.950
 5885POPC   C4A34710  44.649  30.671   7.650
 5885POPC   C1B34711  44.559  30.433   8.550
 5885POPC   C2B34712  44.580  30.459   8.250
 5885POPC   C3B34713  44.566  30.478   7.950
 5885POPC   C4B34714  44.583  30.461   7.650
 5886POPC   NC334715   5.101  39.204   9.450
 5886POPC   PO434716   5.052  39.220   9.150
 5886POPC   GL134717   5.129  39.244   8.850
 5886POPC   GL234718   5.230  39.314   8.850
 5886POPC   C1A34719   5.141  39.196   8.550
 5886POPC   D2A34720   5.122  39.193   8.250
 5886POPC   C3A34721   5.111  39.184   7.950
 5886POPC   C4A34722   5.100  39.256   7.650
 5886POPC   C1B34723   5.351  39.383   8.550
 5886POPC   C2B34724   5.263  39.329   8.250
 5886POPC   C3B34725   5.319  39.348   7.950
 5886POPC   C4B34726   5.283  39.360   7.650
 5887POPC   NC334727  25.242  35.306   9.450
 5887POPC   PO434728  25.312  35.382   9.150
 5887POPC   GL134729  25.272  35.387   8.850
 5887POPC   GL234730  25.360  35.458   8.850
 5887POPC   C1A34731  25.247  35.309   8.550
 5887POPC   D2A34732  25.250  35.356   8.250
 5887POPC   C3A34733  25.225  35.378   7.950
 5887POPC   C4A34734  25.287  35.354   7.650
 5887POPC   C1B34735  25.479  35.483   8.550
 5887POPC   C2B34736  25.450  35.475   8.250
 5887POPC   C3B34737  25.514  35.495   7.950
 5887POPC   C4B34738  25.496  35.426   7.650
 5888POPC   NC334739  37.665   8.222   9.450
 5888POPC   PO434740  37.703   8.238   9.150
 5888POPC   GL134741  37.688   8.215   8.850
 5888POPC   GL234742  37.786   8.055   8.850
 5888POPC   C1A34743  37.634   8.224   8.550
 5888POPC   D2A34744  37.688   8.219   8.250
 5888POPC   C3A34745  37.649   8.242   7.950
 5888POPC   C4A34746  37.703   8.177   7.650
 5888POPC   C1B34747  37.795   8.015   8.550
 5888POPC   C2B34748  37.777   7.996   8.250
 5888POPC   C3B34749  37.781   8.013   7.950
 5888POPC   C4B34750  37.822   7.951   7.650
 5889POPC   NC334751  23.709  36.136   9.450
 5889POPC   PO434752  23.746  36.155   9.150
 5889POPC   GL134753  23.734  36.085   8.850
 5889POPC   GL234754  23.661  36.251   8.850
 5889POPC   C1A34755  23.668  36.109   8.550
 5889POPC   D2A34756  23.710  36.157   8.250
 5889POPC   C3A34757  23.675  36.157   7.950
 5889POPC   C4A34758  23.698  36.136   7.650
 5889POPC   C1B34759  23.626  36.340   8.550
 5889POPC   C2B34760  23.612  36.405   8.250
 5889POPC   C3B34761  23.597  36.362   7.950
 5889POPC   C4B34762  23.630  36.390   7.650
 5890POPC   NC334763   0.454  36.888   9.450
 5890POPC   PO434764   0.390  36.875   9.150
 5890POPC   GL134765   0.464  36.867   8.850
 5890POPC   GL234766   0.325  37.001   8.850
 5890POPC   C1A34767   0.479  36.897   8.550
 5890POPC   D2A34768   0.471  36.948   8.250
 5890POPC   C3A34769   0.399  36.906   7.950
 5890POPC   C4A34770   0.406  36.864   7.650
 5890POPC   C1B34771   0.327  37.142   8.550
 5890POPC   C2B34772   0.288  37.127   8.250
 5890POPC   C3B34773   0.311  37.066   7.950
 5890POPC   C4B34774   0.345  37.103   7.650
 5891POPC   NC334775  38.465  36.892   9.450
 5891POPC   PO434776  38.445  36.910   9.150
 5891POPC   GL134777  38.469  36.886   8.850
 5891POPC   GL234778  38.574  37.003   8.850
 5891POPC   C1A34779  38.502  36.939   8.550
 5891POPC   D2A34780  38.478  36.945   8.250
 5891POPC   C3A34781  38.483  36.948   7.950
 5891POPC   C4A34782  38.413  36.869   7.650
 5891POPC   C1B34783  38.648  37.146   8.550
 5891POPC   C2B34784  38.568  37.064   8.250
 5891POPC   C3B34785  38.623  37.125   7.950
 5891POPC   C4B34786  38.652  37.088   7.650
 5892POPC   NC334787  42.378   2.743   9.450
 5892POPC   PO434788  42.363   2.732   9.150
 5892POPC   GL134789  42.316   2.810   8.850
 5892POPC   GL234790  42.259   2.863   8.850
 5892POPC   C1A34791  42.290   2.773   8.550
 5892POPC   D2A34792  42.365   2.742   8.250
 5892POPC   C3A34793  42.356   2.773   7.950
 5892POPC   C4A34794  42.368   2.801   7.650
 5892POPC   C1B34795  42.078   2.919   8.550
 5892POPC   C2B34796  42.117   2.919   8.250
 5892POPC   C3B34797  42.098   2.859   7.950
 5892POPC   C4B34798  42.119   2.838   7.650
 5893POPC   NC334799   6.689  12.121   9.450
 5893POPC   PO434800   6.623  12.107   9.150
 5893POPC   GL134801   6.630  12.086   8.850
 5893POPC   GL234802   6.640  11.932   8.850
 5893POPC   C1A34803   6.604  12.085   8.550
 5893POPC   D2A34804   6.647  12.109   8.250
 5893POPC   C3A34805   6.666  12.056   7.950
 5893POPC   C4A34806   6.637  12.040   7.650
 5893POPC   C1B34807   6.604  11.796   8.550
 5893POPC   C2B34808   6.597  11.848   8.250
 5893POPC   C3B34809   6.544  11.854   7.950
 5893POPC   C4B34810   6.575  11.805   7.650
 5894POPC   NC334811   9.706  36.137   9.450
 5894POPC   PO434812   9.698  36.167   9.150
 5894POPC   GL134813   9.755  36.118   8.850
 5894POPC   GL234814   9.870  36.047   8.850
 5894POPC   C1A34815   9.724  36.134   8.550
 5894POPC   D2A34816   9.785  36.166   8.250
 5894POPC   C3A34817   9.790  36.121   7.950
 5894POPC   C4A34818   9.739  36.170   7.650
 5894POPC   C1B34819   9.933  36.004   8.550
 5894POPC   C2B34820   9.944  35.976   8.250
 5894POPC   C3B34821   9.949  35.952   7.950
 5894POPC   C4B34822   9.931  36.003   7.650
 5895POPC   NC334823  31.507   0.427   9.450
 5895POPC   PO434824  31.437   0.414   9.150
 5895POPC   GL134825  31.423   0.473   8.850
 5895POPC   GL234826  31.418   0.572   8.850
 5895POPC   C1A34827  31.502   0.457   8.550
 5895POPC   D2A34828  31.482   0.400   8.250
 5895POPC   C3A34829  31.477   0.480   7.950
 5895POPC   C4A34830  31.482   0.429   7.650
 5895POPC   C1B34831  31.357   0.632   8.550
 5895POPC   C2B34832  31.358   0.681   8.250
 5895POPC   C3B34833  31.279   0.616   7.950
 5895POPC   C4B34834  31.328   0.665   7.650
 5896POPC   NC334835  33.769   2.759   9.450
 5896POPC   PO434836  33.834   2.757   9.150
 5896POPC   GL134837  33.831   2.744   8.850
 5896POPC   GL234838  33.929   2.806   8.850
 5896POPC   C1A34839  33.842   2.778   8.550
 5896POPC   D2A34840  33.834   2.727   8.250
 5896POPC   C3A34841  33.782   2.753   7.950
 5896POPC   C4A34842  33.830   2.724   7.650
 5896POPC   C1B34843  34.027   2.960   8.550
 5896POPC   C2B34844  33.956   2.923   8.250
 5896POPC   C3B34845  34.006   2.909   7.950
 5896POPC   C4B34846  33.968   2.927   7.650
 5897POPC   NC334847  17.499   9.783   9.450
 5897POPC   PO434848  17.527   9.784   9.150
 5897POPC   GL134849  17.478   9.725   8.850
 5897POPC   GL234850  17.654   9.748   8.850
 5897POPC   C1A34851  17.481   9.765   8.550
 5897POPC   D2A34852  17.491   9.727   8.250
 5897POPC   C3A34853  17.479   9.746   7.950
 5897POPC   C4A34854  17.547   9.715   7.650
 5897POPC   C1B34855  17.784   9.781   8.550
 5897POPC   C2B34856  17.725   9.748   8.250
 5897POPC   C3B34857  17.798   9.764   7.950
 5897POPC   C4B34858  17.768   9.799   7.650
 5898POPC   NC334859  38.429  29.875   9.450
 5898POPC   PO434860  38.425  29.903   9.150
 5898POPC   GL134861  38.430  29.887   8.850
 5898POPC   GL234862  38.391  30.024   8.850
 5898POPC   C1A34863  38.428  29.918   8.550
 5898POPC   D2A34864  38.460  29.948   8.250
 5898POPC   C3A34865  38.495  29.883   7.950
 5898POPC   C4A34866  38.483  29.913   7.650
 5898POPC   C1B34867  38.292  30.015   8.550
 5898POPC   C2B34868  38.224  30.083   8.250
 5898POPC   C3B34869  38.233  30.106   7.950
 5898POPC   C4B34870  38.211  30.050   7.650
 5899POPC   NC334871  42.310  35.329   9.450
 5899POPC   PO434872  42.353  35.322   9.150
 5899POPC   GL134873  42.364  35.346   8.850
 5899POPC   GL234874  42.388  35.458   8.850
 5899POPC   C1A34875  42.383  35.373   8.550
 5899POPC   D2A34876  42.374  35.308   8.250
 5899POPC   C3A34877  42.360  35.356   7.950
 5899POPC   C4A34878  42.317  35.307   7.650
 5899POPC   C1B34879  42.326  35.620   8.550
 5899POPC   C2B34880  42.297  35.585   8.250
 5899POPC   C3B34881  42.389  35.564   7.950
 5899POPC   C4B34882  42.367  35.583   7.650
 5900POPC   NC334883  29.137  43.103   9.450
 5900POPC   PO434884  29.192  43.148   9.150
 5900POPC   GL134885  29.163  43.142   8.850
 5900POPC   GL234886  29.258  43.153   8.850
 5900POPC   C1A34887  29.103  43.129   8.550
 5900POPC   D2A34888  29.108  43.129   8.250
 5900POPC   C3A34889  29.096  43.128   7.950
 5900POPC   C4A34890  29.125  43.112   7.650
 5900POPC   C1B34891  29.358  43.114   8.550
 5900POPC   C2B34892  29.395  43.173   8.250
 5900POPC   C3B34893  29.435  43.157   7.950
 5900POPC   C4B34894  29.409  43.174   7.650
 5901POPC   NC334895  22.198   8.202   9.450
 5901POPC   PO434896  22.201   8.217   9.150
 5901POPC   GL134897  22.197   8.178   8.850
 5901POPC   GL234898  22.151   8.042   8.850
 5901POPC   C1A34899  22.123   8.192   8.550
 5901POPC   D2A34900  22.151   8.177   8.250
 5901POPC   C3A34901  22.113   8.166   7.950
 5901POPC   C4A34902  22.169   8.206   7.650
 5901POPC   C1B34903  22.030   7.995   8.550
 5901POPC   C2B34904  22.060   7.942   8.250
 5901POPC   C3B34905  22.088   7.945   7.950
 5901POPC   C4B34906  22.076   7.994   7.650
 5902POPC   NC334907  19.852  29.170   9.450
 5902POPC   PO434908  19.835  29.110   9.150
 5902POPC   GL134909  19.878  29.177   8.850
 5902POPC   GL234910  19.683  29.168   8.850
 5902POPC   C1A34911  19.815  29.169   8.550
 5902POPC   D2A34912  19.856  29.173   8.250
 5902POPC   C3A34913  19.839  29.172   7.950
 5902POPC   C4A34914  19.827  29.164   7.650
 5902POPC   C1B34915  19.611  29.177   8.550
 5902POPC   C2B34916  19.601  29.181   8.250
 5902POPC   C3B34917  19.584  29.142   7.950
 5902POPC   C4B34918  19.634  29.194   7.650
 5903POPC   NC334919  36.884  26.831   9.450
 5903POPC   PO434920  36.889  26.847   9.150
 5903POPC   GL134921  36.911  26.793   8.850
 5903POPC   GL234922  36.764  26.842   8.850
 5903POPC   C1A34923  36.943  26.806   8.550
 5903POPC   D2A34924  36.880  26.838   8.250
 5903POPC   C3A34925  36.950  26.834   7.950
 5903POPC   C4A34926  36.860  26.861   7.650
 5903POPC   C1B34927  36.628  26.759   8.550
 5903POPC   C2B34928  36.652  26.777   8.250
 5903POPC   C3B34929  36.695  26.808   7.950
 5903POPC   C4B34930  36.668  26.812   7.650
 5904POPC   NC334931  22.922   0.441   9.450
 5904POPC   PO434932  22.917   0.394   9.150
 5904POPC   GL134933  22.947   0.483   8.850
 5904POPC   GL234934  22.972   0.571   8.850
 5904POPC   C1A34935  22.905   0.399   8.550
 5904POPC   D2A34936  22.891   0.407   8.250
 5904POPC   C3A34937  22.914   0.459   7.950
 5904POPC   C4A34938  22.888   0.413   7.650
 5904POPC   C1B34939  23.001   0.634   8.550
 5904POPC   C2B34940  23.048   0.691   8.250
 5904POPC   C3B34941  23.070   0.699   7.950
 5904POPC   C4B34942  23.022   0.688   7.650
 5905POPC   NC334943  14.450  28.354   9.450
 5905POPC   PO434944  14.381  28.333   9.150
 5905POPC   GL134945  14.431  28.343   8.850
 5905POPC   GL234946  14.422  28.242   8.850
 5905POPC   C1A34947  14.381  28.387   8.550
 5905POPC   D2A34948  14.431  28.357   8.250
 5905POPC   C3A34949  14.401  28.411   7.950
 5905POPC   C4A34950  14.384  28.340   7.650
 5905POPC   C1B34951  14.394  28.164   8.550
 5905POPC   C2B34952  14.375  28.125   8.250
 5905POPC   C3B34953  14.336  28.075   7.950
 5905POPC   C4B34954  14.323  28.156   7.650
 5906POPC   NC334955   5.839   0.435   9.450
 5906POPC   PO434956   5.832   0.463   9.150
 5906POPC   GL134957   5.878   0.468   8.850
 5906POPC   GL234958   5.867   0.582   8.850
 5906POPC   C1A34959   5.844   0.416   8.550
 5906POPC   D2A34960   5.849   0.439   8.250
 5906POPC   C3A34961   5.897   0.389   7.950
 5906POPC   C4A34962   5.858   0.451   7.650
 5906POPC   C1B34963   5.940   0.681   8.550
 5906POPC   C2B34964   5.941   0.711   8.250
 5906POPC   C3B34965   5.942   0.702   7.950
 5906POPC   C4B34966   5.894   0.670   7.650
 5907POPC   NC334967   9.706  40.028   9.450
 5907POPC   PO434968   9.761  40.052   9.150
 5907POPC   GL134969   9.709  40.029   8.850
 5907POPC   GL234970   9.764  39.919   8.850
 5907POPC   C1A34971   9.731  40.004   8.550
 5907POPC   D2A34972   9.790  39.972   8.250
 5907POPC   C3A34973   9.739  40.026   7.950
 5907POPC   C4A34974   9.770  39.972   7.650
 5907POPC   C1B34975   9.703  39.749   8.550
 5907POPC   C2B34976   9.727  39.736   8.250
 5907POPC   C3B34977   9.735  39.804   7.950
 5907POPC   C4B34978   9.741  39.717   7.650
 5908POPC   NC334979  12.871  41.525   9.450
 5908POPC   PO434980  12.893  41.515   9.150
 5908POPC   GL134981  12.814  41.596   8.850
 5908POPC   GL234982  12.941  41.624   8.850
 5908POPC   C1A34983  12.858  41.545   8.550
 5908POPC   D2A34984  12.867  41.533   8.250
 5908POPC   C3A34985  12.812  41.545   7.950
 5908POPC   C4A34986  12.893  41.564   7.650
 5908POPC   C1B34987  13.114  41.599   8.550
 5908POPC   C2B34988  13.077  41.577   8.250
 5908POPC   C3B34989  13.063  41.608   7.950
 5908POPC   C4B34990  13.137  41.590   7.650
 5909POPC   NC334991  29.123  24.465   9.450
 5909POPC   PO434992  29.114  24.520   9.150
 5909POPC   GL134993  29.148  24.491   8.850
 5909POPC   GL234994  29.302  24.419   8.850
 5909POPC   C1A34995  29.127  24.467   8.550
 5909POPC   D2A34996  29.111  24.468   8.250
 5909POPC   C3A34997  29.178  24.475   7.950
 5909POPC   C4A34998  29.188  24.443   7.650
 5909POPC   C1B34999  29.407  24.445   8.550
 5909POPC   C2B35000  29.360  24.387   8.250
 5909POPC   C3B35001  29.384  24.471   7.950
 5909POPC   C4B35002  29.416  24.473   7.650
 5910POPC   NC335003  28.374   8.245   9.450
 5910POPC   PO435004  28.401   8.225   9.150
 5910POPC   GL135005  28.371   8.170   8.850
 5910POPC   GL235006  28.348   8.317   8.850
 5910POPC   C1A35007  28.406   8.152   8.550
 5910POPC   D2A35008  28.388   8.166   8.250
 5910POPC   C3A35009  28.415   8.226   7.950
 5910POPC   C4A35010  28.336   8.208   7.650
 5910POPC   C1B35011  28.383   8.463   8.550
 5910POPC   C2B35012  28.405   8.405   8.250
 5910POPC   C3B35013  28.364   8.428   7.950
 5910POPC   C4B35014  28.412   8.408   7.650
 5911POPC   NC335015   2.011   5.056   9.450
 5911POPC   PO435016   1.957   5.137   9.150
 5911POPC   GL135017   1.967   5.107   8.850
 5911POPC   GL235018   1.915   5.027   8.850
 5911POPC   C1A35019   1.963   5.143   8.550
 5911POPC   D2A35020   1.984   5.098   8.250
 5911POPC   C3A35021   1.956   5.086   7.950
 5911POPC   C4A35022   1.994   5.113   7.650
 5911POPC   C1B35023   1.853   4.857   8.550
 5911POPC   C2B35024   1.905   4.824   8.250
 5911POPC   C3B35025   1.918   4.856   7.950
 5911POPC   C4B35026   1.883   4.840   7.650
 5912POPC   NC335027  19.788   3.534   9.450
 5912POPC   PO435028  19.833   3.539   9.150
 5912POPC   GL135029  19.808   3.583   8.850
 5912POPC   GL235030  19.956   3.517   8.850
 5912POPC   C1A35031  19.843   3.535   8.550
 5912POPC   D2A35032  19.827   3.574   8.250
 5912POPC   C3A35033  19.834   3.523   7.950
 5912POPC   C4A35034  19.855   3.493   7.650
 5912POPC   C1B35035  20.076   3.499   8.550
 5912POPC   C2B35036  20.036   3.489   8.250
 5912POPC   C3B35037  20.085   3.478   7.950
 5912POPC   C4B35038  20.083   3.515   7.650
 5913POPC   NC335039  22.978  33.757   9.450
 5913POPC   PO435040  22.889  33.809   9.150
 5913POPC   GL135041  22.954  33.764   8.850
 5913POPC   GL235042  23.013  33.794   8.850
 5913POPC   C1A35043  22.898  33.782   8.550
 5913POPC   D2A35044  22.981  33.828   8.250
 5913POPC   C3A35045  22.946  33.765   7.950
 5913POPC   C4A35046  22.919  33.825   7.650
 5913POPC   C1B35047  23.223  33.846   8.550
 5913POPC   C2B35048  23.155  33.868   8.250
 5913POPC   C3B35049  23.226  33.873   7.950
 5913POPC   C4B35050  23.212  33.865   7.650
 5914POPC   NC335051  20.590  16.780   9.450
 5914POPC   PO435052  20.659  16.747   9.150
 5914POPC   GL135053  20.579  16.757   8.850
 5914POPC   GL235054  20.684  16.615   8.850
 5914POPC   C1A35055  20.568  16.684   8.550
 5914POPC   D2A35056  20.571  16.740   8.250
 5914POPC   C3A35057  20.626  16.720   7.950
 5914POPC   C4A35058  20.650  16.729   7.650
 5914POPC   C1B35059  20.665  16.517   8.550
 5914POPC   C2B35060  20.677  16.484   8.250
 5914POPC   C3B35061  20.687  16.487   7.950
 5914POPC   C4B35062  20.640  16.509   7.650
 5915POPC   NC335063   9.712  26.046   9.450
 5915POPC   PO435064   9.720  26.044   9.150
 5915POPC   GL135065   9.724  26.063   8.850
 5915POPC   GL235066   9.657  26.130   8.850
 5915POPC   C1A35067   9.755  26.059   8.550
 5915POPC   D2A35068   9.768  26.001   8.250
 5915POPC   C3A35069   9.738  26.089   7.950
 5915POPC   C4A35070   9.734  26.076   7.650
 5915POPC   C1B35071   9.590  26.228   8.550
 5915POPC   C2B35072   9.640  26.223   8.250
 5915POPC   C3B35073   9.664  26.222   7.950
 5915POPC   C4B35074   9.586  26.214   7.650
 5916POPC   NC335075  19.874  33.825   9.450
 5916POPC   PO435076  19.830  33.756   9.150
 5916POPC   GL135077  19.831  33.755   8.850
 5916POPC   GL235078  19.721  33.872   8.850
 5916POPC   C1A35079  19.810  33.778   8.550
 5916POPC   D2A35080  19.813  33.823   8.250
 5916POPC   C3A35081  19.818  33.814   7.950
 5916POPC   C4A35082  19.790  33.753   7.650
 5916POPC   C1B35083  19.607  33.896   8.550
 5916POPC   C2B35084  19.578  33.838   8.250
 5916POPC   C3B35085  19.629  33.852   7.950
 5916POPC   C4B35086  19.566  33.833   7.650
 5917POPC   NC335087   4.342  38.438   9.450
 5917POPC   PO435088   4.311  38.443   9.150
 5917POPC   GL135089   4.276  38.447   8.850
 5917POPC   GL235090   4.340  38.591   8.850
 5917POPC   C1A35091   4.284  38.464   8.550
 5917POPC   D2A35092   4.297  38.430   8.250
 5917POPC   C3A35093   4.315  38.434   7.950
 5917POPC   C4A35094   4.357  38.426   7.650
 5917POPC   C1B35095   4.264  38.717   8.550
 5917POPC   C2B35096   4.323  38.721   8.250
 5917POPC   C3B35097   4.236  38.742   7.950
 5917POPC   C4B35098   4.264  38.681   7.650
 5918POPC   NC335099   5.834  14.438   9.450
 5918POPC   PO435100   5.886  14.419   9.150
 5918POPC   GL135101   5.893  14.443   8.850
 5918POPC   GL235102   5.792  14.484   8.850
 5918POPC   C1A35103   5.872  14.451   8.550
 5918POPC   D2A35104   5.835  14.435   8.250
 5918POPC   C3A35105   5.854  14.359   7.950
 5918POPC   C4A35106   5.822  14.400   7.650
 5918POPC   C1B35107   5.739  14.590   8.550
 5918POPC   C2B35108   5.826  14.625   8.250
 5918POPC   C3B35109   5.815  14.627   7.950
 5918POPC   C4B35110   5.769  14.620   7.650
 5919POPC   NC335111   4.350  30.696   9.450
 5919POPC   PO435112   4.333  30.664   9.150
 5919POPC   GL135113   4.328  30.690   8.850
 5919POPC   GL235114   4.201  30.549   8.850
 5919POPC   C1A35115   4.324  30.694   8.550
 5919POPC   D2A35116   4.358  30.721   8.250
 5919POPC   C3A35117   4.340  30.707   7.950
 5919POPC   C4A35118   4.273  30.696   7.650
 5919POPC   C1B35119   4.125  30.474   8.550
 5919POPC   C2B35120   4.223  30.445   8.250
 5919POPC   C3B35121   4.151  30.444   7.950
 5919POPC   C4B35122   4.168  30.521   7.650
 5920POPC   NC335123   5.858  23.746   9.450
 5920POPC   PO435124   5.879  23.748   9.150
 5920POPC   GL135125   5.876  23.695   8.850
 5920POPC   GL235126   6.002  23.782   8.850
 5920POPC   C1A35127   5.900  23.753   8.550
 5920POPC   D2A35128   5.834  23.679   8.250
 5920POPC   C3A35129   5.843  23.709   7.950
 5920POPC   C4A35130   5.897  23.745   7.650
 5920POPC   C1B35131   6.136  23.772   8.550
 5920POPC   C2B35132   6.137  23.781   8.250
 5920POPC   C3B35133   6.114  23.830   7.950
 5920POPC   C4B35134   6.097  23.825   7.650
 5921POPC   NC335135   8.220   4.329   9.450
 5921POPC   PO435136   8.167   4.325   9.150
 5921POPC   GL135137   8.197   4.352   8.850
 5921POPC   GL235138   8.344   4.357   8.850
 5921POPC   C1A35139   8.189   4.333   8.550
 5921POPC   D2A35140   8.224   4.298   8.250
 5921POPC   C3A35141   8.174   4.299   7.950
 5921POPC   C4A35142   8.187   4.341   7.650
 5921POPC   C1B35143   8.483   4.384   8.550
 5921POPC   C2B35144   8.466   4.316   8.250
 5921POPC   C3B35145   8.442   4.331   7.950
 5921POPC   C4B35146   8.439   4.363   7.650
 5922POPC   NC335147   5.127  38.450   9.450
 5922POPC   PO435148   5.069  38.456   9.150
 5922POPC   GL135149   5.107  38.458   8.850
 5922POPC   GL235150   5.202  38.485   8.850
 5922POPC   C1A35151   5.094  38.478   8.550
 5922POPC   D2A35152   5.098  38.462   8.250
 5922POPC   C3A35153   5.124  38.409   7.950
 5922POPC   C4A35154   5.075  38.412   7.650
 5922POPC   C1B35155   5.323  38.433   8.550
 5922POPC   C2B35156   5.341  38.397   8.250
 5922POPC   C3B35157   5.377  38.452   7.950
 5922POPC   C4B35158   5.386  38.453   7.650
 5923POPC   NC335159  30.741  33.783   9.450
 5923POPC   PO435160  30.727  33.827   9.150
 5923POPC   GL135161  30.739  33.835   8.850
 5923POPC   GL235162  30.689  33.642   8.850
 5923POPC   C1A35163  30.701  33.768   8.550
 5923POPC   D2A35164  30.731  33.767   8.250
 5923POPC   C3A35165  30.697  33.781   7.950
 5923POPC   C4A35166  30.688  33.782   7.650
 5923POPC   C1B35167  30.589  33.611   8.550
 5923POPC   C2B35168  30.614  33.549   8.250
 5923POPC   C3B35169  30.639  33.534   7.950
 5923POPC   C4B35170  30.616  33.554   7.650
 5924POPC   NC335171  38.432  28.402   9.450
 5924POPC   PO435172  38.409  28.339   9.150
 5924POPC   GL135173  38.423  28.341   8.850
 5924POPC   GL235174  38.315  28.431   8.850
 5924POPC   C1A35175  38.477  28.348   8.550
 5924POPC   D2A35176  38.466  28.355   8.250
 5924POPC   C3A35177  38.484  28.338   7.950
 5924POPC   C4A35178  38.453  28.410   7.650
 5924POPC   C1B35179  38.232  28.536   8.550
 5924POPC   C2B35180  38.233  28.496   8.250
 5924POPC   C3B35181  38.290  28.535   7.950
 5924POPC   C4B35182  38.275  28.518   7.650
 5925POPC   NC335183  30.672  18.301   9.450
 5925POPC   PO435184  30.743  18.288   9.150
 5925POPC   GL135185  30.674  18.249   8.850
 5925POPC   GL235186  30.798  18.309   8.850
 5925POPC   C1A35187  30.657  18.319   8.550
 5925POPC   D2A35188  30.686  18.325   8.250
 5925POPC   C3A35189  30.721  18.241   7.950
 5925POPC   C4A35190  30.648  18.261   7.650
 5925POPC   C1B35191  30.928  18.280   8.550
 5925POPC   C2B35192  30.907  18.305   8.250
 5925POPC   C3B35193  30.951  18.256   7.950
 5925POPC   C4B35194  30.992  18.290   7.650
 5926POPC   NC335195  22.946   1.941   9.450
 5926POPC   PO435196  22.940   2.032   9.150
 5926POPC   GL135197  22.906   1.967   8.850
 5926POPC   GL235198  22.884   1.829   8.850
 5926POPC   C1A35199  22.914   1.978   8.550
 5926POPC   D2A35200  22.958   1.965   8.250
 5926POPC   C3A35201  22.984   1.976   7.950
 5926POPC   C4A35202  22.894   1.961   7.650
 5926POPC   C1B35203  22.935   1.779   8.550
 5926POPC   C2B35204  22.898   1.709   8.250
 5926POPC   C3B35205  22.877   1.748   7.950
 5926POPC   C4B35206  22.847   1.716   7.650
 5927POPC   NC335207  26.865  24.481   9.450
 5927POPC   PO435208  26.866  24.475   9.150
 5927POPC   GL135209  26.840  24.494   8.850
 5927POPC   GL235210  26.886  24.569   8.850
 5927POPC   C1A35211  26.809  24.511   8.550
 5927POPC   D2A35212  26.835  24.481   8.250
 5927POPC   C3A35213  26.834  24.519   7.950
 5927POPC   C4A35214  26.850  24.444   7.650
 5927POPC   C1B35215  26.978  24.718   8.550
 5927POPC   C2B35216  26.996  24.682   8.250
 5927POPC   C3B35217  26.996  24.662   7.950
 5927POPC   C4B35218  26.928  24.720   7.650
 5928POPC   NC335219   7.446  29.124   9.450
 5928POPC   PO435220   7.388  29.113   9.150
 5928POPC   GL135221   7.374  29.181   8.850
 5928POPC   GL235222   7.423  28.993   8.850
 5928POPC   C1A35223   7.438  29.193   8.550
 5928POPC   D2A35224   7.393  29.178   8.250
 5928POPC   C3A35225   7.372  29.163   7.950
 5928POPC   C4A35226   7.431  29.164   7.650
 5928POPC   C1B35227   7.487  28.935   8.550
 5928POPC   C2B35228   7.458  28.907   8.250
 5928POPC   C3B35229   7.527  28.927   7.950
 5928POPC   C4B35230   7.460  28.872   7.650
 5929POPC   NC335231   9.741  44.622   9.450
 5929POPC   PO435232   9.788  44.683   9.150
 5929POPC   GL135233   9.771  44.645   8.850
 5929POPC   GL235234   9.661  44.602   8.850
 5929POPC   C1A35235   9.738  44.662   8.550
 5929POPC   D2A35236   9.797  44.650   8.250
 5929POPC   C3A35237   9.788  44.697   7.950
 5929POPC   C4A35238   9.763  44.660   7.650
 5929POPC   C1B35239   9.616  44.466   8.550
 5929POPC   C2B35240   9.564  44.463   8.250
 5929POPC   C3B35241   9.646  44.499   7.950
 5929POPC   C4B35242   9.563  44.432   7.650
 5930POPC   NC335243   2.770  20.654   9.450
 5930POPC   PO435244   2.752  20.598   9.150
 5930POPC   GL135245   2.742  20.572   8.850
 5930POPC   GL235246   2.628  20.630   8.850
 5930POPC   C1A35247   2.739  20.575   8.550
 5930POPC   D2A35248   2.794  20.658   8.250
 5930POPC   C3A35249   2.735  20.610   7.950
 5930POPC   C4A35250   2.787  20.619   7.650
 5930POPC   C1B35251   2.490  20.616   8.550
 5930POPC   C2B35252   2.527  20.563   8.250
 5930POPC   C3B35253   2.476  20.554   7.950
 5930POPC   C4B35254   2.523  20.565   7.650
 5931POPC   NC335255  22.210  15.967   9.450
 5931POPC   PO435256  22.170  15.938   9.150
 5931POPC   GL135257  22.175  15.989   8.850
 5931POPC   GL235258  22.240  15.884   8.850
 5931POPC   C1A35259  22.170  15.998   8.550
 5931POPC   D2A35260  22.192  15.967   8.250
 5931POPC   C3A35261  22.167  15.964   7.950
 5931POPC   C4A35262  22.149  15.931   7.650
 5931POPC   C1B35263  22.396  15.900   8.550
 5931POPC   C2B35264  22.413  15.836   8.250
 5931POPC   C3B35265  22.447  15.890   7.950
 5931POPC   C4B35266  22.382  15.883   7.650
 5932POPC   NC335267  10.520   7.431   9.450
 5932POPC   PO435268  10.548   7.439   9.150
 5932POPC   GL135269  10.538   7.383   8.850
 5932POPC   GL235270  10.484   7.530   8.850
 5932POPC   C1A35271  10.550   7.372   8.550
 5932POPC   D2A35272  10.501   7.424   8.250
 5932POPC   C3A35273  10.573   7.419   7.950
 5932POPC   C4A35274  10.503   7.402   7.650
 5932POPC   C1B35275  10.380   7.668   8.550
 5932POPC   C2B35276  10.366   7.632   8.250
 5932POPC   C3B35277  10.363   7.610   7.950
 5932POPC   C4B35278  10.438   7.612   7.650
 5933POPC   NC335279  44.699  38.444   9.450
 5933POPC   PO435280  44.644  38.490   9.150
 5933POPC   GL135281  44.667  38.467   8.850
 5933POPC   GL235282  44.559  38.353   8.850
 5933POPC   C1A35283  44.616  38.491   8.550
 5933POPC   D2A35284  44.695  38.469   8.250
 5933POPC   C3A35285  44.707  38.428   7.950
 5933POPC   C4A35286  44.667  38.436   7.650
 5933POPC   C1B35287  44.496  38.276   8.550
 5933POPC   C2B35288  44.461  38.307   8.250
 5933POPC   C3B35289  44.530  38.236   7.950
 5933POPC   C4B35290  44.464  38.253   7.650
 5934POPC   NC335291  40.794  11.302   9.450
 5934POPC   PO435292  40.755  11.289   9.150
 5934POPC   GL135293  40.824  11.260   8.850
 5934POPC   GL235294  40.733  11.341   8.850
 5934POPC   C1A35295  40.810  11.295   8.550
 5934POPC   D2A35296  40.814  11.340   8.250
 5934POPC   C3A35297  40.807  11.317   7.950
 5934POPC   C4A35298  40.806  11.312   7.650
 5934POPC   C1B35299  40.559  11.522   8.550
 5934POPC   C2B35300  40.616  11.527   8.250
 5934POPC   C3B35301  40.575  11.525   7.950
 5934POPC   C4B35302  40.595  11.457   7.650
 5935POPC   NC335303   2.754   5.122   9.450
 5935POPC   PO435304   2.786   5.070   9.150
 5935POPC   GL135305   2.737   5.090   8.850
 5935POPC   GL235306   2.683   5.199   8.850
 5935POPC   C1A35307   2.794   5.085   8.550
 5935POPC   D2A35308   2.733   5.098   8.250
 5935POPC   C3A35309   2.810   5.068   7.950
 5935POPC   C4A35310   2.789   5.075   7.650
 5935POPC   C1B35311   2.687   5.341   8.550
 5935POPC   C2B35312   2.744   5.373   8.250
 5935POPC   C3B35313   2.719   5.305   7.950
 5935POPC   C4B35314   2.663   5.324   7.650
 5936POPC   NC335315  16.709   9.711   9.450
 5936POPC   PO435316  16.763   9.775   9.150
 5936POPC   GL135317  16.727   9.746   8.850
 5936POPC   GL235318  16.735   9.684   8.850
 5936POPC   C1A35319  16.684   9.773   8.550
 5936POPC   D2A35320  16.772   9.769   8.250
 5936POPC   C3A35321  16.718   9.753   7.950
 5936POPC   C4A35322  16.778   9.756   7.650
 5936POPC   C1B35323  16.833   9.527   8.550
 5936POPC   C2B35324  16.887   9.486   8.250
 5936POPC   C3B35325  16.823   9.556   7.950
 5936POPC   C4B35326  16.857   9.536   7.650
 5937POPC   NC335327   7.393   6.678   9.450
 5937POPC   PO435328   7.461   6.656   9.150
 5937POPC   GL135329   7.428   6.684   8.850
 5937POPC   GL235330   7.289   6.612   8.850
 5937POPC   C1A35331   7.376   6.596   8.550
 5937POPC   D2A35332   7.444   6.649   8.250
 5937POPC   C3A35333   7.378   6.694   7.950
 5937POPC   C4A35334   7.427   6.671   7.650
 5937POPC   C1B35335   7.140   6.614   8.550
 5937POPC   C2B35336   7.214   6.662   8.250
 5937POPC   C3B35337   7.168   6.641   7.950
 5937POPC   C4B35338   7.143   6.622   7.650
 5938POPC   NC335339  23.686  32.251   9.450
 5938POPC   PO435340  23.705  32.205   9.150
 5938POPC   GL135341  23.746  32.265   8.850
 5938POPC   GL235342  23.846  32.281   8.850
 5938POPC   C1A35343  23.678  32.289   8.550
 5938POPC   D2A35344  23.714  32.256   8.250
 5938POPC   C3A35345  23.756  32.241   7.950
 5938POPC   C4A35346  23.732  32.285   7.650
 5938POPC   C1B35347  23.979  32.375   8.550
 5938POPC   C2B35348  23.899  32.390   8.250
 5938POPC   C3B35349  23.912  32.332   7.950
 5938POPC   C4B35350  23.898  32.374   7.650
 5939POPC   NC335351  34.623   6.606   9.450
 5939POPC   PO435352  34.604   6.675   9.150
 5939POPC   GL135353  34.585   6.620   8.850
 5939POPC   GL235354  34.638   6.702   8.850
 5939POPC   C1A35355  34.600   6.671   8.550
 5939POPC   D2A35356  34.604   6.640   8.250
 5939POPC   C3A35357  34.558   6.641   7.950
 5939POPC   C4A35358  34.568   6.636   7.650
 5939POPC   C1B35359  34.763   6.792   8.550
 5939POPC   C2B35360  34.710   6.839   8.250
 5939POPC   C3B35361  34.726   6.822   7.950
 5939POPC   C4B35362  34.704   6.822   7.650
 5940POPC   NC335363   2.026  36.118   9.450
 5940POPC   PO435364   1.987  36.114   9.150
 5940POPC   GL135365   2.035  36.161   8.850
 5940POPC   GL235366   1.909  36.157   8.850
 5940POPC   C1A35367   1.952  36.100   8.550
 5940POPC   D2A35368   1.949  36.174   8.250
 5940POPC   C3A35369   1.993  36.124   7.950
 5940POPC   C4A35370   1.967  36.128   7.650
 5940POPC   C1B35371   1.711  36.169   8.550
 5940POPC   C2B35372   1.693  36.186   8.250
 5940POPC   C3B35373   1.761  36.158   7.950
 5940POPC   C4B35374   1.748  36.188   7.650
 5941POPC   NC335375   4.318  19.098   9.450
 5941POPC   PO435376   4.282  19.029   9.150
 5941POPC   GL135377   4.273  19.020   8.850
 5941POPC   GL235378   4.308  18.920   8.850
 5941POPC   C1A35379   4.365  19.052   8.550
 5941POPC   D2A35380   4.268  19.093   8.250
 5941POPC   C3A35381   4.276  19.071   7.950
 5941POPC   C4A35382   4.277  19.039   7.650
 5941POPC   C1B35383   4.311  18.832   8.550
 5941POPC   C2B35384   4.354  18.855   8.250
 5941POPC   C3B35385   4.290  18.782   7.950
 5941POPC   C4B35386   4.318  18.814   7.650
 5942POPC   NC335387  22.938  43.847   9.450
 5942POPC   PO435388  22.931  43.935   9.150
 5942POPC   GL135389  22.966  43.846   8.850
 5942POPC   GL235390  22.853  43.936   8.850
 5942POPC   C1A35391  22.981  43.871   8.550
 5942POPC   D2A35392  22.945  43.861   8.250
 5942POPC   C3A35393  22.973  43.857   7.950
 5942POPC   C4A35394  22.943  43.868   7.650
 5942POPC   C1B35395  22.747  44.032   8.550
 5942POPC   C2B35396  22.786  44.025   8.250
 5942POPC   C3B35397  22.696  44.062   7.950
 5942POPC   C4B35398  22.762  44.033   7.650
 5943POPC   NC335399  30.728   1.981   9.450
 5943POPC   PO435400  30.708   1.981   9.150
 5943POPC   GL135401  30.717   1.962   8.850
 5943POPC   GL235402  30.590   2.070   8.850
 5943POPC   C1A35403  30.728   1.953   8.550
 5943POPC   D2A35404  30.741   1.941   8.250
 5943POPC   C3A35405  30.653   1.974   7.950
 5943POPC   C4A35406  30.676   2.032   7.650
 5943POPC   C1B35407  30.437   2.114   8.550
 5943POPC   C2B35408  30.495   2.069   8.250
 5943POPC   C3B35409  30.433   2.041   7.950
 5943POPC   C4B35410  30.448   2.041   7.650
 5944POPC   NC335411  43.917  37.687   9.450
 5944POPC   PO435412  43.924  37.663   9.150
 5944POPC   GL135413  43.848  37.672   8.850
 5944POPC   GL235414  43.969  37.590   8.850
 5944POPC   C1A35415  43.913  37.637   8.550
 5944POPC   D2A35416  43.902  37.629   8.250
 5944POPC   C3A35417  43.857  37.708   7.950
 5944POPC   C4A35418  43.865  37.668   7.650
 5944POPC   C1B35419  43.974  37.488   8.550
 5944POPC   C2B35420  43.968  37.458   8.250
 5944POPC   C3B35421  44.039  37.413   7.950
 5944POPC   C4B35422  43.950  37.496   7.650
 5945POPC   NC335423   5.828   1.231   9.450
 5945POPC   PO435424   5.875   1.264   9.150
 5945POPC   GL135425   5.830   1.185   8.850
 5945POPC   GL235426   5.845   1.352   8.850
 5945POPC   C1A35427   5.857   1.168   8.550
 5945POPC   D2A35428   5.889   1.251   8.250
 5945POPC   C3A35429   5.896   1.208   7.950
 5945POPC   C4A35430   5.883   1.174   7.650
 5945POPC   C1B35431   5.769   1.465   8.550
 5945POPC   C2B35432   5.801   1.472   8.250
 5945POPC   C3B35433   5.821   1.433   7.950
 5945POPC   C4B35434   5.773   1.415   7.650
 5946POPC   NC335435  26.862  12.806   9.450
 5946POPC   PO435436  26.851  12.837   9.150
 5946POPC   GL135437  26.831  12.837   8.850
 5946POPC   GL235438  26.978  12.788   8.850
 5946POPC   C1A35439  26.784  12.867   8.550
 5946POPC   D2A35440  26.846  12.869   8.250
 5946POPC   C3A35441  26.824  12.881   7.950
 5946POPC   C4A35442  26.796  12.821   7.650
 5946POPC   C1B35443  27.038  12.762   8.550
 5946POPC   C2B35444  27.021  12.724   8.250
 5946POPC   C3B35445  26.997  12.777   7.950
 5946POPC   C4B35446  27.040  12.726   7.650
 5947POPC   NC335447  25.299  39.268   9.450
 5947POPC   PO435448  25.217  39.236   9.150
 5947POPC   GL135449  25.221  39.250   8.850
 5947POPC   GL235450  25.201  39.092   8.850
 5947POPC   C1A35451  25.275  39.218   8.550
 5947POPC   D2A35452  25.277  39.240   8.250
 5947POPC   C3A35453  25.274  39.204   7.950
 5947POPC   C4A35454  25.252  39.204   7.650
 5947POPC   C1B35455  25.195  39.001   8.550
 5947POPC   C2B35456  25.145  38.951   8.250
 5947POPC   C3B35457  25.191  39.035   7.950
 5947POPC   C4B35458  25.193  38.958   7.650
 5948POPC   NC335459   5.098   9.729   9.450
 5948POPC   PO435460   5.091   9.732   9.150
 5948POPC   GL135461   5.096   9.748   8.850
 5948POPC   GL235462   5.041   9.602   8.850
 5948POPC   C1A35463   5.076   9.793   8.550
 5948POPC   D2A35464   5.110   9.707   8.250
 5948POPC   C3A35465   5.046   9.762   7.950
 5948POPC   C4A35466   5.044   9.701   7.650
 5948POPC   C1B35467   5.099   9.513   8.550
 5948POPC   C2B35468   5.092   9.485   8.250
 5948POPC   C3B35469   5.089   9.480   7.950
 5948POPC   C4B35470   5.041   9.526   7.650
 5949POPC   NC335471  19.080  33.805   9.450
 5949POPC   PO435472  19.081  33.797   9.150
 5949POPC   GL135473  19.037  33.794   8.850
 5949POPC   GL235474  19.022  33.637   8.850
 5949POPC   C1A35475  19.083  33.827   8.550
 5949POPC   D2A35476  19.086  33.778   8.250
 5949POPC   C3A35477  19.093  33.766   7.950
 5949POPC   C4A35478  19.034  33.785   7.650
 5949POPC   C1B35479  19.029  33.568   8.550
 5949POPC   C2B35480  18.999  33.538   8.250
 5949POPC   C3B35481  18.993  33.528   7.950
 5949POPC   C4B35482  19.048  33.600   7.650
 5950POPC   NC335483  19.848  22.119   9.450
 5950POPC   PO435484  19.860  22.117   9.150
 5950POPC   GL135485  19.859  22.202   8.850
 5950POPC   GL235486  19.821  22.315   8.850
 5950POPC   C1A35487  19.830  22.172   8.550
 5950POPC   D2A35488  19.806  22.144   8.250
 5950POPC   C3A35489  19.851  22.178   7.950
 5950POPC   C4A35490  19.815  22.179   7.650
 5950POPC   C1B35491  19.737  22.428   8.550
 5950POPC   C2B35492  19.737  22.365   8.250
 5950POPC   C3B35493  19.759  22.414   7.950
 5950POPC   C4B35494  19.695  22.412   7.650
 5951POPC   NC335495   2.814  21.426   9.450
 5951POPC   PO435496   2.726  21.375   9.150
 5951POPC   GL135497   2.734  21.348   8.850
 5951POPC   GL235498   2.746  21.252   8.850
 5951POPC   C1A35499   2.752  21.388   8.550
 5951POPC   D2A35500   2.789  21.423   8.250
 5951POPC   C3A35501   2.783  21.420   7.950
 5951POPC   C4A35502   2.782  21.413   7.650
 5951POPC   C1B35503   2.771  21.112   8.550
 5951POPC   C2B35504   2.853  21.127   8.250
 5951POPC   C3B35505   2.800  21.095   7.950
 5951POPC   C4B35506   2.841  21.154   7.650
 5952POPC   NC335507   2.783   2.780   9.450
 5952POPC   PO435508   2.733   2.747   9.150
 5952POPC   GL135509   2.764   2.730   8.850
 5952POPC   GL235510   2.683   2.833   8.850
 5952POPC   C1A35511   2.779   2.742   8.550
 5952POPC   D2A35512   2.746   2.794   8.250
 5952POPC   C3A35513   2.765   2.815   7.950
 5952POPC   C4A35514   2.812   2.735   7.650
 5952POPC   C1B35515   2.656   2.988   8.550
 5952POPC   C2B35516   2.661   2.939   8.250
 5952POPC   C3B35517   2.609   3.002   7.950
 5952POPC   C4B35518   2.637   3.032   7.650
 5953POPC   NC335519  11.317  22.937   9.450
 5953POPC   PO435520  11.346  22.907   9.150
 5953POPC   GL135521  11.267  22.941   8.850
 5953POPC   GL235522  11.449  22.884   8.850
 5953POPC   C1A35523  11.265  22.982   8.550
 5953POPC   D2A35524  11.338  22.917   8.250
 5953POPC   C3A35525  11.310  22.949   7.950
 5953POPC   C4A35526  11.278  22.943   7.650
 5953POPC   C1B35527  11.553  22.871   8.550
 5953POPC   C2B35528  11.510  22.853   8.250
 5953POPC   C3B35529  11.517  22.923   7.950
 5953POPC   C4B35530  11.537  22.894   7.650
 5954POPC   NC335531  36.948  31.458   9.450
 5954POPC   PO435532  36.921  31.457   9.150
 5954POPC   GL135533  36.914  31.505   8.850
 5954POPC   GL235534  36.940  31.398   8.850
 5954POPC   C1A35535  36.953  31.517   8.550
 5954POPC   D2A35536  36.880  31.446   8.250
 5954POPC   C3A35537  36.881  31.506   7.950
 5954POPC   C4A35538  36.951  31.482   7.650
 5954POPC   C1B35539  37.081  31.265   8.550
 5954POPC   C2B35540  37.056  31.316   8.250
 5954POPC   C3B35541  37.101  31.303   7.950
 5954POPC   C4B35542  37.117  31.298   7.650
 5955POPC   NC335543   3.560  40.024   9.450
 5955POPC   PO435544   3.576  40.042   9.150
 5955POPC   GL135545   3.581  39.985   8.850
 5955POPC   GL235546   3.647  39.927   8.850
 5955POPC   C1A35547   3.494  40.035   8.550
 5955POPC   D2A35548   3.538  40.052   8.250
 5955POPC   C3A35549   3.506  39.987   7.950
 5955POPC   C4A35550   3.589  39.968   7.650
 5955POPC   C1B35551   3.776  39.905   8.550
 5955POPC   C2B35552   3.743  39.892   8.250
 5955POPC   C3B35553   3.740  39.879   7.950
 5955POPC   C4B35554   3.734  39.895   7.650
 5956POPC   NC335555  19.837  36.154   9.450
 5956POPC   PO435556  19.810  36.114   9.150
 5956POPC   GL135557  19.833  36.107   8.850
 5956POPC   GL235558  19.770  36.212   8.850
 5956POPC   C1A35559  19.787  36.160   8.550
 5956POPC   D2A35560  19.877  36.084   8.250
 5956POPC   C3A35561  19.862  36.116   7.950
 5956POPC   C4A35562  19.846  36.091   7.650
 5956POPC   C1B35563  19.664  36.329   8.550
 5956POPC   C2B35564  19.699  36.338   8.250
 5956POPC   C3B35565  19.638  36.313   7.950
 5956POPC   C4B35566  19.664  36.330   7.650
 5957POPC   NC335567   8.986   7.419   9.450
 5957POPC   PO435568   9.002   7.418   9.150
 5957POPC   GL135569   8.923   7.431   8.850
 5957POPC   GL235570   9.064   7.282   8.850
 5957POPC   C1A35571   8.981   7.412   8.550
 5957POPC   D2A35572   8.953   7.446   8.250
 5957POPC   C3A35573   8.985   7.470   7.950
 5957POPC   C4A35574   8.962   7.393   7.650
 5957POPC   C1B35575   9.059   7.166   8.550
 5957POPC   C2B35576   9.098   7.187   8.250
 5957POPC   C3B35577   9.114   7.187   7.950
 5957POPC   C4B35578   9.031   7.224   7.650
 5958POPC   NC335579  14.395  11.333   9.450
 5958POPC   PO435580  14.378  11.328   9.150
 5958POPC   GL135581  14.376  11.317   8.850
 5958POPC   GL235582  14.479  11.267   8.850
 5958POPC   C1A35583  14.427  11.297   8.550
 5958POPC   D2A35584  14.426  11.296   8.250
 5958POPC   C3A35585  14.437  11.261   7.950
 5958POPC   C4A35586  14.421  11.310   7.650
 5958POPC   C1B35587  14.598  11.175   8.550
 5958POPC   C2B35588  14.678  11.211   8.250
 5958POPC   C3B35589  14.673  11.241   7.950
 5958POPC   C4B35590  14.580  11.208   7.650
 5959POPC   NC335591  26.014  42.295   9.450
 5959POPC   PO435592  26.009  42.297   9.150
 5959POPC   GL135593  26.025  42.327   8.850
 5959POPC   GL235594  25.964  42.273   8.850
 5959POPC   C1A35595  26.084  42.377   8.550
 5959POPC   D2A35596  26.049  42.383   8.250
 5959POPC   C3A35597  26.070  42.296   7.950
 5959POPC   C4A35598  26.037  42.312   7.650
 5959POPC   C1B35599  25.910  42.074   8.550
 5959POPC   C2B35600  25.881  42.145   8.250
 5959POPC   C3B35601  25.961  42.126   7.950
 5959POPC   C4B35602  25.953  42.133   7.650
 5960POPC   NC335603  33.813  36.935   9.450
 5960POPC   PO435604  33.822  36.880   9.150
 5960POPC   GL135605  33.846  36.911   8.850
 5960POPC   GL235606  33.833  36.771   8.850
 5960POPC   C1A35607  33.766  36.891   8.550
 5960POPC   D2A35608  33.819  36.923   8.250
 5960POPC   C3A35609  33.775  36.932   7.950
 5960POPC   C4A35610  33.808  36.919   7.650
 5960POPC   C1B35611  33.849  36.665   8.550
 5960POPC   C2B35612  33.875  36.632   8.250
 5960POPC   C3B35613  33.864  36.640   7.950
 5960POPC   C4B35614  33.861  36.661   7.650
 5961POPC   NC335615  15.227  44.677   9.450
 5961POPC   PO435616  15.157  44.651   9.150
 5961POPC   GL135617  15.131  44.615   8.850
 5961POPC   GL235618  15.306  44.607   8.850
 5961POPC   C1A35619  15.134  44.635   8.550
 5961POPC   D2A35620  15.146  44.692   8.250
 5961POPC   C3A35621  15.180  44.702   7.950
 5961POPC   C4A35622  15.198  44.684   7.650
 5961POPC   C1B35623  15.374  44.520   8.550
 5961POPC   C2B35624  15.414  44.556   8.250
 5961POPC   C3B35625  15.409  44.515   7.950
 5961POPC   C4B35626  15.383  44.558   7.650
 5962POPC   NC335627  36.142   2.716   9.450
 5962POPC   PO435628  36.168   2.717   9.150
 5962POPC   GL135629  36.120   2.748   8.850
 5962POPC   GL235630  36.075   2.900   8.850
 5962POPC   C1A35631  36.165   2.806   8.550
 5962POPC   D2A35632  36.083   2.814   8.250
 5962POPC   C3A35633  36.156   2.764   7.950
 5962POPC   C4A35634  36.134   2.799   7.650
 5962POPC   C1B35635  36.075   3.043   8.550
 5962POPC   C2B35636  36.015   3.011   8.250
 5962POPC   C3B35637  36.064   3.034   7.950
 5962POPC   C4B35638  36.044   2.957   7.650
 5963POPC   NC335639   8.201  28.388   9.450
 5963POPC   PO435640   8.213  28.359   9.150
 5963POPC   GL135641   8.156  28.399   8.850
 5963POPC   GL235642   8.256  28.525   8.850
 5963POPC   C1A35643   8.243  28.379   8.550
 5963POPC   D2A35644   8.172  28.372   8.250
 5963POPC   C3A35645   8.236  28.344   7.950
 5963POPC   C4A35646   8.193  28.393   7.650
 5963POPC   C1B35647   8.332  28.625   8.550
 5963POPC   C2B35648   8.353  28.558   8.250
 5963POPC   C3B35649   8.343  28.612   7.950
 5963POPC   C4B35650   8.324  28.560   7.650
 5964POPC   NC335651   5.860   8.992   9.450
 5964POPC   PO435652   5.826   8.932   9.150
 5964POPC   GL135653   5.825   9.005   8.850
 5964POPC   GL235654   5.929   8.810   8.850
 5964POPC   C1A35655   5.854   8.926   8.550
 5964POPC   D2A35656   5.913   8.936   8.250
 5964POPC   C3A35657   5.821   9.002   7.950
 5964POPC   C4A35658   5.870   8.949   7.650
 5964POPC   C1B35659   5.947   8.716   8.550
 5964POPC   C2B35660   5.911   8.690   8.250
 5964POPC   C3B35661   5.977   8.773   7.950
 5964POPC   C4B35662   5.936   8.772   7.650
 5965POPC   NC335663   2.756  30.728   9.450
 5965POPC   PO435664   2.765  30.684   9.150
 5965POPC   GL135665   2.782  30.678   8.850
 5965POPC   GL235666   2.724  30.836   8.850
 5965POPC   C1A35667   2.743  30.671   8.550
 5965POPC   D2A35668   2.810  30.680   8.250
 5965POPC   C3A35669   2.732  30.671   7.950
 5965POPC   C4A35670   2.813  30.727   7.650
 5965POPC   C1B35671   2.781  30.917   8.550
 5965POPC   C2B35672   2.789  30.913   8.250
 5965POPC   C3B35673   2.752  30.928   7.950
 5965POPC   C4B35674   2.737  30.914   7.650
 5966POPC   NC335675  44.654   5.072   9.450
 5966POPC   PO435676  44.699   5.121   9.150
 5966POPC   GL135677  44.697   5.127   8.850
 5966POPC   GL235678  44.639   5.175   8.850
 5966POPC   C1A35679  44.665   5.083   8.550
 5966POPC   D2A35680  44.631   5.121   8.250
 5966POPC   C3A35681  44.655   5.098   7.950
 5966POPC   C4A35682  44.683   5.141   7.650
 5966POPC   C1B35683  44.606   5.363   8.550
 5966POPC   C2B35684  44.651   5.351   8.250
 5966POPC   C3B35685  44.619   5.324   7.950
 5966POPC   C4B35686  44.656   5.363   7.650
 5967POPC   NC335687   1.213  25.233   9.450
 5967POPC   PO435688   1.240  25.287   9.150
 5967POPC   GL135689   1.173  25.246   8.850
 5967POPC   GL235690   1.084  25.189   8.850
 5967POPC   C1A35691   1.234  25.232   8.550
 5967POPC   D2A35692   1.252  25.254   8.250
 5967POPC   C3A35693   1.186  25.217   7.950
 5967POPC   C4A35694   1.231  25.246   7.650
 5967POPC   C1B35695   1.007  25.072   8.550
 5967POPC   C2B35696   1.050  25.077   8.250
 5967POPC   C3B35697   1.000  25.100   7.950
 5967POPC   C4B35698   1.052  25.092   7.650
 5968POPC   NC335699  16.749  25.284   9.450
 5968POPC   PO435700  16.711  25.291   9.150
 5968POPC   GL135701  16.704  25.273   8.850
 5968POPC   GL235702  16.687  25.183   8.850
 5968POPC   C1A35703  16.775  25.239   8.550
 5968POPC   D2A35704  16.688  25.285   8.250
 5968POPC   C3A35705  16.708  25.223   7.950
 5968POPC   C4A35706  16.731  25.271   7.650
 5968POPC   C1B35707  16.636  25.044   8.550
 5968POPC   C2B35708  16.565  25.033   8.250
 5968POPC   C3B35709  16.606  25.064   7.950
 5968POPC   C4B35710  16.611  25.076   7.650
 5969POPC   NC335711  42.325  36.912   9.450
 5969POPC   PO435712  42.313  36.899   9.150
 5969POPC   GL135713  42.344  36.855   8.850
 5969POPC   GL235714  42.187  36.990   8.850
 5969POPC   C1A35715  42.333  36.940   8.550
 5969POPC   D2A35716  42.310  36.940   8.250
 5969POPC   C3A35717  42.308  36.924   7.950
 5969POPC   C4A35718  42.287  36.902   7.650
 5969POPC   C1B35719  42.151  37.052   8.550
 5969POPC   C2B35720  42.126  36.973   8.250
 5969POPC   C3B35721  42.133  37.048   7.950
 5969POPC   C4B35722  42.132  36.989   7.650
 5970POPC   NC335723  39.220  24.454   9.450
 5970POPC   PO435724  39.268  24.515   9.150
 5970POPC   GL135725  39.222  24.520   8.850
 5970POPC   GL235726  39.328  24.408   8.850
 5970POPC   C1A35727  39.181  24.508   8.550
 5970POPC   D2A35728  39.206  24.450   8.250
 5970POPC   C3A35729  39.187  24.535   7.950
 5970POPC   C4A35730  39.244  24.459   7.650
 5970POPC   C1B35731  39.307  24.273   8.550
 5970POPC   C2B35732  39.369  24.237   8.250
 5970POPC   C3B35733  39.334  24.232   7.950
 5970POPC   C4B35734  39.308  24.231   7.650
 5971POPC   NC335735   8.164  19.094   9.450
 5971POPC   PO435736   8.202  19.079   9.150
 5971POPC   GL135737   8.164  19.035   8.850
 5971POPC   GL235738   8.061  19.108   8.850
 5971POPC   C1A35739   8.174  19.080   8.550
 5971POPC   D2A35740   8.174  19.106   8.250
 5971POPC   C3A35741   8.158  19.027   7.950
 5971POPC   C4A35742   8.187  19.073   7.650
 5971POPC   C1B35743   7.953  19.077   8.550
 5971POPC   C2B35744   7.918  19.132   8.250
 5971POPC   C3B35745   7.924  19.108   7.950
 5971POPC   C4B35746   7.953  19.118   7.650
 5972POPC   NC335747  41.558  12.101   9.450
 5972POPC   PO435748  41.529  12.064   9.150
 5972POPC   GL135749  41.511  12.120   8.850
 5972POPC   GL235750  41.607  11.940   8.850
 5972POPC   C1A35751  41.566  12.095   8.550
 5972POPC   D2A35752  41.516  12.107   8.250
 5972POPC   C3A35753  41.565  12.077   7.950
 5972POPC   C4A35754  41.560  12.113   7.650
 5972POPC   C1B35755  41.625  11.785   8.550
 5972POPC   C2B35756  41.612  11.816   8.250
 5972POPC   C3B35757  41.560  11.818   7.950
 5972POPC   C4B35758  41.553  11.796   7.650
 5973POPC   NC335759  29.887  34.555   9.450
 5973POPC   PO435760  29.903  34.614   9.150
 5973POPC   GL135761  29.920  34.580   8.850
 5973POPC   GL235762  29.827  34.588   8.850
 5973POPC   C1A35763  29.939  34.545   8.550
 5973POPC   D2A35764  29.939  34.597   8.250
 5973POPC   C3A35765  29.902  34.554   7.950
 5973POPC   C4A35766  29.966  34.600   7.650
 5973POPC   C1B35767  29.689  34.718   8.550
 5973POPC   C2B35768  29.728  34.679   8.250
 5973POPC   C3B35769  29.679  34.718   7.950
 5973POPC   C4B35770  29.683  34.716   7.650
 5974POPC   NC335771   8.208   2.734   9.450
 5974POPC   PO435772   8.173   2.749   9.150
 5974POPC   GL135773   8.221   2.764   8.850
 5974POPC   GL235774   8.289   2.670   8.850
 5974POPC   C1A35775   8.166   2.796   8.550
 5974POPC   D2A35776   8.165   2.755   8.250
 5974POPC   C3A35777   8.147   2.753   7.950
 5974POPC   C4A35778   8.222   2.734   7.650
 5974POPC   C1B35779   8.425   2.584   8.550
 5974POPC   C2B35780   8.412   2.615   8.250
 5974POPC   C3B35781   8.412   2.579   7.950
 5974POPC   C4B35782   8.376   2.623   7.650
 5975POPC   NC335783  25.249  40.036   9.450
 5975POPC   PO435784  25.225  40.041   9.150
 5975POPC   GL135785  25.290  39.972   8.850
 5975POPC   GL235786  25.156  40.101   8.850
 5975POPC   C1A35787  25.308  40.037   8.550
 5975POPC   D2A35788  25.308  40.029   8.250
 5975POPC   C3A35789  25.307  40.022   7.950
 5975POPC   C4A35790  25.299  40.036   7.650
 5975POPC   C1B35791  25.000  40.135   8.550
 5975POPC   C2B35792  25.057  40.097   8.250
 5975POPC   C3B35793  25.025  40.135   7.950
 5975POPC   C4B35794  25.076  40.175   7.650
 5976POPC   NC335795  13.605  19.789   9.450
 5976POPC   PO435796  13.677  19.852   9.150
 5976POPC   GL135797  13.660  19.859   8.850
 5976POPC   GL235798  13.463  19.878   8.850
 5976POPC   C1A35799  13.593  19.859   8.550
 5976POPC   D2A35800  13.606  19.786   8.250
 5976POPC   C3A35801  13.634  19.831   7.950
 5976POPC   C4A35802  13.651  19.838   7.650
 5976POPC   C1B35803  13.402  19.833   8.550
 5976POPC   C2B35804  13.405  19.813   8.250
 5976POPC   C3B35805  13.358  19.837   7.950
 5976POPC   C4B35806  13.330  19.854   7.650
 5977POPC   NC335807  19.095  31.424   9.450
 5977POPC   PO435808  19.040  31.493   9.150
 5977POPC   GL135809  19.062  31.452   8.850
 5977POPC   GL235810  19.154  31.596   8.850
 5977POPC   C1A35811  19.067  31.478   8.550
 5977POPC   D2A35812  19.061  31.447   8.250
 5977POPC   C3A35813  19.025  31.496   7.950
 5977POPC   C4A35814  19.056  31.435   7.650
 5977POPC   C1B35815  19.288  31.598   8.550
 5977POPC   C2B35816  19.231  31.592   8.250
 5977POPC   C3B35817  19.282  31.625   7.950
 5977POPC   C4B35818  19.223  31.633   7.650
 5978POPC   NC335819  13.647   8.929   9.450
 5978POPC   PO435820  13.612   8.975   9.150
 5978POPC   GL135821  13.600   8.979   8.850
 5978POPC   GL235822  13.743   8.932   8.850
 5978POPC   C1A35823  13.586   9.019   8.550
 5978POPC   D2A35824  13.618   8.924   8.250
 5978POPC   C3A35825  13.579   8.956   7.950
 5978POPC   C4A35826  13.668   8.931   7.650
 5978POPC   C1B35827  13.848   8.925   8.550
 5978POPC   C2B35828  13.830   8.916   8.250
 5978POPC   C3B35829  13.854   8.912   7.950
 5978POPC   C4B35830  13.848   8.882   7.650
 5979POPC   NC335831  29.102  39.185   9.450
 5979POPC   PO435832  29.125  39.271   9.150
 5979POPC   GL135833  29.183  39.209   8.850
 5979POPC   GL235834  29.226  39.119   8.850
 5979POPC   C1A35835  29.162  39.204   8.550
 5979POPC   D2A35836  29.138  39.247   8.250
 5979POPC   C3A35837  29.117  39.215   7.950
 5979POPC   C4A35838  29.118  39.264   7.650
 5979POPC   C1B35839  29.321  39.006   8.550
 5979POPC   C2B35840  29.291  39.027   8.250
 5979POPC   C3B35841  29.279  39.021   7.950
 5979POPC   C4B35842  29.349  39.052   7.650
 5980POPC   NC335843  39.216  33.040   9.450
 5980POPC   PO435844  39.262  33.026   9.150
 5980POPC   GL135845  39.192  33.032   8.850
 5980POPC   GL235846  39.400  32.981   8.850
 5980POPC   C1A35847  39.181  33.014   8.550
 5980POPC   D2A35848  39.265  33.004   8.250
 5980POPC   C3A35849  39.244  33.008   7.950
 5980POPC   C4A35850  39.183  33.014   7.650
 5980POPC   C1B35851  39.485  33.028   8.550
 5980POPC   C2B35852  39.522  33.060   8.250
 5980POPC   C3B35853  39.467  33.036   7.950
 5980POPC   C4B35854  39.509  32.978   7.650
 5981POPC   NC335855   0.421  10.509   9.450
 5981POPC   PO435856   0.465  10.483   9.150
 5981POPC   GL135857   0.462  10.525   8.850
 5981POPC   GL235858   0.327  10.402   8.850
 5981POPC   C1A35859   0.400  10.521   8.550
 5981POPC   D2A35860   0.479  10.506   8.250
 5981POPC   C3A35861   0.390  10.536   7.950
 5981POPC   C4A35862   0.416  10.571   7.650
 5981POPC   C1B35863   0.339  10.312   8.550
 5981POPC   C2B35864   0.281  10.299   8.250
 5981POPC   C3B35865   0.357  10.356   7.950
 5981POPC   C4B35866   0.308  10.276   7.650
 5982POPC   NC335867  12.077   3.492   9.450
 5982POPC   PO435868  12.054   3.497   9.150
 5982POPC   GL135869  12.086   3.565   8.850
 5982POPC   GL235870  12.004   3.400   8.850
 5982POPC   C1A35871  12.113   3.586   8.550
 5982POPC   D2A35872  12.070   3.574   8.250
 5982POPC   C3A35873  12.098   3.495   7.950
 5982POPC   C4A35874  12.047   3.503   7.650
 5982POPC   C1B35875  12.020   3.311   8.550
 5982POPC   C2B35876  12.018   3.289   8.250
 5982POPC   C3B35877  12.009   3.316   7.950
 5982POPC   C4B35878  12.072   3.309   7.650
 5983POPC   NC335879  22.130  38.491   9.450
 5983POPC   PO435880  22.187  38.499   9.150
 5983POPC   GL135881  22.134  38.408   8.850
 5983POPC   GL235882  22.099  38.472   8.850
 5983POPC   C1A35883  22.160  38.436   8.550
 5983POPC   D2A35884  22.199  38.491   8.250
 5983POPC   C3A35885  22.187  38.493   7.950
 5983POPC   C4A35886  22.115  38.439   7.650
 5983POPC   C1B35887  21.923  38.530   8.550
 5983POPC   C2B35888  21.949  38.527   8.250
 5983POPC   C3B35889  21.975  38.620   7.950
 5983POPC   C4B35890  21.916  38.579   7.650
 5984POPC   NC335891   4.276  17.516   9.450
 5984POPC   PO435892   4.366  17.505   9.150
 5984POPC   GL135893   4.345  17.556   8.850
 5984POPC   GL235894   4.237  17.578   8.850
 5984POPC   C1A35895   4.309  17.543   8.550
 5984POPC   D2A35896   4.298  17.496   8.250
 5984POPC   C3A35897   4.338  17.549   7.950
 5984POPC   C4A35898   4.322  17.516   7.650
 5984POPC   C1B35899   4.114  17.684   8.550
 5984POPC   C2B35900   4.105  17.643   8.250
 5984POPC   C3B35901   4.158  17.624   7.950
 5984POPC   C4B35902   4.082  17.668   7.650
 5985POPC   NC335903   2.032  24.441   9.450
 5985POPC   PO435904   1.960  24.524   9.150
 5985POPC   GL135905   1.956  24.510   8.850
 5985POPC   GL235906   1.844  24.471   8.850
 5985POPC   C1A35907   1.983  24.524   8.550
 5985POPC   D2A35908   1.942  24.521   8.250
 5985POPC   C3A35909   2.025  24.491   7.950
 5985POPC   C4A35910   2.012  24.537   7.650
 5985POPC   C1B35911   1.755  24.508   8.550
 5985POPC   C2B35912   1.756  24.481   8.250
 5985POPC   C3B35913   1.774  24.491   7.950
 5985POPC   C4B35914   1.728  24.463   7.650
 5986POPC   NC335915  41.582   4.343   9.450
 5986POPC   PO435916  41.603   4.310   9.150
 5986POPC   GL135917  41.564   4.345   8.850
 5986POPC   GL235918  41.649   4.183   8.850
 5986POPC   C1A35919  41.594   4.298   8.550
 5986POPC   D2A35920  41.555   4.304   8.250
 5986POPC   C3A35921  41.535   4.286   7.950
 5986POPC   C4A35922  41.594   4.351   7.650
 5986POPC   C1B35923  41.655   4.073   8.550
 5986POPC   C2B35924  41.662   4.068   8.250
 5986POPC   C3B35925  41.702   4.092   7.950
 5986POPC   C4B35926  41.704   4.103   7.650
 5987POPC   NC335927  27.629  29.170   9.450
 5987POPC   PO435928  27.603  29.096   9.150
 5987POPC   GL135929  27.564  29.105   8.850
 5987POPC   GL235930  27.481  29.195   8.850
 5987POPC   C1A35931  27.568  29.175   8.550
 5987POPC   D2A35932  27.607  29.123   8.250
 5987POPC   C3A35933  27.549  29.119   7.950
 5987POPC   C4A35934  27.574  29.149   7.650
 5987POPC   C1B35935  27.373  29.284   8.550
 5987POPC   C2B35936  27.387  29.269   8.250
 5987POPC   C3B35937  27.388  29.232   7.950
 5987POPC   C4B35938  27.360  29.259   7.650
 5988POPC   NC335939  19.020  26.849   9.450
 5988POPC   PO435940  19.086  26.772   9.150
 5988POPC   GL135941  19.031  26.815   8.850
 5988POPC   GL235942  19.115  26.716   8.850
 5988POPC   C1A35943  19.038  26.846   8.550
 5988POPC   D2A35944  19.036  26.835   8.250
 5988POPC   C3A35945  19.021  26.801   7.950
 5988POPC   C4A35946  19.034  26.862   7.650
 5988POPC   C1B35947  19.264  26.583   8.550
 5988POPC   C2B35948  19.219  26.656   8.250
 5988POPC   C3B35949  19.191  26.657   7.950
 5988POPC   C4B35950  19.192  26.631   7.650
 5989POPC   NC335951  33.071  35.359   9.450
 5989POPC   PO435952  33.011  35.344   9.150
 5989POPC   GL135953  32.997  35.324   8.850
 5989POPC   GL235954  33.151  35.317   8.850
 5989POPC   C1A35955  33.053  35.308   8.550
 5989POPC   D2A35956  33.036  35.393   8.250
 5989POPC   C3A35957  33.008  35.323   7.950
 5989POPC   C4A35958  33.034  35.313   7.650
 5989POPC   C1B35959  33.231  35.293   8.550
 5989POPC   C2B35960  33.298  35.309   8.250
 5989POPC   C3B35961  33.280  35.320   7.950
 5989POPC   C4B35962  33.310  35.353   7.650
 5990POPC   NC335963  41.608  29.913   9.450
 5990POPC   PO435964  41.566  29.964   9.150
 5990POPC   GL135965  41.514  29.877   8.850
 5990POPC   GL235966  41.393  29.966   8.850
 5990POPC   C1A35967  41.527  29.918   8.550
 5990POPC   D2A35968  41.596  29.890   8.250
 5990POPC   C3A35969  41.544  29.905   7.950
 5990POPC   C4A35970  41.580  29.905   7.650
 5990POPC   C1B35971  41.273  29.897   8.550
 5990POPC   C2B35972  41.263  29.926   8.250
 5990POPC   C3B35973  41.329  29.915   7.950
 5990POPC   C4B35974  41.270  29.979   7.650
 5991POPC   NC335975  29.903  38.431   9.450
 5991POPC   PO435976  29.888  38.464   9.150
 5991POPC   GL135977  29.893  38.418   8.850
 5991POPC   GL235978  29.937  38.581   8.850
 5991POPC   C1A35979  29.907  38.442   8.550
 5991POPC   D2A35980  29.873  38.453   8.250
 5991POPC   C3A35981  29.935  38.426   7.950
 5991POPC   C4A35982  29.945  38.458   7.650
 5991POPC   C1B35983  29.952  38.726   8.550
 5991POPC   C2B35984  29.965  38.733   8.250
 5991POPC   C3B35985  29.983  38.719   7.950
 5991POPC   C4B35986  29.964  38.667   7.650
 5992POPC   NC335987  40.002  16.000   9.450
 5992POPC   PO435988  40.046  15.999   9.150
 5992POPC   GL135989  40.000  15.910   8.850
 5992POPC   GL235990  39.959  16.042   8.850
 5992POPC   C1A35991  39.997  15.919   8.550
 5992POPC   D2A35992  39.963  15.966   8.250
 5992POPC   C3A35993  40.036  15.910   7.950
 5992POPC   C4A35994  40.034  15.985   7.650
 5992POPC   C1B35995  39.903  16.204   8.550
 5992POPC   C2B35996  39.930  16.198   8.250
 5992POPC   C3B35997  39.870  16.223   7.950
 5992POPC   C4B35998  39.880  16.169   7.650
 5993POPC   NC335999  26.857  22.907   9.450
 5993POPC   PO436000  26.825  22.919   9.150
 5993POPC   GL136001  26.849  22.907   8.850
 5993POPC   GL236002  26.797  22.811   8.850
 5993POPC   C1A36003  26.831  22.937   8.550
 5993POPC   D2A36004  26.857  22.948   8.250
 5993POPC   C3A36005  26.787  22.892   7.950
 5993POPC   C4A36006  26.775  22.943   7.650
 5993POPC   C1B36007  26.832  22.714   8.550
 5993POPC   C2B36008  26.882  22.737   8.250
 5993POPC   C3B36009  26.836  22.663   7.950
 5993POPC   C4B36010  26.854  22.719   7.650
 5994POPC   NC336011  22.907   7.441   9.450
 5994POPC   PO436012  22.972   7.450   9.150
 5994POPC   GL136013  22.979   7.404   8.850
 5994POPC   GL236014  22.843   7.496   8.850
 5994POPC   C1A36015  22.938   7.429   8.550
 5994POPC   D2A36016  22.891   7.466   8.250
 5994POPC   C3A36017  22.946   7.446   7.950
 5994POPC   C4A36018  22.980   7.392   7.650
 5994POPC   C1B36019  22.751   7.599   8.550
 5994POPC   C2B36020  22.777   7.593   8.250
 5994POPC   C3B36021  22.797   7.631   7.950
 5994POPC   C4B36022  22.712   7.630   7.650
 5995POPC   NC336023  33.767   8.999   9.450
 5995POPC   PO436024  33.839   9.005   9.150
 5995POPC   GL136025  33.844   8.930   8.850
 5995POPC   GL236026  33.759   9.115   8.850
 5995POPC   C1A36027  33.784   8.984   8.550
 5995POPC   D2A36028  33.835   8.955   8.250
 5995POPC   C3A36029  33.837   8.984   7.950
 5995POPC   C4A36030  33.778   8.965   7.650
 5995POPC   C1B36031  33.686   9.222   8.550
 5995POPC   C2B36032  33.631   9.137   8.250
 5995POPC   C3B36033  33.606   9.167   7.950
 5995POPC   C4B36034  33.664   9.169   7.650
 5996POPC   NC336035   0.414   5.135   9.450
 5996POPC   PO436036   0.451   5.129   9.150
 5996POPC   GL136037   0.427   5.091   8.850
 5996POPC   GL236038   0.443   4.959   8.850
 5996POPC   C1A36039   0.434   5.069   8.550
 5996POPC   D2A36040   0.485   5.060   8.250
 5996POPC   C3A36041   0.460   5.121   7.950
 5996POPC   C4A36042   0.486   5.124   7.650
 5996POPC   C1B36043   0.491   4.885   8.550
 5996POPC   C2B36044   0.459   4.815   8.250
 5996POPC   C3B36045   0.512   4.848   7.950
 5996POPC   C4B36046   0.482   4.850   7.650
 5997POPC   NC336047  32.230  29.948   9.450
 5997POPC   PO436048  32.244  29.910   9.150
 5997POPC   GL136049  32.292  29.924   8.850
 5997POPC   GL236050  32.263  30.023   8.850
 5997POPC   C1A36051  32.286  29.953   8.550
 5997POPC   D2A36052  32.266  29.921   8.250
 5997POPC   C3A36053  32.287  29.894   7.950
 5997POPC   C4A36054  32.281  29.962   7.650
 5997POPC   C1B36055  32.324  30.163   8.550
 5997POPC   C2B36056  32.275  30.146   8.250
 5997POPC   C3B36057  32.248  30.192   7.950
 5997POPC   C4B36058  32.325  30.191   7.650
 5998POPC   NC336059  28.417  43.902   9.450
 5998POPC   PO436060  28.330  43.911   9.150
 5998POPC   GL136061  28.417  43.840   8.850
 5998POPC   GL236062  28.493  43.873   8.850
 5998POPC   C1A36063  28.322  43.888   8.550
 5998POPC   D2A36064  28.324  43.882   8.250
 5998POPC   C3A36065  28.402  43.866   7.950
 5998POPC   C4A36066  28.388  43.892   7.650
 5998POPC   C1B36067  28.625  43.938   8.550
 5998POPC   C2B36068  28.606  43.880   8.250
 5998POPC   C3B36069  28.620  43.863   7.950
 5998POPC   C4B36070  28.613  43.859   7.650
 5999POPC   NC336071  44.667  12.045   9.450
 5999POPC   PO436072  44.688  12.079   9.150
 5999POPC   GL136073  44.695  12.109   8.850
 5999POPC   GL236074  44.664  12.228   8.850
 5999POPC   C1A36075  44.697  12.111   8.550
 5999POPC   D2A36076  44.658  12.113   8.250
 5999POPC   C3A36077  44.690  12.105   7.950
 5999POPC   C4A36078  44.694  12.112   7.650
 5999POPC   C1B36079  44.664  12.298   8.550
 5999POPC   C2B36080  44.648  12.358   8.250
 5999POPC   C3B36081  44.614  12.361   7.950
 5999POPC   C4B36082  44.619  12.334   7.650
 6000POPC   NC336083  19.868  15.986   9.450
 6000POPC   PO436084  19.813  15.979   9.150
 6000POPC   GL136085  19.869  15.996   8.850
 6000POPC   GL236086  19.837  16.035   8.850
 6000POPC   C1A36087  19.811  15.934   8.550
 6000POPC   D2A36088  19.823  15.908   8.250
 6000POPC   C3A36089  19.819  15.973   7.950
 6000POPC   C4A36090  19.805  15.984   7.650
 6000POPC   C1B36091  19.871  16.222   8.550
 6000POPC   C2B36092  19.876  16.174   8.250
 6000POPC   C3B36093  19.793  16.218   7.950
 6000POPC   C4B36094  19.832  16.193   7.650
 6001POPC   NC336095  32.252  26.840   9.450
 6001POPC   PO436096  32.294  26.776   9.150
 6001POPC   GL136097  32.199  26.839   8.850
 6001POPC   GL236098  32.105  26.828   8.850
 6001POPC   C1A36099  32.242  26.841   8.550
 6001POPC   D2A36100  32.265  26.798   8.250
 6001POPC   C3A36101  32.204  26.867   7.950
 6001POPC   C4A36102  32.241  26.784   7.650
 6001POPC   C1B36103  31.968  26.891   8.550
 6001POPC   C2B36104  31.983  26.884   8.250
 6001POPC   C3B36105  31.981  26.875   7.950
 6001POPC   C4B36106  31.974  26.885   7.650
 6002POPC   NC336107   5.869   4.362   9.450
 6002POPC   PO436108   5.902   4.281   9.150
 6002POPC   GL136109   5.835   4.327   8.850
 6002POPC   GL236110   5.806   4.394   8.850
 6002POPC   C1A36111   5.916   4.348   8.550
 6002POPC   D2A36112   5.860   4.269   8.250
 6002POPC   C3A36113   5.829   4.295   7.950
 6002POPC   C4A36114   5.869   4.353   7.650
 6002POPC   C1B36115   5.621   4.437   8.550
 6002POPC   C2B36116   5.637   4.481   8.250
 6002POPC   C3B36117   5.658   4.477   7.950
 6002POPC   C4B36118   5.649   4.419   7.650
 6003POPC   NC336119  14.418   3.540   9.450
 6003POPC   PO436120  14.453   3.566   9.150
 6003POPC   GL136121  14.372   3.519   8.850
 6003POPC   GL236122  14.540   3.640   8.850
 6003POPC   C1A36123  14.444   3.572   8.550
 6003POPC   D2A36124  14.396   3.534   8.250
 6003POPC   C3A36125  14.381   3.496   7.950
 6003POPC   C4A36126  14.431   3.526   7.650
 6003POPC   C1B36127  14.620   3.731   8.550
 6003POPC   C2B36128  14.604   3.663   8.250
 6003POPC   C3B36129  14.556   3.670   7.950
 6003POPC   C4B36130  14.628   3.723   7.650
 6004POPC   NC336131  14.354  43.919   9.450
 6004POPC   PO436132  14.407  43.929   9.150
 6004POPC   GL136133  14.433  43.930   8.850
 6004POPC   GL236134  14.565  43.860   8.850
 6004POPC   C1A36135  14.390  43.903   8.550
 6004POPC   D2A36136  14.439  43.921   8.250
 6004POPC   C3A36137  14.402  43.882   7.950
 6004POPC   C4A36138  14.401  43.865   7.650
 6004POPC   C1B36139  14.630  43.905   8.550
 6004POPC   C2B36140  14.634  43.899   8.250
 6004POPC   C3B36141  14.667  43.857   7.950
 6004POPC   C4B36142  14.623  43.818   7.650
 6005POPC   NC336143  33.803  15.997   9.450
 6005POPC   PO436144  33.813  15.941   9.150
 6005POPC   GL136145  33.757  15.934   8.850
 6005POPC   GL236146  33.819  16.103   8.850
 6005POPC   C1A36147  33.759  15.984   8.550
 6005POPC   D2A36148  33.777  15.993   8.250
 6005POPC   C3A36149  33.797  15.946   7.950
 6005POPC   C4A36150  33.832  15.934   7.650
 6005POPC   C1B36151  33.806  16.214   8.550
 6005POPC   C2B36152  33.788  16.156   8.250
 6005POPC   C3B36153  33.804  16.200   7.950
 6005POPC   C4B36154  33.783  16.194   7.650
 6006POPC   NC336155  40.045  26.817   9.450
 6006POPC   PO436156  39.991  26.856   9.150
 6006POPC   GL136157  39.960  26.855   8.850
 6006POPC   GL236158  40.053  26.928   8.850
 6006POPC   C1A36159  40.010  26.785   8.550
 6006POPC   D2A36160  40.042  26.845   8.250
 6006POPC   C3A36161  39.993  26.801   7.950
 6006POPC   C4A36162  40.010  26.802   7.650
 6006POPC   C1B36163  40.221  27.001   8.550
 6006POPC   C2B36164  40.159  26.949   8.250
 6006POPC   C3B36165  40.210  27.018   7.950
 6006POPC   C4B36166  40.168  26.976   7.650
 6007POPC   NC336167  28.334  10.523   9.450
 6007POPC   PO436168  28.321  10.522   9.150
 6007POPC   GL136169  28.371  10.536   8.850
 6007POPC   GL236170  28.399  10.659   8.850
 6007POPC   C1A36171  28.409  10.497   8.550
 6007POPC   D2A36172  28.387  10.499   8.250
 6007POPC   C3A36173  28.364  10.500   7.950
 6007POPC   C4A36174  28.400  10.495   7.650
 6007POPC   C1B36175  28.528  10.775   8.550
 6007POPC   C2B36176  28.529  10.762   8.250
 6007POPC   C3B36177  28.446  10.780   7.950
 6007POPC   C4B36178  28.508  10.767   7.650
 6008POPC   NC336179   2.018  29.950   9.450
 6008POPC   PO436180   1.977  29.902   9.150
 6008POPC   GL136181   1.991  29.927   8.850
 6008POPC   GL236182   1.861  30.042   8.850
 6008POPC   C1A36183   1.955  29.893   8.550
 6008POPC   D2A36184   2.003  29.889   8.250
 6008POPC   C3A36185   2.012  29.926   7.950
 6008POPC   C4A36186   1.980  29.958   7.650
 6008POPC   C1B36187   1.791  30.115   8.550
 6008POPC   C2B36188   1.749  30.074   8.250
 6008POPC   C3B36189   1.752  30.079   7.950
 6008POPC   C4B36190   1.819  30.070   7.650
 6009POPC   NC336191   9.760  28.322   9.450
 6009POPC   PO436192   9.782  28.357   9.150
 6009POPC   GL136193   9.770  28.397   8.850
 6009POPC   GL236194   9.810  28.305   8.850
 6009POPC   C1A36195   9.725  28.380   8.550
 6009POPC   D2A36196   9.774  28.332   8.250
 6009POPC   C3A36197   9.780  28.398   7.950
 6009POPC   C4A36198   9.741  28.370   7.650
 6009POPC   C1B36199   9.843  28.132   8.550
 6009POPC   C2B36200   9.816  28.177   8.250
 6009POPC   C3B36201   9.818  28.123   7.950
 6009POPC   C4B36202   9.854  28.188   7.650
 6010POPC   NC336203  24.510  40.779   9.450
 6010POPC   PO436204  24.508  40.831   9.150
 6010POPC   GL136205  24.455  40.786   8.850
 6010POPC   GL236206  24.356  40.807   8.850
 6010POPC   C1A36207  24.535  40.780   8.550
 6010POPC   D2A36208  24.487  40.775   8.250
 6010POPC   C3A36209  24.538  40.822   7.950
 6010POPC   C4A36210  24.465  40.829   7.650
 6010POPC   C1B36211  24.252  40.805   8.550
 6010POPC   C2B36212  24.208  40.787   8.250
 6010POPC   C3B36213  24.200  40.735   7.950
 6010POPC   C4B36214  24.199  40.816   7.650
 6011POPC   NC336215  25.285  24.444   9.450
 6011POPC   PO436216  25.244  24.443   9.150
 6011POPC   GL136217  25.259  24.539   8.850
 6011POPC   GL236218  25.364  24.408   8.850
 6011POPC   C1A36219  25.255  24.509   8.550
 6011POPC   D2A36220  25.313  24.490   8.250
 6011POPC   C3A36221  25.271  24.506   7.950
 6011POPC   C4A36222  25.218  24.531   7.650
 6011POPC   C1B36223  25.470  24.361   8.550
 6011POPC   C2B36224  25.459  24.339   8.250
 6011POPC   C3B36225  25.520  24.335   7.950
 6011POPC   C4B36226  25.462  24.413   7.650
 6012POPC   NC336227   8.156  40.039   9.450
 6012POPC   PO436228   8.153  40.020   9.150
 6012POPC   GL136229   8.152  40.054   8.850
 6012POPC   GL236230   8.215  39.842   8.850
 6012POPC   C1A36231   8.213  40.005   8.550
 6012POPC   D2A36232   8.201  40.002   8.250
 6012POPC   C3A36233   8.242  39.981   7.950
 6012POPC   C4A36234   8.245  40.040   7.650
 6012POPC   C1B36235   8.278  39.796   8.550
 6012POPC   C2B36236   8.245  39.811   8.250
 6012POPC   C3B36237   8.207  39.804   7.950
 6012POPC   C4B36238   8.291  39.748   7.650
 6013POPC   NC336239  18.240  15.932   9.450
 6013POPC   PO436240  18.251  15.940   9.150
 6013POPC   GL136241  18.313  15.919   8.850
 6013POPC   GL236242  18.395  16.073   8.850
 6013POPC   C1A36243  18.320  15.940   8.550
 6013POPC   D2A36244  18.280  15.967   8.250
 6013POPC   C3A36245  18.257  15.919   7.950
 6013POPC   C4A36246  18.256  15.931   7.650
 6013POPC   C1B36247  18.514  16.138   8.550
 6013POPC   C2B36248  18.478  16.142   8.250
 6013POPC   C3B36249  18.473  16.128   7.950
 6013POPC   C4B36250  18.425  16.139   7.650
 6014POPC   NC336251  42.298  10.555   9.450
 6014POPC   PO436252  42.323  10.536   9.150
 6014POPC   GL136253  42.321  10.539   8.850
 6014POPC   GL236254  42.408  10.445   8.850
 6014POPC   C1A36255  42.299  10.494   8.550
 6014POPC   D2A36256  42.342  10.501   8.250
 6014POPC   C3A36257  42.346  10.537   7.950
 6014POPC   C4A36258  42.358  10.530   7.650
 6014POPC   C1B36259  42.468  10.359   8.550
 6014POPC   C2B36260  42.502  10.293   8.250
 6014POPC   C3B36261  42.482  10.291   7.950
 6014POPC   C4B36262  42.542  10.372   7.650
 6015POPC   NC336263  19.108   7.443   9.450
 6015POPC   PO436264  19.045   7.450   9.150
 6015POPC   GL136265  19.036   7.429   8.850
 6015POPC   GL236266  19.175   7.482   8.850
 6015POPC   C1A36267  19.107   7.445   8.550
 6015POPC   D2A36268  19.030   7.395   8.250
 6015POPC   C3A36269  19.034   7.388   7.950
 6015POPC   C4A36270  19.040   7.457   7.650
 6015POPC   C1B36271  19.315   7.529   8.550
 6015POPC   C2B36272  19.309   7.560   8.250
 6015POPC   C3B36273  19.289   7.520   7.950
 6015POPC   C4B36274  19.226   7.562   7.650
 6016POPC   NC336275  23.726   7.467   9.450
 6016POPC   PO436276  23.722   7.424   9.150
 6016POPC   GL136277  23.737   7.445   8.850
 6016POPC   GL236278  23.701   7.266   8.850
 6016POPC   C1A36279  23.703   7.386   8.550
 6016POPC   D2A36280  23.728   7.426   8.250
 6016POPC   C3A36281  23.718   7.429   7.950
 6016POPC   C4A36282  23.734   7.445   7.650
 6016POPC   C1B36283  23.604   7.226   8.550
 6016POPC   C2B36284  23.636   7.151   8.250
 6016POPC   C3B36285  23.604   7.211   7.950
 6016POPC   C4B36286  23.579   7.181   7.650
 6017POPC   NC336287  13.581  26.024   9.450
 6017POPC   PO436288  13.664  26.060   9.150
 6017POPC   GL136289  13.588  26.041   8.850
 6017POPC   GL236290  13.469  26.020   8.850
 6017POPC   C1A36291  13.601  26.047   8.550
 6017POPC   D2A36292  13.597  26.030   8.250
 6017POPC   C3A36293  13.648  26.013   7.950
 6017POPC   C4A36294  13.665  26.013   7.650
 6017POPC   C1B36295  13.387  25.998   8.550
 6017POPC   C2B36296  13.418  25.946   8.250
 6017POPC   C3B36297  13.382  25.958   7.950
 6017POPC   C4B36298  13.372  25.994   7.650
 6018POPC   NC336299  12.819  16.692   9.450
 6018POPC   PO436300  12.814  16.750   9.150
 6018POPC   GL136301  12.899  16.756   8.850
 6018POPC   GL236302  12.703  16.750   8.850
 6018POPC   C1A36303  12.814  16.750   8.550
 6018POPC   D2A36304  12.851  16.760   8.250
 6018POPC   C3A36305  12.822  16.735   7.950
 6018POPC   C4A36306  12.895  16.769   7.650
 6018POPC   C1B36307  12.568  16.719   8.550
 6018POPC   C2B36308  12.654  16.701   8.250
 6018POPC   C3B36309  12.570  16.678   7.950
 6018POPC   C4B36310  12.607  16.662   7.650
 6019POPC   NC336311  29.884  21.382   9.450
 6019POPC   PO436312  29.891  21.417   9.150
 6019POPC   GL136313  29.943  21.416   8.850
 6019POPC   GL236314  29.998  21.436   8.850
 6019POPC   C1A36315  29.940  21.405   8.550
 6019POPC   D2A36316  29.931  21.374   8.250
 6019POPC   C3A36317  29.952  21.428   7.950
 6019POPC   C4A36318  29.959  21.411   7.650
 6019POPC   C1B36319  30.169  21.492   8.550
 6019POPC   C2B36320  30.187  21.501   8.250
 6019POPC   C3B36321  30.100  21.466   7.950
 6019POPC   C4B36322  30.181  21.478   7.650
 6020POPC   NC336323  14.419  32.199   9.450
 6020POPC   PO436324  14.392  32.235   9.150
 6020POPC   GL136325  14.372  32.204   8.850
 6020POPC   GL236326  14.332  32.360   8.850
 6020POPC   C1A36327  14.392  32.259   8.550
 6020POPC   D2A36328  14.411  32.211   8.250
 6020POPC   C3A36329  14.419  32.287   7.950
 6020POPC   C4A36330  14.405  32.281   7.650
 6020POPC   C1B36331  14.220  32.465   8.550
 6020POPC   C2B36332  14.215  32.424   8.250
 6020POPC   C3B36333  14.173  32.370   7.950
 6020POPC   C4B36334  14.261  32.410   7.650
 6021POPC   NC336335  39.239  19.785   9.450
 6021POPC   PO436336  39.189  19.809   9.150
 6021POPC   GL136337  39.209  19.800   8.850
 6021POPC   GL236338  39.190  19.913   8.850
 6021POPC   C1A36339  39.201  19.858   8.550
 6021POPC   D2A36340  39.273  19.836   8.250
 6021POPC   C3A36341  39.237  19.879   7.950
 6021POPC   C4A36342  39.253  19.849   7.650
 6021POPC   C1B36343  39.102  20.020   8.550
 6021POPC   C2B36344  39.106  20.045   8.250
 6021POPC   C3B36345  39.089  20.023   7.950
 6021POPC   C4B36346  39.084  20.052   7.650
 6022POPC   NC336347  39.230  22.179   9.450
 6022POPC   PO436348  39.214  22.158   9.150
 6022POPC   GL136349  39.184  22.195   8.850
 6022POPC   GL236350  39.146  22.280   8.850
 6022POPC   C1A36351  39.228  22.142   8.550
 6022POPC   D2A36352  39.280  22.155   8.250
 6022POPC   C3A36353  39.241  22.194   7.950
 6022POPC   C4A36354  39.270  22.194   7.650
 6022POPC   C1B36355  39.054  22.345   8.550
 6022POPC   C2B36356  39.033  22.325   8.250
 6022POPC   C3B36357  39.068  22.295   7.950
 6022POPC   C4B36358  39.076  22.326   7.650
 6023POPC   NC336359  40.046  35.304   9.450
 6023POPC   PO436360  40.036  35.335   9.150
 6023POPC   GL136361  40.048  35.340   8.850
 6023POPC   GL236362  39.926  35.421   8.850
 6023POPC   C1A36363  39.985  35.386   8.550
 6023POPC   D2A36364  40.055  35.393   8.250
 6023POPC   C3A36365  40.001  35.380   7.950
 6023POPC   C4A36366  39.985  35.359   7.650
 6023POPC   C1B36367  39.870  35.530   8.550
 6023POPC   C2B36368  39.798  35.505   8.250
 6023POPC   C3B36369  39.855  35.487   7.950
 6023POPC   C4B36370  39.842  35.560   7.650
 6024POPC   NC336371  15.184  36.886   9.450
 6024POPC   PO436372  15.133  36.882   9.150
 6024POPC   GL136373  15.137  36.944   8.850
 6024POPC   GL236374  15.241  36.979   8.850
 6024POPC   C1A36375  15.222  36.867   8.550
 6024POPC   D2A36376  15.184  36.855   8.250
 6024POPC   C3A36377  15.204  36.902   7.950
 6024POPC   C4A36378  15.164  36.863   7.650
 6024POPC   C1B36379  15.391  37.073   8.550
 6024POPC   C2B36380  15.344  37.030   8.250
 6024POPC   C3B36381  15.383  37.054   7.950
 6024POPC   C4B36382  15.410  37.025   7.650
 6025POPC   NC336383  36.161  29.888   9.450
 6025POPC   PO436384  36.161  29.875   9.150
 6025POPC   GL136385  36.155  29.969   8.850
 6025POPC   GL236386  35.981  29.995   8.850
 6025POPC   C1A36387  36.102  29.942   8.550
 6025POPC   D2A36388  36.122  29.911   8.250
 6025POPC   C3A36389  36.091  29.959   7.950
 6025POPC   C4A36390  36.164  29.871   7.650
 6025POPC   C1B36391  35.930  30.042   8.550
 6025POPC   C2B36392  35.844  30.013   8.250
 6025POPC   C3B36393  35.913  30.004   7.950
 6025POPC   C4B36394  35.917  30.025   7.650
 6026POPC   NC336395  20.642  42.371   9.450
 6026POPC   PO436396  20.600  42.308   9.150
 6026POPC   GL136397  20.616  42.311   8.850
 6026POPC   GL236398  20.627  42.467   8.850
 6026POPC   C1A36399  20.641  42.298   8.550
 6026POPC   D2A36400  20.629  42.322   8.250
 6026POPC   C3A36401  20.621  42.285   7.950
 6026POPC   C4A36402  20.632  42.373   7.650
 6026POPC   C1B36403  20.715  42.566   8.550
 6026POPC   C2B36404  20.655  42.557   8.250
 6026POPC   C3B36405  20.703  42.612   7.950
 6026POPC   C4B36406  20.690  42.543   7.650
 6027POPC   NC336407  19.021  36.174   9.450
 6027POPC   PO436408  19.074  36.143   9.150
 6027POPC   GL136409  19.080  36.080   8.850
 6027POPC   GL236410  19.179  36.100   8.850
 6027POPC   C1A36411  19.095  36.132   8.550
 6027POPC   D2A36412  19.053  36.086   8.250
 6027POPC   C3A36413  19.076  36.159   7.950
 6027POPC   C4A36414  19.047  36.099   7.650
 6027POPC   C1B36415  19.259  36.066   8.550
 6027POPC   C2B36416  19.302  35.996   8.250
 6027POPC   C3B36417  19.260  35.999   7.950
 6027POPC   C4B36418  19.244  36.058   7.650
 6028POPC   NC336419  33.796  19.014   9.450
 6028POPC   PO436420  33.842  19.011   9.150
 6028POPC   GL136421  33.841  19.021   8.850
 6028POPC   GL236422  33.674  19.025   8.850
 6028POPC   C1A36423  33.761  19.040   8.550
 6028POPC   D2A36424  33.836  19.108   8.250
 6028POPC   C3A36425  33.830  19.085   7.950
 6028POPC   C4A36426  33.826  19.048   7.650
 6028POPC   C1B36427  33.611  18.859   8.550
 6028POPC   C2B36428  33.584  18.938   8.250
 6028POPC   C3B36429  33.643  18.855   7.950
 6028POPC   C4B36430  33.619  18.895   7.650
 6029POPC   NC336431  25.231  33.048   9.450
 6029POPC   PO436432  25.297  32.984   9.150
 6029POPC   GL136433  25.237  33.062   8.850
 6029POPC   GL236434  25.231  33.132   8.850
 6029POPC   C1A36435  25.251  33.033   8.550
 6029POPC   D2A36436  25.286  33.046   8.250
 6029POPC   C3A36437  25.278  32.999   7.950
 6029POPC   C4A36438  25.229  33.009   7.650
 6029POPC   C1B36439  25.212  33.296   8.550
 6029POPC   C2B36440  25.203  33.242   8.250
 6029POPC   C3B36441  25.132  33.303   7.950
 6029POPC   C4B36442  25.195  33.223   7.650
 6030POPC   NC336443  37.702  29.883   9.450
 6030POPC   PO436444  37.718  29.875   9.150
 6030POPC   GL136445  37.635  29.896   8.850
 6030POPC   GL236446  37.584  29.828   8.850
 6030POPC   C1A36447  37.716  29.939   8.550
 6030POPC   D2A36448  37.671  29.944   8.250
 6030POPC   C3A36449  37.647  29.939   7.950
 6030POPC   C4A36450  37.672  29.913   7.650
 6030POPC   C1B36451  37.572  29.763   8.550
 6030POPC   C2B36452  37.482  29.754   8.250
 6030POPC   C3B36453  37.491  29.760   7.950
 6030POPC   C4B36454  37.554  29.706   7.650
 6031POPC   NC336455  35.396  36.127   9.450
 6031POPC   PO436456  35.331  36.144   9.150
 6031POPC   GL136457  35.346  36.090   8.850
 6031POPC   GL236458  35.236  36.010   8.850
 6031POPC   C1A36459  35.364  36.108   8.550
 6031POPC   D2A36460  35.372  36.128   8.250
 6031POPC   C3A36461  35.336  36.177   7.950
 6031POPC   C4A36462  35.390  36.116   7.650
 6031POPC   C1B36463  35.130  35.952   8.550
 6031POPC   C2B36464  35.137  35.953   8.250
 6031POPC   C3B36465  35.161  35.977   7.950
 6031POPC   C4B36466  35.127  35.967   7.650
 6032POPC   NC336467  42.341   4.273   9.450
 6032POPC   PO436468  42.336   4.280   9.150
 6032POPC   GL136469  42.291   4.273   8.850
 6032POPC   GL236470  42.301   4.174   8.850
 6032POPC   C1A36471  42.373   4.300   8.550
 6032POPC   D2A36472  42.320   4.271   8.250
 6032POPC   C3A36473  42.379   4.338   7.950
 6032POPC   C4A36474  42.349   4.357   7.650
 6032POPC   C1B36475  42.282   4.109   8.550
 6032POPC   C2B36476  42.278   4.112   8.250
 6032POPC   C3B36477  42.231   4.034   7.950
 6032POPC   C4B36478  42.269   4.080   7.650
 6033POPC   NC336479  15.968  24.485   9.450
 6033POPC   PO436480  15.969  24.450   9.150
 6033POPC   GL136481  16.004  24.484   8.850
 6033POPC   GL236482  16.044  24.561   8.850
 6033POPC   C1A36483  15.992  24.492   8.550
 6033POPC   D2A36484  15.950  24.518   8.250
 6033POPC   C3A36485  15.985  24.525   7.950
 6033POPC   C4A36486  15.982  24.504   7.650
 6033POPC   C1B36487  16.209  24.525   8.550
 6033POPC   C2B36488  16.169  24.582   8.250
 6033POPC   C3B36489  16.162  24.559   7.950
 6033POPC   C4B36490  16.161  24.550   7.650
 6034POPC   NC336491   8.934  25.286   9.450
 6034POPC   PO436492   9.008  25.244   9.150
 6034POPC   GL136493   9.012  25.298   8.850
 6034POPC   GL236494   9.035  25.201   8.850
 6034POPC   C1A36495   9.011  25.283   8.550
 6034POPC   D2A36496   9.015  25.264   8.250
 6034POPC   C3A36497   8.995  25.270   7.950
 6034POPC   C4A36498   8.941  25.236   7.650
 6034POPC   C1B36499   9.109  25.078   8.550
 6034POPC   C2B36500   9.050  25.003   8.250
 6034POPC   C3B36501   9.099  25.040   7.950
 6034POPC   C4B36502   9.096  25.089   7.650
 6035POPC   NC336503  43.902   8.227   9.450
 6035POPC   PO436504  43.841   8.200   9.150
 6035POPC   GL136505  43.924   8.189   8.850
 6035POPC   GL236506  43.849   8.356   8.850
 6035POPC   C1A36507  43.912   8.231   8.550
 6035POPC   D2A36508  43.885   8.234   8.250
 6035POPC   C3A36509  43.875   8.244   7.950
 6035POPC   C4A36510  43.873   8.209   7.650
 6035POPC   C1B36511  43.759   8.461   8.550
 6035POPC   C2B36512  43.820   8.437   8.250
 6035POPC   C3B36513  43.827   8.425   7.950
 6035POPC   C4B36514  43.807   8.380   7.650
 6036POPC   NC336515  44.701  37.691   9.450
 6036POPC   PO436516  44.650  37.689   9.150
 6036POPC   GL136517  44.707  37.653   8.850
 6036POPC   GL236518  44.573  37.712   8.850
 6036POPC   C1A36519  44.669  37.715   8.550
 6036POPC   D2A36520  44.688  37.632   8.250
 6036POPC   C3A36521  44.637  37.642   7.950
 6036POPC   C4A36522  44.624  37.718   7.650
 6036POPC   C1B36523  44.465  37.818   8.550
 6036POPC   C2B36524  44.436  37.807   8.250
 6036POPC   C3B36525  44.436  37.819   7.950
 6036POPC   C4B36526  44.411  37.734   7.650
 6037POPC   NC336527  36.164  21.420   9.450
 6037POPC   PO436528  36.111  21.381   9.150
 6037POPC   GL136529  36.140  21.370   8.850
 6037POPC   GL236530  36.047  21.363   8.850
 6037POPC   C1A36531  36.113  21.418   8.550
 6037POPC   D2A36532  36.173  21.404   8.250
 6037POPC   C3A36533  36.147  21.364   7.950
 6037POPC   C4A36534  36.138  21.340   7.650
 6037POPC   C1B36535  35.906  21.412   8.550
 6037POPC   C2B36536  35.853  21.431   8.250
 6037POPC   C3B36537  35.892  21.379   7.950
 6037POPC   C4B36538  35.842  21.394   7.650
 6038POPC   NC336539  24.498  44.663   9.450
 6038POPC   PO436540  24.532  44.640   9.150
 6038POPC   GL136541  24.495  44.648   8.850
 6038POPC   GL236542  24.449  44.755   8.850
 6038POPC   C1A36543  24.507  44.673   8.550
 6038POPC   D2A36544  24.473  44.693   8.250
 6038POPC   C3A36545  24.522  44.674   7.950
 6038POPC   C4A36546  24.443  44.624   7.650
 6038POPC   C1B36547  24.344  44.899   8.550
 6038POPC   C2B36548  24.362  44.867   8.250
 6038POPC   C3B36549  24.378  44.899   7.950
 6038POPC   C4B36550  24.339  44.881   7.650
 6039POPC   NC336551   3.540  12.853   9.450
 6039POPC   PO436552   3.589  12.888   9.150
 6039POPC   GL136553   3.502  12.825   8.850
 6039POPC   GL236554   3.637  12.778   8.850
 6039POPC   C1A36555   3.537  12.817   8.550
 6039POPC   D2A36556   3.574  12.837   8.250
 6039POPC   C3A36557   3.505  12.851   7.950
 6039POPC   C4A36558   3.540  12.875   7.650
 6039POPC   C1B36559   3.680  12.628   8.550
 6039POPC   C2B36560   3.668  12.633   8.250
 6039POPC   C3B36561   3.756  12.651   7.950
 6039POPC   C4B36562   3.667  12.693   7.650
 6040POPC   NC336563  40.048  28.396   9.450
 6040POPC   PO436564  40.003  28.330   9.150
 6040POPC   GL136565  40.005  28.341   8.850
 6040POPC   GL236566  39.852  28.378   8.850
 6040POPC   C1A36567  40.043  28.366   8.550
 6040POPC   D2A36568  40.010  28.328   8.250
 6040POPC   C3A36569  39.970  28.324   7.950
 6040POPC   C4A36570  39.972  28.339   7.650
 6040POPC   C1B36571  39.785  28.317   8.550
 6040POPC   C2B36572  39.808  28.299   8.250
 6040POPC   C3B36573  39.747  28.368   7.950
 6040POPC   C4B36574  39.733  28.320   7.650
 6041POPC   NC336575  29.123  23.760   9.450
 6041POPC   PO436576  29.120  23.752   9.150
 6041POPC   GL136577  29.101  23.664   8.850
 6041POPC   GL236578  29.203  23.783   8.850
 6041POPC   C1A36579  29.183  23.685   8.550
 6041POPC   D2A36580  29.182  23.720   8.250
 6041POPC   C3A36581  29.135  23.759   7.950
 6041POPC   C4A36582  29.132  23.715   7.650
 6041POPC   C1B36583  29.277  23.943   8.550
 6041POPC   C2B36584  29.337  23.922   8.250
 6041POPC   C3B36585  29.277  23.939   7.950
 6041POPC   C4B36586  29.347  23.923   7.650
 6042POPC   NC336587   8.941  29.946   9.450
 6042POPC   PO436588   8.989  29.926   9.150
 6042POPC   GL136589   8.987  29.933   8.850
 6042POPC   GL236590   8.874  29.890   8.850
 6042POPC   C1A36591   8.988  29.968   8.550
 6042POPC   D2A36592   9.013  29.879   8.250
 6042POPC   C3A36593   8.944  29.921   7.950
 6042POPC   C4A36594   8.974  29.886   7.650
 6042POPC   C1B36595   8.687  29.824   8.550
 6042POPC   C2B36596   8.761  29.802   8.250
 6042POPC   C3B36597   8.708  29.885   7.950
 6042POPC   C4B36598   8.771  29.870   7.650
 6043POPC   NC336599  36.167  20.604   9.450
 6043POPC   PO436600  36.149  20.653   9.150
 6043POPC   GL136601  36.126  20.611   8.850
 6043POPC   GL236602  36.142  20.500   8.850
 6043POPC   C1A36603  36.111  20.626   8.550
 6043POPC   D2A36604  36.115  20.632   8.250
 6043POPC   C3A36605  36.086  20.635   7.950
 6043POPC   C4A36606  36.096  20.589   7.650
 6043POPC   C1B36607  36.093  20.366   8.550
 6043POPC   C2B36608  36.056  20.399   8.250
 6043POPC   C3B36609  36.145  20.375   7.950
 6043POPC   C4B36610  36.063  20.368   7.650
 6044POPC   NC336611  23.712   0.435   9.450
 6044POPC   PO436612  23.687   0.462   9.150
 6044POPC   GL136613  23.720   0.399   8.850
 6044POPC   GL236614  23.777   0.544   8.850
 6044POPC   C1A36615  23.671   0.465   8.550
 6044POPC   D2A36616  23.739   0.434   8.250
 6044POPC   C3A36617  23.717   0.427   7.950
 6044POPC   C4A36618  23.704   0.401   7.650
 6044POPC   C1B36619  23.752   0.664   8.550
 6044POPC   C2B36620  23.702   0.706   8.250
 6044POPC   C3B36621  23.768   0.679   7.950
 6044POPC   C4B36622  23.702   0.697   7.650
 6045POPC   NC336623  28.418  36.140   9.450
 6045POPC   PO436624  28.337  36.169   9.150
 6045POPC   GL136625  28.328  36.135   8.850
 6045POPC   GL236626  28.508  36.201   8.850
 6045POPC   C1A36627  28.321  36.091   8.550
 6045POPC   D2A36628  28.342  36.118   8.250
 6045POPC   C3A36629  28.351  36.094   7.950
 6045POPC   C4A36630  28.322  36.089   7.650
 6045POPC   C1B36631  28.572  36.233   8.550
 6045POPC   C2B36632  28.577  36.296   8.250
 6045POPC   C3B36633  28.576  36.282   7.950
 6045POPC   C4B36634  28.540  36.277   7.650
 6046POPC   NC336635  22.986   3.545   9.450
 6046POPC   PO436636  22.951   3.574   9.150
 6046POPC   GL136637  22.898   3.512   8.850
 6046POPC   GL236638  23.023   3.460   8.850
 6046POPC   C1A36639  22.921   3.509   8.550
 6046POPC   D2A36640  22.963   3.512   8.250
 6046POPC   C3A36641  22.985   3.503   7.950
 6046POPC   C4A36642  22.977   3.494   7.650
 6046POPC   C1B36643  23.069   3.362   8.550
 6046POPC   C2B36644  23.113   3.339   8.250
 6046POPC   C3B36645  23.129   3.349   7.950
 6046POPC   C4B36646  23.142   3.333   7.650
 6047POPC   NC336647   4.296  11.254   9.450
 6047POPC   PO436648   4.312  11.285   9.150
 6047POPC   GL136649   4.343  11.276   8.850
 6047POPC   GL236650   4.176  11.350   8.850
 6047POPC   C1A36651   4.346  11.334   8.550
 6047POPC   D2A36652   4.351  11.288   8.250
 6047POPC   C3A36653   4.301  11.327   7.950
 6047POPC   C4A36654   4.338  11.256   7.650
 6047POPC   C1B36655   4.097  11.482   8.550
 6047POPC   C2B36656   4.149  11.461   8.250
 6047POPC   C3B36657   4.073  11.430   7.950
 6047POPC   C4B36658   4.093  11.443   7.650
 6048POPC   NC336659  13.601  27.628   9.450
 6048POPC   PO436660  13.615  27.553   9.150
 6048POPC   GL136661  13.612  27.596   8.850
 6048POPC   GL236662  13.608  27.465   8.850
 6048POPC   C1A36663  13.632  27.546   8.550
 6048POPC   D2A36664  13.662  27.590   8.250
 6048POPC   C3A36665  13.640  27.557   7.950
 6048POPC   C4A36666  13.590  27.594   7.650
 6048POPC   C1B36667  13.635  27.391   8.550
 6048POPC   C2B36668  13.582  27.334   8.250
 6048POPC   C3B36669  13.570  27.366   7.950
 6048POPC   C4B36670  13.604  27.339   7.650
 6049POPC   NC336671  19.028   2.733   9.450
 6049POPC   PO436672  19.074   2.797   9.150
 6049POPC   GL136673  19.083   2.783   8.850
 6049POPC   GL236674  18.981   2.751   8.850
 6049POPC   C1A36675  19.082   2.731   8.550
 6049POPC   D2A36676  19.062   2.716   8.250
 6049POPC   C3A36677  19.099   2.720   7.950
 6049POPC   C4A36678  19.029   2.813   7.650
 6049POPC   C1B36679  18.789   2.642   8.550
 6049POPC   C2B36680  18.838   2.601   8.250
 6049POPC   C3B36681  18.820   2.625   7.950
 6049POPC   C4B36682  18.845   2.625   7.650
 6050POPC   NC336683  15.982   6.602   9.450
 6050POPC   PO436684  15.967   6.621   9.150
 6050POPC   GL136685  15.924   6.645   8.850
 6050POPC   GL236686  16.038   6.708   8.850
 6050POPC   C1A36687  15.995   6.641   8.550
 6050POPC   D2A36688  15.940   6.615   8.250
 6050POPC   C3A36689  15.927   6.614   7.950
 6050POPC   C4A36690  15.962   6.672   7.650
 6050POPC   C1B36691  16.207   6.731   8.550
 6050POPC   C2B36692  16.169   6.710   8.250
 6050POPC   C3B36693  16.174   6.669   7.950
 6050POPC   C4B36694  16.160   6.683   7.650
 6051POPC   NC336695  33.036  26.030   9.450
 6051POPC   PO436696  32.974  25.999   9.150
 6051POPC   GL136697  32.984  26.078   8.850
 6051POPC   GL236698  33.082  25.897   8.850
 6051POPC   C1A36699  33.035  26.048   8.550
 6051POPC   D2A36700  33.027  26.046   8.250
 6051POPC   C3A36701  33.073  26.048   7.950
 6051POPC   C4A36702  33.001  26.029   7.650
 6051POPC   C1B36703  33.040  25.793   8.550
 6051POPC   C2B36704  33.080  25.761   8.250
 6051POPC   C3B36705  33.036  25.801   7.950
 6051POPC   C4B36706  33.119  25.816   7.650
 6052POPC   NC336707  31.434  32.223   9.450
 6052POPC   PO436708  31.469  32.260   9.150
 6052POPC   GL136709  31.448  32.204   8.850
 6052POPC   GL236710  31.601  32.312   8.850
 6052POPC   C1A36711  31.508  32.292   8.550
 6052POPC   D2A36712  31.494  32.236   8.250
 6052POPC   C3A36713  31.454  32.229   7.950
 6052POPC   C4A36714  31.522  32.245   7.650
 6052POPC   C1B36715  31.647  32.442   8.550
 6052POPC   C2B36716  31.641  32.357   8.250
 6052POPC   C3B36717  31.715  32.425   7.950
 6052POPC   C4B36718  31.634  32.371   7.650
 6053POPC   NC336719  16.771  43.154   9.450
 6053POPC   PO436720  16.745  43.093   9.150
 6053POPC   GL136721  16.763  43.136   8.850
 6053POPC   GL236722  16.701  43.182   8.850
 6053POPC   C1A36723  16.688  43.096   8.550
 6053POPC   D2A36724  16.768  43.071   8.250
 6053POPC   C3A36725  16.700  43.160   7.950
 6053POPC   C4A36726  16.707  43.131   7.650
 6053POPC   C1B36727  16.568  43.299   8.550
 6053POPC   C2B36728  16.650  43.321   8.250
 6053POPC   C3B36729  16.611  43.311   7.950
 6053POPC   C4B36730  16.559  43.287   7.650
 6054POPC   NC336731  30.706  40.828   9.450
 6054POPC   PO436732  30.684  40.793   9.150
 6054POPC   GL136733  30.720  40.797   8.850
 6054POPC   GL236734  30.729  40.692   8.850
 6054POPC   C1A36735  30.672  40.809   8.550
 6054POPC   D2A36736  30.711  40.821   8.250
 6054POPC   C3A36737  30.719  40.784   7.950
 6054POPC   C4A36738  30.706  40.796   7.650
 6054POPC   C1B36739  30.768  40.559   8.550
 6054POPC   C2B36740  30.745  40.544   8.250
 6054POPC   C3B36741  30.811  40.580   7.950
 6054POPC   C4B36742  30.759  40.527   7.650
 6055POPC   NC336743  21.365   6.597   9.450
 6055POPC   PO436744  21.388   6.605   9.150
 6055POPC   GL136745  21.386   6.635   8.850
 6055POPC   GL236746  21.518   6.646   8.850
 6055POPC   C1A36747  21.367   6.609   8.550
 6055POPC   D2A36748  21.436   6.666   8.250
 6055POPC   C3A36749  21.398   6.673   7.950
 6055POPC   C4A36750  21.391   6.627   7.650
 6055POPC   C1B36751  21.585   6.550   8.550
 6055POPC   C2B36752  21.607   6.545   8.250
 6055POPC   C3B36753  21.655   6.614   7.950
 6055POPC   C4B36754  21.675   6.610   7.650
 6056POPC   NC336755  43.882   1.229   9.450
 6056POPC   PO436756  43.847   1.170   9.150
 6056POPC   GL136757  43.934   1.241   8.850
 6056POPC   GL236758  43.824   1.139   8.850
 6056POPC   C1A36759  43.870   1.258   8.550
 6056POPC   D2A36760  43.892   1.232   8.250
 6056POPC   C3A36761  43.921   1.255   7.950
 6056POPC   C4A36762  43.927   1.166   7.650
 6056POPC   C1B36763  43.743   1.016   8.550
 6056POPC   C2B36764  43.737   1.070   8.250
 6056POPC   C3B36765  43.741   1.054   7.950
 6056POPC   C4B36766  43.671   1.077   7.650
 6057POPC   NC336767  19.086   9.783   9.450
 6057POPC   PO436768  19.012   9.745   9.150
 6057POPC   GL136769  19.018   9.736   8.850
 6057POPC   GL236770  19.146   9.861   8.850
 6057POPC   C1A36771  19.069   9.728   8.550
 6057POPC   D2A36772  19.061   9.785   8.250
 6057POPC   C3A36773  19.017   9.718   7.950
 6057POPC   C4A36774  19.009   9.766   7.650
 6057POPC   C1B36775  19.253   9.908   8.550
 6057POPC   C2B36776  19.252   9.902   8.250
 6057POPC   C3B36777  19.219   9.925   7.950
 6057POPC   C4B36778  19.215   9.944   7.650
 6058POPC   NC336779  40.820  32.283   9.450
 6058POPC   PO436780  40.741  32.259   9.150
 6058POPC   GL136781  40.735  32.276   8.850
 6058POPC   GL236782  40.889  32.317   8.850
 6058POPC   C1A36783  40.735  32.213   8.550
 6058POPC   D2A36784  40.812  32.246   8.250
 6058POPC   C3A36785  40.777  32.253   7.950
 6058POPC   C4A36786  40.797  32.246   7.650
 6058POPC   C1B36787  40.960  32.400   8.550
 6058POPC   C2B36788  40.971  32.402   8.250
 6058POPC   C3B36789  40.986  32.370   7.950
 6058POPC   C4B36790  40.988  32.335   7.650
 6059POPC   NC336791  44.704  22.142   9.450
 6059POPC   PO436792  44.652  22.184   9.150
 6059POPC   GL136793  44.673  22.187   8.850
 6059POPC   GL236794  44.781  22.092   8.850
 6059POPC   C1A36795  44.659  22.114   8.550
 6059POPC   D2A36796  44.668  22.130   8.250
 6059POPC   C3A36797  44.694  22.158   7.950
 6059POPC   C4A36798  44.656  22.140   7.650
 6059POPC   C1B36799  44.807  21.972   8.550
 6059POPC   C2B36800  44.852  21.969   8.250
 6059POPC   C3B36801  44.795  21.971   7.950
 6059POPC   C4B36802  44.800  21.991   7.650
 6060POPC   NC336803  37.665  16.710   9.450
 6060POPC   PO436804  37.639  16.704   9.150
 6060POPC   GL136805  37.694  16.707   8.850
 6060POPC   GL236806  37.549  16.636   8.850
 6060POPC   C1A36807  37.724  16.738   8.550
 6060POPC   D2A36808  37.642  16.750   8.250
 6060POPC   C3A36809  37.701  16.694   7.950
 6060POPC   C4A36810  37.633  16.720   7.650
 6060POPC   C1B36811  37.420  16.619   8.550
 6060POPC   C2B36812  37.448  16.587   8.250
 6060POPC   C3B36813  37.470  16.588   7.950
 6060POPC   C4B36814  37.402  16.655   7.650
 6061POPC   NC336815   6.645  33.849   9.450
 6061POPC   PO436816   6.677  33.757   9.150
 6061POPC   GL136817   6.676  33.813   8.850
 6061POPC   GL236818   6.692  33.929   8.850
 6061POPC   C1A36819   6.613  33.829   8.550
 6061POPC   D2A36820   6.661  33.762   8.250
 6061POPC   C3A36821   6.681  33.833   7.950
 6061POPC   C4A36822   6.622  33.776   7.650
 6061POPC   C1B36823   6.634  34.030   8.550
 6061POPC   C2B36824   6.690  34.033   8.250
 6061POPC   C3B36825   6.648  34.061   7.950
 6061POPC   C4B36826   6.692  34.019   7.650
 6062POPC   NC336827  33.021   1.993   9.450
 6062POPC   PO436828  33.070   1.961   9.150
 6062POPC   GL136829  33.048   1.966   8.850
 6062POPC   GL236830  33.064   1.937   8.850
 6062POPC   C1A36831  33.020   2.019   8.550
 6062POPC   D2A36832  33.074   2.004   8.250
 6062POPC   C3A36833  33.035   2.017   7.950
 6062POPC   C4A36834  33.006   1.956   7.650
 6062POPC   C1B36835  33.125   1.788   8.550
 6062POPC   C2B36836  33.162   1.806   8.250
 6062POPC   C3B36837  33.147   1.761   7.950
 6062POPC   C4B36838  33.125   1.766   7.650
 6063POPC   NC336839   2.795  27.609   9.450
 6063POPC   PO436840   2.743  27.602   9.150
 6063POPC   GL136841   2.771  27.597   8.850
 6063POPC   GL236842   2.911  27.572   8.850
 6063POPC   C1A36843   2.770  27.590   8.550
 6063POPC   D2A36844   2.728  27.593   8.250
 6063POPC   C3A36845   2.744  27.556   7.950
 6063POPC   C4A36846   2.750  27.554   7.650
 6063POPC   C1B36847   3.051  27.534   8.550
 6063POPC   C2B36848   2.986  27.503   8.250
 6063POPC   C3B36849   3.035  27.542   7.950
 6063POPC   C4B36850   3.051  27.502   7.650
 6064POPC   NC336851  39.214   8.927   9.450
 6064POPC   PO436852  39.274   8.948   9.150
 6064POPC   GL136853  39.258   8.995   8.850
 6064POPC   GL236854  39.272   8.876   8.850
 6064POPC   C1A36855  39.256   9.020   8.550
 6064POPC   D2A36856  39.205   8.934   8.250
 6064POPC   C3A36857  39.256   8.992   7.950
 6064POPC   C4A36858  39.183   9.017   7.650
 6064POPC   C1B36859  39.246   8.733   8.550
 6064POPC   C2B36860  39.295   8.725   8.250
 6064POPC   C3B36861  39.292   8.729   7.950
 6064POPC   C4B36862  39.216   8.759   7.650
 6065POPC   NC336863  13.632  36.911   9.450
 6065POPC   PO436864  13.665  36.947   9.150
 6065POPC   GL136865  13.587  36.868   8.850
 6065POPC   GL236866  13.472  36.938   8.850
 6065POPC   C1A36867  13.604  36.949   8.550
 6065POPC   D2A36868  13.597  36.880   8.250
 6065POPC   C3A36869  13.646  36.941   7.950
 6065POPC   C4A36870  13.615  36.915   7.650
 6065POPC   C1B36871  13.422  37.006   8.550
 6065POPC   C2B36872  13.415  37.034   8.250
 6065POPC   C3B36873  13.364  36.977   7.950
 6065POPC   C4B36874  13.421  36.982   7.650
 6066POPC   NC336875  43.143  15.145   9.450
 6066POPC   PO436876  43.141  15.181   9.150
 6066POPC   GL136877  43.133  15.149   8.850
 6066POPC   GL236878  43.191  15.332   8.850
 6066POPC   C1A36879  43.076  15.204   8.550
 6066POPC   D2A36880  43.099  15.159   8.250
 6066POPC   C3A36881  43.143  15.221   7.950
 6066POPC   C4A36882  43.134  15.228   7.650
 6066POPC   C1B36883  43.232  15.370   8.550
 6066POPC   C2B36884  43.243  15.426   8.250
 6066POPC   C3B36885  43.262  15.426   7.950
 6066POPC   C4B36886  43.227  15.450   7.650
 6067POPC   NC336887  17.517   5.066   9.450
 6067POPC   PO436888  17.511   5.118   9.150
 6067POPC   GL136889  17.543   5.083   8.850
 6067POPC   GL236890  17.670   5.092   8.850
 6067POPC   C1A36891  17.505   5.090   8.550
 6067POPC   D2A36892  17.516   5.074   8.250
 6067POPC   C3A36893  17.503   5.127   7.950
 6067POPC   C4A36894  17.466   5.111   7.650
 6067POPC   C1B36895  17.753   5.074   8.550
 6067POPC   C2B36896  17.748   5.137   8.250
 6067POPC   C3B36897  17.754   5.111   7.950
 6067POPC   C4B36898  17.720   5.084   7.650
 6068POPC   NC336899  27.609  16.774   9.450
 6068POPC   PO436900  27.632  16.760   9.150
 6068POPC   GL136901  27.569  16.745   8.850
 6068POPC   GL236902  27.524  16.655   8.850
 6068POPC   C1A36903  27.615  16.727   8.550
 6068POPC   D2A36904  27.629  16.740   8.250
 6068POPC   C3A36905  27.570  16.720   7.950
 6068POPC   C4A36906  27.611  16.751   7.650
 6068POPC   C1B36907  27.444  16.547   8.550
 6068POPC   C2B36908  27.484  16.485   8.250
 6068POPC   C3B36909  27.404  16.520   7.950
 6068POPC   C4B36910  27.453  16.504   7.650
 6069POPC   NC336911  19.855  18.269   9.450
 6069POPC   PO436912  19.805  18.306   9.150
 6069POPC   GL136913  19.868  18.282   8.850
 6069POPC   GL236914  19.852  18.190   8.850
 6069POPC   C1A36915  19.808  18.283   8.550
 6069POPC   D2A36916  19.813  18.260   8.250
 6069POPC   C3A36917  19.880  18.284   7.950
 6069POPC   C4A36918  19.831  18.332   7.650
 6069POPC   C1B36919  19.928  18.102   8.550
 6069POPC   C2B36920  19.932  18.091   8.250
 6069POPC   C3B36921  19.956  18.082   7.950
 6069POPC   C4B36922  19.906  18.074   7.650
 6070POPC   NC336923   8.940  15.986   9.450
 6070POPC   PO436924   8.954  15.944   9.150
 6070POPC   GL136925   9.021  15.963   8.850
 6070POPC   GL236926   8.990  16.040   8.850
 6070POPC   C1A36927   9.009  15.987   8.550
 6070POPC   D2A36928   8.985  15.911   8.250
 6070POPC   C3A36929   8.982  15.939   7.950
 6070POPC   C4A36930   9.012  15.965   7.650
 6070POPC   C1B36931   9.084  16.185   8.550
 6070POPC   C2B36932   9.017  16.144   8.250
 6070POPC   C3B36933   9.099  16.177   7.950
 6070POPC   C4B36934   9.005  16.178   7.650
 6071POPC   NC336935  21.390  32.203   9.450
 6071POPC   PO436936  21.422  32.278   9.150
 6071POPC   GL136937  21.414  32.281   8.850
 6071POPC   GL236938  21.535  32.281   8.850
 6071POPC   C1A36939  21.367  32.206   8.550
 6071POPC   D2A36940  21.413  32.278   8.250
 6071POPC   C3A36941  21.376  32.257   7.950
 6071POPC   C4A36942  21.349  32.276   7.650
 6071POPC   C1B36943  21.667  32.286   8.550
 6071POPC   C2B36944  21.649  32.265   8.250
 6071POPC   C3B36945  21.646  32.327   7.950
 6071POPC   C4B36946  21.613  32.317   7.650
 6072POPC   NC336947   5.102  31.495   9.450
 6072POPC   PO436948   5.142  31.502   9.150
 6072POPC   GL136949   5.064  31.427   8.850
 6072POPC   GL236950   5.208  31.382   8.850
 6072POPC   C1A36951   5.106  31.483   8.550
 6072POPC   D2A36952   5.099  31.484   8.250
 6072POPC   C3A36953   5.081  31.437   7.950
 6072POPC   C4A36954   5.107  31.430   7.650
 6072POPC   C1B36955   5.319  31.388   8.550
 6072POPC   C2B36956   5.317  31.330   8.250
 6072POPC   C3B36957   5.266  31.345   7.950
 6072POPC   C4B36958   5.343  31.312   7.650
 6073POPC   NC336959   2.033  42.308   9.450
 6073POPC   PO436960   1.991  42.334   9.150
 6073POPC   GL136961   1.977  42.369   8.850
 6073POPC   GL236962   2.109  42.293   8.850
 6073POPC   C1A36963   1.969  42.368   8.550
 6073POPC   D2A36964   1.987  42.383   8.250
 6073POPC   C3A36965   1.998  42.307   7.950
 6073POPC   C4A36966   1.999  42.355   7.650
 6073POPC   C1B36967   2.215  42.346   8.550
 6073POPC   C2B36968   2.289  42.301   8.250
 6073POPC   C3B36969   2.243  42.364   7.950
 6073POPC   C4B36970   2.258  42.349   7.650
 6074POPC   NC336971  13.586  35.324   9.450
 6074POPC   PO436972  13.643  35.319   9.150
 6074POPC   GL136973  13.581  35.360   8.850
 6074POPC   GL236974  13.678  35.280   8.850
 6074POPC   C1A36975  13.596  35.341   8.550
 6074POPC   D2A36976  13.585  35.376   8.250
 6074POPC   C3A36977  13.592  35.317   7.950
 6074POPC   C4A36978  13.617  35.342   7.650
 6074POPC   C1B36979  13.766  35.165   8.550
 6074POPC   C2B36980  13.789  35.188   8.250
 6074POPC   C3B36981  13.728  35.128   7.950
 6074POPC   C4B36982  13.769  35.188   7.650
 6075POPC   NC336983  40.775   2.006   9.450
 6075POPC   PO436984  40.765   1.978   9.150
 6075POPC   GL136985  40.756   1.998   8.850
 6075POPC   GL236986  40.889   1.977   8.850
 6075POPC   C1A36987  40.781   2.002   8.550
 6075POPC   D2A36988  40.793   2.034   8.250
 6075POPC   C3A36989  40.785   1.957   7.950
 6075POPC   C4A36990  40.779   1.975   7.650
 6075POPC   C1B36991  40.984   1.885   8.550
 6075POPC   C2B36992  41.006   1.894   8.250
 6075POPC   C3B36993  40.970   1.923   7.950
 6075POPC   C4B36994  40.988   1.909   7.650
 6076POPC   NC336995   4.268   9.774   9.450
 6076POPC   PO436996   4.339   9.787   9.150
 6076POPC   GL136997   4.312   9.757   8.850
 6076POPC   GL236998   4.421   9.858   8.850
 6076POPC   C1A36999   4.344   9.715   8.550
 6076POPC   D2A37000   4.340   9.735   8.250
 6076POPC   C3A37001   4.300   9.724   7.950
 6076POPC   C4A37002   4.325   9.795   7.650
 6076POPC   C1B37003   4.524   9.861   8.550
 6076POPC   C2B37004   4.568   9.907   8.250
 6076POPC   C3B37005   4.517   9.876   7.950
 6076POPC   C4B37006   4.499   9.942   7.650
 6077POPC   NC337007  12.803   4.360   9.450
 6077POPC   PO437008  12.858   4.318   9.150
 6077POPC   GL137009  12.835   4.358   8.850
 6077POPC   GL237010  12.777   4.199   8.850
 6077POPC   C1A37011  12.824   4.323   8.550
 6077POPC   D2A37012  12.820   4.305   8.250
 6077POPC   C3A37013  12.899   4.317   7.950
 6077POPC   C4A37014  12.807   4.328   7.650
 6077POPC   C1B37015  12.789   4.068   8.550
 6077POPC   C2B37016  12.734   4.131   8.250
 6077POPC   C3B37017  12.695   4.105   7.950
 6077POPC   C4B37018  12.740   4.138   7.650
 6078POPC   NC337019  36.115   3.504   9.450
 6078POPC   PO437020  36.175   3.529   9.150
 6078POPC   GL137021  36.095   3.554   8.850
 6078POPC   GL237022  36.273   3.665   8.850
 6078POPC   C1A37023  36.176   3.555   8.550
 6078POPC   D2A37024  36.170   3.542   8.250
 6078POPC   C3A37025  36.162   3.519   7.950
 6078POPC   C4A37026  36.137   3.563   7.650
 6078POPC   C1B37027  36.292   3.711   8.550
 6078POPC   C2B37028  36.366   3.651   8.250
 6078POPC   C3B37029  36.370   3.723   7.950
 6078POPC   C4B37030  36.331   3.697   7.650
 6079POPC   NC337031  43.130  32.263   9.450
 6079POPC   PO437032  43.091  32.226   9.150
 6079POPC   GL137033  43.149  32.248   8.850
 6079POPC   GL237034  43.047  32.378   8.850
 6079POPC   C1A37035  43.097  32.237   8.550
 6079POPC   D2A37036  43.126  32.279   8.250
 6079POPC   C3A37037  43.139  32.275   7.950
 6079POPC   C4A37038  43.147  32.272   7.650
 6079POPC   C1B37039  42.929  32.456   8.550
 6079POPC   C2B37040  43.016  32.412   8.250
 6079POPC   C3B37041  43.022  32.423   7.950
 6079POPC   C4B37042  42.935  32.448   7.650
 6080POPC   NC337043  10.556  26.792   9.450
 6080POPC   PO437044  10.481  26.797   9.150
 6080POPC   GL137045  10.499  26.791   8.850
 6080POPC   GL237046  10.457  26.960   8.850
 6080POPC   C1A37047  10.538  26.823   8.550
 6080POPC   D2A37048  10.492  26.785   8.250
 6080POPC   C3A37049  10.502  26.821   7.950
 6080POPC   C4A37050  10.522  26.770   7.650
 6080POPC   C1B37051  10.410  26.998   8.550
 6080POPC   C2B37052  10.426  26.988   8.250
 6080POPC   C3B37053  10.394  27.040   7.950
 6080POPC   C4B37054  10.432  27.043   7.650
 6081POPC   NC337055  34.599  21.418   9.450
 6081POPC   PO437056  34.602  21.386   9.150
 6081POPC   GL137057  34.537  21.396   8.850
 6081POPC   GL237058  34.527  21.484   8.850
 6081POPC   C1A37059  34.553  21.395   8.550
 6081POPC   D2A37060  34.565  21.353   8.250
 6081POPC   C3A37061  34.548  21.339   7.950
 6081POPC   C4A37062  34.599  21.337   7.650
 6081POPC   C1B37063  34.510  21.648   8.550
 6081POPC   C2B37064  34.564  21.665   8.250
 6081POPC   C3B37065  34.517  21.600   7.950
 6081POPC   C4B37066  34.573  21.639   7.650
 6082POPC   NC337067  15.221   8.211   9.450
 6082POPC   PO437068  15.166   8.206   9.150
 6082POPC   GL137069  15.186   8.182   8.850
 6082POPC   GL237070  15.116   8.106   8.850
 6082POPC   C1A37071  15.190   8.228   8.550
 6082POPC   D2A37072  15.164   8.157   8.250
 6082POPC   C3A37073  15.149   8.167   7.950
 6082POPC   C4A37074  15.169   8.198   7.650
 6082POPC   C1B37075  15.061   8.010   8.550
 6082POPC   C2B37076  15.056   8.017   8.250
 6082POPC   C3B37077  15.038   7.960   7.950
 6082POPC   C4B37078  15.057   8.017   7.650
 6083POPC   NC337079   2.741   1.204   9.450
 6083POPC   PO437080   2.740   1.243   9.150
 6083POPC   GL137081   2.716   1.207   8.850
 6083POPC   GL237082   2.709   1.273   8.850
 6083POPC   C1A37083   2.797   1.181   8.550
 6083POPC   D2A37084   2.764   1.216   8.250
 6083POPC   C3A37085   2.777   1.244   7.950
 6083POPC   C4A37086   2.724   1.187   7.650
 6083POPC   C1B37087   2.516   1.368   8.550
 6083POPC   C2B37088   2.603   1.357   8.250
 6083POPC   C3B37089   2.524   1.365   7.950
 6083POPC   C4B37090   2.547   1.361   7.650
 6084POPC   NC337091  28.361  29.107   9.450
 6084POPC   PO437092  28.358  29.104   9.150
 6084POPC   GL137093  28.387  29.172   8.850
 6084POPC   GL237094  28.393  29.232   8.850
 6084POPC   C1A37095  28.416  29.158   8.550
 6084POPC   D2A37096  28.356  29.190   8.250
 6084POPC   C3A37097  28.364  29.126   7.950
 6084POPC   C4A37098  28.396  29.128   7.650
 6084POPC   C1B37099  28.310  29.413   8.550
 6084POPC   C2B37100  28.330  29.347   8.250
 6084POPC   C3B37101  28.355  29.389   7.950
 6084POPC   C4B37102  28.365  29.405   7.650
 6085POPC   NC337103  42.369  24.515   9.450
 6085POPC   PO437104  42.370  24.452   9.150
 6085POPC   GL137105  42.294  24.461   8.850
 6085POPC   GL237106  42.480  24.436   8.850
 6085POPC   C1A37107  42.343  24.445   8.550
 6085POPC   D2A37108  42.360  24.510   8.250
 6085POPC   C3A37109  42.288  24.441   7.950
 6085POPC   C4A37110  42.297  24.451   7.650
 6085POPC   C1B37111  42.540  24.489   8.550
 6085POPC   C2B37112  42.588  24.432   8.250
 6085POPC   C3B37113  42.626  24.444   7.950
 6085POPC   C4B37114  42.613  24.453   7.650
 6086POPC   NC337115  26.089  10.521   9.450
 6086POPC   PO437116  25.998  10.489   9.150
 6086POPC   GL137117  25.993  10.500   8.850
 6086POPC   GL237118  25.923  10.495   8.850
 6086POPC   C1A37119  26.019  10.518   8.550
 6086POPC   D2A37120  26.004  10.523   8.250
 6086POPC   C3A37121  26.026  10.492   7.950
 6086POPC   C4A37122  26.017  10.547   7.650
 6086POPC   C1B37123  25.812  10.454   8.550
 6086POPC   C2B37124  25.820  10.411   8.250
 6086POPC   C3B37125  25.855  10.415   7.950
 6086POPC   C4B37126  25.807  10.454   7.650
 6087POPC   NC337127  26.037   6.672   9.450
 6087POPC   PO437128  26.019   6.607   9.150
 6087POPC   GL137129  26.017   6.624   8.850
 6087POPC   GL237130  26.163   6.778   8.850
 6087POPC   C1A37131  26.002   6.677   8.550
 6087POPC   D2A37132  26.029   6.623   8.250
 6087POPC   C3A37133  26.058   6.671   7.950
 6087POPC   C4A37134  26.057   6.629   7.650
 6087POPC   C1B37135  26.221   6.832   8.550
 6087POPC   C2B37136  26.214   6.851   8.250
 6087POPC   C3B37137  26.186   6.860   7.950
 6087POPC   C4B37138  26.214   6.768   7.650
 6088POPC   NC337139  29.164  44.676   9.450
 6088POPC   PO437140  29.146  44.629   9.150
 6088POPC   GL137141  29.130  44.661   8.850
 6088POPC   GL237142  29.207  44.542   8.850
 6088POPC   C1A37143  29.101  44.639   8.550
 6088POPC   D2A37144  29.152  44.662   8.250
 6088POPC   C3A37145  29.163  44.692   7.950
 6088POPC   C4A37146  29.098  44.711   7.650
 6088POPC   C1B37147  29.360  44.508   8.550
 6088POPC   C2B37148  29.392  44.493   8.250
 6088POPC   C3B37149  29.302  44.477   7.950
 6088POPC   C4B37150  29.308  44.473   7.650
 6089POPC   NC337151   7.395  22.949   9.450
 6089POPC   PO437152   7.453  22.947   9.150
 6089POPC   GL137153   7.373  22.969   8.850
 6089POPC   GL237154   7.303  22.959   8.850
 6089POPC   C1A37155   7.436  22.954   8.550
 6089POPC   D2A37156   7.426  22.940   8.250
 6089POPC   C3A37157   7.418  22.978   7.950
 6089POPC   C4A37158   7.375  22.969   7.650
 6089POPC   C1B37159   7.137  22.930   8.550
 6089POPC   C2B37160   7.158  22.925   8.250
 6089POPC   C3B37161   7.163  22.904   7.950
 6089POPC   C4B37162   7.202  22.946   7.650
 6090POPC   NC337163  43.862  15.151   9.450
 6090POPC   PO437164  43.868  15.146   9.150
 6090POPC   GL137165  43.929  15.199   8.850
 6090POPC   GL237166  43.738  15.141   8.850
 6090POPC   C1A37167  43.933  15.168   8.550
 6090POPC   D2A37168  43.920  15.219   8.250
 6090POPC   C3A37169  43.928  15.131   7.950
 6090POPC   C4A37170  43.874  15.151   7.650
 6090POPC   C1B37171  43.671  15.092   8.550
 6090POPC   C2B37172  43.619  15.104   8.250
 6090POPC   C3B37173  43.665  15.107   7.950
 6090POPC   C4B37174  43.679  15.070   7.650
 6091POPC   NC337175   8.957  22.892   9.450
 6091POPC   PO437176   9.012  22.932   9.150
 6091POPC   GL137177   8.938  22.913   8.850
 6091POPC   GL237178   8.999  22.831   8.850
 6091POPC   C1A37179   8.939  22.893   8.550
 6091POPC   D2A37180   8.996  22.925   8.250
 6091POPC   C3A37181   9.007  22.955   7.950
 6091POPC   C4A37182   9.012  22.960   7.650
 6091POPC   C1B37183   8.943  22.731   8.550
 6091POPC   C2B37184   9.018  22.725   8.250
 6091POPC   C3B37185   8.983  22.643   7.950
 6091POPC   C4B37186   8.963  22.638   7.650
 6092POPC   NC337187  36.871  21.429   9.450
 6092POPC   PO437188  36.952  21.348   9.150
 6092POPC   GL137189  36.935  21.435   8.850
 6092POPC   GL237190  36.732  21.399   8.850
 6092POPC   C1A37191  36.914  21.396   8.550
 6092POPC   D2A37192  36.854  21.367   8.250
 6092POPC   C3A37193  36.890  21.366   7.950
 6092POPC   C4A37194  36.905  21.429   7.650
 6092POPC   C1B37195  36.627  21.451   8.550
 6092POPC   C2B37196  36.643  21.466   8.250
 6092POPC   C3B37197  36.652  21.446   7.950
 6092POPC   C4B37198  36.621  21.473   7.650
 6093POPC   NC337199  10.519  25.306   9.450
 6093POPC   PO437200  10.475  25.261   9.150
 6093POPC   GL137201  10.550  25.284   8.850
 6093POPC   GL237202  10.372  25.224   8.850
 6093POPC   C1A37203  10.508  25.234   8.550
 6093POPC   D2A37204  10.509  25.306   8.250
 6093POPC   C3A37205  10.486  25.262   7.950
 6093POPC   C4A37206  10.482  25.276   7.650
 6093POPC   C1B37207  10.267  25.161   8.550
 6093POPC   C2B37208  10.282  25.162   8.250
 6093POPC   C3B37209  10.300  25.203   7.950
 6093POPC   C4B37210  10.265  25.225   7.650
 6094POPC   NC337211  40.823  30.714   9.450
 6094POPC   PO437212  40.753  30.723   9.150
 6094POPC   GL137213  40.738  30.664   8.850
 6094POPC   GL237214  40.804  30.774   8.850
 6094POPC   C1A37215  40.765  30.711   8.550
 6094POPC   D2A37216  40.784  30.674   8.250
 6094POPC   C3A37217  40.787  30.741   7.950
 6094POPC   C4A37218  40.760  30.744   7.650
 6094POPC   C1B37219  40.839  30.937   8.550
 6094POPC   C2B37220  40.903  30.943   8.250
 6094POPC   C3B37221  40.829  30.914   7.950
 6094POPC   C4B37222  40.807  30.911   7.650
 6095POPC   NC337223  34.550  38.463   9.450
 6095POPC   PO437224  34.585  38.423   9.150
 6095POPC   GL137225  34.595  38.488   8.850
 6095POPC   GL237226  34.623  38.320   8.850
 6095POPC   C1A37227  34.543  38.450   8.550
 6095POPC   D2A37228  34.548  38.496   8.250
 6095POPC   C3A37229  34.556  38.462   7.950
 6095POPC   C4A37230  34.604  38.409   7.650
 6095POPC   C1B37231  34.628  38.234   8.550
 6095POPC   C2B37232  34.703  38.209   8.250
 6095POPC   C3B37233  34.670  38.235   7.950
 6095POPC   C4B37234  34.621  38.229   7.650
 6096POPC   NC337235  12.079  43.118   9.450
 6096POPC   PO437236  12.070  43.148   9.150
 6096POPC   GL137237  12.090  43.118   8.850
 6096POPC   GL237238  12.045  43.239   8.850
 6096POPC   C1A37239  12.121  43.078   8.550
 6096POPC   D2A37240  12.123  43.147   8.250
 6096POPC   C3A37241  12.031  43.118   7.950
 6096POPC   C4A37242  12.099  43.077   7.650
 6096POPC   C1B37243  12.002  43.379   8.550
 6096POPC   C2B37244  11.961  43.305   8.250
 6096POPC   C3B37245  11.922  43.303   7.950
 6096POPC   C4B37246  11.978  43.357   7.650
 6097POPC   NC337247   5.904  11.286   9.450
 6097POPC   PO437248   5.855  11.258   9.150
 6097POPC   GL137249   5.821  11.332   8.850
 6097POPC   GL237250   5.772  11.408   8.850
 6097POPC   C1A37251   5.871  11.254   8.550
 6097POPC   D2A37252   5.875  11.288   8.250
 6097POPC   C3A37253   5.870  11.267   7.950
 6097POPC   C4A37254   5.891  11.317   7.650
 6097POPC   C1B37255   5.819  11.501   8.550
 6097POPC   C2B37256   5.748  11.515   8.250
 6097POPC   C3B37257   5.725  11.516   7.950
 6097POPC   C4B37258   5.727  11.484   7.650
 6098POPC   NC337259  20.659  30.665   9.450
 6098POPC   PO437260  20.573  30.694   9.150
 6098POPC   GL137261  20.635  30.724   8.850
 6098POPC   GL237262  20.621  30.626   8.850
 6098POPC   C1A37263  20.565  30.666   8.550
 6098POPC   D2A37264  20.656  30.659   8.250
 6098POPC   C3A37265  20.619  30.659   7.950
 6098POPC   C4A37266  20.645  30.746   7.650
 6098POPC   C1B37267  20.506  30.501   8.550
 6098POPC   C2B37268  20.548  30.499   8.250
 6098POPC   C3B37269  20.501  30.495   7.950
 6098POPC   C4B37270  20.524  30.440   7.650
 6099POPC   NC337271   8.243   2.018   9.450
 6099POPC   PO437272   8.209   1.999   9.150
 6099POPC   GL137273   8.224   2.035   8.850
 6099POPC   GL237274   8.278   1.992   8.850
 6099POPC   C1A37275   8.181   2.036   8.550
 6099POPC   D2A37276   8.184   1.992   8.250
 6099POPC   C3A37277   8.167   1.980   7.950
 6099POPC   C4A37278   8.201   2.006   7.650
 6099POPC   C1B37279   8.448   2.054   8.550
 6099POPC   C2B37280   8.474   2.066   8.250
 6099POPC   C3B37281   8.432   2.076   7.950
 6099POPC   C4B37282   8.398   1.993   7.650
 6100POPC   NC337283  22.211   4.278   9.450
 6100POPC   PO437284  22.183   4.299   9.150
 6100POPC   GL137285  22.147   4.332   8.850
 6100POPC   GL237286  22.035   4.366   8.850
 6100POPC   C1A37287  22.134   4.324   8.550
 6100POPC   D2A37288  22.198   4.362   8.250
 6100POPC   C3A37289  22.115   4.304   7.950
 6100POPC   C4A37290  22.201   4.285   7.650
 6100POPC   C1B37291  22.001   4.517   8.550
 6100POPC   C2B37292  21.946   4.455   8.250
 6100POPC   C3B37293  21.919   4.484   7.950
 6100POPC   C4B37294  21.962   4.473   7.650
 6101POPC   NC337295  36.905  32.995   9.450
 6101POPC   PO437296  36.907  33.072   9.150
 6101POPC   GL137297  36.947  32.978   8.850
 6101POPC   GL237298  37.013  33.094   8.850
 6101POPC   C1A37299  36.867  32.998   8.550
 6101POPC   D2A37300  36.920  32.986   8.250
 6101POPC   C3A37301  36.883  33.032   7.950
 6101POPC   C4A37302  36.886  32.996   7.650
 6101POPC   C1B37303  37.127  33.070   8.550
 6101POPC   C2B37304  37.142  33.058   8.250
 6101POPC   C3B37305  37.195  33.040   7.950
 6101POPC   C4B37306  37.101  33.075   7.650
 6102POPC   NC337307  26.793  11.305   9.450
 6102POPC   PO437308  26.814  11.281   9.150
 6102POPC   GL137309  26.850  11.293   8.850
 6102POPC   GL237310  26.747  11.374   8.850
 6102POPC   C1A37311  26.794  11.288   8.550
 6102POPC   D2A37312  26.864  11.252   8.250
 6102POPC   C3A37313  26.777  11.283   7.950
 6102POPC   C4A37314  26.842  11.268   7.650
 6102POPC   C1B37315  26.740  11.549   8.550
 6102POPC   C2B37316  26.784  11.502   8.250
 6102POPC   C3B37317  26.780  11.548   7.950
 6102POPC   C4B37318  26.731  11.529   7.650
 6103POPC   NC337319  26.006   9.766   9.450
 6103POPC   PO437320  25.997   9.774   9.150
 6103POPC   GL137321  26.070   9.796   8.850
 6103POPC   GL237322  25.948   9.679   8.850
 6103POPC   C1A37323  26.066   9.763   8.550
 6103POPC   D2A37324  25.998   9.784   8.250
 6103POPC   C3A37325  26.065   9.781   7.950
 6103POPC   C4A37326  26.072   9.773   7.650
 6103POPC   C1B37327  25.900   9.526   8.550
 6103POPC   C2B37328  25.861   9.539   8.250
 6103POPC   C3B37329  25.923   9.537   7.950
 6103POPC   C4B37330  25.890   9.536   7.650
 6104POPC   NC337331   8.246  34.598   9.450
 6104POPC   PO437332   8.234  34.623   9.150
 6104POPC   GL137333   8.148  34.578   8.850
 6104POPC   GL237334   8.233  34.456   8.850
 6104POPC   C1A37335   8.148  34.611   8.550
 6104POPC   D2A37336   8.241  34.536   8.250
 6104POPC   C3A37337   8.179  34.532   7.950
 6104POPC   C4A37338   8.189  34.530   7.650
 6104POPC   C1B37339   8.230  34.308   8.550
 6104POPC   C2B37340   8.244  34.280   8.250
 6104POPC   C3B37341   8.227  34.359   7.950
 6104POPC   C4B37342   8.231  34.350   7.650
 6105POPC   NC337343  20.609  32.211   9.450
 6105POPC   PO437344  20.593  32.216   9.150
 6105POPC   GL137345  20.646  32.249   8.850
 6105POPC   GL237346  20.507  32.261   8.850
 6105POPC   C1A37347  20.580  32.296   8.550
 6105POPC   D2A37348  20.659  32.232   8.250
 6105POPC   C3A37349  20.570  32.246   7.950
 6105POPC   C4A37350  20.601  32.203   7.650
 6105POPC   C1B37351  20.384  32.179   8.550
 6105POPC   C2B37352  20.341  32.260   8.250
 6105POPC   C3B37353  20.334  32.253   7.950
 6105POPC   C4B37354  20.393  32.205   7.650
 6106POPC   NC337355  16.767   6.605   9.450
 6106POPC   PO437356  16.715   6.688   9.150
 6106POPC   GL137357  16.729   6.687   8.850
 6106POPC   GL237358  16.722   6.541   8.850
 6106POPC   C1A37359  16.771   6.676   8.550
 6106POPC   D2A37360  16.702   6.651   8.250
 6106POPC   C3A37361  16.720   6.608   7.950
 6106POPC   C4A37362  16.746   6.606   7.650
 6106POPC   C1B37363  16.649   6.390   8.550
 6106POPC   C2B37364  16.696   6.359   8.250
 6106POPC   C3B37365  16.610   6.433   7.950
 6106POPC   C4B37366  16.702   6.400   7.650
 6107POPC   NC337367  27.568   5.082   9.450
 6107POPC   PO437368  27.544   5.049   9.150
 6107POPC   GL137369  27.622   5.065   8.850
 6107POPC   GL237370  27.628   5.155   8.850
 6107POPC   C1A37371  27.556   5.135   8.550
 6107POPC   D2A37372  27.552   5.060   8.250
 6107POPC   C3A37373  27.573   5.092   7.950
 6107POPC   C4A37374  27.581   5.085   7.650
 6107POPC   C1B37375  27.693   5.264   8.550
 6107POPC   C2B37376  27.713   5.284   8.250
 6107POPC   C3B37377  27.734   5.301   7.950
 6107POPC   C4B37378  27.733   5.327   7.650
 6108POPC   NC337379  23.665  37.678   9.450
 6108POPC   PO437380  23.726  37.694   9.150
 6108POPC   GL137381  23.697  37.711   8.850
 6108POPC   GL237382  23.820  37.662   8.850
 6108POPC   C1A37383  23.727  37.645   8.550
 6108POPC   D2A37384  23.696  37.705   8.250
 6108POPC   C3A37385  23.672  37.641   7.950
 6108POPC   C4A37386  23.734  37.723   7.650
 6108POPC   C1B37387  23.890  37.612   8.550
 6108POPC   C2B37388  23.900  37.584   8.250
 6108POPC   C3B37389  23.939  37.553   7.950
 6108POPC   C4B37390  23.928  37.583   7.650
 6109POPC   NC337391  40.749  19.805   9.450
 6109POPC   PO437392  40.777  19.882   9.150
 6109POPC   GL137393  40.767  19.826   8.850
 6109POPC   GL237394  40.806  19.997   8.850
 6109POPC   C1A37395  40.766  19.846   8.550
 6109POPC   D2A37396  40.749  19.806   8.250
 6109POPC   C3A37397  40.738  19.851   7.950
 6109POPC   C4A37398  40.794  19.860   7.650
 6109POPC   C1B37399  40.904  20.088   8.550
 6109POPC   C2B37400  40.853  20.058   8.250
 6109POPC   C3B37401  40.906  20.116   7.950
 6109POPC   C4B37402  40.881  20.046   7.650
 6110POPC   NC337403  43.084   6.606   9.450
 6110POPC   PO437404  43.116   6.611   9.150
 6110POPC   GL137405  43.086   6.676   8.850
 6110POPC   GL237406  43.244   6.662   8.850
 6110POPC   C1A37407  43.099   6.673   8.550
 6110POPC   D2A37408  43.117   6.647   8.250
 6110POPC   C3A37409  43.101   6.658   7.950
 6110POPC   C4A37410  43.155   6.662   7.650
 6110POPC   C1B37411  43.360   6.741   8.550
 6110POPC   C2B37412  43.331   6.680   8.250
 6110POPC   C3B37413  43.333   6.664   7.950
 6110POPC   C4B37414  43.332   6.741   7.650
 6111POPC   NC337415  12.886   1.944   9.450
 6111POPC   PO437416  12.888   2.033   9.150
 6111POPC   GL137417  12.860   1.994   8.850
 6111POPC   GL237418  12.774   2.072   8.850
 6111POPC   C1A37419  12.839   2.023   8.550
 6111POPC   D2A37420  12.872   2.015   8.250
 6111POPC   C3A37421  12.884   2.021   7.950
 6111POPC   C4A37422  12.842   2.002   7.650
 6111POPC   C1B37423  12.768   2.244   8.550
 6111POPC   C2B37424  12.756   2.214   8.250
 6111POPC   C3B37425  12.763   2.159   7.950
 6111POPC   C4B37426  12.730   2.195   7.650
 6112POPC   NC337427  15.161  16.000   9.450
 6112POPC   PO437428  15.227  15.924   9.150
 6112POPC   GL137429  15.152  15.910   8.850
 6112POPC   GL237430  15.235  15.869   8.850
 6112POPC   C1A37431  15.135  15.929   8.550
 6112POPC   D2A37432  15.215  15.996   8.250
 6112POPC   C3A37433  15.156  15.931   7.950
 6112POPC   C4A37434  15.130  15.961   7.650
 6112POPC   C1B37435  15.224  15.728   8.550
 6112POPC   C2B37436  15.221  15.695   8.250
 6112POPC   C3B37437  15.172  15.737   7.950
 6112POPC   C4B37438  15.186  15.670   7.650
 6113POPC   NC337439  20.571  43.879   9.450
 6113POPC   PO437440  20.561  43.874   9.150
 6113POPC   GL137441  20.650  43.918   8.850
 6113POPC   GL237442  20.488  43.861   8.850
 6113POPC   C1A37443  20.598  43.840   8.550
 6113POPC   D2A37444  20.573  43.920   8.250
 6113POPC   C3A37445  20.628  43.852   7.950
 6113POPC   C4A37446  20.608  43.898   7.650
 6113POPC   C1B37447  20.375  43.776   8.550
 6113POPC   C2B37448  20.398  43.770   8.250
 6113POPC   C3B37449  20.425  43.796   7.950
 6113POPC   C4B37450  20.390  43.776   7.650
 6114POPC   NC337451  20.626   9.022   9.450
 6114POPC   PO437452  20.587   8.965   9.150
 6114POPC   GL137453  20.635   8.969   8.850
 6114POPC   GL237454  20.717   9.055   8.850
 6114POPC   C1A37455  20.564   8.929   8.550
 6114POPC   D2A37456  20.652   8.987   8.250
 6114POPC   C3A37457  20.613   8.940   7.950
 6114POPC   C4A37458  20.642   9.012   7.650
 6114POPC   C1B37459  20.754   9.220   8.550
 6114POPC   C2B37460  20.734   9.147   8.250
 6114POPC   C3B37461  20.718   9.152   7.950
 6114POPC   C4B37462  20.783   9.139   7.650
 6115POPC   NC337463  23.673   1.238   9.450
 6115POPC   PO437464  23.677   1.234   9.150
 6115POPC   GL137465  23.693   1.165   8.850
 6115POPC   GL237466  23.848   1.252   8.850
 6115POPC   C1A37467  23.745   1.219   8.550
 6115POPC   D2A37468  23.713   1.201   8.250
 6115POPC   C3A37469  23.681   1.181   7.950
 6115POPC   C4A37470  23.730   1.247   7.650
 6115POPC   C1B37471  23.862   1.346   8.550
 6115POPC   C2B37472  23.869   1.400   8.250
 6115POPC   C3B37473  23.848   1.382   7.950
 6115POPC   C4B37474  23.883   1.418   7.650
 6116POPC   NC337475   1.235  33.813   9.450
 6116POPC   PO437476   1.180  33.784   9.150
 6116POPC   GL137477   1.243  33.774   8.850
 6116POPC   GL237478   1.320  33.718   8.850
 6116POPC   C1A37479   1.227  33.760   8.550
 6116POPC   D2A37480   1.262  33.808   8.250
 6116POPC   C3A37481   1.179  33.773   7.950
 6116POPC   C4A37482   1.234  33.775   7.650
 6116POPC   C1B37483   1.490  33.728   8.550
 6116POPC   C2B37484   1.415  33.775   8.250
 6116POPC   C3B37485   1.452  33.761   7.950
 6116POPC   C4B37486   1.442  33.759   7.650
 6117POPC   NC337487   7.383   5.116   9.450
 6117POPC   PO437488   7.383   5.102   9.150
 6117POPC   GL137489   7.392   5.057   8.850
 6117POPC   GL237490   7.506   5.040   8.850
 6117POPC   C1A37491   7.405   5.098   8.550
 6117POPC   D2A37492   7.426   5.104   8.250
 6117POPC   C3A37493   7.412   5.137   7.950
 6117POPC   C4A37494   7.392   5.045   7.650
 6117POPC   C1B37495   7.656   5.042   8.550
 6117POPC   C2B37496   7.690   4.999   8.250
 6117POPC   C3B37497   7.645   4.995   7.950
 6117POPC   C4B37498   7.654   4.949   7.650
 6118POPC   NC337499  15.221  25.307   9.450
 6118POPC   PO437500  15.182  25.309   9.150
 6118POPC   GL137501  15.212  25.292   8.850
 6118POPC   GL237502  15.210  25.391   8.850
 6118POPC   C1A37503  15.167  25.311   8.550
 6118POPC   D2A37504  15.147  25.275   8.250
 6118POPC   C3A37505  15.135  25.221   7.950
 6118POPC   C4A37506  15.200  25.256   7.650
 6118POPC   C1B37507  15.171  25.483   8.550
 6118POPC   C2B37508  15.126  25.485   8.250
 6118POPC   C3B37509  15.139  25.483   7.950
 6118POPC   C4B37510  15.122  25.538   7.650
 6119POPC   NC337511   4.304  22.948   9.450
 6119POPC   PO437512   4.319  22.932   9.150
 6119POPC   GL137513   4.281  22.956   8.850
 6119POPC   GL237514   4.379  23.070   8.850
 6119POPC   C1A37515   4.363  22.916   8.550
 6119POPC   D2A37516   4.331  22.971   8.250
 6119POPC   C3A37517   4.279  22.893   7.950
 6119POPC   C4A37518   4.268  22.935   7.650
 6119POPC   C1B37519   4.346  23.142   8.550
 6119POPC   C2B37520   4.365  23.204   8.250
 6119POPC   C3B37521   4.395  23.199   7.950
 6119POPC   C4B37522   4.371  23.174   7.650
 6120POPC   NC337523  39.965  32.289   9.450
 6120POPC   PO437524  40.032  32.285   9.150
 6120POPC   GL137525  39.961  32.256   8.850
 6120POPC   GL237526  39.992  32.347   8.850
 6120POPC   C1A37527  40.030  32.272   8.550
 6120POPC   D2A37528  39.963  32.232   8.250
 6120POPC   C3A37529  40.012  32.279   7.950
 6120POPC   C4A37530  39.958  32.229   7.650
 6120POPC   C1B37531  39.982  32.493   8.550
 6120POPC   C2B37532  39.978  32.498   8.250
 6120POPC   C3B37533  39.970  32.527   7.950
 6120POPC   C4B37534  39.954  32.478   7.650
 6121POPC   NC337535  15.220  42.320   9.450
 6121POPC   PO437536  15.182  42.359   9.150
 6121POPC   GL137537  15.140  42.310   8.850
 6121POPC   GL237538  15.210  42.450   8.850
 6121POPC   C1A37539  15.188  42.321   8.550
 6121POPC   D2A37540  15.158  42.357   8.250
 6121POPC   C3A37541  15.184  42.331   7.950
 6121POPC   C4A37542  15.204  42.381   7.650
 6121POPC   C1B37543  15.355  42.511   8.550
 6121POPC   C2B37544  15.356  42.535   8.250
 6121POPC   C3B37545  15.379  42.489   7.950
 6121POPC   C4B37546  15.350  42.546   7.650
 6122POPC   NC337547  18.263  18.295   9.450
 6122POPC   PO437548  18.305  18.307   9.150
 6122POPC   GL137549  18.248  18.299   8.850
 6122POPC   GL237550  18.188  18.357   8.850
 6122POPC   C1A37551  18.328  18.291   8.550
 6122POPC   D2A37552  18.330  18.243   8.250
 6122POPC   C3A37553  18.262  18.256   7.950
 6122POPC   C4A37554  18.272  18.317   7.650
 6122POPC   C1B37555  18.218  18.544   8.550
 6122POPC   C2B37556  18.140  18.530   8.250
 6122POPC   C3B37557  18.196  18.505   7.950
 6122POPC   C4B37558  18.138  18.554   7.650
 6123POPC   NC337559   5.130  27.621   9.450
 6123POPC   PO437560   5.058  27.591   9.150
 6123POPC   GL137561   5.072  27.634   8.850
 6123POPC   GL237562   5.105  27.465   8.850
 6123POPC   C1A37563   5.105  27.580   8.550
 6123POPC   D2A37564   5.107  27.609   8.250
 6123POPC   C3A37565   5.089  27.624   7.950
 6123POPC   C4A37566   5.112  27.613   7.650
 6123POPC   C1B37567   5.089  27.363   8.550
 6123POPC   C2B37568   5.083  27.379   8.250
 6123POPC   C3B37569   5.121  27.369   7.950
 6123POPC   C4B37570   5.156  27.346   7.650
 6124POPC   NC337571  16.716  13.642   9.450
 6124POPC   PO437572  16.728  13.662   9.150
 6124POPC   GL137573  16.698  13.601   8.850
 6124POPC   GL237574  16.866  13.577   8.850
 6124POPC   C1A37575  16.772  13.638   8.550
 6124POPC   D2A37576  16.687  13.589   8.250
 6124POPC   C3A37577  16.709  13.605   7.950
 6124POPC   C4A37578  16.743  13.602   7.650
 6124POPC   C1B37579  16.946  13.482   8.550
 6124POPC   C2B37580  16.965  13.537   8.250
 6124POPC   C3B37581  16.996  13.487   7.950
 6124POPC   C4B37582  16.959  13.511   7.650
 6125POPC   NC337583  32.986  15.143   9.450
 6125POPC   PO437584  33.070  15.139   9.150
 6125POPC   GL137585  33.030  15.150   8.850
 6125POPC   GL237586  32.951  15.337   8.850
 6125POPC   C1A37587  33.023  15.218   8.550
 6125POPC   D2A37588  33.024  15.144   8.250
 6125POPC   C3A37589  33.072  15.218   7.950
 6125POPC   C4A37590  33.067  15.202   7.650
 6125POPC   C1B37591  32.952  15.398   8.550
 6125POPC   C2B37592  32.950  15.458   8.250
 6125POPC   C3B37593  32.955  15.423   7.950
 6125POPC   C4B37594  32.979  15.384   7.650
 6126POPC   NC337595  17.487   9.004   9.450
 6126POPC   PO437596  17.524   8.996   9.150
 6126POPC   GL137597  17.556   9.012   8.850
 6126POPC   GL237598  17.639   9.100   8.850
 6126POPC   C1A37599  17.543   8.975   8.550
 6126POPC   D2A37600  17.486   8.988   8.250
 6126POPC   C3A37601  17.471   8.948   7.950
 6126POPC   C4A37602  17.545   8.987   7.650
 6126POPC   C1B37603  17.648   9.156   8.550
 6126POPC   C2B37604  17.699   9.131   8.250
 6126POPC   C3B37605  17.686   9.098   7.950
 6126POPC   C4B37606  17.686   9.185   7.650
 6127POPC   NC337607   7.467  27.585   9.450
 6127POPC   PO437608   7.384  27.550   9.150
 6127POPC   GL137609   7.438  27.633   8.850
 6127POPC   GL237610   7.445  27.502   8.850
 6127POPC   C1A37611   7.466  27.629   8.550
 6127POPC   D2A37612   7.431  27.544   8.250
 6127POPC   C3A37613   7.385  27.581   7.950
 6127POPC   C4A37614   7.454  27.565   7.650
 6127POPC   C1B37615   7.539  27.401   8.550
 6127POPC   C2B37616   7.598  27.341   8.250
 6127POPC   C3B37617   7.512  27.345   7.950
 6127POPC   C4B37618   7.597  27.352   7.650
 6128POPC   NC337619  20.655  25.313   9.450
 6128POPC   PO437620  20.590  25.230   9.150
 6128POPC   GL137621  20.621  25.272   8.850
 6128POPC   GL237622  20.699  25.117   8.850
 6128POPC   C1A37623  20.616  25.299   8.550
 6128POPC   D2A37624  20.653  25.304   8.250
 6128POPC   C3A37625  20.639  25.299   7.950
 6128POPC   C4A37626  20.565  25.270   7.650
 6128POPC   C1B37627  20.673  25.024   8.550
 6128POPC   C2B37628  20.740  25.016   8.250
 6128POPC   C3B37629  20.675  25.029   7.950
 6128POPC   C4B37630  20.727  25.035   7.650
 6129POPC   NC337631  29.136  10.480   9.450
 6129POPC   PO437632  29.118  10.492   9.150
 6129POPC   GL137633  29.162  10.556   8.850
 6129POPC   GL237634  29.258  10.531   8.850
 6129POPC   C1A37635  29.102  10.530   8.550
 6129POPC   D2A37636  29.135  10.502   8.250
 6129POPC   C3A37637  29.130  10.504   7.950
 6129POPC   C4A37638  29.123  10.568   7.650
 6129POPC   C1B37639  29.375  10.563   8.550
 6129POPC   C2B37640  29.412  10.600   8.250
 6129POPC   C3B37641  29.431  10.569   7.950
 6129POPC   C4B37642  29.422  10.577   7.650
 6130POPC   NC337643  43.132   3.514   9.450
 6130POPC   PO437644  43.090   3.575   9.150
 6130POPC   GL137645  43.152   3.556   8.850
 6130POPC   GL237646  42.989   3.584   8.850
 6130POPC   C1A37647  43.105   3.524   8.550
 6130POPC   D2A37648  43.098   3.532   8.250
 6130POPC   C3A37649  43.110   3.525   7.950
 6130POPC   C4A37650  43.091   3.517   7.650
 6130POPC   C1B37651  42.890   3.628   8.550
 6130POPC   C2B37652  42.892   3.638   8.250
 6130POPC   C3B37653  42.907   3.640   7.950
 6130POPC   C4B37654  42.870   3.658   7.650
 6131POPC   NC337655  43.148  12.060   9.450
 6131POPC   PO437656  43.116  12.059   9.150
 6131POPC   GL137657  43.150  12.075   8.850
 6131POPC   GL237658  43.121  11.952   8.850
 6131POPC   C1A37659  43.158  12.072   8.550
 6131POPC   D2A37660  43.106  12.049   8.250
 6131POPC   C3A37661  43.145  12.118   7.950
 6131POPC   C4A37662  43.151  12.124   7.650
 6131POPC   C1B37663  43.178  11.813   8.550
 6131POPC   C2B37664  43.190  11.838   8.250
 6131POPC   C3B37665  43.202  11.802   7.950
 6131POPC   C4B37666  43.208  11.824   7.650
 6132POPC   NC337667  19.868  29.897   9.450
 6132POPC   PO437668  19.849  29.960   9.150
 6132POPC   GL137669  19.849  29.970   8.850
 6132POPC   GL237670  19.915  29.807   8.850
 6132POPC   C1A37671  19.859  29.894   8.550
 6132POPC   D2A37672  19.835  29.872   8.250
 6132POPC   C3A37673  19.853  29.890   7.950
 6132POPC   C4A37674  19.854  29.951   7.650
 6132POPC   C1B37675  20.023  29.745   8.550
 6132POPC   C2B37676  20.026  29.711   8.250
 6132POPC   C3B37677  19.988  29.680   7.950
 6132POPC   C4B37678  19.969  29.702   7.650
 6133POPC   NC337679  22.910  36.914   9.450
 6133POPC   PO437680  22.934  36.857   9.150
 6133POPC   GL137681  22.981  36.940   8.850
 6133POPC   GL237682  22.961  37.027   8.850
 6133POPC   C1A37683  22.900  36.880   8.550
 6133POPC   D2A37684  22.923  36.866   8.250
 6133POPC   C3A37685  22.973  36.926   7.950
 6133POPC   C4A37686  22.956  36.903   7.650
 6133POPC   C1B37687  23.065  37.101   8.550
 6133POPC   C2B37688  23.054  37.123   8.250
 6133POPC   C3B37689  23.005  37.154   7.950
 6133POPC   C4B37690  23.044  37.152   7.650
 6134POPC   NC337691   8.962   9.718   9.450
 6134POPC   PO437692   8.938   9.766   9.150
 6134POPC   GL137693   8.950   9.764   8.850
 6134POPC   GL237694   9.052   9.828   8.850
 6134POPC   C1A37695   9.012   9.785   8.550
 6134POPC   D2A37696   8.987   9.749   8.250
 6134POPC   C3A37697   8.924   9.733   7.950
 6134POPC   C4A37698   8.995   9.776   7.650
 6134POPC   C1B37699   9.022   9.972   8.550
 6134POPC   C2B37700   9.009   9.954   8.250
 6134POPC   C3B37701   9.057  10.023   7.950
 6134POPC   C4B37702   9.018  10.015   7.650
 6135POPC   NC337703  19.012  15.179   9.450
 6135POPC   PO437704  19.080  15.181   9.150
 6135POPC   GL137705  19.016  15.167   8.850
 6135POPC   GL237706  18.977  15.321   8.850
 6135POPC   C1A37707  19.021  15.201   8.550
 6135POPC   D2A37708  19.087  15.138   8.250
 6135POPC   C3A37709  19.083  15.165   7.950
 6135POPC   C4A37710  19.036  15.135   7.650
 6135POPC   C1B37711  18.895  15.446   8.550
 6135POPC   C2B37712  18.894  15.424   8.250
 6135POPC   C3B37713  18.919  15.444   7.950
 6135POPC   C4B37714  18.898  15.441   7.650
 6136POPC   NC337715  41.520  30.713   9.450
 6136POPC   PO437716  41.588  30.651   9.150
 6136POPC   GL137717  41.597  30.713   8.850
 6136POPC   GL237718  41.507  30.529   8.850
 6136POPC   C1A37719  41.599  30.663   8.550
 6136POPC   D2A37720  41.518  30.688   8.250
 6136POPC   C3A37721  41.536  30.708   7.950
 6136POPC   C4A37722  41.536  30.679   7.650
 6136POPC   C1B37723  41.588  30.415   8.550
 6136POPC   C2B37724  41.526  30.488   8.250
 6136POPC   C3B37725  41.517  30.497   7.950
 6136POPC   C4B37726  41.511  30.484   7.650
 6137POPC   NC337727  22.158  44.651   9.450
 6137POPC   PO437728  22.194  44.617   9.150
 6137POPC   GL137729  22.200  44.630   8.850
 6137POPC   GL237730  22.255  44.703   8.850
 6137POPC   C1A37731  22.123  44.686   8.550
 6137POPC   D2A37732  22.195  44.614   8.250
 6137POPC   C3A37733  22.172  44.707   7.950
 6137POPC   C4A37734  22.168  44.652   7.650
 6137POPC   C1B37735  22.389  44.786   8.550
 6137POPC   C2B37736  22.391  44.780   8.250
 6137POPC   C3B37737  22.377  44.784   7.950
 6137POPC   C4B37738  22.341  44.823   7.650
 6138POPC   NC337739  40.761  13.659   9.450
 6138POPC   PO437740  40.748  13.640   9.150
 6138POPC   GL137741  40.759  13.628   8.850
 6138POPC   GL237742  40.633  13.522   8.850
 6138POPC   C1A37743  40.786  13.636   8.550
 6138POPC   D2A37744  40.753  13.617   8.250
 6138POPC   C3A37745  40.791  13.636   7.950
 6138POPC   C4A37746  40.821  13.588   7.650
 6138POPC   C1B37747  40.611  13.469   8.550
 6138POPC   C2B37748  40.606  13.531   8.250
 6138POPC   C3B37749  40.558  13.486   7.950
 6138POPC   C4B37750  40.602  13.452   7.650
 6139POPC   NC337751  32.234  11.267   9.450
 6139POPC   PO437752  32.212  11.290   9.150
 6139POPC   GL137753  32.292  11.266   8.850
 6139POPC   GL237754  32.249  11.194   8.850
 6139POPC   C1A37755  32.205  11.284   8.550
 6139POPC   D2A37756  32.291  11.322   8.250
 6139POPC   C3A37757  32.231  11.344   7.950
 6139POPC   C4A37758  32.286  11.299   7.650
 6139POPC   C1B37759  32.241  11.017   8.550
 6139POPC   C2B37760  32.291  11.057   8.250
 6139POPC   C3B37761  32.287  11.032   7.950
 6139POPC   C4B37762  32.303  11.044   7.650
 6140POPC   NC337763  43.846  31.464   9.450
 6140POPC   PO437764  43.934  31.450   9.150
 6140POPC   GL137765  43.875  31.473   8.850
 6140POPC   GL237766  43.803  31.531   8.850
 6140POPC   C1A37767  43.887  31.462   8.550
 6140POPC   D2A37768  43.900  31.441   8.250
 6140POPC   C3A37769  43.895  31.475   7.950
 6140POPC   C4A37770  43.902  31.428   7.650
 6140POPC   C1B37771  43.670  31.448   8.550
 6140POPC   C2B37772  43.652  31.449   8.250
 6140POPC   C3B37773  43.609  31.448   7.950
 6140POPC   C4B37774  43.668  31.469   7.650
 6141POPC   NC337775   2.767  26.001   9.450
 6141POPC   PO437776   2.767  26.075   9.150
 6141POPC   GL137777   2.795  26.014   8.850
 6141POPC   GL237778   2.894  26.007   8.850
 6141POPC   C1A37779   2.717  26.003   8.550
 6141POPC   D2A37780   2.789  26.078   8.250
 6141POPC   C3A37781   2.744  26.016   7.950
 6141POPC   C4A37782   2.801  26.035   7.650
 6141POPC   C1B37783   2.945  25.961   8.550
 6141POPC   C2B37784   2.944  25.912   8.250
 6141POPC   C3B37785   3.008  25.906   7.950
 6141POPC   C4B37786   2.948  25.885   7.650
 6142POPC   NC337787  39.183  29.959   9.450
 6142POPC   PO437788  39.183  29.952   9.150
 6142POPC   GL137789  39.224  29.941   8.850
 6142POPC   GL237790  39.072  29.956   8.850
 6142POPC   C1A37791  39.228  29.933   8.550
 6142POPC   D2A37792  39.277  29.955   8.250
 6142POPC   C3A37793  39.191  29.891   7.950
 6142POPC   C4A37794  39.236  29.924   7.650
 6142POPC   C1B37795  38.989  29.987   8.550
 6142POPC   C2B37796  38.999  29.970   8.250
 6142POPC   C3B37797  39.035  29.964   7.950
 6142POPC   C4B37798  38.953  30.015   7.650
 6143POPC   NC337799  32.290  27.609   9.450
 6143POPC   PO437800  32.269  27.558   9.150
 6143POPC   GL137801  32.231  27.560   8.850
 6143POPC   GL237802  32.085  27.568   8.850
 6143POPC   C1A37803  32.266  27.623   8.550
 6143POPC   D2A37804  32.228  27.589   8.250
 6143POPC   C3A37805  32.207  27.611   7.950
 6143POPC   C4A37806  32.226  27.629   7.650
 6143POPC   C1B37807  32.016  27.545   8.550
 6143POPC   C2B37808  32.022  27.551   8.250
 6143POPC   C3B37809  32.047  27.511   7.950
 6143POPC   C4B37810  32.031  27.499   7.650
 6144POPC   NC337811  21.396  13.581   9.450
 6144POPC   PO437812  21.420  13.589   9.150
 6144POPC   GL137813  21.370  13.608   8.850
 6144POPC   GL237814  21.475  13.630   8.850
 6144POPC   C1A37815  21.366  13.617   8.550
 6144POPC   D2A37816  21.398  13.620   8.250
 6144POPC   C3A37817  21.416  13.641   7.950
 6144POPC   C4A37818  21.420  13.654   7.650
 6144POPC   C1B37819  21.682  13.599   8.550
 6144POPC   C2B37820  21.614  13.635   8.250
 6144POPC   C3B37821  21.603  13.562   7.950
 6144POPC   C4B37822  21.625  13.543   7.650
 6145POPC   NC337823  38.415  10.480   9.450
 6145POPC   PO437824  38.460  10.526   9.150
 6145POPC   GL137825  38.463  10.505   8.850
 6145POPC   GL237826  38.409  10.643   8.850
 6145POPC   C1A37827  38.444  10.477   8.550
 6145POPC   D2A37828  38.467  10.501   8.250
 6145POPC   C3A37829  38.417  10.570   7.950
 6145POPC   C4A37830  38.426  10.565   7.650
 6145POPC   C1B37831  38.394  10.788   8.550
 6145POPC   C2B37832  38.379  10.748   8.250
 6145POPC   C3B37833  38.424  10.811   7.950
 6145POPC   C4B37834  38.345  10.750   7.650
 6146POPC   NC337835  12.805  20.603   9.450
 6146POPC   PO437836  12.891  20.596   9.150
 6146POPC   GL137837  12.892  20.644   8.850
 6146POPC   GL237838  12.922  20.539   8.850
 6146POPC   C1A37839  12.881  20.626   8.550
 6146POPC   D2A37840  12.823  20.567   8.250
 6146POPC   C3A37841  12.818  20.585   7.950
 6146POPC   C4A37842  12.889  20.654   7.650
 6146POPC   C1B37843  13.073  20.518   8.550
 6146POPC   C2B37844  13.075  20.484   8.250
 6146POPC   C3B37845  13.047  20.436   7.950
 6146POPC   C4B37846  13.046  20.495   7.650
 6147POPC   NC337847  11.337  38.490   9.450
 6147POPC   PO437848  11.346  38.408   9.150
 6147POPC   GL137849  11.331  38.420   8.850
 6147POPC   GL237850  11.352  38.360   8.850
 6147POPC   C1A37851  11.265  38.450   8.550
 6147POPC   D2A37852  11.325  38.457   8.250
 6147POPC   C3A37853  11.289  38.467   7.950
 6147POPC   C4A37854  11.255  38.412   7.650
 6147POPC   C1B37855  11.497  38.282   8.550
 6147POPC   C2B37856  11.452  38.243   8.250
 6147POPC   C3B37857  11.498  38.308   7.950
 6147POPC   C4B37858  11.432  38.266   7.650
 6148POPC   NC337859  39.967   5.843   9.450
 6148POPC   PO437860  40.002   5.823   9.150
 6148POPC   GL137861  39.961   5.915   8.850
 6148POPC   GL237862  40.141   5.765   8.850
 6148POPC   C1A37863  40.008   5.862   8.550
 6148POPC   D2A37864  40.049   5.839   8.250
 6148POPC   C3A37865  39.986   5.838   7.950
 6148POPC   C4A37866  40.049   5.873   7.650
 6148POPC   C1B37867  40.214   5.724   8.550
 6148POPC   C2B37868  40.180   5.737   8.250
 6148POPC   C3B37869  40.224   5.783   7.950
 6148POPC   C4B37870  40.197   5.742   7.650
 6149POPC   NC337871   9.760  42.344   9.450
 6149POPC   PO437872   9.755  42.290   9.150
 6149POPC   GL137873   9.738  42.316   8.850
 6149POPC   GL237874   9.716  42.190   8.850
 6149POPC   C1A37875   9.798  42.312   8.550
 6149POPC   D2A37876   9.721  42.351   8.250
 6149POPC   C3A37877   9.735  42.354   7.950
 6149POPC   C4A37878   9.778  42.342   7.650
 6149POPC   C1B37879   9.563  42.077   8.550
 6149POPC   C2B37880   9.643  42.117   8.250
 6149POPC   C3B37881   9.590  42.101   7.950
 6149POPC   C4B37882   9.618  42.121   7.650
 6150POPC   NC337883  40.034  19.810   9.450
 6150POPC   PO437884  40.023  19.846   9.150
 6150POPC   GL137885  39.979  19.793   8.850
 6150POPC   GL237886  40.014  19.964   8.850
 6150POPC   C1A37887  40.027  19.795   8.550
 6150POPC   D2A37888  40.033  19.879   8.250
 6150POPC   C3A37889  40.029  19.806   7.950
 6150POPC   C4A37890  39.979  19.831   7.650
 6150POPC   C1B37891  39.978  20.078   8.550
 6150POPC   C2B37892  39.887  20.043   8.250
 6150POPC   C3B37893  39.911  20.087   7.950
 6150POPC   C4B37894  39.882  20.034   7.650
 6151POPC   NC337895  14.371   6.619   9.450
 6151POPC   PO437896  14.368   6.684   9.150
 6151POPC   GL137897  14.353   6.610   8.850
 6151POPC   GL237898  14.497   6.654   8.850
 6151POPC   C1A37899  14.446   6.602   8.550
 6151POPC   D2A37900  14.401   6.691   8.250
 6151POPC   C3A37901  14.427   6.675   7.950
 6151POPC   C4A37902  14.360   6.678   7.650
 6151POPC   C1B37903  14.650   6.680   8.550
 6151POPC   C2B37904  14.614   6.698   8.250
 6151POPC   C3B37905  14.637   6.607   7.950
 6151POPC   C4B37906  14.659   6.691   7.650
 6152POPC   NC337907  11.312   4.320   9.450
 6152POPC   PO437908  11.326   4.286   9.150
 6152POPC   GL137909  11.264   4.333   8.850
 6152POPC   GL237910  11.338   4.454   8.850
 6152POPC   C1A37911  11.321   4.321   8.550
 6152POPC   D2A37912  11.300   4.298   8.250
 6152POPC   C3A37913  11.329   4.272   7.950
 6152POPC   C4A37914  11.326   4.314   7.650
 6152POPC   C1B37915  11.364   4.560   8.550
 6152POPC   C2B37916  11.299   4.609   8.250
 6152POPC   C3B37917  11.377   4.530   7.950
 6152POPC   C4B37918  11.360   4.584   7.650
 6153POPC   NC337919  27.578  13.665   9.450
 6153POPC   PO437920  27.635  13.584   9.150
 6153POPC   GL137921  27.613  13.671   8.850
 6153POPC   GL237922  27.710  13.669   8.850
 6153POPC   C1A37923  27.578  13.584   8.550
 6153POPC   D2A37924  27.597  13.625   8.250
 6153POPC   C3A37925  27.609  13.632   7.950
 6153POPC   C4A37926  27.617  13.652   7.650
 6153POPC   C1B37927  27.853  13.728   8.550
 6153POPC   C2B37928  27.787  13.724   8.250
 6153POPC   C3B37929  27.805  13.773   7.950
 6153POPC   C4B37930  27.855  13.725   7.650
 6154POPC   NC337931  10.506  29.945   9.450
 6154POPC   PO437932  10.535  29.915   9.150
 6154POPC   GL137933  10.505  29.901   8.850
 6154POPC   GL237934  10.430  29.902   8.850
 6154POPC   C1A37935  10.537  29.955   8.550
 6154POPC   D2A37936  10.490  29.937   8.250
 6154POPC   C3A37937  10.543  29.915   7.950
 6154POPC   C4A37938  10.519  29.932   7.650
 6154POPC   C1B37939  10.312  29.958   8.550
 6154POPC   C2B37940  10.313  29.987   8.250
 6154POPC   C3B37941  10.283  29.976   7.950
 6154POPC   C4B37942  10.249  30.020   7.650
 6155POPC   NC337943   3.511  10.489   9.450
 6155POPC   PO437944   3.542  10.507   9.150
 6155POPC   GL137945   3.516  10.514   8.850
 6155POPC   GL237946   3.442  10.623   8.850
 6155POPC   C1A37947   3.530  10.511   8.550
 6155POPC   D2A37948   3.560  10.558   8.250
 6155POPC   C3A37949   3.555  10.530   7.950
 6155POPC   C4A37950   3.496  10.474   7.650
 6155POPC   C1B37951   3.372  10.725   8.550
 6155POPC   C2B37952   3.324  10.656   8.250
 6155POPC   C3B37953   3.323  10.703   7.950
 6155POPC   C4B37954   3.358  10.654   7.650
 6156POPC   NC337955  29.938  19.027   9.450
 6156POPC   PO437956  29.963  19.031   9.150
 6156POPC   GL137957  29.892  19.018   8.850
 6156POPC   GL237958  29.924  19.178   8.850
 6156POPC   C1A37959  29.878  19.098   8.550
 6156POPC   D2A37960  29.906  19.021   8.250
 6156POPC   C3A37961  29.913  19.062   7.950
 6156POPC   C4A37962  29.899  19.038   7.650
 6156POPC   C1B37963  30.028  19.310   8.550
 6156POPC   C2B37964  29.993  19.259   8.250
 6156POPC   C3B37965  30.035  19.253   7.950
 6156POPC   C4B37966  29.986  19.280   7.650
 6157POPC   NC337967  37.641  36.929   9.450
 6157POPC   PO437968  37.650  36.864   9.150
 6157POPC   GL137969  37.689  36.923   8.850
 6157POPC   GL237970  37.844  36.895   8.850
 6157POPC   C1A37971  37.691  36.903   8.550
 6157POPC   D2A37972  37.658  36.854   8.250
 6157POPC   C3A37973  37.686  36.870   7.950
 6157POPC   C4A37974  37.677  36.927   7.650
 6157POPC   C1B37975  37.970  36.837   8.550
 6157POPC   C2B37976  37.901  36.917   8.250
 6157POPC   C3B37977  37.921  36.851   7.950
 6157POPC   C4B37978  37.889  36.863   7.650
 6158POPC   NC337979  25.234   4.367   9.450
 6158POPC   PO437980  25.229   4.310   9.150
 6158POPC   GL137981  25.268   4.352   8.850
 6158POPC   GL237982  25.198   4.450   8.850
 6158POPC   C1A37983  25.224   4.267   8.550
 6158POPC   D2A37984  25.262   4.290   8.250
 6158POPC   C3A37985  25.266   4.367   7.950
 6158POPC   C4A37986  25.246   4.334   7.650
 6158POPC   C1B37987  25.106   4.548   8.550
 6158POPC   C2B37988  25.095   4.476   8.250
 6158POPC   C3B37989  25.066   4.504   7.950
 6158POPC   C4B37990  25.051   4.480   7.650
 6159POPC   NC337991  39.986  10.540   9.450
 6159POPC   PO437992  40.041  10.532   9.150
 6159POPC   GL137993  39.986  10.488   8.850
 6159POPC   GL237994  39.881  10.414   8.850
 6159POPC   C1A37995  39.960  10.485   8.550
 6159POPC   D2A37996  40.004  10.558   8.250
 6159POPC   C3A37997  39.982  10.568   7.950
 6159POPC   C4A37998  39.960  10.567   7.650
 6159POPC   C1B37999  39.876  10.313   8.550
 6159POPC   C2B38000  39.826  10.367   8.250
 6159POPC   C3B38001  39.852  10.289   7.950
 6159POPC   C4B38002  39.887  10.336   7.650
 6160POPC   NC338003  12.075  41.588   9.450
 6160POPC   PO438004  12.064  41.600   9.150
 6160POPC   GL138005  12.044  41.526   8.850
 6160POPC   GL238006  12.072  41.391   8.850
 6160POPC   C1A38007  12.113  41.595   8.550
 6160POPC   D2A38008  12.071  41.564   8.250
 6160POPC   C3A38009  12.058  41.548   7.950
 6160POPC   C4A38010  12.115  41.554   7.650
 6160POPC   C1B38011  11.983  41.289   8.550
 6160POPC   C2B38012  12.051  41.348   8.250
 6160POPC   C3B38013  12.060  41.321   7.950
 6160POPC   C4B38014  12.036  41.274   7.650
 6161POPC   NC338015   5.109   8.993   9.450
 6161POPC   PO438016   5.136   9.007   9.150
 6161POPC   GL138017   5.107   8.967   8.850
 6161POPC   GL238018   4.978   8.950   8.850
 6161POPC   C1A38019   5.117   8.943   8.550
 6161POPC   D2A38020   5.102   8.952   8.250
 6161POPC   C3A38021   5.111   8.987   7.950
 6161POPC   C4A38022   5.095   8.946   7.650
 6161POPC   C1B38023   4.880   8.931   8.550
 6161POPC   C2B38024   4.884   8.925   8.250
 6161POPC   C3B38025   4.838   8.972   7.950
 6161POPC   C4B38026   4.808   8.906   7.650
 6162POPC   NC338027  26.861  40.774   9.450
 6162POPC   PO438028  26.808  40.774   9.150
 6162POPC   GL138029  26.808  40.813   8.850
 6162POPC   GL238030  26.779  40.880   8.850
 6162POPC   C1A38031  26.827  40.833   8.550
 6162POPC   D2A38032  26.784  40.808   8.250
 6162POPC   C3A38033  26.804  40.811   7.950
 6162POPC   C4A38034  26.818  40.822   7.650
 6162POPC   C1B38035  26.779  41.039   8.550
 6162POPC   C2B38036  26.776  41.081   8.250
 6162POPC   C3B38037  26.761  41.023   7.950
 6162POPC   C4B38038  26.739  41.070   7.650
 6163POPC   NC338039  40.827   5.120   9.450
 6163POPC   PO438040  40.822   5.108   9.150
 6163POPC   GL138041  40.816   5.130   8.850
 6163POPC   GL238042  40.909   5.066   8.850
 6163POPC   C1A38043  40.736   5.110   8.550
 6163POPC   D2A38044  40.745   5.115   8.250
 6163POPC   C3A38045  40.784   5.131   7.950
 6163POPC   C4A38046  40.754   5.126   7.650
 6163POPC   C1B38047  41.011   5.152   8.550
 6163POPC   C2B38048  41.076   5.086   8.250
 6163POPC   C3B38049  41.072   5.087   7.950
 6163POPC   C4B38050  41.062   5.121   7.650
 6164POPC   NC338051  14.378   7.450   9.450
 6164POPC   PO438052  14.399   7.381   9.150
 6164POPC   GL138053  14.382   7.396   8.850
 6164POPC   GL238054  14.479   7.507   8.850
 6164POPC   C1A38055  14.396   7.454   8.550
 6164POPC   D2A38056  14.372   7.430   8.250
 6164POPC   C3A38057  14.409   7.384   7.950
 6164POPC   C4A38058  14.410   7.423   7.650
 6164POPC   C1B38059  14.525   7.654   8.550
 6164POPC   C2B38060  14.552   7.658   8.250
 6164POPC   C3B38061  14.466   7.676   7.950
 6164POPC   C4B38062  14.470   7.695   7.650
 6165POPC   NC338063  33.757  29.951   9.450
 6165POPC   PO438064  33.833  29.968   9.150
 6165POPC   GL138065  33.844  29.959   8.850
 6165POPC   GL238066  33.933  29.881   8.850
 6165POPC   C1A38067  33.781  29.874   8.550
 6165POPC   D2A38068  33.836  29.963   8.250
 6165POPC   C3A38069  33.845  29.909   7.950
 6165POPC   C4A38070  33.817  29.968   7.650
 6165POPC   C1B38071  34.043  29.800   8.550
 6165POPC   C2B38072  34.020  29.827   8.250
 6165POPC   C3B38073  33.970  29.816   7.950
 6165POPC   C4B38074  34.047  29.788   7.650
 6166POPC   NC338075  32.206   6.695   9.450
 6166POPC   PO438076  32.205   6.683   9.150
 6166POPC   GL138077  32.213   6.659   8.850
 6166POPC   GL238078  32.210   6.793   8.850
 6166POPC   C1A38079  32.231   6.687   8.550
 6166POPC   D2A38080  32.272   6.602   8.250
 6166POPC   C3A38081  32.289   6.653   7.950
 6166POPC   C4A38082  32.270   6.654   7.650
 6166POPC   C1B38083  32.229   6.869   8.550
 6166POPC   C2B38084  32.204   6.866   8.250
 6166POPC   C3B38085  32.189   6.934   7.950
 6166POPC   C4B38086  32.265   6.918   7.650
 6167POPC   NC338087   8.982  21.351   9.450
 6167POPC   PO438088   8.963  21.393   9.150
 6167POPC   GL138089   8.979  21.368   8.850
 6167POPC   GL238090   9.037  21.426   8.850
 6167POPC   C1A38091   8.956  21.435   8.550
 6167POPC   D2A38092   9.008  21.358   8.250
 6167POPC   C3A38093   8.961  21.345   7.950
 6167POPC   C4A38094   9.006  21.409   7.650
 6167POPC   C1B38095   9.165  21.506   8.550
 6167POPC   C2B38096   9.168  21.480   8.250
 6167POPC   C3B38097   9.147  21.460   7.950
 6167POPC   C4B38098   9.165  21.467   7.650
 6168POPC   NC338099   0.448  39.264   9.450
 6168POPC   PO438100   0.479  39.245   9.150
 6168POPC   GL138101   0.483  39.220   8.850
 6168POPC   GL238102   0.475  39.363   8.850
 6168POPC   C1A38103   0.446  39.279   8.550
 6168POPC   D2A38104   0.414  39.204   8.250
 6168POPC   C3A38105   0.428  39.213   7.950
 6168POPC   C4A38106   0.425  39.266   7.650
 6168POPC   C1B38107   0.511  39.449   8.550
 6168POPC   C2B38108   0.497  39.452   8.250
 6168POPC   C3B38109   0.488  39.465   7.950
 6168POPC   C4B38110   0.537  39.479   7.650
 6169POPC   NC338111  29.190  25.253   9.450
 6169POPC   PO438112  29.155  25.264   9.150
 6169POPC   GL138113  29.148  25.300   8.850
 6169POPC   GL238114  29.037  25.225   8.850
 6169POPC   C1A38115  29.187  25.235   8.550
 6169POPC   D2A38116  29.122  25.247   8.250
 6169POPC   C3A38117  29.148  25.222   7.950
 6169POPC   C4A38118  29.142  25.272   7.650
 6169POPC   C1B38119  28.892  25.247   8.550
 6169POPC   C2B38120  28.938  25.192   8.250
 6169POPC   C3B38121  28.910  25.284   7.950
 6169POPC   C4B38122  28.874  25.195   7.650
 6170POPC   NC338123   0.428  33.062   9.450
 6170POPC   PO438124   0.451  33.063   9.150
 6170POPC   GL138125   0.443  32.998   8.850
 6170POPC   GL238126   0.576  32.932   8.850
 6170POPC   C1A38127   0.469  33.059   8.550
 6170POPC   D2A38128   0.465  33.005   8.250
 6170POPC   C3A38129   0.447  33.056   7.950
 6170POPC   C4A38130   0.455  33.063   7.650
 6170POPC   C1B38131   0.647  32.938   8.550
 6170POPC   C2B38132   0.682  32.893   8.250
 6170POPC   C3B38133   0.626  32.906   7.950
 6170POPC   C4B38134   0.709  32.900   7.650
 6171POPC   NC338135  20.651  35.313   9.450
 6171POPC   PO438136  20.571  35.360   9.150
 6171POPC   GL138137  20.604  35.312   8.850
 6171POPC   GL238138  20.504  35.411   8.850
 6171POPC   C1A38139  20.634  35.398   8.550
 6171POPC   D2A38140  20.616  35.312   8.250
 6171POPC   C3A38141  20.645  35.334   7.950
 6171POPC   C4A38142  20.647  35.394   7.650
 6171POPC   C1B38143  20.339  35.493   8.550
 6171POPC   C2B38144  20.351  35.489   8.250
 6171POPC   C3B38145  20.340  35.465   7.950
 6171POPC   C4B38146  20.430  35.426   7.650
 6172POPC   NC338147  33.764  12.066   9.450
 6172POPC   PO438148  33.837  12.079   9.150
 6172POPC   GL138149  33.780  12.062   8.850
 6172POPC   GL238150  33.792  12.233   8.850
 6172POPC   C1A38151  33.823  12.055   8.550
 6172POPC   D2A38152  33.799  12.075   8.250
 6172POPC   C3A38153  33.800  12.112   7.950
 6172POPC   C4A38154  33.841  12.069   7.650
 6172POPC   C1B38155  33.754  12.356   8.550
 6172POPC   C2B38156  33.775  12.337   8.250
 6172POPC   C3B38157  33.749  12.301   7.950
 6172POPC   C4B38158  33.800  12.355   7.650
 6173POPC   NC338159  15.200  41.588   9.450
 6173POPC   PO438160  15.194  41.539   9.150
 6173POPC   GL138161  15.174  41.587   8.850
 6173POPC   GL238162  15.321  41.644   8.850
 6173POPC   C1A38163  15.169  41.598   8.550
 6173POPC   D2A38164  15.209  41.571   8.250
 6173POPC   C3A38165  15.190  41.591   7.950
 6173POPC   C4A38166  15.147  41.603   7.650
 6173POPC   C1B38167  15.450  41.654   8.550
 6173POPC   C2B38168  15.438  41.720   8.250
 6173POPC   C3B38169  15.392  41.632   7.950
 6173POPC   C4B38170  15.446  41.628   7.650
 6174POPC   NC338171  36.881   7.457   9.450
 6174POPC   PO438172  36.885   7.381   9.150
 6174POPC   GL138173  36.892   7.433   8.850
 6174POPC   GL238174  36.791   7.378   8.850
 6174POPC   C1A38175  36.940   7.403   8.550
 6174POPC   D2A38176  36.869   7.403   8.250
 6174POPC   C3A38177  36.910   7.413   7.950
 6174POPC   C4A38178  36.888   7.469   7.650
 6174POPC   C1B38179  36.661   7.251   8.550
 6174POPC   C2B38180  36.708   7.309   8.250
 6174POPC   C3B38181  36.728   7.314   7.950
 6174POPC   C4B38182  36.724   7.309   7.650
 6175POPC   NC338183  41.605  17.513   9.450
 6175POPC   PO438184  41.515  17.505   9.150
 6175POPC   GL138185  41.556  17.513   8.850
 6175POPC   GL238186  41.514  17.375   8.850
 6175POPC   C1A38187  41.513  17.549   8.550
 6175POPC   D2A38188  41.531  17.547   8.250
 6175POPC   C3A38189  41.605  17.549   7.950
 6175POPC   C4A38190  41.529  17.519   7.650
 6175POPC   C1B38191  41.565  17.220   8.550
 6175POPC   C2B38192  41.553  17.234   8.250
 6175POPC   C3B38193  41.508  17.298   7.950
 6175POPC   C4B38194  41.469  17.252   7.650
 6176POPC   NC338195  10.496   0.467   9.450
 6176POPC   PO438196  10.536   0.420   9.150
 6176POPC   GL138197  10.527   0.475   8.850
 6176POPC   GL238198  10.406   0.417   8.850
 6176POPC   C1A38199  10.546   0.434   8.550
 6176POPC   D2A38200  10.567   0.430   8.250
 6176POPC   C3A38201  10.505   0.466   7.950
 6176POPC   C4A38202  10.507   0.486   7.650
 6176POPC   C1B38203  10.281   0.493   8.550
 6176POPC   C2B38204  10.304   0.439   8.250
 6176POPC   C3B38205  10.278   0.396   7.950
 6176POPC   C4B38206  10.233   0.428   7.650
 6177POPC   NC338207  27.550  33.070   9.450
 6177POPC   PO438208  27.635  32.975   9.150
 6177POPC   GL138209  27.641  33.047   8.850
 6177POPC   GL238210  27.469  32.981   8.850
 6177POPC   C1A38211  27.574  33.051   8.550
 6177POPC   D2A38212  27.629  33.012   8.250
 6177POPC   C3A38213  27.612  33.034   7.950
 6177POPC   C4A38214  27.578  32.985   7.650
 6177POPC   C1B38215  27.389  32.994   8.550
 6177POPC   C2B38216  27.316  32.982   8.250
 6177POPC   C3B38217  27.390  32.942   7.950
 6177POPC   C4B38218  27.327  32.980   7.650
 6178POPC   NC338219  12.076  29.117   9.450
 6178POPC   PO438220  12.093  29.162   9.150
 6178POPC   GL138221  12.096  29.097   8.850
 6178POPC   GL238222  12.204  29.052   8.850
 6178POPC   C1A38223  12.026  29.111   8.550
 6178POPC   D2A38224  12.087  29.159   8.250
 6178POPC   C3A38225  12.112  29.180   7.950
 6178POPC   C4A38226  12.093  29.181   7.650
 6178POPC   C1B38227  12.299  29.042   8.550
 6178POPC   C2B38228  12.287  28.976   8.250
 6178POPC   C3B38229  12.315  29.047   7.950
 6178POPC   C4B38230  12.281  29.052   7.650
 6179POPC   NC338231  30.684  28.379   9.450
 6179POPC   PO438232  30.654  28.346   9.150
 6179POPC   GL138233  30.656  28.352   8.850
 6179POPC   GL238234  30.682  28.519   8.850
 6179POPC   C1A38235  30.649  28.332   8.550
 6179POPC   D2A38236  30.671  28.368   8.250
 6179POPC   C3A38237  30.685  28.395   7.950
 6179POPC   C4A38238  30.699  28.382   7.650
 6179POPC   C1B38239  30.645  28.655   8.550
 6179POPC   C2B38240  30.587  28.558   8.250
 6179POPC   C3B38241  30.592  28.588   7.950
 6179POPC   C4B38242  30.576  28.562   7.650
 6180POPC   NC338243  25.222  34.599   9.450
 6180POPC   PO438244  25.284  34.552   9.150
 6180POPC   GL138245  25.262  34.592   8.850
 6180POPC   GL238246  25.244  34.650   8.850
 6180POPC   C1A38247  25.305  34.585   8.550
 6180POPC   D2A38248  25.252  34.567   8.250
 6180POPC   C3A38249  25.247  34.613   7.950
 6180POPC   C4A38250  25.283  34.588   7.650
 6180POPC   C1B38251  25.172  34.756   8.550
 6180POPC   C2B38252  25.143  34.834   8.250
 6180POPC   C3B38253  25.153  34.809   7.950
 6180POPC   C4B38254  25.127  34.830   7.650
 6181POPC   NC338255  22.940  35.356   9.450
 6181POPC   PO438256  22.962  35.339   9.150
 6181POPC   GL138257  22.963  35.314   8.850
 6181POPC   GL238258  22.865  35.427   8.850
 6181POPC   C1A38259  22.895  35.383   8.550
 6181POPC   D2A38260  22.963  35.332   8.250
 6181POPC   C3A38261  22.958  35.318   7.950
 6181POPC   C4A38262  22.925  35.319   7.650
 6181POPC   C1B38263  22.762  35.473   8.550
 6181POPC   C2B38264  22.714  35.532   8.250
 6181POPC   C3B38265  22.739  35.522   7.950
 6181POPC   C4B38266  22.710  35.469   7.650
 6182POPC   NC338267   0.436   8.167   9.450
 6182POPC   PO438268   0.439   8.160   9.150
 6182POPC   GL138269   0.422   8.221   8.850
 6182POPC   GL238270   0.538   8.284   8.850
 6182POPC   C1A38271   0.481   8.161   8.550
 6182POPC   D2A38272   0.413   8.211   8.250
 6182POPC   C3A38273   0.444   8.203   7.950
 6182POPC   C4A38274   0.488   8.239   7.650
 6182POPC   C1B38275   0.560   8.437   8.550
 6182POPC   C2B38276   0.636   8.417   8.250
 6182POPC   C3B38277   0.581   8.404   7.950
 6182POPC   C4B38278   0.581   8.394   7.650
 6183POPC   NC338279  28.329  13.627   9.450
 6183POPC   PO438280  28.393  13.668   9.150
 6183POPC   GL138281  28.348  13.645   8.850
 6183POPC   GL238282  28.284  13.679   8.850
 6183POPC   C1A38283  28.364  13.578   8.550
 6183POPC   D2A38284  28.365  13.671   8.250
 6183POPC   C3A38285  28.400  13.593   7.950
 6183POPC   C4A38286  28.370  13.668   7.650
 6183POPC   C1B38287  28.152  13.813   8.550
 6183POPC   C2B38288  28.212  13.732   8.250
 6183POPC   C3B38289  28.144  13.794   7.950
 6183POPC   C4B38290  28.180  13.794   7.650
 6184POPC   NC338291  17.545  27.622   9.450
 6184POPC   PO438292  17.503  27.580   9.150
 6184POPC   GL138293  17.527  27.547   8.850
 6184POPC   GL238294  17.362  27.557   8.850
 6184POPC   C1A38295  17.553  27.610   8.550
 6184POPC   D2A38296  17.528  27.598   8.250
 6184POPC   C3A38297  17.517  27.575   7.950
 6184POPC   C4A38298  17.541  27.585   7.650
 6184POPC   C1B38299  17.300  27.535   8.550
 6184POPC   C2B38300  17.282  27.600   8.250
 6184POPC   C3B38301  17.304  27.620   7.950
 6184POPC   C4B38302  17.223  27.568   7.650
 6185POPC   NC338303  32.284  15.157   9.450
 6185POPC   PO438304  32.260  15.165   9.150
 6185POPC   GL138305  32.296  15.154   8.850
 6185POPC   GL238306  32.371  15.164   8.850
 6185POPC   C1A38307  32.287  15.195   8.550
 6185POPC   D2A38308  32.285  15.221   8.250
 6185POPC   C3A38309  32.295  15.148   7.950
 6185POPC   C4A38310  32.200  15.222   7.650
 6185POPC   C1B38311  32.539  15.223   8.550
 6185POPC   C2B38312  32.511  15.196   8.250
 6185POPC   C3B38313  32.446  15.242   7.950
 6185POPC   C4B38314  32.526  15.248   7.650
 6186POPC   NC338315  16.697  15.143   9.450
 6186POPC   PO438316  16.770  15.135   9.150
 6186POPC   GL138317  16.704  15.210   8.850
 6186POPC   GL238318  16.666  15.295   8.850
 6186POPC   C1A38319  16.779  15.216   8.550
 6186POPC   D2A38320  16.740  15.201   8.250
 6186POPC   C3A38321  16.775  15.196   7.950
 6186POPC   C4A38322  16.762  15.155   7.650
 6186POPC   C1B38323  16.527  15.388   8.550
 6186POPC   C2B38324  16.569  15.322   8.250
 6186POPC   C3B38325  16.521  15.312   7.950
 6186POPC   C4B38326  16.538  15.325   7.650
 6187POPC   NC338327   0.484  33.842   9.450
 6187POPC   PO438328   0.470  33.832   9.150
 6187POPC   GL138329   0.459  33.846   8.850
 6187POPC   GL238330   0.359  33.690   8.850
 6187POPC   C1A38331   0.458  33.796   8.550
 6187POPC   D2A38332   0.473  33.794   8.250
 6187POPC   C3A38333   0.454  33.799   7.950
 6187POPC   C4A38334   0.411  33.795   7.650
 6187POPC   C1B38335   0.210  33.621   8.550
 6187POPC   C2B38336   0.208  33.679   8.250
 6187POPC   C3B38337   0.236  33.679   7.950
 6187POPC   C4B38338   0.250  33.695   7.650
 6188POPC   NC338339  34.577  30.686   9.450
 6188POPC   PO438340  34.550  30.741   9.150
 6188POPC   GL138341  34.564  30.666   8.850
 6188POPC   GL238342  34.616  30.755   8.850
 6188POPC   C1A38343  34.592  30.651   8.550
 6188POPC   D2A38344  34.593  30.671   8.250
 6188POPC   C3A38345  34.547  30.716   7.950
 6188POPC   C4A38346  34.614  30.712   7.650
 6188POPC   C1B38347  34.728  30.917   8.550
 6188POPC   C2B38348  34.699  30.929   8.250
 6188POPC   C3B38349  34.658  30.910   7.950
 6188POPC   C4B38350  34.747  30.872   7.650
 6189POPC   NC338351  39.257  32.223   9.450
 6189POPC   PO438352  39.230  32.296   9.150
 6189POPC   GL138353  39.190  32.262   8.850
 6189POPC   GL238354  39.112  32.330   8.850
 6189POPC   C1A38355  39.274  32.230   8.550
 6189POPC   D2A38356  39.206  32.209   8.250
 6189POPC   C3A38357  39.206  32.292   7.950
 6189POPC   C4A38358  39.233  32.286   7.650
 6189POPC   C1B38359  39.015  32.398   8.550
 6189POPC   C2B38360  39.060  32.391   8.250
 6189POPC   C3B38361  39.089  32.469   7.950
 6189POPC   C4B38362  39.099  32.407   7.650
 6190POPC   NC338363  12.106   6.670   9.450
 6190POPC   PO438364  12.054   6.678   9.150
 6190POPC   GL138365  12.112   6.619   8.850
 6190POPC   GL238366  12.075   6.723   8.850
 6190POPC   C1A38367  12.102   6.674   8.550
 6190POPC   D2A38368  12.031   6.605   8.250
 6190POPC   C3A38369  12.106   6.622   7.950
 6190POPC   C4A38370  12.091   6.602   7.650
 6190POPC   C1B38371  12.200   6.844   8.550
 6190POPC   C2B38372  12.200   6.907   8.250
 6190POPC   C3B38373  12.189   6.857   7.950
 6190POPC   C4B38374  12.200   6.929   7.650
 6191POPC   NC338375  22.178   9.791   9.450
 6191POPC   PO438376  22.206   9.732   9.150
 6191POPC   GL138377  22.187   9.715   8.850
 6191POPC   GL238378  22.043   9.764   8.850
 6191POPC   C1A38379  22.198   9.789   8.550
 6191POPC   D2A38380  22.196   9.764   8.250
 6191POPC   C3A38381  22.189   9.774   7.950
 6191POPC   C4A38382  22.151   9.783   7.650
 6191POPC   C1B38383  21.893   9.850   8.550
 6191POPC   C2B38384  21.976   9.893   8.250
 6191POPC   C3B38385  21.910   9.915   7.950
 6191POPC   C4B38386  21.960   9.833   7.650
 6192POPC   NC338387  36.105  17.515   9.450
 6192POPC   PO438388  36.161  17.460   9.150
 6192POPC   GL138389  36.145  17.551   8.850
 6192POPC   GL238390  36.055  17.548   8.850
 6192POPC   C1A38391  36.114  17.527   8.550
 6192POPC   D2A38392  36.078  17.557   8.250
 6192POPC   C3A38393  36.154  17.540   7.950
 6192POPC   C4A38394  36.093  17.496   7.650
 6192POPC   C1B38395  35.969  17.675   8.550
 6192POPC   C2B38396  35.910  17.718   8.250
 6192POPC   C3B38397  35.907  17.715   7.950
 6192POPC   C4B38398  35.974  17.718   7.650
 6193POPC   NC338399  43.158   7.435   9.450
 6193POPC   PO438400  43.123   7.403   9.150
 6193POPC   GL138401  43.120   7.460   8.850
 6193POPC   GL238402  43.059   7.574   8.850
 6193POPC   C1A38403  43.151   7.385   8.550
 6193POPC   D2A38404  43.127   7.375   8.250
 6193POPC   C3A38405  43.157   7.411   7.950
 6193POPC   C4A38406  43.070   7.449   7.650
 6193POPC   C1B38407  43.045   7.693   8.550
 6193POPC   C2B38408  43.092   7.709   8.250
 6193POPC   C3B38409  43.068   7.718   7.950
 6193POPC   C4B38410  43.063   7.670   7.650
 6194POPC   NC338411   0.478  37.709   9.450
 6194POPC   PO438412   0.452  37.646   9.150
 6194POPC   GL138413   0.439  37.633   8.850
 6194POPC   GL238414   0.570  37.670   8.850
 6194POPC   C1A38415   0.409  37.706   8.550
 6194POPC   D2A38416   0.427  37.632   8.250
 6194POPC   C3A38417   0.433  37.662   7.950
 6194POPC   C4A38418   0.391  37.681   7.650
 6194POPC   C1B38419   0.664  37.541   8.550
 6194POPC   C2B38420   0.647  37.545   8.250
 6194POPC   C3B38421   0.625  37.547   7.950
 6194POPC   C4B38422   0.624  37.594   7.650
 6195POPC   NC338423  33.849  17.519   9.450
 6195POPC   PO438424  33.776  17.512   9.150
 6195POPC   GL138425  33.777  17.531   8.850
 6195POPC   GL238426  33.685  17.371   8.850
 6195POPC   C1A38427  33.827  17.512   8.550
 6195POPC   D2A38428  33.811  17.495   8.250
 6195POPC   C3A38429  33.798  17.535   7.950
 6195POPC   C4A38430  33.812  17.492   7.650
 6195POPC   C1B38431  33.710  17.313   8.550
 6195POPC   C2B38432  33.654  17.297   8.250
 6195POPC   C3B38433  33.670  17.288   7.950
 6195POPC   C4B38434  33.698  17.329   7.650
 6196POPC   NC338435  33.042  33.757   9.450
 6196POPC   PO438436  33.071  33.791   9.150
 6196POPC   GL138437  33.035  33.803   8.850
 6196POPC   GL238438  32.866  33.773   8.850
 6196POPC   C1A38439  33.063  33.785   8.550
 6196POPC   D2A38440  33.051  33.808   8.250
 6196POPC   C3A38441  32.991  33.760   7.950
 6196POPC   C4A38442  32.999  33.785   7.650
 6196POPC   C1B38443  32.786  33.777   8.550
 6196POPC   C2B38444  32.806  33.801   8.250
 6196POPC   C3B38445  32.742  33.776   7.950
 6196POPC   C4B38446  32.798  33.852   7.650
 6197POPC   NC338447  30.729  22.138   9.450
 6197POPC   PO438448  30.656  22.192   9.150
 6197POPC   GL138449  30.698  22.159   8.850
 6197POPC   GL238450  30.672  22.042   8.850
 6197POPC   C1A38451  30.676  22.112   8.550
 6197POPC   D2A38452  30.681  22.193   8.250
 6197POPC   C3A38453  30.697  22.162   7.950
 6197POPC   C4A38454  30.687  22.155   7.650
 6197POPC   C1B38455  30.687  21.914   8.550
 6197POPC   C2B38456  30.733  21.925   8.250
 6197POPC   C3B38457  30.744  21.951   7.950
 6197POPC   C4B38458  30.745  21.951   7.650
 6198POPC   NC338459  42.294  42.344   9.450
 6198POPC   PO438460  42.306  42.308   9.150
 6198POPC   GL138461  42.332  42.297   8.850
 6198POPC   GL238462  42.210  42.337   8.850
 6198POPC   C1A38463  42.343  42.298   8.550
 6198POPC   D2A38464  42.310  42.312   8.250
 6198POPC   C3A38465  42.307  42.316   7.950
 6198POPC   C4A38466  42.314  42.369   7.650
 6198POPC   C1B38467  42.126  42.289   8.550
 6198POPC   C2B38468  42.108  42.242   8.250
 6198POPC   C3B38469  42.092  42.260   7.950
 6198POPC   C4B38470  42.093  42.236   7.650
 6199POPC   NC338471  43.930   3.566   9.450
 6199POPC   PO438472  43.873   3.536   9.150
 6199POPC   GL138473  43.930   3.541   8.850
 6199POPC   GL238474  43.897   3.628   8.850
 6199POPC   C1A38475  43.868   3.584   8.550
 6199POPC   D2A38476  43.873   3.551   8.250
 6199POPC   C3A38477  43.878   3.573   7.950
 6199POPC   C4A38478  43.863   3.591   7.650
 6199POPC   C1B38479  43.993   3.803   8.550
 6199POPC   C2B38480  43.984   3.762   8.250
 6199POPC   C3B38481  43.992   3.797   7.950
 6199POPC   C4B38482  43.994   3.780   7.650
 6200POPC   NC338483  35.354  34.571   9.450
 6200POPC   PO438484  35.394  34.574   9.150
 6200POPC   GL138485  35.356  34.546   8.850
 6200POPC   GL238486  35.251  34.555   8.850
 6200POPC   C1A38487  35.321  34.607   8.550
 6200POPC   D2A38488  35.331  34.539   8.250
 6200POPC   C3A38489  35.348  34.607   7.950
 6200POPC   C4A38490  35.366  34.611   7.650
 6200POPC   C1B38491  35.122  34.465   8.550
 6200POPC   C2B38492  35.147  34.524   8.250
 6200POPC   C3B38493  35.138  34.479   7.950
 6200POPC   C4B38494  35.118  34.500   7.650
 6201POPC   NC338495  30.721  33.049   9.450
 6201POPC   PO438496  30.716  33.066   9.150
 6201POPC   GL138497  30.726  33.032   8.850
 6201POPC   GL238498  30.749  33.067   8.850
 6201POPC   C1A38499  30.717  33.004   8.550
 6201POPC   D2A38500  30.685  33.038   8.250
 6201POPC   C3A38501  30.653  32.986   7.950
 6201POPC   C4A38502  30.687  33.026   7.650
 6201POPC   C1B38503  30.869  33.178   8.550
 6201POPC   C2B38504  30.884  33.139   8.250
 6201POPC   C3B38505  30.900  33.198   7.950
 6201POPC   C4B38506  30.914  33.138   7.650
 6202POPC   NC338507  32.248  33.020   9.450
 6202POPC   PO438508  32.284  33.027   9.150
 6202POPC   GL138509  32.200  33.028   8.850
 6202POPC   GL238510  32.315  33.059   8.850
 6202POPC   C1A38511  32.294  32.994   8.550
 6202POPC   D2A38512  32.282  33.008   8.250
 6202POPC   C3A38513  32.203  33.068   7.950
 6202POPC   C4A38514  32.281  33.031   7.650
 6202POPC   C1B38515  32.446  33.235   8.550
 6202POPC   C2B38516  32.392  33.240   8.250
 6202POPC   C3B38517  32.390  33.193   7.950
 6202POPC   C4B38518  32.430  33.155   7.650
 6203POPC   NC338519   9.743   1.166   9.450
 6203POPC   PO438520   9.783   1.228   9.150
 6203POPC   GL138521   9.741   1.218   8.850
 6203POPC   GL238522   9.740   1.342   8.850
 6203POPC   C1A38523   9.769   1.224   8.550
 6203POPC   D2A38524   9.748   1.212   8.250
 6203POPC   C3A38525   9.711   1.179   7.950
 6203POPC   C4A38526   9.747   1.208   7.650
 6203POPC   C1B38527   9.714   1.496   8.550
 6203POPC   C2B38528   9.708   1.470   8.250
 6203POPC   C3B38529   9.774   1.487   7.950
 6203POPC   C4B38530   9.706   1.420   7.650
 6204POPC   NC338531  22.173  10.524   9.450
 6204POPC   PO438532  22.157  10.487   9.150
 6204POPC   GL138533  22.126  10.486   8.850
 6204POPC   GL238534  22.036  10.598   8.850
 6204POPC   C1A38535  22.169  10.499   8.550
 6204POPC   D2A38536  22.116  10.475   8.250
 6204POPC   C3A38537  22.211  10.552   7.950
 6204POPC   C4A38538  22.177  10.479   7.650
 6204POPC   C1B38539  22.049  10.692   8.550
 6204POPC   C2B38540  22.031  10.706   8.250
 6204POPC   C3B38541  22.029  10.718   7.950
 6204POPC   C4B38542  21.975  10.690   7.650
 6205POPC   NC338543   6.649  41.568   9.450
 6205POPC   PO438544   6.635  41.561   9.150
 6205POPC   GL138545   6.619  41.533   8.850
 6205POPC   GL238546   6.577  41.472   8.850
 6205POPC   C1A38547   6.605  41.531   8.550
 6205POPC   D2A38548   6.607  41.595   8.250
 6205POPC   C3A38549   6.611  41.602   7.950
 6205POPC   C4A38550   6.681  41.555   7.650
 6205POPC   C1B38551   6.402  41.396   8.550
 6205POPC   C2B38552   6.410  41.404   8.250
 6205POPC   C3B38553   6.468  41.464   7.950
 6205POPC   C4B38554   6.432  41.405   7.650
 6206POPC   NC338555  22.182  23.736   9.450
 6206POPC   PO438556  22.190  23.701   9.150
 6206POPC   GL138557  22.145  23.669   8.850
 6206POPC   GL238558  22.215  23.780   8.850
 6206POPC   C1A38559  22.113  23.761   8.550
 6206POPC   D2A38560  22.166  23.690   8.250
 6206POPC   C3A38561  22.164  23.761   7.950
 6206POPC   C4A38562  22.176  23.712   7.650
 6206POPC   C1B38563  22.367  23.930   8.550
 6206POPC   C2B38564  22.319  23.892   8.250
 6206POPC   C3B38565  22.313  23.881   7.950
 6206POPC   C4B38566  22.372  23.854   7.650
 6207POPC   NC338567  29.875  32.259   9.450
 6207POPC   PO438568  29.922  32.294   9.150
 6207POPC   GL138569  29.970  32.242   8.850
 6207POPC   GL238570  29.801  32.203   8.850
 6207POPC   C1A38571  29.903  32.278   8.550
 6207POPC   D2A38572  29.915  32.226   8.250
 6207POPC   C3A38573  29.929  32.228   7.950
 6207POPC   C4A38574  29.915  32.235   7.650
 6207POPC   C1B38575  29.706  32.093   8.550
 6207POPC   C2B38576  29.773  32.076   8.250
 6207POPC   C3B38577  29.764  32.112   7.950
 6207POPC   C4B38578  29.787  32.028   7.650
 6208POPC   NC338579  36.903  24.520   9.450
 6208POPC   PO438580  36.854  24.462   9.150
 6208POPC   GL138581  36.879  24.490   8.850
 6208POPC   GL238582  36.877  24.617   8.850
 6208POPC   C1A38583  36.926  24.456   8.550
 6208POPC   D2A38584  36.949  24.530   8.250
 6208POPC   C3A38585  36.951  24.446   7.950
 6208POPC   C4A38586  36.910  24.487   7.650
 6208POPC   C1B38587  36.836  24.758   8.550
 6208POPC   C2B38588  36.914  24.692   8.250
 6208POPC   C3B38589  36.873  24.749   7.950
 6208POPC   C4B38590  36.826  24.746   7.650
 6209POPC   NC338591  33.022   0.463   9.450
 6209POPC   PO438592  33.063   0.426   9.150
 6209POPC   GL138593  33.046   0.426   8.850
 6209POPC   GL238594  32.862   0.427   8.850
 6209POPC   C1A38595  33.061   0.398   8.550
 6209POPC   D2A38596  32.991   0.486   8.250
 6209POPC   C3A38597  33.008   0.413   7.950
 6209POPC   C4A38598  33.008   0.443   7.650
 6209POPC   C1B38599  32.794   0.377   8.550
 6209POPC   C2B38600  32.786   0.422   8.250
 6209POPC   C3B38601  32.750   0.380   7.950
 6209POPC   C4B38602  32.815   0.367   7.650
 6210POPC   NC338603  19.016  27.581   9.450
 6210POPC   PO438604  19.095  27.631   9.150
 6210POPC   GL138605  19.101  27.616   8.850
 6210POPC   GL238606  18.967  27.692   8.850
 6210POPC   C1A38607  19.048  27.544   8.550
 6210POPC   D2A38608  19.086  27.592   8.250
 6210POPC   C3A38609  19.068  27.619   7.950
 6210POPC   C4A38610  19.104  27.637   7.650
 6210POPC   C1B38611  18.935  27.821   8.550
 6210POPC   C2B38612  18.901  27.792   8.250
 6210POPC   C3B38613  18.920  27.825   7.950
 6210POPC   C4B38614  18.900  27.795   7.650
 6211POPC   NC338615  38.471   7.439   9.450
 6211POPC   PO438616  38.462   7.392   9.150
 6211POPC   GL138617  38.417   7.460   8.850
 6211POPC   GL238618  38.375   7.401   8.850
 6211POPC   C1A38619  38.442   7.413   8.550
 6211POPC   D2A38620  38.412   7.398   8.250
 6211POPC   C3A38621  38.488   7.380   7.950
 6211POPC   C4A38622  38.444   7.389   7.650
 6211POPC   C1B38623  38.208   7.351   8.550
 6211POPC   C2B38624  38.236   7.388   8.250
 6211POPC   C3B38625  38.247   7.352   7.950
 6211POPC   C4B38626  38.205   7.397   7.650
 6212POPC   NC338627  24.461  43.924   9.450
 6212POPC   PO438628  24.454  43.836   9.150
 6212POPC   GL138629  24.480  43.852   8.850
 6212POPC   GL238630  24.406  43.857   8.850
 6212POPC   C1A38631  24.493  43.904   8.550
 6212POPC   D2A38632  24.453  43.928   8.250
 6212POPC   C3A38633  24.479  43.884   7.950
 6212POPC   C4A38634  24.498  43.840   7.650
 6212POPC   C1B38635  24.315  43.805   8.550
 6212POPC   C2B38636  24.276  43.760   8.250
 6212POPC   C3B38637  24.265  43.785   7.950
 6212POPC   C4B38638  24.256  43.754   7.650
 6213POPC   NC338639  17.525  15.928   9.450
 6213POPC   PO438640  17.471  15.964   9.150
 6213POPC   GL138641  17.498  15.917   8.850
 6213POPC   GL238642  17.582  16.079   8.850
 6213POPC   C1A38643  17.544  15.982   8.550
 6213POPC   D2A38644  17.471  15.977   8.250
 6213POPC   C3A38645  17.470  15.939   7.950
 6213POPC   C4A38646  17.469  15.956   7.650
 6213POPC   C1B38647  17.632  16.175   8.550
 6213POPC   C2B38648  17.625  16.114   8.250
 6213POPC   C3B38649  17.652  16.157   7.950
 6213POPC   C4B38650  17.606  16.177   7.650
 6214POPC   NC338651  16.767  38.460   9.450
 6214POPC   PO438652  16.699  38.437   9.150
 6214POPC   GL138653  16.687  38.451   8.850
 6214POPC   GL238654  16.809  38.409   8.850
 6214POPC   C1A38655  16.699  38.454   8.550
 6214POPC   D2A38656  16.727  38.495   8.250
 6214POPC   C3A38657  16.769  38.437   7.950
 6214POPC   C4A38658  16.727  38.476   7.650
 6214POPC   C1B38659  16.926  38.399   8.550
 6214POPC   C2B38660  16.991  38.399   8.250
 6214POPC   C3B38661  16.999  38.369   7.950
 6214POPC   C4B38662  16.971  38.341   7.650
 6215POPC   NC338663  12.069   8.960   9.450
 6215POPC   PO438664  12.107   8.957   9.150
 6215POPC   GL138665  12.080   8.969   8.850
 6215POPC   GL238666  12.158   8.889   8.850
 6215POPC   C1A38667  12.042   8.975   8.550
 6215POPC   D2A38668  12.121   8.942   8.250
 6215POPC   C3A38669  12.058   8.939   7.950
 6215POPC   C4A38670  12.080   8.964   7.650
 6215POPC   C1B38671  12.143   8.783   8.550
 6215POPC   C2B38672  12.144   8.720   8.250
 6215POPC   C3B38673  12.134   8.789   7.950
 6215POPC   C4B38674  12.177   8.723   7.650
 6216POPC   NC338675   9.715  21.369   9.450
 6216POPC   PO438676   9.793  21.433   9.150
 6216POPC   GL138677   9.710  21.417   8.850
 6216POPC   GL238678   9.836  21.358   8.850
 6216POPC   C1A38679   9.783  21.340   8.550
 6216POPC   D2A38680   9.722  21.341   8.250
 6216POPC   C3A38681   9.743  21.397   7.950
 6216POPC   C4A38682   9.713  21.406   7.650
 6216POPC   C1B38683  10.003  21.361   8.550
 6216POPC   C2B38684  10.005  21.326   8.250
 6216POPC   C3B38685  10.039  21.310   7.950
 6216POPC   C4B38686   9.963  21.381   7.650
 6217POPC   NC338687  17.528  40.750   9.450
 6217POPC   PO438688  17.486  40.777   9.150
 6217POPC   GL138689  17.507  40.735   8.850
 6217POPC   GL238690  17.424  40.873   8.850
 6217POPC   C1A38691  17.494  40.829   8.550
 6217POPC   D2A38692  17.535  40.803   8.250
 6217POPC   C3A38693  17.476  40.741   7.950
 6217POPC   C4A38694  17.496  40.768   7.650
 6217POPC   C1B38695  17.329  41.013   8.550
 6217POPC   C2B38696  17.346  40.940   8.250
 6217POPC   C3B38697  17.332  40.995   7.950
 6217POPC   C4B38698  17.371  40.917   7.650
 6218POPC   NC338699   4.342  39.199   9.450
 6218POPC   PO438700   4.362  39.258   9.150
 6218POPC   GL138701   4.345  39.212   8.850
 6218POPC   GL238702   4.378  39.155   8.850
 6218POPC   C1A38703   4.340  39.268   8.550
 6218POPC   D2A38704   4.329  39.241   8.250
 6218POPC   C3A38705   4.363  39.235   7.950
 6218POPC   C4A38706   4.274  39.235   7.650
 6218POPC   C1B38707   4.368  39.016   8.550
 6218POPC   C2B38708   4.373  39.029   8.250
 6218POPC   C3B38709   4.356  38.970   7.950
 6218POPC   C4B38710   4.348  39.012   7.650
 6219POPC   NC338711  29.171  19.824   9.450
 6219POPC   PO438712  29.120  19.856   9.150
 6219POPC   GL138713  29.157  19.831   8.850
 6219POPC   GL238714  29.221  19.760   8.850
 6219POPC   C1A38715  29.159  19.821   8.550
 6219POPC   D2A38716  29.151  19.805   8.250
 6219POPC   C3A38717  29.107  19.859   7.950
 6219POPC   C4A38718  29.157  19.812   7.650
 6219POPC   C1B38719  29.291  19.619   8.550
 6219POPC   C2B38720  29.255  19.656   8.250
 6219POPC   C3B38721  29.252  19.603   7.950
 6219POPC   C4B38722  29.324  19.659   7.650
 6220POPC   NC338723   5.133  33.061   9.450
 6220POPC   PO438724   5.070  32.997   9.150
 6220POPC   GL138725   5.056  33.013   8.850
 6220POPC   GL238726   4.976  33.064   8.850
 6220POPC   C1A38727   5.113  33.066   8.550
 6220POPC   D2A38728   5.088  33.029   8.250
 6220POPC   C3A38729   5.062  33.056   7.950
 6220POPC   C4A38730   5.125  33.023   7.650
 6220POPC   C1B38731   4.842  33.052   8.550
 6220POPC   C2B38732   4.891  33.068   8.250
 6220POPC   C3B38733   4.853  33.064   7.950
 6220POPC   C4B38734   4.820  33.082   7.650
 6221POPC   NC338735   2.005  11.305   9.450
 6221POPC   PO438736   2.009  11.326   9.150
 6221POPC   GL138737   1.990  11.259   8.850
 6221POPC   GL238738   2.088  11.280   8.850
 6221POPC   C1A38739   2.007  11.326   8.550
 6221POPC   D2A38740   2.034  11.253   8.250
 6221POPC   C3A38741   2.018  11.333   7.950
 6221POPC   C4A38742   1.959  11.333   7.650
 6221POPC   C1B38743   2.262  11.252   8.550
 6221POPC   C2B38744   2.287  11.326   8.250
 6221POPC   C3B38745   2.248  11.292   7.950
 6221POPC   C4B38746   2.247  11.315   7.650
 6222POPC   NC338747  43.874  12.123   9.450
 6222POPC   PO438748  43.918  12.085   9.150
 6222POPC   GL138749  43.894  12.058   8.850
 6222POPC   GL238750  43.966  12.190   8.850
 6222POPC   C1A38751  43.841  12.082   8.550
 6222POPC   D2A38752  43.876  12.114   8.250
 6222POPC   C3A38753  43.896  12.027   7.950
 6222POPC   C4A38754  43.839  12.048   7.650
 6222POPC   C1B38755  44.114  12.196   8.550
 6222POPC   C2B38756  44.077  12.181   8.250
 6222POPC   C3B38757  44.138  12.183   7.950
 6222POPC   C4B38758  44.128  12.178   7.650
 6223POPC   NC338759  15.970  39.268   9.450
 6223POPC   PO438760  15.987  39.213   9.150
 6223POPC   GL138761  15.912  39.278   8.850
 6223POPC   GL238762  15.948  39.102   8.850
 6223POPC   C1A38763  15.982  39.269   8.550
 6223POPC   D2A38764  15.985  39.254   8.250
 6223POPC   C3A38765  15.949  39.188   7.950
 6223POPC   C4A38766  16.001  39.273   7.650
 6223POPC   C1B38767  15.910  38.967   8.550
 6223POPC   C2B38768  15.850  38.983   8.250
 6223POPC   C3B38769  15.841  38.952   7.950
 6223POPC   C4B38770  15.829  39.016   7.650
 6224POPC   NC338771   7.436  36.127   9.450
 6224POPC   PO438772   7.381  36.120   9.150
 6224POPC   GL138773   7.380  36.151   8.850
 6224POPC   GL238774   7.540  36.082   8.850
 6224POPC   C1A38775   7.444  36.107   8.550
 6224POPC   D2A38776   7.408  36.114   8.250
 6224POPC   C3A38777   7.401  36.094   7.950
 6224POPC   C4A38778   7.378  36.107   7.650
 6224POPC   C1B38779   7.606  35.997   8.550
 6224POPC   C2B38780   7.635  36.013   8.250
 6224POPC   C3B38781   7.590  35.968   7.950
 6224POPC   C4B38782   7.598  36.018   7.650
 6225POPC   NC338783  34.568  31.521   9.450
 6225POPC   PO438784  34.532  31.508   9.150
 6225POPC   GL138785  34.601  31.518   8.850
 6225POPC   GL238786  34.431  31.445   8.850
 6225POPC   C1A38787  34.577  31.489   8.550
 6225POPC   D2A38788  34.562  31.521   8.250
 6225POPC   C3A38789  34.576  31.496   7.950
 6225POPC   C4A38790  34.537  31.463   7.650
 6225POPC   C1B38791  34.375  31.304   8.550
 6225POPC   C2B38792  34.382  31.321   8.250
 6225POPC   C3B38793  34.334  31.312   7.950
 6225POPC   C4B38794  34.372  31.319   7.650
 6226POPC   NC338795  22.113  36.113   9.450
 6226POPC   PO438796  22.147  36.176   9.150
 6226POPC   GL138797  22.191  36.090   8.850
 6226POPC   GL238798  22.179  36.018   8.850
 6226POPC   C1A38799  22.117  36.159   8.550
 6226POPC   D2A38800  22.159  36.121   8.250
 6226POPC   C3A38801  22.132  36.138   7.950
 6226POPC   C4A38802  22.162  36.163   7.650
 6226POPC   C1B38803  22.280  35.959   8.550
 6226POPC   C2B38804  22.264  35.936   8.250
 6226POPC   C3B38805  22.320  35.882   7.950
 6226POPC   C4B38806  22.266  35.929   7.650
 6227POPC   NC338807  15.945  15.143   9.450
 6227POPC   PO438808  15.909  15.149   9.150
 6227POPC   GL138809  15.915  15.178   8.850
 6227POPC   GL238810  15.877  15.035   8.850
 6227POPC   C1A38811  15.995  15.217   8.550
 6227POPC   D2A38812  15.940  15.190   8.250
 6227POPC   C3A38813  15.987  15.151   7.950
 6227POPC   C4A38814  15.992  15.200   7.650
 6227POPC   C1B38815  15.845  14.889   8.550
 6227POPC   C2B38816  15.910  14.904   8.250
 6227POPC   C3B38817  15.912  14.915   7.950
 6227POPC   C4B38818  15.906  14.929   7.650
 6228POPC   NC338819   4.286   6.601   9.450
 6228POPC   PO438820   4.274   6.674   9.150
 6228POPC   GL138821   4.282   6.600   8.850
 6228POPC   GL238822   4.291   6.794   8.850
 6228POPC   C1A38823   4.327   6.599   8.550
 6228POPC   D2A38824   4.300   6.601   8.250
 6228POPC   C3A38825   4.347   6.628   7.950
 6228POPC   C4A38826   4.269   6.600   7.650
 6228POPC   C1B38827   4.401   6.859   8.550
 6228POPC   C2B38828   4.338   6.916   8.250
 6228POPC   C3B38829   4.338   6.844   7.950
 6228POPC   C4B38830   4.370   6.925   7.650
 6229POPC   NC338831  26.792  13.646   9.450
 6229POPC   PO438832  26.782  13.664   9.150
 6229POPC   GL138833  26.768  13.590   8.850
 6229POPC   GL238834  26.987  13.664   8.850
 6229POPC   C1A38835  26.850  13.609   8.550
 6229POPC   D2A38836  26.834  13.636   8.250
 6229POPC   C3A38837  26.855  13.579   7.950
 6229POPC   C4A38838  26.777  13.589   7.650
 6229POPC   C1B38839  27.102  13.669   8.550
 6229POPC   C2B38840  27.044  13.637   8.250
 6229POPC   C3B38841  27.040  13.685   7.950
 6229POPC   C4B38842  27.084  13.679   7.650
 6230POPC   NC338843  43.885  22.963   9.450
 6230POPC   PO438844  43.856  22.928   9.150
 6230POPC   GL138845  43.891  22.903   8.850
 6230POPC   GL238846  43.867  23.039   8.850
 6230POPC   C1A38847  43.851  22.922   8.550
 6230POPC   D2A38848  43.840  22.939   8.250
 6230POPC   C3A38849  43.882  22.982   7.950
 6230POPC   C4A38850  43.877  22.962   7.650
 6230POPC   C1B38851  43.874  23.225   8.550
 6230POPC   C2B38852  43.849  23.170   8.250
 6230POPC   C3B38853  43.898  23.199   7.950
 6230POPC   C4B38854  43.935  23.166   7.650
 6231POPC   NC338855   3.536   9.725   9.450
 6231POPC   PO438856   3.518   9.710   9.150
 6231POPC   GL138857   3.512   9.723   8.850
 6231POPC   GL238858   3.491   9.858   8.850
 6231POPC   C1A38859   3.527   9.700   8.550
 6231POPC   D2A38860   3.522   9.753   8.250
 6231POPC   C3A38861   3.579   9.701   7.950
 6231POPC   C4A38862   3.559   9.771   7.650
 6231POPC   C1B38863   3.484   9.954   8.550
 6231POPC   C2B38864   3.512  10.034   8.250
 6231POPC   C3B38865   3.445   9.970   7.950
 6231POPC   C4B38866   3.475  10.006   7.650
 6232POPC   NC338867   0.390  44.704   9.450
 6232POPC   PO438868   0.420  44.636   9.150
 6232POPC   GL138869   0.419  44.653   8.850
 6232POPC   GL238870   0.545  44.575   8.850
 6232POPC   C1A38871   0.437  44.668   8.550
 6232POPC   D2A38872   0.465  44.628   8.250
 6232POPC   C3A38873   0.484  44.667   7.950
 6232POPC   C4A38874   0.479  44.673   7.650
 6232POPC   C1B38875   0.646  44.563   8.550
 6232POPC   C2B38876   0.669  44.526   8.250
 6232POPC   C3B38877   0.651  44.529   7.950
 6232POPC   C4B38878   0.591  44.498   7.650
 6233POPC   NC338879  22.203  42.286   9.450
 6233POPC   PO438880  22.197  42.296   9.150
 6233POPC   GL138881  22.163  42.357   8.850
 6233POPC   GL238882  22.269  42.491   8.850
 6233POPC   C1A38883  22.185  42.346   8.550
 6233POPC   D2A38884  22.116  42.369   8.250
 6233POPC   C3A38885  22.185  42.289   7.950
 6233POPC   C4A38886  22.204  42.330   7.650
 6233POPC   C1B38887  22.270  42.550   8.550
 6233POPC   C2B38888  22.267  42.597   8.250
 6233POPC   C3B38889  22.306  42.573   7.950
 6233POPC   C4B38890  22.270  42.528   7.650
 6234POPC   NC338891   9.779  27.604   9.450
 6234POPC   PO438892   9.751  27.555   9.150
 6234POPC   GL138893   9.719  27.619   8.850
 6234POPC   GL238894   9.781  27.523   8.850
 6234POPC   C1A38895   9.780  27.554   8.550
 6234POPC   D2A38896   9.721  27.612   8.250
 6234POPC   C3A38897   9.706  27.617   7.950
 6234POPC   C4A38898   9.771  27.564   7.650
 6234POPC   C1B38899   9.936  27.419   8.550
 6234POPC   C2B38900   9.871  27.443   8.250
 6234POPC   C3B38901   9.894  27.401   7.950
 6234POPC   C4B38902   9.864  27.385   7.650
 6235POPC   NC338903  27.566  15.187   9.450
 6235POPC   PO438904  27.605  15.211   9.150
 6235POPC   GL138905  27.576  15.136   8.850
 6235POPC   GL238906  27.726  15.228   8.850
 6235POPC   C1A38907  27.631  15.210   8.550
 6235POPC   D2A38908  27.642  15.211   8.250
 6235POPC   C3A38909  27.641  15.223   7.950
 6235POPC   C4A38910  27.614  15.200   7.650
 6235POPC   C1B38911  27.746  15.329   8.550
 6235POPC   C2B38912  27.775  15.349   8.250
 6235POPC   C3B38913  27.797  15.387   7.950
 6235POPC   C4B38914  27.810  15.385   7.650
 6236POPC   NC338915  17.546  12.822   9.450
 6236POPC   PO438916  17.461  12.811   9.150
 6236POPC   GL138917  17.543  12.822   8.850
 6236POPC   GL238918  17.410  12.846   8.850
 6236POPC   C1A38919  17.477  12.901   8.550
 6236POPC   D2A38920  17.463  12.896   8.250
 6236POPC   C3A38921  17.498  12.880   7.950
 6236POPC   C4A38922  17.472  12.840   7.650
 6236POPC   C1B38923  17.306  12.885   8.550
 6236POPC   C2B38924  17.268  12.941   8.250
 6236POPC   C3B38925  17.270  12.962   7.950
 6236POPC   C4B38926  17.255  12.879   7.650
 6237POPC   NC338927  12.054  36.166   9.450
 6237POPC   PO438928  12.071  36.133   9.150
 6237POPC   GL138929  12.075  36.088   8.850
 6237POPC   GL238930  12.215  36.083   8.850
 6237POPC   C1A38931  12.114  36.108   8.550
 6237POPC   D2A38932  12.121  36.152   8.250
 6237POPC   C3A38933  12.118  36.175   7.950
 6237POPC   C4A38934  12.097  36.144   7.650
 6237POPC   C1B38935  12.313  36.114   8.550
 6237POPC   C2B38936  12.345  36.069   8.250
 6237POPC   C3B38937  12.281  36.064   7.950
 6237POPC   C4B38938  12.369  36.114   7.650
 6238POPC   NC338939  29.939  15.201   9.450
 6238POPC   PO438940  29.905  15.157   9.150
 6238POPC   GL138941  29.966  15.186   8.850
 6238POPC   GL238942  29.767  15.203   8.850
 6238POPC   C1A38943  29.887  15.224   8.550
 6238POPC   D2A38944  29.910  15.194   8.250
 6238POPC   C3A38945  29.968  15.160   7.950
 6238POPC   C4A38946  29.915  15.193   7.650
 6238POPC   C1B38947  29.740  15.308   8.550
 6238POPC   C2B38948  29.674  15.290   8.250
 6238POPC   C3B38949  29.723  15.266   7.950
 6238POPC   C4B38950  29.716  15.301   7.650
 6239POPC   NC338951  28.357  22.169   9.450
 6239POPC   PO438952  28.363  22.185   9.150
 6239POPC   GL138953  28.333  22.135   8.850
 6239POPC   GL238954  28.261  22.159   8.850
 6239POPC   C1A38955  28.405  22.168   8.550
 6239POPC   D2A38956  28.335  22.136   8.250
 6239POPC   C3A38957  28.355  22.120   7.950
 6239POPC   C4A38958  28.333  22.204   7.650
 6239POPC   C1B38959  28.130  22.216   8.550
 6239POPC   C2B38960  28.148  22.241   8.250
 6239POPC   C3B38961  28.130  22.189   7.950
 6239POPC   C4B38962  28.089  22.262   7.650
 6240POPC   NC338963  18.252  42.329   9.450
 6240POPC   PO438964  18.246  42.358   9.150
 6240POPC   GL138965  18.283  42.357   8.850
 6240POPC   GL238966  18.299  42.169   8.850
 6240POPC   C1A38967  18.241  42.359   8.550
 6240POPC   D2A38968  18.296  42.347   8.250
 6240POPC   C3A38969  18.241  42.324   7.950
 6240POPC   C4A38970  18.250  42.351   7.650
 6240POPC   C1B38971  18.296  42.130   8.550
 6240POPC   C2B38972  18.322  42.125   8.250
 6240POPC   C3B38973  18.280  42.043   7.950
 6240POPC   C4B38974  18.271  42.127   7.650
 6241POPC   NC338975  11.285  13.595   9.450
 6241POPC   PO438976  11.276  13.643   9.150
 6241POPC   GL138977  11.305  13.614   8.850
 6241POPC   GL238978  11.380  13.699   8.850
 6241POPC   C1A38979  11.327  13.666   8.550
 6241POPC   D2A38980  11.293  13.638   8.250
 6241POPC   C3A38981  11.295  13.676   7.950
 6241POPC   C4A38982  11.267  13.591   7.650
 6241POPC   C1B38983  11.502  13.739   8.550
 6241POPC   C2B38984  11.529  13.747   8.250
 6241POPC   C3B38985  11.516  13.696   7.950
 6241POPC   C4B38986  11.537  13.673   7.650
 6242POPC   NC338987  38.442   3.525   9.450
 6242POPC   PO438988  38.463   3.521   9.150
 6242POPC   GL138989  38.470   3.567   8.850
 6242POPC   GL238990  38.348   3.585   8.850
 6242POPC   C1A38991  38.465   3.525   8.550
 6242POPC   D2A38992  38.459   3.577   8.250
 6242POPC   C3A38993  38.490   3.582   7.950
 6242POPC   C4A38994  38.445   3.583   7.650
 6242POPC   C1B38995  38.237   3.551   8.550
 6242POPC   C2B38996  38.186   3.619   8.250
 6242POPC   C3B38997  38.160   3.590   7.950
 6242POPC   C4B38998  38.238   3.537   7.650
 6243POPC   NC338999  20.651   3.554   9.450
 6243POPC   PO439000  20.648   3.570   9.150
 6243POPC   GL139001  20.624   3.521   8.850
 6243POPC   GL239002  20.470   3.409   8.850
 6243POPC   C1A39003  20.631   3.568   8.550
 6243POPC   D2A39004  20.629   3.554   8.250
 6243POPC   C3A39005  20.605   3.533   7.950
 6243POPC   C4A39006  20.642   3.584   7.650
 6243POPC   C1B39007  20.469   3.401   8.550
 6243POPC   C2B39008  20.440   3.356   8.250
 6243POPC   C3B39009  20.386   3.347   7.950
 6243POPC   C4B39010  20.398   3.392   7.650
 6244POPC   NC339011  37.646  10.489   9.450
 6244POPC   PO439012  37.652  10.510   9.150
 6244POPC   GL139013  37.638  10.533   8.850
 6244POPC   GL239014  37.738  10.572   8.850
 6244POPC   C1A39015  37.669  10.536   8.550
 6244POPC   D2A39016  37.668  10.495   8.250
 6244POPC   C3A39017  37.656  10.549   7.950
 6244POPC   C4A39018  37.686  10.532   7.650
 6244POPC   C1B39019  37.890  10.709   8.550
 6244POPC   C2B39020  37.895  10.689   8.250
 6244POPC   C3B39021  37.883  10.696   7.950
 6244POPC   C4B39022  37.867  10.697   7.650
 6245POPC   NC339023  26.025  30.696   9.450
 6245POPC   PO439024  26.016  30.658   9.150
 6245POPC   GL139025  26.084  30.721   8.850
 6245POPC   GL239026  26.032  30.802   8.850
 6245POPC   C1A39027  26.081  30.695   8.550
 6245POPC   D2A39028  26.029  30.711   8.250
 6245POPC   C3A39029  26.069  30.698   7.950
 6245POPC   C4A39030  26.062  30.744   7.650
 6245POPC   C1B39031  26.051  30.908   8.550
 6245POPC   C2B39032  26.033  30.977   8.250
 6245POPC   C3B39033  25.972  30.906   7.950
 6245POPC   C4B39034  26.049  30.989   7.650
 6246POPC   NC339035  37.685  30.681   9.450
 6246POPC   PO439036  37.634  30.707   9.150
 6246POPC   GL139037  37.701  30.705   8.850
 6246POPC   GL239038  37.578  30.724   8.850
 6246POPC   C1A39039  37.669  30.693   8.550
 6246POPC   D2A39040  37.671  30.668   8.250
 6246POPC   C3A39041  37.719  30.667   7.950
 6246POPC   C4A39042  37.697  30.671   7.650
 6246POPC   C1B39043  37.472  30.859   8.550
 6246POPC   C2B39044  37.501  30.823   8.250
 6246POPC   C3B39045  37.493  30.860   7.950
 6246POPC   C4B39046  37.467  30.840   7.650
 6247POPC   NC339047  10.565  22.150   9.450
 6247POPC   PO439048  10.513  22.175   9.150
 6247POPC   GL139049  10.493  22.150   8.850
 6247POPC   GL239050  10.584  22.073   8.850
 6247POPC   C1A39051  10.481  22.201   8.550
 6247POPC   D2A39052  10.565  22.207   8.250
 6247POPC   C3A39053  10.534  22.151   7.950
 6247POPC   C4A39054  10.559  22.173   7.650
 6247POPC   C1B39055  10.727  22.022   8.550
 6247POPC   C2B39056  10.761  21.972   8.250
 6247POPC   C3B39057  10.734  22.015   7.950
 6247POPC   C4B39058  10.711  21.975   7.650
 6248POPC   NC339059   3.579  29.122   9.450
 6248POPC   PO439060   3.580  29.113   9.150
 6248POPC   GL139061   3.583  29.167   8.850
 6248POPC   GL239062   3.573  28.978   8.850
 6248POPC   C1A39063   3.496  29.147   8.550
 6248POPC   D2A39064   3.519  29.169   8.250
 6248POPC   C3A39065   3.528  29.163   7.950
 6248POPC   C4A39066   3.565  29.099   7.650
 6248POPC   C1B39067   3.648  28.919   8.550
 6248POPC   C2B39068   3.623  28.919   8.250
 6248POPC   C3B39069   3.561  28.859   7.950
 6248POPC   C4B39070   3.632  28.940   7.650
 6249POPC   NC339071  21.430  33.033   9.450
 6249POPC   PO439072  21.361  33.052   9.150
 6249POPC   GL139073  21.372  32.991   8.850
 6249POPC   GL239074  21.514  32.946   8.850
 6249POPC   C1A39075  21.386  33.034   8.550
 6249POPC   D2A39076  21.392  33.071   8.250
 6249POPC   C3A39077  21.393  33.051   7.950
 6249POPC   C4A39078  21.418  33.007   7.650
 6249POPC   C1B39079  21.653  32.891   8.550
 6249POPC   C2B39080  21.608  32.912   8.250
 6249POPC   C3B39081  21.626  32.925   7.950
 6249POPC   C4B39082  21.569  32.918   7.650
 6250POPC   NC339083  16.776  29.140   9.450
 6250POPC   PO439084  16.710  29.152   9.150
 6250POPC   GL139085  16.766  29.173   8.850
 6250POPC   GL239086  16.787  29.026   8.850
 6250POPC   C1A39087  16.689  29.110   8.550
 6250POPC   D2A39088  16.729  29.104   8.250
 6250POPC   C3A39089  16.762  29.182   7.950
 6250POPC   C4A39090  16.709  29.180   7.650
 6250POPC   C1B39091  16.808  28.888   8.550
 6250POPC   C2B39092  16.872  28.919   8.250
 6250POPC   C3B39093  16.834  28.940   7.950
 6250POPC   C4B39094  16.883  28.914   7.650
 6251POPC   NC339095  43.860  23.728   9.450
 6251POPC   PO439096  43.904  23.741   9.150
 6251POPC   GL139097  43.898  23.696   8.850
 6251POPC   GL239098  43.985  23.777   8.850
 6251POPC   C1A39099  43.932  23.721   8.550
 6251POPC   D2A39100  43.926  23.727   8.250
 6251POPC   C3A39101  43.853  23.741   7.950
 6251POPC   C4A39102  43.921  23.693   7.650
 6251POPC   C1B39103  44.086  23.943   8.550
 6251POPC   C2B39104  44.046  23.868   8.250
 6251POPC   C3B39105  44.051  23.950   7.950
 6251POPC   C4B39106  44.014  23.916   7.650
 6252POPC   NC339107  41.510  36.122   9.450
 6252POPC   PO439108  41.606  36.107   9.150
 6252POPC   GL139109  41.606  36.172   8.850
 6252POPC   GL239110  41.622  36.173   8.850
 6252POPC   C1A39111  41.585  36.137   8.550
 6252POPC   D2A39112  41.567  36.102   8.250
 6252POPC   C3A39113  41.603  36.145   7.950
 6252POPC   C4A39114  41.564  36.137   7.650
 6252POPC   C1B39115  41.784  36.297   8.550
 6252POPC   C2B39116  41.711  36.250   8.250
 6252POPC   C3B39117  41.726  36.284   7.950
 6252POPC   C4B39118  41.805  36.307   7.650
 6253POPC   NC339119  38.479   6.618   9.450
 6253POPC   PO439120  38.440   6.689   9.150
 6253POPC   GL139121  38.503   6.657   8.850
 6253POPC   GL239122  38.598   6.728   8.850
 6253POPC   C1A39123  38.440   6.667   8.550
 6253POPC   D2A39124  38.463   6.645   8.250
 6253POPC   C3A39125  38.416   6.657   7.950
 6253POPC   C4A39126  38.498   6.688   7.650
 6253POPC   C1B39127  38.679   6.773   8.550
 6253POPC   C2B39128  38.701   6.771   8.250
 6253POPC   C3B39129  38.669   6.802   7.950
 6253POPC   C4B39130  38.644   6.800   7.650
 6254POPC   NC339131  17.535  19.080   9.450
 6254POPC   PO439132  17.467  19.045   9.150
 6254POPC   GL139133  17.513  19.019   8.850
 6254POPC   GL239134  17.601  18.934   8.850
 6254POPC   C1A39135  17.473  19.108   8.550
 6254POPC   D2A39136  17.522  19.078   8.250
 6254POPC   C3A39137  17.497  19.073   7.950
 6254POPC   C4A39138  17.555  19.021   7.650
 6254POPC   C1B39139  17.715  18.880   8.550
 6254POPC   C2B39140  17.683  18.856   8.250
 6254POPC   C3B39141  17.700  18.853   7.950
 6254POPC   C4B39142  17.647  18.900   7.650
 6255POPC   NC339143  22.910  26.080   9.450
 6255POPC   PO439144  22.888  26.086   9.150
 6255POPC   GL139145  22.913  26.003   8.850
 6255POPC   GL239146  22.935  26.173   8.850
 6255POPC   C1A39147  22.912  26.039   8.550
 6255POPC   D2A39148  22.922  26.030   8.250
 6255POPC   C3A39149  22.921  26.086   7.950
 6255POPC   C4A39150  22.908  25.998   7.650
 6255POPC   C1B39151  22.945  26.277   8.550
 6255POPC   C2B39152  22.944  26.272   8.250
 6255POPC   C3B39153  22.893  26.341   7.950
 6255POPC   C4B39154  22.927  26.263   7.650
 6256POPC   NC339155  34.594  42.321   9.450
 6256POPC   PO439156  34.610  42.374   9.150
 6256POPC   GL139157  34.607  42.301   8.850
 6256POPC   GL239158  34.463  42.306   8.850
 6256POPC   C1A39159  34.567  42.328   8.550
 6256POPC   D2A39160  34.576  42.351   8.250
 6256POPC   C3A39161  34.595  42.292   7.950
 6256POPC   C4A39162  34.532  42.338   7.650
 6256POPC   C1B39163  34.366  42.247   8.550
 6256POPC   C2B39164  34.284  42.307   8.250
 6256POPC   C3B39165  34.300  42.306   7.950
 6256POPC   C4B39166  34.366  42.311   7.650
 6257POPC   NC339167  22.946  29.182   9.450
 6257POPC   PO439168  22.933  29.157   9.150
 6257POPC   GL139169  22.966  29.111   8.850
 6257POPC   GL239170  23.094  29.093   8.850
 6257POPC   C1A39171  22.988  29.135   8.550
 6257POPC   D2A39172  22.968  29.107   8.250
 6257POPC   C3A39173  22.930  29.156   7.950
 6257POPC   C4A39174  22.903  29.194   7.650
 6257POPC   C1B39175  23.177  29.150   8.550
 6257POPC   C2B39176  23.224  29.091   8.250
 6257POPC   C3B39177  23.168  29.132   7.950
 6257POPC   C4B39178  23.145  29.095   7.650
 6258POPC   NC339179  37.676  23.689   9.450
 6258POPC   PO439180  37.690  23.752   9.150
 6258POPC   GL139181  37.695  23.700   8.850
 6258POPC   GL239182  37.546  23.733   8.850
 6258POPC   C1A39183  37.638  23.740   8.550
 6258POPC   D2A39184  37.695  23.725   8.250
 6258POPC   C3A39185  37.646  23.720   7.950
 6258POPC   C4A39186  37.686  23.739   7.650
 6258POPC   C1B39187  37.479  23.733   8.550
 6258POPC   C2B39188  37.449  23.727   8.250
 6258POPC   C3B39189  37.477  23.734   7.950
 6258POPC   C4B39190  37.417  23.776   7.650
 6259POPC   NC339191  35.381   1.234   9.450
 6259POPC   PO439192  35.328   1.164   9.150
 6259POPC   GL139193  35.324   1.227   8.850
 6259POPC   GL239194  35.422   1.293   8.850
 6259POPC   C1A39195  35.347   1.212   8.550
 6259POPC   D2A39196  35.374   1.184   8.250
 6259POPC   C3A39197  35.304   1.223   7.950
 6259POPC   C4A39198  35.340   1.217   7.650
 6259POPC   C1B39199  35.546   1.451   8.550
 6259POPC   C2B39200  35.537   1.432   8.250
 6259POPC   C3B39201  35.481   1.452   7.950
 6259POPC   C4B39202  35.499   1.439   7.650
 6260POPC   NC339203  42.330   8.966   9.450
 6260POPC   PO439204  42.358   8.964   9.150
 6260POPC   GL139205  42.318   9.003   8.850
 6260POPC   GL239206  42.229   8.972   8.850
 6260POPC   C1A39207  42.363   8.977   8.550
 6260POPC   D2A39208  42.313   8.931   8.250
 6260POPC   C3A39209  42.308   8.983   7.950
 6260POPC   C4A39210  42.345   8.959   7.650
 6260POPC   C1B39211  42.067   8.923   8.550
 6260POPC   C2B39212  42.083   8.916   8.250
 6260POPC   C3B39213  42.093   8.904   7.950
 6260POPC   C4B39214  42.047   8.900   7.650
 6261POPC   NC339215  32.207  26.037   9.450
 6261POPC   PO439216  32.282  25.994   9.150
 6261POPC   GL139217  32.258  26.064   8.850
 6261POPC   GL239218  32.206  26.191   8.850
 6261POPC   C1A39219  32.202  26.007   8.550
 6261POPC   D2A39220  32.256  26.069   8.250
 6261POPC   C3A39221  32.247  26.038   7.950
 6261POPC   C4A39222  32.253  26.070   7.650
 6261POPC   C1B39223  32.191  26.320   8.550
 6261POPC   C2B39224  32.133  26.276   8.250
 6261POPC   C3B39225  32.180  26.276   7.950
 6261POPC   C4B39226  32.111  26.304   7.650
 6262POPC   NC339227  17.556  10.488   9.450
 6262POPC   PO439228  17.525  10.503   9.150
 6262POPC   GL139229  17.464  10.568   8.850
 6262POPC   GL239230  17.460  10.698   8.850
 6262POPC   C1A39231  17.518  10.571   8.550
 6262POPC   D2A39232  17.489  10.503   8.250
 6262POPC   C3A39233  17.553  10.484   7.950
 6262POPC   C4A39234  17.468  10.561   7.650
 6262POPC   C1B39235  17.504  10.820   8.550
 6262POPC   C2B39236  17.488  10.810   8.250
 6262POPC   C3B39237  17.520  10.770   7.950
 6262POPC   C4B39238  17.519  10.798   7.650
 6263POPC   NC339239  26.089  19.059   9.450
 6263POPC   PO439240  26.081  19.065   9.150
 6263POPC   GL139241  26.048  19.104   8.850
 6263POPC   GL239242  26.129  19.199   8.850
 6263POPC   C1A39243  26.054  19.099   8.550
 6263POPC   D2A39244  26.009  19.027   8.250
 6263POPC   C3A39245  26.066  19.072   7.950
 6263POPC   C4A39246  26.089  19.010   7.650
 6263POPC   C1B39247  26.182  19.296   8.550
 6263POPC   C2B39248  26.217  19.230   8.250
 6263POPC   C3B39249  26.134  19.253   7.950
 6263POPC   C4B39250  26.194  19.265   7.650
 6264POPC   NC339251   5.125  18.267   9.450
 6264POPC   PO439252   5.118  18.239   9.150
 6264POPC   GL139253   5.077  18.320   8.850
 6264POPC   GL239254   5.202  18.359   8.850
 6264POPC   C1A39255   5.124  18.289   8.550
 6264POPC   D2A39256   5.139  18.328   8.250
 6264POPC   C3A39257   5.045  18.282   7.950
 6264POPC   C4A39258   5.057  18.332   7.650
 6264POPC   C1B39259   5.342  18.419   8.550
 6264POPC   C2B39260   5.333  18.384   8.250
 6264POPC   C3B39261   5.337  18.429   7.950
 6264POPC   C4B39262   5.323  18.404   7.650
 6265POPC   NC339263  43.093  36.951   9.450
 6265POPC   PO439264  43.135  36.943   9.150
 6265POPC   GL139265  43.076  36.953   8.850
 6265POPC   GL239266  43.068  37.047   8.850
 6265POPC   C1A39267  43.085  36.896   8.550
 6265POPC   D2A39268  43.098  36.869   8.250
 6265POPC   C3A39269  43.085  36.939   7.950
 6265POPC   C4A39270  43.068  36.878   7.650
 6265POPC   C1B39271  42.967  37.111   8.550
 6265POPC   C2B39272  43.023  37.124   8.250
 6265POPC   C3B39273  43.002  37.112   7.950
 6265POPC   C4B39274  43.032  37.119   7.650
 6266POPC   NC339275   9.771  23.712   9.450
 6266POPC   PO439276   9.720  23.675   9.150
 6266POPC   GL139277   9.786  23.762   8.850
 6266POPC   GL239278   9.809  23.855   8.850
 6266POPC   C1A39279   9.706  23.690   8.550
 6266POPC   D2A39280   9.743  23.693   8.250
 6266POPC   C3A39281   9.747  23.754   7.950
 6266POPC   C4A39282   9.709  23.668   7.650
 6266POPC   C1B39283   9.868  23.968   8.550
 6266POPC   C2B39284   9.891  23.894   8.250
 6266POPC   C3B39285   9.882  23.912   7.950
 6266POPC   C4B39286   9.880  23.954   7.650
 6267POPC   NC339287   5.837   6.610   9.450
 6267POPC   PO439288   5.899   6.663   9.150
 6267POPC   GL139289   5.874   6.604   8.850
 6267POPC   GL239290   5.958   6.763   8.850
 6267POPC   C1A39291   5.856   6.611   8.550
 6267POPC   D2A39292   5.889   6.674   8.250
 6267POPC   C3A39293   5.827   6.640   7.950
 6267POPC   C4A39294   5.855   6.653   7.650
 6267POPC   C1B39295   6.032   6.767   8.550
 6267POPC   C2B39296   6.038   6.839   8.250
 6267POPC   C3B39297   6.106   6.767   7.950
 6267POPC   C4B39298   6.058   6.767   7.650
 6268POPC   NC339299  27.597  23.729   9.450
 6268POPC   PO439300  27.549  23.678   9.150
 6268POPC   GL139301  27.602  23.709   8.850
 6268POPC   GL239302  27.698  23.595   8.850
 6268POPC   C1A39303  27.609  23.676   8.550
 6268POPC   D2A39304  27.618  23.759   8.250
 6268POPC   C3A39305  27.588  23.674   7.950
 6268POPC   C4A39306  27.634  23.683   7.650
 6268POPC   C1B39307  27.691  23.535   8.550
 6268POPC   C2B39308  27.686  23.543   8.250
 6268POPC   C3B39309  27.778  23.471   7.950
 6268POPC   C4B39310  27.739  23.465   7.650
 6269POPC   NC339311  20.586  26.853   9.450
 6269POPC   PO439312  20.609  26.835   9.150
 6269POPC   GL139313  20.622  26.815   8.850
 6269POPC   GL239314  20.589  26.970   8.850
 6269POPC   C1A39315  20.575  26.835   8.550
 6269POPC   D2A39316  20.585  26.836   8.250
 6269POPC   C3A39317  20.566  26.851   7.950
 6269POPC   C4A39318  20.575  26.786   7.650
 6269POPC   C1B39319  20.490  27.079   8.550
 6269POPC   C2B39320  20.564  27.022   8.250
 6269POPC   C3B39321  20.548  27.085   7.950
 6269POPC   C4B39322  20.487  27.039   7.650
 6270POPC   NC339323  15.997  44.627   9.450
 6270POPC   PO439324  16.001  44.683   9.150
 6270POPC   GL139325  15.976  44.691   8.850
 6270POPC   GL239326  15.943  44.514   8.850
 6270POPC   C1A39327  15.958  44.631   8.550
 6270POPC   D2A39328  15.991  44.689   8.250
 6270POPC   C3A39329  16.005  44.710   7.950
 6270POPC   C4A39330  15.961  44.709   7.650
 6270POPC   C1B39331  15.958  44.463   8.550
 6270POPC   C2B39332  15.888  44.427   8.250
 6270POPC   C3B39333  15.904  44.423   7.950
 6270POPC   C4B39334  15.935  44.370   7.650
 6271POPC   NC339335  43.081  30.672   9.450
 6271POPC   PO439336  43.147  30.693   9.150
 6271POPC   GL139337  43.076  30.665   8.850
 6271POPC   GL239338  43.081  30.561   8.850
 6271POPC   C1A39339  43.158  30.712   8.550
 6271POPC   D2A39340  43.135  30.725   8.250
 6271POPC   C3A39341  43.143  30.733   7.950
 6271POPC   C4A39342  43.143  30.707   7.650
 6271POPC   C1B39343  42.934  30.445   8.550
 6271POPC   C2B39344  43.025  30.481   8.250
 6271POPC   C3B39345  42.991  30.459   7.950
 6271POPC   C4B39346  43.009  30.496   7.650
 6272POPC   NC339347  40.824   8.170   9.450
 6272POPC   PO439348  40.786   8.165   9.150
 6272POPC   GL139349  40.755   8.191   8.850
 6272POPC   GL239350  40.717   8.272   8.850
 6272POPC   C1A39351  40.735   8.188   8.550
 6272POPC   D2A39352  40.821   8.200   8.250
 6272POPC   C3A39353  40.824   8.185   7.950
 6272POPC   C4A39354  40.733   8.190   7.650
 6272POPC   C1B39355  40.554   8.314   8.550
 6272POPC   C2B39356  40.584   8.316   8.250
 6272POPC   C3B39357  40.598   8.328   7.950
 6272POPC   C4B39358  40.590   8.312   7.650
 6273POPC   NC339359   4.287  32.208   9.450
 6273POPC   PO439360   4.322  32.249   9.150
 6273POPC   GL139361   4.331  32.264   8.850
 6273POPC   GL239362   4.256  32.139   8.850
 6273POPC   C1A39363   4.326  32.288   8.550
 6273POPC   D2A39364   4.269  32.232   8.250
 6273POPC   C3A39365   4.352  32.232   7.950
 6273POPC   C4A39366   4.270  32.273   7.650
 6273POPC   C1B39367   4.219  31.971   8.550
 6273POPC   C2B39368   4.212  32.033   8.250
 6273POPC   C3B39369   4.221  32.049   7.950
 6273POPC   C4B39370   4.190  32.058   7.650
 6274POPC   NC339371  26.029  38.413   9.450
 6274POPC   PO439372  26.071  38.483   9.150
 6274POPC   GL139373  26.087  38.422   8.850
 6274POPC   GL239374  25.954  38.615   8.850
 6274POPC   C1A39375  26.012  38.431   8.550
 6274POPC   D2A39376  26.029  38.503   8.250
 6274POPC   C3A39377  26.034  38.477   7.950
 6274POPC   C4A39378  26.028  38.471   7.650
 6274POPC   C1B39379  25.905  38.728   8.550
 6274POPC   C2B39380  25.941  38.696   8.250
 6274POPC   C3B39381  25.978  38.701   7.950
 6274POPC   C4B39382  25.916  38.704   7.650
 6275POPC   NC339383  43.931  28.356   9.450
 6275POPC   PO439384  43.897  28.340   9.150
 6275POPC   GL139385  43.904  28.356   8.850
 6275POPC   GL239386  43.866  28.457   8.850
 6275POPC   C1A39387  43.870  28.321   8.550
 6275POPC   D2A39388  43.913  28.341   8.250
 6275POPC   C3A39389  43.882  28.329   7.950
 6275POPC   C4A39390  43.866  28.417   7.650
 6275POPC   C1B39391  43.914  28.625   8.550
 6275POPC   C2B39392  43.917  28.650   8.250
 6275POPC   C3B39393  43.882  28.599   7.950
 6275POPC   C4B39394  43.944  28.579   7.650
 6276POPC   NC339395  31.509   5.897   9.450
 6276POPC   PO439396  31.460   5.844   9.150
 6276POPC   GL139397  31.466   5.886   8.850
 6276POPC   GL239398  31.516   5.816   8.850
 6276POPC   C1A39399  31.462   5.889   8.550
 6276POPC   D2A39400  31.515   5.893   8.250
 6276POPC   C3A39401  31.508   5.854   7.950
 6276POPC   C4A39402  31.438   5.909   7.650
 6276POPC   C1B39403  31.680   5.736   8.550
 6276POPC   C2B39404  31.637   5.678   8.250
 6276POPC   C3B39405  31.611   5.727   7.950
 6276POPC   C4B39406  31.662   5.679   7.650
 6277POPC   NC339407  38.438  14.375   9.450
 6277POPC   PO439408  38.458  14.449   9.150
 6277POPC   GL139409  38.455  14.436   8.850
 6277POPC   GL239410  38.561  14.275   8.850
 6277POPC   C1A39411  38.420  14.357   8.550
 6277POPC   D2A39412  38.466  14.362   8.250
 6277POPC   C3A39413  38.418  14.394   7.950
 6277POPC   C4A39414  38.458  14.428   7.650
 6277POPC   C1B39415  38.620  14.238   8.550
 6277POPC   C2B39416  38.597  14.189   8.250
 6277POPC   C3B39417  38.637  14.204   7.950
 6277POPC   C4B39418  38.604  14.250   7.650
 6278POPC   NC339419  12.089  19.790   9.450
 6278POPC   PO439420  12.078  19.788   9.150
 6278POPC   GL139421  12.057  19.817   8.850
 6278POPC   GL239422  12.036  19.754   8.850
 6278POPC   C1A39423  12.088  19.839   8.550
 6278POPC   D2A39424  12.038  19.806   8.250
 6278POPC   C3A39425  12.063  19.793   7.950
 6278POPC   C4A39426  12.121  19.874   7.650
 6278POPC   C1B39427  11.892  19.693   8.550
 6278POPC   C2B39428  11.893  19.670   8.250
 6278POPC   C3B39429  11.880  19.633   7.950
 6278POPC   C4B39430  11.869  19.596   7.650
 6279POPC   NC339431  17.519  39.265   9.450
 6279POPC   PO439432  17.474  39.202   9.150
 6279POPC   GL139433  17.462  39.223   8.850
 6279POPC   GL239434  17.514  39.072   8.850
 6279POPC   C1A39435  17.549  39.238   8.550
 6279POPC   D2A39436  17.480  39.192   8.250
 6279POPC   C3A39437  17.497  39.269   7.950
 6279POPC   C4A39438  17.520  39.244   7.650
 6279POPC   C1B39439  17.634  39.016   8.550
 6279POPC   C2B39440  17.599  39.031   8.250
 6279POPC   C3B39441  17.559  38.997   7.950
 6279POPC   C4B39442  17.612  38.980   7.650
 6280POPC   NC339443   3.585  22.983   9.450
 6280POPC   PO439444   3.561  22.890   9.150
 6280POPC   GL139445   3.544  22.903   8.850
 6280POPC   GL239446   3.494  23.063   8.850
 6280POPC   C1A39447   3.505  22.941   8.550
 6280POPC   D2A39448   3.516  22.929   8.250
 6280POPC   C3A39449   3.519  22.900   7.950
 6280POPC   C4A39450   3.549  22.965   7.650
 6280POPC   C1B39451   3.444  23.118   8.550
 6280POPC   C2B39452   3.433  23.181   8.250
 6280POPC   C3B39453   3.376  23.120   7.950
 6280POPC   C4B39454   3.429  23.181   7.650
 6281POPC   NC339455  32.234  33.774   9.450
 6281POPC   PO439456  32.269  33.779   9.150
 6281POPC   GL139457  32.287  33.841   8.850
 6281POPC   GL239458  32.185  33.866   8.850
 6281POPC   C1A39459  32.218  33.756   8.550
 6281POPC   D2A39460  32.232  33.764   8.250
 6281POPC   C3A39461  32.224  33.791   7.950
 6281POPC   C4A39462  32.286  33.774   7.650
 6281POPC   C1B39463  32.093  33.966   8.550
 6281POPC   C2B39464  32.106  33.973   8.250
 6281POPC   C3B39465  32.066  33.958   7.950
 6281POPC   C4B39466  32.096  33.926   7.650
 6282POPC   NC339467  14.415  17.476   9.450
 6282POPC   PO439468  14.382  17.494   9.150
 6282POPC   GL139469  14.420  17.488   8.850
 6282POPC   GL239470  14.466  17.448   8.850
 6282POPC   C1A39471  14.364  17.457   8.550
 6282POPC   D2A39472  14.427  17.468   8.250
 6282POPC   C3A39473  14.451  17.476   7.950
 6282POPC   C4A39474  14.378  17.524   7.650
 6282POPC   C1B39475  14.617  17.345   8.550
 6282POPC   C2B39476  14.564  17.329   8.250
 6282POPC   C3B39477  14.586  17.282   7.950
 6282POPC   C4B39478  14.556  17.369   7.650
 6283POPC   NC339479  12.117  23.668   9.450
 6283POPC   PO439480  12.074  23.706   9.150
 6283POPC   GL139481  12.048  23.723   8.850
 6283POPC   GL239482  12.117  23.612   8.850
 6283POPC   C1A39483  12.082  23.729   8.550
 6283POPC   D2A39484  12.102  23.696   8.250
 6283POPC   C3A39485  12.060  23.709   7.950
 6283POPC   C4A39486  12.065  23.721   7.650
 6283POPC   C1B39487  12.098  23.442   8.550
 6283POPC   C2B39488  12.117  23.443   8.250
 6283POPC   C3B39489  12.095  23.424   7.950
 6283POPC   C4B39490  12.125  23.456   7.650
 6284POPC   NC339491   1.992   9.001   9.450
 6284POPC   PO439492   1.947   8.971   9.150
 6284POPC   GL139493   1.978   8.993   8.850
 6284POPC   GL239494   2.015   8.887   8.850
 6284POPC   C1A39495   1.949   8.986   8.550
 6284POPC   D2A39496   1.956   9.008   8.250
 6284POPC   C3A39497   1.943   8.944   7.950
 6284POPC   C4A39498   2.014   8.926   7.650
 6284POPC   C1B39499   2.186   8.768   8.550
 6284POPC   C2B39500   2.183   8.744   8.250
 6284POPC   C3B39501   2.185   8.794   7.950
 6284POPC   C4B39502   2.141   8.819   7.650
 6285POPC   NC339503  24.468  15.146   9.450
 6285POPC   PO439504  24.512  15.154   9.150
 6285POPC   GL139505  24.526  15.202   8.850
 6285POPC   GL239506  24.475  15.049   8.850
 6285POPC   C1A39507  24.486  15.191   8.550
 6285POPC   D2A39508  24.484  15.171   8.250
 6285POPC   C3A39509  24.480  15.142   7.950
 6285POPC   C4A39510  24.525  15.178   7.650
 6285POPC   C1B39511  24.513  14.973   8.550
 6285POPC   C2B39512  24.525  14.986   8.250
 6285POPC   C3B39513  24.577  14.972   7.950
 6285POPC   C4B39514  24.529  14.896   7.650
 6286POPC   NC339515  18.246  33.026   9.450
 6286POPC   PO439516  18.277  33.003   9.150
 6286POPC   GL139517  18.275  32.981   8.850
 6286POPC   GL239518  18.308  32.932   8.850
 6286POPC   C1A39519  18.276  33.023   8.550
 6286POPC   D2A39520  18.286  32.979   8.250
 6286POPC   C3A39521  18.328  32.983   7.950
 6286POPC   C4A39522  18.326  33.022   7.650
 6286POPC   C1B39523  18.286  32.790   8.550
 6286POPC   C2B39524  18.299  32.768   8.250
 6286POPC   C3B39525  18.249  32.752   7.950
 6286POPC   C4B39526  18.244  32.763   7.650
 6287POPC   NC339527  36.945  27.629   9.450
 6287POPC   PO439528  36.909  27.626   9.150
 6287POPC   GL139529  36.867  27.549   8.850
 6287POPC   GL239530  36.787  27.646   8.850
 6287POPC   C1A39531  36.921  27.561   8.550
 6287POPC   D2A39532  36.925  27.558   8.250
 6287POPC   C3A39533  36.871  27.557   7.950
 6287POPC   C4A39534  36.909  27.555   7.650
 6287POPC   C1B39535  36.740  27.711   8.550
 6287POPC   C2B39536  36.738  27.773   8.250
 6287POPC   C3B39537  36.699  27.775   7.950
 6287POPC   C4B39538  36.670  27.695   7.650
 6288POPC   NC339539  28.397  33.777   9.450
 6288POPC   PO439540  28.408  33.769   9.150
 6288POPC   GL139541  28.363  33.791   8.850
 6288POPC   GL239542  28.459  33.774   8.850
 6288POPC   C1A39543  28.415  33.798   8.550
 6288POPC   D2A39544  28.382  33.840   8.250
 6288POPC   C3A39545  28.384  33.758   7.950
 6288POPC   C4A39546  28.319  33.773   7.650
 6288POPC   C1B39547  28.647  33.737   8.550
 6288POPC   C2B39548  28.582  33.744   8.250
 6288POPC   C3B39549  28.622  33.802   7.950
 6288POPC   C4B39550  28.621  33.739   7.650
 6289POPC   NC339551  19.016  26.040   9.450
 6289POPC   PO439552  19.025  26.084   9.150
 6289POPC   GL139553  19.073  26.010   8.850
 6289POPC   GL239554  19.206  26.008   8.850
 6289POPC   C1A39555  19.036  26.048   8.550
 6289POPC   D2A39556  19.084  26.074   8.250
 6289POPC   C3A39557  19.073  26.055   7.950
 6289POPC   C4A39558  19.044  25.998   7.650
 6289POPC   C1B39559  19.282  25.957   8.550
 6289POPC   C2B39560  19.305  25.907   8.250
 6289POPC   C3B39561  19.232  25.971   7.950
 6289POPC   C4B39562  19.234  25.939   7.650
 6290POPC   NC339563   7.429  30.695   9.450
 6290POPC   PO439564   7.405  30.655   9.150
 6290POPC   GL139565   7.431  30.665   8.850
 6290POPC   GL239566   7.526  30.785   8.850
 6290POPC   C1A39567   7.409  30.669   8.550
 6290POPC   D2A39568   7.373  30.693   8.250
 6290POPC   C3A39569   7.394  30.742   7.950
 6290POPC   C4A39570   7.464  30.736   7.650
 6290POPC   C1B39571   7.623  30.856   8.550
 6290POPC   C2B39572   7.603  30.813   8.250
 6290POPC   C3B39573   7.672  30.791   7.950
 6290POPC   C4B39574   7.608  30.759   7.650
 6291POPC   NC339575  26.800   5.136   9.450
 6291POPC   PO439576  26.789   5.054   9.150
 6291POPC   GL139577  26.861   5.050   8.850
 6291POPC   GL239578  26.809   4.964   8.850
 6291POPC   C1A39579  26.791   5.082   8.550
 6291POPC   D2A39580  26.862   5.127   8.250
 6291POPC   C3A39581  26.849   5.123   7.950
 6291POPC   C4A39582  26.827   5.051   7.650
 6291POPC   C1B39583  26.819   4.833   8.550
 6291POPC   C2B39584  26.795   4.806   8.250
 6291POPC   C3B39585  26.825   4.889   7.950
 6291POPC   C4B39586  26.802   4.870   7.650
 6292POPC   NC339587   2.039  12.088   9.450
 6292POPC   PO439588   2.013  12.093   9.150
 6292POPC   GL139589   2.034  12.094   8.850
 6292POPC   GL239590   2.039  11.931   8.850
 6292POPC   C1A39591   1.946  12.038   8.550
 6292POPC   D2A39592   2.018  12.026   8.250
 6292POPC   C3A39593   1.996  12.044   7.950
 6292POPC   C4A39594   1.956  12.092   7.650
 6292POPC   C1B39595   2.196  11.890   8.550
 6292POPC   C2B39596   2.180  11.835   8.250
 6292POPC   C3B39597   2.179  11.897   7.950
 6292POPC   C4B39598   2.194  11.929   7.650
 6293POPC   NC339599   4.302  43.858   9.450
 6293POPC   PO439600   4.299  43.930   9.150
 6293POPC   GL139601   4.342  43.854   8.850
 6293POPC   GL239602   4.157  43.943   8.850
 6293POPC   C1A39603   4.350  43.895   8.550
 6293POPC   D2A39604   4.275  43.933   8.250
 6293POPC   C3A39605   4.347  43.910   7.950
 6293POPC   C4A39606   4.343  43.920   7.650
 6293POPC   C1B39607   4.025  43.937   8.550
 6293POPC   C2B39608   4.123  43.951   8.250
 6293POPC   C3B39609   4.042  43.994   7.950
 6293POPC   C4B39610   4.075  43.914   7.650
 6294POPC   NC339611  31.503  22.159   9.450
 6294POPC   PO439612  31.435  22.152   9.150
 6294POPC   GL139613  31.497  22.183   8.850
 6294POPC   GL239614  31.528  22.086   8.850
 6294POPC   C1A39615  31.434  22.207   8.550
 6294POPC   D2A39616  31.505  22.205   8.250
 6294POPC   C3A39617  31.485  22.198   7.950
 6294POPC   C4A39618  31.499  22.171   7.650
 6294POPC   C1B39619  31.664  22.012   8.550
 6294POPC   C2B39620  31.614  21.999   8.250
 6294POPC   C3B39621  31.628  22.016   7.950
 6294POPC   C4B39622  31.608  21.966   7.650
 6295POPC   NC339623  24.504  23.689   9.450
 6295POPC   PO439624  24.469  23.743   9.150
 6295POPC   GL139625  24.440  23.683   8.850
 6295POPC   GL239626  24.421  23.829   8.850
 6295POPC   C1A39627  24.506  23.762   8.550
 6295POPC   D2A39628  24.520  23.745   8.250
 6295POPC   C3A39629  24.481  23.668   7.950
 6295POPC   C4A39630  24.539  23.706   7.650
 6295POPC   C1B39631  24.339  23.930   8.550
 6295POPC   C2B39632  24.353  23.914   8.250
 6295POPC   C3B39633  24.411  23.946   7.950
 6295POPC   C4B39634  24.359  23.944   7.650
 6296POPC   NC339635  39.994   1.943   9.450
 6296POPC   PO439636  39.983   1.986   9.150
 6296POPC   GL139637  39.988   1.988   8.850
 6296POPC   GL239638  39.924   1.893   8.850
 6296POPC   C1A39639  40.034   2.009   8.550
 6296POPC   D2A39640  39.981   1.960   8.250
 6296POPC   C3A39641  40.056   1.965   7.950
 6296POPC   C4A39642  40.004   2.025   7.650
 6296POPC   C1B39643  39.799   1.834   8.550
 6296POPC   C2B39644  39.786   1.855   8.250
 6296POPC   C3B39645  39.782   1.850   7.950
 6296POPC   C4B39646  39.759   1.888   7.650
 6297POPC   NC339647   4.342   5.831   9.450
 6297POPC   PO439648   4.335   5.904   9.150
 6297POPC   GL139649   4.299   5.887   8.850
 6297POPC   GL239650   4.399   5.904   8.850
 6297POPC   C1A39651   4.343   5.833   8.550
 6297POPC   D2A39652   4.315   5.861   8.250
 6297POPC   C3A39653   4.281   5.906   7.950
 6297POPC   C4A39654   4.272   5.891   7.650
 6297POPC   C1B39655   4.517   5.944   8.550
 6297POPC   C2B39656   4.608   5.972   8.250
 6297POPC   C3B39657   4.558   5.952   7.950
 6297POPC   C4B39658   4.559   5.922   7.650
 6298POPC   NC339659  43.155  29.873   9.450
 6298POPC   PO439660  43.071  29.901   9.150
 6298POPC   GL139661  43.157  29.942   8.850
 6298POPC   GL239662  43.121  30.057   8.850
 6298POPC   C1A39663  43.159  29.950   8.550
 6298POPC   D2A39664  43.100  29.944   8.250
 6298POPC   C3A39665  43.135  29.952   7.950
 6298POPC   C4A39666  43.080  29.927   7.650
 6298POPC   C1B39667  43.092  30.165   8.550
 6298POPC   C2B39668  43.141  30.124   8.250
 6298POPC   C3B39669  43.174  30.128   7.950
 6298POPC   C4B39670  43.111  30.176   7.650
 6299POPC   NC339671  28.359   4.290   9.450
 6299POPC   PO439672  28.346   4.286   9.150
 6299POPC   GL139673  28.341   4.364   8.850
 6299POPC   GL239674  28.256   4.376   8.850
 6299POPC   C1A39675  28.332   4.333   8.550
 6299POPC   D2A39676  28.340   4.283   8.250
 6299POPC   C3A39677  28.412   4.363   7.950
 6299POPC   C4A39678  28.320   4.350   7.650
 6299POPC   C1B39679  28.165   4.447   8.550
 6299POPC   C2B39680  28.142   4.462   8.250
 6299POPC   C3B39681  28.109   4.393   7.950
 6299POPC   C4B39682  28.108   4.416   7.650
 6300POPC   NC339683  43.072  25.268   9.450
 6300POPC   PO439684  43.140  25.225   9.150
 6300POPC   GL139685  43.085  25.296   8.850
 6300POPC   GL239686  43.099  25.396   8.850
 6300POPC   C1A39687  43.147  25.230   8.550
 6300POPC   D2A39688  43.113  25.314   8.250
 6300POPC   C3A39689  43.077  25.244   7.950
 6300POPC   C4A39690  43.064  25.237   7.650
 6300POPC   C1B39691  43.039  25.454   8.550
 6300POPC   C2B39692  43.009  25.526   8.250
 6300POPC   C3B39693  43.041  25.530   7.950
 6300POPC   C4B39694  43.012  25.481   7.650
 6301POPC   NC339695  19.799  11.252   9.450
 6301POPC   PO439696  19.833  11.269   9.150
 6301POPC   GL139697  19.877  11.316   8.850
 6301POPC   GL239698  19.707  11.243   8.850
 6301POPC   C1A39699  19.827  11.285   8.550
 6301POPC   D2A39700  19.809  11.329   8.250
 6301POPC   C3A39701  19.845  11.314   7.950
 6301POPC   C4A39702  19.877  11.279   7.650
 6301POPC   C1B39703  19.702  11.124   8.550
 6301POPC   C2B39704  19.638  11.156   8.250
 6301POPC   C3B39705  19.719  11.145   7.950
 6301POPC   C4B39706  19.661  11.152   7.650
 6302POPC   NC339707  21.372  11.325   9.450
 6302POPC   PO439708  21.377  11.273   9.150
 6302POPC   GL139709  21.393  11.293   8.850
 6302POPC   GL239710  21.388  11.188   8.850
 6302POPC   C1A39711  21.369  11.252   8.550
 6302POPC   D2A39712  21.396  11.273   8.250
 6302POPC   C3A39713  21.405  11.293   7.950
 6302POPC   C4A39714  21.391  11.318   7.650
 6302POPC   C1B39715  21.406  11.078   8.550
 6302POPC   C2B39716  21.445  11.023   8.250
 6302POPC   C3B39717  21.384  11.055   7.950
 6302POPC   C4B39718  21.401  11.031   7.650
 6303POPC   NC339719  36.096  27.585   9.450
 6303POPC   PO439720  36.104  27.556   9.150
 6303POPC   GL139721  36.081  27.640   8.850
 6303POPC   GL239722  36.187  27.433   8.850
 6303POPC   C1A39723  36.131  27.614   8.550
 6303POPC   D2A39724  36.157  27.593   8.250
 6303POPC   C3A39725  36.080  27.621   7.950
 6303POPC   C4A39726  36.169  27.641   7.650
 6303POPC   C1B39727  36.147  27.320   8.550
 6303POPC   C2B39728  36.132  27.327   8.250
 6303POPC   C3B39729  36.193  27.386   7.950
 6303POPC   C4B39730  36.147  27.344   7.650
 6304POPC   NC339731  22.911  19.855   9.450
 6304POPC   PO439732  22.940  19.788   9.150
 6304POPC   GL139733  22.899  19.873   8.850
 6304POPC   GL239734  22.849  19.707   8.850
 6304POPC   C1A39735  22.902  19.850   8.550
 6304POPC   D2A39736  22.890  19.804   8.250
 6304POPC   C3A39737  22.941  19.862   7.950
 6304POPC   C4A39738  22.930  19.869   7.650
 6304POPC   C1B39739  22.769  19.618   8.550
 6304POPC   C2B39740  22.718  19.661   8.250
 6304POPC   C3B39741  22.776  19.616   7.950
 6304POPC   C4B39742  22.789  19.698   7.650
 6305POPC   NC339743   1.960  20.569   9.450
 6305POPC   PO439744   1.949  20.613   9.150
 6305POPC   GL139745   1.966  20.602   8.850
 6305POPC   GL239746   2.029  20.683   8.850
 6305POPC   C1A39747   1.943  20.593   8.550
 6305POPC   D2A39748   1.953  20.563   8.250
 6305POPC   C3A39749   2.011  20.609   7.950
 6305POPC   C4A39750   2.010  20.611   7.650
 6305POPC   C1B39751   2.076  20.864   8.550
 6305POPC   C2B39752   2.039  20.890   8.250
 6305POPC   C3B39753   2.059  20.870   7.950
 6305POPC   C4B39754   2.012  20.807   7.650
 6306POPC   NC339755  12.070  25.272   9.450
 6306POPC   PO439756  12.036  25.261   9.150
 6306POPC   GL139757  12.095  25.223   8.850
 6306POPC   GL239758  12.107  25.381   8.850
 6306POPC   C1A39759  12.083  25.233   8.550
 6306POPC   D2A39760  12.030  25.261   8.250
 6306POPC   C3A39761  12.097  25.265   7.950
 6306POPC   C4A39762  12.106  25.253   7.650
 6306POPC   C1B39763  12.024  25.555   8.550
 6306POPC   C2B39764  12.078  25.468   8.250
 6306POPC   C3B39765  12.104  25.521   7.950
 6306POPC   C4B39766  12.080  25.531   7.650
 6307POPC   NC339767  19.096   1.222   9.450
 6307POPC   PO439768  19.081   1.226   9.150
 6307POPC   GL139769  19.035   1.228   8.850
 6307POPC   GL239770  19.110   1.359   8.850
 6307POPC   C1A39771  19.076   1.176   8.550
 6307POPC   D2A39772  19.078   1.229   8.250
 6307POPC   C3A39773  19.067   1.224   7.950
 6307POPC   C4A39774  19.090   1.182   7.650
 6307POPC   C1B39775  19.102   1.416   8.550
 6307POPC   C2B39776  19.148   1.418   8.250
 6307POPC   C3B39777  19.121   1.460   7.950
 6307POPC   C4B39778  19.184   1.425   7.650
 6308POPC   NC339779   8.165  12.833   9.450
 6308POPC   PO439780   8.203  12.851   9.150
 6308POPC   GL139781   8.215  12.850   8.850
 6308POPC   GL239782   8.305  12.882   8.850
 6308POPC   C1A39783   8.226  12.870   8.550
 6308POPC   D2A39784   8.240  12.831   8.250
 6308POPC   C3A39785   8.169  12.839   7.950
 6308POPC   C4A39786   8.189  12.827   7.650
 6308POPC   C1B39787   8.420  12.870   8.550
 6308POPC   C2B39788   8.475  12.869   8.250
 6308POPC   C3B39789   8.488  12.816   7.950
 6308POPC   C4B39790   8.415  12.857   7.650
 6309POPC   NC339791  40.753  38.449   9.450
 6309POPC   PO439792  40.820  38.484   9.150
 6309POPC   GL139793  40.794  38.443   8.850
 6309POPC   GL239794  40.768  38.595   8.850
 6309POPC   C1A39795  40.804  38.427   8.550
 6309POPC   D2A39796  40.796  38.420   8.250
 6309POPC   C3A39797  40.801  38.428   7.950
 6309POPC   C4A39798  40.774  38.493   7.650
 6309POPC   C1B39799  40.776  38.741   8.550
 6309POPC   C2B39800  40.818  38.668   8.250
 6309POPC   C3B39801  40.825  38.717   7.950
 6309POPC   C4B39802  40.821  38.713   7.650
 6310POPC   NC339803  26.815   3.507   9.450
 6310POPC   PO439804  26.851   3.524   9.150
 6310POPC   GL139805  26.835   3.536   8.850
 6310POPC   GL239806  26.703   3.507   8.850
 6310POPC   C1A39807  26.825   3.498   8.550
 6310POPC   D2A39808  26.849   3.550   8.250
 6310POPC   C3A39809  26.775   3.543   7.950
 6310POPC   C4A39810  26.824   3.516   7.650
 6310POPC   C1B39811  26.604   3.412   8.550
 6310POPC   C2B39812  26.587   3.336   8.250
 6310POPC   C3B39813  26.672   3.396   7.950
 6310POPC   C4B39814  26.587   3.373   7.650
 6311POPC   NC339815  42.293  27.572   9.450
 6311POPC   PO439816  42.286  27.597   9.150
 6311POPC   GL139817  42.287  27.603   8.850
 6311POPC   GL239818  42.231  27.585   8.850
 6311POPC   C1A39819  42.381  27.572   8.550
 6311POPC   D2A39820  42.328  27.555   8.250
 6311POPC   C3A39821  42.300  27.620   7.950
 6311POPC   C4A39822  42.335  27.554   7.650
 6311POPC   C1B39823  42.095  27.479   8.550
 6311POPC   C2B39824  42.156  27.478   8.250
 6311POPC   C3B39825  42.100  27.524   7.950
 6311POPC   C4B39826  42.092  27.467   7.650
 6312POPC   NC339827   4.356   1.237   9.450
 6312POPC   PO439828   4.291   1.259   9.150
 6312POPC   GL139829   4.345   1.166   8.850
 6312POPC   GL239830   4.280   1.301   8.850
 6312POPC   C1A39831   4.331   1.245   8.550
 6312POPC   D2A39832   4.337   1.251   8.250
 6312POPC   C3A39833   4.366   1.212   7.950
 6312POPC   C4A39834   4.346   1.254   7.650
 6312POPC   C1B39835   4.308   1.447   8.550
 6312POPC   C2B39836   4.277   1.478   8.250
 6312POPC   C3B39837   4.312   1.420   7.950
 6312POPC   C4B39838   4.255   1.482   7.650
 6313POPC   NC339839  30.728  43.895   9.450
 6313POPC   PO439840  30.700  43.922   9.150
 6313POPC   GL139841  30.666  43.867   8.850
 6313POPC   GL239842  30.617  43.825   8.850
 6313POPC   C1A39843  30.682  43.878   8.550
 6313POPC   D2A39844  30.686  43.846   8.250
 6313POPC   C3A39845  30.690  43.932   7.950
 6313POPC   C4A39846  30.701  43.876   7.650
 6313POPC   C1B39847  30.457  43.771   8.550
 6313POPC   C2B39848  30.518  43.778   8.250
 6313POPC   C3B39849  30.547  43.715   7.950
 6313POPC   C4B39850  30.464  43.728   7.650
 6314POPC   NC339851  37.686  25.234   9.450
 6314POPC   PO439852  37.680  25.265   9.150
 6314POPC   GL139853  37.644  25.233   8.850
 6314POPC   GL239854  37.569  25.326   8.850
 6314POPC   C1A39855  37.686  25.282   8.550
 6314POPC   D2A39856  37.665  25.244   8.250
 6314POPC   C3A39857  37.727  25.300   7.950
 6314POPC   C4A39858  37.656  25.283   7.650
 6314POPC   C1B39859  37.468  25.384   8.550
 6314POPC   C2B39860  37.442  25.406   8.250
 6314POPC   C3B39861  37.435  25.434   7.950
 6314POPC   C4B39862  37.464  25.448   7.650
 6315POPC   NC339863  43.874  13.640   9.450
 6315POPC   PO439864  43.923  13.589   9.150
 6315POPC   GL139865  43.871  13.671   8.850
 6315POPC   GL239866  43.914  13.521   8.850
 6315POPC   C1A39867  43.843  13.655   8.550
 6315POPC   D2A39868  43.845  13.647   8.250
 6315POPC   C3A39869  43.896  13.628   7.950
 6315POPC   C4A39870  43.877  13.654   7.650
 6315POPC   C1B39871  43.937  13.345   8.550
 6315POPC   C2B39872  43.965  13.404   8.250
 6315POPC   C3B39873  43.962  13.434   7.950
 6315POPC   C4B39874  43.965  13.410   7.650
 6316POPC   NC339875  15.999   1.944   9.450
 6316POPC   PO439876  15.961   2.022   9.150
 6316POPC   GL139877  15.913   1.971   8.850
 6316POPC   GL239878  16.115   1.923   8.850
 6316POPC   C1A39879  15.966   2.005   8.550
 6316POPC   D2A39880  15.925   2.010   8.250
 6316POPC   C3A39881  15.905   2.016   7.950
 6316POPC   C4A39882  15.954   1.947   7.650
 6316POPC   C1B39883  16.131   1.920   8.550
 6316POPC   C2B39884  16.161   1.869   8.250
 6316POPC   C3B39885  16.201   1.899   7.950
 6316POPC   C4B39886  16.184   1.835   7.650
 6317POPC   NC339887  44.674  31.517   9.450
 6317POPC   PO439888  44.645  31.446   9.150
 6317POPC   GL139889  44.658  31.479   8.850
 6317POPC   GL239890  44.792  31.374   8.850
 6317POPC   C1A39891  44.709  31.485   8.550
 6317POPC   D2A39892  44.618  31.482   8.250
 6317POPC   C3A39893  44.648  31.448   7.950
 6317POPC   C4A39894  44.625  31.508   7.650
 6317POPC   C1B39895  44.805  31.271   8.550
 6317POPC   C2B39896  44.821  31.299   8.250
 6317POPC   C3B39897  44.831  31.294   7.950
 6317POPC   C4B39898  44.876  31.322   7.650
 6318POPC   NC339899  24.497  41.595   9.450
 6318POPC   PO439900  24.501  41.544   9.150
 6318POPC   GL139901  24.509  41.602   8.850
 6318POPC   GL239902  24.584  41.611   8.850
 6318POPC   C1A39903  24.473  41.554   8.550
 6318POPC   D2A39904  24.469  41.572   8.250
 6318POPC   C3A39905  24.464  41.537   7.950
 6318POPC   C4A39906  24.526  41.578   7.650
 6318POPC   C1B39907  24.638  41.782   8.550
 6318POPC   C2B39908  24.689  41.710   8.250
 6318POPC   C3B39909  24.646  41.730   7.950
 6318POPC   C4B39910  24.593  41.772   7.650
 6319POPC   NC339911  10.568   8.191   9.450
 6319POPC   PO439912  10.564   8.160   9.150
 6319POPC   GL139913  10.548   8.157   8.850
 6319POPC   GL239914  10.484   8.240   8.850
 6319POPC   C1A39915  10.478   8.177   8.550
 6319POPC   D2A39916  10.534   8.205   8.250
 6319POPC   C3A39917  10.503   8.174   7.950
 6319POPC   C4A39918  10.479   8.243   7.650
 6319POPC   C1B39919  10.360   8.395   8.550
 6319POPC   C2B39920  10.312   8.397   8.250
 6319POPC   C3B39921  10.341   8.394   7.950
 6319POPC   C4B39922  10.369   8.388   7.650
 6320POPC   NC339923   4.330  42.290   9.450
 6320POPC   PO439924   4.303  42.359   9.150
 6320POPC   GL139925   4.321  42.308   8.850
 6320POPC   GL239926   4.340  42.435   8.850
 6320POPC   C1A39927   4.311  42.341   8.550
 6320POPC   D2A39928   4.268  42.321   8.250
 6320POPC   C3A39929   4.290  42.337   7.950
 6320POPC   C4A39930   4.323  42.332   7.650
 6320POPC   C1B39931   4.498  42.594   8.550
 6320POPC   C2B39932   4.449  42.542   8.250
 6320POPC   C3B39933   4.421  42.535   7.950
 6320POPC   C4B39934   4.491  42.595   7.650
 6321POPC   NC339935   7.413  18.256   9.450
 6321POPC   PO439936   7.440  18.304   9.150
 6321POPC   GL139937   7.374  18.241   8.850
 6321POPC   GL239938   7.302  18.286   8.850
 6321POPC   C1A39939   7.437  18.293   8.550
 6321POPC   D2A39940   7.451  18.316   8.250
 6321POPC   C3A39941   7.393  18.252   7.950
 6321POPC   C4A39942   7.405  18.273   7.650
 6321POPC   C1B39943   7.127  18.238   8.550
 6321POPC   C2B39944   7.224  18.249   8.250
 6321POPC   C3B39945   7.199  18.203   7.950
 6321POPC   C4B39946   7.153  18.267   7.650
 6322POPC   NC339947  33.819  12.805   9.450
 6322POPC   PO439948  33.815  12.861   9.150
 6322POPC   GL139949  33.764  12.888   8.850
 6322POPC   GL239950  33.889  12.845   8.850
 6322POPC   C1A39951  33.759  12.878   8.550
 6322POPC   D2A39952  33.758  12.854   8.250
 6322POPC   C3A39953  33.816  12.808   7.950
 6322POPC   C4A39954  33.791  12.878   7.650
 6322POPC   C1B39955  34.036  12.879   8.550
 6322POPC   C2B39956  34.077  12.836   8.250
 6322POPC   C3B39957  34.056  12.882   7.950
 6322POPC   C4B39958  34.077  12.883   7.650
 6323POPC   NC339959  42.352  16.705   9.450
 6323POPC   PO439960  42.358  16.752   9.150
 6323POPC   GL139961  42.311  16.686   8.850
 6323POPC   GL239962  42.397  16.819   8.850
 6323POPC   C1A39963  42.325  16.698   8.550
 6323POPC   D2A39964  42.288  16.754   8.250
 6323POPC   C3A39965  42.357  16.715   7.950
 6323POPC   C4A39966  42.304  16.747   7.650
 6323POPC   C1B39967  42.510  16.986   8.550
 6323POPC   C2B39968  42.454  16.993   8.250
 6323POPC   C3B39969  42.419  16.948   7.950
 6323POPC   C4B39970  42.427  16.965   7.650
 6324POPC   NC339971  42.360  25.221   9.450
 6324POPC   PO439972  42.360  25.235   9.150
 6324POPC   GL139973  42.291  25.311   8.850
 6324POPC   GL239974  42.270  25.395   8.850
 6324POPC   C1A39975  42.317  25.217   8.550
 6324POPC   D2A39976  42.328  25.285   8.250
 6324POPC   C3A39977  42.330  25.249   7.950
 6324POPC   C4A39978  42.293  25.219   7.650
 6324POPC   C1B39979  42.212  25.520   8.550
 6324POPC   C2B39980  42.228  25.503   8.250
 6324POPC   C3B39981  42.243  25.447   7.950
 6324POPC   C4B39982  42.253  25.455   7.650
 6325POPC   NC339983  34.585   4.321   9.450
 6325POPC   PO439984  34.600   4.305   9.150
 6325POPC   GL139985  34.605   4.364   8.850
 6325POPC   GL239986  34.627   4.153   8.850
 6325POPC   C1A39987  34.554   4.365   8.550
 6325POPC   D2A39988  34.540   4.354   8.250
 6325POPC   C3A39989  34.596   4.355   7.950
 6325POPC   C4A39990  34.591   4.270   7.650
 6325POPC   C1B39991  34.596   4.103   8.550
 6325POPC   C2B39992  34.619   4.056   8.250
 6325POPC   C3B39993  34.631   4.096   7.950
 6325POPC   C4B39994  34.608   4.120   7.650
 6326POPC   NC339995  34.529  29.129   9.450
 6326POPC   PO439996  34.588  29.102   9.150
 6326POPC   GL139997  34.614  29.179   8.850
 6326POPC   GL239998  34.539  29.286   8.850
 6326POPC   C1A39999  34.604  29.107   8.550
 6326POPC   D2A40000  34.527  29.150   8.250
 6326POPC   C3A40001  34.536  29.131   7.950
 6326POPC   C4A40002  34.545  29.152   7.650
 6326POPC   C1B40003  34.442  29.303   8.550
 6326POPC   C2B40004  34.434  29.351   8.250
 6326POPC   C3B40005  34.379  29.379   7.950
 6326POPC   C4B40006  34.405  29.328   7.650
 6327POPC   NC340007  15.210  30.655   9.450
 6327POPC   PO440008  15.150  30.686   9.150
 6327POPC   GL140009  15.218  30.687   8.850
 6327POPC   GL240010  15.152  30.589   8.850
 6327POPC   C1A40011  15.186  30.717   8.550
 6327POPC   D2A40012  15.223  30.662   8.250
 6327POPC   C3A40013  15.162  30.720   7.950
 6327POPC   C4A40014  15.185  30.653   7.650
 6327POPC   C1B40015  15.177  30.442   8.550
 6327POPC   C2B40016  15.126  30.478   8.250
 6327POPC   C3B40017  15.099  30.410   7.950
 6327POPC   C4B40018  15.174  30.436   7.650
 6328POPC   NC340019  21.428   5.861   9.450
 6328POPC   PO440020  21.338   5.876   9.150
 6328POPC   GL140021  21.386   5.855   8.850
 6328POPC   GL240022  21.408   5.968   8.850
 6328POPC   C1A40023  21.381   5.828   8.550
 6328POPC   D2A40024  21.415   5.893   8.250
 6328POPC   C3A40025  21.407   5.842   7.950
 6328POPC   C4A40026  21.386   5.904   7.650
 6328POPC   C1B40027  21.398   6.120   8.550
 6328POPC   C2B40028  21.425   6.095   8.250
 6328POPC   C3B40029  21.412   6.128   7.950
 6328POPC   C4B40030  21.358   6.115   7.650
 6329POPC   NC340031  35.399  21.386   9.450
 6329POPC   PO440032  35.369  21.411   9.150
 6329POPC   GL140033  35.355  21.420   8.850
 6329POPC   GL240034  35.347  21.558   8.850
 6329POPC   C1A40035  35.314  21.389   8.550
 6329POPC   D2A40036  35.371  21.428   8.250
 6329POPC   C3A40037  35.370  21.393   7.950
 6329POPC   C4A40038  35.366  21.344   7.650
 6329POPC   C1B40039  35.373  21.597   8.550
 6329POPC   C2B40040  35.324  21.613   8.250
 6329POPC   C3B40041  35.407  21.608   7.950
 6329POPC   C4B40042  35.344  21.645   7.650
 6330POPC   NC340043  21.410   3.513   9.450
 6330POPC   PO440044  21.377   3.572   9.150
 6330POPC   GL140045  21.428   3.554   8.850
 6330POPC   GL240046  21.500   3.625   8.850
 6330POPC   C1A40047  21.430   3.583   8.550
 6330POPC   D2A40048  21.351   3.536   8.250
 6330POPC   C3A40049  21.339   3.511   7.950
 6330POPC   C4A40050  21.390   3.513   7.650
 6330POPC   C1B40051  21.606   3.716   8.550
 6330POPC   C2B40052  21.602   3.630   8.250
 6330POPC   C3B40053  21.582   3.662   7.950
 6330POPC   C4B40054  21.644   3.719   7.650
 6331POPC   NC340055  12.043  15.224   9.450
 6331POPC   PO440056  12.075  15.198   9.150
 6331POPC   GL140057  12.069  15.161   8.850
 6331POPC   GL240058  11.996  15.290   8.850
 6331POPC   C1A40059  12.036  15.183   8.550
 6331POPC   D2A40060  12.069  15.154   8.250
 6331POPC   C3A40061  12.099  15.174   7.950
 6331POPC   C4A40062  12.089  15.188   7.650
 6331POPC   C1B40063  11.877  15.277   8.550
 6331POPC   C2B40064  11.850  15.301   8.250
 6331POPC   C3B40065  11.892  15.269   7.950
 6331POPC   C4B40066  11.899  15.325   7.650
 6332POPC   NC340067  40.797  28.350   9.450
 6332POPC   PO440068  40.744  28.364   9.150
 6332POPC   GL140069  40.744  28.373   8.850
 6332POPC   GL240070  40.717  28.270   8.850
 6332POPC   C1A40071  40.742  28.349   8.550
 6332POPC   D2A40072  40.735  28.343   8.250
 6332POPC   C3A40073  40.809  28.387   7.950
 6332POPC   C4A40074  40.762  28.387   7.650
 6332POPC   C1B40075  40.528  28.187   8.550
 6332POPC   C2B40076  40.626  28.191   8.250
 6332POPC   C3B40077  40.593  28.231   7.950
 6332POPC   C4B40078  40.573  28.258   7.650
 6333POPC   NC340079  26.848   6.679   9.450
 6333POPC   PO440080  26.815   6.644   9.150
 6333POPC   GL140081  26.861   6.686   8.850
 6333POPC   GL240082  26.663   6.694   8.850
 6333POPC   C1A40083  26.780   6.689   8.550
 6333POPC   D2A40084  26.774   6.623   8.250
 6333POPC   C3A40085  26.791   6.610   7.950
 6333POPC   C4A40086  26.794   6.597   7.650
 6333POPC   C1B40087  26.593   6.719   8.550
 6333POPC   C2B40088  26.555   6.745   8.250
 6333POPC   C3B40089  26.608   6.784   7.950
 6333POPC   C4B40090  26.595   6.784   7.650
 6334POPC   NC340091  26.037  11.251   9.450
 6334POPC   PO440092  25.999  11.306   9.150
 6334POPC   GL140093  26.016  11.326   8.850
 6334POPC   GL240094  26.021  11.378   8.850
 6334POPC   C1A40095  25.996  11.259   8.550
 6334POPC   D2A40096  26.025  11.316   8.250
 6334POPC   C3A40097  26.037  11.328   7.950
 6334POPC   C4A40098  26.052  11.319   7.650
 6334POPC   C1B40099  26.010  11.504   8.550
 6334POPC   C2B40100  26.015  11.518   8.250
 6334POPC   C3B40101  26.023  11.562   7.950
 6334POPC   C4B40102  25.998  11.532   7.650
 6335POPC   NC340103  22.949  21.356   9.450
 6335POPC   PO440104  22.903  21.374   9.150
 6335POPC   GL140105  22.917  21.379   8.850
 6335POPC   GL240106  22.989  21.256   8.850
 6335POPC   C1A40107  22.908  21.353   8.550
 6335POPC   D2A40108  22.978  21.376   8.250
 6335POPC   C3A40109  22.948  21.346   7.950
 6335POPC   C4A40110  22.920  21.392   7.650
 6335POPC   C1B40111  22.897  21.177   8.550
 6335POPC   C2B40112  22.948  21.144   8.250
 6335POPC   C3B40113  22.966  21.137   7.950
 6335POPC   C4B40114  22.955  21.146   7.650
 6336POPC   NC340115  36.128  31.510   9.450
 6336POPC   PO440116  36.081  31.461   9.150
 6336POPC   GL140117  36.091  31.470   8.850
 6336POPC   GL240118  36.193  31.389   8.850
 6336POPC   C1A40119  36.108  31.508   8.550
 6336POPC   D2A40120  36.112  31.494   8.250
 6336POPC   C3A40121  36.144  31.492   7.950
 6336POPC   C4A40122  36.157  31.491   7.650
 6336POPC   C1B40123  36.267  31.242   8.550
 6336POPC   C2B40124  36.266  31.202   8.250
 6336POPC   C3B40125  36.233  31.210   7.950
 6336POPC   C4B40126  36.232  31.288   7.650
 6337POPC   NC340127   2.029  10.526   9.450
 6337POPC   PO440128   1.965  10.534   9.150
 6337POPC   GL140129   2.019  10.477   8.850
 6337POPC   GL240130   2.072  10.390   8.850
 6337POPC   C1A40131   1.958  10.539   8.550
 6337POPC   D2A40132   1.974  10.513   8.250
 6337POPC   C3A40133   1.995  10.486   7.950
 6337POPC   C4A40134   1.972  10.573   7.650
 6337POPC   C1B40135   2.151  10.313   8.550
 6337POPC   C2B40136   2.141  10.279   8.250
 6337POPC   C3B40137   2.173  10.285   7.950
 6337POPC   C4B40138   2.153  10.332   7.650
 6338POPC   NC340139  14.419   5.098   9.450
 6338POPC   PO440140  14.412   5.081   9.150
 6338POPC   GL140141  14.384   5.094   8.850
 6338POPC   GL240142  14.480   5.119   8.850
 6338POPC   C1A40143  14.378   5.087   8.550
 6338POPC   D2A40144  14.449   5.063   8.250
 6338POPC   C3A40145  14.367   5.127   7.950
 6338POPC   C4A40146  14.409   5.103   7.650
 6338POPC   C1B40147  14.624   5.094   8.550
 6338POPC   C2B40148  14.652   5.131   8.250
 6338POPC   C3B40149  14.607   5.088   7.950
 6338POPC   C4B40150  14.664   5.113   7.650
 6339POPC   NC340151  44.698  40.806   9.450
 6339POPC   PO440152  44.709  40.799   9.150
 6339POPC   GL140153  44.643  40.770   8.850
 6339POPC   GL240154  44.585  40.785   8.850
 6339POPC   C1A40155  44.684  40.793   8.550
 6339POPC   D2A40156  44.700  40.813   8.250
 6339POPC   C3A40157  44.630  40.766   7.950
 6339POPC   C4A40158  44.626  40.797   7.650
 6339POPC   C1B40159  44.389  40.904   8.550
 6339POPC   C2B40160  44.394  40.864   8.250
 6339POPC   C3B40161  44.443  40.820   7.950
 6339POPC   C4B40162  44.413  40.881   7.650
 6340POPC   NC340163  19.020  15.905   9.450
 6340POPC   PO440164  19.088  15.986   9.150
 6340POPC   GL140165  19.061  15.955   8.850
 6340POPC   GL240166  19.004  15.865   8.850
 6340POPC   C1A40167  19.079  15.967   8.550
 6340POPC   D2A40168  19.072  15.931   8.250
 6340POPC   C3A40169  19.065  15.976   7.950
 6340POPC   C4A40170  19.075  15.999   7.650
 6340POPC   C1B40171  18.976  15.700   8.550
 6340POPC   C2B40172  18.938  15.778   8.250
 6340POPC   C3B40173  18.909  15.699   7.950
 6340POPC   C4B40174  18.968  15.765   7.650
 6341POPC   NC340175   5.131   1.983   9.450
 6341POPC   PO440176   5.090   2.006   9.150
 6341POPC   GL140177   5.098   2.019   8.850
 6341POPC   GL240178   5.059   2.145   8.850
 6341POPC   C1A40179   5.138   1.942   8.550
 6341POPC   D2A40180   5.058   2.025   8.250
 6341POPC   C3A40181   5.131   1.986   7.950
 6341POPC   C4A40182   5.139   1.985   7.650
 6341POPC   C1B40183   4.967   2.211   8.550
 6341POPC   C2B40184   5.013   2.231   8.250
 6341POPC   C3B40185   4.992   2.257   7.950
 6341POPC   C4B40186   4.986   2.220   7.650
 6342POPC   NC340187  26.063  12.883   9.450
 6342POPC   PO440188  26.071  12.873   9.150
 6342POPC   GL140189  26.078  12.882   8.850
 6342POPC   GL240190  25.986  12.964   8.850
 6342POPC   C1A40191  25.995  12.854   8.550
 6342POPC   D2A40192  26.069  12.820   8.250
 6342POPC   C3A40193  26.078  12.806   7.950
 6342POPC   C4A40194  26.026  12.851   7.650
 6342POPC   C1B40195  25.881  13.014   8.550
 6342POPC   C2B40196  25.869  13.062   8.250
 6342POPC   C3B40197  25.842  13.067   7.950
 6342POPC   C4B40198  25.891  13.035   7.650
 6343POPC   NC340199  27.597   5.900   9.450
 6343POPC   PO440200  27.593   5.825   9.150
 6343POPC   GL140201  27.569   5.913   8.850
 6343POPC   GL240202  27.630   5.964   8.850
 6343POPC   C1A40203  27.579   5.843   8.550
 6343POPC   D2A40204  27.554   5.893   8.250
 6343POPC   C3A40205  27.574   5.883   7.950
 6343POPC   C4A40206  27.569   5.867   7.650
 6343POPC   C1B40207  27.663   6.119   8.550
 6343POPC   C2B40208  27.652   6.108   8.250
 6343POPC   C3B40209  27.687   6.062   7.950
 6343POPC   C4B40210  27.689   6.071   7.650
 6344POPC   NC340211  12.103  22.904   9.450
 6344POPC   PO440212  12.032  22.915   9.150
 6344POPC   GL140213  12.047  22.910   8.850
 6344POPC   GL240214  12.143  23.067   8.850
 6344POPC   C1A40215  12.107  22.972   8.550
 6344POPC   D2A40216  12.075  22.894   8.250
 6344POPC   C3A40217  12.076  22.952   7.950
 6344POPC   C4A40218  12.114  22.967   7.650
 6344POPC   C1B40219  12.256  23.162   8.550
 6344POPC   C2B40220  12.233  23.165   8.250
 6344POPC   C3B40221  12.249  23.109   7.950
 6344POPC   C4B40222  12.238  23.159   7.650
 6345POPC   NC340223  35.381  26.776   9.450
 6345POPC   PO440224  35.360  26.801   9.150
 6345POPC   GL140225  35.348  26.818   8.850
 6345POPC   GL240226  35.260  26.905   8.850
 6345POPC   C1A40227  35.370  26.768   8.550
 6345POPC   D2A40228  35.317  26.769   8.250
 6345POPC   C3A40229  35.395  26.832   7.950
 6345POPC   C4A40230  35.344  26.831   7.650
 6345POPC   C1B40231  35.278  27.074   8.550
 6345POPC   C2B40232  35.214  27.016   8.250
 6345POPC   C3B40233  35.239  27.048   7.950
 6345POPC   C4B40234  35.266  27.062   7.650
 6346POPC   NC340235   0.475  11.307   9.450
 6346POPC   PO440236   0.458  11.285   9.150
 6346POPC   GL140237   0.405  11.266   8.850
 6346POPC   GL240238   0.562  11.174   8.850
 6346POPC   C1A40239   0.445  11.328   8.550
 6346POPC   D2A40240   0.467  11.312   8.250
 6346POPC   C3A40241   0.392  11.290   7.950
 6346POPC   C4A40242   0.433  11.295   7.650
 6346POPC   C1B40243   0.590  11.135   8.550
 6346POPC   C2B40244   0.601  11.156   8.250
 6346POPC   C3B40245   0.599  11.167   7.950
 6346POPC   C4B40246   0.594  11.123   7.650
 6347POPC   NC340247   1.252   2.815   9.450
 6347POPC   PO440248   1.220   2.775   9.150
 6347POPC   GL140249   1.251   2.761   8.850
 6347POPC   GL240250   1.333   2.668   8.850
 6347POPC   C1A40251   1.172   2.723   8.550
 6347POPC   D2A40252   1.260   2.787   8.250
 6347POPC   C3A40253   1.217   2.785   7.950
 6347POPC   C4A40254   1.246   2.727   7.650
 6347POPC   C1B40255   1.336   2.595   8.550
 6347POPC   C2B40256   1.383   2.561   8.250
 6347POPC   C3B40257   1.378   2.585   7.950
 6347POPC   C4B40258   1.401   2.580   7.650
 6348POPC   NC340259   9.742   8.998   9.450
 6348POPC   PO440260   9.798   9.012   9.150
 6348POPC   GL140261   9.788   8.942   8.850
 6348POPC   GL240262   9.738   9.079   8.850
 6348POPC   C1A40263   9.729   9.016   8.550
 6348POPC   D2A40264   9.783   9.014   8.250
 6348POPC   C3A40265   9.781   8.979   7.950
 6348POPC   C4A40266   9.702   8.994   7.650
 6348POPC   C1B40267   9.745   9.224   8.550
 6348POPC   C2B40268   9.776   9.219   8.250
 6348POPC   C3B40269   9.719   9.201   7.950
 6348POPC   C4B40270   9.764   9.268   7.650
 6349POPC   NC340271   3.495  39.268   9.450
 6349POPC   PO440272   3.576  39.255   9.150
 6349POPC   GL140273   3.537  39.213   8.850
 6349POPC   GL240274   3.644  39.086   8.850
 6349POPC   C1A40275   3.553  39.213   8.550
 6349POPC   D2A40276   3.531  39.264   8.250
 6349POPC   C3A40277   3.574  39.220   7.950
 6349POPC   C4A40278   3.563  39.237   7.650
 6349POPC   C1B40279   3.669  39.046   8.550
 6349POPC   C2B40280   3.711  38.972   8.250
 6349POPC   C3B40281   3.682  38.979   7.950
 6349POPC   C4B40282   3.726  39.034   7.650
 6350POPC   NC340283   8.923  40.734   9.450
 6350POPC   PO440284   8.966  40.812   9.150
 6350POPC   GL140285   8.926  40.793   8.850
 6350POPC   GL240286   9.018  40.897   8.850
 6350POPC   C1A40287   8.941  40.736   8.550
 6350POPC   D2A40288   8.942  40.781   8.250
 6350POPC   C3A40289   8.951  40.794   7.950
 6350POPC   C4A40290   8.939  40.820   7.650
 6350POPC   C1B40291   9.208  40.970   8.550
 6350POPC   C2B40292   9.159  40.967   8.250
 6350POPC   C3B40293   9.121  40.965   7.950
 6350POPC   C4B40294   9.159  40.974   7.650
 6351POPC   NC340295  34.542  36.173   9.450
 6351POPC   PO440296  34.528  36.117   9.150
 6351POPC   GL140297  34.573  36.117   8.850
 6351POPC   GL240298  34.442  36.160   8.850
 6351POPC   C1A40299  34.573  36.120   8.550
 6351POPC   D2A40300  34.613  36.155   8.250
 6351POPC   C3A40301  34.600  36.082   7.950
 6351POPC   C4A40302  34.560  36.086   7.650
 6351POPC   C1B40303  34.324  36.116   8.550
 6351POPC   C2B40304  34.346  36.204   8.250
 6351POPC   C3B40305  34.355  36.136   7.950
 6351POPC   C4B40306  34.339  36.130   7.650
 6352POPC   NC340307  35.341  19.857   9.450
 6352POPC   PO440308  35.317  19.824   9.150
 6352POPC   GL140309  35.353  19.814   8.850
 6352POPC   GL240310  35.309  19.973   8.850
 6352POPC   C1A40311  35.350  19.857   8.550
 6352POPC   D2A40312  35.365  19.884   8.250
 6352POPC   C3A40313  35.348  19.877   7.950
 6352POPC   C4A40314  35.365  19.811   7.650
 6352POPC   C1B40315  35.343  20.032   8.550
 6352POPC   C2B40316  35.274  20.091   8.250
 6352POPC   C3B40317  35.283  20.029   7.950
 6352POPC   C4B40318  35.317  20.046   7.650
 6353POPC   NC340319   7.452  21.391   9.450
 6353POPC   PO440320   7.379  21.363   9.150
 6353POPC   GL140321   7.449  21.354   8.850
 6353POPC   GL240322   7.425  21.524   8.850
 6353POPC   C1A40323   7.383  21.342   8.550
 6353POPC   D2A40324   7.372  21.376   8.250
 6353POPC   C3A40325   7.452  21.382   7.950
 6353POPC   C4A40326   7.406  21.337   7.650
 6353POPC   C1B40327   7.400  21.680   8.550
 6353POPC   C2B40328   7.422  21.639   8.250
 6353POPC   C3B40329   7.344  21.618   7.950
 6353POPC   C4B40330   7.403  21.624   7.650
 6354POPC   NC340331  30.741   5.872   9.450
 6354POPC   PO440332  30.682   5.853   9.150
 6354POPC   GL140333  30.714   5.887   8.850
 6354POPC   GL240334  30.586   5.989   8.850
 6354POPC   C1A40335  30.727   5.917   8.550
 6354POPC   D2A40336  30.714   5.857   8.250
 6354POPC   C3A40337  30.733   5.904   7.950
 6354POPC   C4A40338  30.665   5.864   7.650
 6354POPC   C1B40339  30.496   6.072   8.550
 6354POPC   C2B40340  30.566   6.088   8.250
 6354POPC   C3B40341  30.559   6.075   7.950
 6354POPC   C4B40342  30.519   6.056   7.650
 6355POPC   NC340343  39.269   1.194   9.450
 6355POPC   PO440344  39.231   1.233   9.150
 6355POPC   GL140345  39.223   1.227   8.850
 6355POPC   GL240346  39.112   1.250   8.850
 6355POPC   C1A40347  39.208   1.218   8.550
 6355POPC   D2A40348  39.225   1.190   8.250
 6355POPC   C3A40349  39.245   1.235   7.950
 6355POPC   C4A40350  39.251   1.250   7.650
 6355POPC   C1B40351  38.966   1.278   8.550
 6355POPC   C2B40352  38.985   1.324   8.250
 6355POPC   C3B40353  39.003   1.285   7.950
 6355POPC   C4B40354  39.005   1.238   7.650
 6356POPC   NC340355  43.158  41.531   9.450
 6356POPC   PO440356  43.155  41.558   9.150
 6356POPC   GL140357  43.062  41.537   8.850
 6356POPC   GL240358  43.068  41.647   8.850
 6356POPC   C1A40359  43.108  41.521   8.550
 6356POPC   D2A40360  43.120  41.565   8.250
 6356POPC   C3A40361  43.137  41.541   7.950
 6356POPC   C4A40362  43.119  41.539   7.650
 6356POPC   C1B40363  43.165  41.804   8.550
 6356POPC   C2B40364  43.091  41.850   8.250
 6356POPC   C3B40365  43.134  41.795   7.950
 6356POPC   C4B40366  43.113  41.842   7.650
 6357POPC   NC340367  12.855  44.703   9.450
 6357POPC   PO440368  12.874  44.701   9.150
 6357POPC   GL140369  12.897  44.619   8.850
 6357POPC   GL240370  12.970  44.704   8.850
 6357POPC   C1A40371  12.840  44.705   8.550
 6357POPC   D2A40372  12.898  44.644   8.250
 6357POPC   C3A40373  12.854  44.623   7.950
 6357POPC   C4A40374  12.876  44.627   7.650
 6357POPC   C1B40375  13.030  44.815   8.550
 6357POPC   C2B40376  13.024  44.845   8.250
 6357POPC   C3B40377  13.092  44.799   7.950
 6357POPC   C4B40378  13.062  44.832   7.650
 6358POPC   NC340379  10.552   3.576   9.450
 6358POPC   PO440380  10.529   3.516   9.150
 6358POPC   GL140381  10.501   3.545   8.850
 6358POPC   GL240382  10.500   3.654   8.850
 6358POPC   C1A40383  10.566   3.553   8.550
 6358POPC   D2A40384  10.487   3.502   8.250
 6358POPC   C3A40385  10.556   3.554   7.950
 6358POPC   C4A40386  10.539   3.555   7.650
 6358POPC   C1B40387  10.426   3.771   8.550
 6358POPC   C2B40388  10.442   3.795   8.250
 6358POPC   C3B40389  10.362   3.800   7.950
 6358POPC   C4B40390  10.357   3.744   7.650
 6359POPC   NC340391  36.126  26.820   9.450
 6359POPC   PO440392  36.084  26.795   9.150
 6359POPC   GL140393  36.154  26.800   8.850
 6359POPC   GL240394  36.221  26.854   8.850
 6359POPC   C1A40395  36.147  26.828   8.550
 6359POPC   D2A40396  36.171  26.866   8.250
 6359POPC   C3A40397  36.103  26.850   7.950
 6359POPC   C4A40398  36.097  26.829   7.650
 6359POPC   C1B40399  36.342  26.756   8.550
 6359POPC   C2B40400  36.366  26.842   8.250
 6359POPC   C3B40401  36.415  26.771   7.950
 6359POPC   C4B40402  36.348  26.791   7.650
 6360POPC   NC340403  12.804  33.014   9.450
 6360POPC   PO440404  12.873  33.068   9.150
 6360POPC   GL140405  12.892  32.994   8.850
 6360POPC   GL240406  12.862  32.897   8.850
 6360POPC   C1A40407  12.898  32.976   8.550
 6360POPC   D2A40408  12.845  33.005   8.250
 6360POPC   C3A40409  12.845  33.051   7.950
 6360POPC   C4A40410  12.827  33.064   7.650
 6360POPC   C1B40411  12.870  32.761   8.550
 6360POPC   C2B40412  12.907  32.776   8.250
 6360POPC   C3B40413  12.930  32.792   7.950
 6360POPC   C4B40414  12.849  32.784   7.650
 6361POPC   NC340415  31.497  30.680   9.450
 6361POPC   PO440416  31.507  30.695   9.150
 6361POPC   GL140417  31.433  30.681   8.850
 6361POPC   GL240418  31.372  30.577   8.850
 6361POPC   C1A40419  31.479  30.672   8.550
 6361POPC   D2A40420  31.469  30.676   8.250
 6361POPC   C3A40421  31.435  30.685   7.950
 6361POPC   C4A40422  31.450  30.714   7.650
 6361POPC   C1B40423  31.337  30.439   8.550
 6361POPC   C2B40424  31.342  30.450   8.250
 6361POPC   C3B40425  31.389  30.511   7.950
 6361POPC   C4B40426  31.364  30.436   7.650
 6362POPC   NC340427   8.949   1.248   9.450
 6362POPC   PO440428   8.933   1.198   9.150
 6362POPC   GL140429   8.939   1.220   8.850
 6362POPC   GL240430   8.835   1.158   8.850
 6362POPC   C1A40431   8.947   1.177   8.550
 6362POPC   D2A40432   9.008   1.189   8.250
 6362POPC   C3A40433   8.931   1.243   7.950
 6362POPC   C4A40434   8.940   1.249   7.650
 6362POPC   C1B40435   8.703   1.151   8.550
 6362POPC   C2B40436   8.763   1.130   8.250
 6362POPC   C3B40437   8.714   1.117   7.950
 6362POPC   C4B40438   8.710   1.151   7.650
 6363POPC   NC340439  32.244   9.788   9.450
 6363POPC   PO440440  32.269   9.735   9.150
 6363POPC   GL140441  32.231   9.791   8.850
 6363POPC   GL240442  32.249   9.660   8.850
 6363POPC   C1A40443  32.227   9.790   8.550
 6363POPC   D2A40444  32.240   9.729   8.250
 6363POPC   C3A40445  32.293   9.759   7.950
 6363POPC   C4A40446  32.233   9.784   7.650
 6363POPC   C1B40447  32.378   9.560   8.550
 6363POPC   C2B40448  32.381   9.522   8.250
 6363POPC   C3B40449  32.344   9.526   7.950
 6363POPC   C4B40450  32.348   9.470   7.650
 6364POPC   NC340451  37.691  32.205   9.450
 6364POPC   PO440452  37.705  32.291   9.150
 6364POPC   GL140453  37.684  32.255   8.850
 6364POPC   GL240454  37.845  32.278   8.850
 6364POPC   C1A40455  37.684  32.274   8.550
 6364POPC   D2A40456  37.674  32.268   8.250
 6364POPC   C3A40457  37.693  32.201   7.950
 6364POPC   C4A40458  37.703  32.238   7.650
 6364POPC   C1B40459  37.978  32.188   8.550
 6364POPC   C2B40460  37.918  32.267   8.250
 6364POPC   C3B40461  37.960  32.266   7.950
 6364POPC   C4B40462  37.951  32.181   7.650
 6365POPC   NC340463   1.238   7.450   9.450
 6365POPC   PO440464   1.262   7.450   9.150
 6365POPC   GL140465   1.253   7.467   8.850
 6365POPC   GL240466   1.179   7.347   8.850
 6365POPC   C1A40467   1.217   7.432   8.550
 6365POPC   D2A40468   1.199   7.427   8.250
 6365POPC   C3A40469   1.190   7.466   7.950
 6365POPC   C4A40470   1.196   7.429   7.650
 6365POPC   C1B40471   1.130   7.167   8.550
 6365POPC   C2B40472   1.197   7.204   8.250
 6365POPC   C3B40473   1.127   7.155   7.950
 6365POPC   C4B40474   1.156   7.171   7.650
 6366POPC   NC340475   8.981  24.455   9.450
 6366POPC   PO440476   8.959  24.515   9.150
 6366POPC   GL140477   9.011  24.528   8.850
 6366POPC   GL240478   9.006  24.566   8.850
 6366POPC   C1A40479   8.961  24.459   8.550
 6366POPC   D2A40480   8.997  24.453   8.250
 6366POPC   C3A40481   9.005  24.458   7.950
 6366POPC   C4A40482   8.950  24.476   7.650
 6366POPC   C1B40483   8.915  24.786   8.550
 6366POPC   C2B40484   8.940  24.769   8.250
 6366POPC   C3B40485   8.919  24.773   7.950
 6366POPC   C4B40486   8.939  24.768   7.650
 6367POPC   NC340487  29.114  39.984   9.450
 6367POPC   PO440488  29.117  40.044   9.150
 6367POPC   GL140489  29.095  40.012   8.850
 6367POPC   GL240490  29.039  39.857   8.850
 6367POPC   C1A40491  29.119  39.957   8.550
 6367POPC   D2A40492  29.148  40.006   8.250
 6367POPC   C3A40493  29.172  40.016   7.950
 6367POPC   C4A40494  29.096  39.992   7.650
 6367POPC   C1B40495  29.038  39.831   8.550
 6367POPC   C2B40496  29.058  39.766   8.250
 6367POPC   C3B40497  29.061  39.741   7.950
 6367POPC   C4B40498  29.064  39.822   7.650
 6368POPC   NC340499  16.718  12.124   9.450
 6368POPC   PO440500  16.700  12.088   9.150
 6368POPC   GL140501  16.772  12.064   8.850
 6368POPC   GL240502  16.709  12.240   8.850
 6368POPC   C1A40503  16.742  12.042   8.550
 6368POPC   D2A40504  16.687  12.040   8.250
 6368POPC   C3A40505  16.706  12.108   7.950
 6368POPC   C4A40506  16.719  12.114   7.650
 6368POPC   C1B40507  16.820  12.357   8.550
 6368POPC   C2B40508  16.783  12.334   8.250
 6368POPC   C3B40509  16.745  12.302   7.950
 6368POPC   C4B40510  16.766  12.286   7.650
 6369POPC   NC340511  26.052   4.271   9.450
 6369POPC   PO440512  26.070   4.295   9.150
 6369POPC   GL140513  26.030   4.323   8.850
 6369POPC   GL240514  25.900   4.224   8.850
 6369POPC   C1A40515  26.058   4.349   8.550
 6369POPC   D2A40516  26.082   4.277   8.250
 6369POPC   C3A40517  26.085   4.287   7.950
 6369POPC   C4A40518  26.044   4.271   7.650
 6369POPC   C1B40519  25.802   4.169   8.550
 6369POPC   C2B40520  25.858   4.199   8.250
 6369POPC   C3B40521  25.788   4.214   7.950
 6369POPC   C4B40522  25.849   4.194   7.650
 6370POPC   NC340523  31.482  34.605   9.450
 6370POPC   PO440524  31.473  34.566   9.150
 6370POPC   GL140525  31.466  34.590   8.850
 6370POPC   GL240526  31.356  34.575   8.850
 6370POPC   C1A40527  31.444  34.537   8.550
 6370POPC   D2A40528  31.452  34.626   8.250
 6370POPC   C3A40529  31.455  34.580   7.950
 6370POPC   C4A40530  31.503  34.613   7.650
 6370POPC   C1B40531  31.224  34.596   8.550
 6370POPC   C2B40532  31.203  34.593   8.250
 6370POPC   C3B40533  31.264  34.647   7.950
 6370POPC   C4B40534  31.220  34.658   7.650
 6371POPC   NC340535   9.763  32.258   9.450
 6371POPC   PO440536   9.783  32.294   9.150
 6371POPC   GL140537   9.784  32.229   8.850
 6371POPC   GL240538   9.747  32.362   8.850
 6371POPC   C1A40539   9.780  32.204   8.550
 6371POPC   D2A40540   9.775  32.221   8.250
 6371POPC   C3A40541   9.789  32.231   7.950
 6371POPC   C4A40542   9.789  32.251   7.650
 6371POPC   C1B40543   9.814  32.446   8.550
 6371POPC   C2B40544   9.857  32.459   8.250
 6371POPC   C3B40545   9.853  32.464   7.950
 6371POPC   C4B40546   9.854  32.487   7.650
 6372POPC   NC340547  12.079  14.413   9.450
 6372POPC   PO440548  12.075  14.438   9.150
 6372POPC   GL140549  12.083  14.417   8.850
 6372POPC   GL240550  12.123  14.284   8.850
 6372POPC   C1A40551  12.102  14.414   8.550
 6372POPC   D2A40552  12.068  14.432   8.250
 6372POPC   C3A40553  12.072  14.384   7.950
 6372POPC   C4A40554  12.123  14.375   7.650
 6372POPC   C1B40555  12.144  14.187   8.550
 6372POPC   C2B40556  12.105  14.116   8.250
 6372POPC   C3B40557  12.153  14.196   7.950
 6372POPC   C4B40558  12.160  14.158   7.650
 6373POPC   NC340559  31.515  20.615   9.450
 6373POPC   PO440560  31.515  20.618   9.150
 6373POPC   GL140561  31.445  20.591   8.850
 6373POPC   GL240562  31.528  20.753   8.850
 6373POPC   C1A40563  31.453  20.583   8.550
 6373POPC   D2A40564  31.433  20.648   8.250
 6373POPC   C3A40565  31.495  20.633   7.950
 6373POPC   C4A40566  31.469  20.640   7.650
 6373POPC   C1B40567  31.495  20.855   8.550
 6373POPC   C2B40568  31.463  20.885   8.250
 6373POPC   C3B40569  31.516  20.840   7.950
 6373POPC   C4B40570  31.464  20.904   7.650
 6374POPC   NC340571   0.446   6.687   9.450
 6374POPC   PO440572   0.408   6.665   9.150
 6374POPC   GL140573   0.475   6.675   8.850
 6374POPC   GL240574   0.483   6.805   8.850
 6374POPC   C1A40575   0.473   6.683   8.550
 6374POPC   D2A40576   0.443   6.644   8.250
 6374POPC   C3A40577   0.394   6.596   7.950
 6374POPC   C4A40578   0.474   6.640   7.650
 6374POPC   C1B40579   0.388   6.847   8.550
 6374POPC   C2B40580   0.460   6.852   8.250
 6374POPC   C3B40581   0.462   6.894   7.950
 6374POPC   C4B40582   0.406   6.932   7.650
 6375POPC   NC340583   5.106  10.563   9.450
 6375POPC   PO440584   5.074  10.495   9.150
 6375POPC   GL140585   5.133  10.542   8.850
 6375POPC   GL240586   5.163  10.420   8.850
 6375POPC   C1A40587   5.076  10.479   8.550
 6375POPC   D2A40588   5.107  10.501   8.250
 6375POPC   C3A40589   5.052  10.530   7.950
 6375POPC   C4A40590   5.128  10.502   7.650
 6375POPC   C1B40591   5.264  10.282   8.550
 6375POPC   C2B40592   5.256  10.319   8.250
 6375POPC   C3B40593   5.196  10.331   7.950
 6375POPC   C4B40594   5.204  10.336   7.650
 6376POPC   NC340595  33.803  19.803   5.550
 6376POPC   PO440596  33.809  19.836   5.850
 6376POPC   GL140597  33.847  19.810   6.150
 6376POPC   GL240598  33.843  19.946   6.150
 6376POPC   C1A40599  33.830  19.884   6.450
 6376POPC   D2A40600  33.827  19.802   6.750
 6376POPC   C3A40601  33.780  19.884   7.050
 6376POPC   C4A40602  33.810  19.843   7.350
 6376POPC   C1B40603  33.899  20.098   6.450
 6376POPC   C2B40604  33.952  20.017   6.750
 6376POPC   C3B40605  33.877  20.100   7.050
 6376POPC   C4B40606  33.876  20.036   7.350
 6377POPC   NC340607   1.204  31.497   5.550
 6377POPC   PO440608   1.225  31.514   5.850
 6377POPC   GL140609   1.252  31.471   6.150
 6377POPC   GL240610   1.339  31.564   6.150
 6377POPC   C1A40611   1.223  31.432   6.450
 6377POPC   D2A40612   1.200  31.425   6.750
 6377POPC   C3A40613   1.251  31.446   7.050
 6377POPC   C4A40614   1.174  31.495   7.350
 6377POPC   C1B40615   1.386  31.623   6.450
 6377POPC   C2B40616   1.374  31.619   6.750
 6377POPC   C3B40617   1.342  31.643   7.050
 6377POPC   C4B40618   1.343  31.672   7.350
 6378POPC   NC340619  26.078  41.526   5.550
 6378POPC   PO440620  26.033  41.586   5.850
 6378POPC   GL140621  26.062  41.540   6.150
 6378POPC   GL240622  25.984  41.601   6.150
 6378POPC   C1A40623  26.003  41.608   6.450
 6378POPC   D2A40624  26.023  41.565   6.750
 6378POPC   C3A40625  26.085  41.547   7.050
 6378POPC   C4A40626  26.066  41.583   7.350
 6378POPC   C1B40627  25.811  41.734   6.450
 6378POPC   C2B40628  25.830  41.672   6.750
 6378POPC   C3B40629  25.869  41.741   7.050
 6378POPC   C4B40630  25.846  41.718   7.350
 6379POPC   NC340631   3.585  26.811   5.550
 6379POPC   PO440632   3.520  26.781   5.850
 6379POPC   GL140633   3.495  26.859   6.150
 6379POPC   GL240634   3.578  26.710   6.150
 6379POPC   C1A40635   3.547  26.810   6.450
 6379POPC   D2A40636   3.500  26.781   6.750
 6379POPC   C3A40637   3.538  26.842   7.050
 6379POPC   C4A40638   3.532  26.775   7.350
 6379POPC   C1B40639   3.528  26.554   6.450
 6379POPC   C2B40640   3.542  26.612   6.750
 6379POPC   C3B40641   3.520  26.564   7.050
 6379POPC   C4B40642   3.560  26.559   7.350
 6380POPC   NC340643   9.772  39.259   5.550
 6380POPC   PO440644   9.757  39.254   5.850
 6380POPC   GL140645   9.714  39.206   6.150
 6380POPC   GL240646   9.816  39.358   6.150
 6380POPC   C1A40647   9.712  39.192   6.450
 6380POPC   D2A40648   9.720  39.217   6.750
 6380POPC   C3A40649   9.755  39.210   7.050
 6380POPC   C4A40650   9.773  39.187   7.350
 6380POPC   C1B40651   9.810  39.491   6.450
 6380POPC   C2B40652   9.887  39.421   6.750
 6380POPC   C3B40653   9.838  39.462   7.050
 6380POPC   C4B40654   9.893  39.463   7.350
 6381POPC   NC340655  12.064   8.987   5.550
 6381POPC   PO440656  12.093   8.987   5.850
 6381POPC   GL140657  12.074   8.966   6.150
 6381POPC   GL240658  12.125   8.873   6.150
 6381POPC   C1A40659  12.094   8.945   6.450
 6381POPC   D2A40660  12.072   9.010   6.750
 6381POPC   C3A40661  12.054   9.010   7.050
 6381POPC   C4A40662  12.104   8.978   7.350
 6381POPC   C1B40663  12.141   8.699   6.450
 6381POPC   C2B40664  12.193   8.749   6.750
 6381POPC   C3B40665  12.143   8.715   7.050
 6381POPC   C4B40666  12.191   8.769   7.350
 6382POPC   NC340667  36.931  34.601   5.550
 6382POPC   PO440668  36.945  34.595   5.850
 6382POPC   GL140669  36.913  34.582   6.150
 6382POPC   GL240670  36.941  34.686   6.150
 6382POPC   C1A40671  36.873  34.533   6.450
 6382POPC   D2A40672  36.893  34.559   6.750
 6382POPC   C3A40673  36.874  34.560   7.050
 6382POPC   C4A40674  36.916  34.567   7.350
 6382POPC   C1B40675  36.986  34.780   6.450
 6382POPC   C2B40676  36.993  34.779   6.750
 6382POPC   C3B40677  37.013  34.864   7.050
 6382POPC   C4B40678  36.935  34.779   7.350
 6383POPC   NC340679  24.448  11.294   5.550
 6383POPC   PO440680  24.444  11.300   5.850
 6383POPC   GL140681  24.537  11.326   6.150
 6383POPC   GL240682  24.635  11.366   6.150
 6383POPC   C1A40683  24.467  11.321   6.450
 6383POPC   D2A40684  24.527  11.285   6.750
 6383POPC   C3A40685  24.534  11.316   7.050
 6383POPC   C4A40686  24.523  11.306   7.350
 6383POPC   C1B40687  24.720  11.375   6.450
 6383POPC   C2B40688  24.688  11.416   6.750
 6383POPC   C3B40689  24.701  11.421   7.050
 6383POPC   C4B40690  24.733  11.397   7.350
 6384POPC   NC340691  43.124  26.034   5.550
 6384POPC   PO440692  43.152  26.039   5.850
 6384POPC   GL140693  43.096  26.089   6.150
 6384POPC   GL240694  43.022  26.107   6.150
 6384POPC   C1A40695  43.148  26.047   6.450
 6384POPC   D2A40696  43.070  26.084   6.750
 6384POPC   C3A40697  43.112  26.052   7.050
 6384POPC   C4A40698  43.084  26.088   7.350
 6384POPC   C1B40699  42.957  26.230   6.450
 6384POPC   C2B40700  42.993  26.280   6.750
 6384POPC   C3B40701  42.983  26.278   7.050
 6384POPC   C4B40702  42.959  26.268   7.350
 6385POPC   NC340703  32.261   7.379   5.550
 6385POPC   PO440704  32.282   7.468   5.850
 6385POPC   GL140705  32.240   7.433   6.150
 6385POPC   GL240706  32.157   7.478   6.150
 6385POPC   C1A40707  32.282   7.445   6.450
 6385POPC   D2A40708  32.232   7.458   6.750
 6385POPC   C3A40709  32.239   7.418   7.050
 6385POPC   C4A40710  32.295   7.374   7.350
 6385POPC   C1B40711  32.002   7.546   6.450
 6385POPC   C2B40712  32.032   7.496   6.750
 6385POPC   C3B40713  32.052   7.572   7.050
 6385POPC   C4B40714  32.032   7.518   7.350
 6386POPC   NC340715  17.528  39.272   5.550
 6386POPC   PO440716  17.498  39.263   5.850
 6386POPC   GL140717  17.548  39.201   6.150
 6386POPC   GL240718  17.448  39.149   6.150
 6386POPC   C1A40719  17.464  39.227   6.450
 6386POPC   D2A40720  17.540  39.198   6.750
 6386POPC   C3A40721  17.510  39.202   7.050
 6386POPC   C4A40722  17.498  39.216   7.350
 6386POPC   C1B40723  17.339  39.101   6.450
 6386POPC   C2B40724  17.280  39.130   6.750
 6386POPC   C3B40725  17.323  39.064   7.050
 6386POPC   C4B40726  17.278  39.108   7.350
 6387POPC   NC340727  20.645  33.026   5.550
 6387POPC   PO440728  20.623  33.020   5.850
 6387POPC   GL140729  20.650  33.016   6.150
 6387POPC   GL240730  20.468  33.093   6.150
 6387POPC   C1A40731  20.582  33.031   6.450
 6387POPC   D2A40732  20.599  33.051   6.750
 6387POPC   C3A40733  20.587  33.072   7.050
 6387POPC   C4A40734  20.571  33.064   7.350
 6387POPC   C1B40735  20.417  33.139   6.450
 6387POPC   C2B40736  20.368  33.144   6.750
 6387POPC   C3B40737  20.426  33.140   7.050
 6387POPC   C4B40738  20.351  33.182   7.350
 6388POPC   NC340739  26.022  13.671   5.550
 6388POPC   PO440740  26.067  13.587   5.850
 6388POPC   GL140741  26.063  13.646   6.150
 6388POPC   GL240742  26.019  13.720   6.150
 6388POPC   C1A40743  26.034  13.622   6.450
 6388POPC   D2A40744  26.075  13.632   6.750
 6388POPC   C3A40745  26.026  13.659   7.050
 6388POPC   C4A40746  26.012  13.673   7.350
 6388POPC   C1B40747  25.960  13.846   6.450
 6388POPC   C2B40748  25.885  13.841   6.750
 6388POPC   C3B40749  25.874  13.803   7.050
 6388POPC   C4B40750  25.929  13.859   7.350
 6389POPC   NC340751  44.668   3.540   5.550
 6389POPC   PO440752  44.640   3.569   5.850
 6389POPC   GL140753  44.626   3.569   6.150
 6389POPC   GL240754  44.642   3.632   6.150
 6389POPC   C1A40755  44.639   3.555   6.450
 6389POPC   D2A40756  44.636   3.507   6.750
 6389POPC   C3A40757  44.621   3.573   7.050
 6389POPC   C4A40758  44.691   3.538   7.350
 6389POPC   C1B40759  44.603   3.781   6.450
 6389POPC   C2B40760  44.621   3.834   6.750
 6389POPC   C3B40761  44.599   3.781   7.050
 6389POPC   C4B40762  44.687   3.780   7.350
 6390POPC   NC340763  10.529  28.366   5.550
 6390POPC   PO440764  10.494  28.322   5.850
 6390POPC   GL140765  10.534  28.356   6.150
 6390POPC   GL240766  10.437  28.304   6.150
 6390POPC   C1A40767  10.490  28.414   6.450
 6390POPC   D2A40768  10.561  28.385   6.750
 6390POPC   C3A40769  10.532  28.402   7.050
 6390POPC   C4A40770  10.475  28.331   7.350
 6390POPC   C1B40771  10.270  28.258   6.450
 6390POPC   C2B40772  10.310  28.279   6.750
 6390POPC   C3B40773  10.263  28.237   7.050
 6390POPC   C4B40774  10.340  28.218   7.350
 6391POPC   NC340775   6.609  22.920   5.550
 6391POPC   PO440776   6.624  22.896   5.850
 6391POPC   GL140777   6.664  22.916   6.150
 6391POPC   GL240778   6.602  23.051   6.150
 6391POPC   C1A40779   6.654  22.909   6.450
 6391POPC   D2A40780   6.614  22.985   6.750
 6391POPC   C3A40781   6.610  22.916   7.050
 6391POPC   C4A40782   6.657  22.946   7.350
 6391POPC   C1B40783   6.562  23.190   6.450
 6391POPC   C2B40784   6.584  23.175   6.750
 6391POPC   C3B40785   6.559  23.194   7.050
 6391POPC   C4B40786   6.579  23.175   7.350
 6392POPC   NC340787  32.236  43.066   5.550
 6392POPC   PO440788  32.238  43.160   5.850
 6392POPC   GL140789  32.273  43.093   6.150
 6392POPC   GL240790  32.145  43.009   6.150
 6392POPC   C1A40791  32.200  43.068   6.450
 6392POPC   D2A40792  32.292  43.066   6.750
 6392POPC   C3A40793  32.276  43.158   7.050
 6392POPC   C4A40794  32.215  43.129   7.350
 6392POPC   C1B40795  32.024  43.009   6.450
 6392POPC   C2B40796  32.013  43.029   6.750
 6392POPC   C3B40797  32.076  43.020   7.050
 6392POPC   C4B40798  32.063  43.013   7.350
 6393POPC   NC340799   2.036  23.712   5.550
 6393POPC   PO440800   2.012  23.677   5.850
 6393POPC   GL140801   1.974  23.683   6.150
 6393POPC   GL240802   2.125  23.709   6.150
 6393POPC   C1A40803   1.962  23.664   6.450
 6393POPC   D2A40804   1.986  23.737   6.750
 6393POPC   C3A40805   2.018  23.671   7.050
 6393POPC   C4A40806   2.006  23.733   7.350
 6393POPC   C1B40807   2.280  23.697   6.450
 6393POPC   C2B40808   2.216  23.758   6.750
 6393POPC   C3B40809   2.190  23.752   7.050
 6393POPC   C4B40810   2.272  23.746   7.350
 6394POPC   NC340811  19.106  30.663   5.550
 6394POPC   PO440812  19.105  30.735   5.850
 6394POPC   GL140813  19.013  30.680   6.150
 6394POPC   GL240814  19.127  30.608   6.150
 6394POPC   C1A40815  19.018  30.658   6.450
 6394POPC   D2A40816  19.039  30.711   6.750
 6394POPC   C3A40817  19.072  30.673   7.050
 6394POPC   C4A40818  19.067  30.656   7.350
 6394POPC   C1B40819  19.249  30.577   6.450
 6394POPC   C2B40820  19.217  30.582   6.750
 6394POPC   C3B40821  19.310  30.512   7.050
 6394POPC   C4B40822  19.218  30.582   7.350
 6395POPC   NC340823  10.549  44.670   5.550
 6395POPC   PO440824  10.520  44.680   5.850
 6395POPC   GL140825  10.530  44.706   6.150
 6395POPC   GL240826  10.400  44.748   6.150
 6395POPC   C1A40827  10.555  44.618   6.450
 6395POPC   D2A40828  10.498  44.622   6.750
 6395POPC   C3A40829  10.537  44.671   7.050
 6395POPC   C4A40830  10.533  44.673   7.350
 6395POPC   C1B40831  10.366  44.817   6.450
 6395POPC   C2B40832  10.371  44.860   6.750
 6395POPC   C3B40833  10.337  44.814   7.050
 6395POPC   C4B40834  10.402  44.902   7.350
 6396POPC   NC340835  39.964   0.429   5.550
 6396POPC   PO440836  39.975   0.416   5.850
 6396POPC   GL140837  40.020   0.402   6.150
 6396POPC   GL240838  40.007   0.338   6.150
 6396POPC   C1A40839  39.979   0.439   6.450
 6396POPC   D2A40840  40.004   0.441   6.750
 6396POPC   C3A40841  40.049   0.486   7.050
 6396POPC   C4A40842  39.998   0.394   7.350
 6396POPC   C1B40843  40.086   0.162   6.450
 6396POPC   C2B40844  40.069   0.210   6.750
 6396POPC   C3B40845  40.142   0.162   7.050
 6396POPC   C4B40846  40.128   0.242   7.350
 6397POPC   NC340847  12.837  34.609   5.550
 6397POPC   PO440848  12.888  34.587   5.850
 6397POPC   GL140849  12.821  34.559   6.150
 6397POPC   GL240850  12.957  34.509   6.150
 6397POPC   C1A40851  12.827  34.562   6.450
 6397POPC   D2A40852  12.862  34.566   6.750
 6397POPC   C3A40853  12.805  34.566   7.050
 6397POPC   C4A40854  12.805  34.574   7.350
 6397POPC   C1B40855  13.028  34.404   6.450
 6397POPC   C2B40856  13.068  34.440   6.750
 6397POPC   C3B40857  12.988  34.372   7.050
 6397POPC   C4B40858  13.072  34.360   7.350
 6398POPC   NC340859  21.362  15.972   5.550
 6398POPC   PO440860  21.389  15.949   5.850
 6398POPC   GL140861  21.396  15.938   6.150
 6398POPC   GL240862  21.292  15.864   6.150
 6398POPC   C1A40863  21.424  15.978   6.450
 6398POPC   D2A40864  21.377  15.927   6.750
 6398POPC   C3A40865  21.405  15.933   7.050
 6398POPC   C4A40866  21.392  15.993   7.350
 6398POPC   C1B40867  21.248  15.758   6.450
 6398POPC   C2B40868  21.204  15.765   6.750
 6398POPC   C3B40869  21.192  15.724   7.050
 6398POPC   C4B40870  21.185  15.736   7.350
 6399POPC   NC340871  17.505  29.898   5.550
 6399POPC   PO440872  17.476  29.910   5.850
 6399POPC   GL140873  17.507  29.903   6.150
 6399POPC   GL240874  17.401  30.018   6.150
 6399POPC   C1A40875  17.528  29.931   6.450
 6399POPC   D2A40876  17.491  29.970   6.750
 6399POPC   C3A40877  17.490  29.928   7.050
 6399POPC   C4A40878  17.494  29.954   7.350
 6399POPC   C1B40879  17.279  30.081   6.450
 6399POPC   C2B40880  17.310  30.119   6.750
 6399POPC   C3B40881  17.317  30.055   7.050
 6399POPC   C4B40882  17.308  30.113   7.350
 6400POPC   NC340883  36.900  16.717   5.550
 6400POPC   PO440884  36.866  16.720   5.850
 6400POPC   GL140885  36.871  16.746   6.150
 6400POPC   GL240886  36.737  16.710   6.150
 6400POPC   C1A40887  36.905  16.708   6.450
 6400POPC   D2A40888  36.899  16.710   6.750
 6400POPC   C3A40889  36.948  16.755   7.050
 6400POPC   C4A40890  36.939  16.780   7.350
 6400POPC   C1B40891  36.691  16.664   6.450
 6400POPC   C2B40892  36.686  16.656   6.750
 6400POPC   C3B40893  36.629  16.684   7.050
 6400POPC   C4B40894  36.659  16.689   7.350
 6401POPC   NC340895  29.174  39.238   5.550
 6401POPC   PO440896  29.100  39.214   5.850
 6401POPC   GL140897  29.188  39.266   6.150
 6401POPC   GL240898  29.078  39.391   6.150
 6401POPC   C1A40899  29.138  39.270   6.450
 6401POPC   D2A40900  29.178  39.200   6.750
 6401POPC   C3A40901  29.098  39.187   7.050
 6401POPC   C4A40902  29.163  39.203   7.350
 6401POPC   C1B40903  29.002  39.452   6.450
 6401POPC   C2B40904  29.053  39.431   6.750
 6401POPC   C3B40905  29.052  39.452   7.050
 6401POPC   C4B40906  29.020  39.501   7.350
 6402POPC   NC340907  21.405  31.458   5.550
 6402POPC   PO440908  21.370  31.509   5.850
 6402POPC   GL140909  21.339  31.494   6.150
 6402POPC   GL240910  21.370  31.340   6.150
 6402POPC   C1A40911  21.340  31.489   6.450
 6402POPC   D2A40912  21.415  31.423   6.750
 6402POPC   C3A40913  21.426  31.520   7.050
 6402POPC   C4A40914  21.435  31.483   7.350
 6402POPC   C1B40915  21.317  31.181   6.450
 6402POPC   C2B40916  21.402  31.204   6.750
 6402POPC   C3B40917  21.377  31.189   7.050
 6402POPC   C4B40918  21.371  31.226   7.350
 6403POPC   NC340919   7.387   8.197   5.550
 6403POPC   PO440920   7.461   8.164   5.850
 6403POPC   GL140921   7.410   8.208   6.150
 6403POPC   GL240922   7.407   8.314   6.150
 6403POPC   C1A40923   7.400   8.152   6.450
 6403POPC   D2A40924   7.460   8.202   6.750
 6403POPC   C3A40925   7.387   8.240   7.050
 6403POPC   C4A40926   7.380   8.188   7.350
 6403POPC   C1B40927   7.349   8.486   6.450
 6403POPC   C2B40928   7.342   8.455   6.750
 6403POPC   C3B40929   7.387   8.452   7.050
 6403POPC   C4B40930   7.392   8.441   7.350
 6404POPC   NC340931  37.639  34.561   5.550
 6404POPC   PO440932  37.716  34.606   5.850
 6404POPC   GL140933  37.668  34.541   6.150
 6404POPC   GL240934  37.552  34.623   6.150
 6404POPC   C1A40935  37.653  34.598   6.450
 6404POPC   D2A40936  37.692  34.576   6.750
 6404POPC   C3A40937  37.639  34.626   7.050
 6404POPC   C4A40938  37.687  34.548   7.350
 6404POPC   C1B40939  37.423  34.664   6.450
 6404POPC   C2B40940  37.454  34.717   6.750
 6404POPC   C3B40941  37.412  34.703   7.050
 6404POPC   C4B40942  37.446  34.651   7.350
 6405POPC   NC340943   5.878  26.031   5.550
 6405POPC   PO440944   5.895  26.066   5.850
 6405POPC   GL140945   5.877  26.061   6.150
 6405POPC   GL240946   6.015  26.078   6.150
 6405POPC   C1A40947   5.872  26.058   6.450
 6405POPC   D2A40948   5.908  26.011   6.750
 6405POPC   C3A40949   5.865  26.037   7.050
 6405POPC   C4A40950   5.874  26.053   7.350
 6405POPC   C1B40951   6.111  26.133   6.450
 6405POPC   C2B40952   6.096  26.126   6.750
 6405POPC   C3B40953   6.092  26.102   7.050
 6405POPC   C4B40954   6.114  26.147   7.350
 6406POPC   NC340955  16.766   0.441   5.550
 6406POPC   PO440956  16.726   0.424   5.850
 6406POPC   GL140957  16.700   0.447   6.150
 6406POPC   GL240958  16.851   0.372   6.150
 6406POPC   C1A40959  16.779   0.458   6.450
 6406POPC   D2A40960  16.695   0.470   6.750
 6406POPC   C3A40961  16.740   0.418   7.050
 6406POPC   C4A40962  16.691   0.459   7.350
 6406POPC   C1B40963  16.896   0.220   6.450
 6406POPC   C2B40964  16.944   0.248   6.750
 6406POPC   C3B40965  16.879   0.236   7.050
 6406POPC   C4B40966  16.944   0.283   7.350
 6407POPC   NC340967   5.909  39.240   5.550
 6407POPC   PO440968   5.883  39.265   5.850
 6407POPC   GL140969   5.900  39.228   6.150
 6407POPC   GL240970   5.967  39.299   6.150
 6407POPC   C1A40971   5.843  39.238   6.450
 6407POPC   D2A40972   5.837  39.279   6.750
 6407POPC   C3A40973   5.903  39.223   7.050
 6407POPC   C4A40974   5.863  39.194   7.350
 6407POPC   C1B40975   6.053  39.368   6.450
 6407POPC   C2B40976   6.044  39.378   6.750
 6407POPC   C3B40977   6.050  39.431   7.050
 6407POPC   C4B40978   6.055  39.384   7.350
 6408POPC   NC340979  21.353  36.083   5.550
 6408POPC   PO440980  21.362  36.167   5.850
 6408POPC   GL140981  21.390  36.113   6.150
 6408POPC   GL240982  21.308  36.151   6.150
 6408POPC   C1A40983  21.399  36.156   6.450
 6408POPC   D2A40984  21.376  36.122   6.750
 6408POPC   C3A40985  21.417  36.156   7.050
 6408POPC   C4A40986  21.376  36.085   7.350
 6408POPC   C1B40987  21.136  36.078   6.450
 6408POPC   C2B40988  21.135  36.133   6.750
 6408POPC   C3B40989  21.117  36.104   7.050
 6408POPC   C4B40990  21.156  36.125   7.350
 6409POPC   NC340991  36.166  26.000   5.550
 6409POPC   PO440992  36.124  26.037   5.850
 6409POPC   GL140993  36.144  26.054   6.150
 6409POPC   GL240994  36.248  25.926   6.150
 6409POPC   C1A40995  36.110  26.043   6.450
 6409POPC   D2A40996  36.153  26.082   6.750
 6409POPC   C3A40997  36.135  26.017   7.050
 6409POPC   C4A40998  36.138  26.012   7.350
 6409POPC   C1B40999  36.286  25.848   6.450
 6409POPC   C2B41000  36.274  25.838   6.750
 6409POPC   C3B41001  36.270  25.900   7.050
 6409POPC   C4B41002  36.342  25.914   7.350
 6410POPC   NC341003  25.254  23.683   5.550
 6410POPC   PO441004  25.302  23.757   5.850
 6410POPC   GL141005  25.311  23.744   6.150
 6410POPC   GL241006  25.401  23.642   6.150
 6410POPC   C1A41007  25.281  23.719   6.450
 6410POPC   D2A41008  25.313  23.743   6.750
 6410POPC   C3A41009  25.293  23.711   7.050
 6410POPC   C4A41010  25.280  23.755   7.350
 6410POPC   C1B41011  25.509  23.551   6.450
 6410POPC   C2B41012  25.460  23.564   6.750
 6410POPC   C3B41013  25.480  23.552   7.050
 6410POPC   C4B41014  25.459  23.556   7.350
 6411POPC   NC341015  44.624  36.923   5.550
 6411POPC   PO441016  44.694  36.891   5.850
 6411POPC   GL141017  44.618  36.929   6.150
 6411POPC   GL241018  44.682  36.779   6.150
 6411POPC   C1A41019  44.648  36.912   6.450
 6411POPC   D2A41020  44.686  36.906   6.750
 6411POPC   C3A41021  44.655  36.868   7.050
 6411POPC   C4A41022  44.667  36.872   7.350
 6411POPC   C1B41023  44.706  36.660   6.450
 6411POPC   C2B41024  44.671  36.705   6.750
 6411POPC   C3B41025  44.668  36.699   7.050
 6411POPC   C4B41026  44.718  36.661   7.350
 6412POPC   NC341027  33.036  29.117   5.550
 6412POPC   PO441028  33.024  29.150   5.850
 6412POPC   GL141029  33.071  29.132   6.150
 6412POPC   GL241030  33.193  29.163   6.150
 6412POPC   C1A41031  33.061  29.128   6.450
 6412POPC   D2A41032  33.029  29.171   6.750
 6412POPC   C3A41033  33.036  29.162   7.050
 6412POPC   C4A41034  32.997  29.133   7.350
 6412POPC   C1B41035  33.298  29.178   6.450
 6412POPC   C2B41036  33.299  29.170   6.750
 6412POPC   C3B41037  33.321  29.149   7.050
 6412POPC   C4B41038  33.257  29.192   7.350
 6413POPC   NC341039   1.195  26.072   5.550
 6413POPC   PO441040   1.262  26.084   5.850
 6413POPC   GL141041   1.165  26.039   6.150
 6413POPC   GL241042   1.316  26.070   6.150
 6413POPC   C1A41043   1.171  26.004   6.450
 6413POPC   D2A41044   1.245  26.026   6.750
 6413POPC   C3A41045   1.204  26.013   7.050
 6413POPC   C4A41046   1.210  26.079   7.350
 6413POPC   C1B41047   1.428  26.151   6.450
 6413POPC   C2B41048   1.457  26.109   6.750
 6413POPC   C3B41049   1.498  26.144   7.050
 6413POPC   C4B41050   1.413  26.114   7.350
 6414POPC   NC341051  21.417  34.606   5.550
 6414POPC   PO441052  21.417  34.572   5.850
 6414POPC   GL141053  21.433  34.568   6.150
 6414POPC   GL241054  21.277  34.509   6.150
 6414POPC   C1A41055  21.338  34.575   6.450
 6414POPC   D2A41056  21.349  34.569   6.750
 6414POPC   C3A41057  21.423  34.550   7.050
 6414POPC   C4A41058  21.351  34.532   7.350
 6414POPC   C1B41059  21.188  34.419   6.450
 6414POPC   C2B41060  21.231  34.386   6.750
 6414POPC   C3B41061  21.146  34.406   7.050
 6414POPC   C4B41062  21.158  34.376   7.350
 6415POPC   NC341063  27.563  23.706   5.550
 6415POPC   PO441064  27.555  23.720   5.850
 6415POPC   GL141065  27.595  23.687   6.150
 6415POPC   GL241066  27.697  23.777   6.150
 6415POPC   C1A41067  27.609  23.701   6.450
 6415POPC   D2A41068  27.626  23.748   6.750
 6415POPC   C3A41069  27.618  23.719   7.050
 6415POPC   C4A41070  27.564  23.716   7.350
 6415POPC   C1B41071  27.807  23.867   6.450
 6415POPC   C2B41072  27.778  23.881   6.750
 6415POPC   C3B41073  27.815  23.859   7.050
 6415POPC   C4B41074  27.815  23.794   7.350
 6416POPC   NC341075  42.303   8.236   5.550
 6416POPC   PO441076  42.288   8.228   5.850
 6416POPC   GL141077  42.309   8.214   6.150
 6416POPC   GL241078  42.247   8.148   6.150
 6416POPC   C1A41079  42.323   8.163   6.450
 6416POPC   D2A41080  42.303   8.178   6.750
 6416POPC   C3A41081  42.341   8.185   7.050
 6416POPC   C4A41082  42.361   8.154   7.350
 6416POPC   C1B41083  42.065   8.067   6.450
 6416POPC   C2B41084  42.063   8.130   6.750
 6416POPC   C3B41085  42.079   8.077   7.050
 6416POPC   C4B41086  42.078   8.083   7.350
 6417POPC   NC341087   7.450  12.029   5.550
 6417POPC   PO441088   7.463  12.109   5.850
 6417POPC   GL141089   7.466  12.030   6.150
 6417POPC   GL241090   7.312  12.133   6.150
 6417POPC   C1A41091   7.465  12.119   6.450
 6417POPC   D2A41092   7.463  12.065   6.750
 6417POPC   C3A41093   7.426  12.079   7.050
 6417POPC   C4A41094   7.458  12.074   7.350
 6417POPC   C1B41095   7.156  12.214   6.450
 6417POPC   C2B41096   7.206  12.138   6.750
 6417POPC   C3B41097   7.205  12.134   7.050
 6417POPC   C4B41098   7.222  12.207   7.350
 6418POPC   NC341099   4.355   0.430   5.550
 6418POPC   PO441100   4.363   0.418   5.850
 6418POPC   GL141101   4.273   0.460   6.150
 6418POPC   GL241102   4.269   0.320   6.150
 6418POPC   C1A41103   4.362   0.422   6.450
 6418POPC   D2A41104   4.296   0.405   6.750
 6418POPC   C3A41105   4.349   0.396   7.050
 6418POPC   C4A41106   4.343   0.488   7.350
 6418POPC   C1B41107   4.121   0.238   6.450
 6418POPC   C2B41108   4.152   0.284   6.750
 6418POPC   C3B41109   4.162   0.284   7.050
 6418POPC   C4B41110   4.189   0.294   7.350
 6419POPC   NC341111  22.198  44.657   5.550
 6419POPC   PO441112  22.195  44.630   5.850
 6419POPC   GL141113  22.194  44.663   6.150
 6419POPC   GL241114  22.277  44.644   6.150
 6419POPC   C1A41115  22.191  44.676   6.450
 6419POPC   D2A41116  22.186  44.695   6.750
 6419POPC   C3A41117  22.185  44.659   7.050
 6419POPC   C4A41118  22.135  44.680   7.350
 6419POPC   C1B41119  22.451  44.610   6.450
 6419POPC   C2B41120  22.377  44.681   6.750
 6419POPC   C3B41121  22.414  44.669   7.050
 6419POPC   C4B41122  22.444  44.638   7.350
 6420POPC   NC341123  29.890  32.289   5.550
 6420POPC   PO441124  29.909  32.297   5.850
 6420POPC   GL141125  29.952  32.288   6.150
 6420POPC   GL241126  29.900  32.096   6.150
 6420POPC   C1A41127  29.955  32.247   6.450
 6420POPC   D2A41128  29.920  32.242   6.750
 6420POPC   C3A41129  29.920  32.297   7.050
 6420POPC   C4A41130  29.923  32.278   7.350
 6420POPC   C1B41131  29.966  31.956   6.450
 6420POPC   C2B41132  29.994  31.993   6.750
 6420POPC   C3B41133  29.949  32.019   7.050
 6420POPC   C4B41134  30.008  31.961   7.350
 6421POPC   NC341135   8.246   6.659   5.550
 6421POPC   PO441136   8.168   6.620   5.850
 6421POPC   GL141137   8.197   6.678   6.150
 6421POPC   GL241138   8.088   6.733   6.150
 6421POPC   C1A41139   8.155   6.647   6.450
 6421POPC   D2A41140   8.206   6.598   6.750
 6421POPC   C3A41141   8.227   6.660   7.050
 6421POPC   C4A41142   8.231   6.622   7.350
 6421POPC   C1B41143   8.046   6.776   6.450
 6421POPC   C2B41144   7.993   6.786   6.750
 6421POPC   C3B41145   7.995   6.775   7.050
 6421POPC   C4B41146   7.972   6.811   7.350
 6422POPC   NC341147  44.647  26.798   5.550
 6422POPC   PO441148  44.668  26.846   5.850
 6422POPC   GL141149  44.668  26.769   6.150
 6422POPC   GL241150  44.574  26.914   6.150
 6422POPC   C1A41151  44.687  26.773   6.450
 6422POPC   D2A41152  44.632  26.843   6.750
 6422POPC   C3A41153  44.614  26.769   7.050
 6422POPC   C4A41154  44.705  26.808   7.350
 6422POPC   C1B41155  44.458  26.965   6.450
 6422POPC   C2B41156  44.412  26.986   6.750
 6422POPC   C3B41157  44.463  26.974   7.050
 6422POPC   C4B41158  44.489  26.963   7.350
 6423POPC   NC341159  37.646  38.505   5.550
 6423POPC   PO441160  37.642  38.443   5.850
 6423POPC   GL141161  37.720  38.474   6.150
 6423POPC   GL241162  37.566  38.381   6.150
 6423POPC   C1A41163  37.658  38.426   6.450
 6423POPC   D2A41164  37.643  38.457   6.750
 6423POPC   C3A41165  37.714  38.502   7.050
 6423POPC   C4A41166  37.685  38.497   7.350
 6423POPC   C1B41167  37.470  38.329   6.450
 6423POPC   C2B41168  37.463  38.357   6.750
 6423POPC   C3B41169  37.446  38.306   7.050
 6423POPC   C4B41170  37.412  38.307   7.350
 6424POPC   NC341171  33.767  15.981   5.550
 6424POPC   PO441172  33.835  15.994   5.850
 6424POPC   GL141173  33.836  15.907   6.150
 6424POPC   GL241174  33.733  15.883   6.150
 6424POPC   C1A41175  33.811  15.961   6.450
 6424POPC   D2A41176  33.791  15.913   6.750
 6424POPC   C3A41177  33.764  15.972   7.050
 6424POPC   C4A41178  33.808  15.939   7.350
 6424POPC   C1B41179  33.777  15.678   6.450
 6424POPC   C2B41180  33.731  15.666   6.750
 6424POPC   C3B41181  33.754  15.703   7.050
 6424POPC   C4B41182  33.746  15.730   7.350
 6425POPC   NC341183  24.461  30.659   5.550
 6425POPC   PO441184  24.537  30.710   5.850
 6425POPC   GL141185  24.488  30.696   6.150
 6425POPC   GL241186  24.343  30.667   6.150
 6425POPC   C1A41187  24.471  30.686   6.450
 6425POPC   D2A41188  24.441  30.661   6.750
 6425POPC   C3A41189  24.514  30.711   7.050
 6425POPC   C4A41190  24.517  30.725   7.350
 6425POPC   C1B41191  24.254  30.742   6.450
 6425POPC   C2B41192  24.192  30.733   6.750
 6425POPC   C3B41193  24.283  30.695   7.050
 6425POPC   C4B41194  24.265  30.686   7.350
 6426POPC   NC341195  43.101  22.180   5.550
 6426POPC   PO441196  43.089  22.118   5.850
 6426POPC   GL141197  43.123  22.186   6.150
 6426POPC   GL241198  43.013  22.168   6.150
 6426POPC   C1A41199  43.123  22.180   6.450
 6426POPC   D2A41200  43.155  22.199   6.750
 6426POPC   C3A41201  43.081  22.201   7.050
 6426POPC   C4A41202  43.088  22.168   7.350
 6426POPC   C1B41203  42.891  22.139   6.450
 6426POPC   C2B41204  42.848  22.130   6.750
 6426POPC   C3B41205  42.883  22.092   7.050
 6426POPC   C4B41206  42.911  22.099   7.350
 6427POPC   NC341207  17.520  38.475   5.550
 6427POPC   PO441208  17.481  38.471   5.850
 6427POPC   GL141209  17.543  38.448   6.150
 6427POPC   GL241210  17.493  38.300   6.150
 6427POPC   C1A41211  17.516  38.499   6.450
 6427POPC   D2A41212  17.478  38.433   6.750
 6427POPC   C3A41213  17.484  38.461   7.050
 6427POPC   C4A41214  17.538  38.460   7.350
 6427POPC   C1B41215  17.522  38.181   6.450
 6427POPC   C2B41216  17.610  38.205   6.750
 6427POPC   C3B41217  17.551  38.241   7.050
 6427POPC   C4B41218  17.586  38.256   7.350
 6428POPC   NC341219  35.343   1.222   5.550
 6428POPC   PO441220  35.359   1.249   5.850
 6428POPC   GL141221  35.357   1.187   6.150
 6428POPC   GL241222  35.467   1.154   6.150
 6428POPC   C1A41223  35.392   1.217   6.450
 6428POPC   D2A41224  35.325   1.229   6.750
 6428POPC   C3A41225  35.323   1.211   7.050
 6428POPC   C4A41226  35.302   1.175   7.350
 6428POPC   C1B41227  35.608   1.166   6.450
 6428POPC   C2B41228  35.633   1.129   6.750
 6428POPC   C3B41229  35.560   1.132   7.050
 6428POPC   C4B41230  35.611   1.110   7.350
 6429POPC   NC341231  44.654   7.376   5.550
 6429POPC   PO441232  44.684   7.459   5.850
 6429POPC   GL141233  44.636   7.453   6.150
 6429POPC   GL241234  44.742   7.362   6.150
 6429POPC   C1A41235  44.623   7.470   6.450
 6429POPC   D2A41236  44.638   7.395   6.750
 6429POPC   C3A41237  44.629   7.372   7.050
 6429POPC   C4A41238  44.640   7.408   7.350
 6429POPC   C1B41239  44.863   7.350   6.450
 6429POPC   C2B41240  44.945   7.404   6.750
 6429POPC   C3B41241  44.876   7.402   7.050
 6429POPC   C4B41242  44.928   7.413   7.350
 6430POPC   NC341243  42.333  12.887   5.550
 6430POPC   PO441244  42.290  12.867   5.850
 6430POPC   GL141245  42.373  12.894   6.150
 6430POPC   GL241246  42.426  12.769   6.150
 6430POPC   C1A41247  42.291  12.883   6.450
 6430POPC   D2A41248  42.380  12.830   6.750
 6430POPC   C3A41249  42.298  12.842   7.050
 6430POPC   C4A41250  42.375  12.830   7.350
 6430POPC   C1B41251  42.598  12.755   6.450
 6430POPC   C2B41252  42.539  12.778   6.750
 6430POPC   C3B41253  42.599  12.800   7.050
 6430POPC   C4B41254  42.536  12.759   7.350
 6431POPC   NC341255  18.270  36.096   5.550
 6431POPC   PO441256  18.324  36.133   5.850
 6431POPC   GL141257  18.261  36.153   6.150
 6431POPC   GL241258  18.260  36.232   6.150
 6431POPC   C1A41259  18.289  36.120   6.450
 6431POPC   D2A41260  18.267  36.122   6.750
 6431POPC   C3A41261  18.302  36.132   7.050
 6431POPC   C4A41262  18.235  36.173   7.350
 6431POPC   C1B41263  18.197  36.344   6.450
 6431POPC   C2B41264  18.197  36.347   6.750
 6431POPC   C3B41265  18.239  36.408   7.050
 6431POPC   C4B41266  18.185  36.325   7.350
 6432POPC   NC341267   5.856  19.810   5.550
 6432POPC   PO441268   5.888  19.861   5.850
 6432POPC   GL141269   5.860  19.788   6.150
 6432POPC   GL241270   5.780  19.976   6.150
 6432POPC   C1A41271   5.842  19.870   6.450
 6432POPC   D2A41272   5.879  19.827   6.750
 6432POPC   C3A41273   5.836  19.817   7.050
 6432POPC   C4A41274   5.823  19.808   7.350
 6432POPC   C1B41275   5.816  20.091   6.450
 6432POPC   C2B41276   5.747  20.092   6.750
 6432POPC   C3B41277   5.800  20.102   7.050
 6432POPC   C4B41278   5.735  20.015   7.350
 6433POPC   NC341279  33.813   8.152   5.550
 6433POPC   PO441280  33.811   8.163   5.850
 6433POPC   GL141281  33.754   8.163   6.150
 6433POPC   GL241282  33.850   8.250   6.150
 6433POPC   C1A41283  33.756   8.216   6.450
 6433POPC   D2A41284  33.762   8.221   6.750
 6433POPC   C3A41285  33.762   8.176   7.050
 6433POPC   C4A41286  33.817   8.195   7.350
 6433POPC   C1B41287  33.927   8.400   6.450
 6433POPC   C2B41288  33.902   8.358   6.750
 6433POPC   C3B41289  33.955   8.367   7.050
 6433POPC   C4B41290  33.992   8.390   7.350
 6434POPC   NC341291  33.835  26.002   5.550
 6434POPC   PO441292  33.832  26.002   5.850
 6434POPC   GL141293  33.782  26.014   6.150
 6434POPC   GL241294  33.723  26.057   6.150
 6434POPC   C1A41295  33.783  26.078   6.450
 6434POPC   D2A41296  33.775  25.995   6.750
 6434POPC   C3A41297  33.771  26.091   7.050
 6434POPC   C4A41298  33.809  26.061   7.350
 6434POPC   C1B41299  33.563  26.022   6.450
 6434POPC   C2B41300  33.598  26.020   6.750
 6434POPC   C3B41301  33.539  26.048   7.050
 6434POPC   C4B41302  33.519  26.057   7.350
 6435POPC   NC341303  41.551  35.318   5.550
 6435POPC   PO441304  41.588  35.377   5.850
 6435POPC   GL141305  41.601  35.363   6.150
 6435POPC   GL241306  41.653  35.417   6.150
 6435POPC   C1A41307  41.603  35.389   6.450
 6435POPC   D2A41308  41.581  35.369   6.750
 6435POPC   C3A41309  41.561  35.310   7.050
 6435POPC   C4A41310  41.588  35.329   7.350
 6435POPC   C1B41311  41.721  35.544   6.450
 6435POPC   C2B41312  41.728  35.591   6.750
 6435POPC   C3B41313  41.735  35.515   7.050
 6435POPC   C4B41314  41.764  35.548   7.350
 6436POPC   NC341315  17.528  16.752   5.550
 6436POPC   PO441316  17.534  16.739   5.850
 6436POPC   GL141317  17.469  16.683   6.150
 6436POPC   GL241318  17.610  16.767   6.150
 6436POPC   C1A41319  17.493  16.754   6.450
 6436POPC   D2A41320  17.483  16.774   6.750
 6436POPC   C3A41321  17.503  16.696   7.050
 6436POPC   C4A41322  17.511  16.752   7.350
 6436POPC   C1B41323  17.754  16.858   6.450
 6436POPC   C2B41324  17.702  16.878   6.750
 6436POPC   C3B41325  17.707  16.912   7.050
 6436POPC   C4B41326  17.690  16.837   7.350
 6437POPC   NC341327  38.457   7.394   5.550
 6437POPC   PO441328  38.455   7.407   5.850
 6437POPC   GL141329  38.441   7.442   6.150
 6437POPC   GL241330  38.557   7.407   6.150
 6437POPC   C1A41331  38.451   7.387   6.450
 6437POPC   D2A41332  38.478   7.390   6.750
 6437POPC   C3A41333  38.411   7.383   7.050
 6437POPC   C4A41334  38.427   7.466   7.350
 6437POPC   C1B41335  38.737   7.385   6.450
 6437POPC   C2B41336  38.672   7.371   6.750
 6437POPC   C3B41337  38.682   7.368   7.050
 6437POPC   C4B41338  38.714   7.424   7.350
 6438POPC   NC341339  41.555  24.498   5.550
 6438POPC   PO441340  41.516  24.466   5.850
 6438POPC   GL141341  41.536  24.528   6.150
 6438POPC   GL241342  41.475  24.498   6.150
 6438POPC   C1A41343  41.521  24.451   6.450
 6438POPC   D2A41344  41.570  24.536   6.750
 6438POPC   C3A41345  41.554  24.469   7.050
 6438POPC   C4A41346  41.512  24.460   7.350
 6438POPC   C1B41347  41.349  24.391   6.450
 6438POPC   C2B41348  41.292  24.390   6.750
 6438POPC   C3B41349  41.279  24.471   7.050
 6438POPC   C4B41350  41.314  24.424   7.350
 6439POPC   NC341351  12.835   5.884   5.550
 6439POPC   PO441352  12.825   5.910   5.850
 6439POPC   GL141353  12.839   5.867   6.150
 6439POPC   GL241354  12.822   5.795   6.150
 6439POPC   C1A41355  12.804   5.843   6.450
 6439POPC   D2A41356  12.811   5.847   6.750
 6439POPC   C3A41357  12.884   5.898   7.050
 6439POPC   C4A41358  12.814   5.888   7.350
 6439POPC   C1B41359  12.749   5.684   6.450
 6439POPC   C2B41360  12.765   5.706   6.750
 6439POPC   C3B41361  12.727   5.617   7.050
 6439POPC   C4B41362  12.750   5.675   7.350
 6440POPC   NC341363  34.549   4.350   5.550
 6440POPC   PO441364  34.573   4.310   5.850
 6440POPC   GL141365  34.589   4.311   6.150
 6440POPC   GL241366  34.624   4.378   6.150
 6440POPC   C1A41367  34.545   4.334   6.450
 6440POPC   D2A41368  34.605   4.268   6.750
 6440POPC   C3A41369  34.554   4.360   7.050
 6440POPC   C4A41370  34.566   4.299   7.350
 6440POPC   C1B41371  34.762   4.552   6.450
 6440POPC   C2B41372  34.748   4.510   6.750
 6440POPC   C3B41373  34.717   4.520   7.050
 6440POPC   C4B41374  34.690   4.525   7.350
 6441POPC   NC341375   2.027  39.182   5.550
 6441POPC   PO441376   1.961  39.206   5.850
 6441POPC   GL141377   2.006  39.237   6.150
 6441POPC   GL241378   1.873  39.272   6.150
 6441POPC   C1A41379   1.966  39.210   6.450
 6441POPC   D2A41380   1.950  39.268   6.750
 6441POPC   C3A41381   2.014  39.192   7.050
 6441POPC   C4A41382   1.941  39.231   7.350
 6441POPC   C1B41383   1.788  39.293   6.450
 6441POPC   C2B41384   1.778  39.273   6.750
 6441POPC   C3B41385   1.776  39.263   7.050
 6441POPC   C4B41386   1.769  39.279   7.350
 6442POPC   NC341387   2.730   5.087   5.550
 6442POPC   PO441388   2.799   5.135   5.850
 6442POPC   GL141389   2.739   5.066   6.150
 6442POPC   GL241390   2.707   5.014   6.150
 6442POPC   C1A41391   2.716   5.090   6.450
 6442POPC   D2A41392   2.792   5.062   6.750
 6442POPC   C3A41393   2.793   5.136   7.050
 6442POPC   C4A41394   2.795   5.138   7.350
 6442POPC   C1B41395   2.693   4.877   6.450
 6442POPC   C2B41396   2.699   4.827   6.750
 6442POPC   C3B41397   2.663   4.833   7.050
 6442POPC   C4B41398   2.680   4.851   7.350
 6443POPC   NC341399  24.486  13.617   5.550
 6443POPC   PO441400  24.470  13.640   5.850
 6443POPC   GL141401  24.528  13.630   6.150
 6443POPC   GL241402  24.619  13.628   6.150
 6443POPC   C1A41403  24.515  13.660   6.450
 6443POPC   D2A41404  24.505  13.612   6.750
 6443POPC   C3A41405  24.537  13.619   7.050
 6443POPC   C4A41406  24.479  13.613   7.350
 6443POPC   C1B41407  24.711  13.573   6.450
 6443POPC   C2B41408  24.708  13.523   6.750
 6443POPC   C3B41409  24.733  13.515   7.050
 6443POPC   C4B41410  24.761  13.550   7.350
 6444POPC   NC341411  12.076  30.683   5.550
 6444POPC   PO441412  12.054  30.694   5.850
 6444POPC   GL141413  12.108  30.662   6.150
 6444POPC   GL241414  12.244  30.752   6.150
 6444POPC   C1A41415  12.045  30.712   6.450
 6444POPC   D2A41416  12.031  30.660   6.750
 6444POPC   C3A41417  12.125  30.660   7.050
 6444POPC   C4A41418  12.116  30.672   7.350
 6444POPC   C1B41419  12.292  30.776   6.450
 6444POPC   C2B41420  12.313  30.688   6.750
 6444POPC   C3B41421  12.276  30.756   7.050
 6444POPC   C4B41422  12.339  30.691   7.350
 6445POPC   NC341423  36.133   5.110   5.550
 6445POPC   PO441424  36.097   5.069   5.850
 6445POPC   GL141425  36.083   5.092   6.150
 6445POPC   GL241426  35.974   5.051   6.150
 6445POPC   C1A41427  36.106   5.063   6.450
 6445POPC   D2A41428  36.084   5.072   6.750
 6445POPC   C3A41429  36.106   5.052   7.050
 6445POPC   C4A41430  36.146   5.127   7.350
 6445POPC   C1B41431  35.916   5.083   6.450
 6445POPC   C2B41432  35.861   5.065   6.750
 6445POPC   C3B41433  35.899   5.135   7.050
 6445POPC   C4B41434  35.873   5.062   7.350
 6446POPC   NC341435  18.284  29.156   5.550
 6446POPC   PO441436  18.322  29.188   5.850
 6446POPC   GL141437  18.314  29.187   6.150
 6446POPC   GL241438  18.328  29.247   6.150
 6446POPC   C1A41439  18.242  29.168   6.450
 6446POPC   D2A41440  18.315  29.119   6.750
 6446POPC   C3A41441  18.275  29.159   7.050
 6446POPC   C4A41442  18.238  29.172   7.350
 6446POPC   C1B41443  18.309  29.344   6.450
 6446POPC   C2B41444  18.290  29.390   6.750
 6446POPC   C3B41445  18.323  29.374   7.050
 6446POPC   C4B41446  18.318  29.357   7.350
 6447POPC   NC341447  43.897  38.427   5.550
 6447POPC   PO441448  43.934  38.494   5.850
 6447POPC   GL141449  43.852  38.453   6.150
 6447POPC   GL241450  44.015  38.363   6.150
 6447POPC   C1A41451  43.929  38.431   6.450
 6447POPC   D2A41452  43.927  38.408   6.750
 6447POPC   C3A41453  43.845  38.475   7.050
 6447POPC   C4A41454  43.919  38.451   7.350
 6447POPC   C1B41455  44.116  38.360   6.450
 6447POPC   C2B41456  44.157  38.384   6.750
 6447POPC   C3B41457  44.136  38.382   7.050
 6447POPC   C4B41458  44.072  38.328   7.350
 6448POPC   NC341459   5.877   7.468   5.550
 6448POPC   PO441460   5.866   7.409   5.850
 6448POPC   GL141461   5.889   7.439   6.150
 6448POPC   GL241462   5.835   7.319   6.150
 6448POPC   C1A41463   5.827   7.442   6.450
 6448POPC   D2A41464   5.826   7.469   6.750
 6448POPC   C3A41465   5.873   7.420   7.050
 6448POPC   C4A41466   5.841   7.447   7.350
 6448POPC   C1B41467   5.870   7.149   6.450
 6448POPC   C2B41468   5.899   7.154   6.750
 6448POPC   C3B41469   5.909   7.198   7.050
 6448POPC   C4B41470   5.873   7.162   7.350
 6449POPC   NC341471  34.595   1.994   5.550
 6449POPC   PO441472  34.568   1.993   5.850
 6449POPC   GL141473  34.590   2.021   6.150
 6449POPC   GL241474  34.466   2.077   6.150
 6449POPC   C1A41475  34.615   1.970   6.450
 6449POPC   D2A41476  34.589   2.012   6.750
 6449POPC   C3A41477  34.619   1.961   7.050
 6449POPC   C4A41478  34.621   2.025   7.350
 6449POPC   C1B41479  34.359   2.115   6.450
 6449POPC   C2B41480  34.372   2.146   6.750
 6449POPC   C3B41481  34.390   2.133   7.050
 6449POPC   C4B41482  34.357   2.073   7.350
 6450POPC   NC341483  32.219  36.163   5.550
 6450POPC   PO441484  32.288  36.098   5.850
 6450POPC   GL141485  32.277  36.155   6.150
 6450POPC   GL241486  32.150  36.163   6.150
 6450POPC   C1A41487  32.202  36.143   6.450
 6450POPC   D2A41488  32.265  36.082   6.750
 6450POPC   C3A41489  32.230  36.128   7.050
 6450POPC   C4A41490  32.229  36.082   7.350
 6450POPC   C1B41491  32.052  36.309   6.450
 6450POPC   C2B41492  32.042  36.313   6.750
 6450POPC   C3B41493  32.042  36.241   7.050
 6450POPC   C4B41494  32.032  36.267   7.350
 6451POPC   NC341495  36.110  33.778   5.550
 6451POPC   PO441496  36.170  33.827   5.850
 6451POPC   GL141497  36.098  33.823   6.150
 6451POPC   GL241498  36.238  33.798   6.150
 6451POPC   C1A41499  36.114  33.801   6.450
 6451POPC   D2A41500  36.121  33.782   6.750
 6451POPC   C3A41501  36.083  33.848   7.050
 6451POPC   C4A41502  36.132  33.831   7.350
 6451POPC   C1B41503  36.340  33.809   6.450
 6451POPC   C2B41504  36.327  33.821   6.750
 6451POPC   C3B41505  36.349  33.813   7.050
 6451POPC   C4B41506  36.374  33.825   7.350
 6452POPC   NC341507  16.689  10.567   5.550
 6452POPC   PO441508  16.723  10.544   5.850
 6452POPC   GL141509  16.773  10.561   6.150
 6452POPC   GL241510  16.771  10.656   6.150
 6452POPC   C1A41511  16.757  10.497   6.450
 6452POPC   D2A41512  16.749  10.487   6.750
 6452POPC   C3A41513  16.745  10.538   7.050
 6452POPC   C4A41514  16.776  10.481   7.350
 6452POPC   C1B41515  16.783  10.741   6.450
 6452POPC   C2B41516  16.831  10.708   6.750
 6452POPC   C3B41517  16.866  10.720   7.050
 6452POPC   C4B41518  16.844  10.743   7.350
 6453POPC   NC341519  35.349   2.791   5.550
 6453POPC   PO441520  35.317   2.758   5.850
 6453POPC   GL141521  35.303   2.773   6.150
 6453POPC   GL241522  35.418   2.655   6.150
 6453POPC   C1A41523  35.338   2.748   6.450
 6453POPC   D2A41524  35.382   2.733   6.750
 6453POPC   C3A41525  35.317   2.757   7.050
 6453POPC   C4A41526  35.339   2.735   7.350
 6453POPC   C1B41527  35.444   2.541   6.450
 6453POPC   C2B41528  35.468   2.506   6.750
 6453POPC   C3B41529  35.446   2.495   7.050
 6453POPC   C4B41530  35.449   2.488   7.350
 6454POPC   NC341531  43.112  14.357   5.550
 6454POPC   PO441532  43.089  14.424   5.850
 6454POPC   GL141533  43.110  14.370   6.150
 6454POPC   GL241534  42.948  14.417   6.150
 6454POPC   C1A41535  43.112  14.360   6.450
 6454POPC   D2A41536  43.158  14.370   6.750
 6454POPC   C3A41537  43.081  14.406   7.050
 6454POPC   C4A41538  43.113  14.450   7.350
 6454POPC   C1B41539  42.833  14.521   6.450
 6454POPC   C2B41540  42.856  14.483   6.750
 6454POPC   C3B41541  42.833  14.463   7.050
 6454POPC   C4B41542  42.843  14.457   7.350
 6455POPC   NC341543  23.716   5.890   5.550
 6455POPC   PO441544  23.712   5.819   5.850
 6455POPC   GL141545  23.748   5.877   6.150
 6455POPC   GL241546  23.710   5.984   6.150
 6455POPC   C1A41547  23.670   5.875   6.450
 6455POPC   D2A41548  23.757   5.914   6.750
 6455POPC   C3A41549  23.675   5.849   7.050
 6455POPC   C4A41550  23.756   5.874   7.350
 6455POPC   C1B41551  23.598   6.075   6.450
 6455POPC   C2B41552  23.600   6.139   6.750
 6455POPC   C3B41553  23.623   6.088   7.050
 6455POPC   C4B41554  23.666   6.125   7.350
 6456POPC   NC341555  15.997   0.411   5.550
 6456POPC   PO441556  15.992   0.427   5.850
 6456POPC   GL141557  15.966   0.477   6.150
 6456POPC   GL241558  15.991   0.553   6.150
 6456POPC   C1A41559  15.970   0.419   6.450
 6456POPC   D2A41560  15.988   0.433   6.750
 6456POPC   C3A41561  15.920   0.473   7.050
 6456POPC   C4A41562  15.940   0.467   7.350
 6456POPC   C1B41563  15.971   0.683   6.450
 6456POPC   C2B41564  15.958   0.719   6.750
 6456POPC   C3B41565  16.019   0.694   7.050
 6456POPC   C4B41566  15.932   0.682   7.350
 6457POPC   NC341567  43.930  34.534   5.550
 6457POPC   PO441568  43.924  34.577   5.850
 6457POPC   GL141569  43.851  34.614   6.150
 6457POPC   GL241570  43.727  34.575   6.150
 6457POPC   C1A41571  43.920  34.609   6.450
 6457POPC   D2A41572  43.860  34.584   6.750
 6457POPC   C3A41573  43.881  34.558   7.050
 6457POPC   C4A41574  43.903  34.610   7.350
 6457POPC   C1B41575  43.684  34.500   6.450
 6457POPC   C2B41576  43.662  34.542   6.750
 6457POPC   C3B41577  43.615  34.511   7.050
 6457POPC   C4B41578  43.601  34.505   7.350
 6458POPC   NC341579  16.727  36.952   5.550
 6458POPC   PO441580  16.758  36.904   5.850
 6458POPC   GL141581  16.748  36.887   6.150
 6458POPC   GL241582  16.857  36.886   6.150
 6458POPC   C1A41583  16.752  36.938   6.450
 6458POPC   D2A41584  16.781  36.890   6.750
 6458POPC   C3A41585  16.716  36.886   7.050
 6458POPC   C4A41586  16.732  36.875   7.350
 6458POPC   C1B41587  16.973  36.942   6.450
 6458POPC   C2B41588  17.026  36.900   6.750
 6458POPC   C3B41589  17.024  36.938   7.050
 6458POPC   C4B41590  16.984  36.968   7.350
 6459POPC   NC341591   8.932  44.689   5.550
 6459POPC   PO441592   8.933  44.617   5.850
 6459POPC   GL141593   8.988  44.638   6.150
 6459POPC   GL241594   9.002  44.580   6.150
 6459POPC   C1A41595   9.001  44.656   6.450
 6459POPC   D2A41596   8.970  44.672   6.750
 6459POPC   C3A41597   9.008  44.630   7.050
 6459POPC   C4A41598   8.931  44.671   7.350
 6459POPC   C1B41599   9.046  44.443   6.450
 6459POPC   C2B41600   9.044  44.459   6.750
 6459POPC   C3B41601   9.012  44.457   7.050
 6459POPC   C4B41602   9.035  44.452   7.350
 6460POPC   NC341603  29.904   2.808   5.550
 6460POPC   PO441604  29.872   2.810   5.850
 6460POPC   GL141605  29.884   2.754   6.150
 6460POPC   GL241606  29.848   2.844   6.150
 6460POPC   C1A41607  29.970   2.734   6.450
 6460POPC   D2A41608  29.898   2.798   6.750
 6460POPC   C3A41609  29.875   2.784   7.050
 6460POPC   C4A41610  29.961   2.758   7.350
 6460POPC   C1B41611  29.801   2.951   6.450
 6460POPC   C2B41612  29.764   2.940   6.750
 6460POPC   C3B41613  29.734   2.952   7.050
 6460POPC   C4B41614  29.744   2.972   7.350
 6461POPC   NC341615  44.710  26.000   5.550
 6461POPC   PO441616  44.618  26.017   5.850
 6461POPC   GL141617  44.643  26.046   6.150
 6461POPC   GL241618  44.587  26.045   6.150
 6461POPC   C1A41619  44.704  26.088   6.450
 6461POPC   D2A41620  44.650  25.994   6.750
 6461POPC   C3A41621  44.643  26.057   7.050
 6461POPC   C4A41622  44.705  26.052   7.350
 6461POPC   C1B41623  44.429  26.107   6.450
 6461POPC   C2B41624  44.471  26.100   6.750
 6461POPC   C3B41625  44.477  26.142   7.050
 6461POPC   C4B41626  44.462  26.149   7.350
 6462POPC   NC341627  12.834   2.033   5.550
 6462POPC   PO441628  12.868   1.951   5.850
 6462POPC   GL141629  12.826   2.018   6.150
 6462POPC   GL241630  12.960   1.937   6.150
 6462POPC   C1A41631  12.846   1.967   6.450
 6462POPC   D2A41632  12.817   1.957   6.750
 6462POPC   C3A41633  12.858   1.971   7.050
 6462POPC   C4A41634  12.869   1.957   7.350
 6462POPC   C1B41635  13.037   1.892   6.450
 6462POPC   C2B41636  13.015   1.838   6.750
 6462POPC   C3B41637  13.104   1.885   7.050
 6462POPC   C4B41638  13.074   1.878   7.350
 6463POPC   NC341639  18.324  27.574   5.550
 6463POPC   PO441640  18.282  27.631   5.850
 6463POPC   GL141641  18.255  27.585   6.150
 6463POPC   GL241642  18.352  27.587   6.150
 6463POPC   C1A41643  18.304  27.560   6.450
 6463POPC   D2A41644  18.238  27.585   6.750
 6463POPC   C3A41645  18.330  27.599   7.050
 6463POPC   C4A41646  18.297  27.627   7.350
 6463POPC   C1B41647  18.473  27.716   6.450
 6463POPC   C2B41648  18.552  27.724   6.750
 6463POPC   C3B41649  18.471  27.628   7.050
 6463POPC   C4B41650  18.525  27.659   7.350
 6464POPC   NC341651  12.899  19.104   5.550
 6464POPC   PO441652  12.872  19.014   5.850
 6464POPC   GL141653  12.813  19.043   6.150
 6464POPC   GL241654  12.923  19.169   6.150
 6464POPC   C1A41655  12.833  19.032   6.450
 6464POPC   D2A41656  12.845  19.078   6.750
 6464POPC   C3A41657  12.843  19.063   7.050
 6464POPC   C4A41658  12.825  19.045   7.350
 6464POPC   C1B41659  12.973  19.239   6.450
 6464POPC   C2B41660  12.965  19.262   6.750
 6464POPC   C3B41661  12.978  19.226   7.050
 6464POPC   C4B41662  12.969  19.231   7.350
 6465POPC   NC341663  13.603  36.143   5.550
 6465POPC   PO441664  13.632  36.138   5.850
 6465POPC   GL141665  13.641  36.162   6.150
 6465POPC   GL241666  13.540  36.227   6.150
 6465POPC   C1A41667  13.597  36.114   6.450
 6465POPC   D2A41668  13.601  36.155   6.750
 6465POPC   C3A41669  13.628  36.139   7.050
 6465POPC   C4A41670  13.598  36.100   7.350
 6465POPC   C1B41671  13.463  36.269   6.450
 6465POPC   C2B41672  13.423  36.343   6.750
 6465POPC   C3B41673  13.478  36.310   7.050
 6465POPC   C4B41674  13.431  36.297   7.350
 6466POPC   NC341675  19.842   8.214   5.550
 6466POPC   PO441676  19.845   8.192   5.850
 6466POPC   GL141677  19.837   8.241   6.150
 6466POPC   GL241678  19.993   8.183   6.150
 6466POPC   C1A41679  19.830   8.204   6.450
 6466POPC   D2A41680  19.796   8.236   6.750
 6466POPC   C3A41681  19.879   8.154   7.050
 6466POPC   C4A41682  19.817   8.170   7.350
 6466POPC   C1B41683  20.074   8.233   6.450
 6466POPC   C2B41684  20.071   8.167   6.750
 6466POPC   C3B41685  20.036   8.195   7.050
 6466POPC   C4B41686  20.077   8.163   7.350
 6467POPC   NC341687  16.757  19.021   5.550
 6467POPC   PO441688  16.691  19.062   5.850
 6467POPC   GL141689  16.745  19.044   6.150
 6467POPC   GL241690  16.777  19.163   6.150
 6467POPC   C1A41691  16.779  19.098   6.450
 6467POPC   D2A41692  16.684  19.082   6.750
 6467POPC   C3A41693  16.751  19.047   7.050
 6467POPC   C4A41694  16.725  19.054   7.350
 6467POPC   C1B41695  16.896  19.284   6.450
 6467POPC   C2B41696  16.807  19.272   6.750
 6467POPC   C3B41697  16.855  19.271   7.050
 6467POPC   C4B41698  16.819  19.277   7.350
 6468POPC   NC341699  44.659   6.670   5.550
 6468POPC   PO441700  44.664   6.667   5.850
 6468POPC   GL141701  44.663   6.607   6.150
 6468POPC   GL241702  44.770   6.716   6.150
 6468POPC   C1A41703  44.634   6.621   6.450
 6468POPC   D2A41704  44.670   6.661   6.750
 6468POPC   C3A41705  44.647   6.616   7.050
 6468POPC   C4A41706  44.659   6.694   7.350
 6468POPC   C1B41707  44.796   6.825   6.450
 6468POPC   C2B41708  44.846   6.841   6.750
 6468POPC   C3B41709  44.829   6.826   7.050
 6468POPC   C4B41710  44.811   6.827   7.350
 6469POPC   NC341711  39.203  14.375   5.550
 6469POPC   PO441712  39.241  14.444   5.850
 6469POPC   GL141713  39.238  14.397   6.150
 6469POPC   GL241714  39.336  14.463   6.150
 6469POPC   C1A41715  39.222  14.392   6.450
 6469POPC   D2A41716  39.221  14.440   6.750
 6469POPC   C3A41717  39.252  14.390   7.050
 6469POPC   C4A41718  39.263  14.421   7.350
 6469POPC   C1B41719  39.414  14.562   6.450
 6469POPC   C2B41720  39.404  14.526   6.750
 6469POPC   C3B41721  39.427  14.569   7.050
 6469POPC   C4B41722  39.396  14.554   7.350
 6470POPC   NC341723  36.862  44.683   5.550
 6470POPC   PO441724  36.923  44.686   5.850
 6470POPC   GL141725  36.881  44.711   6.150
 6470POPC   GL241726  37.046  44.736   6.150
 6470POPC   C1A41727  36.880  44.631   6.450
 6470POPC   D2A41728  36.864  44.672   6.750
 6470POPC   C3A41729  36.917  44.623   7.050
 6470POPC   C4A41730  36.937  44.701   7.350
 6470POPC   C1B41731  37.100  44.769   6.450
 6470POPC   C2B41732  37.086  44.744   6.750
 6470POPC   C3B41733  37.112  44.762   7.050
 6470POPC   C4B41734  37.106  44.809   7.350
 6471POPC   NC341735  43.089  15.226   5.550
 6471POPC   PO441736  43.088  15.148   5.850
 6471POPC   GL141737  43.118  15.162   6.150
 6471POPC   GL241738  43.087  15.330   6.150
 6471POPC   C1A41739  43.082  15.212   6.450
 6471POPC   D2A41740  43.079  15.129   6.750
 6471POPC   C3A41741  43.159  15.167   7.050
 6471POPC   C4A41742  43.122  15.178   7.350
 6471POPC   C1B41743  42.985  15.403   6.450
 6471POPC   C2B41744  42.975  15.384   6.750
 6471POPC   C3B41745  43.009  15.394   7.050
 6471POPC   C4B41746  42.958  15.390   7.350
 6472POPC   NC341747   8.982   4.319   5.550
 6472POPC   PO441748   8.996   4.344   5.850
 6472POPC   GL141749   8.996   4.295   6.150
 6472POPC   GL241750   9.094   4.223   6.150
 6472POPC   C1A41751   9.007   4.329   6.450
 6472POPC   D2A41752   8.947   4.301   6.750
 6472POPC   C3A41753   9.011   4.293   7.050
 6472POPC   C4A41754   8.959   4.338   7.350
 6472POPC   C1B41755   9.148   4.134   6.450
 6472POPC   C2B41756   9.166   4.199   6.750
 6472POPC   C3B41757   9.188   4.190   7.050
 6472POPC   C4B41758   9.212   4.177   7.350
 6473POPC   NC341759  44.612  27.569   5.550
 6473POPC   PO441760  44.687  27.544   5.850
 6473POPC   GL141761  44.621  27.551   6.150
 6473POPC   GL241762  44.818  27.610   6.150
 6473POPC   C1A41763  44.706  27.550   6.450
 6473POPC   D2A41764  44.638  27.606   6.750
 6473POPC   C3A41765  44.640  27.630   7.050
 6473POPC   C4A41766  44.666  27.588   7.350
 6473POPC   C1B41767  44.921  27.647   6.450
 6473POPC   C2B41768  44.939  27.637   6.750
 6473POPC   C3B41769  44.918  27.663   7.050
 6473POPC   C4B41770  44.946  27.600   7.350
 6474POPC   NC341771  39.200  36.887   5.550
 6474POPC   PO441772  39.248  36.936   5.850
 6474POPC   GL141773  39.264  36.892   6.150
 6474POPC   GL241774  39.110  36.881   6.150
 6474POPC   C1A41775  39.244  36.908   6.450
 6474POPC   D2A41776  39.274  36.937   6.750
 6474POPC   C3A41777  39.279  36.871   7.050
 6474POPC   C4A41778  39.241  36.935   7.350
 6474POPC   C1B41779  38.945  36.970   6.450
 6474POPC   C2B41780  38.992  36.958   6.750
 6474POPC   C3B41781  38.999  36.976   7.050
 6474POPC   C4B41782  38.980  36.971   7.350
 6475POPC   NC341783  15.159   3.493   5.550
 6475POPC   PO441784  15.131   3.524   5.850
 6475POPC   GL141785  15.151   3.552   6.150
 6475POPC   GL241786  15.081   3.469   6.150
 6475POPC   C1A41787  15.209   3.531   6.450
 6475POPC   D2A41788  15.182   3.587   6.750
 6475POPC   C3A41789  15.179   3.504   7.050
 6475POPC   C4A41790  15.195   3.551   7.350
 6475POPC   C1B41791  14.909   3.420   6.450
 6475POPC   C2B41792  14.987   3.458   6.750
 6475POPC   C3B41793  14.993   3.452   7.050
 6475POPC   C4B41794  14.961   3.406   7.350
 6476POPC   NC341795  17.556  12.088   5.550
 6476POPC   PO441796  17.487  12.043   5.850
 6476POPC   GL141797  17.468  12.038   6.150
 6476POPC   GL241798  17.481  12.239   6.150
 6476POPC   C1A41799  17.471  12.069   6.450
 6476POPC   D2A41800  17.487  12.107   6.750
 6476POPC   C3A41801  17.471  12.076   7.050
 6476POPC   C4A41802  17.522  12.099   7.350
 6476POPC   C1B41803  17.533  12.351   6.450
 6476POPC   C2B41804  17.472  12.354   6.750
 6476POPC   C3B41805  17.489  12.360   7.050
 6476POPC   C4B41806  17.529  12.354   7.350
 6477POPC   NC341807   5.872   1.263   5.550
 6477POPC   PO441808   5.910   1.246   5.850
 6477POPC   GL141809   5.856   1.230   6.150
 6477POPC   GL241810   5.747   1.188   6.150
 6477POPC   C1A41811   5.839   1.193   6.450
 6477POPC   D2A41812   5.859   1.185   6.750
 6477POPC   C3A41813   5.864   1.231   7.050
 6477POPC   C4A41814   5.857   1.255   7.350
 6477POPC   C1B41815   5.634   1.241   6.450
 6477POPC   C2B41816   5.664   1.235   6.750
 6477POPC   C3B41817   5.640   1.200   7.050
 6477POPC   C4B41818   5.659   1.187   7.350
 6478POPC   NC341819  41.552  16.772   5.550
 6478POPC   PO441820  41.510  16.744   5.850
 6478POPC   GL141821  41.564  16.706   6.150
 6478POPC   GL241822  41.444  16.720   6.150
 6478POPC   C1A41823  41.537  16.708   6.450
 6478POPC   D2A41824  41.598  16.689   6.750
 6478POPC   C3A41825  41.575  16.709   7.050
 6478POPC   C4A41826  41.560  16.762   7.350
 6478POPC   C1B41827  41.302  16.789   6.450
 6478POPC   C2B41828  41.312  16.731   6.750
 6478POPC   C3B41829  41.334  16.759   7.050
 6478POPC   C4B41830  41.290  16.717   7.350
 6479POPC   NC341831  33.824   5.849   5.550
 6479POPC   PO441832  33.791   5.846   5.850
 6479POPC   GL141833  33.769   5.878   6.150
 6479POPC   GL241834  33.782   6.032   6.150
 6479POPC   C1A41835  33.808   5.821   6.450
 6479POPC   D2A41836  33.760   5.848   6.750
 6479POPC   C3A41837  33.761   5.845   7.050
 6479POPC   C4A41838  33.841   5.916   7.350
 6479POPC   C1B41839  33.755   6.063   6.450
 6479POPC   C2B41840  33.678   6.075   6.750
 6479POPC   C3B41841  33.684   6.065   7.050
 6479POPC   C4B41842  33.696   6.133   7.350
 6480POPC   NC341843  37.712   2.783   5.550
 6480POPC   PO441844  37.702   2.734   5.850
 6480POPC   GL141845  37.718   2.808   6.150
 6480POPC   GL241846  37.806   2.758   6.150
 6480POPC   C1A41847  37.712   2.805   6.450
 6480POPC   D2A41848  37.655   2.800   6.750
 6480POPC   C3A41849  37.718   2.740   7.050
 6480POPC   C4A41850  37.705   2.811   7.350
 6480POPC   C1B41851  37.870   2.659   6.450
 6480POPC   C2B41852  37.927   2.643   6.750
 6480POPC   C3B41853  37.927   2.657   7.050
 6480POPC   C4B41854  37.962   2.694   7.350
 6481POPC   NC341855   0.437  40.758   5.550
 6481POPC   PO441856   0.418  40.773   5.850
 6481POPC   GL141857   0.430  40.742   6.150
 6481POPC   GL241858   0.357  40.879   6.150
 6481POPC   C1A41859   0.487  40.763   6.450
 6481POPC   D2A41860   0.438  40.824   6.750
 6481POPC   C3A41861   0.451  40.779   7.050
 6481POPC   C4A41862   0.418  40.762   7.350
 6481POPC   C1B41863   0.257  40.909   6.450
 6481POPC   C2B41864   0.225  40.930   6.750
 6481POPC   C3B41865   0.269  40.991   7.050
 6481POPC   C4B41866   0.292  40.971   7.350
 6482POPC   NC341867  30.665   3.567   5.550
 6482POPC   PO441868  30.661   3.560   5.850
 6482POPC   GL141869  30.689   3.579   6.150
 6482POPC   GL241870  30.869   3.538   6.150
 6482POPC   C1A41871  30.654   3.501   6.450
 6482POPC   D2A41872  30.698   3.584   6.750
 6482POPC   C3A41873  30.670   3.566   7.050
 6482POPC   C4A41874  30.651   3.584   7.350
 6482POPC   C1B41875  30.944   3.537   6.450
 6482POPC   C2B41876  30.983   3.547   6.750
 6482POPC   C3B41877  30.902   3.533   7.050
 6482POPC   C4B41878  30.897   3.548   7.350
 6483POPC   NC341879  10.479  13.629   5.550
 6483POPC   PO441880  10.486  13.678   5.850
 6483POPC   GL141881  10.522  13.602   6.150
 6483POPC   GL241882  10.598  13.563   6.150
 6483POPC   C1A41883  10.567  13.628   6.450
 6483POPC   D2A41884  10.546  13.640   6.750
 6483POPC   C3A41885  10.566  13.638   7.050
 6483POPC   C4A41886  10.476  13.670   7.350
 6483POPC   C1B41887  10.795  13.581   6.450
 6483POPC   C2B41888  10.767  13.580   6.750
 6483POPC   C3B41889  10.762  13.527   7.050
 6483POPC   C4B41890  10.728  13.559   7.350
 6484POPC   NC341891  34.566   7.385   5.550
 6484POPC   PO441892  34.530   7.411   5.850
 6484POPC   GL141893  34.531   7.425   6.150
 6484POPC   GL241894  34.730   7.408   6.150
 6484POPC   C1A41895  34.594   7.396   6.450
 6484POPC   D2A41896  34.595   7.431   6.750
 6484POPC   C3A41897  34.579   7.433   7.050
 6484POPC   C4A41898  34.624   7.396   7.350
 6484POPC   C1B41899  34.766   7.313   6.450
 6484POPC   C2B41900  34.861   7.319   6.750
 6484POPC   C3B41901  34.821   7.291   7.050
 6484POPC   C4B41902  34.813   7.304   7.350
 6485POPC   NC341903  27.634  10.552   5.550
 6485POPC   PO441904  27.598  10.493   5.850
 6485POPC   GL141905  27.566  10.548   6.150
 6485POPC   GL241906  27.685  10.474   6.150
 6485POPC   C1A41907  27.603  10.476   6.450
 6485POPC   D2A41908  27.543  10.501   6.750
 6485POPC   C3A41909  27.588  10.522   7.050
 6485POPC   C4A41910  27.610  10.545   7.350
 6485POPC   C1B41911  27.825  10.444   6.450
 6485POPC   C2B41912  27.796  10.434   6.750
 6485POPC   C3B41913  27.796  10.487   7.050
 6485POPC   C4B41914  27.818  10.437   7.350
 6486POPC   NC341915  43.114   4.312   5.550
 6486POPC   PO441916  43.095   4.310   5.850
 6486POPC   GL141917  43.064   4.294   6.150
 6486POPC   GL241918  43.152   4.246   6.150
 6486POPC   C1A41919  43.085   4.341   6.450
 6486POPC   D2A41920  43.099   4.298   6.750
 6486POPC   C3A41921  43.152   4.282   7.050
 6486POPC   C4A41922  43.091   4.309   7.350
 6486POPC   C1B41923  43.264   4.084   6.450
 6486POPC   C2B41924  43.307   4.142   6.750
 6486POPC   C3B41925  43.243   4.121   7.050
 6486POPC   C4B41926  43.290   4.094   7.350
 6487POPC   NC341927  19.093   8.955   5.550
 6487POPC   PO441928  19.108   8.930   5.850
 6487POPC   GL141929  19.102   8.955   6.150
 6487POPC   GL241930  19.101   8.907   6.150
 6487POPC   C1A41931  19.052   8.958   6.450
 6487POPC   D2A41932  19.039   8.948   6.750
 6487POPC   C3A41933  19.091   8.997   7.050
 6487POPC   C4A41934  19.033   8.950   7.350
 6487POPC   C1B41935  19.196   8.771   6.450
 6487POPC   C2B41936  19.145   8.712   6.750
 6487POPC   C3B41937  19.213   8.746   7.050
 6487POPC   C4B41938  19.123   8.704   7.350
 6488POPC   NC341939  35.354   6.666   5.550
 6488POPC   PO441940  35.364   6.652   5.850
 6488POPC   GL141941  35.319   6.667   6.150
 6488POPC   GL241942  35.239   6.697   6.150
 6488POPC   C1A41943  35.345   6.656   6.450
 6488POPC   D2A41944  35.314   6.683   6.750
 6488POPC   C3A41945  35.395   6.603   7.050
 6488POPC   C4A41946  35.341   6.612   7.350
 6488POPC   C1B41947  35.145   6.711   6.450
 6488POPC   C2B41948  35.129   6.738   6.750
 6488POPC   C3B41949  35.127   6.652   7.050
 6488POPC   C4B41950  35.110   6.664   7.350
 6489POPC   NC341951  37.717  43.909   5.550
 6489POPC   PO441952  37.632  43.921   5.850
 6489POPC   GL141953  37.664  43.907   6.150
 6489POPC   GL241954  37.563  43.836   6.150
 6489POPC   C1A41955  37.715  43.851   6.450
 6489POPC   D2A41956  37.674  43.883   6.750
 6489POPC   C3A41957  37.687  43.864   7.050
 6489POPC   C4A41958  37.691  43.845   7.350
 6489POPC   C1B41959  37.396  43.860   6.450
 6489POPC   C2B41960  37.476  43.826   6.750
 6489POPC   C3B41961  37.454  43.853   7.050
 6489POPC   C4B41962  37.413  43.846   7.350
 6490POPC   NC341963  23.664  37.714   5.550
 6490POPC   PO441964  23.737  37.660   5.850
 6490POPC   GL141965  23.763  37.672   6.150
 6490POPC   GL241966  23.837  37.637   6.150
 6490POPC   C1A41967  23.738  37.660   6.450
 6490POPC   D2A41968  23.738  37.631   6.750
 6490POPC   C3A41969  23.720  37.680   7.050
 6490POPC   C4A41970  23.717  37.706   7.350
 6490POPC   C1B41971  23.876  37.540   6.450
 6490POPC   C2B41972  23.918  37.549   6.750
 6490POPC   C3B41973  23.915  37.547   7.050
 6490POPC   C4B41974  23.921  37.538   7.350
 6491POPC   NC341975   1.957  24.496   5.550
 6491POPC   PO441976   1.953  24.493   5.850
 6491POPC   GL141977   2.007  24.505   6.150
 6491POPC   GL241978   1.823  24.416   6.150
 6491POPC   C1A41979   1.956  24.478   6.450
 6491POPC   D2A41980   2.004  24.499   6.750
 6491POPC   C3A41981   2.035  24.496   7.050
 6491POPC   C4A41982   1.996  24.458   7.350
 6491POPC   C1B41983   1.731  24.383   6.450
 6491POPC   C2B41984   1.761  24.453   6.750
 6491POPC   C3B41985   1.743  24.378   7.050
 6491POPC   C4B41986   1.724  24.430   7.350
 6492POPC   NC341987  12.075  22.135   5.550
 6492POPC   PO441988  12.027  22.157   5.850
 6492POPC   GL141989  12.032  22.197   6.150
 6492POPC   GL241990  12.005  22.293   6.150
 6492POPC   C1A41991  12.088  22.117   6.450
 6492POPC   D2A41992  12.126  22.155   6.750
 6492POPC   C3A41993  12.119  22.194   7.050
 6492POPC   C4A41994  12.124  22.125   7.350
 6492POPC   C1B41995  11.980  22.392   6.450
 6492POPC   C2B41996  12.018  22.422   6.750
 6492POPC   C3B41997  12.021  22.436   7.050
 6492POPC   C4B41998  12.016  22.412   7.350
 6493POPC   NC341999  15.158  13.627   5.550
 6493POPC   PO442000  15.208  13.667   5.850
 6493POPC   GL142001  15.144  13.669   6.150
 6493POPC   GL242002  15.272  13.529   6.150
 6493POPC   C1A42003  15.152  13.634   6.450
 6493POPC   D2A42004  15.204  13.593   6.750
 6493POPC   C3A42005  15.229  13.671   7.050
 6493POPC   C4A42006  15.203  13.638   7.350
 6493POPC   C1B42007  15.349  13.431   6.450
 6493POPC   C2B42008  15.397  13.423   6.750
 6493POPC   C3B42009  15.366  13.424   7.050
 6493POPC   C4B42010  15.349  13.422   7.350
 6494POPC   NC342011   8.236  36.106   5.550
 6494POPC   PO442012   8.162  36.098   5.850
 6494POPC   GL142013   8.175  36.096   6.150
 6494POPC   GL242014   8.312  36.023   6.150
 6494POPC   C1A42015   8.162  36.130   6.450
 6494POPC   D2A42016   8.183  36.152   6.750
 6494POPC   C3A42017   8.238  36.150   7.050
 6494POPC   C4A42018   8.171  36.125   7.350
 6494POPC   C1B42019   8.424  36.001   6.450
 6494POPC   C2B42020   8.414  35.987   6.750
 6494POPC   C3B42021   8.371  36.006   7.050
 6494POPC   C4B42022   8.356  35.993   7.350
 6495POPC   NC342023  39.971  18.283   5.550
 6495POPC   PO442024  39.987  18.271   5.850
 6495POPC   GL142025  40.041  18.318   6.150
 6495POPC   GL242026  40.121  18.374   6.150
 6495POPC   C1A42027  39.975  18.303   6.450
 6495POPC   D2A42028  40.005  18.293   6.750
 6495POPC   C3A42029  40.040  18.311   7.050
 6495POPC   C4A42030  40.045  18.235   7.350
 6495POPC   C1B42031  40.235  18.396   6.450
 6495POPC   C2B42032  40.166  18.494   6.750
 6495POPC   C3B42033  40.204  18.458   7.050
 6495POPC   C4B42034  40.216  18.404   7.350
 6496POPC   NC342035  42.301   5.138   5.550
 6496POPC   PO442036  42.295   5.133   5.850
 6496POPC   GL142037  42.374   5.096   6.150
 6496POPC   GL242038  42.242   5.213   6.150
 6496POPC   C1A42039  42.346   5.143   6.450
 6496POPC   D2A42040  42.320   5.069   6.750
 6496POPC   C3A42041  42.326   5.063   7.050
 6496POPC   C4A42042  42.295   5.106   7.350
 6496POPC   C1B42043  42.154   5.222   6.450
 6496POPC   C2B42044  42.097   5.294   6.750
 6496POPC   C3B42045  42.111   5.250   7.050
 6496POPC   C4B42046  42.131   5.216   7.350
 6497POPC   NC342047  15.965  43.142   5.550
 6497POPC   PO442048  16.000  43.152   5.850
 6497POPC   GL142049  15.978  43.150   6.150
 6497POPC   GL242050  15.855  43.005   6.150
 6497POPC   C1A42051  16.001  43.119   6.450
 6497POPC   D2A42052  15.994  43.160   6.750
 6497POPC   C3A42053  15.991  43.159   7.050
 6497POPC   C4A42054  15.990  43.111   7.350
 6497POPC   C1B42055  15.805  42.872   6.450
 6497POPC   C2B42056  15.836  42.860   6.750
 6497POPC   C3B42057  15.820  42.849   7.050
 6497POPC   C4B42058  15.864  42.933   7.350
 6498POPC   NC342059  29.135  30.730   5.550
 6498POPC   PO442060  29.165  30.673   5.850
 6498POPC   GL142061  29.167  30.683   6.150
 6498POPC   GL242062  29.148  30.787   6.150
 6498POPC   C1A42063  29.190  30.656   6.450
 6498POPC   D2A42064  29.170  30.704   6.750
 6498POPC   C3A42065  29.153  30.651   7.050
 6498POPC   C4A42066  29.103  30.650   7.350
 6498POPC   C1B42067  29.137  30.929   6.450
 6498POPC   C2B42068  29.043  30.913   6.750
 6498POPC   C3B42069  29.078  30.902   7.050
 6498POPC   C4B42070  29.104  30.914   7.350
 6499POPC   NC342071  14.402  29.936   5.550
 6499POPC   PO442072  14.360  29.890   5.850
 6499POPC   GL142073  14.360  29.926   6.150
 6499POPC   GL242074  14.485  29.997   6.150
 6499POPC   C1A42075  14.373  29.895   6.450
 6499POPC   D2A42076  14.412  29.936   6.750
 6499POPC   C3A42077  14.414  29.943   7.050
 6499POPC   C4A42078  14.404  29.944   7.350
 6499POPC   C1B42079  14.553  30.131   6.450
 6499POPC   C2B42080  14.561  30.121   6.750
 6499POPC   C3B42081  14.617  30.089   7.050
 6499POPC   C4B42082  14.583  30.065   7.350
 6500POPC   NC342083  41.572  33.014   5.550
 6500POPC   PO442084  41.556  32.976   5.850
 6500POPC   GL142085  41.597  32.980   6.150
 6500POPC   GL242086  41.549  33.099   6.150
 6500POPC   C1A42087  41.519  33.054   6.450
 6500POPC   D2A42088  41.603  33.039   6.750
 6500POPC   C3A42089  41.540  32.989   7.050
 6500POPC   C4A42090  41.509  32.999   7.350
 6500POPC   C1B42091  41.528  33.299   6.450
 6500POPC   C2B42092  41.538  33.262   6.750
 6500POPC   C3B42093  41.475  33.289   7.050
 6500POPC   C4B42094  41.527  33.313   7.350
 6501POPC   NC342095   8.223  11.297   5.550
 6501POPC   PO442096   8.166  11.334   5.850
 6501POPC   GL142097   8.244  11.320   6.150
 6501POPC   GL242098   8.291  11.377   6.150
 6501POPC   C1A42099   8.219  11.338   6.450
 6501POPC   D2A42100   8.151  11.312   6.750
 6501POPC   C3A42101   8.244  11.252   7.050
 6501POPC   C4A42102   8.190  11.346   7.350
 6501POPC   C1B42103   8.442  11.329   6.450
 6501POPC   C2B42104   8.394  11.307   6.750
 6501POPC   C3B42105   8.434  11.328   7.050
 6501POPC   C4B42106   8.490  11.400   7.350
 6502POPC   NC342107  12.840  25.246   5.550
 6502POPC   PO442108  12.849  25.303   5.850
 6502POPC   GL142109  12.836  25.310   6.150
 6502POPC   GL242110  12.998  25.273   6.150
 6502POPC   C1A42111  12.846  25.305   6.450
 6502POPC   D2A42112  12.888  25.315   6.750
 6502POPC   C3A42113  12.891  25.293   7.050
 6502POPC   C4A42114  12.876  25.248   7.350
 6502POPC   C1B42115  13.129  25.362   6.450
 6502POPC   C2B42116  13.075  25.313   6.750
 6502POPC   C3B42117  13.055  25.322   7.050
 6502POPC   C4B42118  13.102  25.408   7.350
 6503POPC   NC342119  10.489  29.105   5.550
 6503POPC   PO442120  10.556  29.186   5.850
 6503POPC   GL142121  10.504  29.158   6.150
 6503POPC   GL242122  10.491  29.070   6.150
 6503POPC   C1A42123  10.555  29.147   6.450
 6503POPC   D2A42124  10.477  29.128   6.750
 6503POPC   C3A42125  10.567  29.193   7.050
 6503POPC   C4A42126  10.568  29.180   7.350
 6503POPC   C1B42127  10.324  28.996   6.450
 6503POPC   C2B42128  10.399  28.972   6.750
 6503POPC   C3B42129  10.348  28.948   7.050
 6503POPC   C4B42130  10.313  28.967   7.350
 6504POPC   NC342131  33.038  18.282   5.550
 6504POPC   PO442132  33.049  18.309   5.850
 6504POPC   GL142133  33.048  18.247   6.150
 6504POPC   GL242134  32.871  18.208   6.150
 6504POPC   C1A42135  33.032  18.293   6.450
 6504POPC   D2A42136  32.985  18.244   6.750
 6504POPC   C3A42137  32.993  18.315   7.050
 6504POPC   C4A42138  32.984  18.246   7.350
 6504POPC   C1B42139  32.830  18.239   6.450
 6504POPC   C2B42140  32.819  18.240   6.750
 6504POPC   C3B42141  32.797  18.168   7.050
 6504POPC   C4B42142  32.762  18.176   7.350
 6505POPC   NC342143  40.748   2.792   5.550
 6505POPC   PO442144  40.767   2.794   5.850
 6505POPC   GL142145  40.769   2.758   6.150
 6505POPC   GL242146  40.732   2.927   6.150
 6505POPC   C1A42147  40.769   2.733   6.450
 6505POPC   D2A42148  40.826   2.725   6.750
 6505POPC   C3A42149  40.805   2.742   7.050
 6505POPC   C4A42150  40.793   2.759   7.350
 6505POPC   C1B42151  40.759   3.060   6.450
 6505POPC   C2B42152  40.797   3.011   6.750
 6505POPC   C3B42153  40.711   3.060   7.050
 6505POPC   C4B42154  40.713   2.976   7.350
 6506POPC   NC342155  29.185  19.051   5.550
 6506POPC   PO442156  29.170  19.019   5.850
 6506POPC   GL142157  29.154  19.068   6.150
 6506POPC   GL242158  29.186  19.132   6.150
 6506POPC   C1A42159  29.178  19.058   6.450
 6506POPC   D2A42160  29.179  19.106   6.750
 6506POPC   C3A42161  29.136  19.099   7.050
 6506POPC   C4A42162  29.142  19.073   7.350
 6506POPC   C1B42163  29.152  19.285   6.450
 6506POPC   C2B42164  29.217  19.277   6.750
 6506POPC   C3B42165  29.232  19.321   7.050
 6506POPC   C4B42166  29.162  19.282   7.350
 6507POPC   NC342167  31.472  10.514   5.550
 6507POPC   PO442168  31.491  10.532   5.850
 6507POPC   GL142169  31.484  10.514   6.150
 6507POPC   GL242170  31.541  10.601   6.150
 6507POPC   C1A42171  31.496  10.500   6.450
 6507POPC   D2A42172  31.502  10.566   6.750
 6507POPC   C3A42173  31.482  10.534   7.050
 6507POPC   C4A42174  31.424  10.526   7.350
 6507POPC   C1B42175  31.741  10.625   6.450
 6507POPC   C2B42176  31.659  10.600   6.750
 6507POPC   C3B42177  31.716  10.610   7.050
 6507POPC   C4B42178  31.683  10.576   7.350
 6508POPC   NC342179  32.996  11.259   5.550
 6508POPC   PO442180  33.016  11.306   5.850
 6508POPC   GL142181  33.015  11.306   6.150
 6508POPC   GL242182  33.170  11.344   6.150
 6508POPC   C1A42183  33.007  11.255   6.450
 6508POPC   D2A42184  33.051  11.315   6.750
 6508POPC   C3A42185  33.048  11.298   7.050
 6508POPC   C4A42186  33.052  11.332   7.350
 6508POPC   C1B42187  33.269  11.426   6.450
 6508POPC   C2B42188  33.297  11.428   6.750
 6508POPC   C3B42189  33.301  11.402   7.050
 6508POPC   C4B42190  33.261  11.398   7.350
 6509POPC   NC342191   5.134   1.192   5.550
 6509POPC   PO442192   5.137   1.227   5.850
 6509POPC   GL142193   5.084   1.183   6.150
 6509POPC   GL242194   5.029   1.275   6.150
 6509POPC   C1A42195   5.105   1.243   6.450
 6509POPC   D2A42196   5.048   1.178   6.750
 6509POPC   C3A42197   5.060   1.262   7.050
 6509POPC   C4A42198   5.084   1.259   7.350
 6509POPC   C1B42199   4.913   1.320   6.450
 6509POPC   C2B42200   4.830   1.358   6.750
 6509POPC   C3B42201   4.904   1.330   7.050
 6509POPC   C4B42202   4.912   1.315   7.350
 6510POPC   NC342203  27.600   8.179   5.550
 6510POPC   PO442204  27.617   8.207   5.850
 6510POPC   GL142205  27.637   8.221   6.150
 6510POPC   GL242206  27.489   8.343   6.150
 6510POPC   C1A42207  27.557   8.198   6.450
 6510POPC   D2A42208  27.567   8.240   6.750
 6510POPC   C3A42209  27.579   8.201   7.050
 6510POPC   C4A42210  27.580   8.225   7.350
 6510POPC   C1B42211  27.512   8.379   6.450
 6510POPC   C2B42212  27.459   8.402   6.750
 6510POPC   C3B42213  27.502   8.437   7.050
 6510POPC   C4B42214  27.499   8.439   7.350
 6511POPC   NC342215  22.982  44.681   5.550
 6511POPC   PO442216  22.943  44.695   5.850
 6511POPC   GL142217  22.962  44.657   6.150
 6511POPC   GL242218  22.819  44.610   6.150
 6511POPC   C1A42219  22.987  44.668   6.450
 6511POPC   D2A42220  22.962  44.705   6.750
 6511POPC   C3A42221  22.938  44.672   7.050
 6511POPC   C4A42222  22.924  44.703   7.350
 6511POPC   C1B42223  22.759  44.525   6.450
 6511POPC   C2B42224  22.764  44.502   6.750
 6511POPC   C3B42225  22.754  44.471   7.050
 6511POPC   C4B42226  22.794  44.501   7.350
 6512POPC   NC342227  14.425  24.490   5.550
 6512POPC   PO442228  14.414  24.536   5.850
 6512POPC   GL142229  14.374  24.457   6.150
 6512POPC   GL242230  14.343  24.409   6.150
 6512POPC   C1A42231  14.430  24.452   6.450
 6512POPC   D2A42232  14.444  24.505   6.750
 6512POPC   C3A42233  14.408  24.465   7.050
 6512POPC   C4A42234  14.439  24.460   7.350
 6512POPC   C1B42235  14.335  24.259   6.450
 6512POPC   C2B42236  14.339  24.286   6.750
 6512POPC   C3B42237  14.290  24.243   7.050
 6512POPC   C4B42238  14.278  24.249   7.350
 6513POPC   NC342239  13.639  20.626   5.550
 6513POPC   PO442240  13.609  20.653   5.850
 6513POPC   GL142241  13.602  20.581   6.150
 6513POPC   GL242242  13.630  20.681   6.150
 6513POPC   C1A42243  13.636  20.561   6.450
 6513POPC   D2A42244  13.614  20.574   6.750
 6513POPC   C3A42245  13.649  20.608   7.050
 6513POPC   C4A42246  13.600  20.647   7.350
 6513POPC   C1B42247  13.704  20.805   6.450
 6513POPC   C2B42248  13.718  20.879   6.750
 6513POPC   C3B42249  13.699  20.900   7.050
 6513POPC   C4B42250  13.676  20.885   7.350
 6514POPC   NC342251  33.059  29.937   5.550
 6514POPC   PO442252  32.979  29.970   5.850
 6514POPC   GL142253  33.048  29.941   6.150
 6514POPC   GL242254  32.854  29.992   6.150
 6514POPC   C1A42255  33.009  29.880   6.450
 6514POPC   D2A42256  32.987  29.919   6.750
 6514POPC   C3A42257  33.025  29.875   7.050
 6514POPC   C4A42258  33.018  29.921   7.350
 6514POPC   C1B42259  32.786  30.021   6.450
 6514POPC   C2B42260  32.764  29.940   6.750
 6514POPC   C3B42261  32.801  30.011   7.050
 6514POPC   C4B42262  32.751  30.011   7.350
 6515POPC   NC342263  14.373  11.341   5.550
 6515POPC   PO442264  14.383  11.285   5.850
 6515POPC   GL142265  14.397  11.343   6.150
 6515POPC   GL242266  14.262  11.182   6.150
 6515POPC   C1A42267  14.382  11.325   6.450
 6515POPC   D2A42268  14.361  11.320   6.750
 6515POPC   C3A42269  14.417  11.304   7.050
 6515POPC   C4A42270  14.400  11.259   7.350
 6515POPC   C1B42271  14.179  11.098   6.450
 6515POPC   C2B42272  14.222  11.151   6.750
 6515POPC   C3B42273  14.229  11.138   7.050
 6515POPC   C4B42274  14.180  11.086   7.350
 6516POPC   NC342275  13.589  28.366   5.550
 6516POPC   PO442276  13.581  28.342   5.850
 6516POPC   GL142277  13.665  28.412   6.150
 6516POPC   GL242278  13.710  28.275   6.150
 6516POPC   C1A42279  13.635  28.339   6.450
 6516POPC   D2A42280  13.672  28.365   6.750
 6516POPC   C3A42281  13.620  28.335   7.050
 6516POPC   C4A42282  13.611  28.373   7.350
 6516POPC   C1B42283  13.759  28.155   6.450
 6516POPC   C2B42284  13.752  28.175   6.750
 6516POPC   C3B42285  13.774  28.109   7.050
 6516POPC   C4B42286  13.793  28.165   7.350
 6517POPC   NC342287  26.864   1.942   5.550
 6517POPC   PO442288  26.821   1.971   5.850
 6517POPC   GL142289  26.787   2.012   6.150
 6517POPC   GL242290  26.898   1.961   6.150
 6517POPC   C1A42291  26.829   1.964   6.450
 6517POPC   D2A42292  26.815   1.980   6.750
 6517POPC   C3A42293  26.768   2.021   7.050
 6517POPC   C4A42294  26.853   2.032   7.350
 6517POPC   C1B42295  27.035   2.016   6.450
 6517POPC   C2B42296  27.072   2.008   6.750
 6517POPC   C3B42297  27.024   2.055   7.050
 6517POPC   C4B42298  27.047   2.036   7.350
 6518POPC   NC342299  17.522  14.448   5.550
 6518POPC   PO442300  17.551  14.356   5.850
 6518POPC   GL142301  17.465  14.427   6.150
 6518POPC   GL242302  17.601  14.537   6.150
 6518POPC   C1A42303  17.475  14.445   6.450
 6518POPC   D2A42304  17.528  14.433   6.750
 6518POPC   C3A42305  17.545  14.383   7.050
 6518POPC   C4A42306  17.553  14.395   7.350
 6518POPC   C1B42307  17.661  14.570   6.450
 6518POPC   C2B42308  17.673  14.598   6.750
 6518POPC   C3B42309  17.680  14.544   7.050
 6518POPC   C4B42310  17.701  14.555   7.350
 6519POPC   NC342311  28.388  12.845   5.550
 6519POPC   PO442312  28.407  12.882   5.850
 6519POPC   GL142313  28.361  12.845   6.150
 6519POPC   GL242314  28.354  12.954   6.150
 6519POPC   C1A42315  28.341  12.846   6.450
 6519POPC   D2A42316  28.356  12.876   6.750
 6519POPC   C3A42317  28.376  12.815   7.050
 6519POPC   C4A42318  28.365  12.861   7.350
 6519POPC   C1B42319  28.221  13.067   6.450
 6519POPC   C2B42320  28.280  13.066   6.750
 6519POPC   C3B42321  28.213  13.101   7.050
 6519POPC   C4B42322  28.281  13.024   7.350
 6520POPC   NC342323   8.997  36.099   5.550
 6520POPC   PO442324   8.951  36.095   5.850
 6520POPC   GL142325   8.931  36.101   6.150
 6520POPC   GL242326   8.947  35.954   6.150
 6520POPC   C1A42327   8.940  36.152   6.450
 6520POPC   D2A42328   8.974  36.138   6.750
 6520POPC   C3A42329   8.924  36.081   7.050
 6520POPC   C4A42330   8.932  36.108   7.350
 6520POPC   C1B42331   8.941  35.858   6.450
 6520POPC   C2B42332   8.938  35.903   6.750
 6520POPC   C3B42333   8.957  35.860   7.050
 6520POPC   C4B42334   8.922  35.855   7.350
 6521POPC   NC342335  21.410  13.591   5.550
 6521POPC   PO442336  21.360  13.652   5.850
 6521POPC   GL142337  21.395  13.625   6.150
 6521POPC   GL242338  21.482  13.536   6.150
 6521POPC   C1A42339  21.362  13.617   6.450
 6521POPC   D2A42340  21.337  13.643   6.750
 6521POPC   C3A42341  21.399  13.635   7.050
 6521POPC   C4A42342  21.402  13.632   7.350
 6521POPC   C1B42343  21.572  13.496   6.450
 6521POPC   C2B42344  21.621  13.523   6.750
 6521POPC   C3B42345  21.573  13.494   7.050
 6521POPC   C4B42346  21.625  13.514   7.350
 6522POPC   NC342347   7.382  10.498   5.550
 6522POPC   PO442348   7.428  10.494   5.850
 6522POPC   GL142349   7.381  10.520   6.150
 6522POPC   GL242350   7.452  10.629   6.150
 6522POPC   C1A42351   7.447  10.526   6.450
 6522POPC   D2A42352   7.438  10.574   6.750
 6522POPC   C3A42353   7.376  10.494   7.050
 6522POPC   C4A42354   7.406  10.523   7.350
 6522POPC   C1B42355   7.439  10.768   6.450
 6522POPC   C2B42356   7.507  10.761   6.750
 6522POPC   C3B42357   7.435  10.800   7.050
 6522POPC   C4B42358   7.455  10.785   7.350
 6523POPC   NC342359  29.892  15.190   5.550
 6523POPC   PO442360  29.896  15.186   5.850
 6523POPC   GL142361  29.954  15.208   6.150
 6523POPC   GL242362  30.054  15.091   6.150
 6523POPC   C1A42363  29.945  15.158   6.450
 6523POPC   D2A42364  29.880  15.135   6.750
 6523POPC   C3A42365  29.939  15.151   7.050
 6523POPC   C4A42366  29.968  15.163   7.350
 6523POPC   C1B42367  30.126  15.104   6.450
 6523POPC   C2B42368  30.165  15.117   6.750
 6523POPC   C3B42369  30.188  15.096   7.050
 6523POPC   C4B42370  30.184  15.114   7.350
 6524POPC   NC342371  37.665  20.575   5.550
 6524POPC   PO442372  37.681  20.591   5.850
 6524POPC   GL142373  37.679  20.634   6.150
 6524POPC   GL242374  37.646  20.740   6.150
 6524POPC   C1A42375  37.640  20.617   6.450
 6524POPC   D2A42376  37.649  20.597   6.750
 6524POPC   C3A42377  37.715  20.590   7.050
 6524POPC   C4A42378  37.696  20.565   7.350
 6524POPC   C1B42379  37.689  20.817   6.450
 6524POPC   C2B42380  37.710  20.861   6.750
 6524POPC   C3B42381  37.685  20.888   7.050
 6524POPC   C4B42382  37.644  20.888   7.350
 6525POPC   NC342383  23.757  39.251   5.550
 6525POPC   PO442384  23.695  39.204   5.850
 6525POPC   GL142385  23.756  39.192   6.150
 6525POPC   GL242386  23.665  39.083   6.150
 6525POPC   C1A42387  23.730  39.261   6.450
 6525POPC   D2A42388  23.676  39.240   6.750
 6525POPC   C3A42389  23.671  39.228   7.050
 6525POPC   C4A42390  23.709  39.208   7.350
 6525POPC   C1B42391  23.593  38.999   6.450
 6525POPC   C2B42392  23.628  38.949   6.750
 6525POPC   C3B42393  23.616  38.991   7.050
 6525POPC   C4B42394  23.620  38.994   7.350
 6526POPC   NC342395  34.583  37.653   5.550
 6526POPC   PO442396  34.589  37.719   5.850
 6526POPC   GL142397  34.527  37.729   6.150
 6526POPC   GL242398  34.500  37.612   6.150
 6526POPC   C1A42399  34.611  37.677   6.450
 6526POPC   D2A42400  34.572  37.698   6.750
 6526POPC   C3A42401  34.616  37.690   7.050
 6526POPC   C4A42402  34.568  37.716   7.350
 6526POPC   C1B42403  34.389  37.468   6.450
 6526POPC   C2B42404  34.397  37.436   6.750
 6526POPC   C3B42405  34.449  37.455   7.050
 6526POPC   C4B42406  34.401  37.456   7.350
 6527POPC   NC342407  32.204  43.919   5.550
 6527POPC   PO442408  32.250  43.886   5.850
 6527POPC   GL142409  32.288  43.847   6.150
 6527POPC   GL242410  32.221  43.803   6.150
 6527POPC   C1A42411  32.201  43.934   6.450
 6527POPC   D2A42412  32.265  43.926   6.750
 6527POPC   C3A42413  32.245  43.874   7.050
 6527POPC   C4A42414  32.279  43.873   7.350
 6527POPC   C1B42415  32.315  43.658   6.450
 6527POPC   C2B42416  32.261  43.640   6.750
 6527POPC   C3B42417  32.302  43.624   7.050
 6527POPC   C4B42418  32.219  43.604   7.350
 6528POPC   NC342419  33.756  15.141   5.550
 6528POPC   PO442420  33.817  15.199   5.850
 6528POPC   GL142421  33.843  15.205   6.150
 6528POPC   GL242422  33.707  15.099   6.150
 6528POPC   C1A42423  33.755  15.136   6.450
 6528POPC   D2A42424  33.769  15.137   6.750
 6528POPC   C3A42425  33.805  15.149   7.050
 6528POPC   C4A42426  33.815  15.214   7.350
 6528POPC   C1B42427  33.616  15.007   6.450
 6528POPC   C2B42428  33.543  15.031   6.750
 6528POPC   C3B42429  33.580  14.996   7.050
 6528POPC   C4B42430  33.615  15.042   7.350
 6529POPC   NC342431  19.026  38.406   5.550
 6529POPC   PO442432  19.068  38.431   5.850
 6529POPC   GL142433  19.035  38.414   6.150
 6529POPC   GL242434  19.022  38.594   6.150
 6529POPC   C1A42435  19.108  38.484   6.450
 6529POPC   D2A42436  19.040  38.447   6.750
 6529POPC   C3A42437  19.083  38.473   7.050
 6529POPC   C4A42438  19.094  38.484   7.350
 6529POPC   C1B42439  18.935  38.649   6.450
 6529POPC   C2B42440  18.932  38.645   6.750
 6529POPC   C3B42441  18.915  38.617   7.050
 6529POPC   C4B42442  18.952  38.644   7.350
 6530POPC   NC342443   3.583  12.096   5.550
 6530POPC   PO442444   3.568  12.041   5.850
 6530POPC   GL142445   3.585  12.100   6.150
 6530POPC   GL242446   3.379  12.109   6.150
 6530POPC   C1A42447   3.561  12.036   6.450
 6530POPC   D2A42448   3.522  12.068   6.750
 6530POPC   C3A42449   3.568  12.112   7.050
 6530POPC   C4A42450   3.546  12.081   7.350
 6530POPC   C1B42451   3.326  12.131   6.450
 6530POPC   C2B42452   3.316  12.159   6.750
 6530POPC   C3B42453   3.294  12.131   7.050
 6530POPC   C4B42454   3.261  12.179   7.350
 6531POPC   NC342455  36.149  22.951   5.550
 6531POPC   PO442456  36.170  22.902   5.850
 6531POPC   GL142457  36.144  22.947   6.150
 6531POPC   GL242458  36.000  22.918   6.150
 6531POPC   C1A42459  36.130  22.927   6.450
 6531POPC   D2A42460  36.163  22.953   6.750
 6531POPC   C3A42461  36.079  22.950   7.050
 6531POPC   C4A42462  36.169  22.928   7.350
 6531POPC   C1B42463  35.917  22.866   6.450
 6531POPC   C2B42464  35.853  22.847   6.750
 6531POPC   C3B42465  35.863  22.893   7.050
 6531POPC   C4B42466  35.888  22.893   7.350
 6532POPC   NC342467   3.505  27.552   5.550
 6532POPC   PO442468   3.580  27.577   5.850
 6532POPC   GL142469   3.574  27.626   6.150
 6532POPC   GL242470   3.543  27.723   6.150
 6532POPC   C1A42471   3.534  27.611   6.450
 6532POPC   D2A42472   3.574  27.547   6.750
 6532POPC   C3A42473   3.568  27.544   7.050
 6532POPC   C4A42474   3.521  27.617   7.350
 6532POPC   C1B42475   3.440  27.832   6.450
 6532POPC   C2B42476   3.492  27.840   6.750
 6532POPC   C3B42477   3.463  27.860   7.050
 6532POPC   C4B42478   3.486  27.871   7.350
 6533POPC   NC342479   0.408   4.289   5.550
 6533POPC   PO442480   0.389   4.343   5.850
 6533POPC   GL142481   0.423   4.349   6.150
 6533POPC   GL242482   0.328   4.341   6.150
 6533POPC   C1A42483   0.455   4.302   6.450
 6533POPC   D2A42484   0.392   4.336   6.750
 6533POPC   C3A42485   0.470   4.304   7.050
 6533POPC   C4A42486   0.397   4.334   7.350
 6533POPC   C1B42487   0.217   4.311   6.450
 6533POPC   C2B42488   0.149   4.275   6.750
 6533POPC   C3B42489   0.184   4.295   7.050
 6533POPC   C4B42490   0.209   4.259   7.350
 6534POPC   NC342491  29.176  42.330   5.550
 6534POPC   PO442492  29.191  42.289   5.850
 6534POPC   GL142493  29.183  42.365   6.150
 6534POPC   GL242494  29.065  42.257   6.150
 6534POPC   C1A42495  29.151  42.341   6.450
 6534POPC   D2A42496  29.170  42.297   6.750
 6534POPC   C3A42497  29.136  42.291   7.050
 6534POPC   C4A42498  29.126  42.340   7.350
 6534POPC   C1B42499  28.971  42.179   6.450
 6534POPC   C2B42500  28.888  42.200   6.750
 6534POPC   C3B42501  28.885  42.196   7.050
 6534POPC   C4B42502  28.954  42.233   7.350
 6535POPC   NC342503  12.839  31.517   5.550
 6535POPC   PO442504  12.860  31.473   5.850
 6535POPC   GL142505  12.833  31.457   6.150
 6535POPC   GL242506  13.016  31.519   6.150
 6535POPC   C1A42507  12.899  31.459   6.450
 6535POPC   D2A42508  12.888  31.472   6.750
 6535POPC   C3A42509  12.825  31.455   7.050
 6535POPC   C4A42510  12.864  31.492   7.350
 6535POPC   C1B42511  13.041  31.541   6.450
 6535POPC   C2B42512  13.139  31.511   6.750
 6535POPC   C3B42513  13.099  31.578   7.050
 6535POPC   C4B42514  13.081  31.584   7.350
 6536POPC   NC342515  36.112   9.014   5.550
 6536POPC   PO442516  36.150   8.924   5.850
 6536POPC   GL142517  36.107   9.019   6.150
 6536POPC   GL242518  36.205   8.829   6.150
 6536POPC   C1A42519  36.110   8.995   6.450
 6536POPC   D2A42520  36.113   8.987   6.750
 6536POPC   C3A42521  36.090   8.933   7.050
 6536POPC   C4A42522  36.164   8.976   7.350
 6536POPC   C1B42523  36.281   8.746   6.450
 6536POPC   C2B42524  36.221   8.734   6.750
 6536POPC   C3B42525  36.204   8.711   7.050
 6536POPC   C4B42526  36.247   8.782   7.350
 6537POPC   NC342527   5.910  19.031   5.550
 6537POPC   PO442528   5.875  19.094   5.850
 6537POPC   GL142529   5.870  19.053   6.150
 6537POPC   GL242530   5.818  18.999   6.150
 6537POPC   C1A42531   5.875  19.106   6.450
 6537POPC   D2A42532   5.913  19.009   6.750
 6537POPC   C3A42533   5.820  19.070   7.050
 6537POPC   C4A42534   5.854  19.087   7.350
 6537POPC   C1B42535   5.678  18.888   6.450
 6537POPC   C2B42536   5.702  18.938   6.750
 6537POPC   C3B42537   5.637  18.934   7.050
 6537POPC   C4B42538   5.728  18.864   7.350
 6538POPC   NC342539  12.100   2.793   5.550
 6538POPC   PO442540  12.084   2.761   5.850
 6538POPC   GL142541  12.104   2.782   6.150
 6538POPC   GL242542  12.202   2.834   6.150
 6538POPC   C1A42543  12.044   2.749   6.450
 6538POPC   D2A42544  12.122   2.752   6.750
 6538POPC   C3A42545  12.073   2.769   7.050
 6538POPC   C4A42546  12.082   2.759   7.350
 6538POPC   C1B42547  12.283   2.895   6.450
 6538POPC   C2B42548  12.261   2.903   6.750
 6538POPC   C3B42549  12.284   2.974   7.050
 6538POPC   C4B42550  12.265   2.921   7.350
 6539POPC   NC342551   2.729   4.275   5.550
 6539POPC   PO442552   2.790   4.328   5.850
 6539POPC   GL142553   2.717   4.333   6.150
 6539POPC   GL242554   2.599   4.258   6.150
 6539POPC   C1A42555   2.731   4.355   6.450
 6539POPC   D2A42556   2.790   4.292   6.750
 6539POPC   C3A42557   2.811   4.293   7.050
 6539POPC   C4A42558   2.749   4.274   7.350
 6539POPC   C1B42559   2.561   4.225   6.450
 6539POPC   C2B42560   2.514   4.271   6.750
 6539POPC   C3B42561   2.561   4.251   7.050
 6539POPC   C4B42562   2.558   4.250   7.350
 6540POPC   NC342563  36.875  39.992   5.550
 6540POPC   PO442564  36.947  39.965   5.850
 6540POPC   GL142565  36.947  40.000   6.150
 6540POPC   GL242566  36.784  40.002   6.150
 6540POPC   C1A42567  36.866  39.981   6.450
 6540POPC   D2A42568  36.921  39.961   6.750
 6540POPC   C3A42569  36.906  39.984   7.050
 6540POPC   C4A42570  36.874  39.963   7.350
 6540POPC   C1B42571  36.693  39.978   6.450
 6540POPC   C2B42572  36.637  39.921   6.750
 6540POPC   C3B42573  36.618  39.988   7.050
 6540POPC   C4B42574  36.617  39.939   7.350
 6541POPC   NC342575  27.566   1.253   5.550
 6541POPC   PO442576  27.627   1.184   5.850
 6541POPC   GL142577  27.551   1.195   6.150
 6541POPC   GL242578  27.667   1.194   6.150
 6541POPC   C1A42579  27.555   1.260   6.450
 6541POPC   D2A42580  27.544   1.196   6.750
 6541POPC   C3A42581  27.615   1.213   7.050
 6541POPC   C4A42582  27.593   1.218   7.350
 6541POPC   C1B42583  27.834   1.091   6.450
 6541POPC   C2B42584  27.851   1.155   6.750
 6541POPC   C3B42585  27.810   1.163   7.050
 6541POPC   C4B42586  27.810   1.118   7.350
 6542POPC   NC342587  21.415   5.844   5.550
 6542POPC   PO442588  21.395   5.918   5.850
 6542POPC   GL142589  21.365   5.871   6.150
 6542POPC   GL242590  21.345   5.746   6.150
 6542POPC   C1A42591  21.418   5.849   6.450
 6542POPC   D2A42592  21.395   5.856   6.750
 6542POPC   C3A42593  21.388   5.845   7.050
 6542POPC   C4A42594  21.401   5.867   7.350
 6542POPC   C1B42595  21.334   5.632   6.450
 6542POPC   C2B42596  21.364   5.651   6.750
 6542POPC   C3B42597  21.406   5.635   7.050
 6542POPC   C4B42598  21.409   5.614   7.350
 6543POPC   NC342599  40.793  15.972   5.550
 6543POPC   PO442600  40.820  15.988   5.850
 6543POPC   GL142601  40.830  15.979   6.150
 6543POPC   GL242602  40.899  16.000   6.150
 6543POPC   C1A42603  40.753  15.970   6.450
 6543POPC   D2A42604  40.769  15.920   6.750
 6543POPC   C3A42605  40.782  15.923   7.050
 6543POPC   C4A42606  40.741  15.927   7.350
 6543POPC   C1B42607  40.996  16.028   6.450
 6543POPC   C2B42608  41.072  16.051   6.750
 6543POPC   C3B42609  41.039  15.992   7.050
 6543POPC   C4B42610  41.003  16.033   7.350
 6544POPC   NC342611  10.507  40.756   5.550
 6544POPC   PO442612  10.491  40.813   5.850
 6544POPC   GL142613  10.506  40.796   6.150
 6544POPC   GL242614  10.618  40.764   6.150
 6544POPC   C1A42615  10.546  40.740   6.450
 6544POPC   D2A42616  10.520  40.774   6.750
 6544POPC   C3A42617  10.515  40.790   7.050
 6544POPC   C4A42618  10.524  40.746   7.350
 6544POPC   C1B42619  10.718  40.620   6.450
 6544POPC   C2B42620  10.707  40.634   6.750
 6544POPC   C3B42621  10.701  40.617   7.050
 6544POPC   C4B42622  10.752  40.704   7.350
 6545POPC   NC342623  37.668  33.767   5.550
 6545POPC   PO442624  37.632  33.773   5.850
 6545POPC   GL142625  37.697  33.792   6.150
 6545POPC   GL242626  37.574  33.792   6.150
 6545POPC   C1A42627  37.669  33.835   6.450
 6545POPC   D2A42628  37.702  33.771   6.750
 6545POPC   C3A42629  37.680  33.794   7.050
 6545POPC   C4A42630  37.683  33.823   7.350
 6545POPC   C1B42631  37.456  33.831   6.450
 6545POPC   C2B42632  37.423  33.785   6.750
 6545POPC   C3B42633  37.403  33.745   7.050
 6545POPC   C4B42634  37.395  33.781   7.350
 6546POPC   NC342635  10.539  32.212   5.550
 6546POPC   PO442636  10.562  32.217   5.850
 6546POPC   GL142637  10.558  32.216   6.150
 6546POPC   GL242638  10.436  32.349   6.150
 6546POPC   C1A42639  10.553  32.264   6.450
 6546POPC   D2A42640  10.511  32.241   6.750
 6546POPC   C3A42641  10.510  32.231   7.050
 6546POPC   C4A42642  10.523  32.213   7.350
 6546POPC   C1B42643  10.319  32.465   6.450
 6546POPC   C2B42644  10.386  32.412   6.750
 6546POPC   C3B42645  10.366  32.444   7.050
 6546POPC   C4B42646  10.384  32.401   7.350
 6547POPC   NC342647  36.856   9.719   5.550
 6547POPC   PO442648  36.940   9.744   5.850
 6547POPC   GL142649  36.942   9.739   6.150
 6547POPC   GL242650  37.052   9.689   6.150
 6547POPC   C1A42651  36.918   9.787   6.450
 6547POPC   D2A42652  36.895   9.774   6.750
 6547POPC   C3A42653  36.880   9.706   7.050
 6547POPC   C4A42654  36.936   9.724   7.350
 6547POPC   C1B42655  37.093   9.587   6.450
 6547POPC   C2B42656  37.131   9.657   6.750
 6547POPC   C3B42657  37.144   9.609   7.050
 6547POPC   C4B42658  37.091   9.667   7.350
 6548POPC   NC342659   6.672  43.079   5.550
 6548POPC   PO442660   6.659  43.127   5.850
 6548POPC   GL142661   6.666  43.092   6.150
 6548POPC   GL242662   6.506  43.219   6.150
 6548POPC   C1A42663   6.681  43.120   6.450
 6548POPC   D2A42664   6.648  43.097   6.750
 6548POPC   C3A42665   6.669  43.076   7.050
 6548POPC   C4A42666   6.639  43.112   7.350
 6548POPC   C1B42667   6.499  43.272   6.450
 6548POPC   C2B42668   6.424  43.271   6.750
 6548POPC   C3B42669   6.446  43.327   7.050
 6548POPC   C4B42670   6.441  43.306   7.350
 6549POPC   NC342671  29.195  41.526   5.550
 6549POPC   PO442672  29.188  41.578   5.850
 6549POPC   GL142673  29.118  41.582   6.150
 6549POPC   GL242674  29.085  41.632   6.150
 6549POPC   C1A42675  29.156  41.567   6.450
 6549POPC   D2A42676  29.133  41.589   6.750
 6549POPC   C3A42677  29.194  41.597   7.050
 6549POPC   C4A42678  29.157  41.580   7.350
 6549POPC   C1B42679  28.954  41.681   6.450
 6549POPC   C2B42680  28.950  41.732   6.750
 6549POPC   C3B42681  28.930  41.711   7.050
 6549POPC   C4B42682  28.969  41.721   7.350
 6550POPC   NC342683   5.123  22.958   5.550
 6550POPC   PO442684   5.070  22.916   5.850
 6550POPC   GL142685   5.095  22.971   6.150
 6550POPC   GL242686   4.924  22.882   6.150
 6550POPC   C1A42687   5.077  22.928   6.450
 6550POPC   D2A42688   5.091  22.930   6.750
 6550POPC   C3A42689   5.057  22.927   7.050
 6550POPC   C4A42690   5.123  22.988   7.350
 6550POPC   C1B42691   4.852  22.895   6.450
 6550POPC   C2B42692   4.816  22.892   6.750
 6550POPC   C3B42693   4.825  22.868   7.050
 6550POPC   C4B42694   4.861  22.893   7.350
 6551POPC   NC342695  20.579   5.112   5.550
 6551POPC   PO442696  20.641   5.068   5.850
 6551POPC   GL142697  20.618   5.109   6.150
 6551POPC   GL242698  20.528   5.070   6.150
 6551POPC   C1A42699  20.608   5.140   6.450
 6551POPC   D2A42700  20.600   5.071   6.750
 6551POPC   C3A42701  20.575   5.137   7.050
 6551POPC   C4A42702  20.575   5.095   7.350
 6551POPC   C1B42703  20.354   5.164   6.450
 6551POPC   C2B42704  20.408   5.186   6.750
 6551POPC   C3B42705  20.347   5.113   7.050
 6551POPC   C4B42706  20.400   5.143   7.350
 6552POPC   NC342707   2.770  13.609   5.550
 6552POPC   PO442708   2.735  13.658   5.850
 6552POPC   GL142709   2.719  13.674   6.150
 6552POPC   GL242710   2.929  13.620   6.150
 6552POPC   C1A42711   2.754  13.645   6.450
 6552POPC   D2A42712   2.744  13.582   6.750
 6552POPC   C3A42713   2.788  13.579   7.050
 6552POPC   C4A42714   2.805  13.647   7.350
 6552POPC   C1B42715   3.037  13.672   6.450
 6552POPC   C2B42716   3.055  13.686   6.750
 6552POPC   C3B42717   2.991  13.716   7.050
 6552POPC   C4B42718   3.048  13.695   7.350
 6553POPC   NC342719  26.000   2.743   5.550
 6553POPC   PO442720  26.023   2.791   5.850
 6553POPC   GL142721  26.025   2.726   6.150
 6553POPC   GL242722  26.120   2.912   6.150
 6553POPC   C1A42723  26.000   2.746   6.450
 6553POPC   D2A42724  26.006   2.760   6.750
 6553POPC   C3A42725  25.993   2.781   7.050
 6553POPC   C4A42726  26.069   2.764   7.350
 6553POPC   C1B42727  26.094   3.033   6.450
 6553POPC   C2B42728  26.134   3.020   6.750
 6553POPC   C3B42729  26.154   3.000   7.050
 6553POPC   C4B42730  26.073   3.009   7.350
 6554POPC   NC342731  31.476   7.384   5.550
 6554POPC   PO442732  31.509   7.438   5.850
 6554POPC   GL142733  31.424   7.380   6.150
 6554POPC   GL242734  31.373   7.478   6.150
 6554POPC   C1A42735  31.483   7.404   6.450
 6554POPC   D2A42736  31.506   7.380   6.750
 6554POPC   C3A42737  31.428   7.393   7.050
 6554POPC   C4A42738  31.510   7.377   7.350
 6554POPC   C1B42739  31.294   7.642   6.450
 6554POPC   C2B42740  31.371   7.620   6.750
 6554POPC   C3B42741  31.358   7.652   7.050
 6554POPC   C4B42742  31.282   7.628   7.350
 6555POPC   NC342743  38.429  13.653   5.550
 6555POPC   PO442744  38.423  13.637   5.850
 6555POPC   GL142745  38.447  13.639   6.150
 6555POPC   GL242746  38.332  13.730   6.150
 6555POPC   C1A42747  38.411  13.635   6.450
 6555POPC   D2A42748  38.491  13.658   6.750
 6555POPC   C3A42749  38.446  13.615   7.050
 6555POPC   C4A42750  38.439  13.619   7.350
 6555POPC   C1B42751  38.253  13.803   6.450
 6555POPC   C2B42752  38.297  13.832   6.750
 6555POPC   C3B42753  38.280  13.786   7.050
 6555POPC   C4B42754  38.238  13.814   7.350
 6556POPC   NC342755  15.222   2.772   5.550
 6556POPC   PO442756  15.167   2.791   5.850
 6556POPC   GL142757  15.210   2.803   6.150
 6556POPC   GL242758  15.040   2.847   6.150
 6556POPC   C1A42759  15.144   2.722   6.450
 6556POPC   D2A42760  15.222   2.814   6.750
 6556POPC   C3A42761  15.148   2.814   7.050
 6556POPC   C4A42762  15.173   2.723   7.350
 6556POPC   C1B42763  14.912   2.895   6.450
 6556POPC   C2B42764  14.918   2.897   6.750
 6556POPC   C3B42765  14.960   2.913   7.050
 6556POPC   C4B42766  14.960   2.894   7.350
 6557POPC   NC342767  44.658  36.101   5.550
 6557POPC   PO442768  44.673  36.083   5.850
 6557POPC   GL142769  44.628  36.107   6.150
 6557POPC   GL242770  44.647  36.297   6.150
 6557POPC   C1A42771  44.684  36.119   6.450
 6557POPC   D2A42772  44.678  36.125   6.750
 6557POPC   C3A42773  44.674  36.084   7.050
 6557POPC   C4A42774  44.621  36.163   7.350
 6557POPC   C1B42775  44.751  36.408   6.450
 6557POPC   C2B42776  44.685  36.385   6.750
 6557POPC   C3B42777  44.738  36.388   7.050
 6557POPC   C4B42778  44.719  36.367   7.350
 6558POPC   NC342779  22.170   8.981   5.550
 6558POPC   PO442780  22.154   8.949   5.850
 6558POPC   GL142781  22.158   8.996   6.150
 6558POPC   GL242782  22.157   8.826   6.150
 6558POPC   C1A42783  22.133   9.000   6.450
 6558POPC   D2A42784  22.197   8.955   6.750
 6558POPC   C3A42785  22.163   8.998   7.050
 6558POPC   C4A42786  22.152   9.006   7.350
 6558POPC   C1B42787  22.172   8.678   6.450
 6558POPC   C2B42788  22.220   8.703   6.750
 6558POPC   C3B42789  22.157   8.762   7.050
 6558POPC   C4B42790  22.222   8.767   7.350
 6559POPC   NC342791  43.910  14.429   5.550
 6559POPC   PO442792  43.837  14.452   5.850
 6559POPC   GL142793  43.921  14.391   6.150
 6559POPC   GL242794  43.843  14.536   6.150
 6559POPC   C1A42795  43.882  14.404   6.450
 6559POPC   D2A42796  43.900  14.420   6.750
 6559POPC   C3A42797  43.871  14.404   7.050
 6559POPC   C4A42798  43.909  14.368   7.350
 6559POPC   C1B42799  43.751  14.574   6.450
 6559POPC   C2B42800  43.708  14.582   6.750
 6559POPC   C3B42801  43.756  14.615   7.050
 6559POPC   C4B42802  43.680  14.552   7.350
 6560POPC   NC342803  33.003  19.045   5.550
 6560POPC   PO442804  32.983  19.053   5.850
 6560POPC   GL142805  33.027  19.022   6.150
 6560POPC   GL242806  32.996  19.204   6.150
 6560POPC   C1A42807  33.042  19.087   6.450
 6560POPC   D2A42808  33.037  19.024   6.750
 6560POPC   C3A42809  33.052  19.098   7.050
 6560POPC   C4A42810  33.006  19.096   7.350
 6560POPC   C1B42811  32.852  19.304   6.450
 6560POPC   C2B42812  32.849  19.291   6.750
 6560POPC   C3B42813  32.926  19.305   7.050
 6560POPC   C4B42814  32.925  19.259   7.350
 6561POPC   NC342815  31.461  36.131   5.550
 6561POPC   PO442816  31.520  36.083   5.850
 6561POPC   GL142817  31.516  36.167   6.150
 6561POPC   GL242818  31.319  36.151   6.150
 6561POPC   C1A42819  31.466  36.092   6.450
 6561POPC   D2A42820  31.428  36.123   6.750
 6561POPC   C3A42821  31.473  36.128   7.050
 6561POPC   C4A42822  31.468  36.110   7.350
 6561POPC   C1B42823  31.179  36.132   6.450
 6561POPC   C2B42824  31.249  36.077   6.750
 6561POPC   C3B42825  31.234  36.069   7.050
 6561POPC   C4B42826  31.244  36.152   7.350
 6562POPC   NC342827   5.917   8.241   5.550
 6562POPC   PO442828   5.861   8.150   5.850
 6562POPC   GL142829   5.912   8.234   6.150
 6562POPC   GL242830   5.807   8.339   6.150
 6562POPC   C1A42831   5.887   8.155   6.450
 6562POPC   D2A42832   5.918   8.161   6.750
 6562POPC   C3A42833   5.826   8.182   7.050
 6562POPC   C4A42834   5.845   8.234   7.350
 6562POPC   C1B42835   5.722   8.398   6.450
 6562POPC   C2B42836   5.786   8.440   6.750
 6562POPC   C3B42837   5.716   8.392   7.050
 6562POPC   C4B42838   5.779   8.422   7.350
 6563POPC   NC342839  10.484   2.753   5.550
 6563POPC   PO442840  10.561   2.734   5.850
 6563POPC   GL142841  10.574   2.733   6.150
 6563POPC   GL242842  10.653   2.726   6.150
 6563POPC   C1A42843  10.528   2.812   6.450
 6563POPC   D2A42844  10.511   2.785   6.750
 6563POPC   C3A42845  10.563   2.734   7.050
 6563POPC   C4A42846  10.481   2.747   7.350
 6563POPC   C1B42847  10.798   2.717   6.450
 6563POPC   C2B42848  10.729   2.689   6.750
 6563POPC   C3B42849  10.803   2.670   7.050
 6563POPC   C4B42850  10.785   2.663   7.350
 6564POPC   NC342851  36.897  24.448   5.550
 6564POPC   PO442852  36.903  24.528   5.850
 6564POPC   GL142853  36.871  24.529   6.150
 6564POPC   GL242854  36.955  24.578   6.150
 6564POPC   C1A42855  36.859  24.534   6.450
 6564POPC   D2A42856  36.868  24.445   6.750
 6564POPC   C3A42857  36.927  24.521   7.050
 6564POPC   C4A42858  36.861  24.449   7.350
 6564POPC   C1B42859  37.075  24.603   6.450
 6564POPC   C2B42860  37.074  24.632   6.750
 6564POPC   C3B42861  37.121  24.639   7.050
 6564POPC   C4B42862  37.073  24.643   7.350
 6565POPC   NC342863   1.974   8.244   5.550
 6565POPC   PO442864   2.010   8.164   5.850
 6565POPC   GL142865   1.979   8.189   6.150
 6565POPC   GL242866   1.942   8.031   6.150
 6565POPC   C1A42867   2.024   8.156   6.450
 6565POPC   D2A42868   1.949   8.219   6.750
 6565POPC   C3A42869   1.985   8.227   7.050
 6565POPC   C4A42870   1.954   8.198   7.350
 6565POPC   C1B42871   1.885   7.999   6.450
 6565POPC   C2B42872   1.952   8.000   6.750
 6565POPC   C3B42873   1.907   7.977   7.050
 6565POPC   C4B42874   1.930   8.009   7.350
 6566POPC   NC342875  32.974  17.464   5.550
 6566POPC   PO442876  33.029  17.501   5.850
 6566POPC   GL142877  32.978  17.526   6.150
 6566POPC   GL242878  32.879  17.398   6.150
 6566POPC   C1A42879  32.990  17.515   6.450
 6566POPC   D2A42880  33.031  17.527   6.750
 6566POPC   C3A42881  33.051  17.464   7.050
 6566POPC   C4A42882  33.061  17.492   7.350
 6566POPC   C1B42883  32.847  17.385   6.450
 6566POPC   C2B42884  32.773  17.429   6.750
 6566POPC   C3B42885  32.782  17.401   7.050
 6566POPC   C4B42886  32.839  17.377   7.350
 6567POPC   NC342887  28.407  11.320   5.550
 6567POPC   PO442888  28.411  11.329   5.850
 6567POPC   GL142889  28.320  11.303   6.150
 6567POPC   GL242890  28.292  11.217   6.150
 6567POPC   C1A42891  28.412  11.275   6.450
 6567POPC   D2A42892  28.324  11.281   6.750
 6567POPC   C3A42893  28.324  11.276   7.050
 6567POPC   C4A42894  28.369  11.311   7.350
 6567POPC   C1B42895  28.151  11.153   6.450
 6567POPC   C2B42896  28.165  11.197   6.750
 6567POPC   C3B42897  28.119  11.172   7.050
 6567POPC   C4B42898  28.172  11.142   7.350
 6568POPC   NC342899  13.616  10.572   5.550
 6568POPC   PO442900  13.657  10.535   5.850
 6568POPC   GL142901  13.607  10.481   6.150
 6568POPC   GL242902  13.708  10.538   6.150
 6568POPC   C1A42903  13.585  10.552   6.450
 6568POPC   D2A42904  13.594  10.510   6.750
 6568POPC   C3A42905  13.605  10.489   7.050
 6568POPC   C4A42906  13.673  10.510   7.350
 6568POPC   C1B42907  13.825  10.665   6.450
 6568POPC   C2B42908  13.897  10.663   6.750
 6568POPC   C3B42909  13.807  10.585   7.050
 6568POPC   C4B42910  13.900  10.664   7.350
 6569POPC   NC342911  24.524  32.234   5.550
 6569POPC   PO442912  24.532  32.246   5.850
 6569POPC   GL142913  24.503  32.202   6.150
 6569POPC   GL242914  24.552  32.331   6.150
 6569POPC   C1A42915  24.460  32.202   6.450
 6569POPC   D2A42916  24.514  32.222   6.750
 6569POPC   C3A42917  24.451  32.203   7.050
 6569POPC   C4A42918  24.536  32.221   7.350
 6569POPC   C1B42919  24.569  32.451   6.450
 6569POPC   C2B42920  24.604  32.464   6.750
 6569POPC   C3B42921  24.511  32.527   7.050
 6569POPC   C4B42922  24.529  32.516   7.350
 6570POPC   NC342923  22.943  30.656   5.550
 6570POPC   PO442924  22.966  30.735   5.850
 6570POPC   GL142925  22.919  30.734   6.150
 6570POPC   GL242926  22.876  30.672   6.150
 6570POPC   C1A42927  22.928  30.672   6.450
 6570POPC   D2A42928  22.941  30.747   6.750
 6570POPC   C3A42929  22.916  30.654   7.050
 6570POPC   C4A42930  22.981  30.659   7.350
 6570POPC   C1B42931  22.718  30.631   6.450
 6570POPC   C2B42932  22.720  30.611   6.750
 6570POPC   C3B42933  22.685  30.545   7.050
 6570POPC   C4B42934  22.752  30.631   7.350
 6571POPC   NC342935   0.417  15.134   5.550
 6571POPC   PO442936   0.430  15.163   5.850
 6571POPC   GL142937   0.480  15.208   6.150
 6571POPC   GL242938   0.450  15.058   6.150
 6571POPC   C1A42939   0.484  15.130   6.450
 6571POPC   D2A42940   0.403  15.168   6.750
 6571POPC   C3A42941   0.419  15.203   7.050
 6571POPC   C4A42942   0.476  15.182   7.350
 6571POPC   C1B42943   0.433  14.970   6.450
 6571POPC   C2B42944   0.447  14.951   6.750
 6571POPC   C3B42945   0.405  14.927   7.050
 6571POPC   C4B42946   0.402  14.941   7.350
 6572POPC   NC342947  33.804  14.402   5.550
 6572POPC   PO442948  33.844  14.386   5.850
 6572POPC   GL142949  33.810  14.437   6.150
 6572POPC   GL242950  33.659  14.354   6.150
 6572POPC   C1A42951  33.791  14.365   6.450
 6572POPC   D2A42952  33.842  14.381   6.750
 6572POPC   C3A42953  33.760  14.420   7.050
 6572POPC   C4A42954  33.793  14.415   7.350
 6572POPC   C1B42955  33.587  14.291   6.450
 6572POPC   C2B42956  33.597  14.222   6.750
 6572POPC   C3B42957  33.584  14.253   7.050
 6572POPC   C4B42958  33.589  14.277   7.350
 6573POPC   NC342959  19.097  37.679   5.550
 6573POPC   PO442960  19.048  37.648   5.850
 6573POPC   GL142961  19.080  37.701   6.150
 6573POPC   GL242962  19.037  37.586   6.150
 6573POPC   C1A42963  19.044  37.632   6.450
 6573POPC   D2A42964  19.018  37.690   6.750
 6573POPC   C3A42965  19.034  37.703   7.050
 6573POPC   C4A42966  19.107  37.721   7.350
 6573POPC   C1B42967  18.988  37.484   6.450
 6573POPC   C2B42968  18.976  37.431   6.750
 6573POPC   C3B42969  18.934  37.484   7.050
 6573POPC   C4B42970  18.970  37.481   7.350
 6574POPC   NC342971  43.155  32.215   5.550
 6574POPC   PO442972  43.102  32.270   5.850
 6574POPC   GL142973  43.093  32.233   6.150
 6574POPC   GL242974  43.188  32.164   6.150
 6574POPC   C1A42975  43.069  32.247   6.450
 6574POPC   D2A42976  43.104  32.211   6.750
 6574POPC   C3A42977  43.137  32.294   7.050
 6574POPC   C4A42978  43.095  32.246   7.350
 6574POPC   C1B42979  43.386  32.172   6.450
 6574POPC   C2B42980  43.333  32.170   6.750
 6574POPC   C3B42981  43.320  32.183   7.050
 6574POPC   C4B42982  43.308  32.159   7.350
 6575POPC   NC342983  27.584  40.748   5.550
 6575POPC   PO442984  27.641  40.754   5.850
 6575POPC   GL142985  27.610  40.737   6.150
 6575POPC   GL242986  27.474  40.788   6.150
 6575POPC   C1A42987  27.543  40.815   6.450
 6575POPC   D2A42988  27.575  40.771   6.750
 6575POPC   C3A42989  27.605  40.740   7.050
 6575POPC   C4A42990  27.616  40.750   7.350
 6575POPC   C1B42991  27.328  40.726   6.450
 6575POPC   C2B42992  27.397  40.756   6.750
 6575POPC   C3B42993  27.376  40.680   7.050
 6575POPC   C4B42994  27.341  40.731   7.350
 6576POPC   NC342995  15.954  38.480   5.550
 6576POPC   PO442996  15.990  38.431   5.850
 6576POPC   GL142997  15.932  38.457   6.150
 6576POPC   GL242998  15.826  38.408   6.150
 6576POPC   C1A42999  15.943  38.432   6.450
 6576POPC   D2A43000  15.920  38.456   6.750
 6576POPC   C3A43001  15.919  38.485   7.050
 6576POPC   C4A43002  15.978  38.496   7.350
 6576POPC   C1B43003  15.740  38.352   6.450
 6576POPC   C2B43004  15.771  38.399   6.750
 6576POPC   C3B43005  15.753  38.360   7.050
 6576POPC   C4B43006  15.737  38.382   7.350
 6577POPC   NC343007   8.191  42.318   5.550
 6577POPC   PO443008   8.151  42.321   5.850
 6577POPC   GL143009   8.243  42.363   6.150
 6577POPC   GL243010   8.331  42.370   6.150
 6577POPC   C1A43011   8.187  42.372   6.450
 6577POPC   D2A43012   8.202  42.382   6.750
 6577POPC   C3A43013   8.182  42.290   7.050
 6577POPC   C4A43014   8.242  42.350   7.350
 6577POPC   C1B43015   8.482  42.271   6.450
 6577POPC   C2B43016   8.481  42.348   6.750
 6577POPC   C3B43017   8.484  42.309   7.050
 6577POPC   C4B43018   8.419  42.306   7.350
 6578POPC   NC343019  26.821  15.176   5.550
 6578POPC   PO443020  26.864  15.201   5.850
 6578POPC   GL143021  26.808  15.173   6.150
 6578POPC   GL243022  26.836  15.039   6.150
 6578POPC   C1A43023  26.855  15.191   6.450
 6578POPC   D2A43024  26.862  15.209   6.750
 6578POPC   C3A43025  26.866  15.208   7.050
 6578POPC   C4A43026  26.823  15.186   7.350
 6578POPC   C1B43027  26.802  14.948   6.450
 6578POPC   C2B43028  26.824  14.910   6.750
 6578POPC   C3B43029  26.835  14.896   7.050
 6578POPC   C4B43030  26.753  14.948   7.350
 6579POPC   NC343031  29.177  43.153   5.550
 6579POPC   PO443032  29.122  43.092   5.850
 6579POPC   GL143033  29.126  43.102   6.150
 6579POPC   GL243034  29.107  42.959   6.150
 6579POPC   C1A43035  29.111  43.089   6.450
 6579POPC   D2A43036  29.186  43.099   6.750
 6579POPC   C3A43037  29.137  43.126   7.050
 6579POPC   C4A43038  29.164  43.097   7.350
 6579POPC   C1B43039  29.155  42.903   6.450
 6579POPC   C2B43040  29.124  42.838   6.750
 6579POPC   C3B43041  29.113  42.853   7.050
 6579POPC   C4B43042  29.141  42.840   7.350
 6580POPC   NC343043  19.878  15.987   5.550
 6580POPC   PO443044  19.799  16.001   5.850
 6580POPC   GL143045  19.795  15.968   6.150
 6580POPC   GL243046  19.725  15.866   6.150
 6580POPC   C1A43047  19.879  15.959   6.450
 6580POPC   D2A43048  19.810  15.987   6.750
 6580POPC   C3A43049  19.809  15.971   7.050
 6580POPC   C4A43050  19.878  15.910   7.350
 6580POPC   C1B43051  19.567  15.821   6.450
 6580POPC   C2B43052  19.634  15.846   6.750
 6580POPC   C3B43053  19.608  15.855   7.050
 6580POPC   C4B43054  19.594  15.789   7.350
 6581POPC   NC343055   1.953  30.679   5.550
 6581POPC   PO443056   2.004  30.737   5.850
 6581POPC   GL143057   1.978  30.673   6.150
 6581POPC   GL243058   2.124  30.684   6.150
 6581POPC   C1A43059   2.037  30.700   6.450
 6581POPC   D2A43060   1.970  30.665   6.750
 6581POPC   C3A43061   1.967  30.745   7.050
 6581POPC   C4A43062   2.022  30.691   7.350
 6581POPC   C1B43063   2.230  30.597   6.450
 6581POPC   C2B43064   2.219  30.613   6.750
 6581POPC   C3B43065   2.279  30.645   7.050
 6581POPC   C4B43066   2.217  30.639   7.350
 6582POPC   NC343067   0.399  36.164   5.550
 6582POPC   PO443068   0.412  36.123   5.850
 6582POPC   GL143069   0.404  36.149   6.150
 6582POPC   GL243070   0.342  36.053   6.150
 6582POPC   C1A43071   0.464  36.174   6.450
 6582POPC   D2A43072   0.419  36.157   6.750
 6582POPC   C3A43073   0.469  36.111   7.050
 6582POPC   C4A43074   0.413  36.131   7.350
 6582POPC   C1B43075   0.171  36.062   6.450
 6582POPC   C2B43076   0.251  36.029   6.750
 6582POPC   C3B43077   0.219  36.004   7.050
 6582POPC   C4B43078   0.167  36.067   7.350
 6583POPC   NC343079   1.230  10.502   5.550
 6583POPC   PO443080   1.185  10.527   5.850
 6583POPC   GL143081   1.216  10.476   6.150
 6583POPC   GL243082   1.236  10.693   6.150
 6583POPC   C1A43083   1.200  10.495   6.450
 6583POPC   D2A43084   1.237  10.554   6.750
 6583POPC   C3A43085   1.174  10.521   7.050
 6583POPC   C4A43086   1.197  10.480   7.350
 6583POPC   C1B43087   1.295  10.764   6.450
 6583POPC   C2B43088   1.233  10.746   6.750
 6583POPC   C3B43089   1.277  10.742   7.050
 6583POPC   C4B43090   1.252  10.794   7.350
 6584POPC   NC343091  34.602  30.738   5.550
 6584POPC   PO443092  34.541  30.723   5.850
 6584POPC   GL143093  34.595  30.711   6.150
 6584POPC   GL243094  34.545  30.847   6.150
 6584POPC   C1A43095  34.614  30.688   6.450
 6584POPC   D2A43096  34.560  30.732   6.750
 6584POPC   C3A43097  34.602  30.725   7.050
 6584POPC   C4A43098  34.623  30.711   7.350
 6584POPC   C1B43099  34.481  30.906   6.450
 6584POPC   C2B43100  34.539  30.910   6.750
 6584POPC   C3B43101  34.486  30.915   7.050
 6584POPC   C4B43102  34.556  30.987   7.350
 6585POPC   NC343103  19.079  18.240   5.550
 6585POPC   PO443104  19.080  18.312   5.850
 6585POPC   GL143105  19.069  18.263   6.150
 6585POPC   GL243106  19.084  18.128   6.150
 6585POPC   C1A43107  19.031  18.283   6.450
 6585POPC   D2A43108  19.065  18.271   6.750
 6585POPC   C3A43109  19.011  18.243   7.050
 6585POPC   C4A43110  19.010  18.313   7.350
 6585POPC   C1B43111  19.045  18.005   6.450
 6585POPC   C2B43112  19.079  18.048   6.750
 6585POPC   C3B43113  19.006  18.014   7.050
 6585POPC   C4B43114  19.016  18.013   7.350
 6586POPC   NC343115  30.729  24.511   5.550
 6586POPC   PO443116  30.737  24.521   5.850
 6586POPC   GL143117  30.736  24.445   6.150
 6586POPC   GL243118  30.683  24.559   6.150
 6586POPC   C1A43119  30.725  24.500   6.450
 6586POPC   D2A43120  30.652  24.536   6.750
 6586POPC   C3A43121  30.746  24.470   7.050
 6586POPC   C4A43122  30.672  24.447   7.350
 6586POPC   C1B43123  30.580  24.739   6.450
 6586POPC   C2B43124  30.579  24.726   6.750
 6586POPC   C3B43125  30.567  24.714   7.050
 6586POPC   C4B43126  30.546  24.742   7.350
 6587POPC   NC343127  38.419  22.210   5.550
 6587POPC   PO443128  38.505  22.155   5.850
 6587POPC   GL143129  38.487  22.114   6.150
 6587POPC   GL243130  38.615  22.194   6.150
 6587POPC   C1A43131  38.424  22.205   6.450
 6587POPC   D2A43132  38.492  22.187   6.750
 6587POPC   C3A43133  38.412  22.186   7.050
 6587POPC   C4A43134  38.452  22.137   7.350
 6587POPC   C1B43135  38.716  22.240   6.450
 6587POPC   C2B43136  38.704  22.224   6.750
 6587POPC   C3B43137  38.698  22.214   7.050
 6587POPC   C4B43138  38.734  22.225   7.350
 6588POPC   NC343139  13.654  26.796   5.550
 6588POPC   PO443140  13.595  26.867   5.850
 6588POPC   GL143141  13.628  26.836   6.150
 6588POPC   GL243142  13.584  26.702   6.150
 6588POPC   C1A43143  13.620  26.828   6.450
 6588POPC   D2A43144  13.609  26.795   6.750
 6588POPC   C3A43145  13.634  26.791   7.050
 6588POPC   C4A43146  13.660  26.798   7.350
 6588POPC   C1B43147  13.611  26.578   6.450
 6588POPC   C2B43148  13.584  26.569   6.750
 6588POPC   C3B43149  13.548  26.542   7.050
 6588POPC   C4B43150  13.590  26.621   7.350
 6589POPC   NC343151   9.798   8.173   5.550
 6589POPC   PO443152   9.728   8.202   5.850
 6589POPC   GL143153   9.784   8.242   6.150
 6589POPC   GL243154   9.812   8.227   6.150
 6589POPC   C1A43155   9.710   8.157   6.450
 6589POPC   D2A43156   9.745   8.191   6.750
 6589POPC   C3A43157   9.717   8.227   7.050
 6589POPC   C4A43158   9.719   8.169   7.350
 6589POPC   C1B43159   9.941   8.344   6.450
 6589POPC   C2B43160   9.937   8.330   6.750
 6589POPC   C3B43161   9.924   8.283   7.050
 6589POPC   C4B43162   9.991   8.263   7.350
 6590POPC   NC343163   4.292   8.959   5.550
 6590POPC   PO443164   4.297   8.940   5.850
 6590POPC   GL143165   4.312   8.928   6.150
 6590POPC   GL243166   4.260   9.123   6.150
 6590POPC   C1A43167   4.327   8.953   6.450
 6590POPC   D2A43168   4.314   8.942   6.750
 6590POPC   C3A43169   4.288   8.945   7.050
 6590POPC   C4A43170   4.274   8.949   7.350
 6590POPC   C1B43171   4.214   9.199   6.450
 6590POPC   C2B43172   4.177   9.150   6.750
 6590POPC   C3B43173   4.168   9.159   7.050
 6590POPC   C4B43174   4.201   9.199   7.350
 6591POPC   NC343175  33.014   5.831   5.550
 6591POPC   PO443176  33.026   5.882   5.850
 6591POPC   GL143177  33.040   5.819   6.150
 6591POPC   GL243178  32.999   6.016   6.150
 6591POPC   C1A43179  32.976   5.839   6.450
 6591POPC   D2A43180  33.047   5.895   6.750
 6591POPC   C3A43181  33.065   5.858   7.050
 6591POPC   C4A43182  33.039   5.907   7.350
 6591POPC   C1B43183  32.896   6.141   6.450
 6591POPC   C2B43184  32.890   6.137   6.750
 6591POPC   C3B43185  32.902   6.085   7.050
 6591POPC   C4B43186  32.967   6.134   7.350
 6592POPC   NC343187   4.302  32.295   5.550
 6592POPC   PO443188   4.271  32.282   5.850
 6592POPC   GL143189   4.339  32.242   6.150
 6592POPC   GL243190   4.243  32.306   6.150
 6592POPC   C1A43191   4.338  32.224   6.450
 6592POPC   D2A43192   4.306  32.297   6.750
 6592POPC   C3A43193   4.330  32.259   7.050
 6592POPC   C4A43194   4.336  32.248   7.350
 6592POPC   C1B43195   4.110  32.347   6.450
 6592POPC   C2B43196   4.076  32.253   6.750
 6592POPC   C3B43197   4.115  32.332   7.050
 6592POPC   C4B43198   4.090  32.277   7.350
 6593POPC   NC343199  22.162  19.836   5.550
 6593POPC   PO443200  22.192  19.806   5.850
 6593POPC   GL143201  22.207  19.877   6.150
 6593POPC   GL243202  22.056  19.936   6.150
 6593POPC   C1A43203  22.183  19.861   6.450
 6593POPC   D2A43204  22.131  19.845   6.750
 6593POPC   C3A43205  22.206  19.883   7.050
 6593POPC   C4A43206  22.199  19.797   7.350
 6593POPC   C1B43207  22.000  20.027   6.450
 6593POPC   C2B43208  21.992  20.036   6.750
 6593POPC   C3B43209  22.059  20.056   7.050
 6593POPC   C4B43210  21.989  20.047   7.350
 6594POPC   NC343211   5.819  26.816   5.550
 6594POPC   PO443212   5.842  26.828   5.850
 6594POPC   GL143213   5.912  26.832   6.150
 6594POPC   GL243214   5.967  26.748   6.150
 6594POPC   C1A43215   5.863  26.790   6.450
 6594POPC   D2A43216   5.883  26.799   6.750
 6594POPC   C3A43217   5.858  26.786   7.050
 6594POPC   C4A43218   5.883  26.828   7.350
 6594POPC   C1B43219   6.138  26.810   6.450
 6594POPC   C2B43220   6.159  26.822   6.750
 6594POPC   C3B43221   6.076  26.816   7.050
 6594POPC   C4B43222   6.071  26.766   7.350
 6595POPC   NC343223  25.244  32.996   5.550
 6595POPC   PO443224  25.222  33.027   5.850
 6595POPC   GL143225  25.241  33.007   6.150
 6595POPC   GL243226  25.096  33.015   6.150
 6595POPC   C1A43227  25.314  32.994   6.450
 6595POPC   D2A43228  25.261  33.044   6.750
 6595POPC   C3A43229  25.265  32.981   7.050
 6595POPC   C4A43230  25.255  33.042   7.350
 6595POPC   C1B43231  24.977  33.001   6.450
 6595POPC   C2B43232  24.971  32.967   6.750
 6595POPC   C3B43233  25.053  33.055   7.050
 6595POPC   C4B43234  25.012  33.037   7.350
 6596POPC   NC343235  15.184  30.698   5.550
 6596POPC   PO443236  15.215  30.672   5.850
 6596POPC   GL143237  15.209  30.739   6.150
 6596POPC   GL243238  15.125  30.600   6.150
 6596POPC   C1A43239  15.145  30.745   6.450
 6596POPC   D2A43240  15.217  30.664   6.750
 6596POPC   C3A43241  15.213  30.710   7.050
 6596POPC   C4A43242  15.200  30.666   7.350
 6596POPC   C1B43243  15.015  30.582   6.450
 6596POPC   C2B43244  14.944  30.583   6.750
 6596POPC   C3B43245  14.995  30.508   7.050
 6596POPC   C4B43246  15.014  30.535   7.350
 6597POPC   NC343247  29.190  39.960   5.550
 6597POPC   PO443248  29.179  39.958   5.850
 6597POPC   GL143249  29.119  40.027   6.150
 6597POPC   GL243250  29.200  39.935   6.150
 6597POPC   C1A43251  29.164  40.013   6.450
 6597POPC   D2A43252  29.103  39.959   6.750
 6597POPC   C3A43253  29.137  39.992   7.050
 6597POPC   C4A43254  29.169  39.998   7.350
 6597POPC   C1B43255  29.294  39.843   6.450
 6597POPC   C2B43256  29.289  39.825   6.750
 6597POPC   C3B43257  29.283  39.857   7.050
 6597POPC   C4B43258  29.251  39.797   7.350
 6598POPC   NC343259   3.524  31.463   5.550
 6598POPC   PO443260   3.576  31.468   5.850
 6598POPC   GL143261   3.571  31.496   6.150
 6598POPC   GL243262   3.508  31.323   6.150
 6598POPC   C1A43263   3.561  31.460   6.450
 6598POPC   D2A43264   3.541  31.423   6.750
 6598POPC   C3A43265   3.542  31.492   7.050
 6598POPC   C4A43266   3.511  31.457   7.350
 6598POPC   C1B43267   3.491  31.232   6.450
 6598POPC   C2B43268   3.521  31.250   6.750
 6598POPC   C3B43269   3.445  31.220   7.050
 6598POPC   C4B43270   3.509  31.221   7.350
 6599POPC   NC343271  18.271  30.673   5.550
 6599POPC   PO443272  18.317  30.652   5.850
 6599POPC   GL143273  18.279  30.673   6.150
 6599POPC   GL243274  18.396  30.637   6.150
 6599POPC   C1A43275  18.259  30.650   6.450
 6599POPC   D2A43276  18.312  30.673   6.750
 6599POPC   C3A43277  18.263  30.743   7.050
 6599POPC   C4A43278  18.332  30.685   7.350
 6599POPC   C1B43279  18.430  30.519   6.450
 6599POPC   C2B43280  18.416  30.532   6.750
 6599POPC   C3B43281  18.429  30.505   7.050
 6599POPC   C4B43282  18.469  30.564   7.350
 6600POPC   NC343283   0.486  30.650   5.550
 6600POPC   PO443284   0.407  30.655   5.850
 6600POPC   GL143285   0.468  30.713   6.150
 6600POPC   GL243286   0.370  30.585   6.150
 6600POPC   C1A43287   0.404  30.676   6.450
 6600POPC   D2A43288   0.472  30.746   6.750
 6600POPC   C3A43289   0.482  30.659   7.050
 6600POPC   C4A43290   0.432  30.688   7.350
 6600POPC   C1B43291   0.407  30.414   6.450
 6600POPC   C2B43292   0.413  30.418   6.750
 6600POPC   C3B43293   0.381  30.473   7.050
 6600POPC   C4B43294   0.406  30.410   7.350
 6601POPC   NC343295   1.261  21.416   5.550
 6601POPC   PO443296   1.199  21.384   5.850
 6601POPC   GL143297   1.211  21.396   6.150
 6601POPC   GL243298   1.062  21.466   6.150
 6601POPC   C1A43299   1.175  21.363   6.450
 6601POPC   D2A43300   1.173  21.424   6.750
 6601POPC   C3A43301   1.242  21.388   7.050
 6601POPC   C4A43302   1.167  21.431   7.350
 6601POPC   C1B43303   1.017  21.445   6.450
 6601POPC   C2B43304   1.006  21.433   6.750
 6601POPC   C3B43305   1.020  21.464   7.050
 6601POPC   C4B43306   0.927  21.450   7.350
 6602POPC   NC343307  23.701  11.272   5.550
 6602POPC   PO443308  23.755  11.349   5.850
 6602POPC   GL143309  23.748  11.277   6.150
 6602POPC   GL243310  23.668  11.154   6.150
 6602POPC   C1A43311  23.755  11.297   6.450
 6602POPC   D2A43312  23.673  11.269   6.750
 6602POPC   C3A43313  23.690  11.286   7.050
 6602POPC   C4A43314  23.712  11.349   7.350
 6602POPC   C1B43315  23.563  11.113   6.450
 6602POPC   C2B43316  23.576  11.096   6.750
 6602POPC   C3B43317  23.597  11.118   7.050
 6602POPC   C4B43318  23.611  11.044   7.350
 6603POPC   NC343319  19.053  19.036   5.550
 6603POPC   PO443320  19.093  19.017   5.850
 6603POPC   GL143321  19.032  19.095   6.150
 6603POPC   GL243322  19.163  19.108   6.150
 6603POPC   C1A43323  19.106  19.061   6.450
 6603POPC   D2A43324  19.050  19.065   6.750
 6603POPC   C3A43325  19.077  19.078   7.050
 6603POPC   C4A43326  19.081  19.064   7.350
 6603POPC   C1B43327  19.335  19.106   6.450
 6603POPC   C2B43328  19.333  19.022   6.750
 6603POPC   C3B43329  19.307  19.016   7.050
 6603POPC   C4B43330  19.270  19.069   7.350
 6604POPC   NC343331   8.939  38.445   5.550
 6604POPC   PO443332   8.973  38.456   5.850
 6604POPC   GL143333   8.939  38.427   6.150
 6604POPC   GL243334   9.015  38.405   6.150
 6604POPC   C1A43335   8.998  38.428   6.450
 6604POPC   D2A43336   9.016  38.458   6.750
 6604POPC   C3A43337   9.017  38.441   7.050
 6604POPC   C4A43338   8.974  38.452   7.350
 6604POPC   C1B43339   9.166  38.259   6.450
 6604POPC   C2B43340   9.164  38.255   6.750
 6604POPC   C3B43341   9.118  38.284   7.050
 6604POPC   C4B43342   9.138  38.239   7.350
 6605POPC   NC343343  20.630  17.479   5.550
 6605POPC   PO443344  20.596  17.469   5.850
 6605POPC   GL143345  20.571  17.464   6.150
 6605POPC   GL243346  20.503  17.627   6.150
 6605POPC   C1A43347  20.610  17.549   6.450
 6605POPC   D2A43348  20.609  17.518   6.750
 6605POPC   C3A43349  20.619  17.496   7.050
 6605POPC   C4A43350  20.571  17.537   7.350
 6605POPC   C1B43351  20.486  17.694   6.450
 6605POPC   C2B43352  20.430  17.672   6.750
 6605POPC   C3B43353  20.505  17.692   7.050
 6605POPC   C4B43354  20.426  17.699   7.350
 6606POPC   NC343355   7.424  22.199   5.550
 6606POPC   PO443356   7.418  22.210   5.850
 6606POPC   GL143357   7.464  22.125   6.150
 6606POPC   GL243358   7.481  22.057   6.150
 6606POPC   C1A43359   7.409  22.117   6.450
 6606POPC   D2A43360   7.435  22.183   6.750
 6606POPC   C3A43361   7.420  22.204   7.050
 6606POPC   C4A43362   7.454  22.170   7.350
 6606POPC   C1B43363   7.636  21.994   6.450
 6606POPC   C2B43364   7.618  22.019   6.750
 6606POPC   C3B43365   7.643  22.000   7.050
 6606POPC   C4B43366   7.577  21.961   7.350
 6607POPC   NC343367  20.591  32.209   5.550
 6607POPC   PO443368  20.567  32.280   5.850
 6607POPC   GL143369  20.626  32.231   6.150
 6607POPC   GL243370  20.513  32.275   6.150
 6607POPC   C1A43371  20.569  32.214   6.450
 6607POPC   D2A43372  20.639  32.262   6.750
 6607POPC   C3A43373  20.573  32.257   7.050
 6607POPC   C4A43374  20.575  32.291   7.350
 6607POPC   C1B43375  20.391  32.177   6.450
 6607POPC   C2B43376  20.402  32.181   6.750
 6607POPC   C3B43377  20.329  32.206   7.050
 6607POPC   C4B43378  20.387  32.197   7.350
 6608POPC   NC343379  43.913  25.283   5.550
 6608POPC   PO443380  43.880  25.308   5.850
 6608POPC   GL143381  43.857  25.257   6.150
 6608POPC   GL243382  43.837  25.385   6.150
 6608POPC   C1A43383  43.916  25.249   6.450
 6608POPC   D2A43384  43.898  25.231   6.750
 6608POPC   C3A43385  43.921  25.308   7.050
 6608POPC   C4A43386  43.926  25.247   7.350
 6608POPC   C1B43387  43.882  25.495   6.450
 6608POPC   C2B43388  43.869  25.525   6.750
 6608POPC   C3B43389  43.890  25.481   7.050
 6608POPC   C4B43390  43.848  25.506   7.350
 6609POPC   NC343391  22.119   6.694   5.550
 6609POPC   PO443392  22.177   6.690   5.850
 6609POPC   GL143393  22.178   6.660   6.150
 6609POPC   GL243394  22.096   6.590   6.150
 6609POPC   C1A43395  22.138   6.630   6.450
 6609POPC   D2A43396  22.175   6.652   6.750
 6609POPC   C3A43397  22.114   6.633   7.050
 6609POPC   C4A43398  22.196   6.649   7.350
 6609POPC   C1B43399  21.979   6.453   6.450
 6609POPC   C2B43400  22.001   6.503   6.750
 6609POPC   C3B43401  22.023   6.467   7.050
 6609POPC   C4B43402  22.014   6.432   7.350
 6610POPC   NC343403   1.957  34.597   5.550
 6610POPC   PO443404   1.987  34.570   5.850
 6610POPC   GL143405   2.021  34.558   6.150
 6610POPC   GL243406   2.111  34.477   6.150
 6610POPC   C1A43407   1.949  34.565   6.450
 6610POPC   D2A43408   1.989  34.622   6.750
 6610POPC   C3A43409   2.033  34.534   7.050
 6610POPC   C4A43410   1.995  34.581   7.350
 6610POPC   C1B43411   2.136  34.424   6.450
 6610POPC   C2B43412   2.119  34.421   6.750
 6610POPC   C3B43413   2.156  34.360   7.050
 6610POPC   C4B43414   2.160  34.382   7.350
 6611POPC   NC343415  29.878  19.040   5.550
 6611POPC   PO443416  29.935  19.048   5.850
 6611POPC   GL143417  29.943  19.018   6.150
 6611POPC   GL243418  30.029  19.043   6.150
 6611POPC   C1A43419  29.909  19.011   6.450
 6611POPC   D2A43420  29.914  19.045   6.750
 6611POPC   C3A43421  29.898  19.073   7.050
 6611POPC   C4A43422  29.874  19.077   7.350
 6611POPC   C1B43423  30.202  19.040   6.450
 6611POPC   C2B43424  30.218  19.134   6.750
 6611POPC   C3B43425  30.145  19.046   7.050
 6611POPC   C4B43426  30.184  19.112   7.350
 6612POPC   NC343427  14.380   9.005   5.550
 6612POPC   PO443428  14.409   8.999   5.850
 6612POPC   GL143429  14.385   8.997   6.150
 6612POPC   GL243430  14.503   8.837   6.150
 6612POPC   C1A43431  14.358   8.951   6.450
 6612POPC   D2A43432  14.383   8.933   6.750
 6612POPC   C3A43433  14.389   9.008   7.050
 6612POPC   C4A43434  14.421   8.963   7.350
 6612POPC   C1B43435  14.500   8.760   6.450
 6612POPC   C2B43436  14.518   8.704   6.750
 6612POPC   C3B43437  14.547   8.731   7.050
 6612POPC   C4B43438  14.547   8.760   7.350
 6613POPC   NC343439  38.493  40.053   5.550
 6613POPC   PO443440  38.463  39.983   5.850
 6613POPC   GL143441  38.472  39.999   6.150
 6613POPC   GL243442  38.550  39.858   6.150
 6613POPC   C1A43443  38.433  40.042   6.450
 6613POPC   D2A43444  38.476  40.040   6.750
 6613POPC   C3A43445  38.439  39.984   7.050
 6613POPC   C4A43446  38.494  39.991   7.350
 6613POPC   C1B43447  38.610  39.744   6.450
 6613POPC   C2B43448  38.604  39.743   6.750
 6613POPC   C3B43449  38.544  39.791   7.050
 6613POPC   C4B43450  38.585  39.775   7.350
 6614POPC   NC343451  43.124  38.472   5.550
 6614POPC   PO443452  43.133  38.445   5.850
 6614POPC   GL143453  43.131  38.451   6.150
 6614POPC   GL243454  43.214  38.505   6.150
 6614POPC   C1A43455  43.149  38.498   6.450
 6614POPC   D2A43456  43.106  38.497   6.750
 6614POPC   C3A43457  43.119  38.449   7.050
 6614POPC   C4A43458  43.097  38.476   7.350
 6614POPC   C1B43459  43.322  38.585   6.450
 6614POPC   C2B43460  43.278  38.613   6.750
 6614POPC   C3B43461  43.271  38.602   7.050
 6614POPC   C4B43462  43.298  38.632   7.350
 6615POPC   NC343463  17.509  15.158   5.550
 6615POPC   PO443464  17.544  15.182   5.850
 6615POPC   GL143465  17.470  15.169   6.150
 6615POPC   GL243466  17.437  15.126   6.150
 6615POPC   C1A43467  17.539  15.167   6.450
 6615POPC   D2A43468  17.515  15.180   6.750
 6615POPC   C3A43469  17.517  15.172   7.050
 6615POPC   C4A43470  17.516  15.215   7.350
 6615POPC   C1B43471  17.316  15.043   6.450
 6615POPC   C2B43472  17.273  15.089   6.750
 6615POPC   C3B43473  17.255  15.058   7.050
 6615POPC   C4B43474  17.257  15.043   7.350
 6616POPC   NC343475  42.372   1.175   5.550
 6616POPC   PO443476  42.371   1.228   5.850
 6616POPC   GL143477  42.373   1.194   6.150
 6616POPC   GL243478  42.277   1.150   6.150
 6616POPC   C1A43479  42.346   1.227   6.450
 6616POPC   D2A43480  42.331   1.245   6.750
 6616POPC   C3A43481  42.358   1.191   7.050
 6616POPC   C4A43482  42.333   1.201   7.350
 6616POPC   C1B43483  42.191   1.015   6.450
 6616POPC   C2B43484  42.161   1.089   6.750
 6616POPC   C3B43485  42.164   1.019   7.050
 6616POPC   C4B43486  42.115   1.073   7.350
 6617POPC   NC343487  40.050  20.610   5.550
 6617POPC   PO443488  39.959  20.573   5.850
 6617POPC   GL143489  40.041  20.598   6.150
 6617POPC   GL243490  40.096  20.697   6.150
 6617POPC   C1A43491  40.025  20.593   6.450
 6617POPC   D2A43492  40.037  20.588   6.750
 6617POPC   C3A43493  39.970  20.642   7.050
 6617POPC   C4A43494  40.049  20.614   7.350
 6617POPC   C1B43495  40.263  20.722   6.450
 6617POPC   C2B43496  40.173  20.746   6.750
 6617POPC   C3B43497  40.264  20.707   7.050
 6617POPC   C4B43498  40.241  20.761   7.350
 6618POPC   NC343499   9.704  25.236   5.550
 6618POPC   PO443500   9.752  25.276   5.850
 6618POPC   GL143501   9.741  25.246   6.150
 6618POPC   GL243502   9.837  25.204   6.150
 6618POPC   C1A43503   9.752  25.231   6.450
 6618POPC   D2A43504   9.739  25.304   6.750
 6618POPC   C3A43505   9.754  25.289   7.050
 6618POPC   C4A43506   9.725  25.310   7.350
 6618POPC   C1B43507   9.990  25.087   6.450
 6618POPC   C2B43508   9.990  25.074   6.750
 6618POPC   C3B43509   9.898  25.074   7.050
 6618POPC   C4B43510   9.917  25.122   7.350
 6619POPC   NC343511   8.929  40.757   5.550
 6619POPC   PO443512   8.935  40.747   5.850
 6619POPC   GL143513   8.981  40.821   6.150
 6619POPC   GL243514   9.110  40.889   6.150
 6619POPC   C1A43515   8.998  40.762   6.450
 6619POPC   D2A43516   8.951  40.752   6.750
 6619POPC   C3A43517   8.979  40.822   7.050
 6619POPC   C4A43518   9.018  40.769   7.350
 6619POPC   C1B43519   9.190  40.968   6.450
 6619POPC   C2B43520   9.209  40.912   6.750
 6619POPC   C3B43521   9.128  40.906   7.050
 6619POPC   C4B43522   9.213  40.935   7.350
 6620POPC   NC343523  31.427   8.998   5.550
 6620POPC   PO443524  31.477   8.945   5.850
 6620POPC   GL143525  31.432   8.925   6.150
 6620POPC   GL243526  31.498   9.104   6.150
 6620POPC   C1A43527  31.472   8.969   6.450
 6620POPC   D2A43528  31.444   8.949   6.750
 6620POPC   C3A43529  31.475   8.938   7.050
 6620POPC   C4A43530  31.503   9.012   7.350
 6620POPC   C1B43531  31.558   9.177   6.450
 6620POPC   C2B43532  31.562   9.242   6.750
 6620POPC   C3B43533  31.532   9.218   7.050
 6620POPC   C4B43534  31.583   9.195   7.350
 6621POPC   NC343535  29.921  18.254   5.550
 6621POPC   PO443536  29.890  18.247   5.850
 6621POPC   GL143537  29.915  18.242   6.150
 6621POPC   GL243538  30.022  18.373   6.150
 6621POPC   C1A43539  29.932  18.329   6.450
 6621POPC   D2A43540  29.920  18.293   6.750
 6621POPC   C3A43541  29.967  18.301   7.050
 6621POPC   C4A43542  29.872  18.300   7.350
 6621POPC   C1B43543  30.044  18.488   6.450
 6621POPC   C2B43544  30.044  18.463   6.750
 6621POPC   C3B43545  30.119  18.446   7.050
 6621POPC   C4B43546  30.046  18.455   7.350
 6622POPC   NC343547  32.226  18.272   5.550
 6622POPC   PO443548  32.231  18.260   5.850
 6622POPC   GL143549  32.244  18.312   6.150
 6622POPC   GL243550  32.214  18.375   6.150
 6622POPC   C1A43551  32.199  18.265   6.450
 6622POPC   D2A43552  32.236  18.237   6.750
 6622POPC   C3A43553  32.293  18.289   7.050
 6622POPC   C4A43554  32.238  18.257   7.350
 6622POPC   C1B43555  32.142  18.485   6.450
 6622POPC   C2B43556  32.199  18.554   6.750
 6622POPC   C3B43557  32.183  18.542   7.050
 6622POPC   C4B43558  32.134  18.553   7.350
 6623POPC   NC343559  27.611   9.711   5.550
 6623POPC   PO443560  27.566   9.750   5.850
 6623POPC   GL143561  27.631   9.785   6.150
 6623POPC   GL243562  27.549   9.623   6.150
 6623POPC   C1A43563  27.643   9.724   6.450
 6623POPC   D2A43564  27.577   9.741   6.750
 6623POPC   C3A43565  27.600   9.770   7.050
 6623POPC   C4A43566  27.575   9.729   7.350
 6623POPC   C1B43567  27.366   9.618   6.450
 6623POPC   C2B43568  27.444   9.561   6.750
 6623POPC   C3B43569  27.453   9.536   7.050
 6623POPC   C4B43570  27.433   9.581   7.350
 6624POPC   NC343571  26.005  22.955   5.550
 6624POPC   PO443572  25.993  22.893   5.850
 6624POPC   GL143573  26.078  22.975   6.150
 6624POPC   GL243574  26.092  22.800   6.150
 6624POPC   C1A43575  26.023  22.930   6.450
 6624POPC   D2A43576  26.051  22.891   6.750
 6624POPC   C3A43577  25.993  22.940   7.050
 6624POPC   C4A43578  26.023  22.986   7.350
 6624POPC   C1B43579  26.235  22.710   6.450
 6624POPC   C2B43580  26.160  22.720   6.750
 6624POPC   C3B43581  26.252  22.709   7.050
 6624POPC   C4B43582  26.167  22.738   7.350
 6625POPC   NC343583   4.349  39.219   5.550
 6625POPC   PO443584   4.296  39.225   5.850
 6625POPC   GL143585   4.358  39.232   6.150
 6625POPC   GL243586   4.386  39.061   6.150
 6625POPC   C1A43587   4.343  39.216   6.450
 6625POPC   D2A43588   4.295  39.243   6.750
 6625POPC   C3A43589   4.326  39.230   7.050
 6625POPC   C4A43590   4.296  39.186   7.350
 6625POPC   C1B43591   4.365  38.995   6.450
 6625POPC   C2B43592   4.336  38.975   6.750
 6625POPC   C3B43593   4.352  39.027   7.050
 6625POPC   C4B43594   4.327  39.017   7.350
 6626POPC   NC343595  26.849   3.539   5.550
 6626POPC   PO443596  26.799   3.545   5.850
 6626POPC   GL143597  26.804   3.520   6.150
 6626POPC   GL243598  26.904   3.601   6.150
 6626POPC   C1A43599  26.805   3.558   6.450
 6626POPC   D2A43600  26.859   3.564   6.750
 6626POPC   C3A43601  26.797   3.501   7.050
 6626POPC   C4A43602  26.818   3.587   7.350
 6626POPC   C1B43603  27.025   3.625   6.450
 6626POPC   C2B43604  27.088   3.630   6.750
 6626POPC   C3B43605  27.045   3.629   7.050
 6626POPC   C4B43606  27.091   3.615   7.350
 6627POPC   NC343607  20.620  29.912   5.550
 6627POPC   PO443608  20.609  29.961   5.850
 6627POPC   GL143609  20.572  29.895   6.150
 6627POPC   GL243610  20.650  30.060   6.150
 6627POPC   C1A43611  20.635  29.958   6.450
 6627POPC   D2A43612  20.613  29.904   6.750
 6627POPC   C3A43613  20.575  29.950   7.050
 6627POPC   C4A43614  20.648  29.871   7.350
 6627POPC   C1B43615  20.711  30.130   6.450
 6627POPC   C2B43616  20.649  30.182   6.750
 6627POPC   C3B43617  20.695  30.116   7.050
 6627POPC   C4B43618  20.669  30.147   7.350
 6628POPC   NC343619  31.449   5.882   5.550
 6628POPC   PO443620  31.513   5.844   5.850
 6628POPC   GL143621  31.448   5.871   6.150
 6628POPC   GL243622  31.591   5.952   6.150
 6628POPC   C1A43623  31.499   5.841   6.450
 6628POPC   D2A43624  31.430   5.872   6.750
 6628POPC   C3A43625  31.515   5.820   7.050
 6628POPC   C4A43626  31.465   5.827   7.350
 6628POPC   C1B43627  31.653   6.048   6.450
 6628POPC   C2B43628  31.625   6.009   6.750
 6628POPC   C3B43629  31.706   5.987   7.050
 6628POPC   C4B43630  31.632   6.071   7.350
 6629POPC   NC343631   3.527  10.570   5.550
 6629POPC   PO443632   3.577  10.540   5.850
 6629POPC   GL143633   3.556  10.524   6.150
 6629POPC   GL243634   3.705  10.485   6.150
 6629POPC   C1A43635   3.502  10.541   6.450
 6629POPC   D2A43636   3.530  10.525   6.750
 6629POPC   C3A43637   3.511  10.496   7.050
 6629POPC   C4A43638   3.510  10.477   7.350
 6629POPC   C1B43639   3.827  10.542   6.450
 6629POPC   C2B43640   3.791  10.520   6.750
 6629POPC   C3B43641   3.823  10.538   7.050
 6629POPC   C4B43642   3.752  10.528   7.350
 6630POPC   NC343643  40.768  22.965   5.550
 6630POPC   PO443644  40.789  22.935   5.850
 6630POPC   GL143645  40.760  22.963   6.150
 6630POPC   GL243646  40.687  22.865   6.150
 6630POPC   C1A43647  40.797  22.951   6.450
 6630POPC   D2A43648  40.762  22.934   6.750
 6630POPC   C3A43649  40.739  22.911   7.050
 6630POPC   C4A43650  40.820  22.960   7.350
 6630POPC   C1B43651  40.709  22.690   6.450
 6630POPC   C2B43652  40.706  22.714   6.750
 6630POPC   C3B43653  40.626  22.679   7.050
 6630POPC   C4B43654  40.670  22.720   7.350
 6631POPC   NC343655  28.360   7.436   5.550
 6631POPC   PO443656  28.412   7.425   5.850
 6631POPC   GL143657  28.383   7.454   6.150
 6631POPC   GL243658  28.337   7.481   6.150
 6631POPC   C1A43659  28.370   7.444   6.450
 6631POPC   D2A43660  28.349   7.445   6.750
 6631POPC   C3A43661  28.334   7.444   7.050
 6631POPC   C4A43662  28.406   7.460   7.350
 6631POPC   C1B43663  28.192   7.570   6.450
 6631POPC   C2B43664  28.205   7.641   6.750
 6631POPC   C3B43665  28.219   7.641   7.050
 6631POPC   C4B43666  28.191   7.616   7.350
 6632POPC   NC343667  36.885   2.749   5.550
 6632POPC   PO443668  36.883   2.787   5.850
 6632POPC   GL143669  36.915   2.740   6.150
 6632POPC   GL243670  36.962   2.883   6.150
 6632POPC   C1A43671  36.935   2.763   6.450
 6632POPC   D2A43672  36.909   2.719   6.750
 6632POPC   C3A43673  36.873   2.775   7.050
 6632POPC   C4A43674  36.926   2.727   7.350
 6632POPC   C1B43675  37.071   2.863   6.450
 6632POPC   C2B43676  37.098   2.866   6.750
 6632POPC   C3B43677  37.138   2.859   7.050
 6632POPC   C4B43678  37.124   2.948   7.350
 6633POPC   NC343679  40.813  31.425   5.550
 6633POPC   PO443680  40.765  31.521   5.850
 6633POPC   GL143681  40.778  31.424   6.150
 6633POPC   GL243682  40.851  31.396   6.150
 6633POPC   C1A43683  40.811  31.437   6.450
 6633POPC   D2A43684  40.740  31.462   6.750
 6633POPC   C3A43685  40.826  31.484   7.050
 6633POPC   C4A43686  40.823  31.431   7.350
 6633POPC   C1B43687  40.985  31.338   6.450
 6633POPC   C2B43688  41.019  31.348   6.750
 6633POPC   C3B43689  40.991  31.374   7.050
 6633POPC   C4B43690  40.953  31.339   7.350
 6634POPC   NC343691  33.809   3.569   5.550
 6634POPC   PO443692  33.838   3.531   5.850
 6634POPC   GL143693  33.771   3.553   6.150
 6634POPC   GL243694  33.730   3.660   6.150
 6634POPC   C1A43695  33.847   3.507   6.450
 6634POPC   D2A43696  33.805   3.508   6.750
 6634POPC   C3A43697  33.752   3.530   7.050
 6634POPC   C4A43698  33.779   3.569   7.350
 6634POPC   C1B43699  33.760   3.769   6.450
 6634POPC   C2B43700  33.737   3.815   6.750
 6634POPC   C3B43701  33.704   3.758   7.050
 6634POPC   C4B43702  33.743   3.758   7.350
 6635POPC   NC343703  16.702  25.294   5.550
 6635POPC   PO443704  16.773  25.298   5.850
 6635POPC   GL143705  16.728  25.307   6.150
 6635POPC   GL243706  16.597  25.359   6.150
 6635POPC   C1A43707  16.758  25.276   6.450
 6635POPC   D2A43708  16.735  25.314   6.750
 6635POPC   C3A43709  16.739  25.258   7.050
 6635POPC   C4A43710  16.749  25.278   7.350
 6635POPC   C1B43711  16.539  25.364   6.450
 6635POPC   C2B43712  16.496  25.350   6.750
 6635POPC   C3B43713  16.565  25.429   7.050
 6635POPC   C4B43714  16.557  25.381   7.350
 6636POPC   NC343715  26.816  23.669   5.550
 6636POPC   PO443716  26.857  23.716   5.850
 6636POPC   GL143717  26.830  23.712   6.150
 6636POPC   GL243718  26.782  23.612   6.150
 6636POPC   C1A43719  26.867  23.670   6.450
 6636POPC   D2A43720  26.801  23.664   6.750
 6636POPC   C3A43721  26.771  23.669   7.050
 6636POPC   C4A43722  26.792  23.736   7.350
 6636POPC   C1B43723  26.612  23.476   6.450
 6636POPC   C2B43724  26.647  23.476   6.750
 6636POPC   C3B43725  26.621  23.495   7.050
 6636POPC   C4B43726  26.692  23.494   7.350
 6637POPC   NC343727  26.785  38.422   5.550
 6637POPC   PO443728  26.837  38.484   5.850
 6637POPC   GL143729  26.773  38.488   6.150
 6637POPC   GL243730  26.952  38.408   6.150
 6637POPC   C1A43731  26.832  38.457   6.450
 6637POPC   D2A43732  26.863  38.459   6.750
 6637POPC   C3A43733  26.831  38.494   7.050
 6637POPC   C4A43734  26.793  38.414   7.350
 6637POPC   C1B43735  27.029  38.314   6.450
 6637POPC   C2B43736  26.954  38.281   6.750
 6637POPC   C3B43737  26.993  38.276   7.050
 6637POPC   C4B43738  26.962  38.239   7.350
 6638POPC   NC343739   4.315  29.154   5.550
 6638POPC   PO443740   4.341  29.113   5.850
 6638POPC   GL143741   4.279  29.107   6.150
 6638POPC   GL243742   4.347  28.972   6.150
 6638POPC   C1A43743   4.329  29.186   6.450
 6638POPC   D2A43744   4.342  29.128   6.750
 6638POPC   C3A43745   4.301  29.169   7.050
 6638POPC   C4A43746   4.351  29.180   7.350
 6638POPC   C1B43747   4.313  28.887   6.450
 6638POPC   C2B43748   4.297  28.888   6.750
 6638POPC   C3B43749   4.281  28.914   7.050
 6638POPC   C4B43750   4.332  28.882   7.350
 6639POPC   NC343751  26.782  12.029   5.550
 6639POPC   PO443752  26.825  12.096   5.850
 6639POPC   GL143753  26.773  12.118   6.150
 6639POPC   GL243754  26.723  12.006   6.150
 6639POPC   C1A43755  26.830  12.079   6.450
 6639POPC   D2A43756  26.803  12.036   6.750
 6639POPC   C3A43757  26.799  12.098   7.050
 6639POPC   C4A43758  26.807  12.119   7.350
 6639POPC   C1B43759  26.620  11.985   6.450
 6639POPC   C2B43760  26.589  12.038   6.750
 6639POPC   C3B43761  26.529  12.060   7.050
 6639POPC   C4B43762  26.539  12.001   7.350
 6640POPC   NC343763  40.802   0.424   5.550
 6640POPC   PO443764  40.788   0.445   5.850
 6640POPC   GL143765  40.738   0.479   6.150
 6640POPC   GL243766  40.752   0.293   6.150
 6640POPC   C1A43767  40.781   0.427   6.450
 6640POPC   D2A43768  40.734   0.447   6.750
 6640POPC   C3A43769  40.825   0.464   7.050
 6640POPC   C4A43770  40.741   0.418   7.350
 6640POPC   C1B43771  40.674   0.205   6.450
 6640POPC   C2B43772  40.670   0.248   6.750
 6640POPC   C3B43773  40.618   0.242   7.050
 6640POPC   C4B43774  40.628   0.168   7.350
 6641POPC   NC343775   1.167  32.206   5.550
 6641POPC   PO443776   1.207  32.291   5.850
 6641POPC   GL143777   1.219  32.208   6.150
 6641POPC   GL243778   1.255  32.355   6.150
 6641POPC   C1A43779   1.184  32.240   6.450
 6641POPC   D2A43780   1.241  32.283   6.750
 6641POPC   C3A43781   1.214  32.277   7.050
 6641POPC   C4A43782   1.233  32.200   7.350
 6641POPC   C1B43783   1.352  32.427   6.450
 6641POPC   C2B43784   1.389  32.393   6.750
 6641POPC   C3B43785   1.378  32.387   7.050
 6641POPC   C4B43786   1.360  32.410   7.350
 6642POPC   NC343787  33.046  33.777   5.550
 6642POPC   PO443788  33.053  33.776   5.850
 6642POPC   GL143789  33.021  33.846   6.150
 6642POPC   GL243790  33.090  33.760   6.150
 6642POPC   C1A43791  33.034  33.752   6.450
 6642POPC   D2A43792  33.033  33.827   6.750
 6642POPC   C3A43793  33.011  33.800   7.050
 6642POPC   C4A43794  33.021  33.775   7.350
 6642POPC   C1B43795  33.233  33.644   6.450
 6642POPC   C2B43796  33.240  33.620   6.750
 6642POPC   C3B43797  33.263  33.651   7.050
 6642POPC   C4B43798  33.235  33.649   7.350
 6643POPC   NC343799  28.343  38.451   5.550
 6643POPC   PO443800  28.409  38.490   5.850
 6643POPC   GL143801  28.337  38.485   6.150
 6643POPC   GL243802  28.534  38.410   6.150
 6643POPC   C1A43803  28.338  38.483   6.450
 6643POPC   D2A43804  28.341  38.472   6.750
 6643POPC   C3A43805  28.345  38.501   7.050
 6643POPC   C4A43806  28.380  38.484   7.350
 6643POPC   C1B43807  28.641  38.450   6.450
 6643POPC   C2B43808  28.651  38.450   6.750
 6643POPC   C3B43809  28.579  38.447   7.050
 6643POPC   C4B43810  28.572  38.394   7.350
 6644POPC   NC343811  28.408  24.518   5.550
 6644POPC   PO443812  28.399  24.475   5.850
 6644POPC   GL143813  28.353  24.454   6.150
 6644POPC   GL243814  28.461  24.439   6.150
 6644POPC   C1A43815  28.342  24.491   6.450
 6644POPC   D2A43816  28.367  24.491   6.750
 6644POPC   C3A43817  28.356  24.477   7.050
 6644POPC   C4A43818  28.381  24.470   7.350
 6644POPC   C1B43819  28.520  24.308   6.450
 6644POPC   C2B43820  28.544  24.257   6.750
 6644POPC   C3B43821  28.533  24.322   7.050
 6644POPC   C4B43822  28.489  24.321   7.350
 6645POPC   NC343823  19.808   2.759   5.550
 6645POPC   PO443824  19.833   2.804   5.850
 6645POPC   GL143825  19.806   2.812   6.150
 6645POPC   GL243826  19.851   2.640   6.150
 6645POPC   C1A43827  19.790   2.809   6.450
 6645POPC   D2A43828  19.866   2.717   6.750
 6645POPC   C3A43829  19.822   2.802   7.050
 6645POPC   C4A43830  19.839   2.792   7.350
 6645POPC   C1B43831  19.840   2.557   6.450
 6645POPC   C2B43832  19.880   2.534   6.750
 6645POPC   C3B43833  19.855   2.543   7.050
 6645POPC   C4B43834  19.871   2.499   7.350
 6646POPC   NC343835  24.474  35.354   5.550
 6646POPC   PO443836  24.498  35.401   5.850
 6646POPC   GL143837  24.528  35.334   6.150
 6646POPC   GL243838  24.401  35.478   6.150
 6646POPC   C1A43839  24.509  35.330   6.450
 6646POPC   D2A43840  24.519  35.333   6.750
 6646POPC   C3A43841  24.492  35.369   7.050
 6646POPC   C4A43842  24.518  35.392   7.350
 6646POPC   C1B43843  24.289  35.593   6.450
 6646POPC   C2B43844  24.346  35.586   6.750
 6646POPC   C3B43845  24.306  35.540   7.050
 6646POPC   C4B43846  24.372  35.513   7.350
 6647POPC   NC343847   5.062  12.079   5.550
 6647POPC   PO443848   5.126  12.035   5.850
 6647POPC   GL143849   5.098  12.064   6.150
 6647POPC   GL243850   5.257  12.060   6.150
 6647POPC   C1A43851   5.133  12.068   6.450
 6647POPC   D2A43852   5.110  12.036   6.750
 6647POPC   C3A43853   5.116  12.088   7.050
 6647POPC   C4A43854   5.061  12.106   7.350
 6647POPC   C1B43855   5.381  12.080   6.450
 6647POPC   C2B43856   5.379  12.088   6.750
 6647POPC   C3B43857   5.313  12.113   7.050
 6647POPC   C4B43858   5.364  12.115   7.350
 6648POPC   NC343859  31.504  18.309   5.550
 6648POPC   PO443860  31.520  18.274   5.850
 6648POPC   GL143861  31.486  18.280   6.150
 6648POPC   GL243862  31.547  18.227   6.150
 6648POPC   C1A43863  31.479  18.246   6.450
 6648POPC   D2A43864  31.446  18.307   6.750
 6648POPC   C3A43865  31.443  18.289   7.050
 6648POPC   C4A43866  31.508  18.299   7.350
 6648POPC   C1B43867  31.678  18.150   6.450
 6648POPC   C2B43868  31.640  18.150   6.750
 6648POPC   C3B43869  31.610  18.066   7.050
 6648POPC   C4B43870  31.599  18.140   7.350
 6649POPC   NC343871   4.352  43.861   5.550
 6649POPC   PO443872   4.322  43.899   5.850
 6649POPC   GL143873   4.315  43.920   6.150
 6649POPC   GL243874   4.191  43.958   6.150
 6649POPC   C1A43875   4.289  43.859   6.450
 6649POPC   D2A43876   4.328  43.917   6.750
 6649POPC   C3A43877   4.313  43.890   7.050
 6649POPC   C4A43878   4.280  43.884   7.350
 6649POPC   C1B43879   4.144  44.056   6.450
 6649POPC   C2B43880   4.159  44.081   6.750
 6649POPC   C3B43881   4.131  44.064   7.050
 6649POPC   C4B43882   4.149  44.114   7.350
 6650POPC   NC343883  12.077  35.350   5.550
 6650POPC   PO443884  12.031  35.382   5.850
 6650POPC   GL143885  12.055  35.350   6.150
 6650POPC   GL243886  12.089  35.202   6.150
 6650POPC   C1A43887  12.110  35.381   6.450
 6650POPC   D2A43888  12.088  35.343   6.750
 6650POPC   C3A43889  12.103  35.353   7.050
 6650POPC   C4A43890  12.088  35.367   7.350
 6650POPC   C1B43891  12.059  35.116   6.450
 6650POPC   C2B43892  12.023  35.136   6.750
 6650POPC   C3B43893  12.006  35.152   7.050
 6650POPC   C4B43894  12.066  35.114   7.350
 6651POPC   NC343895  26.026  38.473   5.550
 6651POPC   PO443896  26.072  38.487   5.850
 6651POPC   GL143897  26.033  38.424   6.150
 6651POPC   GL243898  26.001  38.514   6.150
 6651POPC   C1A43899  26.052  38.454   6.450
 6651POPC   D2A43900  26.068  38.481   6.750
 6651POPC   C3A43901  26.090  38.468   7.050
 6651POPC   C4A43902  26.002  38.411   7.350
 6651POPC   C1B43903  25.906  38.639   6.450
 6651POPC   C2B43904  25.874  38.650   6.750
 6651POPC   C3B43905  25.883  38.682   7.050
 6651POPC   C4B43906  25.859  38.596   7.350
 6652POPC   NC343907  21.421   1.971   5.550
 6652POPC   PO443908  21.339   1.974   5.850
 6652POPC   GL143909  21.360   2.024   6.150
 6652POPC   GL243910  21.434   1.896   6.150
 6652POPC   C1A43911  21.409   2.018   6.450
 6652POPC   D2A43912  21.404   2.020   6.750
 6652POPC   C3A43913  21.412   1.968   7.050
 6652POPC   C4A43914  21.435   1.995   7.350
 6652POPC   C1B43915  21.433   1.790   6.450
 6652POPC   C2B43916  21.446   1.760   6.750
 6652POPC   C3B43917  21.482   1.798   7.050
 6652POPC   C4B43918  21.459   1.801   7.350
 6653POPC   NC343919   0.457   2.034   5.550
 6653POPC   PO443920   0.396   1.991   5.850
 6653POPC   GL143921   0.393   2.034   6.150
 6653POPC   GL243922   0.312   1.933   6.150
 6653POPC   C1A43923   0.429   1.946   6.450
 6653POPC   D2A43924   0.388   2.034   6.750
 6653POPC   C3A43925   0.451   2.017   7.050
 6653POPC   C4A43926   0.395   2.026   7.350
 6653POPC   C1B43927   0.270   1.895   6.450
 6653POPC   C2B43928   0.209   1.888   6.750
 6653POPC   C3B43929   0.242   1.879   7.050
 6653POPC   C4B43930   0.211   1.832   7.350
 6654POPC   NC343931   4.361  34.550   5.550
 6654POPC   PO443932   4.346  34.533   5.850
 6654POPC   GL143933   4.303  34.573   6.150
 6654POPC   GL243934   4.423  34.618   6.150
 6654POPC   C1A43935   4.286  34.529   6.450
 6654POPC   D2A43936   4.367  34.560   6.750
 6654POPC   C3A43937   4.338  34.565   7.050
 6654POPC   C4A43938   4.306  34.609   7.350
 6654POPC   C1B43939   4.567  34.721   6.450
 6654POPC   C2B43940   4.556  34.718   6.750
 6654POPC   C3B43941   4.494  34.695   7.050
 6654POPC   C4B43942   4.515  34.715   7.350
 6655POPC   NC343943   0.451  12.879   5.550
 6655POPC   PO443944   0.457  12.864   5.850
 6655POPC   GL143945   0.394  12.857   6.150
 6655POPC   GL243946   0.278  12.885   6.150
 6655POPC   C1A43947   0.480  12.850   6.450
 6655POPC   D2A43948   0.398  12.852   6.750
 6655POPC   C3A43949   0.467  12.817   7.050
 6655POPC   C4A43950   0.431  12.859   7.350
 6655POPC   C1B43951   0.202  12.830   6.450
 6655POPC   C2B43952   0.152  12.894   6.750
 6655POPC   C3B43953   0.146  12.839   7.050
 6655POPC   C4B43954   0.210  12.838   7.350
 6656POPC   NC343955  37.687   7.383   5.550
 6656POPC   PO443956  37.654   7.419   5.850
 6656POPC   GL143957  37.655   7.412   6.150
 6656POPC   GL243958  37.567   7.323   6.150
 6656POPC   C1A43959  37.707   7.431   6.450
 6656POPC   D2A43960  37.634   7.400   6.750
 6656POPC   C3A43961  37.634   7.457   7.050
 6656POPC   C4A43962  37.696   7.463   7.350
 6656POPC   C1B43963  37.499   7.290   6.450
 6656POPC   C2B43964  37.426   7.270   6.750
 6656POPC   C3B43965  37.426   7.303   7.050
 6656POPC   C4B43966  37.422   7.253   7.350
 6657POPC   NC343967   1.176  22.951   5.550
 6657POPC   PO443968   1.171  22.978   5.850
 6657POPC   GL143969   1.227  22.905   6.150
 6657POPC   GL243970   1.319  22.985   6.150
 6657POPC   C1A43971   1.202  22.911   6.450
 6657POPC   D2A43972   1.255  22.909   6.750
 6657POPC   C3A43973   1.176  22.914   7.050
 6657POPC   C4A43974   1.222  22.968   7.350
 6657POPC   C1B43975   1.402  23.110   6.450
 6657POPC   C2B43976   1.388  23.082   6.750
 6657POPC   C3B43977   1.374  23.115   7.050
 6657POPC   C4B43978   1.405  23.160   7.350
 6658POPC   NC343979   8.184  34.573   5.550
 6658POPC   PO443980   8.190  34.595   5.850
 6658POPC   GL143981   8.193  34.576   6.150
 6658POPC   GL243982   8.109  34.623   6.150
 6658POPC   C1A43983   8.150  34.555   6.450
 6658POPC   D2A43984   8.180  34.616   6.750
 6658POPC   C3A43985   8.238  34.623   7.050
 6658POPC   C4A43986   8.234  34.570   7.350
 6658POPC   C1B43987   7.994  34.722   6.450
 6658POPC   C2B43988   7.977  34.688   6.750
 6658POPC   C3B43989   7.942  34.699   7.050
 6658POPC   C4B43990   8.023  34.741   7.350
 6659POPC   NC343991  22.899   7.410   5.550
 6659POPC   PO443992  22.976   7.391   5.850
 6659POPC   GL143993  22.900   7.387   6.150
 6659POPC   GL243994  22.865   7.432   6.150
 6659POPC   C1A43995  22.962   7.451   6.450
 6659POPC   D2A43996  22.918   7.428   6.750
 6659POPC   C3A43997  22.946   7.453   7.050
 6659POPC   C4A43998  22.898   7.441   7.350
 6659POPC   C1B43999  22.740   7.398   6.450
 6659POPC   C2B44000  22.704   7.337   6.750
 6659POPC   C3B44001  22.670   7.333   7.050
 6659POPC   C4B44002  22.706   7.418   7.350
 6660POPC   NC344003  21.388  20.636   5.550
 6660POPC   PO444004  21.402  20.607   5.850
 6660POPC   GL144005  21.384  20.588   6.150
 6660POPC   GL244006  21.399  20.725   6.150
 6660POPC   C1A44007  21.348  20.587   6.450
 6660POPC   D2A44008  21.367  20.660   6.750
 6660POPC   C3A44009  21.385  20.582   7.050
 6660POPC   C4A44010  21.363  20.613   7.350
 6660POPC   C1B44011  21.360  20.857   6.450
 6660POPC   C2B44012  21.378  20.811   6.750
 6660POPC   C3B44013  21.310  20.833   7.050
 6660POPC   C4B44014  21.355  20.905   7.350
 6661POPC   NC344015  24.459   5.083   5.550
 6661POPC   PO444016  24.495   5.099   5.850
 6661POPC   GL144017  24.454   5.099   6.150
 6661POPC   GL244018  24.316   5.084   6.150
 6661POPC   C1A44019  24.516   5.116   6.450
 6661POPC   D2A44020  24.451   5.142   6.750
 6661POPC   C3A44021  24.443   5.109   7.050
 6661POPC   C4A44022  24.508   5.060   7.350
 6661POPC   C1B44023  24.271   5.102   6.450
 6661POPC   C2B44024  24.271   5.085   6.750
 6661POPC   C3B44025  24.268   5.083   7.050
 6661POPC   C4B44026  24.195   5.048   7.350
 6662POPC   NC344027  36.880  43.885   5.550
 6662POPC   PO444028  36.949  43.871   5.850
 6662POPC   GL144029  36.865  43.920   6.150
 6662POPC   GL244030  36.821  43.988   6.150
 6662POPC   C1A44031  36.865  43.914   6.450
 6662POPC   D2A44032  36.919  43.840   6.750
 6662POPC   C3A44033  36.870  43.895   7.050
 6662POPC   C4A44034  36.873  43.870   7.350
 6662POPC   C1B44035  36.801  44.143   6.450
 6662POPC   C2B44036  36.791  44.119   6.750
 6662POPC   C3B44037  36.748  44.086   7.050
 6662POPC   C4B44038  36.724  44.051   7.350
 6663POPC   NC344039  44.643  14.404   5.550
 6663POPC   PO444040  44.639  14.435   5.850
 6663POPC   GL144041  44.696  14.365   6.150
 6663POPC   GL244042  44.613  14.504   6.150
 6663POPC   C1A44043  44.672  14.441   6.450
 6663POPC   D2A44044  44.662  14.368   6.750
 6663POPC   C3A44045  44.620  14.399   7.050
 6663POPC   C4A44046  44.663  14.369   7.350
 6663POPC   C1B44047  44.607  14.614   6.450
 6663POPC   C2B44048  44.629  14.603   6.750
 6663POPC   C3B44049  44.669  14.660   7.050
 6663POPC   C4B44050  44.614  14.606   7.350
 6664POPC   NC344051   5.054  40.786   5.550
 6664POPC   PO444052   5.057  40.738   5.850
 6664POPC   GL144053   5.083  40.767   6.150
 6664POPC   GL244054   5.002  40.848   6.150
 6664POPC   C1A44055   5.083  40.735   6.450
 6664POPC   D2A44056   5.056  40.815   6.750
 6664POPC   C3A44057   5.073  40.762   7.050
 6664POPC   C4A44058   5.138  40.803   7.350
 6664POPC   C1B44059   4.882  40.817   6.450
 6664POPC   C2B44060   4.886  40.851   6.750
 6664POPC   C3B44061   4.876  40.823   7.050
 6664POPC   C4B44062   4.865  40.834   7.350
 6665POPC   NC344063  33.787  43.077   5.550
 6665POPC   PO444064  33.763  43.099   5.850
 6665POPC   GL144065  33.827  43.154   6.150
 6665POPC   GL244066  33.821  43.270   6.150
 6665POPC   C1A44067  33.787  43.121   6.450
 6665POPC   D2A44068  33.767  43.076   6.750
 6665POPC   C3A44069  33.821  43.095   7.050
 6665POPC   C4A44070  33.778  43.063   7.350
 6665POPC   C1B44071  33.747  43.337   6.450
 6665POPC   C2B44072  33.698  43.387   6.750
 6665POPC   C3B44073  33.753  43.333   7.050
 6665POPC   C4B44074  33.782  43.366   7.350
 6666POPC   NC344075  32.211  26.802   5.550
 6666POPC   PO444076  32.234  26.786   5.850
 6666POPC   GL144077  32.230  26.816   6.150
 6666POPC   GL244078  32.153  26.916   6.150
 6666POPC   C1A44079  32.288  26.824   6.450
 6666POPC   D2A44080  32.282  26.773   6.750
 6666POPC   C3A44081  32.287  26.808   7.050
 6666POPC   C4A44082  32.211  26.803   7.350
 6666POPC   C1B44083  32.044  27.028   6.450
 6666POPC   C2B44084  32.032  26.952   6.750
 6666POPC   C3B44085  32.070  27.006   7.050
 6666POPC   C4B44086  32.064  27.003   7.350
 6667POPC   NC344087  31.499  38.429   5.550
 6667POPC   PO444088  31.431  38.492   5.850
 6667POPC   GL144089  31.460  38.475   6.150
 6667POPC   GL244090  31.525  38.297   6.150
 6667POPC   C1A44091  31.428  38.466   6.450
 6667POPC   D2A44092  31.470  38.480   6.750
 6667POPC   C3A44093  31.443  38.485   7.050
 6667POPC   C4A44094  31.436  38.409   7.350
 6667POPC   C1B44095  31.460  38.253   6.450
 6667POPC   C2B44096  31.527  38.156   6.750
 6667POPC   C3B44097  31.511  38.218   7.050
 6667POPC   C4B44098  31.497  38.179   7.350
 6668POPC   NC344099  25.241   5.883   5.550
 6668POPC   PO444100  25.270   5.917   5.850
 6668POPC   GL144101  25.259   5.908   6.150
 6668POPC   GL244102  25.161   5.956   6.150
 6668POPC   C1A44103  25.314   5.914   6.450
 6668POPC   D2A44104  25.280   5.837   6.750
 6668POPC   C3A44105  25.231   5.828   7.050
 6668POPC   C4A44106  25.249   5.847   7.350
 6668POPC   C1B44107  25.076   5.973   6.450
 6668POPC   C2B44108  25.084   6.009   6.750
 6668POPC   C3B44109  25.032   5.992   7.050
 6668POPC   C4B44110  25.100   6.021   7.350
 6669POPC   NC344111  30.738  32.984   5.550
 6669POPC   PO444112  30.654  32.985   5.850
 6669POPC   GL144113  30.647  33.066   6.150
 6669POPC   GL244114  30.813  33.138   6.150
 6669POPC   C1A44115  30.677  32.980   6.450
 6669POPC   D2A44116  30.725  33.005   6.750
 6669POPC   C3A44117  30.676  33.068   7.050
 6669POPC   C4A44118  30.688  33.023   7.350
 6669POPC   C1B44119  30.862  33.180   6.450
 6669POPC   C2B44120  30.893  33.159   6.750
 6669POPC   C3B44121  30.919  33.110   7.050
 6669POPC   C4B44122  30.866  33.162   7.350
 6670POPC   NC344123   8.951  37.633   5.550
 6670POPC   PO444124   8.948  37.633   5.850
 6670POPC   GL144125   8.994  37.725   6.150
 6670POPC   GL244126   9.005  37.608   6.150
 6670POPC   C1A44127   8.960  37.703   6.450
 6670POPC   D2A44128   8.925  37.701   6.750
 6670POPC   C3A44129   8.972  37.641   7.050
 6670POPC   C4A44130   8.924  37.638   7.350
 6670POPC   C1B44131   9.092  37.421   6.450
 6670POPC   C2B44132   9.064  37.474   6.750
 6670POPC   C3B44133   9.034  37.464   7.050
 6670POPC   C4B44134   9.040  37.424   7.350
 6671POPC   NC344135   5.083  28.339   5.550
 6671POPC   PO444136   5.121  28.396   5.850
 6671POPC   GL144137   5.118  28.399   6.150
 6671POPC   GL244138   5.086  28.276   6.150
 6671POPC   C1A44139   5.077  28.333   6.450
 6671POPC   D2A44140   5.127  28.419   6.750
 6671POPC   C3A44141   5.048  28.362   7.050
 6671POPC   C4A44142   5.090  28.354   7.350
 6671POPC   C1B44143   5.135  28.116   6.450
 6671POPC   C2B44144   5.107  28.091   6.750
 6671POPC   C3B44145   5.139  28.157   7.050
 6671POPC   C4B44146   5.090  28.116   7.350
 6672POPC   NC344147  41.598  11.304   5.550
 6672POPC   PO444148  41.555  11.293   5.850
 6672POPC   GL144149  41.590  11.323   6.150
 6672POPC   GL244150  41.453  11.195   6.150
 6672POPC   C1A44151  41.535  11.280   6.450
 6672POPC   D2A44152  41.572  11.313   6.750
 6672POPC   C3A44153  41.539  11.260   7.050
 6672POPC   C4A44154  41.584  11.293   7.350
 6672POPC   C1B44155  41.428  11.111   6.450
 6672POPC   C2B44156  41.426  11.111   6.750
 6672POPC   C3B44157  41.461  11.124   7.050
 6672POPC   C4B44158  41.449  11.112   7.350
 6673POPC   NC344159  23.748  24.477   5.550
 6673POPC   PO444160  23.717  24.512   5.850
 6673POPC   GL144161  23.721  24.467   6.150
 6673POPC   GL244162  23.722  24.572   6.150
 6673POPC   C1A44163  23.716  24.469   6.450
 6673POPC   D2A44164  23.668  24.448   6.750
 6673POPC   C3A44165  23.692  24.487   7.050
 6673POPC   C4A44166  23.675  24.523   7.350
 6673POPC   C1B44167  23.781  24.734   6.450
 6673POPC   C2B44168  23.723  24.740   6.750
 6673POPC   C3B44169  23.791  24.734   7.050
 6673POPC   C4B44170  23.790  24.752   7.350
 6674POPC   NC344171  18.263   2.752   5.550
 6674POPC   PO444172  18.271   2.760   5.850
 6674POPC   GL144173  18.325   2.751   6.150
 6674POPC   GL244174  18.362   2.789   6.150
 6674POPC   C1A44175  18.253   2.747   6.450
 6674POPC   D2A44176  18.254   2.813   6.750
 6674POPC   C3A44177  18.304   2.798   7.050
 6674POPC   C4A44178  18.283   2.815   7.350
 6674POPC   C1B44179  18.470   2.837   6.450
 6674POPC   C2B44180  18.468   2.858   6.750
 6674POPC   C3B44181  18.506   2.863   7.050
 6674POPC   C4B44182  18.495   2.823   7.350
 6675POPC   NC344183  43.108  13.652   5.550
 6675POPC   PO444184  43.080  13.616   5.850
 6675POPC   GL144185  43.073  13.662   6.150
 6675POPC   GL244186  43.070  13.694   6.150
 6675POPC   C1A44187  43.119  13.614   6.450
 6675POPC   D2A44188  43.063  13.582   6.750
 6675POPC   C3A44189  43.114  13.630   7.050
 6675POPC   C4A44190  43.095  13.662   7.350
 6675POPC   C1B44191  42.985  13.876   6.450
 6675POPC   C2B44192  43.046  13.824   6.750
 6675POPC   C3B44193  42.973  13.822   7.050
 6675POPC   C4B44194  42.986  13.846   7.350
 6676POPC   NC344195  29.921  36.141   5.550
 6676POPC   PO444196  29.901  36.128   5.850
 6676POPC   GL144197  29.921  36.154   6.150
 6676POPC   GL244198  29.988  36.186   6.150
 6676POPC   C1A44199  29.910  36.131   6.450
 6676POPC   D2A44200  29.951  36.098   6.750
 6676POPC   C3A44201  29.945  36.088   7.050
 6676POPC   C4A44202  29.956  36.122   7.350
 6676POPC   C1B44203  30.117  36.282   6.450
 6676POPC   C2B44204  30.177  36.301   6.750
 6676POPC   C3B44205  30.157  36.223   7.050
 6676POPC   C4B44206  30.124  36.280   7.350
 6677POPC   NC344207  23.728  10.532   5.550
 6677POPC   PO444208  23.683  10.571   5.850
 6677POPC   GL144209  23.696  10.496   6.150
 6677POPC   GL244210  23.749  10.629   6.150
 6677POPC   C1A44211  23.716  10.509   6.450
 6677POPC   D2A44212  23.763  10.540   6.750
 6677POPC   C3A44213  23.740  10.495   7.050
 6677POPC   C4A44214  23.683  10.523   7.350
 6677POPC   C1B44215  23.898  10.711   6.450
 6677POPC   C2B44216  23.838  10.689   6.750
 6677POPC   C3B44217  23.830  10.685   7.050
 6677POPC   C4B44218  23.861  10.666   7.350
 6678POPC   NC344219  11.279  33.758   5.550
 6678POPC   PO444220  11.333  33.832   5.850
 6678POPC   GL144221  11.334  33.848   6.150
 6678POPC   GL244222  11.421  33.858   6.150
 6678POPC   C1A44223  11.252  33.753   6.450
 6678POPC   D2A44224  11.293  33.776   6.750
 6678POPC   C3A44225  11.284  33.830   7.050
 6678POPC   C4A44226  11.298  33.835   7.350
 6678POPC   C1B44227  11.544  33.928   6.450
 6678POPC   C2B44228  11.545  33.953   6.750
 6678POPC   C3B44229  11.505  33.896   7.050
 6678POPC   C4B44230  11.541  33.945   7.350
 6679POPC   NC344231  19.844  29.940   5.550
 6679POPC   PO444232  19.825  29.883   5.850
 6679POPC   GL144233  19.851  29.923   6.150
 6679POPC   GL244234  19.972  29.863   6.150
 6679POPC   C1A44235  19.808  29.930   6.450
 6679POPC   D2A44236  19.815  29.951   6.750
 6679POPC   C3A44237  19.869  29.914   7.050
 6679POPC   C4A44238  19.849  29.948   7.350
 6679POPC   C1B44239  20.009  29.780   6.450
 6679POPC   C2B44240  20.051  29.740   6.750
 6679POPC   C3B44241  20.072  29.809   7.050
 6679POPC   C4B44242  20.041  29.756   7.350
 6680POPC   NC344243  18.308  19.842   5.550
 6680POPC   PO444244  18.251  19.812   5.850
 6680POPC   GL144245  18.298  19.878   6.150
 6680POPC   GL244246  18.248  19.954   6.150
 6680POPC   C1A44247  18.242  19.845   6.450
 6680POPC   D2A44248  18.261  19.848   6.750
 6680POPC   C3A44249  18.264  19.810   7.050
 6680POPC   C4A44250  18.286  19.866   7.350
 6680POPC   C1B44251  18.216  20.034   6.450
 6680POPC   C2B44252  18.296  20.108   6.750
 6680POPC   C3B44253  18.301  20.035   7.050
 6680POPC   C4B44254  18.287  20.094   7.350
 6681POPC   NC344255   1.956  33.783   5.550
 6681POPC   PO444256   1.986  33.755   5.850
 6681POPC   GL144257   2.037  33.795   6.150
 6681POPC   GL244258   1.926  33.744   6.150
 6681POPC   C1A44259   2.032  33.762   6.450
 6681POPC   D2A44260   1.968  33.796   6.750
 6681POPC   C3A44261   1.978  33.789   7.050
 6681POPC   C4A44262   2.028  33.818   7.350
 6681POPC   C1B44263   1.805  33.668   6.450
 6681POPC   C2B44264   1.820  33.632   6.750
 6681POPC   C3B44265   1.763  33.724   7.050
 6681POPC   C4B44266   1.791  33.692   7.350
 6682POPC   NC344267   5.083   3.518   5.550
 6682POPC   PO444268   5.085   3.515   5.850
 6682POPC   GL144269   5.044   3.586   6.150
 6682POPC   GL244270   5.025   3.440   6.150
 6682POPC   C1A44271   5.087   3.516   6.450
 6682POPC   D2A44272   5.115   3.584   6.750
 6682POPC   C3A44273   5.120   3.496   7.050
 6682POPC   C4A44274   5.078   3.585   7.350
 6682POPC   C1B44275   4.970   3.333   6.450
 6682POPC   C2B44276   4.964   3.338   6.750
 6682POPC   C3B44277   4.957   3.327   7.050
 6682POPC   C4B44278   4.920   3.296   7.350
 6683POPC   NC344279  17.458  19.023   5.550
 6683POPC   PO444280  17.507  19.091   5.850
 6683POPC   GL144281  17.460  19.084   6.150
 6683POPC   GL244282  17.403  18.983   6.150
 6683POPC   C1A44283  17.498  19.097   6.450
 6683POPC   D2A44284  17.487  19.049   6.750
 6683POPC   C3A44285  17.495  19.033   7.050
 6683POPC   C4A44286  17.474  19.061   7.350
 6683POPC   C1B44287  17.328  18.892   6.450
 6683POPC   C2B44288  17.324  18.856   6.750
 6683POPC   C3B44289  17.318  18.909   7.050
 6683POPC   C4B44290  17.306  18.876   7.350
 6684POPC   NC344291   5.099  14.376   5.550
 6684POPC   PO444292   5.139  14.438   5.850
 6684POPC   GL144293   5.055  14.453   6.150
 6684POPC   GL244294   4.983  14.408   6.150
 6684POPC   C1A44295   5.075  14.414   6.450
 6684POPC   D2A44296   5.063  14.431   6.750
 6684POPC   C3A44297   5.095  14.363   7.050
 6684POPC   C4A44298   5.131  14.419   7.350
 6684POPC   C1B44299   4.872  14.357   6.450
 6684POPC   C2B44300   4.873  14.408   6.750
 6684POPC   C3B44301   4.828  14.429   7.050
 6684POPC   C4B44302   4.879  14.363   7.350
 6685POPC   NC344303   5.141  12.900   5.550
 6685POPC   PO444304   5.105  12.872   5.850
 6685POPC   GL144305   5.102  12.887   6.150
 6685POPC   GL244306   5.074  13.017   6.150
 6685POPC   C1A44307   5.066  12.841   6.450
 6685POPC   D2A44308   5.073  12.815   6.750
 6685POPC   C3A44309   5.081  12.824   7.050
 6685POPC   C4A44310   5.073  12.833   7.350
 6685POPC   C1B44311   5.104  13.105   6.450
 6685POPC   C2B44312   5.103  13.128   6.750
 6685POPC   C3B44313   5.086  13.138   7.050
 6685POPC   C4B44314   5.125  13.091   7.350
 6686POPC   NC344315  28.387  20.597   5.550
 6686POPC   PO444316  28.388  20.623   5.850
 6686POPC   GL144317  28.327  20.621   6.150
 6686POPC   GL244318  28.366  20.528   6.150
 6686POPC   C1A44319  28.396  20.628   6.450
 6686POPC   D2A44320  28.385  20.588   6.750
 6686POPC   C3A44321  28.361  20.658   7.050
 6686POPC   C4A44322  28.371  20.619   7.350
 6686POPC   C1B44323  28.384  20.413   6.450
 6686POPC   C2B44324  28.380  20.360   6.750
 6686POPC   C3B44325  28.382  20.392   7.050
 6686POPC   C4B44326  28.434  20.321   7.350
 6687POPC   NC344327  31.517  26.797   5.550
 6687POPC   PO444328  31.466  26.808   5.850
 6687POPC   GL144329  31.454  26.835   6.150
 6687POPC   GL244330  31.553  26.869   6.150
 6687POPC   C1A44331  31.490  26.835   6.450
 6687POPC   D2A44332  31.426  26.795   6.750
 6687POPC   C3A44333  31.453  26.819   7.050
 6687POPC   C4A44334  31.457  26.798   7.350
 6687POPC   C1B44335  31.741  26.964   6.450
 6687POPC   C2B44336  31.683  26.971   6.750
 6687POPC   C3B44337  31.697  26.888   7.050
 6687POPC   C4B44338  31.686  26.891   7.350
 6688POPC   NC344339  25.271  19.806   5.550
 6688POPC   PO444340  25.273  19.818   5.850
 6688POPC   GL144341  25.283  19.875   6.150
 6688POPC   GL244342  25.350  19.867   6.150
 6688POPC   C1A44343  25.233  19.861   6.450
 6688POPC   D2A44344  25.277  19.834   6.750
 6688POPC   C3A44345  25.242  19.844   7.050
 6688POPC   C4A44346  25.243  19.816   7.350
 6688POPC   C1B44347  25.541  19.824   6.450
 6688POPC   C2B44348  25.503  19.816   6.750
 6688POPC   C3B44349  25.549  19.862   7.050
 6688POPC   C4B44350  25.521  19.825   7.350
 6689POPC   NC344351  29.136  29.875   5.550
 6689POPC   PO444352  29.133  29.969   5.850
 6689POPC   GL144353  29.186  29.966   6.150
 6689POPC   GL244354  29.169  29.757   6.150
 6689POPC   C1A44355  29.181  29.959   6.450
 6689POPC   D2A44356  29.148  29.913   6.750
 6689POPC   C3A44357  29.184  29.890   7.050
 6689POPC   C4A44358  29.176  29.923   7.350
 6689POPC   C1B44359  29.133  29.655   6.450
 6689POPC   C2B44360  29.053  29.633   6.750
 6689POPC   C3B44361  29.104  29.637   7.050
 6689POPC   C4B44362  29.064  29.646   7.350
 6690POPC   NC344363  33.795  36.860   5.550
 6690POPC   PO444364  33.809  36.866   5.850
 6690POPC   GL144365  33.801  36.854   6.150
 6690POPC   GL244366  33.714  36.873   6.150
 6690POPC   C1A44367  33.770  36.880   6.450
 6690POPC   D2A44368  33.836  36.884   6.750
 6690POPC   C3A44369  33.785  36.880   7.050
 6690POPC   C4A44370  33.756  36.896   7.350
 6690POPC   C1B44371  33.583  36.704   6.450
 6690POPC   C2B44372  33.583  36.785   6.750
 6690POPC   C3B44373  33.559  36.748   7.050
 6690POPC   C4B44374  33.555  36.714   7.350
 6691POPC   NC344375  12.081  22.889   5.550
 6691POPC   PO444376  12.036  22.981   5.850
 6691POPC   GL144377  12.053  22.955   6.150
 6691POPC   GL244378  11.942  22.842   6.150
 6691POPC   C1A44379  12.110  22.931   6.450
 6691POPC   D2A44380  12.057  22.936   6.750
 6691POPC   C3A44381  12.116  22.975   7.050
 6691POPC   C4A44382  12.052  22.977   7.350
 6691POPC   C1B44383  11.901  22.822   6.450
 6691POPC   C2B44384  11.892  22.797   6.750
 6691POPC   C3B44385  11.825  22.849   7.050
 6691POPC   C4B44386  11.813  22.827   7.350
 6692POPC   NC344387  39.991  44.710   5.550
 6692POPC   PO444388  40.030  44.686   5.850
 6692POPC   GL144389  40.021  44.636   6.150
 6692POPC   GL244390  40.049  44.489   6.150
 6692POPC   C1A44391  39.975  44.674   6.450
 6692POPC   D2A44392  40.034  44.671   6.750
 6692POPC   C3A44393  39.987  44.676   7.050
 6692POPC   C4A44394  39.994  44.668   7.350
 6692POPC   C1B44395  40.003  44.377   6.450
 6692POPC   C2B44396  40.037  44.405   6.750
 6692POPC   C3B44397  40.070  44.386   7.050
 6692POPC   C4B44398  40.057  44.371   7.350
 6693POPC   NC344399  36.883   4.301   5.550
 6693POPC   PO444400  36.952   4.329   5.850
 6693POPC   GL144401  36.874   4.300   6.150
 6693POPC   GL244402  36.972   4.227   6.150
 6693POPC   C1A44403  36.899   4.334   6.450
 6693POPC   D2A44404  36.918   4.307   6.750
 6693POPC   C3A44405  36.900   4.341   7.050
 6693POPC   C4A44406  36.872   4.360   7.350
 6693POPC   C1B44407  37.067   4.144   6.450
 6693POPC   C2B44408  37.040   4.106   6.750
 6693POPC   C3B44409  37.113   4.164   7.050
 6693POPC   C4B44410  37.056   4.166   7.350
 6694POPC   NC344411  24.510  20.579   5.550
 6694POPC   PO444412  24.485  20.570   5.850
 6694POPC   GL144413  24.511  20.660   6.150
 6694POPC   GL244414  24.599  20.690   6.150
 6694POPC   C1A44415  24.537  20.565   6.450
 6694POPC   D2A44416  24.450  20.657   6.750
 6694POPC   C3A44417  24.459  20.590   7.050
 6694POPC   C4A44418  24.483  20.624   7.350
 6694POPC   C1B44419  24.597  20.841   6.450
 6694POPC   C2B44420  24.617  20.856   6.750
 6694POPC   C3B44421  24.636  20.807   7.050
 6694POPC   C4B44422  24.647  20.868   7.350
 6695POPC   NC344423  13.644  33.795   5.550
 6695POPC   PO444424  13.607  33.804   5.850
 6695POPC   GL144425  13.614  33.770   6.150
 6695POPC   GL244426  13.548  33.751   6.150
 6695POPC   C1A44427  13.617  33.777   6.450
 6695POPC   D2A44428  13.588  33.813   6.750
 6695POPC   C3A44429  13.639  33.799   7.050
 6695POPC   C4A44430  13.668  33.765   7.350
 6695POPC   C1B44431  13.382  33.775   6.450
 6695POPC   C2B44432  13.407  33.746   6.750
 6695POPC   C3B44433  13.390  33.736   7.050
 6695POPC   C4B44434  13.396  33.817   7.350
 6696POPC   NC344435   2.771   5.897   5.550
 6696POPC   PO444436   2.730   5.844   5.850
 6696POPC   GL144437   2.772   5.870   6.150
 6696POPC   GL244438   2.624   5.917   6.150
 6696POPC   C1A44439   2.735   5.906   6.450
 6696POPC   D2A44440   2.793   5.890   6.750
 6696POPC   C3A44441   2.729   5.882   7.050
 6696POPC   C4A44442   2.761   5.830   7.350
 6696POPC   C1B44443   2.526   6.023   6.450
 6696POPC   C2B44444   2.581   5.976   6.750
 6696POPC   C3B44445   2.566   5.991   7.050
 6696POPC   C4B44446   2.495   5.979   7.350
 6697POPC   NC344447  38.482   8.241   5.550
 6697POPC   PO444448  38.414   8.213   5.850
 6697POPC   GL144449  38.464   8.233   6.150
 6697POPC   GL244450  38.510   8.059   6.150
 6697POPC   C1A44451  38.421   8.222   6.450
 6697POPC   D2A44452  38.420   8.219   6.750
 6697POPC   C3A44453  38.428   8.177   7.050
 6697POPC   C4A44454  38.492   8.243   7.350
 6697POPC   C1B44455  38.615   8.019   6.450
 6697POPC   C2B44456  38.594   8.015   6.750
 6697POPC   C3B44457  38.656   8.044   7.050
 6697POPC   C4B44458  38.673   8.002   7.350
 6698POPC   NC344459   6.650  14.392   5.550
 6698POPC   PO444460   6.672  14.441   5.850
 6698POPC   GL144461   6.639  14.363   6.150
 6698POPC   GL244462   6.746  14.520   6.150
 6698POPC   C1A44463   6.691  14.361   6.450
 6698POPC   D2A44464   6.667  14.370   6.750
 6698POPC   C3A44465   6.651  14.413   7.050
 6698POPC   C4A44466   6.677  14.449   7.350
 6698POPC   C1B44467   6.792  14.536   6.450
 6698POPC   C2B44468   6.782  14.605   6.750
 6698POPC   C3B44469   6.819  14.589   7.050
 6698POPC   C4B44470   6.780  14.570   7.350
 6699POPC   NC344471  38.500   0.469   5.550
 6699POPC   PO444472  38.475   0.462   5.850
 6699POPC   GL144473  38.464   0.443   6.150
 6699POPC   GL244474  38.374   0.335   6.150
 6699POPC   C1A44475  38.458   0.471   6.450
 6699POPC   D2A44476  38.504   0.441   6.750
 6699POPC   C3A44477  38.427   0.467   7.050
 6699POPC   C4A44478  38.482   0.437   7.350
 6699POPC   C1B44479  38.250   0.205   6.450
 6699POPC   C2B44480  38.287   0.257   6.750
 6699POPC   C3B44481  38.265   0.272   7.050
 6699POPC   C4B44482  38.253   0.232   7.350
 6700POPC   NC344483  33.763  10.491   5.550
 6700POPC   PO444484  33.841  10.479   5.850
 6700POPC   GL144485  33.802  10.567   6.150
 6700POPC   GL244486  33.751  10.630   6.150
 6700POPC   C1A44487  33.838  10.511   6.450
 6700POPC   D2A44488  33.808  10.478   6.750
 6700POPC   C3A44489  33.806  10.557   7.050
 6700POPC   C4A44490  33.821  10.491   7.350
 6700POPC   C1B44491  33.741  10.741   6.450
 6700POPC   C2B44492  33.691  10.771   6.750
 6700POPC   C3B44493  33.717  10.809   7.050
 6700POPC   C4B44494  33.684  10.813   7.350
 6701POPC   NC344495   2.805  32.249   5.550
 6701POPC   PO444496   2.721  32.268   5.850
 6701POPC   GL144497   2.742  32.265   6.150
 6701POPC   GL244498   2.837  32.193   6.150
 6701POPC   C1A44499   2.768  32.234   6.450
 6701POPC   D2A44500   2.755  32.280   6.750
 6701POPC   C3A44501   2.769  32.289   7.050
 6701POPC   C4A44502   2.767  32.292   7.350
 6701POPC   C1B44503   2.956  32.059   6.450
 6701POPC   C2B44504   2.935  32.029   6.750
 6701POPC   C3B44505   2.950  32.015   7.050
 6701POPC   C4B44506   2.881  32.080   7.350
 6702POPC   NC344507  18.254   5.905   5.550
 6702POPC   PO444508  18.287   5.884   5.850
 6702POPC   GL144509  18.308   5.862   6.150
 6702POPC   GL244510  18.367   5.810   6.150
 6702POPC   C1A44511  18.255   5.846   6.450
 6702POPC   D2A44512  18.318   5.885   6.750
 6702POPC   C3A44513  18.268   5.829   7.050
 6702POPC   C4A44514  18.243   5.877   7.350
 6702POPC   C1B44515  18.532   5.802   6.450
 6702POPC   C2B44516  18.554   5.774   6.750
 6702POPC   C3B44517  18.537   5.782   7.050
 6702POPC   C4B44518  18.506   5.801   7.350
 6703POPC   NC344519  19.071  43.855   5.550
 6703POPC   PO444520  19.078  43.913   5.850
 6703POPC   GL144521  19.083  43.890   6.150
 6703POPC   GL244522  19.216  43.886   6.150
 6703POPC   C1A44523  19.105  43.837   6.450
 6703POPC   D2A44524  19.088  43.909   6.750
 6703POPC   C3A44525  19.081  43.912   7.050
 6703POPC   C4A44526  19.024  43.903   7.350
 6703POPC   C1B44527  19.266  43.840   6.450
 6703POPC   C2B44528  19.262  43.882   6.750
 6703POPC   C3B44529  19.293  43.901   7.050
 6703POPC   C4B44530  19.282  43.895   7.350
 6704POPC   NC344531  12.125  32.250   5.550
 6704POPC   PO444532  12.031  32.256   5.850
 6704POPC   GL144533  12.047  32.253   6.150
 6704POPC   GL244534  12.111  32.356   6.150
 6704POPC   C1A44535  12.053  32.262   6.450
 6704POPC   D2A44536  12.081  32.271   6.750
 6704POPC   C3A44537  12.079  32.231   7.050
 6704POPC   C4A44538  12.093  32.242   7.350
 6704POPC   C1B44539  12.249  32.395   6.450
 6704POPC   C2B44540  12.241  32.438   6.750
 6704POPC   C3B44541  12.216  32.457   7.050
 6704POPC   C4B44542  12.226  32.448   7.350
 6705POPC   NC344543  42.296  24.511   5.550
 6705POPC   PO444544  42.361  24.456   5.850
 6705POPC   GL144545  42.286  24.502   6.150
 6705POPC   GL244546  42.357  24.647   6.150
 6705POPC   C1A44547  42.351  24.488   6.450
 6705POPC   D2A44548  42.285  24.509   6.750
 6705POPC   C3A44549  42.368  24.534   7.050
 6705POPC   C4A44550  42.308  24.508   7.350
 6705POPC   C1B44551  42.366  24.736   6.450
 6705POPC   C2B44552  42.372  24.710   6.750
 6705POPC   C3B44553  42.428  24.737   7.050
 6705POPC   C4B44554  42.426  24.770   7.350
 6706POPC   NC344555  44.708  29.193   5.550
 6706POPC   PO444556  44.682  29.176   5.850
 6706POPC   GL144557  44.614  29.135   6.150
 6706POPC   GL244558  44.594  29.104   6.150
 6706POPC   C1A44559  44.708  29.153   6.450
 6706POPC   D2A44560  44.630  29.173   6.750
 6706POPC   C3A44561  44.623  29.173   7.050
 6706POPC   C4A44562  44.695  29.126   7.350
 6706POPC   C1B44563  44.458  28.960   6.450
 6706POPC   C2B44564  44.458  28.968   6.750
 6706POPC   C3B44565  44.516  29.006   7.050
 6706POPC   C4B44566  44.508  29.008   7.350
 6707POPC   NC344567   1.262  39.243   5.550
 6707POPC   PO444568   1.233  39.264   5.850
 6707POPC   GL144569   1.247  39.190   6.150
 6707POPC   GL244570   1.291  39.318   6.150
 6707POPC   C1A44571   1.257  39.268   6.450
 6707POPC   D2A44572   1.229  39.207   6.750
 6707POPC   C3A44573   1.256  39.231   7.050
 6707POPC   C4A44574   1.165  39.189   7.350
 6707POPC   C1B44575   1.438  39.280   6.450
 6707POPC   C2B44576   1.407  39.298   6.750
 6707POPC   C3B44577   1.485  39.307   7.050
 6707POPC   C4B44578   1.415  39.293   7.350
 6708POPC   NC344579  34.607  36.083   5.550
 6708POPC   PO444580  34.554  36.122   5.850
 6708POPC   GL144581  34.618  36.144   6.150
 6708POPC   GL244582  34.626  36.257   6.150
 6708POPC   C1A44583  34.585  36.158   6.450
 6708POPC   D2A44584  34.623  36.079   6.750
 6708POPC   C3A44585  34.546  36.095   7.050
 6708POPC   C4A44586  34.622  36.174   7.350
 6708POPC   C1B44587  34.707  36.362   6.450
 6708POPC   C2B44588  34.742  36.299   6.750
 6708POPC   C3B44589  34.693  36.307   7.050
 6708POPC   C4B44590  34.701  36.298   7.350
 6709POPC   NC344591  26.775   8.187   5.550
 6709POPC   PO444592  26.842   8.219   5.850
 6709POPC   GL144593  26.853   8.166   6.150
 6709POPC   GL244594  26.926   8.123   6.150
 6709POPC   C1A44595  26.768   8.236   6.450
 6709POPC   D2A44596  26.810   8.224   6.750
 6709POPC   C3A44597  26.792   8.234   7.050
 6709POPC   C4A44598  26.866   8.196   7.350
 6709POPC   C1B44599  27.019   8.013   6.450
 6709POPC   C2B44600  27.013   8.059   6.750
 6709POPC   C3B44601  27.037   7.993   7.050
 6709POPC   C4B44602  26.991   7.984   7.350
 6710POPC   NC344603  39.970  10.532   5.550
 6710POPC   PO444604  39.976  10.572   5.850
 6710POPC   GL144605  40.036  10.563   6.150
 6710POPC   GL244606  39.955  10.634   6.150
 6710POPC   C1A44607  39.997  10.534   6.450
 6710POPC   D2A44608  39.966  10.547   6.750
 6710POPC   C3A44609  39.973  10.524   7.050
 6710POPC   C4A44610  39.994  10.574   7.350
 6710POPC   C1B44611  39.805  10.720   6.450
 6710POPC   C2B44612  39.855  10.678   6.750
 6710POPC   C3B44613  39.785  10.684   7.050
 6710POPC   C4B44614  39.848  10.737   7.350
 6711POPC   NC344615   1.964  37.676   5.550
 6711POPC   PO444616   1.964  37.686   5.850
 6711POPC   GL144617   2.024  37.723   6.150
 6711POPC   GL244618   1.950  37.624   6.150
 6711POPC   C1A44619   1.977  37.653   6.450
 6711POPC   D2A44620   2.024  37.631   6.750
 6711POPC   C3A44621   1.952  37.714   7.050
 6711POPC   C4A44622   1.966  37.663   7.350
 6711POPC   C1B44623   1.779  37.500   6.450
 6711POPC   C2B44624   1.814  37.513   6.750
 6711POPC   C3B44625   1.793  37.535   7.050
 6711POPC   C4B44626   1.788  37.447   7.350
 6712POPC   NC344627  39.985  17.474   5.550
 6712POPC   PO444628  39.971  17.459   5.850
 6712POPC   GL144629  40.005  17.522   6.150
 6712POPC   GL244630  39.939  17.583   6.150
 6712POPC   C1A44631  39.992  17.527   6.450
 6712POPC   D2A44632  40.033  17.549   6.750
 6712POPC   C3A44633  40.018  17.488   7.050
 6712POPC   C4A44634  40.023  17.523   7.350
 6712POPC   C1B44635  39.928  17.776   6.450
 6712POPC   C2B44636  39.960  17.742   6.750
 6712POPC   C3B44637  39.985  17.762   7.050
 6712POPC   C4B44638  39.912  17.784   7.350
 6713POPC   NC344639  37.684   1.234   5.550
 6713POPC   PO444640  37.708   1.236   5.850
 6713POPC   GL144641  37.693   1.249   6.150
 6713POPC   GL244642  37.767   1.108   6.150
 6713POPC   C1A44643  37.685   1.188   6.450
 6713POPC   D2A44644  37.701   1.185   6.750
 6713POPC   C3A44645  37.706   1.176   7.050
 6713POPC   C4A44646  37.654   1.206   7.350
 6713POPC   C1B44647  37.874   1.047   6.450
 6713POPC   C2B44648  37.882   1.096   6.750
 6713POPC   C3B44649  37.918   1.057   7.050
 6713POPC   C4B44650  37.878   1.071   7.350
 6714POPC   NC344651  34.580  43.890   5.550
 6714POPC   PO444652  34.555  43.840   5.850
 6714POPC   GL144653  34.583  43.846   6.150
 6714POPC   GL244654  34.507  43.911   6.150
 6714POPC   C1A44655  34.580  43.924   6.450
 6714POPC   D2A44656  34.608  43.840   6.750
 6714POPC   C3A44657  34.604  43.863   7.050
 6714POPC   C4A44658  34.562  43.880   7.350
 6714POPC   C1B44659  34.385  44.055   6.450
 6714POPC   C2B44660  34.416  44.036   6.750
 6714POPC   C3B44661  34.401  43.993   7.050
 6714POPC   C4B44662  34.391  44.058   7.350
 6715POPC   NC344663  13.592   2.012   5.550
 6715POPC   PO444664  13.677   2.031   5.850
 6715POPC   GL144665  13.599   1.947   6.150
 6715POPC   GL244666  13.536   2.067   6.150
 6715POPC   C1A44667  13.604   2.023   6.450
 6715POPC   D2A44668  13.645   2.020   6.750
 6715POPC   C3A44669  13.634   2.000   7.050
 6715POPC   C4A44670  13.675   1.980   7.350
 6715POPC   C1B44671  13.496   2.206   6.450
 6715POPC   C2B44672  13.530   2.221   6.750
 6715POPC   C3B44673  13.478   2.224   7.050
 6715POPC   C4B44674  13.464   2.145   7.350
 6716POPC   NC344675  14.364  16.693   5.550
 6716POPC   PO444676  14.432  16.740   5.850
 6716POPC   GL144677  14.431  16.781   6.150
 6716POPC   GL244678  14.471  16.598   6.150
 6716POPC   C1A44679  14.440  16.707   6.450
 6716POPC   D2A44680  14.355  16.693   6.750
 6716POPC   C3A44681  14.423  16.720   7.050
 6716POPC   C4A44682  14.391  16.723   7.350
 6716POPC   C1B44683  14.568  16.593   6.450
 6716POPC   C2B44684  14.544  16.597   6.750
 6716POPC   C3B44685  14.603  16.524   7.050
 6716POPC   C4B44686  14.596  16.523   7.350
 6717POPC   NC344687  17.470   8.979   5.550
 6717POPC   PO444688  17.526   8.993   5.850
 6717POPC   GL144689  17.495   8.995   6.150
 6717POPC   GL244690  17.543   9.077   6.150
 6717POPC   C1A44691  17.492   8.926   6.450
 6717POPC   D2A44692  17.548   9.008   6.750
 6717POPC   C3A44693  17.472   8.941   7.050
 6717POPC   C4A44694  17.463   8.949   7.350
 6717POPC   C1B44695  17.536   9.222   6.450
 6717POPC   C2B44696  17.524   9.203   6.750
 6717POPC   C3B44697  17.517   9.234   7.050
 6717POPC   C4B44698  17.567   9.190   7.350
 6718POPC   NC344699  37.642  31.435   5.550
 6718POPC   PO444700  37.641  31.438   5.850
 6718POPC   GL144701  37.691  31.485   6.150
 6718POPC   GL244702  37.661  31.349   6.150
 6718POPC   C1A44703  37.693  31.427   6.450
 6718POPC   D2A44704  37.722  31.520   6.750
 6718POPC   C3A44705  37.633  31.462   7.050
 6718POPC   C4A44706  37.675  31.434   7.350
 6718POPC   C1B44707  37.584  31.191   6.450
 6718POPC   C2B44708  37.567  31.243   6.750
 6718POPC   C3B44709  37.589  31.264   7.050
 6718POPC   C4B44710  37.621  31.231   7.350
 6719POPC   NC344711   5.119  38.413   5.550
 6719POPC   PO444712   5.112  38.484   5.850
 6719POPC   GL144713   5.045  38.485   6.150
 6719POPC   GL244714   4.959  38.447   6.150
 6719POPC   C1A44715   5.108  38.498   6.450
 6719POPC   D2A44716   5.099  38.420   6.750
 6719POPC   C3A44717   5.084  38.452   7.050
 6719POPC   C4A44718   5.046  38.465   7.350
 6719POPC   C1B44719   4.909  38.387   6.450
 6719POPC   C2B44720   4.819  38.389   6.750
 6719POPC   C3B44721   4.847  38.317   7.050
 6719POPC   C4B44722   4.893  38.395   7.350
 6720POPC   NC344723  32.215  21.397   5.550
 6720POPC   PO444724  32.264  21.392   5.850
 6720POPC   GL144725  32.232  21.431   6.150
 6720POPC   GL244726  32.200  21.298   6.150
 6720POPC   C1A44727  32.200  21.407   6.450
 6720POPC   D2A44728  32.278  21.435   6.750
 6720POPC   C3A44729  32.256  21.413   7.050
 6720POPC   C4A44730  32.259  21.433   7.350
 6720POPC   C1B44731  32.273  21.156   6.450
 6720POPC   C2B44732  32.265  21.105   6.750
 6720POPC   C3B44733  32.280  21.157   7.050
 6720POPC   C4B44734  32.184  21.094   7.350
 6721POPC   NC344735  39.206   6.642   5.550
 6721POPC   PO444736  39.212   6.646   5.850
 6721POPC   GL144737  39.224   6.604   6.150
 6721POPC   GL244738  39.162   6.535   6.150
 6721POPC   C1A44739  39.208   6.598   6.450
 6721POPC   D2A44740  39.232   6.614   6.750
 6721POPC   C3A44741  39.232   6.681   7.050
 6721POPC   C4A44742  39.265   6.635   7.350
 6721POPC   C1B44743  39.089   6.453   6.450
 6721POPC   C2B44744  39.118   6.429   6.750
 6721POPC   C3B44745  39.032   6.400   7.050
 6721POPC   C4B44746  39.032   6.442   7.350
 6722POPC   NC344747   7.437  26.793   5.550
 6722POPC   PO444748   7.452  26.804   5.850
 6722POPC   GL144749   7.469  26.864   6.150
 6722POPC   GL244750   7.536  26.967   6.150
 6722POPC   C1A44751   7.430  26.826   6.450
 6722POPC   D2A44752   7.423  26.855   6.750
 6722POPC   C3A44753   7.429  26.815   7.050
 6722POPC   C4A44754   7.450  26.812   7.350
 6722POPC   C1B44755   7.557  27.062   6.450
 6722POPC   C2B44756   7.585  27.066   6.750
 6722POPC   C3B44757   7.605  27.070   7.050
 6722POPC   C4B44758   7.514  27.014   7.350
 6723POPC   NC344759   1.994  40.038   5.550
 6723POPC   PO444760   1.962  40.049   5.850
 6723POPC   GL144761   2.020  40.003   6.150
 6723POPC   GL244762   2.141  39.944   6.150
 6723POPC   C1A44763   2.037  39.969   6.450
 6723POPC   D2A44764   1.982  39.988   6.750
 6723POPC   C3A44765   1.987  39.980   7.050
 6723POPC   C4A44766   1.958  39.957   7.350
 6723POPC   C1B44767   2.222  39.927   6.450
 6723POPC   C2B44768   2.231  39.891   6.750
 6723POPC   C3B44769   2.209  39.941   7.050
 6723POPC   C4B44770   2.206  39.875   7.350
 6724POPC   NC344771  25.283   9.726   5.550
 6724POPC   PO444772  25.250   9.786   5.850
 6724POPC   GL144773  25.235   9.727   6.150
 6724POPC   GL244774  25.162   9.671   6.150
 6724POPC   C1A44775  25.258   9.786   6.450
 6724POPC   D2A44776  25.230   9.798   6.750
 6724POPC   C3A44777  25.241   9.726   7.050
 6724POPC   C4A44778  25.264   9.792   7.350
 6724POPC   C1B44779  25.034   9.639   6.450
 6724POPC   C2B44780  25.068   9.600   6.750
 6724POPC   C3B44781  25.083   9.618   7.050
 6724POPC   C4B44782  25.074   9.629   7.350
 6725POPC   NC344783  19.009  12.828   5.550
 6725POPC   PO444784  19.071  12.827   5.850
 6725POPC   GL144785  19.068  12.881   6.150
 6725POPC   GL244786  19.017  12.705   6.150
 6725POPC   C1A44787  19.065  12.890   6.450
 6725POPC   D2A44788  19.021  12.812   6.750
 6725POPC   C3A44789  19.083  12.828   7.050
 6725POPC   C4A44790  19.013  12.884   7.350
 6725POPC   C1B44791  18.996  12.637   6.450
 6725POPC   C2B44792  19.041  12.627   6.750
 6725POPC   C3B44793  19.009  12.581   7.050
 6725POPC   C4B44794  19.008  12.635   7.350
 6726POPC   NC344795  23.717   4.323   5.550
 6726POPC   PO444796  23.687   4.322   5.850
 6726POPC   GL144797  23.756   4.360   6.150
 6726POPC   GL244798  23.628   4.233   6.150
 6726POPC   C1A44799  23.680   4.338   6.450
 6726POPC   D2A44800  23.693   4.276   6.750
 6726POPC   C3A44801  23.687   4.366   7.050
 6726POPC   C4A44802  23.748   4.352   7.350
 6726POPC   C1B44803  23.469   4.211   6.450
 6726POPC   C2B44804  23.529   4.153   6.750
 6726POPC   C3B44805  23.448   4.198   7.050
 6726POPC   C4B44806  23.483   4.161   7.350
 6727POPC   NC344807  24.466   1.195   5.550
 6727POPC   PO444808  24.518   1.248   5.850
 6727POPC   GL144809  24.527   1.172   6.150
 6727POPC   GL244810  24.610   1.143   6.150
 6727POPC   C1A44811  24.467   1.192   6.450
 6727POPC   D2A44812  24.508   1.216   6.750
 6727POPC   C3A44813  24.512   1.188   7.050
 6727POPC   C4A44814  24.506   1.259   7.350
 6727POPC   C1B44815  24.699   1.155   6.450
 6727POPC   C2B44816  24.755   1.158   6.750
 6727POPC   C3B44817  24.783   1.129   7.050
 6727POPC   C4B44818  24.716   1.217   7.350
 6728POPC   NC344819   6.646  29.118   5.550
 6728POPC   PO444820   6.596  29.163   5.850
 6728POPC   GL144821   6.619  29.194   6.150
 6728POPC   GL244822   6.636  29.227   6.150
 6728POPC   C1A44823   6.639  29.131   6.450
 6728POPC   D2A44824   6.686  29.122   6.750
 6728POPC   C3A44825   6.647  29.191   7.050
 6728POPC   C4A44826   6.691  29.180   7.350
 6728POPC   C1B44827   6.539  29.427   6.450
 6728POPC   C2B44828   6.552  29.384   6.750
 6728POPC   C3B44829   6.602  29.396   7.050
 6728POPC   C4B44830   6.618  29.393   7.350
 6729POPC   NC344831  43.156  31.514   5.550
 6729POPC   PO444832  43.147  31.435   5.850
 6729POPC   GL144833  43.066  31.437   6.150
 6729POPC   GL244834  42.999  31.508   6.150
 6729POPC   C1A44835  43.139  31.502   6.450
 6729POPC   D2A44836  43.087  31.461   6.750
 6729POPC   C3A44837  43.144  31.473   7.050
 6729POPC   C4A44838  43.152  31.450   7.350
 6729POPC   C1B44839  42.862  31.606   6.450
 6729POPC   C2B44840  42.838  31.600   6.750
 6729POPC   C3B44841  42.854  31.587   7.050
 6729POPC   C4B44842  42.872  31.535   7.350
 6730POPC   NC344843  37.694  13.654   5.550
 6730POPC   PO444844  37.716  13.594   5.850
 6730POPC   GL144845  37.681  13.580   6.150
 6730POPC   GL244846  37.650  13.530   6.150
 6730POPC   C1A44847  37.681  13.593   6.450
 6730POPC   D2A44848  37.702  13.670   6.750
 6730POPC   C3A44849  37.643  13.581   7.050
 6730POPC   C4A44850  37.699  13.588   7.350
 6730POPC   C1B44851  37.691  13.425   6.450
 6730POPC   C2B44852  37.657  13.391   6.750
 6730POPC   C3B44853  37.743  13.358   7.050
 6730POPC   C4B44854  37.734  13.389   7.350
 6731POPC   NC344855   3.576  36.177   5.550
 6731POPC   PO444856   3.553  36.129   5.850
 6731POPC   GL144857   3.536  36.080   6.150
 6731POPC   GL244858   3.622  36.035   6.150
 6731POPC   C1A44859   3.545  36.144   6.450
 6731POPC   D2A44860   3.576  36.110   6.750
 6731POPC   C3A44861   3.573  36.107   7.050
 6731POPC   C4A44862   3.524  36.079   7.350
 6731POPC   C1B44863   3.650  35.885   6.450
 6731POPC   C2B44864   3.570  35.897   6.750
 6731POPC   C3B44865   3.644  35.891   7.050
 6731POPC   C4B44866   3.635  35.901   7.350
 6732POPC   NC344867  13.669  16.728   5.550
 6732POPC   PO444868  13.596  16.780   5.850
 6732POPC   GL144869  13.624  16.731   6.150
 6732POPC   GL244870  13.650  16.866   6.150
 6732POPC   C1A44871  13.663  16.760   6.450
 6732POPC   D2A44872  13.590  16.777   6.750
 6732POPC   C3A44873  13.581  16.760   7.050
 6732POPC   C4A44874  13.664  16.697   7.350
 6732POPC   C1B44875  13.623  16.989   6.450
 6732POPC   C2B44876  13.685  16.932   6.750
 6732POPC   C3B44877  13.631  17.025   7.050
 6732POPC   C4B44878  13.620  16.991   7.350
 6733POPC   NC344879  26.080   9.793   5.550
 6733POPC   PO444880  26.011   9.712   5.850
 6733POPC   GL144881  26.028   9.746   6.150
 6733POPC   GL244882  26.071   9.848   6.150
 6733POPC   C1A44883  26.076   9.766   6.450
 6733POPC   D2A44884  26.032   9.706   6.750
 6733POPC   C3A44885  26.069   9.779   7.050
 6733POPC   C4A44886  26.072   9.764   7.350
 6733POPC   C1B44887  26.081  10.003   6.450
 6733POPC   C2B44888  26.108   9.966   6.750
 6733POPC   C3B44889  26.078  10.041   7.050
 6733POPC   C4B44890  26.065   9.959   7.350
 6734POPC   NC344891  18.263  18.247   5.550
 6734POPC   PO444892  18.233  18.298   5.850
 6734POPC   GL144893  18.308  18.270   6.150
 6734POPC   GL244894  18.397  18.367   6.150
 6734POPC   C1A44895  18.295  18.294   6.450
 6734POPC   D2A44896  18.282  18.270   6.750
 6734POPC   C3A44897  18.275  18.305   7.050
 6734POPC   C4A44898  18.288  18.329   7.350
 6734POPC   C1B44899  18.488  18.427   6.450
 6734POPC   C2B44900  18.483  18.475   6.750
 6734POPC   C3B44901  18.497  18.395   7.050
 6734POPC   C4B44902  18.528  18.476   7.350
 6735POPC   NC344903  33.059  19.841   5.550
 6735POPC   PO444904  33.039  19.799   5.850
 6735POPC   GL144905  32.984  19.805   6.150
 6735POPC   GL244906  33.100  19.866   6.150
 6735POPC   C1A44907  32.980  19.816   6.450
 6735POPC   D2A44908  33.027  19.795   6.750
 6735POPC   C3A44909  32.991  19.800   7.050
 6735POPC   C4A44910  32.995  19.808   7.350
 6735POPC   C1B44911  33.278  19.799   6.450
 6735POPC   C2B44912  33.307  19.868   6.750
 6735POPC   C3B44913  33.265  19.831   7.050
 6735POPC   C4B44914  33.296  19.824   7.350
 6736POPC   NC344915  21.417   8.172   5.550
 6736POPC   PO444916  21.383   8.177   5.850
 6736POPC   GL144917  21.380   8.149   6.150
 6736POPC   GL244918  21.372   8.365   6.150
 6736POPC   C1A44919  21.342   8.245   6.450
 6736POPC   D2A44920  21.407   8.164   6.750
 6736POPC   C3A44921  21.409   8.229   7.050
 6736POPC   C4A44922  21.422   8.238   7.350
 6736POPC   C1B44923  21.425   8.462   6.450
 6736POPC   C2B44924  21.464   8.485   6.750
 6736POPC   C3B44925  21.407   8.459   7.050
 6736POPC   C4B44926  21.469   8.467   7.350
 6737POPC   NC344927  14.453  42.362   5.550
 6737POPC   PO444928  14.360  42.312   5.850
 6737POPC   GL144929  14.434  42.290   6.150
 6737POPC   GL244930  14.561  42.405   6.150
 6737POPC   C1A44931  14.365  42.302   6.450
 6737POPC   D2A44932  14.367  42.326   6.750
 6737POPC   C3A44933  14.382  42.330   7.050
 6737POPC   C4A44934  14.418  42.334   7.350
 6737POPC   C1B44935  14.631  42.439   6.450
 6737POPC   C2B44936  14.656  42.467   6.750
 6737POPC   C3B44937  14.635  42.428   7.050
 6737POPC   C4B44938  14.632  42.433   7.350
 6738POPC   NC344939  25.283  11.325   5.550
 6738POPC   PO444940  25.252  11.308   5.850
 6738POPC   GL144941  25.285  11.278   6.150
 6738POPC   GL244942  25.352  11.368   6.150
 6738POPC   C1A44943  25.315  11.288   6.450
 6738POPC   D2A44944  25.263  11.314   6.750
 6738POPC   C3A44945  25.303  11.314   7.050
 6738POPC   C4A44946  25.231  11.332   7.350
 6738POPC   C1B44947  25.322  11.538   6.450
 6738POPC   C2B44948  25.399  11.564   6.750
 6738POPC   C3B44949  25.332  11.491   7.050
 6738POPC   C4B44950  25.384  11.497   7.350
 6739POPC   NC344951   8.171   1.972   5.550
 6739POPC   PO444952   8.219   2.038   5.850
 6739POPC   GL144953   8.224   2.030   6.150
 6739POPC   GL244954   8.293   1.938   6.150
 6739POPC   C1A44955   8.162   1.946   6.450
 6739POPC   D2A44956   8.174   1.954   6.750
 6739POPC   C3A44957   8.223   2.025   7.050
 6739POPC   C4A44958   8.180   2.030   7.350
 6739POPC   C1B44959   8.404   1.961   6.450
 6739POPC   C2B44960   8.423   1.953   6.750
 6739POPC   C3B44961   8.426   1.940   7.050
 6739POPC   C4B44962   8.423   1.983   7.350
 6740POPC   NC344963  17.509  13.615   5.550
 6740POPC   PO444964  17.528  13.669   5.850
 6740POPC   GL144965  17.555  13.620   6.150
 6740POPC   GL244966  17.475  13.776   6.150
 6740POPC   C1A44967  17.508  13.648   6.450
 6740POPC   D2A44968  17.506  13.632   6.750
 6740POPC   C3A44969  17.466  13.677   7.050
 6740POPC   C4A44970  17.510  13.579   7.350
 6740POPC   C1B44971  17.448  13.845   6.450
 6740POPC   C2B44972  17.446  13.825   6.750
 6740POPC   C3B44973  17.461  13.811   7.050
 6740POPC   C4B44974  17.382  13.822   7.350
 6741POPC   NC344975  27.556   5.110   5.550
 6741POPC   PO444976  27.574   5.133   5.850
 6741POPC   GL144977  27.574   5.045   6.150
 6741POPC   GL244978  27.669   5.239   6.150
 6741POPC   C1A44979  27.604   5.087   6.450
 6741POPC   D2A44980  27.579   5.065   6.750
 6741POPC   C3A44981  27.639   5.101   7.050
 6741POPC   C4A44982  27.608   5.090   7.350
 6741POPC   C1B44983  27.650   5.310   6.450
 6741POPC   C2B44984  27.627   5.328   6.750
 6741POPC   C3B44985  27.676   5.362   7.050
 6741POPC   C4B44986  27.652   5.375   7.350
 6742POPC   NC344987  35.370  22.148   5.550
 6742POPC   PO444988  35.313  22.196   5.850
 6742POPC   GL144989  35.370  22.168   6.150
 6742POPC   GL244990  35.281  22.315   6.150
 6742POPC   C1A44991  35.396  22.203   6.450
 6742POPC   D2A44992  35.375  22.195   6.750
 6742POPC   C3A44993  35.385  22.117   7.050
 6742POPC   C4A44994  35.394  22.194   7.350
 6742POPC   C1B44995  35.306  22.364   6.450
 6742POPC   C2B44996  35.355  22.415   6.750
 6742POPC   C3B44997  35.297  22.429   7.050
 6742POPC   C4B44998  35.322  22.416   7.350
 6743POPC   NC344999  13.661  33.060   5.550
 6743POPC   PO445000  13.582  33.012   5.850
 6743POPC   GL145001  13.649  33.014   6.150
 6743POPC   GL245002  13.513  33.000   6.150
 6743POPC   C1A45003  13.585  32.989   6.450
 6743POPC   D2A45004  13.648  33.008   6.750
 6743POPC   C3A45005  13.612  32.989   7.050
 6743POPC   C4A45006  13.668  33.036   7.350
 6743POPC   C1B45007  13.441  32.888   6.450
 6743POPC   C2B45008  13.372  32.924   6.750
 6743POPC   C3B45009  13.379  32.887   7.050
 6743POPC   C4B45010  13.385  32.923   7.350
 6744POPC   NC345011   5.095  34.619   5.550
 6744POPC   PO445012   5.093  34.545   5.850
 6744POPC   GL145013   5.044  34.616   6.150
 6744POPC   GL245014   5.077  34.431   6.150
 6744POPC   C1A45015   5.069  34.546   6.450
 6744POPC   D2A45016   5.126  34.584   6.750
 6744POPC   C3A45017   5.069  34.589   7.050
 6744POPC   C4A45018   5.093  34.619   7.350
 6744POPC   C1B45019   5.020  34.366   6.450
 6744POPC   C2B45020   5.021  34.313   6.750
 6744POPC   C3B45021   4.990  34.293   7.050
 6744POPC   C4B45022   5.018  34.310   7.350
 6745POPC   NC345023  17.530  37.705   5.550
 6745POPC   PO445024  17.458  37.704   5.850
 6745POPC   GL145025  17.470  37.711   6.150
 6745POPC   GL245026  17.659  37.646   6.150
 6745POPC   C1A45027  17.473  37.639   6.450
 6745POPC   D2A45028  17.538  37.718   6.750
 6745POPC   C3A45029  17.557  37.630   7.050
 6745POPC   C4A45030  17.542  37.692   7.350
 6745POPC   C1B45031  17.739  37.621   6.450
 6745POPC   C2B45032  17.773  37.632   6.750
 6745POPC   C3B45033  17.742  37.635   7.050
 6745POPC   C4B45034  17.770  37.642   7.350
 6746POPC   NC345035  37.717  43.087   5.550
 6746POPC   PO445036  37.688  43.065   5.850
 6746POPC   GL145037  37.634  43.116   6.150
 6746POPC   GL245038  37.508  43.112   6.150
 6746POPC   C1A45039  37.682  43.094   6.450
 6746POPC   D2A45040  37.668  43.103   6.750
 6746POPC   C3A45041  37.660  43.087   7.050
 6746POPC   C4A45042  37.658  43.140   7.350
 6746POPC   C1B45043  37.425  43.059   6.450
 6746POPC   C2B45044  37.451  43.063   6.750
 6746POPC   C3B45045  37.420  43.065   7.050
 6746POPC   C4B45046  37.453  43.023   7.350
 6747POPC   NC345047  43.836  26.068   5.550
 6747POPC   PO445048  43.898  26.009   5.850
 6747POPC   GL145049  43.923  26.054   6.150
 6747POPC   GL245050  43.808  26.190   6.150
 6747POPC   C1A45051  43.901  26.059   6.450
 6747POPC   D2A45052  43.933  26.024   6.750
 6747POPC   C3A45053  43.864  26.034   7.050
 6747POPC   C4A45054  43.864  26.053   7.350
 6747POPC   C1B45055  43.803  26.284   6.450
 6747POPC   C2B45056  43.800  26.256   6.750
 6747POPC   C3B45057  43.814  26.303   7.050
 6747POPC   C4B45058  43.849  26.250   7.350
 6748POPC   NC345059  43.909  33.809   5.550
 6748POPC   PO445060  43.925  33.756   5.850
 6748POPC   GL145061  43.903  33.822   6.150
 6748POPC   GL245062  43.957  33.848   6.150
 6748POPC   C1A45063  43.880  33.760   6.450
 6748POPC   D2A45064  43.931  33.805   6.750
 6748POPC   C3A45065  43.880  33.836   7.050
 6748POPC   C4A45066  43.898  33.826   7.350
 6748POPC   C1B45067  44.122  33.980   6.450
 6748POPC   C2B45068  44.056  33.921   6.750
 6748POPC   C3B45069  44.046  33.975   7.050
 6748POPC   C4B45070  44.126  33.976   7.350
 6749POPC   NC345071  36.881  33.007   5.550
 6749POPC   PO445072  36.931  32.981   5.850
 6749POPC   GL145073  36.856  33.022   6.150
 6749POPC   GL245074  36.818  33.085   6.150
 6749POPC   C1A45075  36.909  33.017   6.450
 6749POPC   D2A45076  36.891  33.054   6.750
 6749POPC   C3A45077  36.923  33.034   7.050
 6749POPC   C4A45078  36.872  32.985   7.350
 6749POPC   C1B45079  36.689  33.133   6.450
 6749POPC   C2B45080  36.743  33.157   6.750
 6749POPC   C3B45081  36.738  33.158   7.050
 6749POPC   C4B45082  36.680  33.146   7.350
 6750POPC   NC345083  17.472  17.488   5.550
 6750POPC   PO445084  17.529  17.485   5.850
 6750POPC   GL145085  17.549  17.493   6.150
 6750POPC   GL245086  17.668  17.597   6.150
 6750POPC   C1A45087  17.536  17.520   6.450
 6750POPC   D2A45088  17.488  17.505   6.750
 6750POPC   C3A45089  17.496  17.523   7.050
 6750POPC   C4A45090  17.467  17.510   7.350
 6750POPC   C1B45091  17.742  17.581   6.450
 6750POPC   C2B45092  17.699  17.604   6.750
 6750POPC   C3B45093  17.711  17.635   7.050
 6750POPC   C4B45094  17.784  17.555   7.350
 6751POPC   NC345095   1.990  20.578   5.550
 6751POPC   PO445096   1.984  20.639   5.850
 6751POPC   GL145097   2.030  20.620   6.150
 6751POPC   GL245098   2.135  20.673   6.150
 6751POPC   C1A45099   1.988  20.617   6.450
 6751POPC   D2A45100   2.025  20.604   6.750
 6751POPC   C3A45101   2.017  20.626   7.050
 6751POPC   C4A45102   2.024  20.604   7.350
 6751POPC   C1B45103   2.198  20.753   6.450
 6751POPC   C2B45104   2.254  20.733   6.750
 6751POPC   C3B45105   2.259  20.734   7.050
 6751POPC   C4B45106   2.237  20.677   7.350
 6752POPC   NC345107  31.472  27.632   5.550
 6752POPC   PO445108  31.455  27.611   5.850
 6752POPC   GL145109  31.483  27.591   6.150
 6752POPC   GL245110  31.539  27.539   6.150
 6752POPC   C1A45111  31.489  27.577   6.450
 6752POPC   D2A45112  31.467  27.576   6.750
 6752POPC   C3A45113  31.466  27.639   7.050
 6752POPC   C4A45114  31.428  27.616   7.350
 6752POPC   C1B45115  31.691  27.438   6.450
 6752POPC   C2B45116  31.655  27.467   6.750
 6752POPC   C3B45117  31.687  27.456   7.050
 6752POPC   C4B45118  31.704  27.443   7.350
 6753POPC   NC345119  35.388  36.110   5.550
 6753POPC   PO445120  35.335  36.113   5.850
 6753POPC   GL145121  35.336  36.171   6.150
 6753POPC   GL245122  35.255  36.148   6.150
 6753POPC   C1A45123  35.373  36.167   6.450
 6753POPC   D2A45124  35.377  36.091   6.750
 6753POPC   C3A45125  35.349  36.126   7.050
 6753POPC   C4A45126  35.371  36.134   7.350
 6753POPC   C1B45127  35.143  36.289   6.450
 6753POPC   C2B45128  35.126  36.226   6.750
 6753POPC   C3B45129  35.166  36.259   7.050
 6753POPC   C4B45130  35.090  36.243   7.350
 6754POPC   NC345131   5.122  27.609   5.550
 6754POPC   PO445132   5.140  27.616   5.850
 6754POPC   GL145133   5.114  27.554   6.150
 6754POPC   GL245134   5.061  27.478   6.150
 6754POPC   C1A45135   5.142  27.572   6.450
 6754POPC   D2A45136   5.107  27.611   6.750
 6754POPC   C3A45137   5.059  27.610   7.050
 6754POPC   C4A45138   5.073  27.586   7.350
 6754POPC   C1B45139   4.974  27.363   6.450
 6754POPC   C2B45140   4.991  27.373   6.750
 6754POPC   C3B45141   5.062  27.335   7.050
 6754POPC   C4B45142   5.016  27.341   7.350
 6755POPC   NC345143  42.312  40.734   5.550
 6755POPC   PO445144  42.307  40.747   5.850
 6755POPC   GL145145  42.356  40.771   6.150
 6755POPC   GL245146  42.423  40.760   6.150
 6755POPC   C1A45147  42.384  40.828   6.450
 6755POPC   D2A45148  42.311  40.737   6.750
 6755POPC   C3A45149  42.289  40.745   7.050
 6755POPC   C4A45150  42.376  40.800   7.350
 6755POPC   C1B45151  42.629  40.750   6.450
 6755POPC   C2B45152  42.540  40.773   6.750
 6755POPC   C3B45153  42.633  40.807   7.050
 6755POPC   C4B45154  42.544  40.778   7.350
 6756POPC   NC345155  33.023  26.861   5.550
 6756POPC   PO445156  33.009  26.793   5.850
 6756POPC   GL145157  33.051  26.839   6.150
 6756POPC   GL245158  33.086  26.683   6.150
 6756POPC   C1A45159  32.977  26.793   6.450
 6756POPC   D2A45160  33.052  26.866   6.750
 6756POPC   C3A45161  32.991  26.796   7.050
 6756POPC   C4A45162  33.032  26.781   7.350
 6756POPC   C1B45163  33.095  26.556   6.450
 6756POPC   C2B45164  33.048  26.622   6.750
 6756POPC   C3B45165  33.027  26.541   7.050
 6756POPC   C4B45166  33.102  26.558   7.350
 6757POPC   NC345167  40.832  26.030   5.550
 6757POPC   PO445168  40.737  26.081   5.850
 6757POPC   GL145169  40.755  26.036   6.150
 6757POPC   GL245170  40.724  25.960   6.150
 6757POPC   C1A45171  40.734  25.999   6.450
 6757POPC   D2A45172  40.813  26.069   6.750
 6757POPC   C3A45173  40.789  26.035   7.050
 6757POPC   C4A45174  40.738  26.019   7.350
 6757POPC   C1B45175  40.588  25.882   6.450
 6757POPC   C2B45176  40.564  25.927   6.750
 6757POPC   C3B45177  40.617  25.897   7.050
 6757POPC   C4B45178  40.571  25.896   7.350
 6758POPC   NC345179  44.643  12.046   5.550
 6758POPC   PO445180  44.710  12.086   5.850
 6758POPC   GL145181  44.667  12.044   6.150
 6758POPC   GL245182  44.601  11.977   6.150
 6758POPC   C1A45183  44.623  12.091   6.450
 6758POPC   D2A45184  44.637  12.111   6.750
 6758POPC   C3A45185  44.692  12.042   7.050
 6758POPC   C4A45186  44.675  12.086   7.350
 6758POPC   C1B45187  44.614  11.877   6.450
 6758POPC   C2B45188  44.616  11.893   6.750
 6758POPC   C3B45189  44.581  11.884   7.050
 6758POPC   C4B45190  44.569  11.829   7.350
 6759POPC   NC345191  26.065  12.855   5.550
 6759POPC   PO445192  26.074  12.853   5.850
 6759POPC   GL145193  26.004  12.831   6.150
 6759POPC   GL245194  25.952  12.777   6.150
 6759POPC   C1A45195  26.028  12.806   6.450
 6759POPC   D2A45196  26.027  12.874   6.750
 6759POPC   C3A45197  26.086  12.880   7.050
 6759POPC   C4A45198  26.078  12.877   7.350
 6759POPC   C1B45199  25.893  12.647   6.450
 6759POPC   C2B45200  25.923  12.646   6.750
 6759POPC   C3B45201  25.889  12.691   7.050
 6759POPC   C4B45202  25.839  12.658   7.350
 6760POPC   NC345203  26.034  22.148   5.550
 6760POPC   PO445204  26.035  22.205   5.850
 6760POPC   GL145205  26.017  22.144   6.150
 6760POPC   GL245206  25.909  22.198   6.150
 6760POPC   C1A45207  26.001  22.142   6.450
 6760POPC   D2A45208  26.067  22.120   6.750
 6760POPC   C3A45209  26.006  22.190   7.050
 6760POPC   C4A45210  26.045  22.194   7.350
 6760POPC   C1B45211  25.818  22.242   6.450
 6760POPC   C2B45212  25.769  22.301   6.750
 6760POPC   C3B45213  25.838  22.274   7.050
 6760POPC   C4B45214  25.812  22.263   7.350
 6761POPC   NC345215   1.940   2.008   5.550
 6761POPC   PO445216   2.039   1.976   5.850
 6761POPC   GL145217   1.992   1.978   6.150
 6761POPC   GL245218   2.125   1.898   6.150
 6761POPC   C1A45219   1.996   1.958   6.450
 6761POPC   D2A45220   1.999   2.030   6.750
 6761POPC   C3A45221   1.990   1.967   7.050
 6761POPC   C4A45222   1.995   2.007   7.350
 6761POPC   C1B45223   2.222   1.911   6.450
 6761POPC   C2B45224   2.198   1.916   6.750
 6761POPC   C3B45225   2.240   1.880   7.050
 6761POPC   C4B45226   2.221   1.910   7.350
 6762POPC   NC345227  20.591  12.034   5.550
 6762POPC   PO445228  20.603  12.029   5.850
 6762POPC   GL145229  20.588  12.122   6.150
 6762POPC   GL245230  20.670  11.974   6.150
 6762POPC   C1A45231  20.607  12.119   6.450
 6762POPC   D2A45232  20.625  12.124   6.750
 6762POPC   C3A45233  20.649  12.124   7.050
 6762POPC   C4A45234  20.594  12.121   7.350
 6762POPC   C1B45235  20.800  11.839   6.450
 6762POPC   C2B45236  20.788  11.871   6.750
 6762POPC   C3B45237  20.752  11.860   7.050
 6762POPC   C4B45238  20.791  11.849   7.350
 6763POPC   NC345239  34.611   5.115   5.550
 6763POPC   PO445240  34.548   5.132   5.850
 6763POPC   GL145241  34.539   5.070   6.150
 6763POPC   GL245242  34.523   4.957   6.150
 6763POPC   C1A45243  34.600   5.078   6.450
 6763POPC   D2A45244  34.558   5.110   6.750
 6763POPC   C3A45245  34.607   5.115   7.050
 6763POPC   C4A45246  34.587   5.083   7.350
 6763POPC   C1B45247  34.516   4.862   6.450
 6763POPC   C2B45248  34.587   4.892   6.750
 6763POPC   C3B45249  34.526   4.837   7.050
 6763POPC   C4B45250  34.506   4.798   7.350
 6764POPC   NC345251   1.179   8.172   5.550
 6764POPC   PO445252   1.262   8.168   5.850
 6764POPC   GL145253   1.245   8.155   6.150
 6764POPC   GL245254   1.300   8.328   6.150
 6764POPC   C1A45255   1.227   8.218   6.450
 6764POPC   D2A45256   1.190   8.161   6.750
 6764POPC   C3A45257   1.214   8.154   7.050
 6764POPC   C4A45258   1.193   8.169   7.350
 6764POPC   C1B45259   1.376   8.397   6.450
 6764POPC   C2B45260   1.430   8.366   6.750
 6764POPC   C3B45261   1.387   8.348   7.050
 6764POPC   C4B45262   1.352   8.380   7.350
 6765POPC   NC345263  12.048  19.858   5.550
 6765POPC   PO445264  12.067  19.819   5.850
 6765POPC   GL145265  12.063  19.795   6.150
 6765POPC   GL245266  12.022  19.701   6.150
 6765POPC   C1A45267  12.062  19.876   6.450
 6765POPC   D2A45268  12.077  19.874   6.750
 6765POPC   C3A45269  12.040  19.818   7.050
 6765POPC   C4A45270  12.086  19.806   7.350
 6765POPC   C1B45271  12.049  19.594   6.450
 6765POPC   C2B45272  11.998  19.583   6.750
 6765POPC   C3B45273  12.032  19.551   7.050
 6765POPC   C4B45274  12.041  19.577   7.350
 6766POPC   NC345275  22.925  33.072   5.550
 6766POPC   PO445276  22.987  33.031   5.850
 6766POPC   GL145277  22.962  33.008   6.150
 6766POPC   GL245278  22.844  33.016   6.150
 6766POPC   C1A45279  22.969  33.031   6.450
 6766POPC   D2A45280  22.923  33.014   6.750
 6766POPC   C3A45281  22.930  33.067   7.050
 6766POPC   C4A45282  22.938  33.023   7.350
 6766POPC   C1B45283  22.659  33.055   6.450
 6766POPC   C2B45284  22.689  33.066   6.750
 6766POPC   C3B45285  22.667  33.130   7.050
 6766POPC   C4B45286  22.648  33.039   7.350
 6767POPC   NC345287  34.558  43.150   5.550
 6767POPC   PO445288  34.527  43.130   5.850
 6767POPC   GL145289  34.539  43.093   6.150
 6767POPC   GL245290  34.423  43.073   6.150
 6767POPC   C1A45291  34.593  43.153   6.450
 6767POPC   D2A45292  34.592  43.125   6.750
 6767POPC   C3A45293  34.608  43.115   7.050
 6767POPC   C4A45294  34.543  43.147   7.350
 6767POPC   C1B45295  34.308  43.139   6.450
 6767POPC   C2B45296  34.366  43.138   6.750
 6767POPC   C3B45297  34.349  43.170   7.050
 6767POPC   C4B45298  34.333  43.135   7.350
 6768POPC   NC345299  22.901  41.517   5.550
 6768POPC   PO445300  22.947  41.590   5.850
 6768POPC   GL145301  22.912  41.608   6.150
 6768POPC   GL245302  23.101  41.535   6.150
 6768POPC   C1A45303  22.946  41.591   6.450
 6768POPC   D2A45304  22.954  41.599   6.750
 6768POPC   C3A45305  22.953  41.574   7.050
 6768POPC   C4A45306  22.947  41.607   7.350
 6768POPC   C1B45307  23.190  41.590   6.450
 6768POPC   C2B45308  23.225  41.585   6.750
 6768POPC   C3B45309  23.235  41.502   7.050
 6768POPC   C4B45310  23.231  41.553   7.350
 6769POPC   NC345311   8.932  32.231   5.550
 6769POPC   PO445312   8.962  32.265   5.850
 6769POPC   GL145313   8.947  32.255   6.150
 6769POPC   GL245314   9.025  32.128   6.150
 6769POPC   C1A45315   8.935  32.202   6.450
 6769POPC   D2A45316   8.954  32.293   6.750
 6769POPC   C3A45317   8.923  32.220   7.050
 6769POPC   C4A45318   8.991  32.265   7.350
 6769POPC   C1B45319   9.172  32.086   6.450
 6769POPC   C2B45320   9.177  32.102   6.750
 6769POPC   C3B45321   9.189  32.078   7.050
 6769POPC   C4B45322   9.121  32.052   7.350
 6770POPC   NC345323  21.426  25.276   5.550
 6770POPC   PO445324  21.411  25.292   5.850
 6770POPC   GL145325  21.351  25.270   6.150
 6770POPC   GL245326  21.446  25.347   6.150
 6770POPC   C1A45327  21.407  25.245   6.450
 6770POPC   D2A45328  21.414  25.239   6.750
 6770POPC   C3A45329  21.396  25.227   7.050
 6770POPC   C4A45330  21.410  25.271   7.350
 6770POPC   C1B45331  21.545  25.481   6.450
 6770POPC   C2B45332  21.564  25.512   6.750
 6770POPC   C3B45333  21.477  25.508   7.050
 6770POPC   C4B45334  21.517  25.510   7.350
 6771POPC   NC345335  39.186  19.813   5.550
 6771POPC   PO445336  39.189  19.879   5.850
 6771POPC   GL145337  39.273  19.825   6.150
 6771POPC   GL245338  39.072  19.785   6.150
 6771POPC   C1A45339  39.199  19.850   6.450
 6771POPC   D2A45340  39.271  19.833   6.750
 6771POPC   C3A45341  39.191  19.794   7.050
 6771POPC   C4A45342  39.280  19.816   7.350
 6771POPC   C1B45343  38.970  19.825   6.450
 6771POPC   C2B45344  39.000  19.746   6.750
 6771POPC   C3B45345  39.006  19.793   7.050
 6771POPC   C4B45346  38.977  19.804   7.350
 6772POPC   NC345347  11.341  26.820   5.550
 6772POPC   PO445348  11.284  26.804   5.850
 6772POPC   GL145349  11.253  26.844   6.150
 6772POPC   GL245350  11.407  26.802   6.150
 6772POPC   C1A45351  11.260  26.815   6.450
 6772POPC   D2A45352  11.334  26.790   6.750
 6772POPC   C3A45353  11.251  26.784   7.050
 6772POPC   C4A45354  11.329  26.784   7.350
 6772POPC   C1B45355  11.501  26.921   6.450
 6772POPC   C2B45356  11.531  26.911   6.750
 6772POPC   C3B45357  11.560  26.840   7.050
 6772POPC   C4B45358  11.540  26.856   7.350
 6773POPC   NC345359  15.916  15.964   5.550
 6773POPC   PO445360  15.969  15.987   5.850
 6773POPC   GL145361  15.908  15.930   6.150
 6773POPC   GL245362  16.087  15.912   6.150
 6773POPC   C1A45363  15.987  15.973   6.450
 6773POPC   D2A45364  15.981  15.988   6.750
 6773POPC   C3A45365  15.921  15.921   7.050
 6773POPC   C4A45366  15.954  15.927   7.350
 6773POPC   C1B45367  16.169  15.889   6.450
 6773POPC   C2B45368  16.212  15.884   6.750
 6773POPC   C3B45369  16.212  15.871   7.050
 6773POPC   C4B45370  16.164  15.872   7.350
 6774POPC   NC345371   8.226   5.134   5.550
 6774POPC   PO445372   8.186   5.074   5.850
 6774POPC   GL145373   8.206   5.068   6.150
 6774POPC   GL245374   8.143   4.970   6.150
 6774POPC   C1A45375   8.236   5.062   6.450
 6774POPC   D2A45376   8.208   5.104   6.750
 6774POPC   C3A45377   8.151   5.065   7.050
 6774POPC   C4A45378   8.165   5.109   7.350
 6774POPC   C1B45379   8.035   4.928   6.450
 6774POPC   C2B45380   8.037   4.926   6.750
 6774POPC   C3B45381   8.033   4.926   7.050
 6774POPC   C4B45382   8.003   4.895   7.350
 6775POPC   NC345383   5.121  20.654   5.550
 6775POPC   PO445384   5.132  20.572   5.850
 6775POPC   GL145385   5.079  20.575   6.150
 6775POPC   GL245386   5.059  20.521   6.150
 6775POPC   C1A45387   5.052  20.569   6.450
 6775POPC   D2A45388   5.109  20.658   6.750
 6775POPC   C3A45389   5.047  20.596   7.050
 6775POPC   C4A45390   5.047  20.617   7.350
 6775POPC   C1B45391   4.989  20.348   6.450
 6775POPC   C2B45392   5.043  20.379   6.750
 6775POPC   C3B45393   4.988  20.328   7.050
 6775POPC   C4B45394   5.050  20.364   7.350
 6776POPC   NC345395   1.957  32.296   5.550
 6776POPC   PO445396   2.006  32.234   5.850
 6776POPC   GL145397   2.021  32.266   6.150
 6776POPC   GL245398   1.833  32.175   6.150
 6776POPC   C1A45399   1.996  32.261   6.450
 6776POPC   D2A45400   2.020  32.234   6.750
 6776POPC   C3A45401   2.011  32.250   7.050
 6776POPC   C4A45402   1.978  32.261   7.350
 6776POPC   C1B45403   1.711  32.169   6.450
 6776POPC   C2B45404   1.736  32.232   6.750
 6776POPC   C3B45405   1.784  32.153   7.050
 6776POPC   C4B45406   1.739  32.232   7.350
 6777POPC   NC345407   2.741  27.558   5.550
 6777POPC   PO445408   2.774  27.561   5.850
 6777POPC   GL145409   2.734  27.581   6.150
 6777POPC   GL245410   2.785  27.758   6.150
 6777POPC   C1A45411   2.720  27.557   6.450
 6777POPC   D2A45412   2.770  27.580   6.750
 6777POPC   C3A45413   2.795  27.631   7.050
 6777POPC   C4A45414   2.753  27.578   7.350
 6777POPC   C1B45415   2.661  27.851   6.450
 6777POPC   C2B45416   2.703  27.820   6.750
 6777POPC   C3B45417   2.726  27.825   7.050
 6777POPC   C4B45418   2.671  27.811   7.350
 6778POPC   NC345419  43.837  15.996   5.550
 6778POPC   PO445420  43.910  15.984   5.850
 6778POPC   GL145421  43.839  15.951   6.150
 6778POPC   GL245422  43.793  16.078   6.150
 6778POPC   C1A45423  43.870  15.908   6.450
 6778POPC   D2A45424  43.930  15.988   6.750
 6778POPC   C3A45425  43.878  15.957   7.050
 6778POPC   C4A45426  43.893  15.926   7.350
 6778POPC   C1B45427  43.695  16.150   6.450
 6778POPC   C2B45428  43.739  16.202   6.750
 6778POPC   C3B45429  43.751  16.114   7.050
 6778POPC   C4B45430  43.731  16.118   7.350
 6779POPC   NC345431  44.636  25.312   5.550
 6779POPC   PO445432  44.660  25.271   5.850
 6779POPC   GL145433  44.686  25.285   6.150
 6779POPC   GL245434  44.684  25.408   6.150
 6779POPC   C1A45435  44.620  25.248   6.450
 6779POPC   D2A45436  44.650  25.260   6.750
 6779POPC   C3A45437  44.693  25.296   7.050
 6779POPC   C4A45438  44.656  25.274   7.350
 6779POPC   C1B45439  44.801  25.452   6.450
 6779POPC   C2B45440  44.778  25.499   6.750
 6779POPC   C3B45441  44.779  25.459   7.050
 6779POPC   C4B45442  44.802  25.445   7.350
 6780POPC   NC345443   9.702  43.862   5.550
 6780POPC   PO445444   9.732  43.882   5.850
 6780POPC   GL145445   9.747  43.869   6.150
 6780POPC   GL245446   9.640  43.859   6.150
 6780POPC   C1A45447   9.779  43.911   6.450
 6780POPC   D2A45448   9.771  43.891   6.750
 6780POPC   C3A45449   9.712  43.839   7.050
 6780POPC   C4A45450   9.724  43.888   7.350
 6780POPC   C1B45451   9.503  43.868   6.450
 6780POPC   C2B45452   9.486  43.916   6.750
 6780POPC   C3B45453   9.477  43.927   7.050
 6780POPC   C4B45454   9.544  43.909   7.350
 6781POPC   NC345455  29.882  17.458   5.550
 6781POPC   PO445456  29.919  17.466   5.850
 6781POPC   GL145457  29.924  17.459   6.150
 6781POPC   GL245458  29.875  17.651   6.150
 6781POPC   C1A45459  29.914  17.464   6.450
 6781POPC   D2A45460  29.895  17.494   6.750
 6781POPC   C3A45461  29.948  17.494   7.050
 6781POPC   C4A45462  29.943  17.491   7.350
 6781POPC   C1B45463  29.769  17.760   6.450
 6781POPC   C2B45464  29.795  17.681   6.750
 6781POPC   C3B45465  29.748  17.724   7.050
 6781POPC   C4B45466  29.757  17.712   7.350
 6782POPC   NC345467  33.058  12.863   5.550
 6782POPC   PO445468  32.980  12.886   5.850
 6782POPC   GL145469  33.072  12.805   6.150
 6782POPC   GL245470  33.016  12.988   6.150
 6782POPC   C1A45471  33.006  12.854   6.450
 6782POPC   D2A45472  32.979  12.837   6.750
 6782POPC   C3A45473  33.017  12.833   7.050
 6782POPC   C4A45474  32.978  12.802   7.350
 6782POPC   C1B45475  32.955  13.128   6.450
 6782POPC   C2B45476  32.969  13.125   6.750
 6782POPC   C3B45477  33.026  13.113   7.050
 6782POPC   C4B45478  33.036  13.069   7.350
 6783POPC   NC345479   1.247  43.887   5.550
 6783POPC   PO445480   1.193  43.888   5.850
 6783POPC   GL145481   1.215  43.903   6.150
 6783POPC   GL245482   1.267  43.986   6.150
 6783POPC   C1A45483   1.198  43.895   6.450
 6783POPC   D2A45484   1.252  43.926   6.750
 6783POPC   C3A45485   1.206  43.855   7.050
 6783POPC   C4A45486   1.222  43.844   7.350
 6783POPC   C1B45487   1.424  44.038   6.450
 6783POPC   C2B45488   1.374  44.073   6.750
 6783POPC   C3B45489   1.416  44.001   7.050
 6783POPC   C4B45490   1.437  44.023   7.350
 6784POPC   NC345491  40.002   8.201   5.550
 6784POPC   PO445492  39.966   8.212   5.850
 6784POPC   GL145493  39.993   8.170   6.150
 6784POPC   GL245494  40.091   8.236   6.150
 6784POPC   C1A45495  40.042   8.239   6.450
 6784POPC   D2A45496  40.039   8.230   6.750
 6784POPC   C3A45497  40.035   8.229   7.050
 6784POPC   C4A45498  39.990   8.189   7.350
 6784POPC   C1B45499  40.228   8.219   6.450
 6784POPC   C2B45500  40.205   8.262   6.750
 6784POPC   C3B45501  40.208   8.248   7.050
 6784POPC   C4B45502  40.248   8.268   7.350
 6785POPC   NC345503  12.083   0.405   5.550
 6785POPC   PO445504  12.077   0.485   5.850
 6785POPC   GL145505  12.076   0.487   6.150
 6785POPC   GL245506  11.954   0.521   6.150
 6785POPC   C1A45507  12.082   0.476   6.450
 6785POPC   D2A45508  12.064   0.415   6.750
 6785POPC   C3A45509  12.058   0.441   7.050
 6785POPC   C4A45510  12.074   0.404   7.350
 6785POPC   C1B45511  11.941   0.679   6.450
 6785POPC   C2B45512  11.885   0.590   6.750
 6785POPC   C3B45513  11.968   0.668   7.050
 6785POPC   C4B45514  11.965   0.637   7.350
 6786POPC   NC345515  32.277   6.680   5.550
 6786POPC   PO445516  32.232   6.622   5.850
 6786POPC   GL145517  32.203   6.678   6.150
 6786POPC   GL245518  32.263   6.764   6.150
 6786POPC   C1A45519  32.221   6.620   6.450
 6786POPC   D2A45520  32.220   6.620   6.750
 6786POPC   C3A45521  32.258   6.681   7.050
 6786POPC   C4A45522  32.247   6.648   7.350
 6786POPC   C1B45523  32.279   6.908   6.450
 6786POPC   C2B45524  32.324   6.854   6.750
 6786POPC   C3B45525  32.327   6.909   7.050
 6786POPC   C4B45526  32.297   6.886   7.350
 6787POPC   NC345527  19.039  29.893   5.550
 6787POPC   PO445528  19.081  29.906   5.850
 6787POPC   GL145529  19.037  29.898   6.150
 6787POPC   GL245530  19.067  29.777   6.150
 6787POPC   C1A45531  19.015  29.954   6.450
 6787POPC   D2A45532  19.057  29.916   6.750
 6787POPC   C3A45533  19.104  29.934   7.050
 6787POPC   C4A45534  19.067  29.953   7.350
 6787POPC   C1B45535  19.137  29.650   6.450
 6787POPC   C2B45536  19.045  29.643   6.750
 6787POPC   C3B45537  19.071  29.675   7.050
 6787POPC   C4B45538  19.079  29.632   7.350
 6788POPC   NC345539  17.525   6.630   5.550
 6788POPC   PO445540  17.461   6.665   5.850
 6788POPC   GL145541  17.555   6.598   6.150
 6788POPC   GL245542  17.343   6.632   6.150
 6788POPC   C1A45543  17.527   6.675   6.450
 6788POPC   D2A45544  17.484   6.601   6.750
 6788POPC   C3A45545  17.494   6.625   7.050
 6788POPC   C4A45546  17.503   6.605   7.350
 6788POPC   C1B45547  17.255   6.738   6.450
 6788POPC   C2B45548  17.229   6.693   6.750
 6788POPC   C3B45549  17.292   6.665   7.050
 6788POPC   C4B45550  17.230   6.724   7.350
 6789POPC   NC345551  21.429  33.809   5.550
 6789POPC   PO445552  21.411  33.767   5.850
 6789POPC   GL145553  21.379  33.817   6.150
 6789POPC   GL245554  21.393  33.944   6.150
 6789POPC   C1A45555  21.421  33.784   6.450
 6789POPC   D2A45556  21.396  33.821   6.750
 6789POPC   C3A45557  21.426  33.814   7.050
 6789POPC   C4A45558  21.369  33.837   7.350
 6789POPC   C1B45559  21.326  34.073   6.450
 6789POPC   C2B45560  21.334  34.018   6.750
 6789POPC   C3B45561  21.394  34.021   7.050
 6789POPC   C4B45562  21.386  34.034   7.350
 6790POPC   NC345563  23.687   5.130   5.550
 6790POPC   PO445564  23.699   5.140   5.850
 6790POPC   GL145565  23.687   5.090   6.150
 6790POPC   GL245566  23.797   4.997   6.150
 6790POPC   C1A45567  23.705   5.054   6.450
 6790POPC   D2A45568  23.682   5.121   6.750
 6790POPC   C3A45569  23.754   5.111   7.050
 6790POPC   C4A45570  23.755   5.081   7.350
 6790POPC   C1B45571  23.910   4.930   6.450
 6790POPC   C2B45572  23.934   5.000   6.750
 6790POPC   C3B45573  23.954   4.957   7.050
 6790POPC   C4B45574  23.939   4.941   7.350
 6791POPC   NC345575   0.407   3.496   5.550
 6791POPC   PO445576   0.461   3.532   5.850
 6791POPC   GL145577   0.444   3.509   6.150
 6791POPC   GL245578   0.354   3.615   6.150
 6791POPC   C1A45579   0.404   3.522   6.450
 6791POPC   D2A45580   0.412   3.509   6.750
 6791POPC   C3A45581   0.390   3.575   7.050
 6791POPC   C4A45582   0.474   3.542   7.350
 6791POPC   C1B45583   0.351   3.751   6.450
 6791POPC   C2B45584   0.346   3.787   6.750
 6791POPC   C3B45585   0.331   3.816   7.050
 6791POPC   C4B45586   0.340   3.730   7.350
 6792POPC   NC345587  33.837  27.577   5.550
 6792POPC   PO445588  33.817  27.616   5.850
 6792POPC   GL145589  33.820  27.582   6.150
 6792POPC   GL245590  33.904  27.586   6.150
 6792POPC   C1A45591  33.762  27.586   6.450
 6792POPC   D2A45592  33.769  27.550   6.750
 6792POPC   C3A45593  33.823  27.558   7.050
 6792POPC   C4A45594  33.818  27.612   7.350
 6792POPC   C1B45595  34.027  27.663   6.450
 6792POPC   C2B45596  34.020  27.659   6.750
 6792POPC   C3B45597  34.086  27.642   7.050
 6792POPC   C4B45598  34.021  27.613   7.350
 6793POPC   NC345599   7.457  36.132   5.550
 6793POPC   PO445600   7.441  36.124   5.850
 6793POPC   GL145601   7.440  36.177   6.150
 6793POPC   GL245602   7.373  36.165   6.150
 6793POPC   C1A45603   7.382  36.133   6.450
 6793POPC   D2A45604   7.430  36.156   6.750
 6793POPC   C3A45605   7.469  36.145   7.050
 6793POPC   C4A45606   7.436  36.166   7.350
 6793POPC   C1B45607   7.281  36.328   6.450
 6793POPC   C2B45608   7.205  36.338   6.750
 6793POPC   C3B45609   7.226  36.263   7.050
 6793POPC   C4B45610   7.247  36.344   7.350
 6794POPC   NC345611   8.928   5.902   5.550
 6794POPC   PO445612   9.009   5.827   5.850
 6794POPC   GL145613   8.964   5.876   6.150
 6794POPC   GL245614   8.955   5.755   6.150
 6794POPC   C1A45615   8.992   5.876   6.450
 6794POPC   D2A45616   8.935   5.843   6.750
 6794POPC   C3A45617   8.985   5.846   7.050
 6794POPC   C4A45618   8.946   5.907   7.350
 6794POPC   C1B45619   8.900   5.662   6.450
 6794POPC   C2B45620   8.872   5.608   6.750
 6794POPC   C3B45621   8.917   5.667   7.050
 6794POPC   C4B45622   8.918   5.608   7.350
 6795POPC   NC345623  20.620  44.635   5.550
 6795POPC   PO445624  20.636  44.705   5.850
 6795POPC   GL145625  20.580  44.683   6.150
 6795POPC   GL245626  20.554  44.586   6.150
 6795POPC   C1A45627  20.629  44.636   6.450
 6795POPC   D2A45628  20.570  44.683   6.750
 6795POPC   C3A45629  20.627  44.644   7.050
 6795POPC   C4A45630  20.609  44.673   7.350
 6795POPC   C1B45631  20.410  44.493   6.450
 6795POPC   C2B45632  20.427  44.517   6.750
 6795POPC   C3B45633  20.462  44.493   7.050
 6795POPC   C4B45634  20.424  44.481   7.350
 6796POPC   NC345635  18.317  10.553   5.550
 6796POPC   PO445636  18.277  10.497   5.850
 6796POPC   GL145637  18.265  10.530   6.150
 6796POPC   GL245638  18.121  10.570   6.150
 6796POPC   C1A45639  18.243  10.492   6.450
 6796POPC   D2A45640  18.314  10.530   6.750
 6796POPC   C3A45641  18.313  10.518   7.050
 6796POPC   C4A45642  18.249  10.505   7.350
 6796POPC   C1B45643  18.043  10.592   6.450
 6796POPC   C2B45644  18.016  10.584   6.750
 6796POPC   C3B45645  18.092  10.631   7.050
 6796POPC   C4B45646  18.078  10.607   7.350
 6797POPC   NC345647  43.121  36.129   5.550
 6797POPC   PO445648  43.093  36.079   5.850
 6797POPC   GL145649  43.074  36.171   6.150
 6797POPC   GL245650  43.049  35.980   6.150
 6797POPC   C1A45651  43.155  36.160   6.450
 6797POPC   D2A45652  43.096  36.103   6.750
 6797POPC   C3A45653  43.123  36.176   7.050
 6797POPC   C4A45654  43.092  36.124   7.350
 6797POPC   C1B45655  42.941  35.900   6.450
 6797POPC   C2B45656  42.974  35.878   6.750
 6797POPC   C3B45657  42.934  35.914   7.050
 6797POPC   C4B45658  42.930  35.950   7.350
 6798POPC   NC345659  36.148  23.681   5.550
 6798POPC   PO445660  36.149  23.688   5.850
 6798POPC   GL145661  36.105  23.761   6.150
 6798POPC   GL245662  36.005  23.611   6.150
 6798POPC   C1A45663  36.111  23.668   6.450
 6798POPC   D2A45664  36.079  23.690   6.750
 6798POPC   C3A45665  36.089  23.680   7.050
 6798POPC   C4A45666  36.088  23.744   7.350
 6798POPC   C1B45667  35.961  23.491   6.450
 6798POPC   C2B45668  36.009  23.560   6.750
 6798POPC   C3B45669  35.972  23.540   7.050
 6798POPC   C4B45670  36.020  23.542   7.350
 6799POPC   NC345671  43.108  35.319   5.550
 6799POPC   PO445672  43.151  35.304   5.850
 6799POPC   GL145673  43.095  35.385   6.150
 6799POPC   GL245674  43.023  35.508   6.150
 6799POPC   C1A45675  43.133  35.343   6.450
 6799POPC   D2A45676  43.102  35.343   6.750
 6799POPC   C3A45677  43.076  35.335   7.050
 6799POPC   C4A45678  43.118  35.329   7.350
 6799POPC   C1B45679  43.073  35.560   6.450
 6799POPC   C2B45680  42.991  35.610   6.750
 6799POPC   C3B45681  43.009  35.580   7.050
 6799POPC   C4B45682  43.008  35.550   7.350
 6800POPC   NC345683  31.455   0.427   5.550
 6800POPC   PO445684  31.429   0.422   5.850
 6800POPC   GL145685  31.435   0.409   6.150
 6800POPC   GL245686  31.589   0.396   6.150
 6800POPC   C1A45687  31.457   0.402   6.450
 6800POPC   D2A45688  31.475   0.480   6.750
 6800POPC   C3A45689  31.467   0.434   7.050
 6800POPC   C4A45690  31.471   0.460   7.350
 6800POPC   C1B45691  31.674   0.388   6.450
 6800POPC   C2B45692  31.690   0.441   6.750
 6800POPC   C3B45693  31.679   0.384   7.050
 6800POPC   C4B45694  31.698   0.432   7.350
 6801POPC   NC345695  27.593   9.003   5.550
 6801POPC   PO445696  27.570   9.013   5.850
 6801POPC   GL145697  27.616   8.968   6.150
 6801POPC   GL245698  27.676   9.001   6.150
 6801POPC   C1A45699  27.545   8.939   6.450
 6801POPC   D2A45700  27.614   9.016   6.750
 6801POPC   C3A45701  27.569   9.019   7.050
 6801POPC   C4A45702  27.638   8.942   7.350
 6801POPC   C1B45703  27.843   8.970   6.450
 6801POPC   C2B45704  27.860   8.971   6.750
 6801POPC   C3B45705  27.852   8.930   7.050
 6801POPC   C4B45706  27.860   8.960   7.350
 6802POPC   NC345707  13.650  26.007   5.550
 6802POPC   PO445708  13.581  26.014   5.850
 6802POPC   GL145709  13.645  25.998   6.150
 6802POPC   GL245710  13.607  25.893   6.150
 6802POPC   C1A45711  13.617  26.068   6.450
 6802POPC   D2A45712  13.586  26.013   6.750
 6802POPC   C3A45713  13.673  26.017   7.050
 6802POPC   C4A45714  13.603  26.006   7.350
 6802POPC   C1B45715  13.532  25.829   6.450
 6802POPC   C2B45716  13.507  25.792   6.750
 6802POPC   C3B45717  13.569  25.819   7.050
 6802POPC   C4B45718  13.579  25.825   7.350
 6803POPC   NC345719  34.555   1.235   5.550
 6803POPC   PO445720  34.614   1.257   5.850
 6803POPC   GL145721  34.545   1.171   6.150
 6803POPC   GL245722  34.630   1.292   6.150
 6803POPC   C1A45723  34.612   1.262   6.450
 6803POPC   D2A45724  34.562   1.233   6.750
 6803POPC   C3A45725  34.563   1.240   7.050
 6803POPC   C4A45726  34.607   1.216   7.350
 6803POPC   C1B45727  34.766   1.416   6.450
 6803POPC   C2B45728  34.704   1.405   6.750
 6803POPC   C3B45729  34.699   1.394   7.050
 6803POPC   C4B45730  34.687   1.413   7.350
 6804POPC   NC345731  21.380   4.322   5.550
 6804POPC   PO445732  21.402   4.363   5.850
 6804POPC   GL145733  21.404   4.311   6.150
 6804POPC   GL245734  21.477   4.249   6.150
 6804POPC   C1A45735  21.394   4.325   6.450
 6804POPC   D2A45736  21.386   4.342   6.750
 6804POPC   C3A45737  21.430   4.291   7.050
 6804POPC   C4A45738  21.339   4.300   7.350
 6804POPC   C1B45739  21.596   4.198   6.450
 6804POPC   C2B45740  21.576   4.192   6.750
 6804POPC   C3B45741  21.578   4.165   7.050
 6804POPC   C4B45742  21.581   4.169   7.350
 6805POPC   NC345743  28.334  15.914   5.550
 6805POPC   PO445744  28.334  15.942   5.850
 6805POPC   GL145745  28.370  15.973   6.150
 6805POPC   GL245746  28.309  15.883   6.150
 6805POPC   C1A45747  28.350  15.943   6.450
 6805POPC   D2A45748  28.393  15.924   6.750
 6805POPC   C3A45749  28.373  15.943   7.050
 6805POPC   C4A45750  28.354  15.923   7.350
 6805POPC   C1B45751  28.239  15.778   6.450
 6805POPC   C2B45752  28.275  15.741   6.750
 6805POPC   C3B45753  28.292  15.688   7.050
 6805POPC   C4B45754  28.296  15.699   7.350
 6806POPC   NC345755  27.633  17.494   5.550
 6806POPC   PO445756  27.621  17.543   5.850
 6806POPC   GL145757  27.630  17.532   6.150
 6806POPC   GL245758  27.590  17.419   6.150
 6806POPC   C1A45759  27.593  17.477   6.450
 6806POPC   D2A45760  27.574  17.483   6.750
 6806POPC   C3A45761  27.641  17.529   7.050
 6806POPC   C4A45762  27.586  17.490   7.350
 6806POPC   C1B45763  27.677  17.250   6.450
 6806POPC   C2B45764  27.641  17.238   6.750
 6806POPC   C3B45765  27.600  17.292   7.050
 6806POPC   C4B45766  27.688  17.266   7.350
 6807POPC   NC345767   9.752  28.352   5.550
 6807POPC   PO445768   9.769  28.412   5.850
 6807POPC   GL145769   9.743  28.406   6.150
 6807POPC   GL245770   9.630  28.431   6.150
 6807POPC   C1A45771   9.770  28.407   6.450
 6807POPC   D2A45772   9.734  28.345   6.750
 6807POPC   C3A45773   9.768  28.347   7.050
 6807POPC   C4A45774   9.778  28.330   7.350
 6807POPC   C1B45775   9.561  28.433   6.450
 6807POPC   C2B45776   9.534  28.415   6.750
 6807POPC   C3B45777   9.557  28.462   7.050
 6807POPC   C4B45778   9.482  28.417   7.350
 6808POPC   NC345779  36.925   8.231   5.550
 6808POPC   PO445780  36.902   8.209   5.850
 6808POPC   GL145781  36.910   8.149   6.150
 6808POPC   GL245782  36.974   8.054   6.150
 6808POPC   C1A45783  36.919   8.177   6.450
 6808POPC   D2A45784  36.928   8.155   6.750
 6808POPC   C3A45785  36.928   8.174   7.050
 6808POPC   C4A45786  36.868   8.158   7.350
 6808POPC   C1B45787  36.962   7.932   6.450
 6808POPC   C2B45788  36.964   7.926   6.750
 6808POPC   C3B45789  36.969   7.962   7.050
 6808POPC   C4B45790  36.937   7.958   7.350
 6809POPC   NC345791  22.118  28.346   5.550
 6809POPC   PO445792  22.173  28.414   5.850
 6809POPC   GL145793  22.207  28.353   6.150
 6809POPC   GL245794  22.009  28.470   6.150
 6809POPC   C1A45795  22.121  28.391   6.450
 6809POPC   D2A45796  22.145  28.414   6.750
 6809POPC   C3A45797  22.180  28.335   7.050
 6809POPC   C4A45798  22.128  28.342   7.350
 6809POPC   C1B45799  21.948  28.524   6.450
 6809POPC   C2B45800  21.967  28.533   6.750
 6809POPC   C3B45801  21.971  28.502   7.050
 6809POPC   C4B45802  21.929  28.471   7.350
 6810POPC   NC345803  40.044  38.478   5.550
 6810POPC   PO445804  40.014  38.441   5.850
 6810POPC   GL145805  40.022  38.434   6.150
 6810POPC   GL245806  40.132  38.520   6.150
 6810POPC   C1A45807  40.037  38.494   6.450
 6810POPC   D2A45808  39.995  38.501   6.750
 6810POPC   C3A45809  39.962  38.468   7.050
 6810POPC   C4A45810  40.044  38.484   7.350
 6810POPC   C1B45811  40.280  38.520   6.450
 6810POPC   C2B45812  40.212  38.591   6.750
 6810POPC   C3B45813  40.242  38.515   7.050
 6810POPC   C4B45814  40.238  38.562   7.350
 6811POPC   NC345815  19.845   4.300   5.550
 6811POPC   PO445816  19.883   4.282   5.850
 6811POPC   GL145817  19.832   4.332   6.150
 6811POPC   GL245818  19.932   4.369   6.150
 6811POPC   C1A45819  19.794   4.338   6.450
 6811POPC   D2A45820  19.786   4.339   6.750
 6811POPC   C3A45821  19.806   4.288   7.050
 6811POPC   C4A45822  19.861   4.335   7.350
 6811POPC   C1B45823  20.092   4.435   6.450
 6811POPC   C2B45824  20.052   4.459   6.750
 6811POPC   C3B45825  20.019   4.390   7.050
 6811POPC   C4B45826  20.101   4.414   7.350
 6812POPC   NC345827  33.843  33.819   5.550
 6812POPC   PO445828  33.760  33.771   5.850
 6812POPC   GL145829  33.785  33.800   6.150
 6812POPC   GL245830  33.829  33.643   6.150
 6812POPC   C1A45831  33.811  33.847   6.450
 6812POPC   D2A45832  33.825  33.751   6.750
 6812POPC   C3A45833  33.810  33.836   7.050
 6812POPC   C4A45834  33.775  33.818   7.350
 6812POPC   C1B45835  33.852  33.537   6.450
 6812POPC   C2B45836  33.937  33.573   6.750
 6812POPC   C3B45837  33.896  33.609   7.050
 6812POPC   C4B45838  33.850  33.584   7.350
 6813POPC   NC345839  15.201  41.561   5.550
 6813POPC   PO445840  15.225  41.510   5.850
 6813POPC   GL145841  15.180  41.591   6.150
 6813POPC   GL245842  15.179  41.636   6.150
 6813POPC   C1A45843  15.217  41.571   6.450
 6813POPC   D2A45844  15.194  41.544   6.750
 6813POPC   C3A45845  15.140  41.518   7.050
 6813POPC   C4A45846  15.152  41.567   7.350
 6813POPC   C1B45847  15.252  41.761   6.450
 6813POPC   C2B45848  15.234  41.754   6.750
 6813POPC   C3B45849  15.291  41.741   7.050
 6813POPC   C4B45850  15.255  41.770   7.350
 6814POPC   NC345851   1.963  44.685   5.550
 6814POPC   PO445852   1.970  44.701   5.850
 6814POPC   GL145853   1.955  44.698   6.150
 6814POPC   GL245854   2.105  44.708   6.150
 6814POPC   C1A45855   1.996  44.657   6.450
 6814POPC   D2A45856   1.943  44.699   6.750
 6814POPC   C3A45857   1.949  44.630   7.050
 6814POPC   C4A45858   1.997  44.623   7.350
 6814POPC   C1B45859   2.213  44.615   6.450
 6814POPC   C2B45860   2.203  44.609   6.750
 6814POPC   C3B45861   2.223  44.685   7.050
 6814POPC   C4B45862   2.253  44.648   7.350
 6815POPC   NC345863  35.395  13.636   5.550
 6815POPC   PO445864  35.385  13.643   5.850
 6815POPC   GL145865  35.391  13.661   6.150
 6815POPC   GL245866  35.298  13.516   6.150
 6815POPC   C1A45867  35.380  13.596   6.450
 6815POPC   D2A45868  35.303  13.673   6.750
 6815POPC   C3A45869  35.348  13.643   7.050
 6815POPC   C4A45870  35.381  13.671   7.350
 6815POPC   C1B45871  35.210  13.456   6.450
 6815POPC   C2B45872  35.188  13.405   6.750
 6815POPC   C3B45873  35.231  13.385   7.050
 6815POPC   C4B45874  35.163  13.473   7.350
 6816POPC   NC345875  26.029   5.087   5.550
 6816POPC   PO445876  26.038   5.109   5.850
 6816POPC   GL145877  26.041   5.064   6.150
 6816POPC   GL245878  26.022   4.927   6.150
 6816POPC   C1A45879  26.065   5.138   6.450
 6816POPC   D2A45880  25.999   5.134   6.750
 6816POPC   C3A45881  26.025   5.085   7.050
 6816POPC   C4A45882  26.082   5.065   7.350
 6816POPC   C1B45883  26.007   4.877   6.450
 6816POPC   C2B45884  26.008   4.803   6.750
 6816POPC   C3B45885  25.973   4.896   7.050
 6816POPC   C4B45886  25.961   4.866   7.350
 6817POPC   NC345887  11.332  24.451   5.550
 6817POPC   PO445888  11.251  24.511   5.850
 6817POPC   GL145889  11.320  24.487   6.150
 6817POPC   GL245890  11.209  24.424   6.150
 6817POPC   C1A45891  11.273  24.523   6.450
 6817POPC   D2A45892  11.335  24.446   6.750
 6817POPC   C3A45893  11.308  24.495   7.050
 6817POPC   C4A45894  11.321  24.516   7.350
 6817POPC   C1B45895  11.088  24.335   6.450
 6817POPC   C2B45896  11.131  24.305   6.750
 6817POPC   C3B45897  11.096  24.267   7.050
 6817POPC   C4B45898  11.101  24.259   7.350
 6818POPC   NC345899   9.787  22.163   5.550
 6818POPC   PO445900   9.718  22.171   5.850
 6818POPC   GL145901   9.769  22.140   6.150
 6818POPC   GL245902   9.790  22.048   6.150
 6818POPC   C1A45903   9.793  22.153   6.450
 6818POPC   D2A45904   9.765  22.141   6.750
 6818POPC   C3A45905   9.783  22.119   7.050
 6818POPC   C4A45906   9.783  22.201   7.350
 6818POPC   C1B45907   9.850  21.916   6.450
 6818POPC   C2B45908   9.872  21.981   6.750
 6818POPC   C3B45909   9.881  21.929   7.050
 6818POPC   C4B45910   9.919  21.903   7.350
 6819POPC   NC345911  32.997  22.987   5.550
 6819POPC   PO445912  33.040  22.900   5.850
 6819POPC   GL145913  32.975  22.921   6.150
 6819POPC   GL245914  32.890  23.053   6.150
 6819POPC   C1A45915  32.997  22.956   6.450
 6819POPC   D2A45916  33.011  22.954   6.750
 6819POPC   C3A45917  33.042  22.910   7.050
 6819POPC   C4A45918  33.006  22.934   7.350
 6819POPC   C1B45919  32.810  23.096   6.450
 6819POPC   C2B45920  32.884  23.125   6.750
 6819POPC   C3B45921  32.824  23.142   7.050
 6819POPC   C4B45922  32.801  23.114   7.350
 6820POPC   NC345923  44.668   0.432   5.550
 6820POPC   PO445924  44.652   0.474   5.850
 6820POPC   GL145925  44.703   0.462   6.150
 6820POPC   GL245926  44.593   0.395   6.150
 6820POPC   C1A45927  44.630   0.427   6.450
 6820POPC   D2A45928  44.701   0.472   6.750
 6820POPC   C3A45929  44.617   0.394   7.050
 6820POPC   C4A45930  44.630   0.433   7.350
 6820POPC   C1B45931  44.467   0.325   6.450
 6820POPC   C2B45932  44.434   0.335   6.750
 6820POPC   C3B45933  44.424   0.355   7.050
 6820POPC   C4B45934  44.383   0.301   7.350
 6821POPC   NC345935  18.253   1.218   5.550
 6821POPC   PO445936  18.332   1.177   5.850
 6821POPC   GL145937  18.319   1.246   6.150
 6821POPC   GL245938  18.180   1.195   6.150
 6821POPC   C1A45939  18.240   1.173   6.450
 6821POPC   D2A45940  18.267   1.254   6.750
 6821POPC   C3A45941  18.313   1.205   7.050
 6821POPC   C4A45942  18.276   1.185   7.350
 6821POPC   C1B45943  18.027   1.132   6.450
 6821POPC   C2B45944  18.038   1.107   6.750
 6821POPC   C3B45945  18.079   1.097   7.050
 6821POPC   C4B45946  18.020   1.105   7.350
 6822POPC   NC345947  43.921  31.425   5.550
 6822POPC   PO445948  43.846  31.506   5.850
 6822POPC   GL145949  43.889  31.520   6.150
 6822POPC   GL245950  43.915  31.568   6.150
 6822POPC   C1A45951  43.874  31.503   6.450
 6822POPC   D2A45952  43.877  31.431   6.750
 6822POPC   C3A45953  43.900  31.506   7.050
 6822POPC   C4A45954  43.934  31.493   7.350
 6822POPC   C1B45955  43.869  31.721   6.450
 6822POPC   C2B45956  43.892  31.751   6.750
 6822POPC   C3B45957  43.879  31.727   7.050
 6822POPC   C4B45958  43.845  31.709   7.350
 6823POPC   NC345959  30.714  15.942   5.550
 6823POPC   PO445960  30.741  15.979   5.850
 6823POPC   GL145961  30.717  15.918   6.150
 6823POPC   GL245962  30.810  16.112   6.150
 6823POPC   C1A45963  30.680  15.927   6.450
 6823POPC   D2A45964  30.663  15.956   6.750
 6823POPC   C3A45965  30.682  15.972   7.050
 6823POPC   C4A45966  30.701  15.939   7.350
 6823POPC   C1B45967  30.865  16.142   6.450
 6823POPC   C2B45968  30.818  16.220   6.750
 6823POPC   C3B45969  30.821  16.132   7.050
 6823POPC   C4B45970  30.795  16.123   7.350
 6824POPC   NC345971  30.695  19.788   5.550
 6824POPC   PO445972  30.677  19.843   5.850
 6824POPC   GL145973  30.647  19.851   6.150
 6824POPC   GL245974  30.552  19.843   6.150
 6824POPC   C1A45975  30.665  19.824   6.450
 6824POPC   D2A45976  30.658  19.833   6.750
 6824POPC   C3A45977  30.684  19.825   7.050
 6824POPC   C4A45978  30.737  19.832   7.350
 6824POPC   C1B45979  30.442  19.908   6.450
 6824POPC   C2B45980  30.418  19.872   6.750
 6824POPC   C3B45981  30.428  19.881   7.050
 6824POPC   C4B45982  30.451  19.887   7.350
 6825POPC   NC345983   4.355  19.017   5.550
 6825POPC   PO445984   4.276  19.050   5.850
 6825POPC   GL145985   4.357  19.015   6.150
 6825POPC   GL245986   4.215  19.126   6.150
 6825POPC   C1A45987   4.363  19.088   6.450
 6825POPC   D2A45988   4.277  19.065   6.750
 6825POPC   C3A45989   4.360  19.083   7.050
 6825POPC   C4A45990   4.308  19.068   7.350
 6825POPC   C1B45991   4.100  19.222   6.450
 6825POPC   C2B45992   4.106  19.228   6.750
 6825POPC   C3B45993   4.153  19.207   7.050
 6825POPC   C4B45994   4.093  19.223   7.350
 6826POPC   NC345995  16.702  41.598   5.550
 6826POPC   PO445996  16.780  41.524   5.850
 6826POPC   GL145997  16.723  41.554   6.150
 6826POPC   GL245998  16.823  41.462   6.150
 6826POPC   C1A45999  16.741  41.537   6.450
 6826POPC   D2A46000  16.755  41.569   6.750
 6826POPC   C3A46001  16.769  41.601   7.050
 6826POPC   C4A46002  16.685  41.509   7.350
 6826POPC   C1B46003  16.926  41.506   6.450
 6826POPC   C2B46004  16.945  41.448   6.750
 6826POPC   C3B46005  16.923  41.410   7.050
 6826POPC   C4B46006  16.971  41.503   7.350
 6827POPC   NC346007  32.200  37.676   5.550
 6827POPC   PO446008  32.273  37.708   5.850
 6827POPC   GL146009  32.215  37.669   6.150
 6827POPC   GL246010  32.226  37.588   6.150
 6827POPC   C1A46011  32.258  37.643   6.450
 6827POPC   D2A46012  32.280  37.645   6.750
 6827POPC   C3A46013  32.293  37.654   7.050
 6827POPC   C4A46014  32.224  37.698   7.350
 6827POPC   C1B46015  32.318  37.389   6.450
 6827POPC   C2B46016  32.299  37.451   6.750
 6827POPC   C3B46017  32.310  37.437   7.050
 6827POPC   C4B46018  32.257  37.468   7.350
 6828POPC   NC346019   4.362  20.575   5.550
 6828POPC   PO446020   4.276  20.591   5.850
 6828POPC   GL146021   4.336  20.647   6.150
 6828POPC   GL246022   4.200  20.583   6.150
 6828POPC   C1A46023   4.335  20.647   6.450
 6828POPC   D2A46024   4.352  20.587   6.750
 6828POPC   C3A46025   4.347  20.627   7.050
 6828POPC   C4A46026   4.355  20.624   7.350
 6828POPC   C1B46027   4.098  20.512   6.450
 6828POPC   C2B46028   4.100  20.470   6.750
 6828POPC   C3B46029   4.084  20.468   7.050
 6828POPC   C4B46030   4.097  20.426   7.350
 6829POPC   NC346031   6.600  35.354   5.550
 6829POPC   PO446032   6.663  35.327   5.850
 6829POPC   GL146033   6.690  35.355   6.150
 6829POPC   GL246034   6.782  35.330   6.150
 6829POPC   C1A46035   6.657  35.306   6.450
 6829POPC   D2A46036   6.600  35.320   6.750
 6829POPC   C3A46037   6.669  35.311   7.050
 6829POPC   C4A46038   6.677  35.350   7.350
 6829POPC   C1B46039   6.886  35.286   6.450
 6829POPC   C2B46040   6.913  35.309   6.750
 6829POPC   C3B46041   6.881  35.311   7.050
 6829POPC   C4B46042   6.896  35.275   7.350
 6830POPC   NC346043  32.234  15.181   5.550
 6830POPC   PO446044  32.286  15.150   5.850
 6830POPC   GL146045  32.288  15.225   6.150
 6830POPC   GL246046  32.277  15.007   6.150
 6830POPC   C1A46047  32.239  15.183   6.450
 6830POPC   D2A46048  32.229  15.173   6.750
 6830POPC   C3A46049  32.280  15.216   7.050
 6830POPC   C4A46050  32.289  15.195   7.350
 6830POPC   C1B46051  32.299  14.948   6.450
 6830POPC   C2B46052  32.239  14.892   6.750
 6830POPC   C3B46053  32.302  14.960   7.050
 6830POPC   C4B46054  32.323  14.936   7.350
 6831POPC   NC346055  41.597  10.546   5.550
 6831POPC   PO446056  41.605  10.522   5.850
 6831POPC   GL146057  41.546  10.516   6.150
 6831POPC   GL246058  41.554  10.652   6.150
 6831POPC   C1A46059  41.529  10.542   6.450
 6831POPC   D2A46060  41.608  10.553   6.750
 6831POPC   C3A46061  41.555  10.534   7.050
 6831POPC   C4A46062  41.539  10.475   7.350
 6831POPC   C1B46063  41.553  10.748   6.450
 6831POPC   C2B46064  41.638  10.795   6.750
 6831POPC   C3B46065  41.590  10.787   7.050
 6831POPC   C4B46066  41.570  10.795   7.350
 6832POPC   NC346067  37.705   8.168   5.550
 6832POPC   PO446068  37.675   8.194   5.850
 6832POPC   GL146069  37.711   8.239   6.150
 6832POPC   GL246070  37.807   8.216   6.150
 6832POPC   C1A46071  37.720   8.222   6.450
 6832POPC   D2A46072  37.630   8.151   6.750
 6832POPC   C3A46073  37.649   8.169   7.050
 6832POPC   C4A46074  37.716   8.208   7.350
 6832POPC   C1B46075  37.955   8.175   6.450
 6832POPC   C2B46076  37.889   8.147   6.750
 6832POPC   C3B46077  37.911   8.225   7.050
 6832POPC   C4B46078  37.971   8.229   7.350
 6833POPC   NC346079  19.032  27.575   5.550
 6833POPC   PO446080  19.052  27.572   5.850
 6833POPC   GL146081  19.042  27.616   6.150
 6833POPC   GL246082  19.149  27.524   6.150
 6833POPC   C1A46083  19.106  27.561   6.450
 6833POPC   D2A46084  19.063  27.564   6.750
 6833POPC   C3A46085  19.044  27.602   7.050
 6833POPC   C4A46086  19.041  27.588   7.350
 6833POPC   C1B46087  19.251  27.437   6.450
 6833POPC   C2B46088  19.276  27.490   6.750
 6833POPC   C3B46089  19.302  27.451   7.050
 6833POPC   C4B46090  19.263  27.519   7.350
 6834POPC   NC346091   8.163  19.085   5.550
 6834POPC   PO446092   8.209  19.017   5.850
 6834POPC   GL146093   8.213  19.073   6.150
 6834POPC   GL246094   8.308  18.957   6.150
 6834POPC   C1A46095   8.173  19.045   6.450
 6834POPC   D2A46096   8.151  19.089   6.750
 6834POPC   C3A46097   8.152  19.071   7.050
 6834POPC   C4A46098   8.214  19.015   7.350
 6834POPC   C1B46099   8.442  18.939   6.450
 6834POPC   C2B46100   8.457  18.915   6.750
 6834POPC   C3B46101   8.371  18.901   7.050
 6834POPC   C4B46102   8.367  18.941   7.350
 6835POPC   NC346103   3.541  37.667   5.550
 6835POPC   PO446104   3.516  37.694   5.850
 6835POPC   GL146105   3.577  37.695   6.150
 6835POPC   GL246106   3.513  37.605   6.150
 6835POPC   C1A46107   3.543  37.684   6.450
 6835POPC   D2A46108   3.581  37.701   6.750
 6835POPC   C3A46109   3.523  37.641   7.050
 6835POPC   C4A46110   3.583  37.641   7.350
 6835POPC   C1B46111   3.464  37.492   6.450
 6835POPC   C2B46112   3.412  37.419   6.750
 6835POPC   C3B46113   3.388  37.444   7.050
 6835POPC   C4B46114   3.437  37.448   7.350
 6836POPC   NC346115  32.997  22.206   5.550
 6836POPC   PO446116  32.984  22.135   5.850
 6836POPC   GL146117  33.032  22.198   6.150
 6836POPC   GL246118  33.056  22.315   6.150
 6836POPC   C1A46119  33.011  22.147   6.450
 6836POPC   D2A46120  32.975  22.136   6.750
 6836POPC   C3A46121  33.044  22.135   7.050
 6836POPC   C4A46122  32.975  22.187   7.350
 6836POPC   C1B46123  33.099  22.395   6.450
 6836POPC   C2B46124  33.071  22.422   6.750
 6836POPC   C3B46125  33.051  22.383   7.050
 6836POPC   C4B46126  33.075  22.387   7.350
 6837POPC   NC346127  21.424   5.072   5.550
 6837POPC   PO446128  21.364   5.142   5.850
 6837POPC   GL146129  21.344   5.044   6.150
 6837POPC   GL246130  21.471   5.074   6.150
 6837POPC   C1A46131  21.401   5.091   6.450
 6837POPC   D2A46132  21.416   5.081   6.750
 6837POPC   C3A46133  21.359   5.110   7.050
 6837POPC   C4A46134  21.351   5.076   7.350
 6837POPC   C1B46135  21.628   4.996   6.450
 6837POPC   C2B46136  21.645   5.038   6.750
 6837POPC   C3B46137  21.619   5.030   7.050
 6837POPC   C4B46138  21.671   5.017   7.350
 6838POPC   NC346139  42.371  35.348   5.550
 6838POPC   PO446140  42.352  35.381   5.850
 6838POPC   GL146141  42.314  35.318   6.150
 6838POPC   GL246142  42.486  35.380   6.150
 6838POPC   C1A46143  42.373  35.341   6.450
 6838POPC   D2A46144  42.336  35.322   6.750
 6838POPC   C3A46145  42.357  35.311   7.050
 6838POPC   C4A46146  42.313  35.311   7.350
 6838POPC   C1B46147  42.613  35.422   6.450
 6838POPC   C2B46148  42.540  35.328   6.750
 6838POPC   C3B46149  42.625  35.362   7.050
 6838POPC   C4B46150  42.627  35.376   7.350
 6839POPC   NC346151  31.467  26.018   5.550
 6839POPC   PO446152  31.437  26.086   5.850
 6839POPC   GL146153  31.495  25.997   6.150
 6839POPC   GL246154  31.344  26.156   6.150
 6839POPC   C1A46155  31.428  26.035   6.450
 6839POPC   D2A46156  31.447  26.057   6.750
 6839POPC   C3A46157  31.499  26.032   7.050
 6839POPC   C4A46158  31.481  26.003   7.350
 6839POPC   C1B46159  31.297  26.212   6.450
 6839POPC   C2B46160  31.287  26.220   6.750
 6839POPC   C3B46161  31.296  26.221   7.050
 6839POPC   C4B46162  31.346  26.224   7.350
 6840POPC   NC346163  27.612  24.535   5.550
 6840POPC   PO446164  27.604  24.487   5.850
 6840POPC   GL146165  27.585  24.466   6.150
 6840POPC   GL246166  27.671  24.466   6.150
 6840POPC   C1A46167  27.596  24.529   6.450
 6840POPC   D2A46168  27.548  24.531   6.750
 6840POPC   C3A46169  27.603  24.482   7.050
 6840POPC   C4A46170  27.588  24.505   7.350
 6840POPC   C1B46171  27.781  24.372   6.450
 6840POPC   C2B46172  27.808  24.386   6.750
 6840POPC   C3B46173  27.787  24.441   7.050
 6840POPC   C4B46174  27.787  24.386   7.350
 6841POPC   NC346175   8.173  19.791   5.550
 6841POPC   PO446176   8.195  19.815   5.850
 6841POPC   GL146177   8.175  19.862   6.150
 6841POPC   GL246178   8.182  19.990   6.150
 6841POPC   C1A46179   8.158  19.799   6.450
 6841POPC   D2A46180   8.178  19.850   6.750
 6841POPC   C3A46181   8.210  19.806   7.050
 6841POPC   C4A46182   8.179  19.835   7.350
 6841POPC   C1B46183   8.037  20.079   6.450
 6841POPC   C2B46184   8.029  20.002   6.750
 6841POPC   C3B46185   8.052  20.069   7.050
 6841POPC   C4B46186   8.087  20.037   7.350
 6842POPC   NC346187  33.768   5.067   5.550
 6842POPC   PO446188  33.768   5.126   5.850
 6842POPC   GL146189  33.815   5.056   6.150
 6842POPC   GL246190  33.796   5.190   6.150
 6842POPC   C1A46191  33.792   5.086   6.450
 6842POPC   D2A46192  33.781   5.069   6.750
 6842POPC   C3A46193  33.761   5.105   7.050
 6842POPC   C4A46194  33.757   5.051   7.350
 6842POPC   C1B46195  33.699   5.310   6.450
 6842POPC   C2B46196  33.719   5.330   6.750
 6842POPC   C3B46197  33.749   5.324   7.050
 6842POPC   C4B46198  33.733   5.372   7.350
 6843POPC   NC346199  12.858   0.451   5.550
 6843POPC   PO446200  12.844   0.473   5.850
 6843POPC   GL146201  12.812   0.439   6.150
 6843POPC   GL246202  12.861   0.534   6.150
 6843POPC   C1A46203  12.830   0.448   6.450
 6843POPC   D2A46204  12.862   0.444   6.750
 6843POPC   C3A46205  12.835   0.463   7.050
 6843POPC   C4A46206  12.831   0.473   7.350
 6843POPC   C1B46207  12.917   0.655   6.450
 6843POPC   C2B46208  12.967   0.709   6.750
 6843POPC   C3B46209  12.929   0.659   7.050
 6843POPC   C4B46210  12.941   0.678   7.350
 6844POPC   NC346211  40.768  30.676   5.550
 6844POPC   PO446212  40.797  30.709   5.850
 6844POPC   GL146213  40.824  30.649   6.150
 6844POPC   GL246214  40.868  30.603   6.150
 6844POPC   C1A46215  40.826  30.704   6.450
 6844POPC   D2A46216  40.773  30.681   6.750
 6844POPC   C3A46217  40.743  30.654   7.050
 6844POPC   C4A46218  40.800  30.671   7.350
 6844POPC   C1B46219  40.983  30.531   6.450
 6844POPC   C2B46220  40.955  30.558   6.750
 6844POPC   C3B46221  40.967  30.479   7.050
 6844POPC   C4B46222  40.956  30.526   7.350
 6845POPC   NC346223   7.403  20.578   5.550
 6845POPC   PO446224   7.427  20.655   5.850
 6845POPC   GL146225   7.402  20.602   6.150
 6845POPC   GL246226   7.531  20.483   6.150
 6845POPC   C1A46227   7.469  20.616   6.450
 6845POPC   D2A46228   7.389  20.657   6.750
 6845POPC   C3A46229   7.442  20.570   7.050
 6845POPC   C4A46230   7.396  20.564   7.350
 6845POPC   C1B46231   7.601  20.389   6.450
 6845POPC   C2B46232   7.608  20.385   6.750
 6845POPC   C3B46233   7.590  20.426   7.050
 6845POPC   C4B46234   7.604  20.387   7.350
 6846POPC   NC346235   1.220  44.621   5.550
 6846POPC   PO446236   1.210  44.617   5.850
 6846POPC   GL146237   1.215  44.640   6.150
 6846POPC   GL246238   1.314  44.599   6.150
 6846POPC   C1A46239   1.260  44.662   6.450
 6846POPC   D2A46240   1.223  44.668   6.750
 6846POPC   C3A46241   1.221  44.646   7.050
 6846POPC   C4A46242   1.178  44.711   7.350
 6846POPC   C1B46243   1.465  44.512   6.450
 6846POPC   C2B46244   1.404  44.573   6.750
 6846POPC   C3B46245   1.477  44.501   7.050
 6846POPC   C4B46246   1.462  44.508   7.350
 6847POPC   NC346247  13.653  17.502   5.550
 6847POPC   PO446248  13.676  17.468   5.850
 6847POPC   GL146249  13.601  17.542   6.150
 6847POPC   GL246250  13.499  17.535   6.150
 6847POPC   C1A46251  13.606  17.463   6.450
 6847POPC   D2A46252  13.584  17.489   6.750
 6847POPC   C3A46253  13.609  17.480   7.050
 6847POPC   C4A46254  13.658  17.463   7.350
 6847POPC   C1B46255  13.434  17.541   6.450
 6847POPC   C2B46256  13.406  17.606   6.750
 6847POPC   C3B46257  13.365  17.623   7.050
 6847POPC   C4B46258  13.395  17.613   7.350
 6848POPC   NC346259   4.300   5.831   5.550
 6848POPC   PO446260   4.285   5.858   5.850
 6848POPC   GL146261   4.299   5.837   6.150
 6848POPC   GL246262   4.483   5.880   6.150
 6848POPC   C1A46263   4.329   5.826   6.450
 6848POPC   D2A46264   4.351   5.820   6.750
 6848POPC   C3A46265   4.355   5.884   7.050
 6848POPC   C4A46266   4.360   5.874   7.350
 6848POPC   C1B46267   4.551   5.804   6.450
 6848POPC   C2B46268   4.536   5.803   6.750
 6848POPC   C3B46269   4.572   5.849   7.050
 6848POPC   C4B46270   4.605   5.804   7.350
 6849POPC   NC346271  37.705   3.559   5.550
 6849POPC   PO446272  37.688   3.535   5.850
 6849POPC   GL146273  37.728   3.584   6.150
 6849POPC   GL246274  37.579   3.593   6.150
 6849POPC   C1A46275  37.692   3.500   6.450
 6849POPC   D2A46276  37.669   3.575   6.750
 6849POPC   C3A46277  37.635   3.508   7.050
 6849POPC   C4A46278  37.723   3.549   7.350
 6849POPC   C1B46279  37.536   3.765   6.450
 6849POPC   C2B46280  37.504   3.709   6.750
 6849POPC   C3B46281  37.543   3.773   7.050
 6849POPC   C4B46282  37.526   3.781   7.350
 6850POPC   NC346283  40.049   9.751   5.550
 6850POPC   PO446284  39.993   9.773   5.850
 6850POPC   GL146285  39.996   9.752   6.150
 6850POPC   GL246286  39.905   9.877   6.150
 6850POPC   C1A46287  40.041   9.714   6.450
 6850POPC   D2A46288  39.985   9.756   6.750
 6850POPC   C3A46289  40.007   9.774   7.050
 6850POPC   C4A46290  40.001   9.745   7.350
 6850POPC   C1B46291  39.838   9.935   6.450
 6850POPC   C2B46292  39.864   9.916   6.750
 6850POPC   C3B46293  39.864   9.907   7.050
 6850POPC   C4B46294  39.880   9.943   7.350
 6851POPC   NC346295   0.418  31.502   5.550
 6851POPC   PO446296   0.395  31.469   5.850
 6851POPC   GL146297   0.422  31.458   6.150
 6851POPC   GL246298   0.344  31.506   6.150
 6851POPC   C1A46299   0.417  31.435   6.450
 6851POPC   D2A46300   0.447  31.432   6.750
 6851POPC   C3A46301   0.421  31.519   7.050
 6851POPC   C4A46302   0.421  31.427   7.350
 6851POPC   C1B46303   0.158  31.408   6.450
 6851POPC   C2B46304   0.236  31.423   6.750
 6851POPC   C3B46305   0.191  31.446   7.050
 6851POPC   C4B46306   0.162  31.459   7.350
 6852POPC   NC346307  19.069  41.575   5.550
 6852POPC   PO446308  19.031  41.529   5.850
 6852POPC   GL146309  19.083  41.569   6.150
 6852POPC   GL246310  18.986  41.657   6.150
 6852POPC   C1A46311  19.036  41.523   6.450
 6852POPC   D2A46312  19.022  41.531   6.750
 6852POPC   C3A46313  19.015  41.575   7.050
 6852POPC   C4A46314  19.017  41.534   7.350
 6852POPC   C1B46315  18.999  41.829   6.450
 6852POPC   C2B46316  18.990  41.814   6.750
 6852POPC   C3B46317  18.988  41.764   7.050
 6852POPC   C4B46318  18.942  41.824   7.350
 6853POPC   NC346319  10.480  31.425   5.550
 6853POPC   PO446320  10.547  31.438   5.850
 6853POPC   GL146321  10.550  31.476   6.150
 6853POPC   GL246322  10.374  31.410   6.150
 6853POPC   C1A46323  10.513  31.475   6.450
 6853POPC   D2A46324  10.484  31.510   6.750
 6853POPC   C3A46325  10.565  31.439   7.050
 6853POPC   C4A46326  10.504  31.515   7.350
 6853POPC   C1B46327  10.273  31.353   6.450
 6853POPC   C2B46328  10.328  31.374   6.750
 6853POPC   C3B46329  10.274  31.299   7.050
 6853POPC   C4B46330  10.356  31.391   7.350
 6854POPC   NC346331  33.039  31.492   5.550
 6854POPC   PO446332  32.992  31.521   5.850
 6854POPC   GL146333  32.978  31.522   6.150
 6854POPC   GL246334  32.959  31.565   6.150
 6854POPC   C1A46335  33.047  31.492   6.450
 6854POPC   D2A46336  32.984  31.484   6.750
 6854POPC   C3A46337  32.979  31.518   7.050
 6854POPC   C4A46338  33.013  31.504   7.350
 6854POPC   C1B46339  33.000  31.695   6.450
 6854POPC   C2B46340  32.966  31.755   6.750
 6854POPC   C3B46341  32.955  31.710   7.050
 6854POPC   C4B46342  33.019  31.700   7.350
 6855POPC   NC346343  39.998  12.040   5.550
 6855POPC   PO446344  40.033  12.120   5.850
 6855POPC   GL146345  40.046  12.051   6.150
 6855POPC   GL246346  39.888  12.090   6.150
 6855POPC   C1A46347  40.003  12.028   6.450
 6855POPC   D2A46348  39.987  12.095   6.750
 6855POPC   C3A46349  40.026  12.078   7.050
 6855POPC   C4A46350  40.027  12.113   7.350
 6855POPC   C1B46351  39.740  12.146   6.450
 6855POPC   C2B46352  39.809  12.183   6.750
 6855POPC   C3B46353  39.816  12.189   7.050
 6855POPC   C4B46354  39.793  12.143   7.350
 6856POPC   NC346355  31.452  28.339   5.550
 6856POPC   PO446356  31.518  28.327   5.850
 6856POPC   GL146357  31.429  28.366   6.150
 6856POPC   GL246358  31.456  28.466   6.150
 6856POPC   C1A46359  31.425  28.365   6.450
 6856POPC   D2A46360  31.480  28.368   6.750
 6856POPC   C3A46361  31.503  28.343   7.050
 6856POPC   C4A46362  31.453  28.404   7.350
 6856POPC   C1B46363  31.346  28.549   6.450
 6856POPC   C2B46364  31.369  28.606   6.750
 6856POPC   C3B46365  31.378  28.574   7.050
 6856POPC   C4B46366  31.305  28.591   7.350
 6857POPC   NC346367   3.492  39.969   5.550
 6857POPC   PO446368   3.516  39.967   5.850
 6857POPC   GL146369   3.557  40.001   6.150
 6857POPC   GL246370   3.544  40.133   6.150
 6857POPC   C1A46371   3.572  40.014   6.450
 6857POPC   D2A46372   3.549  40.054   6.750
 6857POPC   C3A46373   3.554  40.037   7.050
 6857POPC   C4A46374   3.540  40.037   7.350
 6857POPC   C1B46375   3.543  40.268   6.450
 6857POPC   C2B46376   3.559  40.243   6.750
 6857POPC   C3B46377   3.600  40.207   7.050
 6857POPC   C4B46378   3.560  40.298   7.350
 6858POPC   NC346379  22.959  33.847   5.550
 6858POPC   PO446380  22.896  33.762   5.850
 6858POPC   GL146381  22.968  33.817   6.150
 6858POPC   GL246382  22.992  33.839   6.150
 6858POPC   C1A46383  22.919  33.777   6.450
 6858POPC   D2A46384  22.974  33.817   6.750
 6858POPC   C3A46385  22.956  33.783   7.050
 6858POPC   C4A46386  22.918  33.761   7.350
 6858POPC   C1B46387  23.094  33.934   6.450
 6858POPC   C2B46388  23.152  33.903   6.750
 6858POPC   C3B46389  23.128  33.932   7.050
 6858POPC   C4B46390  23.150  33.915   7.350
 6859POPC   NC346391  40.811   8.223   5.550
 6859POPC   PO446392  40.738   8.208   5.850
 6859POPC   GL146393  40.737   8.187   6.150
 6859POPC   GL246394  40.720   8.239   6.150
 6859POPC   C1A46395  40.798   8.222   6.450
 6859POPC   D2A46396  40.801   8.201   6.750
 6859POPC   C3A46397  40.811   8.172   7.050
 6859POPC   C4A46398  40.752   8.211   7.350
 6859POPC   C1B46399  40.560   8.278   6.450
 6859POPC   C2B46400  40.528   8.316   6.750
 6859POPC   C3B46401  40.544   8.343   7.050
 6859POPC   C4B46402  40.563   8.289   7.350
 6860POPC   NC346403  39.977  36.938   5.550
 6860POPC   PO446404  40.042  36.883   5.850
 6860POPC   GL146405  40.005  36.906   6.150
 6860POPC   GL246406  40.155  36.843   6.150
 6860POPC   C1A46407  39.985  36.883   6.450
 6860POPC   D2A46408  39.977  36.895   6.750
 6860POPC   C3A46409  39.966  36.908   7.050
 6860POPC   C4A46410  40.018  36.856   7.350
 6860POPC   C1B46411  40.263  36.837   6.450
 6860POPC   C2B46412  40.267  36.810   6.750
 6860POPC   C3B46413  40.266  36.887   7.050
 6860POPC   C4B46414  40.231  36.862   7.350
 6861POPC   NC346415  17.557  36.152   5.550
 6861POPC   PO446416  17.529  36.159   5.850
 6861POPC   GL146417  17.503  36.151   6.150
 6861POPC   GL246418  17.581  36.239   6.150
 6861POPC   C1A46419  17.504  36.120   6.450
 6861POPC   D2A46420  17.531  36.105   6.750
 6861POPC   C3A46421  17.494  36.168   7.050
 6861POPC   C4A46422  17.486  36.172   7.350
 6861POPC   C1B46423  17.619  36.381   6.450
 6861POPC   C2B46424  17.663  36.308   6.750
 6861POPC   C3B46425  17.590  36.312   7.050
 6861POPC   C4B46426  17.624  36.383   7.350
 6862POPC   NC346427  21.395  27.550   5.550
 6862POPC   PO446428  21.362  27.626   5.850
 6862POPC   GL146429  21.391  27.640   6.150
 6862POPC   GL246430  21.482  27.531   6.150
 6862POPC   C1A46431  21.344  27.564   6.450
 6862POPC   D2A46432  21.406  27.609   6.750
 6862POPC   C3A46433  21.435  27.581   7.050
 6862POPC   C4A46434  21.398  27.573   7.350
 6862POPC   C1B46435  21.534  27.387   6.450
 6862POPC   C2B46436  21.541  27.396   6.750
 6862POPC   C3B46437  21.541  27.343   7.050
 6862POPC   C4B46438  21.547  27.394   7.350
 6863POPC   NC346439  38.431  21.362   5.550
 6863POPC   PO446440  38.467  21.405   5.850
 6863POPC   GL146441  38.490  21.368   6.150
 6863POPC   GL246442  38.294  21.340   6.150
 6863POPC   C1A46443  38.448  21.349   6.450
 6863POPC   D2A46444  38.431  21.369   6.750
 6863POPC   C3A46445  38.466  21.364   7.050
 6863POPC   C4A46446  38.455  21.371   7.350
 6863POPC   C1B46447  38.176  21.325   6.450
 6863POPC   C2B46448  38.190  21.393   6.750
 6863POPC   C3B46449  38.223  21.360   7.050
 6863POPC   C4B46450  38.230  21.370   7.350
 6864POPC   NC346451   2.034  29.154   5.550
 6864POPC   PO446452   2.029  29.173   5.850
 6864POPC   GL146453   2.022  29.185   6.150
 6864POPC   GL246454   1.913  29.073   6.150
 6864POPC   C1A46455   1.949  29.153   6.450
 6864POPC   D2A46456   2.000  29.183   6.750
 6864POPC   C3A46457   1.967  29.188   7.050
 6864POPC   C4A46458   1.981  29.146   7.350
 6864POPC   C1B46459   1.843  28.892   6.450
 6864POPC   C2B46460   1.889  28.958   6.750
 6864POPC   C3B46461   1.841  28.895   7.050
 6864POPC   C4B46462   1.874  28.922   7.350
 6865POPC   NC346463   7.440  27.562   5.550
 6865POPC   PO446464   7.455  27.619   5.850
 6865POPC   GL146465   7.380  27.545   6.150
 6865POPC   GL246466   7.552  27.626   6.150
 6865POPC   C1A46467   7.455  27.603   6.450
 6865POPC   D2A46468   7.451  27.635   6.750
 6865POPC   C3A46469   7.437  27.595   7.050
 6865POPC   C4A46470   7.414  27.553   7.350
 6865POPC   C1B46471   7.708  27.580   6.450
 6865POPC   C2B46472   7.683  27.671   6.750
 6865POPC   C3B46473   7.661  27.602   7.050
 6865POPC   C4B46474   7.625  27.605   7.350
 6866POPC   NC346475   2.754   1.175   5.550
 6866POPC   PO446476   2.813   1.251   5.850
 6866POPC   GL146477   2.745   1.184   6.150
 6866POPC   GL246478   2.872   1.220   6.150
 6866POPC   C1A46479   2.730   1.197   6.450
 6866POPC   D2A46480   2.794   1.218   6.750
 6866POPC   C3A46481   2.759   1.217   7.050
 6866POPC   C4A46482   2.723   1.188   7.350
 6866POPC   C1B46483   3.034   1.250   6.450
 6866POPC   C2B46484   3.002   1.236   6.750
 6866POPC   C3B46485   3.022   1.205   7.050
 6866POPC   C4B46486   3.049   1.259   7.350
 6867POPC   NC346487  36.884  31.482   5.550
 6867POPC   PO446488  36.949  31.459   5.850
 6867POPC   GL146489  36.909  31.426   6.150
 6867POPC   GL246490  37.051  31.459   6.150
 6867POPC   C1A46491  36.879  31.476   6.450
 6867POPC   D2A46492  36.943  31.431   6.750
 6867POPC   C3A46493  36.938  31.478   7.050
 6867POPC   C4A46494  36.855  31.484   7.350
 6867POPC   C1B46495  37.089  31.307   6.450
 6867POPC   C2B46496  37.165  31.300   6.750
 6867POPC   C3B46497  37.157  31.318   7.050
 6867POPC   C4B46498  37.165  31.381   7.350
 6868POPC   NC346499  18.302  31.519   5.550
 6868POPC   PO446500  18.251  31.494   5.850
 6868POPC   GL146501  18.310  31.481   6.150
 6868POPC   GL246502  18.384  31.399   6.150
 6868POPC   C1A46503  18.249  31.459   6.450
 6868POPC   D2A46504  18.281  31.516   6.750
 6868POPC   C3A46505  18.242  31.452   7.050
 6868POPC   C4A46506  18.320  31.430   7.350
 6868POPC   C1B46507  18.540  31.395   6.450
 6868POPC   C2B46508  18.562  31.394   6.750
 6868POPC   C3B46509  18.564  31.417   7.050
 6868POPC   C4B46510  18.475  31.396   7.350
 6869POPC   NC346511  10.512  27.631   5.550
 6869POPC   PO446512  10.516  27.631   5.850
 6869POPC   GL146513  10.560  27.607   6.150
 6869POPC   GL246514  10.424  27.557   6.150
 6869POPC   C1A46515  10.562  27.554   6.450
 6869POPC   D2A46516  10.536  27.602   6.750
 6869POPC   C3A46517  10.492  27.573   7.050
 6869POPC   C4A46518  10.483  27.580   7.350
 6869POPC   C1B46519  10.337  27.457   6.450
 6869POPC   C2B46520  10.291  27.493   6.750
 6869POPC   C3B46521  10.344  27.455   7.050
 6869POPC   C4B46522  10.345  27.419   7.350
 6870POPC   NC346523  38.453  36.922   5.550
 6870POPC   PO446524  38.474  36.892   5.850
 6870POPC   GL146525  38.505  36.863   6.150
 6870POPC   GL246526  38.363  37.000   6.150
 6870POPC   C1A46527  38.454  36.944   6.450
 6870POPC   D2A46528  38.456  36.883   6.750
 6870POPC   C3A46529  38.409  36.861   7.050
 6870POPC   C4A46530  38.434  36.949   7.350
 6870POPC   C1B46531  38.250  37.034   6.450
 6870POPC   C2B46532  38.289  37.049   6.750
 6870POPC   C3B46533  38.317  37.085   7.050
 6870POPC   C4B46534  38.303  37.042   7.350
 6871POPC   NC346535  10.555   5.826   5.550
 6871POPC   PO446536  10.561   5.859   5.850
 6871POPC   GL146537  10.509   5.893   6.150
 6871POPC   GL246538  10.493   5.954   6.150
 6871POPC   C1A46539  10.548   5.877   6.450
 6871POPC   D2A46540  10.532   5.820   6.750
 6871POPC   C3A46541  10.528   5.872   7.050
 6871POPC   C4A46542  10.501   5.843   7.350
 6871POPC   C1B46543  10.413   6.075   6.450
 6871POPC   C2B46544  10.419   6.070   6.750
 6871POPC   C3B46545  10.331   6.053   7.050
 6871POPC   C4B46546  10.379   6.044   7.350
 6872POPC   NC346547   1.211  23.748   5.550
 6872POPC   PO446548   1.194  23.719   5.850
 6872POPC   GL146549   1.192  23.744   6.150
 6872POPC   GL246550   1.107  23.577   6.150
 6872POPC   C1A46551   1.237  23.763   6.450
 6872POPC   D2A46552   1.256  23.675   6.750
 6872POPC   C3A46553   1.189  23.739   7.050
 6872POPC   C4A46554   1.259  23.674   7.350
 6872POPC   C1B46555   1.023  23.479   6.450
 6872POPC   C2B46556   1.088  23.496   6.750
 6872POPC   C3B46557   1.078  23.487   7.050
 6872POPC   C4B46558   1.069  23.551   7.350
 6873POPC   NC346559  27.550  32.999   5.550
 6873POPC   PO446560  27.545  33.067   5.850
 6873POPC   GL146561  27.555  33.032   6.150
 6873POPC   GL246562  27.524  32.948   6.150
 6873POPC   C1A46563  27.544  33.012   6.450
 6873POPC   D2A46564  27.583  32.981   6.750
 6873POPC   C3A46565  27.621  33.003   7.050
 6873POPC   C4A46566  27.568  33.011   7.350
 6873POPC   C1B46567  27.342  32.867   6.450
 6873POPC   C2B46568  27.326  32.916   6.750
 6873POPC   C3B46569  27.399  32.924   7.050
 6873POPC   C4B46570  27.380  32.853   7.350
 6874POPC   NC346571  12.864   5.112   5.550
 6874POPC   PO446572  12.812   5.082   5.850
 6874POPC   GL146573  12.829   5.079   6.150
 6874POPC   GL246574  12.795   4.981   6.150
 6874POPC   C1A46575  12.836   5.069   6.450
 6874POPC   D2A46576  12.812   5.081   6.750
 6874POPC   C3A46577  12.869   5.093   7.050
 6874POPC   C4A46578  12.819   5.080   7.350
 6874POPC   C1B46579  12.624   4.943   6.450
 6874POPC   C2B46580  12.605   4.917   6.750
 6874POPC   C3B46581  12.663   4.917   7.050
 6874POPC   C4B46582  12.602   4.970   7.350
 6875POPC   NC346583  28.366  36.149   5.550
 6875POPC   PO446584  28.354  36.145   5.850
 6875POPC   GL146585  28.322  36.085   6.150
 6875POPC   GL246586  28.269  36.126   6.150
 6875POPC   C1A46587  28.396  36.099   6.450
 6875POPC   D2A46588  28.367  36.153   6.750
 6875POPC   C3A46589  28.397  36.142   7.050
 6875POPC   C4A46590  28.369  36.116   7.350
 6875POPC   C1B46591  28.081  36.204   6.450
 6875POPC   C2B46592  28.089  36.145   6.750
 6875POPC   C3B46593  28.088  36.135   7.050
 6875POPC   C4B46594  28.132  36.145   7.350
 6876POPC   NC346595  29.163  22.135   5.550
 6876POPC   PO446596  29.172  22.206   5.850
 6876POPC   GL146597  29.140  22.136   6.150
 6876POPC   GL246598  29.260  22.239   6.150
 6876POPC   C1A46599  29.128  22.198   6.450
 6876POPC   D2A46600  29.114  22.137   6.750
 6876POPC   C3A46601  29.108  22.120   7.050
 6876POPC   C4A46602  29.183  22.198   7.350
 6876POPC   C1B46603  29.293  22.391   6.450
 6876POPC   C2B46604  29.330  22.370   6.750
 6876POPC   C3B46605  29.352  22.385   7.050
 6876POPC   C4B46606  29.287  22.366   7.350
 6877POPC   NC346607  29.190  25.290   5.550
 6877POPC   PO446608  29.127  25.224   5.850
 6877POPC   GL146609  29.163  25.244   6.150
 6877POPC   GL246610  29.296  25.226   6.150
 6877POPC   C1A46611  29.125  25.250   6.450
 6877POPC   D2A46612  29.100  25.236   6.750
 6877POPC   C3A46613  29.175  25.273   7.050
 6877POPC   C4A46614  29.137  25.265   7.350
 6877POPC   C1B46615  29.323  25.187   6.450
 6877POPC   C2B46616  29.381  25.171   6.750
 6877POPC   C3B46617  29.349  25.095   7.050
 6877POPC   C4B46618  29.346  25.115   7.350
 6878POPC   NC346619  22.133  41.587   5.550
 6878POPC   PO446620  22.150  41.576   5.850
 6878POPC   GL146621  22.191  41.514   6.150
 6878POPC   GL246622  22.036  41.526   6.150
 6878POPC   C1A46623  22.133  41.571   6.450
 6878POPC   D2A46624  22.135  41.548   6.750
 6878POPC   C3A46625  22.115  41.546   7.050
 6878POPC   C4A46626  22.138  41.560   7.350
 6878POPC   C1B46627  21.937  41.450   6.450
 6878POPC   C2B46628  21.870  41.522   6.750
 6878POPC   C3B46629  21.952  41.523   7.050
 6878POPC   C4B46630  21.915  41.454   7.350
 6879POPC   NC346631   1.174  15.988   5.550
 6879POPC   PO446632   1.192  16.002   5.850
 6879POPC   GL146633   1.213  15.994   6.150
 6879POPC   GL246634   1.211  16.113   6.150
 6879POPC   C1A46635   1.222  15.979   6.450
 6879POPC   D2A46636   1.203  15.977   6.750
 6879POPC   C3A46637   1.216  15.912   7.050
 6879POPC   C4A46638   1.214  15.930   7.350
 6879POPC   C1B46639   1.199  16.184   6.450
 6879POPC   C2B46640   1.192  16.202   6.750
 6879POPC   C3B46641   1.199  16.158   7.050
 6879POPC   C4B46642   1.128  16.191   7.350
 6880POPC   NC346643  41.560   8.235   5.550
 6880POPC   PO446644  41.543   8.186   5.850
 6880POPC   GL146645  41.557   8.173   6.150
 6880POPC   GL246646  41.472   8.093   6.150
 6880POPC   C1A46647  41.584   8.209   6.450
 6880POPC   D2A46648  41.595   8.245   6.750
 6880POPC   C3A46649  41.552   8.178   7.050
 6880POPC   C4A46650  41.557   8.175   7.350
 6880POPC   C1B46651  41.313   8.088   6.450
 6880POPC   C2B46652  41.390   8.044   6.750
 6880POPC   C3B46653  41.371   8.027   7.050
 6880POPC   C4B46654  41.323   8.055   7.350
 6881POPC   NC346655  44.706  37.686   5.550
 6881POPC   PO446656  44.617  37.704   5.850
 6881POPC   GL146657  44.641  37.670   6.150
 6881POPC   GL246658  44.548  37.531   6.150
 6881POPC   C1A46659  44.709  37.718   6.450
 6881POPC   D2A46660  44.672  37.700   6.750
 6881POPC   C3A46661  44.652  37.714   7.050
 6881POPC   C4A46662  44.700  37.671   7.350
 6881POPC   C1B46663  44.521  37.459   6.450
 6881POPC   C2B46664  44.509  37.440   6.750
 6881POPC   C3B46665  44.557  37.482   7.050
 6881POPC   C4B46666  44.533  37.514   7.350
 6882POPC   NC346667   8.206  37.723   5.550
 6882POPC   PO446668   8.147  37.677   5.850
 6882POPC   GL146669   8.242  37.636   6.150
 6882POPC   GL246670   8.108  37.581   6.150
 6882POPC   C1A46671   8.190  37.702   6.450
 6882POPC   D2A46672   8.203  37.660   6.750
 6882POPC   C3A46673   8.155  37.648   7.050
 6882POPC   C4A46674   8.182  37.647   7.350
 6882POPC   C1B46675   8.047  37.425   6.450
 6882POPC   C2B46676   8.108  37.410   6.750
 6882POPC   C3B46677   8.059  37.432   7.050
 6882POPC   C4B46678   8.088  37.499   7.350
 6883POPC   NC346679  33.023  32.233   5.550
 6883POPC   PO446680  32.997  32.234   5.850
 6883POPC   GL146681  33.008  32.296   6.150
 6883POPC   GL246682  33.056  32.140   6.150
 6883POPC   C1A46683  33.025  32.245   6.450
 6883POPC   D2A46684  33.035  32.293   6.750
 6883POPC   C3A46685  33.051  32.225   7.050
 6883POPC   C4A46686  33.070  32.248   7.350
 6883POPC   C1B46687  33.017  32.008   6.450
 6883POPC   C2B46688  33.058  32.012   6.750
 6883POPC   C3B46689  33.037  32.047   7.050
 6883POPC   C4B46690  33.018  31.952   7.350
 6884POPC   NC346691  11.252  16.755   5.550
 6884POPC   PO446692  11.349  16.716   5.850
 6884POPC   GL146693  11.332  16.754   6.150
 6884POPC   GL246694  11.171  16.672   6.150
 6884POPC   C1A46695  11.269  16.732   6.450
 6884POPC   D2A46696  11.306  16.768   6.750
 6884POPC   C3A46697  11.255  16.737   7.050
 6884POPC   C4A46698  11.255  16.706   7.350
 6884POPC   C1B46699  11.080  16.597   6.450
 6884POPC   C2B46700  11.029  16.666   6.750
 6884POPC   C3B46701  11.118  16.600   7.050
 6884POPC   C4B46702  11.031  16.598   7.350
 6885POPC   NC346703  12.846  32.259   5.550
 6885POPC   PO446704  12.889  32.279   5.850
 6885POPC   GL146705  12.846  32.200   6.150
 6885POPC   GL246706  12.934  32.322   6.150
 6885POPC   C1A46707  12.848  32.228   6.450
 6885POPC   D2A46708  12.807  32.280   6.750
 6885POPC   C3A46709  12.812  32.201   7.050
 6885POPC   C4A46710  12.888  32.199   7.350
 6885POPC   C1B46711  12.994  32.405   6.450
 6885POPC   C2B46712  13.011  32.407   6.750
 6885POPC   C3B46713  12.975  32.425   7.050
 6885POPC   C4B46714  13.031  32.496   7.350
 6886POPC   NC346715  30.663  37.644   5.550
 6886POPC   PO446716  30.654  37.696   5.850
 6886POPC   GL146717  30.696  37.641   6.150
 6886POPC   GL246718  30.669  37.588   6.150
 6886POPC   C1A46719  30.672  37.699   6.450
 6886POPC   D2A46720  30.688  37.711   6.750
 6886POPC   C3A46721  30.706  37.639   7.050
 6886POPC   C4A46722  30.741  37.632   7.350
 6886POPC   C1B46723  30.701  37.474   6.450
 6886POPC   C2B46724  30.763  37.451   6.750
 6886POPC   C3B46725  30.764  37.420   7.050
 6886POPC   C4B46726  30.744  37.439   7.350
 6887POPC   NC346727   7.423  21.390   5.550
 6887POPC   PO446728   7.440  21.411   5.850
 6887POPC   GL146729   7.425  21.390   6.150
 6887POPC   GL246730   7.512  21.370   6.150
 6887POPC   C1A46731   7.427  21.404   6.450
 6887POPC   D2A46732   7.401  21.403   6.750
 6887POPC   C3A46733   7.438  21.401   7.050
 6887POPC   C4A46734   7.394  21.424   7.350
 6887POPC   C1B46735   7.636  21.275   6.450
 6887POPC   C2B46736   7.603  21.241   6.750
 6887POPC   C3B46737   7.593  21.257   7.050
 6887POPC   C4B46738   7.672  21.229   7.350
 6888POPC   NC346739  36.856  18.259   5.550
 6888POPC   PO446740  36.868  18.289   5.850
 6888POPC   GL146741  36.866  18.241   6.150
 6888POPC   GL246742  37.041  18.307   6.150
 6888POPC   C1A46743  36.894  18.245   6.450
 6888POPC   D2A46744  36.915  18.320   6.750
 6888POPC   C3A46745  36.863  18.302   7.050
 6888POPC   C4A46746  36.885  18.261   7.350
 6888POPC   C1B46747  37.172  18.265   6.450
 6888POPC   C2B46748  37.120  18.324   6.750
 6888POPC   C3B46749  37.113  18.301   7.050
 6888POPC   C4B46750  37.108  18.285   7.350
 6889POPC   NC346751  15.157  29.965   5.550
 6889POPC   PO446752  15.218  29.945   5.850
 6889POPC   GL146753  15.199  29.943   6.150
 6889POPC   GL246754  15.139  29.806   6.150
 6889POPC   C1A46755  15.217  29.881   6.450
 6889POPC   D2A46756  15.130  29.899   6.750
 6889POPC   C3A46757  15.198  29.970   7.050
 6889POPC   C4A46758  15.174  29.929   7.350
 6889POPC   C1B46759  15.154  29.704   6.450
 6889POPC   C2B46760  15.146  29.720   6.750
 6889POPC   C3B46761  15.061  29.671   7.050
 6889POPC   C4B46762  15.115  29.708   7.350
 6890POPC   NC346763   5.898  25.306   5.550
 6890POPC   PO446764   5.918  25.261   5.850
 6890POPC   GL146765   5.864  25.308   6.150
 6890POPC   GL246766   5.876  25.141   6.150
 6890POPC   C1A46767   5.850  25.281   6.450
 6890POPC   D2A46768   5.848  25.262   6.750
 6890POPC   C3A46769   5.870  25.274   7.050
 6890POPC   C4A46770   5.826  25.276   7.350
 6890POPC   C1B46771   5.778  24.988   6.450
 6890POPC   C2B46772   5.843  24.986   6.750
 6890POPC   C3B46773   5.760  25.041   7.050
 6890POPC   C4B46774   5.752  25.021   7.350
 6891POPC   NC346775  15.163   7.470   5.550
 6891POPC   PO446776  15.162   7.463   5.850
 6891POPC   GL146777  15.153   7.381   6.150
 6891POPC   GL246778  15.141   7.521   6.150
 6891POPC   C1A46779  15.225   7.377   6.450
 6891POPC   D2A46780  15.211   7.394   6.750
 6891POPC   C3A46781  15.217   7.443   7.050
 6891POPC   C4A46782  15.173   7.425   7.350
 6891POPC   C1B46783  15.015   7.586   6.450
 6891POPC   C2B46784  14.986   7.673   6.750
 6891POPC   C3B46785  15.040   7.648   7.050
 6891POPC   C4B46786  14.997   7.653   7.350
 6892POPC   NC346787  35.370   2.032   5.550
 6892POPC   PO446788  35.366   1.951   5.850
 6892POPC   GL146789  35.396   1.970   6.150
 6892POPC   GL246790  35.239   2.003   6.150
 6892POPC   C1A46791  35.342   1.987   6.450
 6892POPC   D2A46792  35.326   2.010   6.750
 6892POPC   C3A46793  35.360   1.993   7.050
 6892POPC   C4A46794  35.373   1.985   7.350
 6892POPC   C1B46795  35.130   1.977   6.450
 6892POPC   C2B46796  35.117   1.945   6.750
 6892POPC   C3B46797  35.129   1.967   7.050
 6892POPC   C4B46798  35.099   1.952   7.350
 6893POPC   NC346799  19.099  35.349   5.550
 6893POPC   PO446800  19.052  35.360   5.850
 6893POPC   GL146801  19.010  35.400   6.150
 6893POPC   GL246802  19.107  35.443   6.150
 6893POPC   C1A46803  19.018  35.339   6.450
 6893POPC   D2A46804  19.012  35.357   6.750
 6893POPC   C3A46805  19.098  35.328   7.050
 6893POPC   C4A46806  19.108  35.350   7.350
 6893POPC   C1B46807  19.104  35.630   6.450
 6893POPC   C2B46808  19.088  35.579   6.750
 6893POPC   C3B46809  19.098  35.584   7.050
 6893POPC   C4B46810  19.060  35.566   7.350
 6894POPC   NC346811   5.139  24.524   5.550
 6894POPC   PO446812   5.077  24.450   5.850
 6894POPC   GL146813   5.047  24.473   6.150
 6894POPC   GL246814   5.202  24.483   6.150
 6894POPC   C1A46815   5.049  24.456   6.450
 6894POPC   D2A46816   5.092  24.464   6.750
 6894POPC   C3A46817   5.141  24.484   7.050
 6894POPC   C4A46818   5.055  24.530   7.350
 6894POPC   C1B46819   5.331  24.468   6.450
 6894POPC   C2B46820   5.327  24.435   6.750
 6894POPC   C3B46821   5.363  24.394   7.050
 6894POPC   C4B46822   5.364  24.437   7.350
 6895POPC   NC346823  18.247   0.448   5.550
 6895POPC   PO446824  18.282   0.442   5.850
 6895POPC   GL146825  18.325   0.445   6.150
 6895POPC   GL246826  18.368   0.360   6.150
 6895POPC   C1A46827  18.300   0.488   6.450
 6895POPC   D2A46828  18.291   0.416   6.750
 6895POPC   C3A46829  18.277   0.420   7.050
 6895POPC   C4A46830  18.289   0.462   7.350
 6895POPC   C1B46831  18.519   0.262   6.450
 6895POPC   C2B46832  18.477   0.253   6.750
 6895POPC   C3B46833  18.437   0.259   7.050
 6895POPC   C4B46834  18.506   0.309   7.350
 6896POPC   NC346835  43.890  43.852   5.550
 6896POPC   PO446836  43.908  43.887   5.850
 6896POPC   GL146837  43.927  43.901   6.150
 6896POPC   GL246838  43.974  43.924   6.150
 6896POPC   C1A46839  43.840  43.909   6.450
 6896POPC   D2A46840  43.895  43.863   6.750
 6896POPC   C3A46841  43.901  43.887   7.050
 6896POPC   C4A46842  43.867  43.859   7.350
 6896POPC   C1B46843  44.048  44.048   6.450
 6896POPC   C2B46844  44.073  44.061   6.750
 6896POPC   C3B46845  44.049  43.977   7.050
 6896POPC   C4B46846  44.096  43.983   7.350
 6897POPC   NC346847   6.609  40.736   5.550
 6897POPC   PO446848   6.653  40.809   5.850
 6897POPC   GL146849   6.649  40.803   6.150
 6897POPC   GL246850   6.545  40.711   6.150
 6897POPC   C1A46851   6.600  40.802   6.450
 6897POPC   D2A46852   6.613  40.760   6.750
 6897POPC   C3A46853   6.675  40.769   7.050
 6897POPC   C4A46854   6.659  40.790   7.350
 6897POPC   C1B46855   6.542  40.539   6.450
 6897POPC   C2B46856   6.533  40.588   6.750
 6897POPC   C3B46857   6.487  40.519   7.050
 6897POPC   C4B46858   6.486  40.596   7.350
 6898POPC   NC346859   9.723  32.987   5.550
 6898POPC   PO446860   9.700  32.997   5.850
 6898POPC   GL146861   9.706  33.052   6.150
 6898POPC   GL246862   9.724  32.912   6.150
 6898POPC   C1A46863   9.797  32.974   6.450
 6898POPC   D2A46864   9.789  33.019   6.750
 6898POPC   C3A46865   9.739  33.003   7.050
 6898POPC   C4A46866   9.779  33.047   7.350
 6898POPC   C1B46867   9.656  32.770   6.450
 6898POPC   C2B46868   9.659  32.776   6.750
 6898POPC   C3B46869   9.657  32.800   7.050
 6898POPC   C4B46870   9.731  32.738   7.350
 6899POPC   NC346871  11.279  26.086   5.550
 6899POPC   PO446872  11.334  26.035   5.850
 6899POPC   GL146873  11.286  25.999   6.150
 6899POPC   GL246874  11.297  25.899   6.150
 6899POPC   C1A46875  11.324  26.007   6.450
 6899POPC   D2A46876  11.337  26.063   6.750
 6899POPC   C3A46877  11.341  25.994   7.050
 6899POPC   C4A46878  11.267  26.065   7.350
 6899POPC   C1B46879  11.350  25.787   6.450
 6899POPC   C2B46880  11.407  25.788   6.750
 6899POPC   C3B46881  11.345  25.764   7.050
 6899POPC   C4B46882  11.331  25.796   7.350
 6900POPC   NC346883   3.530  34.593   5.550
 6900POPC   PO446884   3.552  34.542   5.850
 6900POPC   GL146885   3.528  34.591   6.150
 6900POPC   GL246886   3.384  34.609   6.150
 6900POPC   C1A46887   3.550  34.534   6.450
 6900POPC   D2A46888   3.566  34.532   6.750
 6900POPC   C3A46889   3.551  34.537   7.050
 6900POPC   C4A46890   3.526  34.615   7.350
 6900POPC   C1B46891   3.318  34.695   6.450
 6900POPC   C2B46892   3.308  34.720   6.750
 6900POPC   C3B46893   3.271  34.653   7.050
 6900POPC   C4B46894   3.297  34.694   7.350
 6901POPC   NC346895  12.876   8.958   5.550
 6901POPC   PO446896  12.838   8.968   5.850
 6901POPC   GL146897  12.846   9.001   6.150
 6901POPC   GL246898  12.826   8.845   6.150
 6901POPC   C1A46899  12.834   9.011   6.450
 6901POPC   D2A46900  12.890   8.979   6.750
 6901POPC   C3A46901  12.884   9.007   7.050
 6901POPC   C4A46902  12.846   8.997   7.350
 6901POPC   C1B46903  12.709   8.748   6.450
 6901POPC   C2B46904  12.686   8.798   6.750
 6901POPC   C3B46905  12.736   8.780   7.050
 6901POPC   C4B46906  12.704   8.821   7.350
 6902POPC   NC346907  29.157  11.251   5.550
 6902POPC   PO446908  29.151  11.299   5.850
 6902POPC   GL146909  29.121  11.317   6.150
 6902POPC   GL246910  28.974  11.307   6.150
 6902POPC   C1A46911  29.111  11.339   6.450
 6902POPC   D2A46912  29.145  11.282   6.750
 6902POPC   C3A46913  29.121  11.338   7.050
 6902POPC   C4A46914  29.193  11.296   7.350
 6902POPC   C1B46915  28.883  11.298   6.450
 6902POPC   C2B46916  28.849  11.252   6.750
 6902POPC   C3B46917  28.908  11.238   7.050
 6902POPC   C4B46918  28.920  11.229   7.350
 6903POPC   NC346919  36.918  35.362   5.550
 6903POPC   PO446920  36.950  35.399   5.850
 6903POPC   GL146921  36.860  35.391   6.150
 6903POPC   GL246922  36.960  35.228   6.150
 6903POPC   C1A46923  36.884  35.375   6.450
 6903POPC   D2A46924  36.898  35.387   6.750
 6903POPC   C3A46925  36.919  35.332   7.050
 6903POPC   C4A46926  36.875  35.321   7.350
 6903POPC   C1B46927  36.914  35.107   6.450
 6903POPC   C2B46928  36.937  35.061   6.750
 6903POPC   C3B46929  36.934  35.104   7.050
 6903POPC   C4B46930  36.945  35.118   7.350
 6904POPC   NC346931  11.275  42.303   5.550
 6904POPC   PO446932  11.304  42.347   5.850
 6904POPC   GL146933  11.349  42.287   6.150
 6904POPC   GL246934  11.346  42.188   6.150
 6904POPC   C1A46935  11.299  42.304   6.450
 6904POPC   D2A46936  11.254  42.379   6.750
 6904POPC   C3A46937  11.302  42.368   7.050
 6904POPC   C4A46938  11.313  42.368   7.350
 6904POPC   C1B46939  11.423  42.133   6.450
 6904POPC   C2B46940  11.403  42.141   6.750
 6904POPC   C3B46941  11.429  42.091   7.050
 6904POPC   C4B46942  11.395  42.162   7.350
 6905POPC   NC346943  43.127  12.804   5.550
 6905POPC   PO446944  43.147  12.821   5.850
 6905POPC   GL146945  43.158  12.867   6.150
 6905POPC   GL246946  43.097  12.768   6.150
 6905POPC   C1A46947  43.096  12.861   6.450
 6905POPC   D2A46948  43.095  12.806   6.750
 6905POPC   C3A46949  43.131  12.894   7.050
 6905POPC   C4A46950  43.076  12.897   7.350
 6905POPC   C1B46951  43.045  12.591   6.450
 6905POPC   C2B46952  43.017  12.605   6.750
 6905POPC   C3B46953  43.039  12.647   7.050
 6905POPC   C4B46954  43.001  12.624   7.350
 6906POPC   NC346955  19.801   5.856   5.550
 6906POPC   PO446956  19.790   5.861   5.850
 6906POPC   GL146957  19.839   5.856   6.150
 6906POPC   GL246958  19.776   5.967   6.150
 6906POPC   C1A46959  19.854   5.832   6.450
 6906POPC   D2A46960  19.817   5.872   6.750
 6906POPC   C3A46961  19.822   5.865   7.050
 6906POPC   C4A46962  19.883   5.820   7.350
 6906POPC   C1B46963  19.752   6.162   6.450
 6906POPC   C2B46964  19.806   6.108   6.750
 6906POPC   C3B46965  19.789   6.086   7.050
 6906POPC   C4B46966  19.760   6.149   7.350
 6907POPC   NC346967  31.449  32.206   5.550
 6907POPC   PO446968  31.450  32.208   5.850
 6907POPC   GL146969  31.467  32.258   6.150
 6907POPC   GL246970  31.315  32.293   6.150
 6907POPC   C1A46971  31.464  32.224   6.450
 6907POPC   D2A46972  31.513  32.260   6.750
 6907POPC   C3A46973  31.485  32.219   7.050
 6907POPC   C4A46974  31.514  32.257   7.350
 6907POPC   C1B46975  31.268  32.327   6.450
 6907POPC   C2B46976  31.213  32.368   6.750
 6907POPC   C3B46977  31.233  32.318   7.050
 6907POPC   C4B46978  31.244  32.374   7.350
 6908POPC   NC346979  36.079  42.293   5.550
 6908POPC   PO446980  36.112  42.379   5.850
 6908POPC   GL146981  36.152  42.379   6.150
 6908POPC   GL246982  36.172  42.447   6.150
 6908POPC   C1A46983  36.080  42.360   6.450
 6908POPC   D2A46984  36.112  42.301   6.750
 6908POPC   C3A46985  36.136  42.316   7.050
 6908POPC   C4A46986  36.146  42.371   7.350
 6908POPC   C1B46987  36.264  42.514   6.450
 6908POPC   C2B46988  36.309  42.591   6.750
 6908POPC   C3B46989  36.266  42.534   7.050
 6908POPC   C4B46990  36.309  42.522   7.350
 6909POPC   NC346991  12.883  27.606   5.550
 6909POPC   PO446992  12.852  27.623   5.850
 6909POPC   GL146993  12.856  27.544   6.150
 6909POPC   GL246994  12.757  27.694   6.150
 6909POPC   C1A46995  12.855  27.551   6.450
 6909POPC   D2A46996  12.858  27.553   6.750
 6909POPC   C3A46997  12.839  27.600   7.050
 6909POPC   C4A46998  12.812  27.568   7.350
 6909POPC   C1B46999  12.692  27.745   6.450
 6909POPC   C2B47000  12.681  27.824   6.750
 6909POPC   C3B47001  12.694  27.821   7.050
 6909POPC   C4B47002  12.673  27.731   7.350
 6910POPC   NC347003  15.918  36.930   5.550
 6910POPC   PO447004  15.999  36.879   5.850
 6910POPC   GL147005  15.961  36.854   6.150
 6910POPC   GL247006  16.054  36.876   6.150
 6910POPC   C1A47007  15.960  36.860   6.450
 6910POPC   D2A47008  15.978  36.944   6.750
 6910POPC   C3A47009  15.935  36.871   7.050
 6910POPC   C4A47010  15.959  36.946   7.350
 6910POPC   C1B47011  16.151  36.986   6.450
 6910POPC   C2B47012  16.218  36.993   6.750
 6910POPC   C3B47013  16.186  36.934   7.050
 6910POPC   C4B47014  16.241  36.946   7.350
 6911POPC   NC347015  37.709  15.175   5.550
 6911POPC   PO447016  37.718  15.169   5.850
 6911POPC   GL147017  37.662  15.130   6.150
 6911POPC   GL247018  37.668  15.258   6.150
 6911POPC   C1A47019  37.687  15.162   6.450
 6911POPC   D2A47020  37.682  15.172   6.750
 6911POPC   C3A47021  37.679  15.225   7.050
 6911POPC   C4A47022  37.695  15.144   7.350
 6911POPC   C1B47023  37.618  15.391   6.450
 6911POPC   C2B47024  37.627  15.405   6.750
 6911POPC   C3B47025  37.630  15.438   7.050
 6911POPC   C4B47026  37.567  15.457   7.350
 6912POPC   NC347027  33.014  30.691   5.550
 6912POPC   PO447028  32.988  30.676   5.850
 6912POPC   GL147029  33.015  30.656   6.150
 6912POPC   GL247030  32.857  30.666   6.150
 6912POPC   C1A47031  33.032  30.670   6.450
 6912POPC   D2A47032  32.998  30.676   6.750
 6912POPC   C3A47033  33.020  30.683   7.050
 6912POPC   C4A47034  33.063  30.744   7.350
 6912POPC   C1B47035  32.797  30.652   6.450
 6912POPC   C2B47036  32.727  30.631   6.750
 6912POPC   C3B47037  32.763  30.680   7.050
 6912POPC   C4B47038  32.775  30.716   7.350
 6913POPC   NC347039  33.849  31.512   5.550
 6913POPC   PO447040  33.818  31.482   5.850
 6913POPC   GL147041  33.769  31.501   6.150
 6913POPC   GL247042  33.957  31.420   6.150
 6913POPC   C1A47043  33.753  31.425   6.450
 6913POPC   D2A47044  33.816  31.457   6.750
 6913POPC   C3A47045  33.826  31.471   7.050
 6913POPC   C4A47046  33.765  31.485   7.350
 6913POPC   C1B47047  34.028  31.407   6.450
 6913POPC   C2B47048  34.018  31.361   6.750
 6913POPC   C3B47049  33.997  31.396   7.050
 6913POPC   C4B47050  34.067  31.395   7.350
 6914POPC   NC347051  29.149  23.710   5.550
 6914POPC   PO447052  29.154  23.695   5.850
 6914POPC   GL147053  29.157  23.742   6.150
 6914POPC   GL247054  29.199  23.647   6.150
 6914POPC   C1A47055  29.160  23.743   6.450
 6914POPC   D2A47056  29.095  23.754   6.750
 6914POPC   C3A47057  29.144  23.699   7.050
 6914POPC   C4A47058  29.170  23.716   7.350
 6914POPC   C1B47059  29.309  23.510   6.450
 6914POPC   C2B47060  29.256  23.515   6.750
 6914POPC   C3B47061  29.289  23.519   7.050
 6914POPC   C4B47062  29.318  23.536   7.350
 6915POPC   NC347063   5.854  39.965   5.550
 6915POPC   PO447064   5.875  40.022   5.850
 6915POPC   GL147065   5.908  39.998   6.150
 6915POPC   GL247066   5.955  40.004   6.150
 6915POPC   C1A47067   5.861  39.974   6.450
 6915POPC   D2A47068   5.851  40.001   6.750
 6915POPC   C3A47069   5.843  40.054   7.050
 6915POPC   C4A47070   5.860  40.031   7.350
 6915POPC   C1B47071   6.121  39.930   6.450
 6915POPC   C2B47072   6.137  39.931   6.750
 6915POPC   C3B47073   6.139  39.929   7.050
 6915POPC   C4B47074   6.116  39.880   7.350
 6916POPC   NC347075  22.157  43.854   5.550
 6916POPC   PO447076  22.118  43.859   5.850
 6916POPC   GL147077  22.172  43.908   6.150
 6916POPC   GL247078  22.254  43.833   6.150
 6916POPC   C1A47079  22.140  43.852   6.450
 6916POPC   D2A47080  22.158  43.876   6.750
 6916POPC   C3A47081  22.152  43.929   7.050
 6916POPC   C4A47082  22.177  43.891   7.350
 6916POPC   C1B47083  22.417  43.865   6.450
 6916POPC   C2B47084  22.427  43.779   6.750
 6916POPC   C3B47085  22.396  43.838   7.050
 6916POPC   C4B47086  22.443  43.844   7.350
 6917POPC   NC347087  35.323  19.840   5.550
 6917POPC   PO447088  35.385  19.817   5.850
 6917POPC   GL147089  35.369  19.796   6.150
 6917POPC   GL247090  35.327  19.938   6.150
 6917POPC   C1A47091  35.393  19.861   6.450
 6917POPC   D2A47092  35.337  19.803   6.750
 6917POPC   C3A47093  35.321  19.869   7.050
 6917POPC   C4A47094  35.364  19.842   7.350
 6917POPC   C1B47095  35.263  20.080   6.450
 6917POPC   C2B47096  35.202  20.007   6.750
 6917POPC   C3B47097  35.199  20.066   7.050
 6917POPC   C4B47098  35.256  20.003   7.350
 6918POPC   NC347099  12.844  26.797   5.550
 6918POPC   PO447100  12.844  26.817   5.850
 6918POPC   GL147101  12.808  26.808   6.150
 6918POPC   GL247102  12.854  26.707   6.150
 6918POPC   C1A47103  12.803  26.781   6.450
 6918POPC   D2A47104  12.840  26.800   6.750
 6918POPC   C3A47105  12.886  26.839   7.050
 6918POPC   C4A47106  12.843  26.855   7.350
 6918POPC   C1B47107  12.913  26.589   6.450
 6918POPC   C2B47108  12.936  26.553   6.750
 6918POPC   C3B47109  12.925  26.566   7.050
 6918POPC   C4B47110  12.853  26.546   7.350
 6919POPC   NC347111  41.547  22.173   5.550
 6919POPC   PO447112  41.602  22.126   5.850
 6919POPC   GL147113  41.526  22.135   6.150
 6919POPC   GL247114  41.549  22.259   6.150
 6919POPC   C1A47115  41.544  22.140   6.450
 6919POPC   D2A47116  41.513  22.149   6.750
 6919POPC   C3A47117  41.576  22.185   7.050
 6919POPC   C4A47118  41.573  22.156   7.350
 6919POPC   C1B47119  41.483  22.386   6.450
 6919POPC   C2B47120  41.519  22.411   6.750
 6919POPC   C3B47121  41.523  22.416   7.050
 6919POPC   C4B47122  41.547  22.393   7.350
 6920POPC   NC347123  21.347  33.059   5.550
 6920POPC   PO447124  21.394  33.018   5.850
 6920POPC   GL147125  21.352  33.067   6.150
 6920POPC   GL247126  21.314  33.094   6.150
 6920POPC   C1A47127  21.377  33.011   6.450
 6920POPC   D2A47128  21.434  33.068   6.750
 6920POPC   C3A47129  21.423  33.067   7.050
 6920POPC   C4A47130  21.362  33.069   7.350
 6920POPC   C1B47131  21.199  33.201   6.450
 6920POPC   C2B47132  21.229  33.187   6.750
 6920POPC   C3B47133  21.200  33.184   7.050
 6920POPC   C4B47134  21.264  33.198   7.350
 6921POPC   NC347135   8.162  33.000   5.550
 6921POPC   PO447136   8.204  32.999   5.850
 6921POPC   GL147137   8.220  33.031   6.150
 6921POPC   GL247138   8.300  33.085   6.150
 6921POPC   C1A47139   8.215  33.027   6.450
 6921POPC   D2A47140   8.246  33.049   6.750
 6921POPC   C3A47141   8.208  33.019   7.050
 6921POPC   C4A47142   8.149  33.067   7.350
 6921POPC   C1B47143   8.347  33.260   6.450
 6921POPC   C2B47144   8.283  33.243   6.750
 6921POPC   C3B47145   8.334  33.254   7.050
 6921POPC   C4B47146   8.328  33.232   7.350
 6922POPC   NC347147  43.929  15.218   5.550
 6922POPC   PO447148  43.903  15.166   5.850
 6922POPC   GL147149  43.862  15.202   6.150
 6922POPC   GL247150  43.989  15.114   6.150
 6922POPC   C1A47151  43.917  15.215   6.450
 6922POPC   D2A47152  43.899  15.140   6.750
 6922POPC   C3A47153  43.915  15.160   7.050
 6922POPC   C4A47154  43.866  15.190   7.350
 6922POPC   C1B47155  44.024  14.928   6.450
 6922POPC   C2B47156  44.015  14.957   6.750
 6922POPC   C3B47157  44.061  14.979   7.050
 6922POPC   C4B47158  44.002  14.960   7.350
 6923POPC   NC347159  15.967  25.307   5.550
 6923POPC   PO447160  15.992  25.315   5.850
 6923POPC   GL147161  15.952  25.307   6.150
 6923POPC   GL247162  16.005  25.102   6.150
 6923POPC   C1A47163  15.992  25.257   6.450
 6923POPC   D2A47164  16.003  25.297   6.750
 6923POPC   C3A47165  15.942  25.304   7.050
 6923POPC   C4A47166  15.945  25.237   7.350
 6923POPC   C1B47167  16.014  25.079   6.450
 6923POPC   C2B47168  16.015  25.035   6.750
 6923POPC   C3B47169  16.054  25.082   7.050
 6923POPC   C4B47170  16.019  25.003   7.350
 6924POPC   NC347171  25.289  39.992   5.550
 6924POPC   PO447172  25.270  39.993   5.850
 6924POPC   GL147173  25.302  39.960   6.150
 6924POPC   GL247174  25.370  40.076   6.150
 6924POPC   C1A47175  25.245  40.045   6.450
 6924POPC   D2A47176  25.275  40.014   6.750
 6924POPC   C3A47177  25.276  40.053   7.050
 6924POPC   C4A47178  25.219  40.003   7.350
 6924POPC   C1B47179  25.418  40.218   6.450
 6924POPC   C2B47180  25.464  40.159   6.750
 6924POPC   C3B47181  25.400  40.181   7.050
 6924POPC   C4B47182  25.473  40.168   7.350
 6925POPC   NC347183   8.231   2.812   5.550
 6925POPC   PO447184   8.234   2.792   5.850
 6925POPC   GL147185   8.148   2.785   6.150
 6925POPC   GL247186   8.187   2.650   6.150
 6925POPC   C1A47187   8.202   2.774   6.450
 6925POPC   D2A47188   8.230   2.749   6.750
 6925POPC   C3A47189   8.167   2.748   7.050
 6925POPC   C4A47190   8.165   2.726   7.350
 6925POPC   C1B47191   8.134   2.490   6.450
 6925POPC   C2B47192   8.118   2.571   6.750
 6925POPC   C3B47193   8.046   2.559   7.050
 6925POPC   C4B47194   8.078   2.580   7.350
 6926POPC   NC347195  27.544   6.671   5.550
 6926POPC   PO447196  27.561   6.607   5.850
 6926POPC   GL147197  27.591   6.605   6.150
 6926POPC   GL247198  27.662   6.695   6.150
 6926POPC   C1A47199  27.555   6.642   6.450
 6926POPC   D2A47200  27.567   6.603   6.750
 6926POPC   C3A47201  27.554   6.607   7.050
 6926POPC   C4A47202  27.569   6.632   7.350
 6926POPC   C1B47203  27.710   6.877   6.450
 6926POPC   C2B47204  27.737   6.798   6.750
 6926POPC   C3B47205  27.701   6.829   7.050
 6926POPC   C4B47206  27.771   6.887   7.350
 6927POPC   NC347207   2.779  41.553   5.550
 6927POPC   PO447208   2.728  41.523   5.850
 6927POPC   GL147209   2.741  41.564   6.150
 6927POPC   GL247210   2.691  41.625   6.150
 6927POPC   C1A47211   2.785  41.549   6.450
 6927POPC   D2A47212   2.767  41.563   6.750
 6927POPC   C3A47213   2.788  41.559   7.050
 6927POPC   C4A47214   2.799  41.600   7.350
 6927POPC   C1B47215   2.565  41.726   6.450
 6927POPC   C2B47216   2.548  41.742   6.750
 6927POPC   C3B47217   2.602  41.708   7.050
 6927POPC   C4B47218   2.539  41.725   7.350
 6928POPC   NC347219  13.613  27.634   5.550
 6928POPC   PO447220  13.619  27.623   5.850
 6928POPC   GL147221  13.666  27.544   6.150
 6928POPC   GL247222  13.720  27.568   6.150
 6928POPC   C1A47223  13.678  27.555   6.450
 6928POPC   D2A47224  13.670  27.568   6.750
 6928POPC   C3A47225  13.596  27.594   7.050
 6928POPC   C4A47226  13.624  27.617   7.350
 6928POPC   C1B47227  13.847  27.484   6.450
 6928POPC   C2B47228  13.829  27.444   6.750
 6928POPC   C3B47229  13.892  27.443   7.050
 6928POPC   C4B47230  13.810  27.531   7.350
 6929POPC   NC347231   4.361  15.957   5.550
 6929POPC   PO447232   4.311  16.004   5.850
 6929POPC   GL147233   4.334  15.911   6.150
 6929POPC   GL247234   4.463  15.905   6.150
 6929POPC   C1A47235   4.357  15.954   6.450
 6929POPC   D2A47236   4.304  15.999   6.750
 6929POPC   C3A47237   4.363  16.000   7.050
 6929POPC   C4A47238   4.299  15.999   7.350
 6929POPC   C1B47239   4.572  15.843   6.450
 6929POPC   C2B47240   4.537  15.826   6.750
 6929POPC   C3B47241   4.532  15.850   7.050
 6929POPC   C4B47242   4.533  15.853   7.350
 6930POPC   NC347243  38.491   6.660   5.550
 6930POPC   PO447244  38.417   6.657   5.850
 6930POPC   GL147245  38.479   6.682   6.150
 6930POPC   GL247246  38.588   6.539   6.150
 6930POPC   C1A47247  38.470   6.606   6.450
 6930POPC   D2A47248  38.479   6.695   6.750
 6930POPC   C3A47249  38.424   6.674   7.050
 6930POPC   C4A47250  38.483   6.656   7.350
 6930POPC   C1B47251  38.616   6.485   6.450
 6930POPC   C2B47252  38.597   6.497   6.750
 6930POPC   C3B47253  38.602   6.496   7.050
 6930POPC   C4B47254  38.657   6.482   7.350
 6931POPC   NC347255  15.148  27.636   5.550
 6931POPC   PO447256  15.159  27.639   5.850
 6931POPC   GL147257  15.195  27.642   6.150
 6931POPC   GL247258  15.106  27.440   6.150
 6931POPC   C1A47259  15.182  27.617   6.450
 6931POPC   D2A47260  15.184  27.643   6.750
 6931POPC   C3A47261  15.226  27.641   7.050
 6931POPC   C4A47262  15.220  27.606   7.350
 6931POPC   C1B47263  15.033  27.385   6.450
 6931POPC   C2B47264  15.100  27.364   6.750
 6931POPC   C3B47265  15.068  27.392   7.050
 6931POPC   C4B47266  15.078  27.358   7.350
 6932POPC   NC347267  34.543   3.552   5.550
 6932POPC   PO447268  34.592   3.528   5.850
 6932POPC   GL147269  34.606   3.493   6.150
 6932POPC   GL247270  34.626   3.470   6.150
 6932POPC   C1A47271  34.619   3.557   6.450
 6932POPC   D2A47272  34.610   3.515   6.750
 6932POPC   C3A47273  34.575   3.525   7.050
 6932POPC   C4A47274  34.601   3.570   7.350
 6932POPC   C1B47275  34.721   3.370   6.450
 6932POPC   C2B47276  34.724   3.403   6.750
 6932POPC   C3B47277  34.790   3.397   7.050
 6932POPC   C4B47278  34.805   3.378   7.350
 6933POPC   NC347279  22.212  29.899   5.550
 6933POPC   PO447280  22.121  29.894   5.850
 6933POPC   GL147281  22.189  29.913   6.150
 6933POPC   GL247282  22.026  29.896   6.150
 6933POPC   C1A47283  22.144  29.945   6.450
 6933POPC   D2A47284  22.139  29.917   6.750
 6933POPC   C3A47285  22.193  29.948   7.050
 6933POPC   C4A47286  22.197  29.947   7.350
 6933POPC   C1B47287  21.870  29.915   6.450
 6933POPC   C2B47288  21.942  29.870   6.750
 6933POPC   C3B47289  21.880  29.922   7.050
 6933POPC   C4B47290  21.951  29.917   7.350
 6934POPC   NC347291  28.382   5.820   5.550
 6934POPC   PO447292  28.396   5.885   5.850
 6934POPC   GL147293  28.344   5.832   6.150
 6934POPC   GL247294  28.445   5.807   6.150
 6934POPC   C1A47295  28.358   5.826   6.450
 6934POPC   D2A47296  28.406   5.866   6.750
 6934POPC   C3A47297  28.410   5.904   7.050
 6934POPC   C4A47298  28.395   5.837   7.350
 6934POPC   C1B47299  28.553   5.698   6.450
 6934POPC   C2B47300  28.575   5.670   6.750
 6934POPC   C3B47301  28.563   5.749   7.050
 6934POPC   C4B47302  28.613   5.748   7.350
 6935POPC   NC347303  23.726  33.797   5.550
 6935POPC   PO447304  23.709  33.787   5.850
 6935POPC   GL147305  23.678  33.781   6.150
 6935POPC   GL247306  23.663  33.877   6.150
 6935POPC   C1A47307  23.688  33.789   6.450
 6935POPC   D2A47308  23.688  33.815   6.750
 6935POPC   C3A47309  23.747  33.834   7.050
 6935POPC   C4A47310  23.737  33.776   7.350
 6935POPC   C1B47311  23.624  34.024   6.450
 6935POPC   C2B47312  23.632  34.022   6.750
 6935POPC   C3B47313  23.715  34.065   7.050
 6935POPC   C4B47314  23.655  34.071   7.350
 6936POPC   NC347315  33.771  36.103   5.550
 6936POPC   PO447316  33.841  36.108   5.850
 6936POPC   GL147317  33.848  36.100   6.150
 6936POPC   GL247318  33.927  36.075   6.150
 6936POPC   C1A47319  33.796  36.111   6.450
 6936POPC   D2A47320  33.822  36.118   6.750
 6936POPC   C3A47321  33.773  36.095   7.050
 6936POPC   C4A47322  33.795  36.141   7.350
 6936POPC   C1B47323  34.015  36.081   6.450
 6936POPC   C2B47324  34.028  36.078   6.750
 6936POPC   C3B47325  34.066  36.047   7.050
 6936POPC   C4B47326  34.040  36.047   7.350
 6937POPC   NC347327  18.266  40.796   5.550
 6937POPC   PO447328  18.277  40.815   5.850
 6937POPC   GL147329  18.241  40.796   6.150
 6937POPC   GL247330  18.313  40.708   6.150
 6937POPC   C1A47331  18.256  40.781   6.450
 6937POPC   D2A47332  18.326  40.816   6.750
 6937POPC   C3A47333  18.333  40.822   7.050
 6937POPC   C4A47334  18.237  40.755   7.350
 6937POPC   C1B47335  18.377  40.555   6.450
 6937POPC   C2B47336  18.296  40.515   6.750
 6937POPC   C3B47337  18.303  40.539   7.050
 6937POPC   C4B47338  18.389  40.543   7.350
 6938POPC   NC347339  32.230  25.275   5.550
 6938POPC   PO447340  32.203  25.282   5.850
 6938POPC   GL147341  32.220  25.243   6.150
 6938POPC   GL247342  32.366  25.216   6.150
 6938POPC   C1A47343  32.228  25.223   6.450
 6938POPC   D2A47344  32.223  25.264   6.750
 6938POPC   C3A47345  32.283  25.238   7.050
 6938POPC   C4A47346  32.220  25.222   7.350
 6938POPC   C1B47347  32.475  25.106   6.450
 6938POPC   C2B47348  32.448  25.054   6.750
 6938POPC   C3B47349  32.418  25.089   7.050
 6938POPC   C4B47350  32.398  25.104   7.350
 6939POPC   NC347351  19.051  36.154   5.550
 6939POPC   PO447352  19.095  36.168   5.850
 6939POPC   GL147353  19.062  36.149   6.150
 6939POPC   GL247354  19.229  36.128   6.150
 6939POPC   C1A47355  19.051  36.157   6.450
 6939POPC   D2A47356  19.016  36.165   6.750
 6939POPC   C3A47357  19.103  36.155   7.050
 6939POPC   C4A47358  19.052  36.129   7.350
 6939POPC   C1B47359  19.336  36.072   6.450
 6939POPC   C2B47360  19.272  36.140   6.750
 6939POPC   C3B47361  19.299  36.098   7.050
 6939POPC   C4B47362  19.315  36.107   7.350
 6940POPC   NC347363  22.916  27.635   5.550
 6940POPC   PO447364  22.906  27.559   5.850
 6940POPC   GL147365  22.959  27.552   6.150
 6940POPC   GL247366  23.004  27.517   6.150
 6940POPC   C1A47367  22.901  27.614   6.450
 6940POPC   D2A47368  22.975  27.555   6.750
 6940POPC   C3A47369  22.923  27.633   7.050
 6940POPC   C4A47370  22.939  27.628   7.350
 6940POPC   C1B47371  23.190  27.408   6.450
 6940POPC   C2B47372  23.185  27.412   6.750
 6940POPC   C3B47373  23.106  27.427   7.050
 6940POPC   C4B47374  23.189  27.478   7.350
 6941POPC   NC347375   6.693   1.216   5.550
 6941POPC   PO447376   6.606   1.220   5.850
 6941POPC   GL147377   6.616   1.260   6.150
 6941POPC   GL247378   6.639   1.300   6.150
 6941POPC   C1A47379   6.601   1.220   6.450
 6941POPC   D2A47380   6.651   1.219   6.750
 6941POPC   C3A47381   6.612   1.181   7.050
 6941POPC   C4A47382   6.686   1.211   7.350
 6941POPC   C1B47383   6.583   1.500   6.450
 6941POPC   C2B47384   6.590   1.438   6.750
 6941POPC   C3B47385   6.595   1.452   7.050
 6941POPC   C4B47386   6.663   1.499   7.350
 6942POPC   NC347387  27.571   2.737   5.550
 6942POPC   PO447388  27.568   2.726   5.850
 6942POPC   GL147389  27.638   2.755   6.150
 6942POPC   GL247390  27.530   2.681   6.150
 6942POPC   C1A47391  27.604   2.721   6.450
 6942POPC   D2A47392  27.568   2.815   6.750
 6942POPC   C3A47393  27.628   2.729   7.050
 6942POPC   C4A47394  27.594   2.782   7.350
 6942POPC   C1B47395  27.474   2.513   6.450
 6942POPC   C2B47396  27.447   2.598   6.750
 6942POPC   C3B47397  27.424   2.585   7.050
 6942POPC   C4B47398  27.415   2.556   7.350
 6943POPC   NC347399  41.544  18.327   5.550
 6943POPC   PO447400  41.546  18.240   5.850
 6943POPC   GL147401  41.607  18.243   6.150
 6943POPC   GL247402  41.414  18.270   6.150
 6943POPC   C1A47403  41.599  18.234   6.450
 6943POPC   D2A47404  41.583  18.284   6.750
 6943POPC   C3A47405  41.564  18.308   7.050
 6943POPC   C4A47406  41.538  18.234   7.350
 6943POPC   C1B47407  41.335  18.316   6.450
 6943POPC   C2B47408  41.261  18.237   6.750
 6943POPC   C3B47409  41.357  18.274   7.050
 6943POPC   C4B47410  41.282  18.241   7.350
 6944POPC   NC347411   6.604  29.970   5.550
 6944POPC   PO447412   6.665  29.933   5.850
 6944POPC   GL147413   6.657  29.891   6.150
 6944POPC   GL247414   6.504  29.901   6.150
 6944POPC   C1A47415   6.595  29.889   6.450
 6944POPC   D2A47416   6.597  29.900   6.750
 6944POPC   C3A47417   6.680  29.879   7.050
 6944POPC   C4A47418   6.651  29.877   7.350
 6944POPC   C1B47419   6.406  29.884   6.450
 6944POPC   C2B47420   6.369  29.896   6.750
 6944POPC   C3B47421   6.415  29.854   7.050
 6944POPC   C4B47422   6.390  29.935   7.350
 6945POPC   NC347423  18.275  37.658   5.550
 6945POPC   PO447424  18.281  37.630   5.850
 6945POPC   GL147425  18.326  37.670   6.150
 6945POPC   GL247426  18.222  37.653   6.150
 6945POPC   C1A47427  18.251  37.642   6.450
 6945POPC   D2A47428  18.311  37.636   6.750
 6945POPC   C3A47429  18.327  37.695   7.050
 6945POPC   C4A47430  18.240  37.717   7.350
 6945POPC   C1B47431  18.045  37.551   6.450
 6945POPC   C2B47432  18.092  37.498   6.750
 6945POPC   C3B47433  18.046  37.531   7.050
 6945POPC   C4B47434  18.094  37.534   7.350
 6946POPC   NC347435  40.812   8.937   5.550
 6946POPC   PO447436  40.735   8.976   5.850
 6946POPC   GL147437  40.738   8.946   6.150
 6946POPC   GL247438  40.833   9.099   6.150
 6946POPC   C1A47439  40.816   8.990   6.450
 6946POPC   D2A47440  40.801   9.009   6.750
 6946POPC   C3A47441  40.793   8.950   7.050
 6946POPC   C4A47442  40.792   8.938   7.350
 6946POPC   C1B47443  40.939   9.124   6.450
 6946POPC   C2B47444  40.939   9.184   6.750
 6946POPC   C3B47445  40.930   9.181   7.050
 6946POPC   C4B47446  40.980   9.153   7.350
 6947POPC   NC347447   3.571   1.231   5.550
 6947POPC   PO447448   3.564   1.236   5.850
 6947POPC   GL147449   3.495   1.261   6.150
 6947POPC   GL247450   3.427   1.201   6.150
 6947POPC   C1A47451   3.496   1.222   6.450
 6947POPC   D2A47452   3.566   1.222   6.750
 6947POPC   C3A47453   3.536   1.175   7.050
 6947POPC   C4A47454   3.530   1.251   7.350
 6947POPC   C1B47455   3.333   1.234   6.450
 6947POPC   C2B47456   3.278   1.195   6.750
 6947POPC   C3B47457   3.266   1.235   7.050
 6947POPC   C4B47458   3.295   1.212   7.350
 6948POPC   NC347459  29.112   7.407   5.550
 6948POPC   PO447460  29.192   7.388   5.850
 6948POPC   GL147461  29.132   7.394   6.150
 6948POPC   GL247462  29.065   7.386   6.150
 6948POPC   C1A47463  29.113   7.422   6.450
 6948POPC   D2A47464  29.152   7.460   6.750
 6948POPC   C3A47465  29.179   7.447   7.050
 6948POPC   C4A47466  29.151   7.408   7.350
 6948POPC   C1B47467  28.935   7.322   6.450
 6948POPC   C2B47468  28.889   7.307   6.750
 6948POPC   C3B47469  28.925   7.283   7.050
 6948POPC   C4B47470  28.969   7.325   7.350
 6949POPC   NC347471  20.641  35.330   5.550
 6949POPC   PO447472  20.655  35.394   5.850
 6949POPC   GL147473  20.635  35.314   6.150
 6949POPC   GL247474  20.477  35.443   6.150
 6949POPC   C1A47475  20.565  35.370   6.450
 6949POPC   D2A47476  20.644  35.374   6.750
 6949POPC   C3A47477  20.592  35.325   7.050
 6949POPC   C4A47478  20.572  35.392   7.350
 6949POPC   C1B47479  20.386  35.422   6.450
 6949POPC   C2B47480  20.410  35.418   6.750
 6949POPC   C3B47481  20.389  35.464   7.050
 6949POPC   C4B47482  20.360  35.440   7.350
 6950POPC   NC347483   6.600   5.881   5.550
 6950POPC   PO447484   6.674   5.882   5.850
 6950POPC   GL147485   6.674   5.872   6.150
 6950POPC   GL247486   6.581   5.811   6.150
 6950POPC   C1A47487   6.610   5.876   6.450
 6950POPC   D2A47488   6.666   5.868   6.750
 6950POPC   C3A47489   6.647   5.851   7.050
 6950POPC   C4A47490   6.641   5.901   7.350
 6950POPC   C1B47491   6.475   5.743   6.450
 6950POPC   C2B47492   6.485   5.743   6.750
 6950POPC   C3B47493   6.490   5.671   7.050
 6950POPC   C4B47494   6.409   5.712   7.350
 6951POPC   NC347495  44.678  34.532   5.550
 6951POPC   PO447496  44.690  34.587   5.850
 6951POPC   GL147497  44.670  34.579   6.150
 6951POPC   GL247498  44.751  34.454   6.150
 6951POPC   C1A47499  44.633  34.585   6.450
 6951POPC   D2A47500  44.646  34.617   6.750
 6951POPC   C3A47501  44.705  34.569   7.050
 6951POPC   C4A47502  44.654  34.577   7.350
 6951POPC   C1B47503  44.776  34.306   6.450
 6951POPC   C2B47504  44.732  34.319   6.750
 6951POPC   C3B47505  44.738  34.300   7.050
 6951POPC   C4B47506  44.720  34.349   7.350
 6952POPC   NC347507  31.481  25.231   5.550
 6952POPC   PO447508  31.450  25.264   5.850
 6952POPC   GL147509  31.500  25.275   6.150
 6952POPC   GL247510  31.641  25.298   6.150
 6952POPC   C1A47511  31.501  25.254   6.450
 6952POPC   D2A47512  31.467  25.248   6.750
 6952POPC   C3A47513  31.486  25.258   7.050
 6952POPC   C4A47514  31.456  25.264   7.350
 6952POPC   C1B47515  31.761  25.260   6.450
 6952POPC   C2B47516  31.717  25.294   6.750
 6952POPC   C3B47517  31.687  25.284   7.050
 6952POPC   C4B47518  31.691  25.270   7.350
 6953POPC   NC347519  43.126  10.489   5.550
 6953POPC   PO447520  43.089  10.542   5.850
 6953POPC   GL147521  43.077  10.572   6.150
 6953POPC   GL247522  43.048  10.410   6.150
 6953POPC   C1A47523  43.089  10.500   6.450
 6953POPC   D2A47524  43.135  10.562   6.750
 6953POPC   C3A47525  43.091  10.492   7.050
 6953POPC   C4A47526  43.065  10.531   7.350
 6953POPC   C1B47527  43.003  10.248   6.450
 6953POPC   C2B47528  43.029  10.281   6.750
 6953POPC   C3B47529  43.047  10.325   7.050
 6953POPC   C4B47530  43.072  10.239   7.350
 6954POPC   NC347531  19.032  15.934   5.550
 6954POPC   PO447532  19.029  15.960   5.850
 6954POPC   GL147533  19.060  15.995   6.150
 6954POPC   GL247534  19.182  16.010   6.150
 6954POPC   C1A47535  19.079  15.926   6.450
 6954POPC   D2A47536  19.022  15.932   6.750
 6954POPC   C3A47537  19.058  15.910   7.050
 6954POPC   C4A47538  19.083  15.931   7.350
 6954POPC   C1B47539  19.315  16.036   6.450
 6954POPC   C2B47540  19.300  15.981   6.750
 6954POPC   C3B47541  19.310  16.055   7.050
 6954POPC   C4B47542  19.317  16.027   7.350
 6955POPC   NC347543   0.434  34.600   5.550
 6955POPC   PO447544   0.423  34.624   5.850
 6955POPC   GL147545   0.475  34.531   6.150
 6955POPC   GL247546   0.551  34.637   6.150
 6955POPC   C1A47547   0.437  34.622   6.450
 6955POPC   D2A47548   0.412  34.588   6.750
 6955POPC   C3A47549   0.413  34.602   7.050
 6955POPC   C4A47550   0.447  34.552   7.350
 6955POPC   C1B47551   0.692  34.677   6.450
 6955POPC   C2B47552   0.686  34.662   6.750
 6955POPC   C3B47553   0.610  34.722   7.050
 6955POPC   C4B47554   0.662  34.711   7.350
 6956POPC   NC347555   7.460   4.341   5.550
 6956POPC   PO447556   7.420   4.354   5.850
 6956POPC   GL147557   7.428   4.351   6.150
 6956POPC   GL247558   7.411   4.161   6.150
 6956POPC   C1A47559   7.437   4.358   6.450
 6956POPC   D2A47560   7.425   4.358   6.750
 6956POPC   C3A47561   7.468   4.320   7.050
 6956POPC   C4A47562   7.377   4.336   7.350
 6956POPC   C1B47563   7.432   4.068   6.450
 6956POPC   C2B47564   7.376   4.101   6.750
 6956POPC   C3B47565   7.403   4.037   7.050
 6956POPC   C4B47566   7.397   4.103   7.350
 6957POPC   NC347567  21.365  26.013   5.550
 6957POPC   PO447568  21.414  26.068   5.850
 6957POPC   GL147569  21.428  26.036   6.150
 6957POPC   GL247570  21.528  26.009   6.150
 6957POPC   C1A47571  21.351  26.000   6.450
 6957POPC   D2A47572  21.390  26.019   6.750
 6957POPC   C3A47573  21.431  26.069   7.050
 6957POPC   C4A47574  21.397  26.049   7.350
 6957POPC   C1B47575  21.661  25.895   6.450
 6957POPC   C2B47576  21.597  25.921   6.750
 6957POPC   C3B47577  21.610  25.893   7.050
 6957POPC   C4B47578  21.633  25.976   7.350
 6958POPC   NC347579  42.313  29.166   5.550
 6958POPC   PO447580  42.367  29.192   5.850
 6958POPC   GL147581  42.292  29.121   6.150
 6958POPC   GL247582  42.355  28.976   6.150
 6958POPC   C1A47583  42.302  29.182   6.450
 6958POPC   D2A47584  42.381  29.140   6.750
 6958POPC   C3A47585  42.298  29.193   7.050
 6958POPC   C4A47586  42.285  29.127   7.350
 6958POPC   C1B47587  42.406  28.915   6.450
 6958POPC   C2B47588  42.429  28.894   6.750
 6958POPC   C3B47589  42.370  28.873   7.050
 6958POPC   C4B47590  42.433  28.898   7.350
 6959POPC   NC347591  43.842  26.785   5.550
 6959POPC   PO447592  43.845  26.842   5.850
 6959POPC   GL147593  43.848  26.838   6.150
 6959POPC   GL247594  43.783  26.857   6.150
 6959POPC   C1A47595  43.909  26.806   6.450
 6959POPC   D2A47596  43.891  26.840   6.750
 6959POPC   C3A47597  43.871  26.841   7.050
 6959POPC   C4A47598  43.926  26.821   7.350
 6959POPC   C1B47599  43.686  26.918   6.450
 6959POPC   C2B47600  43.734  26.927   6.750
 6959POPC   C3B47601  43.655  26.917   7.050
 6959POPC   C4B47602  43.655  26.996   7.350
 6960POPC   NC347603  34.540  17.476   5.550
 6960POPC   PO447604  34.606  17.493   5.850
 6960POPC   GL147605  34.622  17.474   6.150
 6960POPC   GL247606  34.537  17.393   6.150
 6960POPC   C1A47607  34.569  17.551   6.450
 6960POPC   D2A47608  34.576  17.526   6.750
 6960POPC   C3A47609  34.578  17.481   7.050
 6960POPC   C4A47610  34.603  17.532   7.350
 6960POPC   C1B47611  34.516  17.273   6.450
 6960POPC   C2B47612  34.561  17.243   6.750
 6960POPC   C3B47613  34.565  17.231   7.050
 6960POPC   C4B47614  34.563  17.221   7.350
 6961POPC   NC347615  44.706  32.230   5.550
 6961POPC   PO447616  44.668  32.240   5.850
 6961POPC   GL147617  44.665  32.203   6.150
 6961POPC   GL247618  44.563  32.243   6.150
 6961POPC   C1A47619  44.645  32.203   6.450
 6961POPC   D2A47620  44.694  32.287   6.750
 6961POPC   C3A47621  44.710  32.290   7.050
 6961POPC   C4A47622  44.650  32.298   7.350
 6961POPC   C1B47623  44.442  32.233   6.450
 6961POPC   C2B47624  44.445  32.197   6.750
 6961POPC   C3B47625  44.391  32.266   7.050
 6961POPC   C4B47626  44.452  32.266   7.350
 6962POPC   NC347627   1.210  35.349   5.550
 6962POPC   PO447628   1.208  35.398   5.850
 6962POPC   GL147629   1.216  35.344   6.150
 6962POPC   GL247630   1.355  35.437   6.150
 6962POPC   C1A47631   1.248  35.362   6.450
 6962POPC   D2A47632   1.255  35.318   6.750
 6962POPC   C3A47633   1.203  35.304   7.050
 6962POPC   C4A47634   1.224  35.377   7.350
 6962POPC   C1B47635   1.438  35.469   6.450
 6962POPC   C2B47636   1.379  35.495   6.750
 6962POPC   C3B47637   1.458  35.513   7.050
 6962POPC   C4B47638   1.433  35.541   7.350
 6963POPC   NC347639  36.898  13.652   5.550
 6963POPC   PO447640  36.902  13.638   5.850
 6963POPC   GL147641  36.905  13.589   6.150
 6963POPC   GL247642  36.789  13.605   6.150
 6963POPC   C1A47643  36.860  13.631   6.450
 6963POPC   D2A47644  36.886  13.641   6.750
 6963POPC   C3A47645  36.940  13.654   7.050
 6963POPC   C4A47646  36.866  13.633   7.350
 6963POPC   C1B47647  36.716  13.574   6.450
 6963POPC   C2B47648  36.698  13.554   6.750
 6963POPC   C3B47649  36.697  13.547   7.050
 6963POPC   C4B47650  36.678  13.524   7.350
 6964POPC   NC347651  39.990   1.169   5.550
 6964POPC   PO447652  40.005   1.206   5.850
 6964POPC   GL147653  40.043   1.198   6.150
 6964POPC   GL247654  39.999   1.301   6.150
 6964POPC   C1A47655  39.989   1.212   6.450
 6964POPC   D2A47656  40.007   1.244   6.750
 6964POPC   C3A47657  39.960   1.192   7.050
 6964POPC   C4A47658  40.056   1.185   7.350
 6964POPC   C1B47659  39.901   1.484   6.450
 6964POPC   C2B47660  39.867   1.411   6.750
 6964POPC   C3B47661  39.955   1.438   7.050
 6964POPC   C4B47662  39.926   1.409   7.350
 6965POPC   NC347663   5.050   5.823   5.550
 6965POPC   PO447664   5.128   5.845   5.850
 6965POPC   GL147665   5.114   5.844   6.150
 6965POPC   GL247666   5.151   5.776   6.150
 6965POPC   C1A47667   5.129   5.865   6.450
 6965POPC   D2A47668   5.101   5.845   6.750
 6965POPC   C3A47669   5.078   5.886   7.050
 6965POPC   C4A47670   5.096   5.898   7.350
 6965POPC   C1B47671   5.262   5.695   6.450
 6965POPC   C2B47672   5.333   5.773   6.750
 6965POPC   C3B47673   5.303   5.760   7.050
 6965POPC   C4B47674   5.329   5.682   7.350
 6966POPC   NC347675  35.378  43.843   5.550
 6966POPC   PO447676  35.390  43.846   5.850
 6966POPC   GL147677  35.376  43.851   6.150
 6966POPC   GL247678  35.411  43.786   6.150
 6966POPC   C1A47679  35.312  43.920   6.450
 6966POPC   D2A47680  35.326  43.853   6.750
 6966POPC   C3A47681  35.350  43.866   7.050
 6966POPC   C4A47682  35.314  43.876   7.350
 6966POPC   C1B47683  35.478  43.684   6.450
 6966POPC   C2B47684  35.482  43.697   6.750
 6966POPC   C3B47685  35.466  43.633   7.050
 6966POPC   C4B47686  35.457  43.647   7.350
 6967POPC   NC347687  22.163   4.295   5.550
 6967POPC   PO447688  22.200   4.348   5.850
 6967POPC   GL147689  22.173   4.322   6.150
 6967POPC   GL247690  22.043   4.367   6.150
 6967POPC   C1A47691  22.115   4.351   6.450
 6967POPC   D2A47692  22.151   4.364   6.750
 6967POPC   C3A47693  22.204   4.325   7.050
 6967POPC   C4A47694  22.152   4.292   7.350
 6967POPC   C1B47695  21.998   4.466   6.450
 6967POPC   C2B47696  21.986   4.461   6.750
 6967POPC   C3B47697  22.011   4.540   7.050
 6967POPC   C4B47698  22.013   4.482   7.350
 6968POPC   NC347699   5.824  36.124   5.550
 6968POPC   PO447700   5.912  36.169   5.850
 6968POPC   GL147701   5.826  36.134   6.150
 6968POPC   GL247702   5.983  36.057   6.150
 6968POPC   C1A47703   5.887  36.127   6.450
 6968POPC   D2A47704   5.917  36.162   6.750
 6968POPC   C3A47705   5.860  36.089   7.050
 6968POPC   C4A47706   5.903  36.152   7.350
 6968POPC   C1B47707   6.053  35.940   6.450
 6968POPC   C2B47708   6.034  35.909   6.750
 6968POPC   C3B47709   6.021  35.910   7.050
 6968POPC   C4B47710   6.064  35.931   7.350
 6969POPC   NC347711  43.073  29.949   5.550
 6969POPC   PO447712  43.062  29.918   5.850
 6969POPC   GL147713  43.153  29.930   6.150
 6969POPC   GL247714  43.224  29.883   6.150
 6969POPC   C1A47715  43.125  29.959   6.450
 6969POPC   D2A47716  43.074  29.896   6.750
 6969POPC   C3A47717  43.114  29.876   7.050
 6969POPC   C4A47718  43.109  29.885   7.350
 6969POPC   C1B47719  43.275  29.724   6.450
 6969POPC   C2B47720  43.279  29.773   6.750
 6969POPC   C3B47721  43.271  29.740   7.050
 6969POPC   C4B47722  43.325  29.730   7.350
 6970POPC   NC347723   9.709  27.568   5.550
 6970POPC   PO447724   9.723  27.546   5.850
 6970POPC   GL147725   9.797  27.560   6.150
 6970POPC   GL247726   9.878  27.551   6.150
 6970POPC   C1A47727   9.758  27.610   6.450
 6970POPC   D2A47728   9.767  27.625   6.750
 6970POPC   C3A47729   9.765  27.557   7.050
 6970POPC   C4A47730   9.730  27.597   7.350
 6970POPC   C1B47731   9.980  27.636   6.450
 6970POPC   C2B47732   9.976  27.583   6.750
 6970POPC   C3B47733   9.983  27.630   7.050
 6970POPC   C4B47734  10.011  27.624   7.350
 6971POPC   NC347735  41.608  15.916   5.550
 6971POPC   PO447736  41.532  15.931   5.850
 6971POPC   GL147737  41.512  15.984   6.150
 6971POPC   GL247738  41.455  15.890   6.150
 6971POPC   C1A47739  41.537  15.907   6.450
 6971POPC   D2A47740  41.587  15.912   6.750
 6971POPC   C3A47741  41.548  15.972   7.050
 6971POPC   C4A47742  41.595  15.915   7.350
 6971POPC   C1B47743  41.383  15.836   6.450
 6971POPC   C2B47744  41.342  15.829   6.750
 6971POPC   C3B47745  41.317  15.788   7.050
 6971POPC   C4B47746  41.353  15.809   7.350
 6972POPC   NC347747   5.084  19.860   5.550
 6972POPC   PO447748   5.090  19.827   5.850
 6972POPC   GL147749   5.052  19.812   6.150
 6972POPC   GL247750   4.996  19.803   6.150
 6972POPC   C1A47751   5.091  19.824   6.450
 6972POPC   D2A47752   5.075  19.834   6.750
 6972POPC   C3A47753   5.070  19.847   7.050
 6972POPC   C4A47754   5.067  19.855   7.350
 6972POPC   C1B47755   4.815  19.882   6.450
 6972POPC   C2B47756   4.878  19.889   6.750
 6972POPC   C3B47757   4.860  19.855   7.050
 6972POPC   C4B47758   4.843  19.832   7.350
 6973POPC   NC347759  22.154   5.123   5.550
 6973POPC   PO447760  22.197   5.078   5.850
 6973POPC   GL147761  22.147   5.096   6.150
 6973POPC   GL247762  22.081   5.003   6.150
 6973POPC   C1A47763  22.159   5.052   6.450
 6973POPC   D2A47764  22.151   5.097   6.750
 6973POPC   C3A47765  22.163   5.092   7.050
 6973POPC   C4A47766  22.156   5.095   7.350
 6973POPC   C1B47767  21.973   4.914   6.450
 6973POPC   C2B47768  21.905   4.981   6.750
 6973POPC   C3B47769  21.917   4.993   7.050
 6973POPC   C4B47770  21.970   4.950   7.350
 6974POPC   NC347771  28.407  29.110   5.550
 6974POPC   PO447772  28.335  29.143   5.850
 6974POPC   GL147773  28.338  29.146   6.150
 6974POPC   GL247774  28.435  29.254   6.150
 6974POPC   C1A47775  28.393  29.116   6.450
 6974POPC   D2A47776  28.356  29.127   6.750
 6974POPC   C3A47777  28.365  29.177   7.050
 6974POPC   C4A47778  28.401  29.156   7.350
 6974POPC   C1B47779  28.494  29.404   6.450
 6974POPC   C2B47780  28.466  29.361   6.750
 6974POPC   C3B47781  28.492  29.373   7.050
 6974POPC   C4B47782  28.487  29.413   7.350
 6975POPC   NC347783  16.731  15.978   5.550
 6975POPC   PO447784  16.720  15.988   5.850
 6975POPC   GL147785  16.776  15.985   6.150
 6975POPC   GL247786  16.870  15.919   6.150
 6975POPC   C1A47787  16.719  15.950   6.450
 6975POPC   D2A47788  16.688  15.936   6.750
 6975POPC   C3A47789  16.745  15.937   7.050
 6975POPC   C4A47790  16.759  15.994   7.350
 6975POPC   C1B47791  16.953  15.957   6.450
 6975POPC   C2B47792  16.963  15.968   6.750
 6975POPC   C3B47793  16.968  15.944   7.050
 6975POPC   C4B47794  17.027  15.939   7.350
 6976POPC   NC347795  29.898  35.344   5.550
 6976POPC   PO447796  29.956  35.357   5.850
 6976POPC   GL147797  29.954  35.305   6.150
 6976POPC   GL247798  29.925  35.458   6.150
 6976POPC   C1A47799  29.930  35.390   6.450
 6976POPC   D2A47800  29.930  35.350   6.750
 6976POPC   C3A47801  29.905  35.316   7.050
 6976POPC   C4A47802  29.871  35.379   7.350
 6976POPC   C1B47803  29.874  35.564   6.450
 6976POPC   C2B47804  29.804  35.600   6.750
 6976POPC   C3B47805  29.817  35.543   7.050
 6976POPC   C4B47806  29.816  35.595   7.350
 6977POPC   NC347807   6.622  39.247   5.550
 6977POPC   PO447808   6.651  39.211   5.850
 6977POPC   GL147809   6.674  39.196   6.150
 6977POPC   GL247810   6.610  39.110   6.150
 6977POPC   C1A47811   6.672  39.229   6.450
 6977POPC   D2A47812   6.651  39.226   6.750
 6977POPC   C3A47813   6.661  39.198   7.050
 6977POPC   C4A47814   6.670  39.219   7.350
 6977POPC   C1B47815   6.506  39.067   6.450
 6977POPC   C2B47816   6.448  39.041   6.750
 6977POPC   C3B47817   6.514  39.041   7.050
 6977POPC   C4B47818   6.494  39.035   7.350
 6978POPC   NC347819  10.486  15.918   5.550
 6978POPC   PO447820  10.481  15.989   5.850
 6978POPC   GL147821  10.520  15.953   6.150
 6978POPC   GL247822  10.600  16.014   6.150
 6978POPC   C1A47823  10.528  15.945   6.450
 6978POPC   D2A47824  10.489  15.923   6.750
 6978POPC   C3A47825  10.489  15.985   7.050
 6978POPC   C4A47826  10.544  15.945   7.350
 6978POPC   C1B47827  10.678  16.131   6.450
 6978POPC   C2B47828  10.664  16.177   6.750
 6978POPC   C3B47829  10.631  16.144   7.050
 6978POPC   C4B47830  10.645  16.169   7.350
 6979POPC   NC347831  23.693  34.606   5.550
 6979POPC   PO447832  23.735  34.527   5.850
 6979POPC   GL147833  23.711  34.622   6.150
 6979POPC   GL247834  23.593  34.537   6.150
 6979POPC   C1A47835  23.682  34.547   6.450
 6979POPC   D2A47836  23.688  34.572   6.750
 6979POPC   C3A47837  23.695  34.563   7.050
 6979POPC   C4A47838  23.674  34.581   7.350
 6979POPC   C1B47839  23.493  34.553   6.450
 6979POPC   C2B47840  23.504  34.506   6.750
 6979POPC   C3B47841  23.450  34.543   7.050
 6979POPC   C4B47842  23.439  34.547   7.350
 6980POPC   NC347843  29.911  16.772   5.550
 6980POPC   PO447844  29.895  16.696   5.850
 6980POPC   GL147845  29.909  16.725   6.150
 6980POPC   GL247846  29.840  16.848   6.150
 6980POPC   C1A47847  29.910  16.706   6.450
 6980POPC   D2A47848  29.955  16.697   6.750
 6980POPC   C3A47849  29.893  16.698   7.050
 6980POPC   C4A47850  29.950  16.736   7.350
 6980POPC   C1B47851  29.758  16.934   6.450
 6980POPC   C2B47852  29.732  16.955   6.750
 6980POPC   C3B47853  29.745  16.906   7.050
 6980POPC   C4B47854  29.734  16.965   7.350
 6981POPC   NC347855   0.441  43.894   5.550
 6981POPC   PO447856   0.418  43.882   5.850
 6981POPC   GL147857   0.470  43.924   6.150
 6981POPC   GL247858   0.447  43.811   6.150
 6981POPC   C1A47859   0.452  43.923   6.450
 6981POPC   D2A47860   0.402  43.861   6.750
 6981POPC   C3A47861   0.449  43.881   7.050
 6981POPC   C4A47862   0.410  43.924   7.350
 6981POPC   C1B47863   0.323  43.611   6.450
 6981POPC   C2B47864   0.405  43.634   6.750
 6981POPC   C3B47865   0.362  43.605   7.050
 6981POPC   C4B47866   0.374  43.644   7.350
 6982POPC   NC347867   2.006  12.081   5.550
 6982POPC   PO447868   2.034  12.085   5.850
 6982POPC   GL147869   1.974  12.092   6.150
 6982POPC   GL247870   1.940  11.916   6.150
 6982POPC   C1A47871   1.988  12.056   6.450
 6982POPC   D2A47872   1.975  12.071   6.750
 6982POPC   C3A47873   1.988  12.090   7.050
 6982POPC   C4A47874   2.036  12.084   7.350
 6982POPC   C1B47875   1.925  11.867   6.450
 6982POPC   C2B47876   1.950  11.871   6.750
 6982POPC   C3B47877   1.916  11.828   7.050
 6982POPC   C4B47878   1.920  11.851   7.350
 6983POPC   NC347879  22.962  15.181   5.550
 6983POPC   PO447880  22.971  15.213   5.850
 6983POPC   GL147881  22.972  15.170   6.150
 6983POPC   GL247882  23.048  15.139   6.150
 6983POPC   C1A47883  22.895  15.222   6.450
 6983POPC   D2A47884  22.944  15.156   6.750
 6983POPC   C3A47885  22.895  15.187   7.050
 6983POPC   C4A47886  22.975  15.137   7.350
 6983POPC   C1B47887  23.179  15.037   6.450
 6983POPC   C2B47888  23.153  15.053   6.750
 6983POPC   C3B47889  23.187  15.047   7.050
 6983POPC   C4B47890  23.163  15.062   7.350
 6984POPC   NC347891  13.656   8.184   5.550
 6984POPC   PO447892  13.678   8.180   5.850
 6984POPC   GL147893  13.644   8.243   6.150
 6984POPC   GL247894  13.534   8.254   6.150
 6984POPC   C1A47895  13.633   8.190   6.450
 6984POPC   D2A47896  13.607   8.159   6.750
 6984POPC   C3A47897  13.625   8.240   7.050
 6984POPC   C4A47898  13.638   8.162   7.350
 6984POPC   C1B47899  13.356   8.331   6.450
 6984POPC   C2B47900  13.362   8.277   6.750
 6984POPC   C3B47901  13.345   8.261   7.050
 6984POPC   C4B47902  13.417   8.255   7.350
 6985POPC   NC347903  33.818  16.706   5.550
 6985POPC   PO447904  33.763  16.688   5.850
 6985POPC   GL147905  33.759  16.730   6.150
 6985POPC   GL247906  33.711  16.654   6.150
 6985POPC   C1A47907  33.783  16.744   6.450
 6985POPC   D2A47908  33.837  16.700   6.750
 6985POPC   C3A47909  33.762  16.689   7.050
 6985POPC   C4A47910  33.756  16.776   7.350
 6985POPC   C1B47911  33.617  16.560   6.450
 6985POPC   C2B47912  33.555  16.622   6.750
 6985POPC   C3B47913  33.608  16.651   7.050
 6985POPC   C4B47914  33.540  16.588   7.350
 6986POPC   NC347915  11.341   0.468   5.550
 6986POPC   PO447916  11.263   0.431   5.850
 6986POPC   GL147917  11.348   0.437   6.150
 6986POPC   GL247918  11.230   0.503   6.150
 6986POPC   C1A47919  11.264   0.456   6.450
 6986POPC   D2A47920  11.277   0.389   6.750
 6986POPC   C3A47921  11.301   0.448   7.050
 6986POPC   C4A47922  11.338   0.453   7.350
 6986POPC   C1B47923  11.045   0.539   6.450
 6986POPC   C2B47924  11.036   0.564   6.750
 6986POPC   C3B47925  11.123   0.598   7.050
 6986POPC   C4B47926  11.085   0.601   7.350
 6987POPC   NC347927  40.055  22.971   5.550
 6987POPC   PO447928  40.051  22.891   5.850
 6987POPC   GL147929  39.980  22.987   6.150
 6987POPC   GL247930  39.842  22.922   6.150
 6987POPC   C1A47931  40.043  22.913   6.450
 6987POPC   D2A47932  39.973  22.986   6.750
 6987POPC   C3A47933  39.968  22.909   7.050
 6987POPC   C4A47934  40.041  22.950   7.350
 6987POPC   C1B47935  39.732  23.022   6.450
 6987POPC   C2B47936  39.798  23.003   6.750
 6987POPC   C3B47937  39.720  23.018   7.050
 6987POPC   C4B47938  39.798  22.979   7.350
 6988POPC   NC347939   1.212  40.039   5.550
 6988POPC   PO447940   1.243  39.983   5.850
 6988POPC   GL147941   1.223  40.012   6.150
 6988POPC   GL247942   1.279  40.082   6.150
 6988POPC   C1A47943   1.171  40.000   6.450
 6988POPC   D2A47944   1.215  40.047   6.750
 6988POPC   C3A47945   1.194  40.038   7.050
 6988POPC   C4A47946   1.222  39.984   7.350
 6988POPC   C1B47947   1.322  40.188   6.450
 6988POPC   C2B47948   1.355  40.220   6.750
 6988POPC   C3B47949   1.336  40.184   7.050
 6988POPC   C4B47950   1.370  40.249   7.350
 6989POPC   NC347951  17.481  26.777   5.550
 6989POPC   PO447952  17.471  26.788   5.850
 6989POPC   GL147953  17.460  26.846   6.150
 6989POPC   GL247954  17.639  26.787   6.150
 6989POPC   C1A47955  17.510  26.805   6.450
 6989POPC   D2A47956  17.510  26.856   6.750
 6989POPC   C3A47957  17.552  26.778   7.050
 6989POPC   C4A47958  17.547  26.819   7.350
 6989POPC   C1B47959  17.741  26.712   6.450
 6989POPC   C2B47960  17.774  26.726   6.750
 6989POPC   C3B47961  17.772  26.698   7.050
 6989POPC   C4B47962  17.742  26.691   7.350
 6990POPC   NC347963   9.788   0.482   5.550
 6990POPC   PO447964   9.784   0.445   5.850
 6990POPC   GL147965   9.704   0.483   6.150
 6990POPC   GL247966   9.644   0.361   6.150
 6990POPC   C1A47967   9.719   0.433   6.450
 6990POPC   D2A47968   9.744   0.394   6.750
 6990POPC   C3A47969   9.716   0.459   7.050
 6990POPC   C4A47970   9.762   0.422   7.350
 6990POPC   C1B47971   9.501   0.372   6.450
 6990POPC   C2B47972   9.495   0.351   6.750
 6990POPC   C3B47973   9.480   0.386   7.050
 6990POPC   C4B47974   9.553   0.339   7.350
 6991POPC   NC347975  10.508  25.221   5.550
 6991POPC   PO447976  10.552  25.216   5.850
 6991POPC   GL147977  10.529  25.311   6.150
 6991POPC   GL247978  10.515  25.380   6.150
 6991POPC   C1A47979  10.548  25.230   6.450
 6991POPC   D2A47980  10.476  25.310   6.750
 6991POPC   C3A47981  10.566  25.268   7.050
 6991POPC   C4A47982  10.560  25.224   7.350
 6991POPC   C1B47983  10.455  25.463   6.450
 6991POPC   C2B47984  10.474  25.473   6.750
 6991POPC   C3B47985  10.436  25.530   7.050
 6991POPC   C4B47986  10.512  25.461   7.350
 6992POPC   NC347987  32.982  32.984   5.550
 6992POPC   PO447988  32.984  33.004   5.850
 6992POPC   GL147989  32.979  33.010   6.150
 6992POPC   GL247990  33.030  32.852   6.150
 6992POPC   C1A47991  33.055  33.022   6.450
 6992POPC   D2A47992  33.017  33.064   6.750
 6992POPC   C3A47993  32.984  33.060   7.050
 6992POPC   C4A47994  33.045  33.000   7.350
 6992POPC   C1B47995  33.013  32.730   6.450
 6992POPC   C2B47996  32.944  32.776   6.750
 6992POPC   C3B47997  32.979  32.809   7.050
 6992POPC   C4B47998  32.958  32.760   7.350
 6993POPC   NC347999  18.267  40.004   5.550
 6993POPC   PO448000  18.311  40.010   5.850
 6993POPC   GL148001  18.292  40.034   6.150
 6993POPC   GL248002  18.204  39.901   6.150
 6993POPC   C1A48003  18.242  40.048   6.450
 6993POPC   D2A48004  18.243  40.010   6.750
 6993POPC   C3A48005  18.286  40.005   7.050
 6993POPC   C4A48006  18.324  40.027   7.350
 6993POPC   C1B48007  18.089  39.874   6.450
 6993POPC   C2B48008  18.072  39.845   6.750
 6993POPC   C3B48009  18.065  39.836   7.050
 6993POPC   C4B48010  18.138  39.876   7.350
 6994POPC   NC348011  12.889  16.715   5.550
 6994POPC   PO448012  12.869  16.696   5.850
 6994POPC   GL148013  12.846  16.752   6.150
 6994POPC   GL248014  12.831  16.587   6.150
 6994POPC   C1A48015  12.817  16.773   6.450
 6994POPC   D2A48016  12.851  16.768   6.750
 6994POPC   C3A48017  12.837  16.746   7.050
 6994POPC   C4A48018  12.858  16.773   7.350
 6994POPC   C1B48019  12.754  16.498   6.450
 6994POPC   C2B48020  12.680  16.519   6.750
 6994POPC   C3B48021  12.694  16.521   7.050
 6994POPC   C4B48022  12.769  16.563   7.350
 6995POPC   NC348023   7.374  43.912   5.550
 6995POPC   PO448024   7.450  43.924   5.850
 6995POPC   GL148025   7.470  43.935   6.150
 6995POPC   GL248026   7.293  44.017   6.150
 6995POPC   C1A48027   7.457  43.921   6.450
 6995POPC   D2A48028   7.409  43.841   6.750
 6995POPC   C3A48029   7.470  43.844   7.050
 6995POPC   C4A48030   7.408  43.889   7.350
 6995POPC   C1B48031   7.235  44.092   6.450
 6995POPC   C2B48032   7.218  44.041   6.750
 6995POPC   C3B48033   7.220  44.065   7.050
 6995POPC   C4B48034   7.208  44.058   7.350
 6996POPC   NC348035  20.595  24.537   5.550
 6996POPC   PO448036  20.592  24.478   5.850
 6996POPC   GL148037  20.579  24.521   6.150
 6996POPC   GL248038  20.473  24.474   6.150
 6996POPC   C1A48039  20.610  24.483   6.450
 6996POPC   D2A48040  20.562  24.463   6.750
 6996POPC   C3A48041  20.593  24.441   7.050
 6996POPC   C4A48042  20.612  24.513   7.350
 6996POPC   C1B48043  20.384  24.489   6.450
 6996POPC   C2B48044  20.400  24.464   6.750
 6996POPC   C3B48045  20.398  24.402   7.050
 6996POPC   C4B48046  20.378  24.409   7.350
 6997POPC   NC348047  44.665  24.442   5.550
 6997POPC   PO448048  44.653  24.533   5.850
 6997POPC   GL148049  44.612  24.517   6.150
 6997POPC   GL248050  44.749  24.459   6.150
 6997POPC   C1A48051  44.686  24.468   6.450
 6997POPC   D2A48052  44.668  24.475   6.750
 6997POPC   C3A48053  44.645  24.528   7.050
 6997POPC   C4A48054  44.663  24.480   7.350
 6997POPC   C1B48055  44.890  24.406   6.450
 6997POPC   C2B48056  44.887  24.393   6.750
 6997POPC   C3B48057  44.845  24.362   7.050
 6997POPC   C4B48058  44.893  24.346   7.350
 6998POPC   NC348059  10.554  33.807   5.550
 6998POPC   PO448060  10.563  33.822   5.850
 6998POPC   GL148061  10.498  33.835   6.150
 6998POPC   GL248062  10.477  33.959   6.150
 6998POPC   C1A48063  10.542  33.833   6.450
 6998POPC   D2A48064  10.554  33.793   6.750
 6998POPC   C3A48065  10.484  33.798   7.050
 6998POPC   C4A48066  10.571  33.792   7.350
 6998POPC   C1B48067  10.504  34.002   6.450
 6998POPC   C2B48068  10.465  34.018   6.750
 6998POPC   C3B48069  10.496  34.026   7.050
 6998POPC   C4B48070  10.502  34.074   7.350
 6999POPC   NC348071  26.783  44.632   5.550
 6999POPC   PO448072  26.779  44.674   5.850
 6999POPC   GL148073  26.839  44.613   6.150
 6999POPC   GL248074  26.843  44.737   6.150
 6999POPC   C1A48075  26.827  44.654   6.450
 6999POPC   D2A48076  26.826  44.674   6.750
 6999POPC   C3A48077  26.823  44.667   7.050
 6999POPC   C4A48078  26.822  44.677   7.350
 6999POPC   C1B48079  26.789  44.950   6.450
 6999POPC   C2B48080  26.750  44.865   6.750
 6999POPC   C3B48081  26.734  44.952   7.050
 6999POPC   C4B48082  26.782  44.893   7.350
 7000POPC   NC348083  37.719  40.029   5.550
 7000POPC   PO448084  37.677  39.995   5.850
 7000POPC   GL148085  37.686  40.033   6.150
 7000POPC   GL248086  37.697  40.104   6.150
 7000POPC   C1A48087  37.712  39.961   6.450
 7000POPC   D2A48088  37.662  40.007   6.750
 7000POPC   C3A48089  37.631  39.988   7.050
 7000POPC   C4A48090  37.727  40.002   7.350
 7000POPC   C1B48091  37.643  40.260   6.450
 7000POPC   C2B48092  37.619  40.226   6.750
 7000POPC   C3B48093  37.595  40.221   7.050
 7000POPC   C4B48094  37.601  40.214   7.350
 7001POPC   NC348095  36.876  40.781   5.550
 7001POPC   PO448096  36.906  40.787   5.850
 7001POPC   GL148097  36.854  40.789   6.150
 7001POPC   GL248098  36.959  40.721   6.150
 7001POPC   C1A48099  36.953  40.803   6.450
 7001POPC   D2A48100  36.890  40.758   6.750
 7001POPC   C3A48101  36.860  40.773   7.050
 7001POPC   C4A48102  36.856  40.783   7.350
 7001POPC   C1B48103  37.155  40.658   6.450
 7001POPC   C2B48104  37.083  40.644   6.750
 7001POPC   C3B48105  37.123  40.653   7.050
 7001POPC   C4B48106  37.079  40.607   7.350
 7002POPC   NC348107  43.900  39.240   5.550
 7002POPC   PO448108  43.895  39.213   5.850
 7002POPC   GL148109  43.866  39.188   6.150
 7002POPC   GL248110  43.941  39.351   6.150
 7002POPC   C1A48111  43.879  39.261   6.450
 7002POPC   D2A48112  43.883  39.268   6.750
 7002POPC   C3A48113  43.923  39.237   7.050
 7002POPC   C4A48114  43.892  39.260   7.350
 7002POPC   C1B48115  44.022  39.365   6.450
 7002POPC   C2B48116  44.014  39.444   6.750
 7002POPC   C3B48117  44.079  39.408   7.050
 7002POPC   C4B48118  44.084  39.434   7.350
 7003POPC   NC348119  39.211  21.349   5.550
 7003POPC   PO448120  39.244  21.417   5.850
 7003POPC   GL148121  39.208  21.344   6.150
 7003POPC   GL248122  39.196  21.531   6.150
 7003POPC   C1A48123  39.205  21.378   6.450
 7003POPC   D2A48124  39.271  21.366   6.750
 7003POPC   C3A48125  39.198  21.433   7.050
 7003POPC   C4A48126  39.257  21.382   7.350
 7003POPC   C1B48127  39.205  21.623   6.450
 7003POPC   C2B48128  39.195  21.615   6.750
 7003POPC   C3B48129  39.209  21.594   7.050
 7003POPC   C4B48130  39.204  21.662   7.350
 7004POPC   NC348131   5.853  28.411   5.550
 7004POPC   PO448132   5.917  28.321   5.850
 7004POPC   GL148133   5.910  28.324   6.150
 7004POPC   GL248134   5.800  28.471   6.150
 7004POPC   C1A48135   5.867  28.398   6.450
 7004POPC   D2A48136   5.900  28.334   6.750
 7004POPC   C3A48137   5.821  28.384   7.050
 7004POPC   C4A48138   5.865  28.390   7.350
 7004POPC   C1B48139   5.743  28.608   6.450
 7004POPC   C2B48140   5.812  28.556   6.750
 7004POPC   C3B48141   5.817  28.639   7.050
 7004POPC   C4B48142   5.811  28.556   7.350
 7005POPC   NC348143  39.182   3.524   5.550
 7005POPC   PO448144  39.276   3.540   5.850
 7005POPC   GL148145  39.248   3.526   6.150
 7005POPC   GL248146  39.203   3.648   6.150
 7005POPC   C1A48147  39.198   3.559   6.450
 7005POPC   D2A48148  39.207   3.496   6.750
 7005POPC   C3A48149  39.240   3.563   7.050
 7005POPC   C4A48150  39.206   3.545   7.350
 7005POPC   C1B48151  39.266   3.811   6.450
 7005POPC   C2B48152  39.271   3.821   6.750
 7005POPC   C3B48153  39.315   3.758   7.050
 7005POPC   C4B48154  39.278   3.834   7.350
 7006POPC   NC348155   8.224   1.204   5.550
 7006POPC   PO448156   8.162   1.226   5.850
 7006POPC   GL148157   8.235   1.170   6.150
 7006POPC   GL248158   8.041   1.178   6.150
 7006POPC   C1A48159   8.149   1.263   6.450
 7006POPC   D2A48160   8.156   1.179   6.750
 7006POPC   C3A48161   8.159   1.244   7.050
 7006POPC   C4A48162   8.218   1.183   7.350
 7006POPC   C1B48163   7.955   1.177   6.450
 7006POPC   C2B48164   7.968   1.195   6.750
 7006POPC   C3B48165   7.986   1.159   7.050
 7006POPC   C4B48166   7.988   1.193   7.350
 7007POPC   NC348167  40.763  29.098   5.550
 7007POPC   PO448168  40.770  29.135   5.850
 7007POPC   GL148169  40.808  29.102   6.150
 7007POPC   GL248170  40.635  29.033   6.150
 7007POPC   C1A48171  40.770  29.151   6.450
 7007POPC   D2A48172  40.820  29.137   6.750
 7007POPC   C3A48173  40.791  29.138   7.050
 7007POPC   C4A48174  40.769  29.106   7.350
 7007POPC   C1B48175  40.557  28.974   6.450
 7007POPC   C2B48176  40.601  28.984   6.750
 7007POPC   C3B48177  40.580  28.985   7.050
 7007POPC   C4B48178  40.554  28.974   7.350
 7008POPC   NC348179  28.332  43.095   5.550
 7008POPC   PO448180  28.404  43.140   5.850
 7008POPC   GL148181  28.355  43.078   6.150
 7008POPC   GL248182  28.259  43.049   6.150
 7008POPC   C1A48183  28.368  43.152   6.450
 7008POPC   D2A48184  28.363  43.109   6.750
 7008POPC   C3A48185  28.326  43.067   7.050
 7008POPC   C4A48186  28.412  43.081   7.350
 7008POPC   C1B48187  28.244  42.919   6.450
 7008POPC   C2B48188  28.270  42.910   6.750
 7008POPC   C3B48189  28.228  42.943   7.050
 7008POPC   C4B48190  28.243  42.945   7.350
 7009POPC   NC348191  20.634  37.721   5.550
 7009POPC   PO448192  20.657  37.640   5.850
 7009POPC   GL148193  20.653  37.701   6.150
 7009POPC   GL248194  20.496  37.633   6.150
 7009POPC   C1A48195  20.595  37.716   6.450
 7009POPC   D2A48196  20.603  37.650   6.750
 7009POPC   C3A48197  20.631  37.660   7.050
 7009POPC   C4A48198  20.595  37.721   7.350
 7009POPC   C1B48199  20.396  37.617   6.450
 7009POPC   C2B48200  20.337  37.582   6.750
 7009POPC   C3B48201  20.338  37.594   7.050
 7009POPC   C4B48202  20.356  37.561   7.350
 7010POPC   NC348203  29.154  32.251   5.550
 7010POPC   PO448204  29.187  32.230   5.850
 7010POPC   GL148205  29.167  32.203   6.150
 7010POPC   GL248206  29.308  32.284   6.150
 7010POPC   C1A48207  29.176  32.263   6.450
 7010POPC   D2A48208  29.169  32.285   6.750
 7010POPC   C3A48209  29.151  32.222   7.050
 7010POPC   C4A48210  29.115  32.294   7.350
 7010POPC   C1B48211  29.348  32.359   6.450
 7010POPC   C2B48212  29.351  32.375   6.750
 7010POPC   C3B48213  29.339  32.327   7.050
 7010POPC   C4B48214  29.418  32.358   7.350
 7011POPC   NC348215  18.270  11.304   5.550
 7011POPC   PO448216  18.313  11.344   5.850
 7011POPC   GL148217  18.326  11.339   6.150
 7011POPC   GL248218  18.183  11.336   6.150
 7011POPC   C1A48219  18.272  11.275   6.450
 7011POPC   D2A48220  18.276  11.288   6.750
 7011POPC   C3A48221  18.309  11.266   7.050
 7011POPC   C4A48222  18.268  11.305   7.350
 7011POPC   C1B48223  18.003  11.293   6.450
 7011POPC   C2B48224  18.059  11.349   6.750
 7011POPC   C3B48225  18.081  11.284   7.050
 7011POPC   C4B48226  18.079  11.270   7.350
 7012POPC   NC348227  36.910  21.394   5.550
 7012POPC   PO448228  36.881  21.356   5.850
 7012POPC   GL148229  36.903  21.413   6.150
 7012POPC   GL248230  36.909  21.281   6.150
 7012POPC   C1A48231  36.893  21.401   6.450
 7012POPC   D2A48232  36.871  21.392   6.750
 7012POPC   C3A48233  36.926  21.354   7.050
 7012POPC   C4A48234  36.879  21.422   7.350
 7012POPC   C1B48235  37.013  21.142   6.450
 7012POPC   C2B48236  36.996  21.130   6.750
 7012POPC   C3B48237  36.977  21.165   7.050
 7012POPC   C4B48238  36.989  21.145   7.350
 7013POPC   NC348239  16.763   4.363   5.550
 7013POPC   PO448240  16.770   4.279   5.850
 7013POPC   GL148241  16.763   4.290   6.150
 7013POPC   GL248242  16.764   4.461   6.150
 7013POPC   C1A48243  16.745   4.328   6.450
 7013POPC   D2A48244  16.712   4.364   6.750
 7013POPC   C3A48245  16.727   4.340   7.050
 7013POPC   C4A48246  16.696   4.329   7.350
 7013POPC   C1B48247  16.748   4.555   6.450
 7013POPC   C2B48248  16.716   4.593   6.750
 7013POPC   C3B48249  16.682   4.537   7.050
 7013POPC   C4B48250  16.705   4.577   7.350
 7014POPC   NC348251  19.841   0.414   5.550
 7014POPC   PO448252  19.883   0.449   5.850
 7014POPC   GL148253  19.844   0.476   6.150
 7014POPC   GL248254  19.781   0.610   6.150
 7014POPC   C1A48255  19.811   0.398   6.450
 7014POPC   D2A48256  19.861   0.480   6.750
 7014POPC   C3A48257  19.805   0.469   7.050
 7014POPC   C4A48258  19.812   0.404   7.350
 7014POPC   C1B48259  19.811   0.701   6.450
 7014POPC   C2B48260  19.787   0.730   6.750
 7014POPC   C3B48261  19.787   0.728   7.050
 7014POPC   C4B48262  19.848   0.672   7.350
 7015POPC   NC348263   5.827  21.426   5.550
 7015POPC   PO448264   5.908  21.376   5.850
 7015POPC   GL148265   5.875  21.434   6.150
 7015POPC   GL248266   5.915  21.331   6.150
 7015POPC   C1A48267   5.914  21.391   6.450
 7015POPC   D2A48268   5.890  21.350   6.750
 7015POPC   C3A48269   5.867  21.403   7.050
 7015POPC   C4A48270   5.885  21.364   7.350
 7015POPC   C1B48271   6.074  21.242   6.450
 7015POPC   C2B48272   6.058  21.242   6.750
 7015POPC   C3B48273   5.997  21.237   7.050
 7015POPC   C4B48274   6.006  21.190   7.350
 7016POPC   NC348275   6.640  43.902   5.550
 7016POPC   PO448276   6.663  43.918   5.850
 7016POPC   GL148277   6.628  43.879   6.150
 7016POPC   GL248278   6.703  43.958   6.150
 7016POPC   C1A48279   6.619  43.915   6.450
 7016POPC   D2A48280   6.611  43.887   6.750
 7016POPC   C3A48281   6.618  43.920   7.050
 7016POPC   C4A48282   6.632  43.915   7.350
 7016POPC   C1B48283   6.802  44.103   6.450
 7016POPC   C2B48284   6.789  44.145   6.750
 7016POPC   C3B48285   6.826  44.088   7.050
 7016POPC   C4B48286   6.782  44.127   7.350
 7017POPC   NC348287  25.283  30.723   5.550
 7017POPC   PO448288  25.224  30.742   5.850
 7017POPC   GL148289  25.265  30.738   6.150
 7017POPC   GL248290  25.268  30.861   6.150
 7017POPC   C1A48291  25.240  30.705   6.450
 7017POPC   D2A48292  25.223  30.672   6.750
 7017POPC   C3A48293  25.293  30.676   7.050
 7017POPC   C4A48294  25.309  30.695   7.350
 7017POPC   C1B48295  25.338  30.929   6.450
 7017POPC   C2B48296  25.343  30.969   6.750
 7017POPC   C3B48297  25.399  30.928   7.050
 7017POPC   C4B48298  25.324  30.898   7.350
 7018POPC   NC348299  17.499  18.309   5.550
 7018POPC   PO448300  17.467  18.279   5.850
 7018POPC   GL148301  17.499  18.240   6.150
 7018POPC   GL248302  17.462  18.354   6.150
 7018POPC   C1A48303  17.504  18.251   6.450
 7018POPC   D2A48304  17.539  18.308   6.750
 7018POPC   C3A48305  17.517  18.251   7.050
 7018POPC   C4A48306  17.545  18.306   7.350
 7018POPC   C1B48307  17.291  18.433   6.450
 7018POPC   C2B48308  17.361  18.421   6.750
 7018POPC   C3B48309  17.298  18.424   7.050
 7018POPC   C4B48310  17.288  18.411   7.350
 7019POPC   NC348311  37.670  14.403   5.550
 7019POPC   PO448312  37.722  14.411   5.850
 7019POPC   GL148313  37.664  14.363   6.150
 7019POPC   GL248314  37.760  14.347   6.150
 7019POPC   C1A48315  37.662  14.391   6.450
 7019POPC   D2A48316  37.704  14.359   6.750
 7019POPC   C3A48317  37.651  14.409   7.050
 7019POPC   C4A48318  37.722  14.362   7.350
 7019POPC   C1B48319  37.889  14.404   6.450
 7019POPC   C2B48320  37.905  14.426   6.750
 7019POPC   C3B48321  37.943  14.388   7.050
 7019POPC   C4B48322  37.923  14.363   7.350
 7020POPC   NC348323  11.252  27.596   5.550
 7020POPC   PO448324  11.254  27.625   5.850
 7020POPC   GL148325  11.299  27.587   6.150
 7020POPC   GL248326  11.201  27.580   6.150
 7020POPC   C1A48327  11.297  27.592   6.450
 7020POPC   D2A48328  11.306  27.571   6.750
 7020POPC   C3A48329  11.301  27.612   7.050
 7020POPC   C4A48330  11.327  27.552   7.350
 7020POPC   C1B48331  11.060  27.626   6.450
 7020POPC   C2B48332  11.068  27.624   6.750
 7020POPC   C3B48333  11.038  27.616   7.050
 7020POPC   C4B48334  11.020  27.622   7.350
 7021POPC   NC348335  39.241  12.812   5.550
 7021POPC   PO448336  39.265  12.860   5.850
 7021POPC   GL148337  39.215  12.810   6.150
 7021POPC   GL248338  39.350  12.875   6.150
 7021POPC   C1A48339  39.249  12.846   6.450
 7021POPC   D2A48340  39.268  12.864   6.750
 7021POPC   C3A48341  39.197  12.864   7.050
 7021POPC   C4A48342  39.224  12.866   7.350
 7021POPC   C1B48343  39.421  13.009   6.450
 7021POPC   C2B48344  39.418  12.992   6.750
 7021POPC   C3B48345  39.446  12.945   7.050
 7021POPC   C4B48346  39.426  12.940   7.350
 7022POPC   NC348347  30.692   0.407   5.550
 7022POPC   PO448348  30.715   0.476   5.850
 7022POPC   GL148349  30.710   0.391   6.150
 7022POPC   GL248350  30.705   0.559   6.150
 7022POPC   C1A48351  30.664   0.449   6.450
 7022POPC   D2A48352  30.725   0.403   6.750
 7022POPC   C3A48353  30.667   0.469   7.050
 7022POPC   C4A48354  30.730   0.392   7.350
 7022POPC   C1B48355  30.841   0.706   6.450
 7022POPC   C2B48356  30.832   0.632   6.750
 7022POPC   C3B48357  30.837   0.711   7.050
 7022POPC   C4B48358  30.774   0.684   7.350
 7023POPC   NC348359  39.271  34.557   5.550
 7023POPC   PO448360  39.256  34.609   5.850
 7023POPC   GL148361  39.190  34.611   6.150
 7023POPC   GL248362  39.262  34.730   6.150
 7023POPC   C1A48363  39.209  34.533   6.450
 7023POPC   D2A48364  39.248  34.589   6.750
 7023POPC   C3A48365  39.229  34.618   7.050
 7023POPC   C4A48366  39.256  34.618   7.350
 7023POPC   C1B48367  39.267  34.848   6.450
 7023POPC   C2B48368  39.232  34.793   6.750
 7023POPC   C3B48369  39.296  34.835   7.050
 7023POPC   C4B48370  39.241  34.823   7.350
 7024POPC   NC348371  44.629   9.784   5.550
 7024POPC   PO448372  44.695   9.724   5.850
 7024POPC   GL148373  44.646   9.789   6.150
 7024POPC   GL248374  44.832   9.756   6.150
 7024POPC   C1A48375  44.620   9.755   6.450
 7024POPC   D2A48376  44.705   9.795   6.750
 7024POPC   C3A48377  44.655   9.704   7.050
 7024POPC   C4A48378  44.694   9.762   7.350
 7024POPC   C1B48379  44.891   9.774   6.450
 7024POPC   C2B48380  44.878   9.772   6.750
 7024POPC   C3B48381  44.895   9.796   7.050
 7024POPC   C4B48382  44.887   9.834   7.350
 7025POPC   NC348383   5.910  10.532   5.550
 7025POPC   PO448384   5.865  10.527   5.850
 7025POPC   GL148385   5.879  10.478   6.150
 7025POPC   GL248386   5.953  10.388   6.150
 7025POPC   C1A48387   5.902  10.512   6.450
 7025POPC   D2A48388   5.863  10.490   6.750
 7025POPC   C3A48389   5.906  10.478   7.050
 7025POPC   C4A48390   5.834  10.495   7.350
 7025POPC   C1B48391   6.014  10.320   6.450
 7025POPC   C2B48392   6.062  10.375   6.750
 7025POPC   C3B48393   5.988  10.307   7.050
 7025POPC   C4B48394   6.005  10.303   7.350
 7026POPC   NC348395   7.466  29.183   5.550
 7026POPC   PO448396   7.425  29.161   5.850
 7026POPC   GL148397   7.379  29.146   6.150
 7026POPC   GL248398   7.323  29.057   6.150
 7026POPC   C1A48399   7.437  29.185   6.450
 7026POPC   D2A48400   7.441  29.176   6.750
 7026POPC   C3A48401   7.452  29.175   7.050
 7026POPC   C4A48402   7.397  29.115   7.350
 7026POPC   C1B48403   7.258  28.929   6.450
 7026POPC   C2B48404   7.308  28.935   6.750
 7026POPC   C3B48405   7.277  28.990   7.050
 7026POPC   C4B48406   7.307  28.937   7.350
 7027POPC   NC348407   3.507  40.762   5.550
 7027POPC   PO448408   3.554  40.735   5.850
 7027POPC   GL148409   3.564  40.766   6.150
 7027POPC   GL248410   3.683  40.879   6.150
 7027POPC   C1A48411   3.573  40.798   6.450
 7027POPC   D2A48412   3.588  40.778   6.750
 7027POPC   C3A48413   3.511  40.773   7.050
 7027POPC   C4A48414   3.525  40.794   7.350
 7027POPC   C1B48415   3.737  40.869   6.450
 7027POPC   C2B48416   3.742  40.939   6.750
 7027POPC   C3B48417   3.800  40.893   7.050
 7027POPC   C4B48418   3.759  40.897   7.350
 7028POPC   NC348419  15.988   5.885   5.550
 7028POPC   PO448420  15.990   5.839   5.850
 7028POPC   GL148421  15.983   5.830   6.150
 7028POPC   GL248422  16.036   5.882   6.150
 7028POPC   C1A48423  15.979   5.829   6.450
 7028POPC   D2A48424  15.943   5.907   6.750
 7028POPC   C3A48425  15.984   5.883   7.050
 7028POPC   C4A48426  15.918   5.912   7.350
 7028POPC   C1B48427  16.161   5.929   6.450
 7028POPC   C2B48428  16.244   5.967   6.750
 7028POPC   C3B48429  16.212   5.944   7.050
 7028POPC   C4B48430  16.171   5.900   7.350
 7029POPC   NC348431   3.559  22.952   5.550
 7029POPC   PO448432   3.545  22.917   5.850
 7029POPC   GL148433   3.541  22.950   6.150
 7029POPC   GL248434   3.489  23.092   6.150
 7029POPC   C1A48435   3.532  22.903   6.450
 7029POPC   D2A48436   3.588  22.888   6.750
 7029POPC   C3A48437   3.492  22.958   7.050
 7029POPC   C4A48438   3.565  22.890   7.350
 7029POPC   C1B48439   3.526  23.213   6.450
 7029POPC   C2B48440   3.513  23.152   6.750
 7029POPC   C3B48441   3.477  23.149   7.050
 7029POPC   C4B48442   3.529  23.194   7.350
 7030POPC   NC348443  34.597  36.879   5.550
 7030POPC   PO448444  34.587  36.872   5.850
 7030POPC   GL148445  34.619  36.878   6.150
 7030POPC   GL248446  34.674  37.019   6.150
 7030POPC   C1A48447  34.544  36.882   6.450
 7030POPC   D2A48448  34.551  36.942   6.750
 7030POPC   C3A48449  34.533  36.881   7.050
 7030POPC   C4A48450  34.538  36.946   7.350
 7030POPC   C1B48451  34.733  37.114   6.450
 7030POPC   C2B48452  34.696  37.171   6.750
 7030POPC   C3B48453  34.724  37.115   7.050
 7030POPC   C4B48454  34.737  37.158   7.350
 7031POPC   NC348455  43.099   0.469   5.550
 7031POPC   PO448456  43.153   0.401   5.850
 7031POPC   GL148457  43.109   0.415   6.150
 7031POPC   GL248458  43.162   0.360   6.150
 7031POPC   C1A48459  43.085   0.463   6.450
 7031POPC   D2A48460  43.150   0.445   6.750
 7031POPC   C3A48461  43.096   0.390   7.050
 7031POPC   C4A48462  43.073   0.417   7.350
 7031POPC   C1B48463  43.336   0.263   6.450
 7031POPC   C2B48464  43.243   0.265   6.750
 7031POPC   C3B48465  43.300   0.243   7.050
 7031POPC   C4B48466  43.266   0.243   7.350
 7032POPC   NC348467  15.930  18.293   5.550
 7032POPC   PO448468  15.939  18.250   5.850
 7032POPC   GL148469  15.945  18.324   6.150
 7032POPC   GL248470  16.094  18.299   6.150
 7032POPC   C1A48471  15.915  18.271   6.450
 7032POPC   D2A48472  15.939  18.256   6.750
 7032POPC   C3A48473  15.937  18.310   7.050
 7032POPC   C4A48474  15.954  18.325   7.350
 7032POPC   C1B48475  16.244  18.184   6.450
 7032POPC   C2B48476  16.236  18.176   6.750
 7032POPC   C3B48477  16.162  18.216   7.050
 7032POPC   C4B48478  16.246  18.248   7.350
 7033POPC   NC348479  29.180  43.934   5.550
 7033POPC   PO448480  29.136  43.867   5.850
 7033POPC   GL148481  29.132  43.927   6.150
 7033POPC   GL248482  29.006  43.800   6.150
 7033POPC   C1A48483  29.161  43.918   6.450
 7033POPC   D2A48484  29.176  43.927   6.750
 7033POPC   C3A48485  29.146  43.858   7.050
 7033POPC   C4A48486  29.149  43.919   7.350
 7033POPC   C1B48487  28.968  43.708   6.450
 7033POPC   C2B48488  28.954  43.803   6.750
 7033POPC   C3B48489  28.891  43.780   7.050
 7033POPC   C4B48490  28.955  43.753   7.350
 7034POPC   NC348491   6.660  26.070   5.550
 7034POPC   PO448492   6.672  26.070   5.850
 7034POPC   GL148493   6.618  25.993   6.150
 7034POPC   GL248494   6.774  26.023   6.150
 7034POPC   C1A48495   6.636  26.058   6.450
 7034POPC   D2A48496   6.660  26.089   6.750
 7034POPC   C3A48497   6.682  26.034   7.050
 7034POPC   C4A48498   6.615  26.024   7.350
 7034POPC   C1B48499   6.898  26.100   6.450
 7034POPC   C2B48500   6.862  26.079   6.750
 7034POPC   C3B48501   6.891  26.112   7.050
 7034POPC   C4B48502   6.867  26.135   7.350
 7035POPC   NC348503  28.370  44.657   5.550
 7035POPC   PO448504  28.369  44.708   5.850
 7035POPC   GL148505  28.400  44.672   6.150
 7035POPC   GL248506  28.327  44.751   6.150
 7035POPC   C1A48507  28.330  44.693   6.450
 7035POPC   D2A48508  28.413  44.668   6.750
 7035POPC   C3A48509  28.399  44.665   7.050
 7035POPC   C4A48510  28.319  44.669   7.350
 7035POPC   C1B48511  28.338  44.947   6.450
 7035POPC   C2B48512  28.281  44.938   6.750
 7035POPC   C3B48513  28.320  44.919   7.050
 7035POPC   C4B48514  28.284  44.858   7.350
 7036POPC   NC348515  15.996  39.197   5.550
 7036POPC   PO448516  15.988  39.230   5.850
 7036POPC   GL148517  16.001  39.216   6.150
 7036POPC   GL248518  16.088  39.212   6.150
 7036POPC   C1A48519  15.963  39.245   6.450
 7036POPC   D2A48520  15.917  39.260   6.750
 7036POPC   C3A48521  15.906  39.196   7.050
 7036POPC   C4A48522  15.957  39.259   7.350
 7036POPC   C1B48523  16.159  39.210   6.450
 7036POPC   C2B48524  16.241  39.204   6.750
 7036POPC   C3B48525  16.233  39.210   7.050
 7036POPC   C4B48526  16.244  39.193   7.350
 7037POPC   NC348527  24.489  38.493   5.550
 7037POPC   PO448528  24.499  38.479   5.850
 7037POPC   GL148529  24.491  38.419   6.150
 7037POPC   GL248530  24.396  38.543   6.150
 7037POPC   C1A48531  24.480  38.454   6.450
 7037POPC   D2A48532  24.467  38.493   6.750
 7037POPC   C3A48533  24.488  38.460   7.050
 7037POPC   C4A48534  24.500  38.503   7.350
 7037POPC   C1B48535  24.301  38.558   6.450
 7037POPC   C2B48536  24.328  38.603   6.750
 7037POPC   C3B48537  24.281  38.575   7.050
 7037POPC   C4B48538  24.299  38.628   7.350
 7038POPC   NC348539  21.420   3.536   5.550
 7038POPC   PO448540  21.389   3.519   5.850
 7038POPC   GL148541  21.385   3.534   6.150
 7038POPC   GL248542  21.440   3.417   6.150
 7038POPC   C1A48543  21.339   3.531   6.450
 7038POPC   D2A48544  21.406   3.536   6.750
 7038POPC   C3A48545  21.363   3.544   7.050
 7038POPC   C4A48546  21.358   3.562   7.350
 7038POPC   C1B48547  21.457   3.313   6.450
 7038POPC   C2B48548  21.460   3.284   6.750
 7038POPC   C3B48549  21.537   3.351   7.050
 7038POPC   C4B48550  21.536   3.278   7.350
 7039POPC   NC348551  35.318  30.695   5.550
 7039POPC   PO448552  35.350  30.655   5.850
 7039POPC   GL148553  35.334  30.676   6.150
 7039POPC   GL248554  35.368  30.567   6.150
 7039POPC   C1A48555  35.333  30.712   6.450
 7039POPC   D2A48556  35.332  30.730   6.750
 7039POPC   C3A48557  35.386  30.711   7.050
 7039POPC   C4A48558  35.316  30.742   7.350
 7039POPC   C1B48559  35.278  30.470   6.450
 7039POPC   C2B48560  35.251  30.446   6.750
 7039POPC   C3B48561  35.274  30.476   7.050
 7039POPC   C4B48562  35.337  30.455   7.350
 7040POPC   NC348563   2.747  30.705   5.550
 7040POPC   PO448564   2.759  30.714   5.850
 7040POPC   GL148565   2.813  30.741   6.150
 7040POPC   GL248566   2.675  30.677   6.150
 7040POPC   C1A48567   2.759  30.739   6.450
 7040POPC   D2A48568   2.812  30.736   6.750
 7040POPC   C3A48569   2.758  30.691   7.050
 7040POPC   C4A48570   2.808  30.716   7.350
 7040POPC   C1B48571   2.552  30.699   6.450
 7040POPC   C2B48572   2.553  30.682   6.750
 7040POPC   C3B48573   2.479  30.714   7.050
 7040POPC   C4B48574   2.545  30.654   7.350
 7041POPC   NC348575  34.572  28.352   5.550
 7041POPC   PO448576  34.618  28.351   5.850
 7041POPC   GL148577  34.617  28.332   6.150
 7041POPC   GL248578  34.692  28.489   6.150
 7041POPC   C1A48579  34.575  28.380   6.450
 7041POPC   D2A48580  34.584  28.397   6.750
 7041POPC   C3A48581  34.580  28.363   7.050
 7041POPC   C4A48582  34.562  28.358   7.350
 7041POPC   C1B48583  34.710  28.498   6.450
 7041POPC   C2B48584  34.776  28.531   6.750
 7041POPC   C3B48585  34.802  28.583   7.050
 7041POPC   C4B48586  34.729  28.585   7.350
 7042POPC   NC348587  32.231   8.156   5.550
 7042POPC   PO448588  32.261   8.241   5.850
 7042POPC   GL148589  32.291   8.177   6.150
 7042POPC   GL248590  32.242   8.336   6.150
 7042POPC   C1A48591  32.284   8.193   6.450
 7042POPC   D2A48592  32.284   8.194   6.750
 7042POPC   C3A48593  32.224   8.174   7.050
 7042POPC   C4A48594  32.208   8.230   7.350
 7042POPC   C1B48595  32.107   8.408   6.450
 7042POPC   C2B48596  32.125   8.442   6.750
 7042POPC   C3B48597  32.181   8.463   7.050
 7042POPC   C4B48598  32.167   8.397   7.350
 7043POPC   NC348599  34.537  22.897   5.550
 7043POPC   PO448600  34.575  22.927   5.850
 7043POPC   GL148601  34.585  22.912   6.150
 7043POPC   GL248602  34.612  22.829   6.150
 7043POPC   C1A48603  34.549  22.974   6.450
 7043POPC   D2A48604  34.544  22.910   6.750
 7043POPC   C3A48605  34.531  22.969   7.050
 7043POPC   C4A48606  34.576  22.926   7.350
 7043POPC   C1B48607  34.644  22.704   6.450
 7043POPC   C2B48608  34.645  22.653   6.750
 7043POPC   C3B48609  34.632  22.679   7.050
 7043POPC   C4B48610  34.625  22.695   7.350
 7044POPC   NC348611  21.426  23.722   5.550
 7044POPC   PO448612  21.359  23.761   5.850
 7044POPC   GL148613  21.402  23.665   6.150
 7044POPC   GL248614  21.510  23.694   6.150
 7044POPC   C1A48615  21.412  23.693   6.450
 7044POPC   D2A48616  21.405  23.716   6.750
 7044POPC   C3A48617  21.393  23.736   7.050
 7044POPC   C4A48618  21.374  23.681   7.350
 7044POPC   C1B48619  21.588  23.769   6.450
 7044POPC   C2B48620  21.614  23.713   6.750
 7044POPC   C3B48621  21.608  23.759   7.050
 7044POPC   C4B48622  21.657  23.778   7.350
 7045POPC   NC348623  19.073  23.729   5.550
 7045POPC   PO448624  19.107  23.688   5.850
 7045POPC   GL148625  19.029  23.747   6.150
 7045POPC   GL248626  19.110  23.805   6.150
 7045POPC   C1A48627  19.048  23.680   6.450
 7045POPC   D2A48628  19.068  23.758   6.750
 7045POPC   C3A48629  19.044  23.714   7.050
 7045POPC   C4A48630  19.099  23.729   7.350
 7045POPC   C1B48631  19.024  23.956   6.450
 7045POPC   C2B48632  19.021  23.938   6.750
 7045POPC   C3B48633  19.036  23.963   7.050
 7045POPC   C4B48634  19.086  24.003   7.350
 7046POPC   NC348635  22.931  37.630   5.550
 7046POPC   PO448636  22.917  37.701   5.850
 7046POPC   GL148637  22.923  37.729   6.150
 7046POPC   GL248638  22.994  37.753   6.150
 7046POPC   C1A48639  22.918  37.635   6.450
 7046POPC   D2A48640  22.898  37.725   6.750
 7046POPC   C3A48641  22.905  37.660   7.050
 7046POPC   C4A48642  22.938  37.727   7.350
 7046POPC   C1B48643  23.114  37.805   6.450
 7046POPC   C2B48644  23.179  37.784   6.750
 7046POPC   C3B48645  23.123  37.785   7.050
 7046POPC   C4B48646  23.152  37.863   7.350
 7047POPC   NC348647  13.607  15.981   5.550
 7047POPC   PO448648  13.646  15.978   5.850
 7047POPC   GL148649  13.604  15.968   6.150
 7047POPC   GL248650  13.480  15.921   6.150
 7047POPC   C1A48651  13.585  15.972   6.450
 7047POPC   D2A48652  13.641  15.908   6.750
 7047POPC   C3A48653  13.602  15.939   7.050
 7047POPC   C4A48654  13.601  15.975   7.350
 7047POPC   C1B48655  13.372  15.854   6.450
 7047POPC   C2B48656  13.372  15.895   6.750
 7047POPC   C3B48657  13.381  15.844   7.050
 7047POPC   C4B48658  13.398  15.857   7.350
 7048POPC   NC348659  39.198  18.290   5.550
 7048POPC   PO448660  39.234  18.237   5.850
 7048POPC   GL148661  39.267  18.284   6.150
 7048POPC   GL248662  39.140  18.128   6.150
 7048POPC   C1A48663  39.216  18.237   6.450
 7048POPC   D2A48664  39.273  18.240   6.750
 7048POPC   C3A48665  39.247  18.257   7.050
 7048POPC   C4A48666  39.262  18.288   7.350
 7048POPC   C1B48667  39.101  18.031   6.450
 7048POPC   C2B48668  39.104  18.048   6.750
 7048POPC   C3B48669  39.084  18.063   7.050
 7048POPC   C4B48670  39.169  18.010   7.350
 7049POPC   NC348671   5.124  41.547   5.550
 7049POPC   PO448672   5.124  41.557   5.850
 7049POPC   GL148673   5.091  41.560   6.150
 7049POPC   GL248674   5.085  41.466   6.150
 7049POPC   C1A48675   5.043  41.574   6.450
 7049POPC   D2A48676   5.086  41.603   6.750
 7049POPC   C3A48677   5.082  41.548   7.050
 7049POPC   C4A48678   5.134  41.531   7.350
 7049POPC   C1B48679   5.026  41.301   6.450
 7049POPC   C2B48680   5.003  41.370   6.750
 7049POPC   C3B48681   4.948  41.301   7.050
 7049POPC   C4B48682   4.987  41.285   7.350
 7050POPC   NC348683  13.583   6.690   5.550
 7050POPC   PO448684  13.647   6.682   5.850
 7050POPC   GL148685  13.667   6.682   6.150
 7050POPC   GL248686  13.517   6.514   6.150
 7050POPC   C1A48687  13.650   6.649   6.450
 7050POPC   D2A48688  13.671   6.635   6.750
 7050POPC   C3A48689  13.667   6.689   7.050
 7050POPC   C4A48690  13.616   6.653   7.350
 7050POPC   C1B48691  13.448   6.407   6.450
 7050POPC   C2B48692  13.430   6.423   6.750
 7050POPC   C3B48693  13.487   6.439   7.050
 7050POPC   C4B48694  13.437   6.454   7.350
 7051POPC   NC348695  21.341  39.239   5.550
 7051POPC   PO448696  21.400  39.191   5.850
 7051POPC   GL148697  21.340  39.232   6.150
 7051POPC   GL248698  21.385  39.383   6.150
 7051POPC   C1A48699  21.375  39.197   6.450
 7051POPC   D2A48700  21.363  39.267   6.750
 7051POPC   C3A48701  21.411  39.251   7.050
 7051POPC   C4A48702  21.339  39.240   7.350
 7051POPC   C1B48703  21.318  39.505   6.450
 7051POPC   C2B48704  21.248  39.511   6.750
 7051POPC   C3B48705  21.326  39.425   7.050
 7051POPC   C4B48706  21.292  39.413   7.350
 7052POPC   NC348707  37.633  23.738   5.550
 7052POPC   PO448708  37.647  23.699   5.850
 7052POPC   GL148709  37.633  23.734   6.150
 7052POPC   GL248710  37.716  23.605   6.150
 7052POPC   C1A48711  37.636  23.713   6.450
 7052POPC   D2A48712  37.649  23.730   6.750
 7052POPC   C3A48713  37.693  23.664   7.050
 7052POPC   C4A48714  37.658  23.703   7.350
 7052POPC   C1B48715  37.780  23.512   6.450
 7052POPC   C2B48716  37.801  23.474   6.750
 7052POPC   C3B48717  37.823  23.489   7.050
 7052POPC   C4B48718  37.797  23.507   7.350
 7053POPC   NC348719   9.794  26.791   5.550
 7053POPC   PO448720   9.731  26.774   5.850
 7053POPC   GL148721   9.746  26.839   6.150
 7053POPC   GL248722   9.624  26.772   6.150
 7053POPC   C1A48723   9.743  26.862   6.450
 7053POPC   D2A48724   9.717  26.773   6.750
 7053POPC   C3A48725   9.713  26.777   7.050
 7053POPC   C4A48726   9.709  26.844   7.350
 7053POPC   C1B48727   9.537  26.730   6.450
 7053POPC   C2B48728   9.494  26.703   6.750
 7053POPC   C3B48729   9.482  26.671   7.050
 7053POPC   C4B48730   9.520  26.750   7.350
 7054POPC   NC348731  26.007  19.852   5.550
 7054POPC   PO448732  26.079  19.872   5.850
 7054POPC   GL148733  26.087  19.832   6.150
 7054POPC   GL248734  26.158  19.751   6.150
 7054POPC   C1A48735  26.015  19.841   6.450
 7054POPC   D2A48736  26.036  19.812   6.750
 7054POPC   C3A48737  26.023  19.787   7.050
 7054POPC   C4A48738  26.004  19.873   7.350
 7054POPC   C1B48739  26.247  19.805   6.450
 7054POPC   C2B48740  26.292  19.801   6.750
 7054POPC   C3B48741  26.301  19.723   7.050
 7054POPC   C4B48742  26.250  19.751   7.350
 7055POPC   NC348743  12.825  43.854   5.550
 7055POPC   PO448744  12.865  43.905   5.850
 7055POPC   GL148745  12.828  43.920   6.150
 7055POPC   GL248746  12.955  43.936   6.150
 7055POPC   C1A48747  12.815  43.924   6.450
 7055POPC   D2A48748  12.902  43.857   6.750
 7055POPC   C3A48749  12.848  43.889   7.050
 7055POPC   C4A48750  12.826  43.933   7.350
 7055POPC   C1B48751  13.129  43.915   6.450
 7055POPC   C2B48752  13.102  43.935   6.750
 7055POPC   C3B48753  13.133  43.937   7.050
 7055POPC   C4B48754  13.091  43.946   7.350
 7056POPC   NC348755  29.891  19.884   5.550
 7056POPC   PO448756  29.932  19.837   5.850
 7056POPC   GL148757  29.938  19.807   6.150
 7056POPC   GL248758  29.799  19.732   6.150
 7056POPC   C1A48759  29.892  19.810   6.450
 7056POPC   D2A48760  29.896  19.867   6.750
 7056POPC   C3A48761  29.954  19.815   7.050
 7056POPC   C4A48762  29.921  19.798   7.350
 7056POPC   C1B48763  29.798  19.600   6.450
 7056POPC   C2B48764  29.799  19.629   6.750
 7056POPC   C3B48765  29.722  19.686   7.050
 7056POPC   C4B48766  29.741  19.632   7.350
 7057POPC   NC348767  44.630  30.716   5.550
 7057POPC   PO448768  44.683  30.724   5.850
 7057POPC   GL148769  44.646  30.739   6.150
 7057POPC   GL248770  44.640  30.559   6.150
 7057POPC   C1A48771  44.647  30.668   6.450
 7057POPC   D2A48772  44.626  30.707   6.750
 7057POPC   C3A48773  44.700  30.670   7.050
 7057POPC   C4A48774  44.620  30.700   7.350
 7057POPC   C1B48775  44.633  30.489   6.450
 7057POPC   C2B48776  44.584  30.430   6.750
 7057POPC   C3B48777  44.620  30.408   7.050
 7057POPC   C4B48778  44.576  30.479   7.350
 7058POPC   NC348779  12.867   6.693   5.550
 7058POPC   PO448780  12.880   6.694   5.850
 7058POPC   GL148781  12.840   6.671   6.150
 7058POPC   GL248782  12.784   6.781   6.150
 7058POPC   C1A48783  12.820   6.608   6.450
 7058POPC   D2A48784  12.883   6.670   6.750
 7058POPC   C3A48785  12.829   6.646   7.050
 7058POPC   C4A48786  12.898   6.689   7.350
 7058POPC   C1B48787  12.672   6.883   6.450
 7058POPC   C2B48788  12.669   6.813   6.750
 7058POPC   C3B48789  12.747   6.872   7.050
 7058POPC   C4B48790  12.733   6.882   7.350
 7059POPC   NC348791  27.618  11.288   5.550
 7059POPC   PO448792  27.597  11.319   5.850
 7059POPC   GL148793  27.593  11.267   6.150
 7059POPC   GL248794  27.687  11.370   6.150
 7059POPC   C1A48795  27.642  11.339   6.450
 7059POPC   D2A48796  27.641  11.303   6.750
 7059POPC   C3A48797  27.571  11.338   7.050
 7059POPC   C4A48798  27.591  11.268   7.350
 7059POPC   C1B48799  27.773  11.461   6.450
 7059POPC   C2B48800  27.748  11.474   6.750
 7059POPC   C3B48801  27.797  11.449   7.050
 7059POPC   C4B48802  27.822  11.424   7.350
 7060POPC   NC348803  35.370  36.946   5.550
 7060POPC   PO448804  35.318  36.858   5.850
 7060POPC   GL148805  35.359  36.903   6.150
 7060POPC   GL248806  35.183  36.968   6.150
 7060POPC   C1A48807  35.341  36.905   6.450
 7060POPC   D2A48808  35.352  36.922   6.750
 7060POPC   C3A48809  35.313  36.926   7.050
 7060POPC   C4A48810  35.372  36.942   7.350
 7060POPC   C1B48811  35.117  36.929   6.450
 7060POPC   C2B48812  35.088  36.960   6.750
 7060POPC   C3B48813  35.082  36.981   7.050
 7060POPC   C4B48814  35.068  36.954   7.350
 7061POPC   NC348815  29.932   1.968   5.550
 7061POPC   PO448816  29.956   1.985   5.850
 7061POPC   GL148817  29.950   2.008   6.150
 7061POPC   GL248818  29.942   2.068   6.150
 7061POPC   C1A48819  29.911   1.947   6.450
 7061POPC   D2A48820  29.930   2.006   6.750
 7061POPC   C3A48821  29.883   2.024   7.050
 7061POPC   C4A48822  29.957   2.038   7.350
 7061POPC   C1B48823  30.051   2.214   6.450
 7061POPC   C2B48824  29.970   2.220   6.750
 7061POPC   C3B48825  30.045   2.268   7.050
 7061POPC   C4B48826  29.979   2.178   7.350
 7062POPC   NC348827   6.637  23.727   5.550
 7062POPC   PO448828   6.658  23.732   5.850
 7062POPC   GL148829   6.616  23.754   6.150
 7062POPC   GL248830   6.537  23.717   6.150
 7062POPC   C1A48831   6.631  23.687   6.450
 7062POPC   D2A48832   6.624  23.714   6.750
 7062POPC   C3A48833   6.634  23.730   7.050
 7062POPC   C4A48834   6.676  23.744   7.350
 7062POPC   C1B48835   6.372  23.786   6.450
 7062POPC   C2B48836   6.446  23.771   6.750
 7062POPC   C3B48837   6.362  23.779   7.050
 7062POPC   C4B48838   6.366  23.776   7.350
 7063POPC   NC348839  33.068  15.940   5.550
 7063POPC   PO448840  33.002  15.925   5.850
 7063POPC   GL148841  33.024  15.940   6.150
 7063POPC   GL248842  33.150  16.072   6.150
 7063POPC   C1A48843  33.015  15.987   6.450
 7063POPC   D2A48844  32.990  15.925   6.750
 7063POPC   C3A48845  33.053  15.985   7.050
 7063POPC   C4A48846  33.048  15.989   7.350
 7063POPC   C1B48847  33.232  16.178   6.450
 7063POPC   C2B48848  33.191  16.113   6.750
 7063POPC   C3B48849  33.198  16.149   7.050
 7063POPC   C4B48850  33.239  16.140   7.350
 7064POPC   NC348851  16.697   8.240   5.550
 7064POPC   PO448852  16.769   8.164   5.850
 7064POPC   GL148853  16.698   8.155   6.150
 7064POPC   GL248854  16.862   8.240   6.150
 7064POPC   C1A48855  16.774   8.236   6.450
 7064POPC   D2A48856  16.706   8.210   6.750
 7064POPC   C3A48857  16.692   8.162   7.050
 7064POPC   C4A48858  16.757   8.184   7.350
 7064POPC   C1B48859  16.963   8.255   6.450
 7064POPC   C2B48860  16.961   8.335   6.750
 7064POPC   C3B48861  16.941   8.282   7.050
 7064POPC   C4B48862  16.933   8.262   7.350
 7065POPC   NC348863  26.799  30.662   5.550
 7065POPC   PO448864  26.847  30.647   5.850
 7065POPC   GL148865  26.806  30.726   6.150
 7065POPC   GL248866  26.959  30.661   6.150
 7065POPC   C1A48867  26.801  30.700   6.450
 7065POPC   D2A48868  26.804  30.721   6.750
 7065POPC   C3A48869  26.848  30.721   7.050
 7065POPC   C4A48870  26.800  30.739   7.350
 7065POPC   C1B48871  27.018  30.605   6.450
 7065POPC   C2B48872  27.022  30.589   6.750
 7065POPC   C3B48873  27.061  30.602   7.050
 7065POPC   C4B48874  27.098  30.631   7.350
 7066POPC   NC348875   1.941  35.303   5.550
 7066POPC   PO448876   1.980  35.398   5.850
 7066POPC   GL148877   1.955  35.337   6.150
 7066POPC   GL248878   2.090  35.493   6.150
 7066POPC   C1A48879   2.003  35.396   6.450
 7066POPC   D2A48880   2.015  35.340   6.750
 7066POPC   C3A48881   2.031  35.359   7.050
 7066POPC   C4A48882   2.009  35.332   7.350
 7066POPC   C1B48883   2.148  35.530   6.450
 7066POPC   C2B48884   2.146  35.531   6.750
 7066POPC   C3B48885   2.124  35.592   7.050
 7066POPC   C4B48886   2.168  35.519   7.350
 7067POPC   NC348887   5.067  29.916   5.550
 7067POPC   PO448888   5.125  29.957   5.850
 7067POPC   GL148889   5.051  29.928   6.150
 7067POPC   GL248890   4.994  29.784   6.150
 7067POPC   C1A48891   5.097  29.908   6.450
 7067POPC   D2A48892   5.076  29.910   6.750
 7067POPC   C3A48893   5.100  29.950   7.050
 7067POPC   C4A48894   5.133  29.960   7.350
 7067POPC   C1B48895   5.022  29.672   6.450
 7067POPC   C2B48896   4.950  29.699   6.750
 7067POPC   C3B48897   4.961  29.707   7.050
 7067POPC   C4B48898   5.018  29.717   7.350
 7068POPC   NC348899  22.965  28.418   5.550
 7068POPC   PO448900  22.948  28.386   5.850
 7068POPC   GL148901  22.923  28.394   6.150
 7068POPC   GL248902  23.082  28.365   6.150
 7068POPC   C1A48903  22.908  28.331   6.450
 7068POPC   D2A48904  22.959  28.338   6.750
 7068POPC   C3A48905  22.955  28.417   7.050
 7068POPC   C4A48906  22.907  28.365   7.350
 7068POPC   C1B48907  23.182  28.402   6.450
 7068POPC   C2B48908  23.140  28.394   6.750
 7068POPC   C3B48909  23.175  28.368   7.050
 7068POPC   C4B48910  23.235  28.397   7.350
 7069POPC   NC348911  27.627  40.056   5.550
 7069POPC   PO448912  27.627  40.035   5.850
 7069POPC   GL148913  27.620  40.000   6.150
 7069POPC   GL248914  27.531  39.932   6.150
 7069POPC   C1A48915  27.609  39.969   6.450
 7069POPC   D2A48916  27.549  39.971   6.750
 7069POPC   C3A48917  27.623  40.015   7.050
 7069POPC   C4A48918  27.569  40.040   7.350
 7069POPC   C1B48919  27.450  39.784   6.450
 7069POPC   C2B48920  27.520  39.770   6.750
 7069POPC   C3B48921  27.470  39.749   7.050
 7069POPC   C4B48922  27.508  39.746   7.350
 7070POPC   NC348923  25.220  43.121   5.550
 7070POPC   PO448924  25.245  43.158   5.850
 7070POPC   GL148925  25.228  43.110   6.150
 7070POPC   GL248926  25.341  43.063   6.150
 7070POPC   C1A48927  25.315  43.138   6.450
 7070POPC   D2A48928  25.273  43.125   6.750
 7070POPC   C3A48929  25.256  43.077   7.050
 7070POPC   C4A48930  25.222  43.070   7.350
 7070POPC   C1B48931  25.473  42.887   6.450
 7070POPC   C2B48932  25.433  42.954   6.750
 7070POPC   C3B48933  25.410  42.972   7.050
 7070POPC   C4B48934  25.401  42.896   7.350
 7071POPC   NC348935  29.185   2.763   5.550
 7071POPC   PO448936  29.102   2.785   5.850
 7071POPC   GL148937  29.135   2.732   6.150
 7071POPC   GL248938  29.187   2.929   6.150
 7071POPC   C1A48939  29.166   2.777   6.450
 7071POPC   D2A48940  29.149   2.749   6.750
 7071POPC   C3A48941  29.157   2.800   7.050
 7071POPC   C4A48942  29.174   2.785   7.350
 7071POPC   C1B48943  29.233   3.038   6.450
 7071POPC   C2B48944  29.249   3.019   6.750
 7071POPC   C3B48945  29.218   2.990   7.050
 7071POPC   C4B48946  29.230   3.012   7.350
 7072POPC   NC348947  27.582  19.875   5.550
 7072POPC   PO448948  27.622  19.854   5.850
 7072POPC   GL148949  27.547  19.798   6.150
 7072POPC   GL248950  27.733  19.899   6.150
 7072POPC   C1A48951  27.637  19.867   6.450
 7072POPC   D2A48952  27.635  19.800   6.750
 7072POPC   C3A48953  27.641  19.882   7.050
 7072POPC   C4A48954  27.582  19.792   7.350
 7072POPC   C1B48955  27.762  20.009   6.450
 7072POPC   C2B48956  27.727  20.001   6.750
 7072POPC   C3B48957  27.765  20.019   7.050
 7072POPC   C4B48958  27.761  19.967   7.350
 7073POPC   NC348959  15.229  25.242   5.550
 7073POPC   PO448960  15.208  25.255   5.850
 7073POPC   GL148961  15.147  25.233   6.150
 7073POPC   GL248962  15.220  25.169   6.150
 7073POPC   C1A48963  15.157  25.226   6.450
 7073POPC   D2A48964  15.133  25.285   6.750
 7073POPC   C3A48965  15.150  25.277   7.050
 7073POPC   C4A48966  15.153  25.302   7.350
 7073POPC   C1B48967  15.280  25.010   6.450
 7073POPC   C2B48968  15.341  25.070   6.750
 7073POPC   C3B48969  15.299  24.998   7.050
 7073POPC   C4B48970  15.311  25.050   7.350
 7074POPC   NC348971   2.796   2.810   5.550
 7074POPC   PO448972   2.777   2.725   5.850
 7074POPC   GL148973   2.734   2.786   6.150
 7074POPC   GL248974   2.836   2.685   6.150
 7074POPC   C1A48975   2.799   2.743   6.450
 7074POPC   D2A48976   2.759   2.753   6.750
 7074POPC   C3A48977   2.813   2.739   7.050
 7074POPC   C4A48978   2.756   2.728   7.350
 7074POPC   C1B48979   2.791   2.560   6.450
 7074POPC   C2B48980   2.855   2.482   6.750
 7074POPC   C3B48981   2.776   2.486   7.050
 7074POPC   C4B48982   2.868   2.561   7.350
 7075POPC   NC348983  38.431  33.006   5.550
 7075POPC   PO448984  38.492  33.021   5.850
 7075POPC   GL148985  38.414  32.999   6.150
 7075POPC   GL248986  38.399  33.157   6.150
 7075POPC   C1A48987  38.407  33.039   6.450
 7075POPC   D2A48988  38.440  33.044   6.750
 7075POPC   C3A48989  38.469  33.043   7.050
 7075POPC   C4A48990  38.432  33.020   7.350
 7075POPC   C1B48991  38.327  33.208   6.450
 7075POPC   C2B48992  38.353  33.222   6.750
 7075POPC   C3B48993  38.354  33.217   7.050
 7075POPC   C4B48994  38.376  33.206   7.350
 7076POPC   NC348995  12.897  24.490   5.550
 7076POPC   PO448996  12.892  24.529   5.850
 7076POPC   GL148997  12.872  24.504   6.150
 7076POPC   GL248998  12.724  24.566   6.150
 7076POPC   C1A48999  12.811  24.497   6.450
 7076POPC   D2A49000  12.857  24.526   6.750
 7076POPC   C3A49001  12.853  24.440   7.050
 7076POPC   C4A49002  12.827  24.489   7.350
 7076POPC   C1B49003  12.592  24.609   6.450
 7076POPC   C2B49004  12.604  24.631   6.750
 7076POPC   C3B49005  12.591  24.635   7.050
 7076POPC   C4B49006  12.628  24.565   7.350
 7077POPC   NC349007   6.672   8.200   5.550
 7077POPC   PO449008   6.626   8.207   5.850
 7077POPC   GL149009   6.675   8.222   6.150
 7077POPC   GL249010   6.484   8.212   6.150
 7077POPC   C1A49011   6.692   8.201   6.450
 7077POPC   D2A49012   6.645   8.238   6.750
 7077POPC   C3A49013   6.640   8.152   7.050
 7077POPC   C4A49014   6.669   8.222   7.350
 7077POPC   C1B49015   6.425   8.272   6.450
 7077POPC   C2B49016   6.388   8.295   6.750
 7077POPC   C3B49017   6.417   8.341   7.050
 7077POPC   C4B49018   6.380   8.282   7.350
 7078POPC   NC349019  34.531  23.681   5.550
 7078POPC   PO449020  34.584  23.754   5.850
 7078POPC   GL149021  34.606  23.720   6.150
 7078POPC   GL249022  34.443  23.612   6.150
 7078POPC   C1A49023  34.554  23.674   6.450
 7078POPC   D2A49024  34.548  23.702   6.750
 7078POPC   C3A49025  34.592  23.734   7.050
 7078POPC   C4A49026  34.623  23.742   7.350
 7078POPC   C1B49027  34.327  23.523   6.450
 7078POPC   C2B49028  34.363  23.531   6.750
 7078POPC   C3B49029  34.386  23.531   7.050
 7078POPC   C4B49030  34.354  23.575   7.350
 7079POPC   NC349031   3.547   0.430   5.550
 7079POPC   PO449032   3.496   0.438   5.850
 7079POPC   GL149033   3.557   0.479   6.150
 7079POPC   GL249034   3.554   0.342   6.150
 7079POPC   C1A49035   3.551   0.462   6.450
 7079POPC   D2A49036   3.570   0.458   6.750
 7079POPC   C3A49037   3.494   0.395   7.050
 7079POPC   C4A49038   3.565   0.449   7.350
 7079POPC   C1B49039   3.654   0.253   6.450
 7079POPC   C2B49040   3.628   0.199   6.750
 7079POPC   C3B49041   3.647   0.180   7.050
 7079POPC   C4B49042   3.658   0.255   7.350
 7080POPC   NC349043  23.710  35.381   5.550
 7080POPC   PO449044  23.689  35.322   5.850
 7080POPC   GL149045  23.732  35.302   6.150
 7080POPC   GL249046  23.560  35.338   6.150
 7080POPC   C1A49047  23.671  35.394   6.450
 7080POPC   D2A49048  23.751  35.330   6.750
 7080POPC   C3A49049  23.715  35.318   7.050
 7080POPC   C4A49050  23.706  35.337   7.350
 7080POPC   C1B49051  23.438  35.342   6.450
 7080POPC   C2B49052  23.513  35.358   6.750
 7080POPC   C3B49053  23.502  35.363   7.050
 7080POPC   C4B49054  23.432  35.301   7.350
 7081POPC   NC349055  24.494  43.906   5.550
 7081POPC   PO449056  24.526  43.911   5.850
 7081POPC   GL149057  24.514  43.906   6.150
 7081POPC   GL249058  24.515  43.772   6.150
 7081POPC   C1A49059  24.469  43.906   6.450
 7081POPC   D2A49060  24.467  43.862   6.750
 7081POPC   C3A49061  24.440  43.930   7.050
 7081POPC   C4A49062  24.504  43.911   7.350
 7081POPC   C1B49063  24.653  43.713   6.450
 7081POPC   C2B49064  24.596  43.648   6.750
 7081POPC   C3B49065  24.661  43.727   7.050
 7081POPC   C4B49066  24.674  43.655   7.350
 7082POPC   NC349067  11.259  43.933   5.550
 7082POPC   PO449068  11.268  43.878   5.850
 7082POPC   GL149069  11.328  43.867   6.150
 7082POPC   GL249070  11.292  44.030   6.150
 7082POPC   C1A49071  11.263  43.884   6.450
 7082POPC   D2A49072  11.326  43.915   6.750
 7082POPC   C3A49073  11.292  43.906   7.050
 7082POPC   C4A49074  11.340  43.920   7.350
 7082POPC   C1B49075  11.312  44.117   6.450
 7082POPC   C2B49076  11.347  44.138   6.750
 7082POPC   C3B49077  11.324  44.182   7.050
 7082POPC   C4B49078  11.373  44.096   7.350
 7083POPC   NC349079  19.792  38.493   5.550
 7083POPC   PO449080  19.813  38.424   5.850
 7083POPC   GL149081  19.815  38.461   6.150
 7083POPC   GL249082  19.675  38.531   6.150
 7083POPC   C1A49083  19.879  38.505   6.450
 7083POPC   D2A49084  19.805  38.409   6.750
 7083POPC   C3A49085  19.865  38.427   7.050
 7083POPC   C4A49086  19.814  38.415   7.350
 7083POPC   C1B49087  19.634  38.556   6.450
 7083POPC   C2B49088  19.573  38.605   6.750
 7083POPC   C3B49089  19.602  38.618   7.050
 7083POPC   C4B49090  19.581  38.613   7.350
 7084POPC   NC349091  10.488  23.678   5.550
 7084POPC   PO449092  10.546  23.718   5.850
 7084POPC   GL149093  10.510  23.668   6.150
 7084POPC   GL249094  10.436  23.685   6.150
 7084POPC   C1A49095  10.476  23.758   6.450
 7084POPC   D2A49096  10.530  23.760   6.750
 7084POPC   C3A49097  10.557  23.682   7.050
 7084POPC   C4A49098  10.489  23.701   7.350
 7084POPC   C1B49099  10.245  23.603   6.450
 7084POPC   C2B49100  10.320  23.584   6.750
 7084POPC   C3B49101  10.302  23.618   7.050
 7084POPC   C4B49102  10.255  23.625   7.350
 7085POPC   NC349103   8.228  39.982   5.550
 7085POPC   PO449104   8.224  40.025   5.850
 7085POPC   GL149105   8.196  40.019   6.150
 7085POPC   GL249106   8.105  39.883   6.150
 7085POPC   C1A49107   8.202  39.972   6.450
 7085POPC   D2A49108   8.247  40.053   6.750
 7085POPC   C3A49109   8.154  40.035   7.050
 7085POPC   C4A49110   8.225  40.052   7.350
 7085POPC   C1B49111   8.128  39.801   6.450
 7085POPC   C2B49112   8.130  39.733   6.750
 7085POPC   C3B49113   8.119  39.789   7.050
 7085POPC   C4B49114   8.092  39.792   7.350
 7086POPC   NC349115  12.117  25.259   5.550
 7086POPC   PO449116  12.061  25.272   5.850
 7086POPC   GL149117  12.111  25.288   6.150
 7086POPC   GL249118  12.104  25.213   6.150
 7086POPC   C1A49119  12.097  25.275   6.450
 7086POPC   D2A49120  12.117  25.313   6.750
 7086POPC   C3A49121  12.051  25.219   7.050
 7086POPC   C4A49122  12.064  25.250   7.350
 7086POPC   C1B49123  12.198  25.036   6.450
 7086POPC   C2B49124  12.223  25.052   6.750
 7086POPC   C3B49125  12.273  25.110   7.050
 7086POPC   C4B49126  12.228  25.020   7.350
 7087POPC   NC349127   4.358  41.538   5.550
 7087POPC   PO449128   4.343  41.572   5.850
 7087POPC   GL149129   4.321  41.512   6.150
 7087POPC   GL249130   4.236  41.554   6.150
 7087POPC   C1A49131   4.311  41.525   6.450
 7087POPC   D2A49132   4.289  41.526   6.750
 7087POPC   C3A49133   4.310  41.594   7.050
 7087POPC   C4A49134   4.303  41.526   7.350
 7087POPC   C1B49135   4.030  41.597   6.450
 7087POPC   C2B49136   4.024  41.568   6.750
 7087POPC   C3B49137   4.106  41.558   7.050
 7087POPC   C4B49138   4.072  41.615   7.350
 7088POPC   NC349139  42.285   9.763   5.550
 7088POPC   PO449140  42.374   9.777   5.850
 7088POPC   GL149141  42.286   9.749   6.150
 7088POPC   GL249142  42.244   9.866   6.150
 7088POPC   C1A49143  42.321   9.705   6.450
 7088POPC   D2A49144  42.337   9.763   6.750
 7088POPC   C3A49145  42.345   9.791   7.050
 7088POPC   C4A49146  42.360   9.704   7.350
 7088POPC   C1B49147  42.291   9.963   6.450
 7088POPC   C2B49148  42.292   9.996   6.750
 7088POPC   C3B49149  42.276   9.937   7.050
 7088POPC   C4B49150  42.291   9.999   7.350
 7089POPC   NC349151   4.354  16.698   5.550
 7089POPC   PO449152   4.331  16.727   5.850
 7089POPC   GL149153   4.338  16.686   6.150
 7089POPC   GL249154   4.274  16.648   6.150
 7089POPC   C1A49155   4.347  16.746   6.450
 7089POPC   D2A49156   4.301  16.750   6.750
 7089POPC   C3A49157   4.314  16.711   7.050
 7089POPC   C4A49158   4.345  16.708   7.350
 7089POPC   C1B49159   4.119  16.533   6.450
 7089POPC   C2B49160   4.182  16.566   6.750
 7089POPC   C3B49161   4.191  16.554   7.050
 7089POPC   C4B49162   4.144  16.534   7.350
 7090POPC   NC349163  15.944  40.022   5.550
 7090POPC   PO449164  15.924  40.038   5.850
 7090POPC   GL149165  15.906  40.038   6.150
 7090POPC   GL249166  15.976  40.094   6.150
 7090POPC   C1A49167  15.946  40.017   6.450
 7090POPC   D2A49168  15.979  40.009   6.750
 7090POPC   C3A49169  15.930  39.962   7.050
 7090POPC   C4A49170  15.913  40.051   7.350
 7090POPC   C1B49171  16.083  40.251   6.450
 7090POPC   C2B49172  16.109  40.221   6.750
 7090POPC   C3B49173  16.076  40.233   7.050
 7090POPC   C4B49174  16.023  40.260   7.350
 7091POPC   NC349175  34.582   8.209   5.550
 7091POPC   PO449176  34.599   8.176   5.850
 7091POPC   GL149177  34.561   8.234   6.150
 7091POPC   GL249178  34.609   8.327   6.150
 7091POPC   C1A49179  34.584   8.165   6.450
 7091POPC   D2A49180  34.528   8.156   6.750
 7091POPC   C3A49181  34.596   8.222   7.050
 7091POPC   C4A49182  34.603   8.201   7.350
 7091POPC   C1B49183  34.557   8.483   6.450
 7091POPC   C2B49184  34.532   8.406   6.750
 7091POPC   C3B49185  34.517   8.407   7.050
 7091POPC   C4B49186  34.589   8.442   7.350
 7092POPC   NC349187  32.975   8.991   5.550
 7092POPC   PO449188  33.042   8.933   5.850
 7092POPC   GL149189  32.986   9.021   6.150
 7092POPC   GL249190  33.094   8.830   6.150
 7092POPC   C1A49191  32.994   8.949   6.450
 7092POPC   D2A49192  33.057   8.953   6.750
 7092POPC   C3A49193  32.984   8.945   7.050
 7092POPC   C4A49194  33.016   8.976   7.350
 7092POPC   C1B49195  33.163   8.755   6.450
 7092POPC   C2B49196  33.147   8.811   6.750
 7092POPC   C3B49197  33.188   8.744   7.050
 7092POPC   C4B49198  33.141   8.743   7.350
 7093POPC   NC349199  30.734   5.051   5.550
 7093POPC   PO449200  30.743   5.114   5.850
 7093POPC   GL149201  30.681   5.093   6.150
 7093POPC   GL249202  30.646   5.171   6.150
 7093POPC   C1A49203  30.741   5.140   6.450
 7093POPC   D2A49204  30.702   5.072   6.750
 7093POPC   C3A49205  30.705   5.111   7.050
 7093POPC   C4A49206  30.702   5.064   7.350
 7093POPC   C1B49207  30.449   5.261   6.450
 7093POPC   C2B49208  30.494   5.292   6.750
 7093POPC   C3B49209  30.489   5.292   7.050
 7093POPC   C4B49210  30.529   5.271   7.350
 7094POPC   NC349211  29.940  40.770   5.550
 7094POPC   PO449212  29.953  40.779   5.850
 7094POPC   GL149213  29.913  40.810   6.150
 7094POPC   GL249214  29.776  40.811   6.150
 7094POPC   C1A49215  29.947  40.736   6.450
 7094POPC   D2A49216  29.962  40.784   6.750
 7094POPC   C3A49217  29.916  40.765   7.050
 7094POPC   C4A49218  29.927  40.803   7.350
 7094POPC   C1B49219  29.704  40.788   6.450
 7094POPC   C2B49220  29.693  40.773   6.750
 7094POPC   C3B49221  29.625  40.863   7.050
 7094POPC   C4B49222  29.641  40.847   7.350
 7095POPC   NC349223  39.213  20.649   5.550
 7095POPC   PO449224  39.276  20.651   5.850
 7095POPC   GL149225  39.212  20.595   6.150
 7095POPC   GL249226  39.116  20.513   6.150
 7095POPC   C1A49227  39.248  20.646   6.450
 7095POPC   D2A49228  39.247  20.644   6.750
 7095POPC   C3A49229  39.278  20.570   7.050
 7095POPC   C4A49230  39.188  20.629   7.350
 7095POPC   C1B49231  39.048  20.494   6.450
 7095POPC   C2B49232  39.058  20.508   6.750
 7095POPC   C3B49233  39.032  20.518   7.050
 7095POPC   C4B49234  38.977  20.468   7.350
 7096POPC   NC349235  28.413  42.367   5.550
 7096POPC   PO449236  28.385  42.319   5.850
 7096POPC   GL149237  28.386  42.376   6.150
 7096POPC   GL249238  28.277  42.235   6.150
 7096POPC   C1A49239  28.333  42.369   6.450
 7096POPC   D2A49240  28.366  42.341   6.750
 7096POPC   C3A49241  28.322  42.301   7.050
 7096POPC   C4A49242  28.375  42.358   7.350
 7096POPC   C1B49243  28.139  42.213   6.450
 7096POPC   C2B49244  28.162  42.162   6.750
 7096POPC   C3B49245  28.167  42.167   7.050
 7096POPC   C4B49246  28.169  42.245   7.350
 7097POPC   NC349247   8.240  33.813   5.550
 7097POPC   PO449248   8.203  33.792   5.850
 7097POPC   GL149249   8.200  33.767   6.150
 7097POPC   GL249250   8.192  33.919   6.150
 7097POPC   C1A49251   8.157  33.755   6.450
 7097POPC   D2A49252   8.230  33.825   6.750
 7097POPC   C3A49253   8.167  33.782   7.050
 7097POPC   C4A49254   8.225  33.788   7.350
 7097POPC   C1B49255   8.189  34.059   6.450
 7097POPC   C2B49256   8.249  34.036   6.750
 7097POPC   C3B49257   8.158  34.086   7.050
 7097POPC   C4B49258   8.231  34.026   7.350
 7098POPC   NC349259   7.446  38.441   5.550
 7098POPC   PO449260   7.448  38.421   5.850
 7098POPC   GL149261   7.429  38.461   6.150
 7098POPC   GL249262   7.321  38.434   6.150
 7098POPC   C1A49263   7.434  38.502   6.450
 7098POPC   D2A49264   7.421  38.487   6.750
 7098POPC   C3A49265   7.449  38.472   7.050
 7098POPC   C4A49266   7.402  38.484   7.350
 7098POPC   C1B49267   7.181  38.429   6.450
 7098POPC   C2B49268   7.176  38.437   6.750
 7098POPC   C3B49269   7.140  38.411   7.050
 7098POPC   C4B49270   7.192  38.411   7.350
 7099POPC   NC349271   3.493  39.189   5.550
 7099POPC   PO449272   3.528  39.191   5.850
 7099POPC   GL149273   3.501  39.219   6.150
 7099POPC   GL249274   3.373  39.253   6.150
 7099POPC   C1A49275   3.527  39.268   6.450
 7099POPC   D2A49276   3.500  39.193   6.750
 7099POPC   C3A49277   3.545  39.190   7.050
 7099POPC   C4A49278   3.533  39.253   7.350
 7099POPC   C1B49279   3.307  39.252   6.450
 7099POPC   C2B49280   3.331  39.218   6.750
 7099POPC   C3B49281   3.336  39.198   7.050
 7099POPC   C4B49282   3.258  39.204   7.350
 7100POPC   NC349283  26.771   5.115   5.550
 7100POPC   PO449284  26.814   5.124   5.850
 7100POPC   GL149285  26.784   5.074   6.150
 7100POPC   GL249286  26.802   5.216   6.150
 7100POPC   C1A49287  26.806   5.077   6.450
 7100POPC   D2A49288  26.794   5.089   6.750
 7100POPC   C3A49289  26.786   5.119   7.050
 7100POPC   C4A49290  26.800   5.137   7.350
 7100POPC   C1B49291  26.833   5.375   6.450
 7100POPC   C2B49292  26.820   5.386   6.750
 7100POPC   C3B49293  26.832   5.305   7.050
 7100POPC   C4B49294  26.798   5.312   7.350
 7101POPC   NC349295  28.336  10.544   5.550
 7101POPC   PO449296  28.341  10.481   5.850
 7101POPC   GL149297  28.395  10.495   6.150
 7101POPC   GL249298  28.319  10.612   6.150
 7101POPC   C1A49299  28.373  10.544   6.450
 7101POPC   D2A49300  28.346  10.480   6.750
 7101POPC   C3A49301  28.321  10.540   7.050
 7101POPC   C4A49302  28.391  10.482   7.350
 7101POPC   C1B49303  28.198  10.742   6.450
 7101POPC   C2B49304  28.168  10.664   6.750
 7101POPC   C3B49305  28.214  10.678   7.050
 7101POPC   C4B49306  28.183  10.680   7.350
 7102POPC   NC349307  28.330  40.018   5.550
 7102POPC   PO449308  28.394  40.042   5.850
 7102POPC   GL149309  28.386  40.043   6.150
 7102POPC   GL249310  28.308  39.846   6.150
 7102POPC   C1A49311  28.386  39.985   6.450
 7102POPC   D2A49312  28.355  40.005   6.750
 7102POPC   C3A49313  28.356  39.964   7.050
 7102POPC   C4A49314  28.410  40.010   7.350
 7102POPC   C1B49315  28.284  39.815   6.450
 7102POPC   C2B49316  28.262  39.818   6.750
 7102POPC   C3B49317  28.277  39.752   7.050
 7102POPC   C4B49318  28.310  39.781   7.350
 7103POPC   NC349319  22.115   5.883   5.550
 7103POPC   PO449320  22.185   5.909   5.850
 7103POPC   GL149321  22.123   5.912   6.150
 7103POPC   GL249322  22.177   5.762   6.150
 7103POPC   C1A49323  22.163   5.829   6.450
 7103POPC   D2A49324  22.146   5.851   6.750
 7103POPC   C3A49325  22.163   5.835   7.050
 7103POPC   C4A49326  22.164   5.914   7.350
 7103POPC   C1B49327  22.149   5.635   6.450
 7103POPC   C2B49328  22.131   5.602   6.750
 7103POPC   C3B49329  22.182   5.638   7.050
 7103POPC   C4B49330  22.132   5.666   7.350
 7104POPC   NC349331  22.118   7.435   5.550
 7104POPC   PO449332  22.192   7.460   5.850
 7104POPC   GL149333  22.168   7.455   6.150
 7104POPC   GL249334  22.062   7.334   6.150
 7104POPC   C1A49335  22.165   7.395   6.450
 7104POPC   D2A49336  22.210   7.435   6.750
 7104POPC   C3A49337  22.155   7.373   7.050
 7104POPC   C4A49338  22.211   7.443   7.350
 7104POPC   C1B49339  21.970   7.320   6.450
 7104POPC   C2B49340  21.943   7.302   6.750
 7104POPC   C3B49341  21.905   7.294   7.050
 7104POPC   C4B49342  21.926   7.316   7.350
 7105POPC   NC349343  35.368  11.280   5.550
 7105POPC   PO449344  35.351  11.267   5.850
 7105POPC   GL149345  35.347  11.324   6.150
 7105POPC   GL249346  35.521  11.276   6.150
 7105POPC   C1A49347  35.364  11.252   6.450
 7105POPC   D2A49348  35.312  11.302   6.750
 7105POPC   C3A49349  35.361  11.348   7.050
 7105POPC   C4A49350  35.379  11.293   7.350
 7105POPC   C1B49351  35.578  11.264   6.450
 7105POPC   C2B49352  35.624  11.298   6.750
 7105POPC   C3B49353  35.559  11.333   7.050
 7105POPC   C4B49354  35.648  11.272   7.350
 7106POPC   NC349355  15.910   2.764   5.550
 7106POPC   PO449356  15.929   2.748   5.850
 7106POPC   GL149357  15.953   2.761   6.150
 7106POPC   GL249358  15.978   2.651   6.150
 7106POPC   C1A49359  15.960   2.755   6.450
 7106POPC   D2A49360  15.939   2.716   6.750
 7106POPC   C3A49361  15.937   2.716   7.050
 7106POPC   C4A49362  15.922   2.763   7.350
 7106POPC   C1B49363  15.952   2.496   6.450
 7106POPC   C2B49364  15.986   2.497   6.750
 7106POPC   C3B49365  15.953   2.509   7.050
 7106POPC   C4B49366  15.990   2.506   7.350
 7107POPC   NC349367  13.671   5.868   5.550
 7107POPC   PO449368  13.606   5.865   5.850
 7107POPC   GL149369  13.673   5.851   6.150
 7107POPC   GL249370  13.733   5.840   6.150
 7107POPC   C1A49371  13.667   5.856   6.450
 7107POPC   D2A49372  13.645   5.827   6.750
 7107POPC   C3A49373  13.610   5.884   7.050
 7107POPC   C4A49374  13.616   5.889   7.350
 7107POPC   C1B49375  13.888   5.872   6.450
 7107POPC   C2B49376  13.844   5.857   6.750
 7107POPC   C3B49377  13.914   5.854   7.050
 7107POPC   C4B49378  13.910   5.832   7.350
 7108POPC   NC349379  25.310  14.387   5.550
 7108POPC   PO449380  25.298  14.373   5.850
 7108POPC   GL149381  25.250  14.383   6.150
 7108POPC   GL249382  25.397  14.319   6.150
 7108POPC   C1A49383  25.284  14.369   6.450
 7108POPC   D2A49384  25.268  14.401   6.750
 7108POPC   C3A49385  25.294  14.445   7.050
 7108POPC   C4A49386  25.308  14.410   7.350
 7108POPC   C1B49387  25.496  14.269   6.450
 7108POPC   C2B49388  25.489  14.301   6.750
 7108POPC   C3B49389  25.526  14.312   7.050
 7108POPC   C4B49390  25.530  14.306   7.350
 7109POPC   NC349391  15.931  19.786   5.550
 7109POPC   PO449392  16.000  19.797   5.850
 7109POPC   GL149393  15.912  19.876   6.150
 7109POPC   GL249394  16.046  19.753   6.150
 7109POPC   C1A49395  15.922  19.810   6.450
 7109POPC   D2A49396  15.990  19.818   6.750
 7109POPC   C3A49397  15.981  19.840   7.050
 7109POPC   C4A49398  15.943  19.829   7.350
 7109POPC   C1B49399  16.168  19.621   6.450
 7109POPC   C2B49400  16.121  19.693   6.750
 7109POPC   C3B49401  16.148  19.702   7.050
 7109POPC   C4B49402  16.184  19.642   7.350
 7110POPC   NC349403  13.604  36.865   5.550
 7110POPC   PO449404  13.666  36.888   5.850
 7110POPC   GL149405  13.652  36.889   6.150
 7110POPC   GL249406  13.707  36.985   6.150
 7110POPC   C1A49407  13.650  36.867   6.450
 7110POPC   D2A49408  13.618  36.897   6.750
 7110POPC   C3A49409  13.622  36.940   7.050
 7110POPC   C4A49410  13.585  36.927   7.350
 7110POPC   C1B49411  13.737  37.106   6.450
 7110POPC   C2B49412  13.756  37.178   6.750
 7110POPC   C3B49413  13.784  37.133   7.050
 7110POPC   C4B49414  13.699  37.114   7.350
 7111POPC   NC349415   1.184  29.119   5.550
 7111POPC   PO449416   1.238  29.180   5.850
 7111POPC   GL149417   1.178  29.165   6.150
 7111POPC   GL249418   1.103  29.095   6.150
 7111POPC   C1A49419   1.251  29.164   6.450
 7111POPC   D2A49420   1.223  29.139   6.750
 7111POPC   C3A49421   1.173  29.103   7.050
 7111POPC   C4A49422   1.173  29.184   7.350
 7111POPC   C1B49423   1.029  28.957   6.450
 7111POPC   C2B49424   0.973  29.008   6.750
 7111POPC   C3B49425   0.985  28.962   7.050
 7111POPC   C4B49426   1.039  28.962   7.350
 7112POPC   NC349427  44.633  22.136   5.550
 7112POPC   PO449428  44.677  22.209   5.850
 7112POPC   GL149429  44.684  22.113   6.150
 7112POPC   GL249430  44.741  22.005   6.150
 7112POPC   C1A49431  44.662  22.149   6.450
 7112POPC   D2A49432  44.651  22.211   6.750
 7112POPC   C3A49433  44.670  22.121   7.050
 7112POPC   C4A49434  44.624  22.207   7.350
 7112POPC   C1B49435  44.786  21.964   6.450
 7112POPC   C2B49436  44.751  21.901   6.750
 7112POPC   C3B49437  44.742  21.966   7.050
 7112POPC   C4B49438  44.751  21.972   7.350
 7113POPC   NC349439  26.796   9.708   5.550
 7113POPC   PO449440  26.821   9.789   5.850
 7113POPC   GL149441  26.812   9.789   6.150
 7113POPC   GL249442  26.758   9.673   6.150
 7113POPC   C1A49443  26.841   9.766   6.450
 7113POPC   D2A49444  26.839   9.758   6.750
 7113POPC   C3A49445  26.803   9.739   7.050
 7113POPC   C4A49446  26.838   9.737   7.350
 7113POPC   C1B49447  26.761   9.527   6.450
 7113POPC   C2B49448  26.750   9.514   6.750
 7113POPC   C3B49449  26.765   9.534   7.050
 7113POPC   C4B49450  26.782   9.535   7.350
 7114POPC   NC349451  22.193  10.478   5.550
 7114POPC   PO449452  22.185  10.549   5.850
 7114POPC   GL149453  22.117  10.502   6.150
 7114POPC   GL249454  22.052  10.626   6.150
 7114POPC   C1A49455  22.164  10.503   6.450
 7114POPC   D2A49456  22.139  10.477   6.750
 7114POPC   C3A49457  22.187  10.520   7.050
 7114POPC   C4A49458  22.118  10.489   7.350
 7114POPC   C1B49459  21.953  10.638   6.450
 7114POPC   C2B49460  21.964  10.669   6.750
 7114POPC   C3B49461  21.985  10.665   7.050
 7114POPC   C4B49462  21.994  10.704   7.350
 7115POPC   NC349463   6.668  38.441   5.550
 7115POPC   PO449464   6.603  38.421   5.850
 7115POPC   GL149465   6.659  38.415   6.150
 7115POPC   GL249466   6.718  38.332   6.150
 7115POPC   C1A49467   6.633  38.413   6.450
 7115POPC   D2A49468   6.687  38.415   6.750
 7115POPC   C3A49469   6.649  38.420   7.050
 7115POPC   C4A49470   6.684  38.448   7.350
 7115POPC   C1B49471   6.792  38.261   6.450
 7115POPC   C2B49472   6.780  38.307   6.750
 7115POPC   C3B49473   6.841  38.251   7.050
 7115POPC   C4B49474   6.858  38.254   7.350
 7116POPC   NC349475   2.797   8.195   5.550
 7116POPC   PO449476   2.762   8.226   5.850
 7116POPC   GL149477   2.737   8.147   6.150
 7116POPC   GL249478   2.648   8.135   6.150
 7116POPC   C1A49479   2.803   8.190   6.450
 7116POPC   D2A49480   2.741   8.193   6.750
 7116POPC   C3A49481   2.812   8.242   7.050
 7116POPC   C4A49482   2.804   8.155   7.350
 7116POPC   C1B49483   2.573   8.057   6.450
 7116POPC   C2B49484   2.579   8.056   6.750
 7116POPC   C3B49485   2.498   8.124   7.050
 7116POPC   C4B49486   2.521   8.128   7.350
 7117POPC   NC349487  35.370  29.151   5.550
 7117POPC   PO449488  35.322  29.191   5.850
 7117POPC   GL149489  35.345  29.179   6.150
 7117POPC   GL249490  35.308  28.983   6.150
 7117POPC   C1A49491  35.305  29.153   6.450
 7117POPC   D2A49492  35.347  29.138   6.750
 7117POPC   C3A49493  35.340  29.185   7.050
 7117POPC   C4A49494  35.308  29.136   7.350
 7117POPC   C1B49495  35.287  28.891   6.450
 7117POPC   C2B49496  35.235  28.958   6.750
 7117POPC   C3B49497  35.252  28.920   7.050
 7117POPC   C4B49498  35.266  28.888   7.350
 7118POPC   NC349499   5.862   8.974   5.550
 7118POPC   PO449500   5.860   8.985   5.850
 7118POPC   GL149501   5.862   9.019   6.150
 7118POPC   GL249502   5.801   9.115   6.150
 7118POPC   C1A49503   5.856   8.973   6.450
 7118POPC   D2A49504   5.887   8.927   6.750
 7118POPC   C3A49505   5.831   8.964   7.050
 7118POPC   C4A49506   5.839   9.020   7.350
 7118POPC   C1B49507   5.747   9.174   6.450
 7118POPC   C2B49508   5.786   9.167   6.750
 7118POPC   C3B49509   5.728   9.210   7.050
 7118POPC   C4B49510   5.760   9.189   7.350
 7119POPC   NC349511  40.050  39.207   5.550
 7119POPC   PO449512  39.967  39.277   5.850
 7119POPC   GL149513  40.048  39.266   6.150
 7119POPC   GL249514  40.007  39.085   6.150
 7119POPC   C1A49515  39.995  39.212   6.450
 7119POPC   D2A49516  40.004  39.267   6.750
 7119POPC   C3A49517  40.027  39.249   7.050
 7119POPC   C4A49518  40.004  39.252   7.350
 7119POPC   C1B49519  39.958  38.999   6.450
 7119POPC   C2B49520  39.906  38.963   6.750
 7119POPC   C3B49521  39.945  38.951   7.050
 7119POPC   C4B49522  39.879  38.991   7.350
 7120POPC   NC349523   1.252  14.368   5.550
 7120POPC   PO449524   1.173  14.440   5.850
 7120POPC   GL149525   1.239  14.373   6.150
 7120POPC   GL249526   1.196  14.305   6.150
 7120POPC   C1A49527   1.200  14.414   6.450
 7120POPC   D2A49528   1.203  14.433   6.750
 7120POPC   C3A49529   1.237  14.359   7.050
 7120POPC   C4A49530   1.183  14.447   7.350
 7120POPC   C1B49531   1.239  14.182   6.450
 7120POPC   C2B49532   1.232  14.139   6.750
 7120POPC   C3B49533   1.218  14.189   7.050
 7120POPC   C4B49534   1.306  14.156   7.350
 7121POPC   NC349535  12.064  43.896   5.550
 7121POPC   PO449536  12.086  43.891   5.850
 7121POPC   GL149537  12.102  43.839   6.150
 7121POPC   GL249538  11.996  43.950   6.150
 7121POPC   C1A49539  12.052  43.876   6.450
 7121POPC   D2A49540  12.075  43.849   6.750
 7121POPC   C3A49541  12.102  43.927   7.050
 7121POPC   C4A49542  12.037  43.884   7.350
 7121POPC   C1B49543  12.000  44.135   6.450
 7121POPC   C2B49544  11.918  44.127   6.750
 7121POPC   C3B49545  11.935  44.068   7.050
 7121POPC   C4B49546  11.982  44.146   7.350
 7122POPC   NC349547  29.926  31.510   5.550
 7122POPC   PO449548  29.938  31.522   5.850
 7122POPC   GL149549  29.932  31.467   6.150
 7122POPC   GL249550  30.048  31.537   6.150
 7122POPC   C1A49551  29.906  31.439   6.450
 7122POPC   D2A49552  29.896  31.445   6.750
 7122POPC   C3A49553  29.872  31.499   7.050
 7122POPC   C4A49554  29.901  31.428   7.350
 7122POPC   C1B49555  30.123  31.632   6.450
 7122POPC   C2B49556  30.093  31.632   6.750
 7122POPC   C3B49557  30.151  31.579   7.050
 7122POPC   C4B49558  30.108  31.669   7.350
 7123POPC   NC349559   1.988   2.796   5.550
 7123POPC   PO449560   2.039   2.792   5.850
 7123POPC   GL149561   2.013   2.758   6.150
 7123POPC   GL249562   1.976   2.635   6.150
 7123POPC   C1A49563   1.996   2.750   6.450
 7123POPC   D2A49564   1.997   2.746   6.750
 7123POPC   C3A49565   2.016   2.728   7.050
 7123POPC   C4A49566   1.994   2.812   7.350
 7123POPC   C1B49567   1.982   2.529   6.450
 7123POPC   C2B49568   2.029   2.518   6.750
 7123POPC   C3B49569   2.032   2.491   7.050
 7123POPC   C4B49570   2.041   2.512   7.350
 7124POPC   NC349571  39.225  39.278   5.550
 7124POPC   PO449572  39.221  39.248   5.850
 7124POPC   GL149573  39.235  39.249   6.150
 7124POPC   GL249574  39.315  39.187   6.150
 7124POPC   C1A49575  39.271  39.257   6.450
 7124POPC   D2A49576  39.274  39.186   6.750
 7124POPC   C3A49577  39.213  39.250   7.050
 7124POPC   C4A49578  39.194  39.186   7.350
 7124POPC   C1B49579  39.516  39.148   6.450
 7124POPC   C2B49580  39.456  39.172   6.750
 7124POPC   C3B49581  39.507  39.204   7.050
 7124POPC   C4B49582  39.497  39.171   7.350
 7125POPC   NC349583  43.919  35.305   5.550
 7125POPC   PO449584  43.913  35.349   5.850
 7125POPC   GL149585  43.898  35.326   6.150
 7125POPC   GL249586  43.811  35.223   6.150
 7125POPC   C1A49587  43.919  35.364   6.450
 7125POPC   D2A49588  43.913  35.348   6.750
 7125POPC   C3A49589  43.921  35.307   7.050
 7125POPC   C4A49590  43.909  35.329   7.350
 7125POPC   C1B49591  43.761  35.160   6.450
 7125POPC   C2B49592  43.766  35.132   6.750
 7125POPC   C3B49593  43.793  35.143   7.050
 7125POPC   C4B49594  43.706  35.156   7.350
 7126POPC   NC349595  12.124  18.326   5.550
 7126POPC   PO449596  12.032  18.330   5.850
 7126POPC   GL149597  12.029  18.325   6.150
 7126POPC   GL249598  12.173  18.275   6.150
 7126POPC   C1A49599  12.049  18.325   6.450
 7126POPC   D2A49600  12.113  18.331   6.750
 7126POPC   C3A49601  12.106  18.331   7.050
 7126POPC   C4A49602  12.121  18.331   7.350
 7126POPC   C1B49603  12.309  18.227   6.450
 7126POPC   C2B49604  12.264  18.169   6.750
 7126POPC   C3B49605  12.279  18.204   7.050
 7126POPC   C4B49606  12.281  18.162   7.350
 7127POPC   NC349607  12.834  22.182   5.550
 7127POPC   PO449608  12.832  22.212   5.850
 7127POPC   GL149609  12.821  22.145   6.150
 7127POPC   GL249610  12.926  22.247   6.150
 7127POPC   C1A49611  12.840  22.161   6.450
 7127POPC   D2A49612  12.807  22.195   6.750
 7127POPC   C3A49613  12.863  22.112   7.050
 7127POPC   C4A49614  12.829  22.205   7.350
 7127POPC   C1B49615  13.025  22.298   6.450
 7127POPC   C2B49616  13.092  22.271   6.750
 7127POPC   C3B49617  13.023  22.276   7.050
 7127POPC   C4B49618  13.053  22.325   7.350
 7128POPC   NC349619  30.651  31.473   5.550
 7128POPC   PO449620  30.725  31.427   5.850
 7128POPC   GL149621  30.655  31.503   6.150
 7128POPC   GL249622  30.669  31.298   6.150
 7128POPC   C1A49623  30.675  31.478   6.450
 7128POPC   D2A49624  30.693  31.487   6.750
 7128POPC   C3A49625  30.665  31.463   7.050
 7128POPC   C4A49626  30.709  31.433   7.350
 7128POPC   C1B49627  30.650  31.196   6.450
 7128POPC   C2B49628  30.703  31.249   6.750
 7128POPC   C3B49629  30.663  31.257   7.050
 7128POPC   C4B49630  30.703  31.192   7.350
 7129POPC   NC349631  43.132   9.748   5.550
 7129POPC   PO449632  43.085   9.763   5.850
 7129POPC   GL149633  43.151   9.746   6.150
 7129POPC   GL249634  43.078   9.576   6.150
 7129POPC   C1A49635  43.156   9.719   6.450
 7129POPC   D2A49636  43.131   9.718   6.750
 7129POPC   C3A49637  43.067   9.718   7.050
 7129POPC   C4A49638  43.102   9.755   7.350
 7129POPC   C1B49639  43.119   9.453   6.450
 7129POPC   C2B49640  43.168   9.476   6.750
 7129POPC   C3B49641  43.132   9.530   7.050
 7129POPC   C4B49642  43.171   9.492   7.350
 7130POPC   NC349643  12.058  27.552   5.550
 7130POPC   PO449644  12.078  27.616   5.850
 7130POPC   GL149645  12.054  27.600   6.150
 7130POPC   GL249646  12.194  27.556   6.150
 7130POPC   C1A49647  12.078  27.603   6.450
 7130POPC   D2A49648  12.050  27.601   6.750
 7130POPC   C3A49649  12.093  27.573   7.050
 7130POPC   C4A49650  12.070  27.591   7.350
 7130POPC   C1B49651  12.294  27.435   6.450
 7130POPC   C2B49652  12.222  27.462   6.750
 7130POPC   C3B49653  12.243  27.412   7.050
 7130POPC   C4B49654  12.249  27.393   7.350
 7131POPC   NC349655   2.009   5.850   5.550
 7131POPC   PO449656   1.942   5.876   5.850
 7131POPC   GL149657   1.978   5.846   6.150
 7131POPC   GL249658   1.866   5.821   6.150
 7131POPC   C1A49659   1.984   5.901   6.450
 7131POPC   D2A49660   2.026   5.851   6.750
 7131POPC   C3A49661   1.966   5.881   7.050
 7131POPC   C4A49662   1.942   5.827   7.350
 7131POPC   C1B49663   1.732   5.857   6.450
 7131POPC   C2B49664   1.762   5.819   6.750
 7131POPC   C3B49665   1.765   5.789   7.050
 7131POPC   C4B49666   1.696   5.829   7.350
 7132POPC   NC349667  30.650  14.389   5.550
 7132POPC   PO449668  30.649  14.386   5.850
 7132POPC   GL149669  30.670  14.381   6.150
 7132POPC   GL249670  30.801  14.443   6.150
 7132POPC   C1A49671  30.674  14.402   6.450
 7132POPC   D2A49672  30.708  14.451   6.750
 7132POPC   C3A49673  30.656  14.405   7.050
 7132POPC   C4A49674  30.675  14.361   7.350
 7132POPC   C1B49675  30.944  14.516   6.450
 7132POPC   C2B49676  30.923  14.506   6.750
 7132POPC   C3B49677  30.957  14.507   7.050
 7132POPC   C4B49678  30.942  14.539   7.350
 7133POPC   NC349679  41.569   9.719   5.550
 7133POPC   PO449680  41.516   9.759   5.850
 7133POPC   GL149681  41.538   9.731   6.150
 7133POPC   GL249682  41.726   9.715   6.150
 7133POPC   C1A49683  41.603   9.785   6.450
 7133POPC   D2A49684  41.566   9.749   6.750
 7133POPC   C3A49685  41.552   9.787   7.050
 7133POPC   C4A49686  41.588   9.725   7.350
 7133POPC   C1B49687  41.813   9.637   6.450
 7133POPC   C2B49688  41.841   9.618   6.750
 7133POPC   C3B49689  41.812   9.705   7.050
 7133POPC   C4B49690  41.827   9.652   7.350
 7134POPC   NC349691  42.382  26.054   5.550
 7134POPC   PO449692  42.297  26.055   5.850
 7134POPC   GL149693  42.317  26.055   6.150
 7134POPC   GL249694  42.430  26.002   6.150
 7134POPC   C1A49695  42.351  26.035   6.450
 7134POPC   D2A49696  42.367  25.993   6.750
 7134POPC   C3A49697  42.373  26.008   7.050
 7134POPC   C4A49698  42.342  26.001   7.350
 7134POPC   C1B49699  42.601  25.973   6.450
 7134POPC   C2B49700  42.612  25.994   6.750
 7134POPC   C3B49701  42.604  26.006   7.050
 7134POPC   C4B49702  42.602  25.943   7.350
 7135POPC   NC349703  21.345   9.785   5.550
 7135POPC   PO449704  21.396   9.761   5.850
 7135POPC   GL149705  21.342   9.700   6.150
 7135POPC   GL249706  21.338   9.660   6.150
 7135POPC   C1A49707  21.412   9.704   6.450
 7135POPC   D2A49708  21.383   9.750   6.750
 7135POPC   C3A49709  21.393   9.718   7.050
 7135POPC   C4A49710  21.396   9.747   7.350
 7135POPC   C1B49711  21.368   9.473   6.450
 7135POPC   C2B49712  21.348   9.541   6.750
 7135POPC   C3B49713  21.344   9.501   7.050
 7135POPC   C4B49714  21.325   9.514   7.350
 7136POPC   NC349715  30.650  40.831   5.550
 7136POPC   PO449716  30.653  40.736   5.850
 7136POPC   GL149717  30.717  40.807   6.150
 7136POPC   GL249718  30.830  40.758   6.150
 7136POPC   C1A49719  30.650  40.786   6.450
 7136POPC   D2A49720  30.670  40.763   6.750
 7136POPC   C3A49721  30.670  40.796   7.050
 7136POPC   C4A49722  30.658  40.815   7.350
 7136POPC   C1B49723  30.872  40.683   6.450
 7136POPC   C2B49724  30.870  40.673   6.750
 7136POPC   C3B49725  30.892  40.616   7.050
 7136POPC   C4B49726  30.933  40.686   7.350
 7137POPC   NC349727   0.450  13.672   5.550
 7137POPC   PO449728   0.393  13.677   5.850
 7137POPC   GL149729   0.431  13.634   6.150
 7137POPC   GL249730   0.478  13.767   6.150
 7137POPC   C1A49731   0.394  13.646   6.450
 7137POPC   D2A49732   0.394  13.578   6.750
 7137POPC   C3A49733   0.417  13.592   7.050
 7137POPC   C4A49734   0.414  13.661   7.350
 7137POPC   C1B49735   0.421  13.860   6.450
 7137POPC   C2B49736   0.451  13.847   6.750
 7137POPC   C3B49737   0.381  13.921   7.050
 7137POPC   C4B49738   0.461  13.924   7.350
 7138POPC   NC349739   8.160  36.855   5.550
 7138POPC   PO449740   8.175  36.951   5.850
 7138POPC   GL149741   8.197  36.923   6.150
 7138POPC   GL249742   8.093  36.935   6.150
 7138POPC   C1A49743   8.165  36.866   6.450
 7138POPC   D2A49744   8.236  36.894   6.750
 7138POPC   C3A49745   8.213  36.926   7.050
 7138POPC   C4A49746   8.211  36.864   7.350
 7138POPC   C1B49747   8.027  37.061   6.450
 7138POPC   C2B49748   7.956  37.031   6.750
 7138POPC   C3B49749   8.009  37.049   7.050
 7138POPC   C4B49750   7.964  37.077   7.350
 7139POPC   NC349751  18.325  43.155   5.550
 7139POPC   PO449752  18.327  43.069   5.850
 7139POPC   GL149753  18.293  43.140   6.150
 7139POPC   GL249754  18.272  42.990   6.150
 7139POPC   C1A49755  18.311  43.101   6.450
 7139POPC   D2A49756  18.306  43.116   6.750
 7139POPC   C3A49757  18.313  43.070   7.050
 7139POPC   C4A49758  18.313  43.126   7.350
 7139POPC   C1B49759  18.172  42.859   6.450
 7139POPC   C2B49760  18.209  42.888   6.750
 7139POPC   C3B49761  18.180  42.875   7.050
 7139POPC   C4B49762  18.215  42.828   7.350
 7140POPC   NC349763  43.897  36.878   5.550
 7140POPC   PO449764  43.869  36.910   5.850
 7140POPC   GL149765  43.918  36.899   6.150
 7140POPC   GL249766  43.808  36.936   6.150
 7140POPC   C1A49767  43.926  36.874   6.450
 7140POPC   D2A49768  43.905  36.878   6.750
 7140POPC   C3A49769  43.919  36.897   7.050
 7140POPC   C4A49770  43.862  36.866   7.350
 7140POPC   C1B49771  43.741  37.060   6.450
 7140POPC   C2B49772  43.738  37.062   6.750
 7140POPC   C3B49773  43.695  37.052   7.050
 7140POPC   C4B49774  43.697  37.036   7.350
 7141POPC   NC349775  28.370  43.907   5.550
 7141POPC   PO449776  28.398  43.867   5.850
 7141POPC   GL149777  28.363  43.864   6.150
 7141POPC   GL249778  28.329  43.729   6.150
 7141POPC   C1A49779  28.384  43.838   6.450
 7141POPC   D2A49780  28.392  43.890   6.750
 7141POPC   C3A49781  28.322  43.838   7.050
 7141POPC   C4A49782  28.321  43.872   7.350
 7141POPC   C1B49783  28.327  43.638   6.450
 7141POPC   C2B49784  28.302  43.671   6.750
 7141POPC   C3B49785  28.327  43.628   7.050
 7141POPC   C4B49786  28.396  43.655   7.350
 7142POPC   NC349787   8.970   7.443   5.550
 7142POPC   PO449788   8.966   7.401   5.850
 7142POPC   GL149789   8.925   7.430   6.150
 7142POPC   GL249790   9.046   7.484   6.150
 7142POPC   C1A49791   8.959   7.395   6.450
 7142POPC   D2A49792   8.997   7.421   6.750
 7142POPC   C3A49793   8.998   7.458   7.050
 7142POPC   C4A49794   8.965   7.382   7.350
 7142POPC   C1B49795   9.174   7.478   6.450
 7142POPC   C2B49796   9.225   7.542   6.750
 7142POPC   C3B49797   9.254   7.475   7.050
 7142POPC   C4B49798   9.236   7.514   7.350
 7143POPC   NC349799  33.814   7.372   5.550
 7143POPC   PO449800  33.842   7.413   5.850
 7143POPC   GL149801  33.848   7.385   6.150
 7143POPC   GL249802  33.861   7.521   6.150
 7143POPC   C1A49803  33.792   7.418   6.450
 7143POPC   D2A49804  33.803   7.383   6.750
 7143POPC   C3A49805  33.771   7.403   7.050
 7143POPC   C4A49806  33.840   7.416   7.350
 7143POPC   C1B49807  34.045   7.523   6.450
 7143POPC   C2B49808  33.993   7.599   6.750
 7143POPC   C3B49809  34.024   7.530   7.050
 7143POPC   C4B49810  34.049   7.591   7.350
 7144POPC   NC349811  29.898   7.412   5.550
 7144POPC   PO449812  29.893   7.426   5.850
 7144POPC   GL149813  29.941   7.372   6.150
 7144POPC   GL249814  29.981   7.525   6.150
 7144POPC   C1A49815  29.900   7.442   6.450
 7144POPC   D2A49816  29.883   7.439   6.750
 7144POPC   C3A49817  29.883   7.411   7.050
 7144POPC   C4A49818  29.939   7.440   7.350
 7144POPC   C1B49819  30.077   7.625   6.450
 7144POPC   C2B49820  30.121   7.593   6.750
 7144POPC   C3B49821  30.138   7.575   7.050
 7144POPC   C4B49822  30.077   7.575   7.350
 7145POPC   NC349823  23.680  23.744   5.550
 7145POPC   PO449824  23.728  23.749   5.850
 7145POPC   GL149825  23.728  23.748   6.150
 7145POPC   GL249826  23.777  23.610   6.150
 7145POPC   C1A49827  23.692  23.677   6.450
 7145POPC   D2A49828  23.702  23.751   6.750
 7145POPC   C3A49829  23.691  23.677   7.050
 7145POPC   C4A49830  23.683  23.739   7.350
 7145POPC   C1B49831  23.841  23.535   6.450
 7145POPC   C2B49832  23.880  23.557   6.750
 7145POPC   C3B49833  23.894  23.493   7.050
 7145POPC   C4B49834  23.861  23.485   7.350
 7146POPC   NC349835   0.440  26.804   5.550
 7146POPC   PO449836   0.486  26.845   5.850
 7146POPC   GL149837   0.412  26.825   6.150
 7146POPC   GL249838   0.536  26.677   6.150
 7146POPC   C1A49839   0.392  26.862   6.450
 7146POPC   D2A49840   0.404  26.844   6.750
 7146POPC   C3A49841   0.465  26.834   7.050
 7146POPC   C4A49842   0.394  26.857   7.350
 7146POPC   C1B49843   0.572  26.646   6.450
 7146POPC   C2B49844   0.638  26.642   6.750
 7146POPC   C3B49845   0.593  26.603   7.050
 7146POPC   C4B49846   0.627  26.644   7.350
 7147POPC   NC349847  32.254  13.668   5.550
 7147POPC   PO449848  32.221  13.583   5.850
 7147POPC   GL149849  32.251  13.611   6.150
 7147POPC   GL249850  32.317  13.717   6.150
 7147POPC   C1A49851  32.296  13.620   6.450
 7147POPC   D2A49852  32.214  13.597   6.750
 7147POPC   C3A49853  32.213  13.629   7.050
 7147POPC   C4A49854  32.296  13.627   7.350
 7147POPC   C1B49855  32.422  13.859   6.450
 7147POPC   C2B49856  32.392  13.847   6.750
 7147POPC   C3B49857  32.433  13.784   7.050
 7147POPC   C4B49858  32.451  13.795   7.350
 7148POPC   NC349859  40.812  16.705   5.550
 7148POPC   PO449860  40.744  16.694   5.850
 7148POPC   GL149861  40.819  16.687   6.150
 7148POPC   GL249862  40.801  16.824   6.150
 7148POPC   C1A49863  40.797  16.704   6.450
 7148POPC   D2A49864  40.788  16.714   6.750
 7148POPC   C3A49865  40.808  16.749   7.050
 7148POPC   C4A49866  40.789  16.725   7.350
 7148POPC   C1B49867  40.878  16.999   6.450
 7148POPC   C2B49868  40.852  17.018   6.750
 7148POPC   C3B49869  40.836  16.950   7.050
 7148POPC   C4B49870  40.858  16.978   7.350
 7149POPC   NC349871  44.700  16.766   5.550
 7149POPC   PO449872  44.654  16.732   5.850
 7149POPC   GL149873  44.682  16.744   6.150
 7149POPC   GL249874  44.618  16.852   6.150
 7149POPC   C1A49875  44.670  16.756   6.450
 7149POPC   D2A49876  44.644  16.708   6.750
 7149POPC   C3A49877  44.633  16.727   7.050
 7149POPC   C4A49878  44.686  16.699   7.350
 7149POPC   C1B49879  44.648  16.982   6.450
 7149POPC   C2B49880  44.661  16.943   6.750
 7149POPC   C3B49881  44.654  17.018   7.050
 7149POPC   C4B49882  44.654  16.933   7.350
 7150POPC   NC349883  22.923  21.350   5.550
 7150POPC   PO449884  22.974  21.380   5.850
 7150POPC   GL149885  22.960  21.355   6.150
 7150POPC   GL249886  22.835  21.406   6.150
 7150POPC   C1A49887  22.954  21.354   6.450
 7150POPC   D2A49888  22.950  21.383   6.750
 7150POPC   C3A49889  22.961  21.363   7.050
 7150POPC   C4A49890  22.896  21.355   7.350
 7150POPC   C1B49891  22.745  21.538   6.450
 7150POPC   C2B49892  22.749  21.566   6.750
 7150POPC   C3B49893  22.762  21.474   7.050
 7150POPC   C4B49894  22.734  21.499   7.350
 7151POPC   NC349895  29.914   4.341   5.550
 7151POPC   PO449896  29.926   4.353   5.850
 7151POPC   GL149897  29.884   4.329   6.150
 7151POPC   GL249898  30.054   4.222   6.150
 7151POPC   C1A49899  29.937   4.267   6.450
 7151POPC   D2A49900  29.924   4.354   6.750
 7151POPC   C3A49901  29.934   4.349   7.050
 7151POPC   C4A49902  29.915   4.269   7.350
 7151POPC   C1B49903  30.138   4.144   6.450
 7151POPC   C2B49904  30.116   4.152   6.750
 7151POPC   C3B49905  30.115   4.195   7.050
 7151POPC   C4B49906  30.099   4.132   7.350
 7152POPC   NC349907   0.444  29.921   5.550
 7152POPC   PO449908   0.407  29.885   5.850
 7152POPC   GL149909   0.434  29.878   6.150
 7152POPC   GL249910   0.342  29.885   6.150
 7152POPC   C1A49911   0.411  29.892   6.450
 7152POPC   D2A49912   0.485  29.913   6.750
 7152POPC   C3A49913   0.472  29.940   7.050
 7152POPC   C4A49914   0.422  29.938   7.350
 7152POPC   C1B49915   0.192  29.846   6.450
 7152POPC   C2B49916   0.222  29.798   6.750
 7152POPC   C3B49917   0.245  29.810   7.050
 7152POPC   C4B49918   0.250  29.828   7.350
 7153POPC   NC349919  21.403  19.841   5.550
 7153POPC   PO449920  21.382  19.818   5.850
 7153POPC   GL149921  21.380  19.787   6.150
 7153POPC   GL249922  21.366  19.669   6.150
 7153POPC   C1A49923  21.351  19.814   6.450
 7153POPC   D2A49924  21.413  19.834   6.750
 7153POPC   C3A49925  21.373  19.798   7.050
 7153POPC   C4A49926  21.369  19.797   7.350
 7153POPC   C1B49927  21.337  19.559   6.450
 7153POPC   C2B49928  21.360  19.587   6.750
 7153POPC   C3B49929  21.292  19.601   7.050
 7153POPC   C4B49930  21.344  19.577   7.350
 7154POPC   NC349931  28.347  33.064   5.550
 7154POPC   PO449932  28.380  33.042   5.850
 7154POPC   GL149933  28.398  33.069   6.150
 7154POPC   GL249934  28.400  33.090   6.150
 7154POPC   C1A49935  28.356  32.981   6.450
 7154POPC   D2A49936  28.328  33.037   6.750
 7154POPC   C3A49937  28.391  33.017   7.050
 7154POPC   C4A49938  28.390  33.073   7.350
 7154POPC   C1B49939  28.492  33.220   6.450
 7154POPC   C2B49940  28.512  33.244   6.750
 7154POPC   C3B49941  28.503  33.214   7.050
 7154POPC   C4B49942  28.453  33.276   7.350
 7155POPC   NC349943  26.016  44.662   5.550
 7155POPC   PO449944  26.051  44.622   5.850
 7155POPC   GL149945  25.992  44.626   6.150
 7155POPC   GL249946  26.093  44.528   6.150
 7155POPC   C1A49947  26.013  44.636   6.450
 7155POPC   D2A49948  26.056  44.635   6.750
 7155POPC   C3A49949  26.018  44.681   7.050
 7155POPC   C4A49950  26.025  44.686   7.350
 7155POPC   C1B49951  26.055  44.368   6.450
 7155POPC   C2B49952  26.114  44.432   6.750
 7155POPC   C3B49953  26.081  44.375   7.050
 7155POPC   C4B49954  26.141  44.373   7.350
 7156POPC   NC349955  32.988  20.624   5.550
 7156POPC   PO449956  33.048  20.595   5.850
 7156POPC   GL149957  33.008  20.578   6.150
 7156POPC   GL249958  33.041  20.773   6.150
 7156POPC   C1A49959  33.028  20.587   6.450
 7156POPC   D2A49960  33.030  20.567   6.750
 7156POPC   C3A49961  33.030  20.600   7.050
 7156POPC   C4A49962  33.036  20.600   7.350
 7156POPC   C1B49963  33.109  20.867   6.450
 7156POPC   C2B49964  33.129  20.894   6.750
 7156POPC   C3B49965  33.074  20.810   7.050
 7156POPC   C4B49966  33.121  20.806   7.350
 7157POPC   NC349967  29.936  14.425   5.550
 7157POPC   PO449968  29.944  14.433   5.850
 7157POPC   GL149969  29.956  14.443   6.150
 7157POPC   GL249970  29.859  14.434   6.150
 7157POPC   C1A49971  29.955  14.391   6.450
 7157POPC   D2A49972  29.883  14.378   6.750
 7157POPC   C3A49973  29.901  14.421   7.050
 7157POPC   C4A49974  29.957  14.421   7.350
 7157POPC   C1B49975  29.733  14.530   6.450
 7157POPC   C2B49976  29.657  14.561   6.750
 7157POPC   C3B49977  29.711  14.507   7.050
 7157POPC   C4B49978  29.699  14.467   7.350
 7158POPC   NC349979  26.867  39.981   5.550
 7158POPC   PO449980  26.858  39.959   5.850
 7158POPC   GL149981  26.807  39.996   6.150
 7158POPC   GL249982  26.972  40.030   6.150
 7158POPC   C1A49983  26.821  39.980   6.450
 7158POPC   D2A49984  26.863  40.016   6.750
 7158POPC   C3A49985  26.803  39.961   7.050
 7158POPC   C4A49986  26.797  40.031   7.350
 7158POPC   C1B49987  27.043  40.022   6.450
 7158POPC   C2B49988  27.073  40.094   6.750
 7158POPC   C3B49989  27.024  40.033   7.050
 7158POPC   C4B49990  27.069  40.023   7.350
 7159POPC   NC349991  19.811  15.229   5.550
 7159POPC   PO449992  19.799  15.210   5.850
 7159POPC   GL149993  19.883  15.218   6.150
 7159POPC   GL249994  19.773  15.267   6.150
 7159POPC   C1A49995  19.789  15.195   6.450
 7159POPC   D2A49996  19.813  15.154   6.750
 7159POPC   C3A49997  19.871  15.181   7.050
 7159POPC   C4A49998  19.850  15.203   7.350
 7159POPC   C1B49999  19.653  15.334   6.450
 7159POPC   C2B50000  19.669  15.354   6.750
 7159POPC   C3B50001  19.629  15.342   7.050
 7159POPC   C4B50002  19.609  15.337   7.350
 7160POPC   NC350003  30.677  28.364   5.550
 7160POPC   PO450004  30.677  28.369   5.850
 7160POPC   GL150005  30.732  28.365   6.150
 7160POPC   GL250006  30.855  28.321   6.150
 7160POPC   C1A50007  30.674  28.343   6.450
 7160POPC   D2A50008  30.689  28.410   6.750
 7160POPC   C3A50009  30.737  28.336   7.050
 7160POPC   C4A50010  30.651  28.349   7.350
 7160POPC   C1B50011  30.882  28.251   6.450
 7160POPC   C2B50012  30.926  28.306   6.750
 7160POPC   C3B50013  30.976  28.322   7.050
 7160POPC   C4B50014  30.946  28.254   7.350
 7161POPC   NC350015  19.802  12.813   5.550
 7161POPC   PO450016  19.827  12.812   5.850
 7161POPC   GL150017  19.858  12.809   6.150
 7161POPC   GL250018  19.891  12.758   6.150
 7161POPC   C1A50019  19.809  12.824   6.450
 7161POPC   D2A50020  19.785  12.885   6.750
 7161POPC   C3A50021  19.804  12.880   7.050
 7161POPC   C4A50022  19.795  12.815   7.350
 7161POPC   C1B50023  20.071  12.664   6.450
 7161POPC   C2B50024  20.032  12.691   6.750
 7161POPC   C3B50025  19.993  12.743   7.050
 7161POPC   C4B50026  20.011  12.674   7.350
 7162POPC   NC350027  20.562  28.369   5.550
 7162POPC   PO450028  20.646  28.386   5.850
 7162POPC   GL150029  20.604  28.348   6.150
 7162POPC   GL250030  20.537  28.470   6.150
 7162POPC   C1A50031  20.588  28.396   6.450
 7162POPC   D2A50032  20.578  28.348   6.750
 7162POPC   C3A50033  20.592  28.334   7.050
 7162POPC   C4A50034  20.611  28.394   7.350
 7162POPC   C1B50035  20.440  28.492   6.450
 7162POPC   C2B50036  20.418  28.538   6.750
 7162POPC   C3B50037  20.364  28.489   7.050
 7162POPC   C4B50038  20.383  28.540   7.350
 7163POPC   NC350039   9.016  20.581   5.550
 7163POPC   PO450040   8.928  20.580   5.850
 7163POPC   GL150041   8.929  20.652   6.150
 7163POPC   GL250042   8.868  20.752   6.150
 7163POPC   C1A50043   8.946  20.644   6.450
 7163POPC   D2A50044   8.957  20.596   6.750
 7163POPC   C3A50045   9.006  20.579   7.050
 7163POPC   C4A50046   9.006  20.620   7.350
 7163POPC   C1B50047   8.761  20.776   6.450
 7163POPC   C2B50048   8.760  20.777   6.750
 7163POPC   C3B50049   8.850  20.792   7.050
 7163POPC   C4B50050   8.842  20.765   7.350
 7164POPC   NC350051  19.857  13.656   5.550
 7164POPC   PO450052  19.796  13.583   5.850
 7164POPC   GL150053  19.823  13.584   6.150
 7164POPC   GL250054  19.798  13.751   6.150
 7164POPC   C1A50055  19.839  13.648   6.450
 7164POPC   D2A50056  19.841  13.617   6.750
 7164POPC   C3A50057  19.828  13.646   7.050
 7164POPC   C4A50058  19.836  13.653   7.350
 7164POPC   C1B50059  19.822  13.849   6.450
 7164POPC   C2B50060  19.796  13.873   6.750
 7164POPC   C3B50061  19.791  13.920   7.050
 7164POPC   C4B50062  19.779  13.841   7.350
 7165POPC   NC350063  33.013  27.587   5.550
 7165POPC   PO450064  32.999  27.580   5.850
 7165POPC   GL150065  33.011  27.566   6.150
 7165POPC   GL250066  32.979  27.441   6.150
 7165POPC   C1A50067  33.028  27.595   6.450
 7165POPC   D2A50068  33.043  27.616   6.750
 7165POPC   C3A50069  32.977  27.574   7.050
 7165POPC   C4A50070  33.042  27.600   7.350
 7165POPC   C1B50071  33.069  27.359   6.450
 7165POPC   C2B50072  33.051  27.388   6.750
 7165POPC   C3B50073  33.064  27.365   7.050
 7165POPC   C4B50074  33.011  27.341   7.350
 7166POPC   NC350075  32.238  22.938   5.550
 7166POPC   PO450076  32.290  22.959   5.850
 7166POPC   GL150077  32.202  22.975   6.150
 7166POPC   GL250078  32.164  22.813   6.150
 7166POPC   C1A50079  32.292  22.977   6.450
 7166POPC   D2A50080  32.261  22.890   6.750
 7166POPC   C3A50081  32.264  22.912   7.050
 7166POPC   C4A50082  32.242  22.951   7.350
 7166POPC   C1B50083  32.085  22.725   6.450
 7166POPC   C2B50084  32.022  22.763   6.750
 7166POPC   C3B50085  32.036  22.798   7.050
 7166POPC   C4B50086  32.103  22.714   7.350
 7167POPC   NC350087  34.571  42.373   5.550
 7167POPC   PO450088  34.584  42.360   5.850
 7167POPC   GL150089  34.600  42.308   6.150
 7167POPC   GL250090  34.504  42.485   6.150
 7167POPC   C1A50091  34.526  42.371   6.450
 7167POPC   D2A50092  34.563  42.342   6.750
 7167POPC   C3A50093  34.536  42.347   7.050
 7167POPC   C4A50094  34.622  42.312   7.350
 7167POPC   C1B50095  34.476  42.553   6.450
 7167POPC   C2B50096  34.490  42.507   6.750
 7167POPC   C3B50097  34.479  42.589   7.050
 7167POPC   C4B50098  34.484  42.552   7.350
 7168POPC   NC350099   5.842  43.120   5.550
 7168POPC   PO450100   5.867  43.126   5.850
 7168POPC   GL150101   5.900  43.145   6.150
 7168POPC   GL250102   5.944  43.185   6.150
 7168POPC   C1A50103   5.867  43.072   6.450
 7168POPC   D2A50104   5.819  43.110   6.750
 7168POPC   C3A50105   5.875  43.095   7.050
 7168POPC   C4A50106   5.917  43.160   7.350
 7168POPC   C1B50107   6.153  43.232   6.450
 7168POPC   C2B50108   6.086  43.223   6.750
 7168POPC   C3B50109   6.090  43.132   7.050
 7168POPC   C4B50110   6.064  43.143   7.350
 7169POPC   NC350111   0.439  22.121   5.550
 7169POPC   PO450112   0.481  22.137   5.850
 7169POPC   GL150113   0.445  22.197   6.150
 7169POPC   GL250114   0.347  22.302   6.150
 7169POPC   C1A50115   0.426  22.131   6.450
 7169POPC   D2A50116   0.459  22.195   6.750
 7169POPC   C3A50117   0.439  22.197   7.050
 7169POPC   C4A50118   0.413  22.159   7.350
 7169POPC   C1B50119   0.265  22.352   6.450
 7169POPC   C2B50120   0.331  22.347   6.750
 7169POPC   C3B50121   0.277  22.356   7.050
 7169POPC   C4B50122   0.274  22.412   7.350
 7170POPC   NC350123  22.907   2.747   5.550
 7170POPC   PO450124  22.915   2.722   5.850
 7170POPC   GL150125  22.932   2.752   6.150
 7170POPC   GL250126  23.112   2.771   6.150
 7170POPC   C1A50127  22.971   2.718   6.450
 7170POPC   D2A50128  22.910   2.744   6.750
 7170POPC   C3A50129  22.898   2.757   7.050
 7170POPC   C4A50130  22.987   2.751   7.350
 7170POPC   C1B50131  23.237   2.765   6.450
 7170POPC   C2B50132  23.185   2.741   6.750
 7170POPC   C3B50133  23.219   2.764   7.050
 7170POPC   C4B50134  23.192   2.781   7.350
 7171POPC   NC350135  11.348  35.315   5.550
 7171POPC   PO450136  11.314  35.388   5.850
 7171POPC   GL150137  11.290  35.304   6.150
 7171POPC   GL250138  11.390  35.283   6.150
 7171POPC   C1A50139  11.300  35.383   6.450
 7171POPC   D2A50140  11.288  35.311   6.750
 7171POPC   C3A50141  11.294  35.323   7.050
 7171POPC   C4A50142  11.299  35.310   7.350
 7171POPC   C1B50143  11.459  35.240   6.450
 7171POPC   C2B50144  11.459  35.259   6.750
 7171POPC   C3B50145  11.505  35.211   7.050
 7171POPC   C4B50146  11.525  35.223   7.350
 7172POPC   NC350147  33.814  34.565   5.550
 7172POPC   PO450148  33.766  34.563   5.850
 7172POPC   GL150149  33.848  34.579   6.150
 7172POPC   GL250150  33.875  34.536   6.150
 7172POPC   C1A50151  33.825  34.579   6.450
 7172POPC   D2A50152  33.774  34.586   6.750
 7172POPC   C3A50153  33.797  34.557   7.050
 7172POPC   C4A50154  33.834  34.562   7.350
 7172POPC   C1B50155  34.081  34.640   6.450
 7172POPC   C2B50156  34.067  34.578   6.750
 7172POPC   C3B50157  34.004  34.545   7.050
 7172POPC   C4B50158  34.026  34.563   7.350
 7173POPC   NC350159  29.096  21.347   5.550
 7173POPC   PO450160  29.158  21.411   5.850
 7173POPC   GL150161  29.152  21.427   6.150
 7173POPC   GL250162  29.156  21.486   6.150
 7173POPC   C1A50163  29.169  21.389   6.450
 7173POPC   D2A50164  29.130  21.346   6.750
 7173POPC   C3A50165  29.150  21.429   7.050
 7173POPC   C4A50166  29.100  21.404   7.350
 7173POPC   C1B50167  29.059  21.671   6.450
 7173POPC   C2B50168  29.094  21.579   6.750
 7173POPC   C3B50169  29.043  21.668   7.050
 7173POPC   C4B50170  29.058  21.673   7.350
 7174POPC   NC350171  26.046  25.308   5.550
 7174POPC   PO450172  26.018  25.266   5.850
 7174POPC   GL150173  26.050  25.268   6.150
 7174POPC   GL250174  26.096  25.422   6.150
 7174POPC   C1A50175  26.083  25.307   6.450
 7174POPC   D2A50176  26.055  25.284   6.750
 7174POPC   C3A50177  26.070  25.241   7.050
 7174POPC   C4A50178  26.064  25.271   7.350
 7174POPC   C1B50179  26.067  25.542   6.450
 7174POPC   C2B50180  26.124  25.522   6.750
 7174POPC   C3B50181  26.093  25.499   7.050
 7174POPC   C4B50182  26.133  25.518   7.350
 7175POPC   NC350183  11.286  32.990   5.550
 7175POPC   PO450184  11.266  33.060   5.850
 7175POPC   GL150185  11.259  33.028   6.150
 7175POPC   GL250186  11.308  33.164   6.150
 7175POPC   C1A50187  11.254  33.009   6.450
 7175POPC   D2A50188  11.300  33.065   6.750
 7175POPC   C3A50189  11.281  33.034   7.050
 7175POPC   C4A50190  11.264  33.014   7.350
 7175POPC   C1B50191  11.344  33.236   6.450
 7175POPC   C2B50192  11.369  33.253   6.750
 7175POPC   C3B50193  11.376  33.252   7.050
 7175POPC   C4B50194  11.332  33.281   7.350
 7176POPC   NC350195   5.862  35.316   5.550
 7176POPC   PO450196   5.840  35.374   5.850
 7176POPC   GL150197   5.873  35.308   6.150
 7176POPC   GL250198   5.865  35.508   6.150
 7176POPC   C1A50199   5.889  35.370   6.450
 7176POPC   D2A50200   5.863  35.345   6.750
 7176POPC   C3A50201   5.888  35.339   7.050
 7176POPC   C4A50202   5.836  35.341   7.350
 7176POPC   C1B50203   5.753  35.551   6.450
 7176POPC   C2B50204   5.734  35.555   6.750
 7176POPC   C3B50205   5.779  35.622   7.050
 7176POPC   C4B50206   5.726  35.579   7.350
 7177POPC   NC350207  43.091   2.003   5.550
 7177POPC   PO450208  43.083   2.018   5.850
 7177POPC   GL150209  43.088   1.944   6.150
 7177POPC   GL250210  42.985   1.986   6.150
 7177POPC   C1A50211  43.091   1.948   6.450
 7177POPC   D2A50212  43.153   2.038   6.750
 7177POPC   C3A50213  43.118   1.947   7.050
 7177POPC   C4A50214  43.081   2.002   7.350
 7177POPC   C1B50215  42.858   1.979   6.450
 7177POPC   C2B50216  42.815   1.969   6.750
 7177POPC   C3B50217  42.842   1.913   7.050
 7177POPC   C4B50218  42.844   1.913   7.350
 7178POPC   NC350219  21.368  16.768   5.550
 7178POPC   PO450220  21.372  16.747   5.850
 7178POPC   GL150221  21.430  16.777   6.150
 7178POPC   GL250222  21.340  16.608   6.150
 7178POPC   C1A50223  21.384  16.725   6.450
 7178POPC   D2A50224  21.409  16.732   6.750
 7178POPC   C3A50225  21.372  16.758   7.050
 7178POPC   C4A50226  21.409  16.726   7.350
 7178POPC   C1B50227  21.363  16.515   6.450
 7178POPC   C2B50228  21.312  16.480   6.750
 7178POPC   C3B50229  21.354  16.502   7.050
 7178POPC   C4B50230  21.265  16.518   7.350
 7179POPC   NC350231  36.917  27.555   5.550
 7179POPC   PO450232  36.931  27.586   5.850
 7179POPC   GL150233  36.898  27.635   6.150
 7179POPC   GL250234  36.762  27.588   6.150
 7179POPC   C1A50235  36.903  27.628   6.450
 7179POPC   D2A50236  36.932  27.574   6.750
 7179POPC   C3A50237  36.953  27.577   7.050
 7179POPC   C4A50238  36.865  27.552   7.350
 7179POPC   C1B50239  36.675  27.492   6.450
 7179POPC   C2B50240  36.701  27.498   6.750
 7179POPC   C3B50241  36.695  27.577   7.050
 7179POPC   C4B50242  36.667  27.510   7.350
 7180POPC   NC350243   4.310  12.899   5.550
 7180POPC   PO450244   4.332  12.840   5.850
 7180POPC   GL150245   4.276  12.861   6.150
 7180POPC   GL250246   4.353  12.741   6.150
 7180POPC   C1A50247   4.309  12.835   6.450
 7180POPC   D2A50248   4.365  12.887   6.750
 7180POPC   C3A50249   4.318  12.848   7.050
 7180POPC   C4A50250   4.279  12.809   7.350
 7180POPC   C1B50251   4.353  12.569   6.450
 7180POPC   C2B50252   4.394  12.635   6.750
 7180POPC   C3B50253   4.365  12.570   7.050
 7180POPC   C4B50254   4.432  12.600   7.350
 7181POPC   NC350255  44.661   5.122   5.550
 7181POPC   PO450256  44.625   5.136   5.850
 7181POPC   GL150257  44.709   5.109   6.150
 7181POPC   GL250258  44.514   5.125   6.150
 7181POPC   C1A50259  44.696   5.126   6.450
 7181POPC   D2A50260  44.700   5.111   6.750
 7181POPC   C3A50261  44.687   5.118   7.050
 7181POPC   C4A50262  44.641   5.106   7.350
 7181POPC   C1B50263  44.407   5.190   6.450
 7181POPC   C2B50264  44.426   5.214   6.750
 7181POPC   C3B50265  44.446   5.120   7.050
 7181POPC   C4B50266  44.444   5.161   7.350
 7182POPC   NC350267  36.889   0.482   5.550
 7182POPC   PO450268  36.866   0.414   5.850
 7182POPC   GL150269  36.908   0.434   6.150
 7182POPC   GL250270  37.038   0.362   6.150
 7182POPC   C1A50271  36.918   0.396   6.450
 7182POPC   D2A50272  36.880   0.399   6.750
 7182POPC   C3A50273  36.921   0.446   7.050
 7182POPC   C4A50274  36.863   0.389   7.350
 7182POPC   C1B50275  37.132   0.338   6.450
 7182POPC   C2B50276  37.169   0.321   6.750
 7182POPC   C3B50277  37.116   0.322   7.050
 7182POPC   C4B50278  37.095   0.314   7.350
 7183POPC   NC350279  12.064   2.030   5.550
 7183POPC   PO450280  12.089   1.975   5.850
 7183POPC   GL150281  12.100   1.961   6.150
 7183POPC   GL250282  12.166   2.063   6.150
 7183POPC   C1A50283  12.027   1.947   6.450
 7183POPC   D2A50284  12.092   1.949   6.750
 7183POPC   C3A50285  12.037   1.995   7.050
 7183POPC   C4A50286  12.048   1.979   7.350
 7183POPC   C1B50287  12.325   2.159   6.450
 7183POPC   C2B50288  12.329   2.104   6.750
 7183POPC   C3B50289  12.274   2.139   7.050
 7183POPC   C4B50290  12.256   2.093   7.350
 7184POPC   NC350291  41.565  15.139   5.550
 7184POPC   PO450292  41.525  15.181   5.850
 7184POPC   GL150293  41.598  15.149   6.150
 7184POPC   GL250294  41.694  15.298   6.150
 7184POPC   C1A50295  41.516  15.181   6.450
 7184POPC   D2A50296  41.526  15.138   6.750
 7184POPC   C3A50297  41.561  15.156   7.050
 7184POPC   C4A50298  41.585  15.135   7.350
 7184POPC   C1B50299  41.741  15.319   6.450
 7184POPC   C2B50300  41.783  15.302   6.750
 7184POPC   C3B50301  41.802  15.375   7.050
 7184POPC   C4B50302  41.784  15.294   7.350
 7185POPC   NC350303  40.791  39.256   5.550
 7185POPC   PO450304  40.820  39.240   5.850
 7185POPC   GL150305  40.773  39.263   6.150
 7185POPC   GL250306  40.694  39.116   6.150
 7185POPC   C1A50307  40.747  39.233   6.450
 7185POPC   D2A50308  40.778  39.241   6.750
 7185POPC   C3A50309  40.778  39.253   7.050
 7185POPC   C4A50310  40.741  39.277   7.350
 7185POPC   C1B50311  40.666  38.990   6.450
 7185POPC   C2B50312  40.724  38.977   6.750
 7185POPC   C3B50313  40.695  39.007   7.050
 7185POPC   C4B50314  40.692  38.958   7.350
 7186POPC   NC350315   1.246  15.180   5.550
 7186POPC   PO450316   1.250  15.174   5.850
 7186POPC   GL150317   1.183  15.157   6.150
 7186POPC   GL250318   1.195  15.336   6.150
 7186POPC   C1A50319   1.196  15.156   6.450
 7186POPC   D2A50320   1.208  15.182   6.750
 7186POPC   C3A50321   1.180  15.200   7.050
 7186POPC   C4A50322   1.230  15.157   7.350
 7186POPC   C1B50323   1.212  15.458   6.450
 7186POPC   C2B50324   1.284  15.435   6.750
 7186POPC   C3B50325   1.291  15.444   7.050
 7186POPC   C4B50326   1.283  15.422   7.350
 7187POPC   NC350327  44.659  40.007   5.550
 7187POPC   PO450328  44.706  39.970   5.850
 7187POPC   GL150329  44.707  40.045   6.150
 7187POPC   GL250330  44.571  39.931   6.150
 7187POPC   C1A50331  44.636  40.009   6.450
 7187POPC   D2A50332  44.664  40.057   6.750
 7187POPC   C3A50333  44.696  39.992   7.050
 7187POPC   C4A50334  44.699  40.046   7.350
 7187POPC   C1B50335  44.394  39.918   6.450
 7187POPC   C2B50336  44.387  39.931   6.750
 7187POPC   C3B50337  44.443  39.897   7.050
 7187POPC   C4B50338  44.401  39.978   7.350
 7188POPC   NC350339  14.397  30.663   5.550
 7188POPC   PO450340  14.408  30.660   5.850
 7188POPC   GL150341  14.399  30.721   6.150
 7188POPC   GL250342  14.415  30.772   6.150
 7188POPC   C1A50343  14.443  30.746   6.450
 7188POPC   D2A50344  14.443  30.702   6.750
 7188POPC   C3A50345  14.422  30.651   7.050
 7188POPC   C4A50346  14.365  30.744   7.350
 7188POPC   C1B50347  14.345  30.966   6.450
 7188POPC   C2B50348  14.376  30.946   6.750
 7188POPC   C3B50349  14.367  30.938   7.050
 7188POPC   C4B50350  14.319  30.964   7.350
 7189POPC   NC350351  25.257  13.585   5.550
 7189POPC   PO450352  25.224  13.674   5.850
 7189POPC   GL150353  25.268  13.591   6.150
 7189POPC   GL250354  25.351  13.526   6.150
 7189POPC   C1A50355  25.284  13.604   6.450
 7189POPC   D2A50356  25.221  13.626   6.750
 7189POPC   C3A50357  25.307  13.673   7.050
 7189POPC   C4A50358  25.295  13.624   7.350
 7189POPC   C1B50359  25.408  13.411   6.450
 7189POPC   C2B50360  25.393  13.456   6.750
 7189POPC   C3B50361  25.367  13.411   7.050
 7189POPC   C4B50362  25.356  13.414   7.350
 7190POPC   NC350363  38.444   5.132   5.550
 7190POPC   PO450364  38.495   5.058   5.850
 7190POPC   GL150365  38.415   5.105   6.150
 7190POPC   GL250366  38.586   5.076   6.150
 7190POPC   C1A50367  38.437   5.047   6.450
 7190POPC   D2A50368  38.423   5.085   6.750
 7190POPC   C3A50369  38.472   5.075   7.050
 7190POPC   C4A50370  38.443   5.091   7.350
 7190POPC   C1B50371  38.725   5.154   6.450
 7190POPC   C2B50372  38.720   5.082   6.750
 7190POPC   C3B50373  38.694   5.111   7.050
 7190POPC   C4B50374  38.680   5.111   7.350
 7191POPC   NC350375  39.193  37.718   5.550
 7191POPC   PO450376  39.244  37.719   5.850
 7191POPC   GL150377  39.189  37.692   6.150
 7191POPC   GL250378  39.103  37.726   6.150
 7191POPC   C1A50379  39.258  37.657   6.450
 7191POPC   D2A50380  39.272  37.647   6.750
 7191POPC   C3A50381  39.250  37.684   7.050
 7191POPC   C4A50382  39.181  37.681   7.350
 7191POPC   C1B50383  39.011  37.818   6.450
 7191POPC   C2B50384  39.020  37.867   6.750
 7191POPC   C3B50385  39.083  37.867   7.050
 7191POPC   C4B50386  39.060  37.892   7.350
 7192POPC   NC350387   4.303  24.447   5.550
 7192POPC   PO450388   4.335  24.500   5.850
 7192POPC   GL150389   4.295  24.531   6.150
 7192POPC   GL250390   4.288  24.373   6.150
 7192POPC   C1A50391   4.269  24.496   6.450
 7192POPC   D2A50392   4.341  24.538   6.750
 7192POPC   C3A50393   4.273  24.469   7.050
 7192POPC   C4A50394   4.326  24.465   7.350
 7192POPC   C1B50395   4.346  24.283   6.450
 7192POPC   C2B50396   4.308  24.254   6.750
 7192POPC   C3B50397   4.273  24.253   7.050
 7192POPC   C4B50398   4.330  24.208   7.350
 7193POPC   NC350399   5.068  15.924   5.550
 7193POPC   PO450400   5.131  16.000   5.850
 7193POPC   GL150401   5.077  15.905   6.150
 7193POPC   GL250402   5.001  15.811   6.150
 7193POPC   C1A50403   5.056  15.920   6.450
 7193POPC   D2A50404   5.047  15.967   6.750
 7193POPC   C3A50405   5.045  15.956   7.050
 7193POPC   C4A50406   5.115  15.995   7.350
 7193POPC   C1B50407   4.958  15.730   6.450
 7193POPC   C2B50408   4.958  15.710   6.750
 7193POPC   C3B50409   5.017  15.709   7.050
 7193POPC   C4B50410   5.021  15.738   7.350
 7194POPC   NC350411  25.306   2.776   5.550
 7194POPC   PO450412  25.241   2.758   5.850
 7194POPC   GL150413  25.233   2.813   6.150
 7194POPC   GL250414  25.360   2.675   6.150
 7194POPC   C1A50415  25.240   2.761   6.450
 7194POPC   D2A50416  25.266   2.724   6.750
 7194POPC   C3A50417  25.311   2.740   7.050
 7194POPC   C4A50418  25.259   2.810   7.350
 7194POPC   C1B50419  25.513   2.608   6.450
 7194POPC   C2B50420  25.473   2.656   6.750
 7194POPC   C3B50421  25.522   2.681   7.050
 7194POPC   C4B50422  25.450   2.645   7.350
 7195POPC   NC350423  31.453   2.745   5.550
 7195POPC   PO450424  31.464   2.800   5.850
 7195POPC   GL150425  31.507   2.778   6.150
 7195POPC   GL250426  31.479   2.649   6.150
 7195POPC   C1A50427  31.512   2.754   6.450
 7195POPC   D2A50428  31.429   2.756   6.750
 7195POPC   C3A50429  31.520   2.812   7.050
 7195POPC   C4A50430  31.455   2.732   7.350
 7195POPC   C1B50431  31.527   2.487   6.450
 7195POPC   C2B50432  31.502   2.533   6.750
 7195POPC   C3B50433  31.510   2.523   7.050
 7195POPC   C4B50434  31.527   2.565   7.350
 7196POPC   NC350435  38.440  24.501   5.550
 7196POPC   PO450436  38.480  24.483   5.850
 7196POPC   GL150437  38.411  24.497   6.150
 7196POPC   GL250438  38.358  24.360   6.150
 7196POPC   C1A50439  38.445  24.482   6.450
 7196POPC   D2A50440  38.498  24.462   6.750
 7196POPC   C3A50441  38.456  24.513   7.050
 7196POPC   C4A50442  38.497  24.466   7.350
 7196POPC   C1B50443  38.310  24.331   6.450
 7196POPC   C2B50444  38.303  24.243   6.750
 7196POPC   C3B50445  38.285  24.269   7.050
 7196POPC   C4B50446  38.354  24.256   7.350
 7197POPC   NC350447  28.356  23.680   5.550
 7197POPC   PO450448  28.344  23.729   5.850
 7197POPC   GL150449  28.376  23.727   6.150
 7197POPC   GL250450  28.308  23.564   6.150
 7197POPC   C1A50451  28.335  23.746   6.450
 7197POPC   D2A50452  28.321  23.672   6.750
 7197POPC   C3A50453  28.407  23.700   7.050
 7197POPC   C4A50454  28.325  23.753   7.350
 7197POPC   C1B50455  28.278  23.484   6.450
 7197POPC   C2B50456  28.261  23.491   6.750
 7197POPC   C3B50457  28.201  23.453   7.050
 7197POPC   C4B50458  28.225  23.509   7.350
 7198POPC   NC350459   3.566   5.827   5.550
 7198POPC   PO450460   3.522   5.877   5.850
 7198POPC   GL150461   3.586   5.907   6.150
 7198POPC   GL250462   3.586   5.750   6.150
 7198POPC   C1A50463   3.590   5.877   6.450
 7198POPC   D2A50464   3.509   5.832   6.750
 7198POPC   C3A50465   3.579   5.893   7.050
 7198POPC   C4A50466   3.574   5.858   7.350
 7198POPC   C1B50467   3.674   5.705   6.450
 7198POPC   C2B50468   3.736   5.667   6.750
 7198POPC   C3B50469   3.736   5.660   7.050
 7198POPC   C4B50470   3.677   5.685   7.350
 7199POPC   NC350471   4.271  37.668   5.550
 7199POPC   PO450472   4.324  37.647   5.850
 7199POPC   GL150473   4.286  37.670   6.150
 7199POPC   GL250474   4.394  37.683   6.150
 7199POPC   C1A50475   4.345  37.665   6.450
 7199POPC   D2A50476   4.336  37.703   6.750
 7199POPC   C3A50477   4.315  37.694   7.050
 7199POPC   C4A50478   4.308  37.664   7.350
 7199POPC   C1B50479   4.541  37.724   6.450
 7199POPC   C2B50480   4.542  37.748   6.750
 7199POPC   C3B50481   4.553  37.712   7.050
 7199POPC   C4B50482   4.525  37.702   7.350
 7200POPC   NC350483  26.053  12.046   5.550
 7200POPC   PO450484  26.048  12.109   5.850
 7200POPC   GL150485  26.049  12.041   6.150
 7200POPC   GL250486  26.143  12.144   6.150
 7200POPC   C1A50487  26.083  12.086   6.450
 7200POPC   D2A50488  26.043  12.114   6.750
 7200POPC   C3A50489  26.064  12.116   7.050
 7200POPC   C4A50490  26.032  12.084   7.350
 7200POPC   C1B50491  26.238  12.221   6.450
 7200POPC   C2B50492  26.297  12.196   6.750
 7200POPC   C3B50493  26.279  12.187   7.050
 7200POPC   C4B50494  26.312  12.138   7.350
 7201POPC   NC350495  42.376  36.911   5.550
 7201POPC   PO450496  42.291  36.935   5.850
 7201POPC   GL150497  42.355  36.945   6.150
 7201POPC   GL250498  42.494  36.871   6.150
 7201POPC   C1A50499  42.357  36.912   6.450
 7201POPC   D2A50500  42.292  36.927   6.750
 7201POPC   C3A50501  42.296  36.854   7.050
 7201POPC   C4A50502  42.376  36.857   7.350
 7201POPC   C1B50503  42.576  36.879   6.450
 7201POPC   C2B50504  42.592  36.868   6.750
 7201POPC   C3B50505  42.551  36.798   7.050
 7201POPC   C4B50506  42.596  36.856   7.350
 7202POPC   NC350507  36.110  17.485   5.550
 7202POPC   PO450508  36.137  17.548   5.850
 7202POPC   GL150509  36.104  17.521   6.150
 7202POPC   GL250510  36.160  17.374   6.150
 7202POPC   C1A50511  36.080  17.467   6.450
 7202POPC   D2A50512  36.085  17.475   6.750
 7202POPC   C3A50513  36.088  17.552   7.050
 7202POPC   C4A50514  36.083  17.532   7.350
 7202POPC   C1B50515  36.152  17.252   6.450
 7202POPC   C2B50516  36.238  17.262   6.750
 7202POPC   C3B50517  36.154  17.218   7.050
 7202POPC   C4B50518  36.226  17.219   7.350
 7203POPC   NC350519   8.211  43.128   5.550
 7203POPC   PO450520   8.179  43.151   5.850
 7203POPC   GL150521   8.225  43.072   6.150
 7203POPC   GL250522   8.241  42.978   6.150
 7203POPC   C1A50523   8.195  43.147   6.450
 7203POPC   D2A50524   8.158  43.110   6.750
 7203POPC   C3A50525   8.227  43.103   7.050
 7203POPC   C4A50526   8.215  43.148   7.350
 7203POPC   C1B50527   8.380  42.956   6.450
 7203POPC   C2B50528   8.333  42.936   6.750
 7203POPC   C3B50529   8.368  42.864   7.050
 7203POPC   C4B50530   8.385  42.910   7.350
 7204POPC   NC350531  29.901   0.402   5.550
 7204POPC   PO450532  29.871   0.476   5.850
 7204POPC   GL150533  29.945   0.407   6.150
 7204POPC   GL250534  30.038   0.350   6.150
 7204POPC   C1A50535  29.901   0.406   6.450
 7204POPC   D2A50536  29.923   0.389   6.750
 7204POPC   C3A50537  29.903   0.466   7.050
 7204POPC   C4A50538  29.907   0.478   7.350
 7204POPC   C1B50539  30.049   0.234   6.450
 7204POPC   C2B50540  30.075   0.214   6.750
 7204POPC   C3B50541  30.119   0.223   7.050
 7204POPC   C4B50542  30.043   0.283   7.350
 7205POPC   NC350543   4.352   6.599   5.550
 7205POPC   PO450544   4.292   6.623   5.850
 7205POPC   GL150545   4.284   6.637   6.150
 7205POPC   GL250546   4.307   6.758   6.150
 7205POPC   C1A50547   4.345   6.598   6.450
 7205POPC   D2A50548   4.342   6.635   6.750
 7205POPC   C3A50549   4.327   6.687   7.050
 7205POPC   C4A50550   4.297   6.676   7.350
 7205POPC   C1B50551   4.363   6.863   6.450
 7205POPC   C2B50552   4.302   6.868   6.750
 7205POPC   C3B50553   4.346   6.912   7.050
 7205POPC   C4B50554   4.378   6.892   7.350
 7206POPC   NC350555  36.142  39.961   5.550
 7206POPC   PO450556  36.144  40.036   5.850
 7206POPC   GL150557  36.107  40.051   6.150
 7206POPC   GL250558  36.025  40.153   6.150
 7206POPC   C1A50559  36.175  40.015   6.450
 7206POPC   D2A50560  36.120  39.959   6.750
 7206POPC   C3A50561  36.149  40.043   7.050
 7206POPC   C4A50562  36.173  40.023   7.350
 7206POPC   C1B50563  35.967  40.188   6.450
 7206POPC   C2B50564  36.032  40.250   6.750
 7206POPC   C3B50565  36.001  40.182   7.050
 7206POPC   C4B50566  36.059  40.273   7.350
 7207POPC   NC350567  27.617  13.673   5.550
 7207POPC   PO450568  27.555  13.584   5.850
 7207POPC   GL150569  27.607  13.657   6.150
 7207POPC   GL250570  27.762  13.664   6.150
 7207POPC   C1A50571  27.620  13.650   6.450
 7207POPC   D2A50572  27.556  13.615   6.750
 7207POPC   C3A50573  27.620  13.648   7.050
 7207POPC   C4A50574  27.579  13.596   7.350
 7207POPC   C1B50575  27.812  13.614   6.450
 7207POPC   C2B50576  27.839  13.591   6.750
 7207POPC   C3B50577  27.851  13.586   7.050
 7207POPC   C4B50578  27.870  13.604   7.350
 7208POPC   NC350579   1.178  19.822   5.550
 7208POPC   PO450580   1.176  19.847   5.850
 7208POPC   GL150581   1.246  19.815   6.150
 7208POPC   GL250582   1.260  19.786   6.150
 7208POPC   C1A50583   1.195  19.879   6.450
 7208POPC   D2A50584   1.214  19.797   6.750
 7208POPC   C3A50585   1.225  19.815   7.050
 7208POPC   C4A50586   1.188  19.882   7.350
 7208POPC   C1B50587   1.377  19.634   6.450
 7208POPC   C2B50588   1.371  19.719   6.750
 7208POPC   C3B50589   1.423  19.721   7.050
 7208POPC   C4B50590   1.414  19.691   7.350
 7209POPC   NC350591  37.719  39.191   5.550
 7209POPC   PO450592  37.660  39.186   5.850
 7209POPC   GL150593  37.711  39.237   6.150
 7209POPC   GL250594  37.787  39.366   6.150
 7209POPC   C1A50595  37.648  39.201   6.450
 7209POPC   D2A50596  37.671  39.189   6.750
 7209POPC   C3A50597  37.708  39.245   7.050
 7209POPC   C4A50598  37.676  39.196   7.350
 7209POPC   C1B50599  37.878  39.411   6.450
 7209POPC   C2B50600  37.791  39.465   6.750
 7209POPC   C3B50601  37.881  39.395   7.050
 7209POPC   C4B50602  37.804  39.410   7.350
 7210POPC   NC350603   1.177  27.583   5.550
 7210POPC   PO450604   1.211  27.547   5.850
 7210POPC   GL150605   1.258  27.627   6.150
 7210POPC   GL250606   1.306  27.502   6.150
 7210POPC   C1A50607   1.259  27.620   6.450
 7210POPC   D2A50608   1.206  27.599   6.750
 7210POPC   C3A50609   1.164  27.595   7.050
 7210POPC   C4A50610   1.176  27.633   7.350
 7210POPC   C1B50611   1.401  27.453   6.450
 7210POPC   C2B50612   1.382  27.423   6.750
 7210POPC   C3B50613   1.466  27.440   7.050
 7210POPC   C4B50614   1.425  27.423   7.350
 7211POPC   NC350615  20.634  40.789   5.550
 7211POPC   PO450616  20.612  40.823   5.850
 7211POPC   GL150617  20.583  40.750   6.150
 7211POPC   GL250618  20.478  40.737   6.150
 7211POPC   C1A50619  20.654  40.796   6.450
 7211POPC   D2A50620  20.594  40.822   6.750
 7211POPC   C3A50621  20.567  40.776   7.050
 7211POPC   C4A50622  20.582  40.803   7.350
 7211POPC   C1B50623  20.370  40.694   6.450
 7211POPC   C2B50624  20.375  40.665   6.750
 7211POPC   C3B50625  20.361  40.632   7.050
 7211POPC   C4B50626  20.369  40.685   7.350
 7212POPC   NC350627  13.634  12.892   5.550
 7212POPC   PO450628  13.667  12.822   5.850
 7212POPC   GL150629  13.603  12.854   6.150
 7212POPC   GL250630  13.557  12.819   6.150
 7212POPC   C1A50631  13.677  12.828   6.450
 7212POPC   D2A50632  13.587  12.819   6.750
 7212POPC   C3A50633  13.596  12.891   7.050
 7212POPC   C4A50634  13.654  12.839   7.350
 7212POPC   C1B50635  13.367  12.701   6.450
 7212POPC   C2B50636  13.393  12.737   6.750
 7212POPC   C3B50637  13.416  12.758   7.050
 7212POPC   C4B50638  13.447  12.709   7.350
 7213POPC   NC350639   7.423  17.546   5.550
 7213POPC   PO450640   7.415  17.459   5.850
 7213POPC   GL150641   7.380  17.470   6.150
 7213POPC   GL250642   7.327  17.527   6.150
 7213POPC   C1A50643   7.380  17.474   6.450
 7213POPC   D2A50644   7.421  17.534   6.750
 7213POPC   C3A50645   7.464  17.529   7.050
 7213POPC   C4A50646   7.375  17.462   7.350
 7213POPC   C1B50647   7.129  17.543   6.450
 7213POPC   C2B50648   7.134  17.564   6.750
 7213POPC   C3B50649   7.146  17.502   7.050
 7213POPC   C4B50650   7.146  17.511   7.350
 7214POPC   NC350651  16.715  12.886   5.550
 7214POPC   PO450652  16.689  12.894   5.850
 7214POPC   GL150653  16.749  12.871   6.150
 7214POPC   GL250654  16.863  12.752   6.150
 7214POPC   C1A50655  16.744  12.831   6.450
 7214POPC   D2A50656  16.691  12.815   6.750
 7214POPC   C3A50657  16.746  12.858   7.050
 7214POPC   C4A50658  16.727  12.857   7.350
 7214POPC   C1B50659  16.886  12.698   6.450
 7214POPC   C2B50660  16.877  12.680   6.750
 7214POPC   C3B50661  16.881  12.725   7.050
 7214POPC   C4B50662  16.931  12.733   7.350
 7215POPC   NC350663  10.563  22.976   5.550
 7215POPC   PO450664  10.570  22.899   5.850
 7215POPC   GL150665  10.481  22.914   6.150
 7215POPC   GL250666  10.575  22.999   6.150
 7215POPC   C1A50667  10.498  22.983   6.450
 7215POPC   D2A50668  10.540  22.916   6.750
 7215POPC   C3A50669  10.515  22.947   7.050
 7215POPC   C4A50670  10.503  22.957   7.350
 7215POPC   C1B50671  10.716  23.150   6.450
 7215POPC   C2B50672  10.665  23.108   6.750
 7215POPC   C3B50673  10.663  23.161   7.050
 7215POPC   C4B50674  10.729  23.122   7.350
 7216POPC   NC350675  33.793  28.376   5.550
 7216POPC   PO450676  33.784  28.346   5.850
 7216POPC   GL150677  33.758  28.371   6.150
 7216POPC   GL250678  33.707  28.416   6.150
 7216POPC   C1A50679  33.800  28.357   6.450
 7216POPC   D2A50680  33.750  28.341   6.750
 7216POPC   C3A50681  33.798  28.372   7.050
 7216POPC   C4A50682  33.804  28.413   7.350
 7216POPC   C1B50683  33.564  28.493   6.450
 7216POPC   C2B50684  33.619  28.496   6.750
 7216POPC   C3B50685  33.592  28.521   7.050
 7216POPC   C4B50686  33.554  28.468   7.350
 7217POPC   NC350687  18.281  28.333   5.550
 7217POPC   PO450688  18.269  28.362   5.850
 7217POPC   GL150689  18.296  28.353   6.150
 7217POPC   GL250690  18.171  28.299   6.150
 7217POPC   C1A50691  18.283  28.397   6.450
 7217POPC   D2A50692  18.303  28.364   6.750
 7217POPC   C3A50693  18.307  28.332   7.050
 7217POPC   C4A50694  18.276  28.338   7.350
 7217POPC   C1B50695  18.005  28.273   6.450
 7217POPC   C2B50696  18.090  28.274   6.750
 7217POPC   C3B50697  18.091  28.258   7.050
 7217POPC   C4B50698  18.086  28.224   7.350
 7218POPC   NC350699  14.414  22.119   5.550
 7218POPC   PO450700  14.369  22.198   5.850
 7218POPC   GL150701  14.418  22.125   6.150
 7218POPC   GL250702  14.272  22.226   6.150
 7218POPC   C1A50703  14.376  22.190   6.450
 7218POPC   D2A50704  14.382  22.199   6.750
 7218POPC   C3A50705  14.381  22.154   7.050
 7218POPC   C4A50706  14.406  22.160   7.350
 7218POPC   C1B50707  14.232  22.320   6.450
 7218POPC   C2B50708  14.196  22.304   6.750
 7218POPC   C3B50709  14.218  22.302   7.050
 7218POPC   C4B50710  14.225  22.311   7.350
 7219POPC   NC350711  40.821  35.358   5.550
 7219POPC   PO450712  40.781  35.398   5.850
 7219POPC   GL150713  40.814  35.357   6.150
 7219POPC   GL250714  40.830  35.435   6.150
 7219POPC   C1A50715  40.829  35.358   6.450
 7219POPC   D2A50716  40.755  35.394   6.750
 7219POPC   C3A50717  40.767  35.313   7.050
 7219POPC   C4A50718  40.743  35.349   7.350
 7219POPC   C1B50719  40.836  35.620   6.450
 7219POPC   C2B50720  40.846  35.559   6.750
 7219POPC   C3B50721  40.843  35.567   7.050
 7219POPC   C4B50722  40.800  35.568   7.350
 7220POPC   NC350723   6.617  32.226   5.550
 7220POPC   PO450724   6.677  32.228   5.850
 7220POPC   GL150725   6.660  32.250   6.150
 7220POPC   GL250726   6.788  32.206   6.150
 7220POPC   C1A50727   6.644  32.212   6.450
 7220POPC   D2A50728   6.660  32.211   6.750
 7220POPC   C3A50729   6.653  32.228   7.050
 7220POPC   C4A50730   6.658  32.264   7.350
 7220POPC   C1B50731   6.900  32.236   6.450
 7220POPC   C2B50732   6.893  32.190   6.750
 7220POPC   C3B50733   6.882  32.226   7.050
 7220POPC   C4B50734   6.859  32.237   7.350
 7221POPC   NC350735  36.934  25.303   5.550
 7221POPC   PO450736  36.913  25.267   5.850
 7221POPC   GL150737  36.929  25.258   6.150
 7221POPC   GL250738  36.811  25.196   6.150
 7221POPC   C1A50739  36.867  25.305   6.450
 7221POPC   D2A50740  36.877  25.218   6.750
 7221POPC   C3A50741  36.912  25.250   7.050
 7221POPC   C4A50742  36.882  25.272   7.350
 7221POPC   C1B50743  36.722  25.108   6.450
 7221POPC   C2B50744  36.733  25.090   6.750
 7221POPC   C3B50745  36.770  25.049   7.050
 7221POPC   C4B50746  36.721  25.072   7.350
 7222POPC   NC350747  40.820  25.276   5.550
 7222POPC   PO450748  40.776  25.290   5.850
 7222POPC   GL150749  40.762  25.259   6.150
 7222POPC   GL250750  40.798  25.388   6.150
 7222POPC   C1A50751  40.826  25.250   6.450
 7222POPC   D2A50752  40.810  25.272   6.750
 7222POPC   C3A50753  40.789  25.313   7.050
 7222POPC   C4A50754  40.773  25.217   7.350
 7222POPC   C1B50755  40.765  25.556   6.450
 7222POPC   C2B50756  40.743  25.465   6.750
 7222POPC   C3B50757  40.759  25.489   7.050
 7222POPC   C4B50758  40.760  25.496   7.350
 7223POPC   NC350759  29.132  26.023   5.550
 7223POPC   PO450760  29.163  25.993   5.850
 7223POPC   GL150761  29.140  26.041   6.150
 7223POPC   GL250762  29.305  26.040   6.150
 7223POPC   C1A50763  29.140  26.021   6.450
 7223POPC   D2A50764  29.162  26.066   6.750
 7223POPC   C3A50765  29.129  26.024   7.050
 7223POPC   C4A50766  29.121  26.022   7.350
 7223POPC   C1B50767  29.354  25.957   6.450
 7223POPC   C2B50768  29.336  25.934   6.750
 7223POPC   C3B50769  29.343  25.963   7.050
 7223POPC   C4B50770  29.351  25.969   7.350
 7224POPC   NC350771   2.793  28.375   5.550
 7224POPC   PO450772   2.771  28.360   5.850
 7224POPC   GL150773   2.729  28.373   6.150
 7224POPC   GL250774   2.890  28.291   6.150
 7224POPC   C1A50775   2.724  28.394   6.450
 7224POPC   D2A50776   2.792  28.339   6.750
 7224POPC   C3A50777   2.766  28.319   7.050
 7224POPC   C4A50778   2.716  28.338   7.350
 7224POPC   C1B50779   2.947  28.171   6.450
 7224POPC   C2B50780   2.935  28.141   6.750
 7224POPC   C3B50781   2.927  28.200   7.050
 7224POPC   C4B50782   2.887  28.126   7.350
 7225POPC   NC350783  18.310  14.367   5.550
 7225POPC   PO450784  18.322  14.412   5.850
 7225POPC   GL150785  18.322  14.372   6.150
 7225POPC   GL250786  18.211  14.529   6.150
 7225POPC   C1A50787  18.251  14.447   6.450
 7225POPC   D2A50788  18.301  14.367   6.750
 7225POPC   C3A50789  18.295  14.374   7.050
 7225POPC   C4A50790  18.279  14.421   7.350
 7225POPC   C1B50791  18.231  14.621   6.450
 7225POPC   C2B50792  18.261  14.597   6.750
 7225POPC   C3B50793  18.196  14.617   7.050
 7225POPC   C4B50794  18.196  14.674   7.350
 7226POPC   NC350795   9.783  40.017   5.550
 7226POPC   PO450796   9.749  40.026   5.850
 7226POPC   GL150797   9.798  39.976   6.150
 7226POPC   GL250798   9.693  40.121   6.150
 7226POPC   C1A50799   9.789  40.023   6.450
 7226POPC   D2A50800   9.786  39.973   6.750
 7226POPC   C3A50801   9.755  40.044   7.050
 7226POPC   C4A50802   9.739  40.040   7.350
 7226POPC   C1B50803   9.603  40.154   6.450
 7226POPC   C2B50804   9.551  40.141   6.750
 7226POPC   C3B50805   9.544  40.223   7.050
 7226POPC   C4B50806   9.546  40.217   7.350
 7227POPC   NC350807  36.157   2.734   5.550
 7227POPC   PO450808  36.119   2.772   5.850
 7227POPC   GL150809  36.099   2.804   6.150
 7227POPC   GL250810  36.060   2.667   6.150
 7227POPC   C1A50811  36.087   2.741   6.450
 7227POPC   D2A50812  36.131   2.761   6.750
 7227POPC   C3A50813  36.171   2.721   7.050
 7227POPC   C4A50814  36.095   2.758   7.350
 7227POPC   C1B50815  35.990   2.564   6.450
 7227POPC   C2B50816  35.973   2.604   6.750
 7227POPC   C3B50817  35.932   2.605   7.050
 7227POPC   C4B50818  35.965   2.628   7.350
 7228POPC   NC350819  33.024   1.962   5.550
 7228POPC   PO450820  33.001   1.940   5.850
 7228POPC   GL150821  33.022   2.012   6.150
 7228POPC   GL250822  33.103   2.070   6.150
 7228POPC   C1A50823  33.020   1.950   6.450
 7228POPC   D2A50824  32.995   1.943   6.750
 7228POPC   C3A50825  32.983   2.013   7.050
 7228POPC   C4A50826  32.977   2.008   7.350
 7228POPC   C1B50827  33.128   2.170   6.450
 7228POPC   C2B50828  33.131   2.253   6.750
 7228POPC   C3B50829  33.101   2.194   7.050
 7228POPC   C4B50830  33.164   2.213   7.350
 7229POPC   NC350831   5.895  18.249   5.550
 7229POPC   PO450832   5.887  18.325   5.850
 7229POPC   GL150833   5.821  18.247   6.150
 7229POPC   GL250834   5.863  18.429   6.150
 7229POPC   C1A50835   5.861  18.293   6.450
 7229POPC   D2A50836   5.823  18.244   6.750
 7229POPC   C3A50837   5.836  18.270   7.050
 7229POPC   C4A50838   5.823  18.255   7.350
 7229POPC   C1B50839   5.902  18.545   6.450
 7229POPC   C2B50840   5.952  18.486   6.750
 7229POPC   C3B50841   5.889  18.559   7.050
 7229POPC   C4B50842   5.910  18.558   7.350
 7230POPC   NC350843  20.594   4.335   5.550
 7230POPC   PO450844  20.603   4.314   5.850
 7230POPC   GL150845  20.648   4.281   6.150
 7230POPC   GL250846  20.503   4.424   6.150
 7230POPC   C1A50847  20.578   4.316   6.450
 7230POPC   D2A50848  20.628   4.311   6.750
 7230POPC   C3A50849  20.659   4.316   7.050
 7230POPC   C4A50850  20.602   4.355   7.350
 7230POPC   C1B50851  20.435   4.518   6.450
 7230POPC   C2B50852  20.439   4.534   6.750
 7230POPC   C3B50853  20.430   4.467   7.050
 7230POPC   C4B50854  20.456   4.550   7.350
 7231POPC   NC350855  19.820  36.132   5.550
 7231POPC   PO450856  19.809  36.133   5.850
 7231POPC   GL150857  19.803  36.129   6.150
 7231POPC   GL250858  19.967  36.174   6.150
 7231POPC   C1A50859  19.804  36.160   6.450
 7231POPC   D2A50860  19.872  36.140   6.750
 7231POPC   C3A50861  19.816  36.140   7.050
 7231POPC   C4A50862  19.851  36.096   7.350
 7231POPC   C1B50863  20.048  36.165   6.450
 7231POPC   C2B50864  20.078  36.117   6.750
 7231POPC   C3B50865  20.038  36.142   7.050
 7231POPC   C4B50866  20.057  36.169   7.350
 7232POPC   NC350867  13.608   8.966   5.550
 7232POPC   PO450868  13.603   8.942   5.850
 7232POPC   GL150869  13.591   8.937   6.150
 7232POPC   GL250870  13.568   9.096   6.150
 7232POPC   C1A50871  13.578   8.937   6.450
 7232POPC   D2A50872  13.625   9.015   6.750
 7232POPC   C3A50873  13.586   8.941   7.050
 7232POPC   C4A50874  13.668   9.009   7.350
 7232POPC   C1B50875  13.513   9.219   6.450
 7232POPC   C2B50876  13.430   9.180   6.750
 7232POPC   C3B50877  13.468   9.174   7.050
 7232POPC   C4B50878  13.456   9.161   7.350
 7233POPC   NC350879  43.871  40.745   5.550
 7233POPC   PO450880  43.871  40.768   5.850
 7233POPC   GL150881  43.929  40.798   6.150
 7233POPC   GL250882  43.715  40.842   6.150
 7233POPC   C1A50883  43.859  40.766   6.450
 7233POPC   D2A50884  43.878  40.756   6.750
 7233POPC   C3A50885  43.868  40.792   7.050
 7233POPC   C4A50886  43.865  40.794   7.350
 7233POPC   C1B50887  43.620  40.881   6.450
 7233POPC   C2B50888  43.686  40.850   6.750
 7233POPC   C3B50889  43.644  40.801   7.050
 7233POPC   C4B50890  43.640  40.811   7.350
 7234POPC   NC350891  32.269   2.775   5.550
 7234POPC   PO450892  32.253   2.803   5.850
 7234POPC   GL150893  32.256   2.777   6.150
 7234POPC   GL250894  32.163   2.682   6.150
 7234POPC   C1A50895  32.233   2.803   6.450
 7234POPC   D2A50896  32.282   2.736   6.750
 7234POPC   C3A50897  32.255   2.741   7.050
 7234POPC   C4A50898  32.227   2.744   7.350
 7234POPC   C1B50899  32.192   2.573   6.450
 7234POPC   C2B50900  32.174   2.486   6.750
 7234POPC   C3B50901  32.155   2.498   7.050
 7234POPC   C4B50902  32.134   2.572   7.350
 7235POPC   NC350903   2.763  11.253   5.550
 7235POPC   PO450904   2.758  11.264   5.850
 7235POPC   GL150905   2.799  11.276   6.150
 7235POPC   GL250906   2.830  11.182   6.150
 7235POPC   C1A50907   2.757  11.266   6.450
 7235POPC   D2A50908   2.736  11.330   6.750
 7235POPC   C3A50909   2.743  11.348   7.050
 7235POPC   C4A50910   2.762  11.331   7.350
 7235POPC   C1B50911   2.852  11.048   6.450
 7235POPC   C2B50912   2.897  11.106   6.750
 7235POPC   C3B50913   2.853  11.076   7.050
 7235POPC   C4B50914   2.855  11.083   7.350
 7236POPC   NC350915  37.643  26.847   5.550
 7236POPC   PO450916  37.690  26.839   5.850
 7236POPC   GL150917  37.694  26.818   6.150
 7236POPC   GL250918  37.829  26.849   6.150
 7236POPC   C1A50919  37.686  26.832   6.450
 7236POPC   D2A50920  37.711  26.776   6.750
 7236POPC   C3A50921  37.711  26.865   7.050
 7236POPC   C4A50922  37.689  26.779   7.350
 7236POPC   C1B50923  37.923  26.783   6.450
 7236POPC   C2B50924  37.899  26.826   6.750
 7236POPC   C3B50925  37.962  26.810   7.050
 7236POPC   C4B50926  37.895  26.849   7.350
 7237POPC   NC350927  34.610  27.607   5.550
 7237POPC   PO450928  34.547  27.634   5.850
 7237POPC   GL150929  34.529  27.607   6.150
 7237POPC   GL250930  34.434  27.542   6.150
 7237POPC   C1A50931  34.571  27.557   6.450
 7237POPC   D2A50932  34.528  27.596   6.750
 7237POPC   C3A50933  34.583  27.554   7.050
 7237POPC   C4A50934  34.545  27.546   7.350
 7237POPC   C1B50935  34.315  27.572   6.450
 7237POPC   C2B50936  34.315  27.538   6.750
 7237POPC   C3B50937  34.353  27.583   7.050
 7237POPC   C4B50938  34.308  27.591   7.350
 7238POPC   NC350939  29.141   3.575   5.550
 7238POPC   PO450940  29.183   3.561   5.850
 7238POPC   GL150941  29.178   3.516   6.150
 7238POPC   GL250942  29.234   3.652   6.150
 7238POPC   C1A50943  29.109   3.568   6.450
 7238POPC   D2A50944  29.136   3.519   6.750
 7238POPC   C3A50945  29.107   3.571   7.050
 7238POPC   C4A50946  29.127   3.556   7.350
 7238POPC   C1B50947  29.307   3.667   6.450
 7238POPC   C2B50948  29.382   3.646   6.750
 7238POPC   C3B50949  29.302   3.684   7.050
 7238POPC   C4B50950  29.343   3.725   7.350
 7239POPC   NC350951  43.841   1.974   5.550
 7239POPC   PO450952  43.908   1.996   5.850
 7239POPC   GL150953  43.874   1.970   6.150
 7239POPC   GL250954  43.928   2.158   6.150
 7239POPC   C1A50955  43.874   2.005   6.450
 7239POPC   D2A50956  43.885   2.039   6.750
 7239POPC   C3A50957  43.878   1.964   7.050
 7239POPC   C4A50958  43.850   2.009   7.350
 7239POPC   C1B50959  43.978   2.210   6.450
 7239POPC   C2B50960  43.984   2.223   6.750
 7239POPC   C3B50961  43.904   2.274   7.050
 7239POPC   C4B50962  43.886   2.256   7.350
 7240POPC   NC350963  20.648  11.264   5.550
 7240POPC   PO450964  20.637  11.309   5.850
 7240POPC   GL150965  20.577  11.270   6.150
 7240POPC   GL250966  20.689  11.325   6.150
 7240POPC   C1A50967  20.574  11.275   6.450
 7240POPC   D2A50968  20.599  11.316   6.750
 7240POPC   C3A50969  20.577  11.326   7.050
 7240POPC   C4A50970  20.635  11.304   7.350
 7240POPC   C1B50971  20.763  11.468   6.450
 7240POPC   C2B50972  20.769  11.480   6.750
 7240POPC   C3B50973  20.779  11.437   7.050
 7240POPC   C4B50974  20.860  11.462   7.350
 7241POPC   NC350975   5.866  40.820   5.550
 7241POPC   PO450976   5.889  40.782   5.850
 7241POPC   GL150977   5.917  40.797   6.150
 7241POPC   GL250978   5.897  40.689   6.150
 7241POPC   C1A50979   5.903  40.785   6.450
 7241POPC   D2A50980   5.867  40.755   6.750
 7241POPC   C3A50981   5.820  40.800   7.050
 7241POPC   C4A50982   5.881  40.769   7.350
 7241POPC   C1B50983   5.810  40.505   6.450
 7241POPC   C2B50984   5.839  40.517   6.750
 7241POPC   C3B50985   5.836  40.485   7.050
 7241POPC   C4B50986   5.875  40.505   7.350
 7242POPC   NC350987  17.549   9.745   5.550
 7242POPC   PO450988  17.475   9.737   5.850
 7242POPC   GL150989  17.489   9.701   6.150
 7242POPC   GL250990  17.428   9.779   6.150
 7242POPC   C1A50991  17.553   9.796   6.450
 7242POPC   D2A50992  17.512   9.735   6.750
 7242POPC   C3A50993  17.488   9.737   7.050
 7242POPC   C4A50994  17.473   9.740   7.350
 7242POPC   C1B50995  17.287   9.782   6.450
 7242POPC   C2B50996  17.231   9.823   6.750
 7242POPC   C3B50997  17.302   9.808   7.050
 7242POPC   C4B50998  17.226   9.777   7.350
 7243POPC   NC350999  11.311  31.469   5.550
 7243POPC   PO451000  11.273  31.477   5.850
 7243POPC   GL151001  11.347  31.521   6.150
 7243POPC   GL251002  11.182  31.497   6.150
 7243POPC   C1A51003  11.330  31.455   6.450
 7243POPC   D2A51004  11.270  31.492   6.750
 7243POPC   C3A51005  11.280  31.441   7.050
 7243POPC   C4A51006  11.328  31.509   7.350
 7243POPC   C1B51007  11.099  31.520   6.450
 7243POPC   C2B51008  11.039  31.579   6.750
 7243POPC   C3B51009  11.022  31.604   7.050
 7243POPC   C4B51010  11.062  31.561   7.350
 7244POPC   NC351011  14.355  36.137   5.550
 7244POPC   PO451012  14.354  36.173   5.850
 7244POPC   GL151013  14.353  36.139   6.150
 7244POPC   GL251014  14.507  36.019   6.150
 7244POPC   C1A51015  14.380  36.104   6.450
 7244POPC   D2A51016  14.396  36.139   6.750
 7244POPC   C3A51017  14.453  36.127   7.050
 7244POPC   C4A51018  14.418  36.167   7.350
 7244POPC   C1B51019  14.608  35.988   6.450
 7244POPC   C2B51020  14.606  35.999   6.750
 7244POPC   C3B51021  14.657  35.982   7.050
 7244POPC   C4B51022  14.612  36.021   7.350
 7245POPC   NC351023  19.064   5.087   5.550
 7245POPC   PO451024  19.078   5.056   5.850
 7245POPC   GL151025  19.050   5.086   6.150
 7245POPC   GL251026  19.137   5.121   6.150
 7245POPC   C1A51027  19.052   5.101   6.450
 7245POPC   D2A51028  19.075   5.071   6.750
 7245POPC   C3A51029  19.038   5.125   7.050
 7245POPC   C4A51030  19.103   5.073   7.350
 7245POPC   C1B51031  19.330   5.100   6.450
 7245POPC   C2B51032  19.300   5.064   6.750
 7245POPC   C3B51033  19.299   5.054   7.050
 7245POPC   C4B51034  19.346   5.097   7.350
 7246POPC   NC351035  43.918  11.261   5.550
 7246POPC   PO451036  43.875  11.262   5.850
 7246POPC   GL151037  43.901  11.344   6.150
 7246POPC   GL251038  44.002  11.272   6.150
 7246POPC   C1A51039  43.922  11.255   6.450
 7246POPC   D2A51040  43.858  11.334   6.750
 7246POPC   C3A51041  43.923  11.279   7.050
 7246POPC   C4A51042  43.858  11.313   7.350
 7246POPC   C1B51043  44.132  11.212   6.450
 7246POPC   C2B51044  44.074  11.211   6.750
 7246POPC   C3B51045  44.099  11.218   7.050
 7246POPC   C4B51046  44.128  11.216   7.350
 7247POPC   NC351047  26.849  37.642   5.550
 7247POPC   PO451048  26.831  37.687   5.850
 7247POPC   GL151049  26.803  37.725   6.150
 7247POPC   GL251050  26.925  37.737   6.150
 7247POPC   C1A51051  26.776  37.712   6.450
 7247POPC   D2A51052  26.828  37.689   6.750
 7247POPC   C3A51053  26.865  37.698   7.050
 7247POPC   C4A51054  26.854  37.706   7.350
 7247POPC   C1B51055  27.019  37.754   6.450
 7247POPC   C2B51056  27.015  37.754   6.750
 7247POPC   C3B51057  27.068  37.814   7.050
 7247POPC   C4B51058  27.096  37.790   7.350
 7248POPC   NC351059  16.751   8.957   5.550
 7248POPC   PO451060  16.755   8.949   5.850
 7248POPC   GL151061  16.761   8.935   6.150
 7248POPC   GL251062  16.760   9.101   6.150
 7248POPC   C1A51063  16.760   9.000   6.450
 7248POPC   D2A51064  16.770   8.999   6.750
 7248POPC   C3A51065  16.695   9.009   7.050
 7248POPC   C4A51066  16.740   8.957   7.350
 7248POPC   C1B51067  16.705   9.188   6.450
 7248POPC   C2B51068  16.754   9.224   6.750
 7248POPC   C3B51069  16.730   9.223   7.050
 7248POPC   C4B51070  16.721   9.190   7.350
 7249POPC   NC351071  39.962  15.949   5.550
 7249POPC   PO451072  40.011  15.998   5.850
 7249POPC   GL151073  40.001  15.917   6.150
 7249POPC   GL251074  40.001  15.788   6.150
 7249POPC   C1A51075  40.025  15.908   6.450
 7249POPC   D2A51076  39.992  15.998   6.750
 7249POPC   C3A51077  40.043  15.919   7.050
 7249POPC   C4A51078  39.970  15.977   7.350
 7249POPC   C1B51079  40.016  15.739   6.450
 7249POPC   C2B51080  39.966  15.755   6.750
 7249POPC   C3B51081  39.932  15.745   7.050
 7249POPC   C4B51082  40.022  15.744   7.350
 7250POPC   NC351083  41.510  26.834   5.550
 7250POPC   PO451084  41.608  26.866   5.850
 7250POPC   GL151085  41.608  26.829   6.150
 7250POPC   GL251086  41.462  26.909   6.150
 7250POPC   C1A51087  41.595  26.838   6.450
 7250POPC   D2A51088  41.600  26.850   6.750
 7250POPC   C3A51089  41.558  26.780   7.050
 7250POPC   C4A51090  41.562  26.782   7.350
 7250POPC   C1B51091  41.433  27.035   6.450
 7250POPC   C2B51092  41.413  27.001   6.750
 7250POPC   C3B51093  41.476  27.038   7.050
 7250POPC   C4B51094  41.442  27.065   7.350
 7251POPC   NC351095   3.574  41.575   5.550
 7251POPC   PO451096   3.560  41.521   5.850
 7251POPC   GL151097   3.527  41.523   6.150
 7251POPC   GL251098   3.439  41.624   6.150
 7251POPC   C1A51099   3.525  41.602   6.450
 7251POPC   D2A51100   3.510  41.521   6.750
 7251POPC   C3A51101   3.509  41.578   7.050
 7251POPC   C4A51102   3.514  41.560   7.350
 7251POPC   C1B51103   3.446  41.826   6.450
 7251POPC   C2B51104   3.446  41.739   6.750
 7251POPC   C3B51105   3.472  41.827   7.050
 7251POPC   C4B51106   3.467  41.757   7.350
 7252POPC   NC351107  34.613  15.191   5.550
 7252POPC   PO451108  34.528  15.216   5.850
 7252POPC   GL151109  34.562  15.167   6.150
 7252POPC   GL251110  34.498  15.293   6.150
 7252POPC   C1A51111  34.565  15.159   6.450
 7252POPC   D2A51112  34.595  15.169   6.750
 7252POPC   C3A51113  34.612  15.200   7.050
 7252POPC   C4A51114  34.603  15.212   7.350
 7252POPC   C1B51115  34.414  15.316   6.450
 7252POPC   C2B51116  34.431  15.378   6.750
 7252POPC   C3B51117  34.390  15.392   7.050
 7252POPC   C4B51118  34.360  15.387   7.350
 7253POPC   NC351119  13.659  12.074   5.550
 7253POPC   PO451120  13.677  12.118   5.850
 7253POPC   GL151121  13.670  12.082   6.150
 7253POPC   GL251122  13.551  12.160   6.150
 7253POPC   C1A51123  13.585  12.052   6.450
 7253POPC   D2A51124  13.639  12.122   6.750
 7253POPC   C3A51125  13.621  12.047   7.050
 7253POPC   C4A51126  13.650  12.036   7.350
 7253POPC   C1B51127  13.433  12.182   6.450
 7253POPC   C2B51128  13.393  12.204   6.750
 7253POPC   C3B51129  13.388  12.265   7.050
 7253POPC   C4B51130  13.455  12.200   7.350
 7254POPC   NC351131  22.948  29.904   5.550
 7254POPC   PO451132  22.985  29.938   5.850
 7254POPC   GL151133  22.896  29.917   6.150
 7254POPC   GL251134  23.036  29.948   6.150
 7254POPC   C1A51135  22.939  29.934   6.450
 7254POPC   D2A51136  22.980  29.897   6.750
 7254POPC   C3A51137  22.934  29.923   7.050
 7254POPC   C4A51138  22.953  29.960   7.350
 7254POPC   C1B51139  23.222  29.951   6.450
 7254POPC   C2B51140  23.198  29.956   6.750
 7254POPC   C3B51141  23.200  29.979   7.050
 7254POPC   C4B51142  23.208  30.018   7.350
 7255POPC   NC351143  27.613  33.808   5.550
 7255POPC   PO451144  27.620  33.775   5.850
 7255POPC   GL151145  27.566  33.839   6.150
 7255POPC   GL251146  27.522  33.883   6.150
 7255POPC   C1A51147  27.642  33.836   6.450
 7255POPC   D2A51148  27.607  33.825   6.750
 7255POPC   C3A51149  27.613  33.758   7.050
 7255POPC   C4A51150  27.584  33.820   7.350
 7255POPC   C1B51151  27.460  33.946   6.450
 7255POPC   C2B51152  27.386  33.938   6.750
 7255POPC   C3B51153  27.400  33.965   7.050
 7255POPC   C4B51154  27.425  33.992   7.350
 7256POPC   NC351155  31.463  24.495   5.550
 7256POPC   PO451156  31.518  24.515   5.850
 7256POPC   GL151157  31.475  24.502   6.150
 7256POPC   GL251158  31.622  24.457   6.150
 7256POPC   C1A51159  31.482  24.507   6.450
 7256POPC   D2A51160  31.495  24.490   6.750
 7256POPC   C3A51161  31.470  24.512   7.050
 7256POPC   C4A51162  31.490  24.527   7.350
 7256POPC   C1B51163  31.661  24.400   6.450
 7256POPC   C2B51164  31.690  24.388   6.750
 7256POPC   C3B51165  31.682  24.422   7.050
 7256POPC   C4B51166  31.690  24.344   7.350
 7257POPC   NC351167  26.799  43.933   5.550
 7257POPC   PO451168  26.774  43.885   5.850
 7257POPC   GL151169  26.769  43.893   6.150
 7257POPC   GL251170  26.658  43.852   6.150
 7257POPC   C1A51171  26.817  43.901   6.450
 7257POPC   D2A51172  26.792  43.935   6.750
 7257POPC   C3A51173  26.858  43.847   7.050
 7257POPC   C4A51174  26.826  43.925   7.350
 7257POPC   C1B51175  26.570  43.864   6.450
 7257POPC   C2B51176  26.588  43.870   6.750
 7257POPC   C3B51177  26.587  43.909   7.050
 7257POPC   C4B51178  26.550  43.885   7.350
 7258POPC   NC351179  33.838  30.744   5.550
 7258POPC   PO451180  33.771  30.652   5.850
 7258POPC   GL151181  33.829  30.672   6.150
 7258POPC   GL251182  33.641  30.736   6.150
 7258POPC   C1A51183  33.816  30.649   6.450
 7258POPC   D2A51184  33.781  30.734   6.750
 7258POPC   C3A51185  33.772  30.724   7.050
 7258POPC   C4A51186  33.787  30.686   7.350
 7258POPC   C1B51187  33.525  30.739   6.450
 7258POPC   C2B51188  33.553  30.749   6.750
 7258POPC   C3B51189  33.522  30.796   7.050
 7258POPC   C4B51190  33.556  30.728   7.350
 7259POPC   NC351191   1.242  25.256   5.550
 7259POPC   PO451192   1.230  25.236   5.850
 7259POPC   GL151193   1.180  25.275   6.150
 7259POPC   GL251194   1.241  25.353   6.150
 7259POPC   C1A51195   1.231  25.296   6.450
 7259POPC   D2A51196   1.233  25.244   6.750
 7259POPC   C3A51197   1.238  25.304   7.050
 7259POPC   C4A51198   1.244  25.220   7.350
 7259POPC   C1B51199   1.359  25.462   6.450
 7259POPC   C2B51200   1.326  25.435   6.750
 7259POPC   C3B51201   1.355  25.492   7.050
 7259POPC   C4B51202   1.330  25.418   7.350
 7260POPC   NC351203  26.047   2.010   5.550
 7260POPC   PO451204  26.021   1.963   5.850
 7260POPC   GL151205  26.074   1.953   6.150
 7260POPC   GL251206  26.010   2.122   6.150
 7260POPC   C1A51207  26.064   2.024   6.450
 7260POPC   D2A51208  26.048   2.010   6.750
 7260POPC   C3A51209  26.064   1.993   7.050
 7260POPC   C4A51210  26.005   2.026   7.350
 7260POPC   C1B51211  26.071   2.259   6.450
 7260POPC   C2B51212  25.990   2.238   6.750
 7260POPC   C3B51213  25.990   2.279   7.050
 7260POPC   C4B51214  26.024   2.261   7.350
 7261POPC   NC351215   1.941   0.486   5.550
 7261POPC   PO451216   1.957   0.458   5.850
 7261POPC   GL151217   1.982   0.461   6.150
 7261POPC   GL251218   1.894   0.534   6.150
 7261POPC   C1A51219   1.940   0.411   6.450
 7261POPC   D2A51220   1.956   0.405   6.750
 7261POPC   C3A51221   2.021   0.474   7.050
 7261POPC   C4A51222   2.019   0.483   7.350
 7261POPC   C1B51223   1.755   0.556   6.450
 7261POPC   C2B51224   1.776   0.549   6.750
 7261POPC   C3B51225   1.811   0.556   7.050
 7261POPC   C4B51226   1.788   0.548   7.350
 7262POPC   NC351227  16.750  12.097   5.550
 7262POPC   PO451228  16.698  12.107   5.850
 7262POPC   GL151229  16.698  12.109   6.150
 7262POPC   GL251230  16.698  12.151   6.150
 7262POPC   C1A51231  16.704  12.057   6.450
 7262POPC   D2A51232  16.753  12.121   6.750
 7262POPC   C3A51233  16.746  12.030   7.050
 7262POPC   C4A51234  16.777  12.051   7.350
 7262POPC   C1B51235  16.629  12.295   6.450
 7262POPC   C2B51236  16.605  12.309   6.750
 7262POPC   C3B51237  16.571  12.312   7.050
 7262POPC   C4B51238  16.576  12.276   7.350
 7263POPC   NC351239  33.773  12.831   5.550
 7263POPC   PO451240  33.843  12.838   5.850
 7263POPC   GL151241  33.754  12.850   6.150
 7263POPC   GL251242  33.706  12.828   6.150
 7263POPC   C1A51243  33.828  12.881   6.450
 7263POPC   D2A51244  33.799  12.886   6.750
 7263POPC   C3A51245  33.751  12.836   7.050
 7263POPC   C4A51246  33.757  12.885   7.350
 7263POPC   C1B51247  33.597  12.857   6.450
 7263POPC   C2B51248  33.593  12.803   6.750
 7263POPC   C3B51249  33.577  12.805   7.050
 7263POPC   C4B51250  33.563  12.854   7.350
 7264POPC   NC351251  12.084   5.110   5.550
 7264POPC   PO451252  12.052   5.053   5.850
 7264POPC   GL151253  12.090   5.065   6.150
 7264POPC   GL251254  12.206   5.012   6.150
 7264POPC   C1A51255  12.033   5.048   6.450
 7264POPC   D2A51256  12.045   5.076   6.750
 7264POPC   C3A51257  12.082   5.125   7.050
 7264POPC   C4A51258  12.121   5.120   7.350
 7264POPC   C1B51259  12.269   5.056   6.450
 7264POPC   C2B51260  12.345   5.039   6.750
 7264POPC   C3B51261  12.276   4.997   7.050
 7264POPC   C4B51262  12.318   5.011   7.350
 7265POPC   NC351263  26.866  42.287   5.550
 7265POPC   PO451264  26.770  42.335   5.850
 7265POPC   GL151265  26.814  42.286   6.150
 7265POPC   GL251266  26.812  42.468   6.150
 7265POPC   C1A51267  26.787  42.345   6.450
 7265POPC   D2A51268  26.856  42.297   6.750
 7265POPC   C3A51269  26.808  42.290   7.050
 7265POPC   C4A51270  26.822  42.354   7.350
 7265POPC   C1B51271  26.694  42.569   6.450
 7265POPC   C2B51272  26.743  42.572   6.750
 7265POPC   C3B51273  26.716  42.623   7.050
 7265POPC   C4B51274  26.789  42.542   7.350
 7266POPC   NC351275  25.991  34.590   5.550
 7266POPC   PO451276  26.010  34.546   5.850
 7266POPC   GL151277  26.087  34.584   6.150
 7266POPC   GL251278  26.005  34.477   6.150
 7266POPC   C1A51279  26.005  34.562   6.450
 7266POPC   D2A51280  26.005  34.620   6.750
 7266POPC   C3A51281  26.063  34.570   7.050
 7266POPC   C4A51282  26.075  34.528   7.350
 7266POPC   C1B51283  25.885  34.328   6.450
 7266POPC   C2B51284  25.980  34.387   6.750
 7266POPC   C3B51285  25.917  34.330   7.050
 7266POPC   C4B51286  25.946  34.342   7.350
 7267POPC   NC351287  28.392  32.219   5.550
 7267POPC   PO451288  28.412  32.206   5.850
 7267POPC   GL151289  28.361  32.227   6.150
 7267POPC   GL251290  28.417  32.119   6.150
 7267POPC   C1A51291  28.360  32.264   6.450
 7267POPC   D2A51292  28.346  32.278   6.750
 7267POPC   C3A51293  28.337  32.252   7.050
 7267POPC   C4A51294  28.360  32.243   7.350
 7267POPC   C1B51295  28.595  32.100   6.450
 7267POPC   C2B51296  28.511  32.105   6.750
 7267POPC   C3B51297  28.588  32.049   7.050
 7267POPC   C4B51298  28.518  32.096   7.350
 7268POPC   NC351299  15.937  11.275   5.550
 7268POPC   PO451300  15.986  11.297   5.850
 7268POPC   GL151301  16.002  11.284   6.150
 7268POPC   GL251302  15.940  11.456   6.150
 7268POPC   C1A51303  15.970  11.347   6.450
 7268POPC   D2A51304  15.968  11.342   6.750
 7268POPC   C3A51305  15.922  11.258   7.050
 7268POPC   C4A51306  15.983  11.321   7.350
 7268POPC   C1B51307  15.985  11.567   6.450
 7268POPC   C2B51308  16.019  11.563   6.750
 7268POPC   C3B51309  16.025  11.592   7.050
 7268POPC   C4B51310  16.013  11.523   7.350
 7269POPC   NC351311  25.999  20.571   5.550
 7269POPC   PO451312  26.061  20.561   5.850
 7269POPC   GL151313  26.006  20.603   6.150
 7269POPC   GL251314  25.965  20.462   6.150
 7269POPC   C1A51315  26.033  20.601   6.450
 7269POPC   D2A51316  26.011  20.564   6.750
 7269POPC   C3A51317  26.015  20.639   7.050
 7269POPC   C4A51318  26.084  20.614   7.350
 7269POPC   C1B51319  25.957  20.422   6.450
 7269POPC   C2B51320  25.948  20.348   6.750
 7269POPC   C3B51321  25.950  20.393   7.050
 7269POPC   C4B51322  25.871  20.393   7.350
 7270POPC   NC351323  29.154  29.144   5.550
 7270POPC   PO451324  29.120  29.132   5.850
 7270POPC   GL151325  29.120  29.188   6.150
 7270POPC   GL251326  29.097  29.249   6.150
 7270POPC   C1A51327  29.153  29.131   6.450
 7270POPC   D2A51328  29.186  29.144   6.750
 7270POPC   C3A51329  29.153  29.153   7.050
 7270POPC   C4A51330  29.141  29.144   7.350
 7270POPC   C1B51331  29.076  29.360   6.450
 7270POPC   C2B51332  29.104  29.339   6.750
 7270POPC   C3B51333  29.102  29.381   7.050
 7270POPC   C4B51334  29.098  29.421   7.350
 7271POPC   NC351335  21.420  19.015   5.550
 7271POPC   PO451336  21.356  19.092   5.850
 7271POPC   GL151337  21.360  19.024   6.150
 7271POPC   GL251338  21.402  19.153   6.150
 7271POPC   C1A51339  21.374  19.076   6.450
 7271POPC   D2A51340  21.340  19.094   6.750
 7271POPC   C3A51341  21.359  19.013   7.050
 7271POPC   C4A51342  21.352  19.038   7.350
 7271POPC   C1B51343  21.501  19.250   6.450
 7271POPC   C2B51344  21.506  19.301   6.750
 7271POPC   C3B51345  21.552  19.306   7.050
 7271POPC   C4B51346  21.557  19.256   7.350
 7272POPC   NC351347  42.322  14.435   5.550
 7272POPC   PO451348  42.361  14.365   5.850
 7272POPC   GL151349  42.384  14.377   6.150
 7272POPC   GL251350  42.466  14.425   6.150
 7272POPC   C1A51351  42.321  14.429   6.450
 7272POPC   D2A51352  42.312  14.393   6.750
 7272POPC   C3A51353  42.331  14.412   7.050
 7272POPC   C4A51354  42.347  14.423   7.350
 7272POPC   C1B51355  42.571  14.371   6.450
 7272POPC   C2B51356  42.598  14.384   6.750
 7272POPC   C3B51357  42.589  14.435   7.050
 7272POPC   C4B51358  42.601  14.422   7.350
 7273POPC   NC351359  11.251  32.219   5.550
 7273POPC   PO451360  11.255  32.274   5.850
 7273POPC   GL151361  11.299  32.256   6.150
 7273POPC   GL251362  11.408  32.344   6.150
 7273POPC   C1A51363  11.299  32.227   6.450
 7273POPC   D2A51364  11.325  32.217   6.750
 7273POPC   C3A51365  11.324  32.277   7.050
 7273POPC   C4A51366  11.282  32.282   7.350
 7273POPC   C1B51367  11.517  32.314   6.450
 7273POPC   C2B51368  11.476  32.379   6.750
 7273POPC   C3B51369  11.516  32.334   7.050
 7273POPC   C4B51370  11.523  32.354   7.350
 7274POPC   NC351371  33.800  11.268   5.550
 7274POPC   PO451372  33.796  11.295   5.850
 7274POPC   GL151373  33.810  11.322   6.150
 7274POPC   GL251374  33.718  11.454   6.150
 7274POPC   C1A51375  33.842  11.329   6.450
 7274POPC   D2A51376  33.781  11.309   6.750
 7274POPC   C3A51377  33.793  11.276   7.050
 7274POPC   C4A51378  33.838  11.345   7.350
 7274POPC   C1B51379  33.695  11.557   6.450
 7274POPC   C2B51380  33.709  11.496   6.750
 7274POPC   C3B51381  33.678  11.557   7.050
 7274POPC   C4B51382  33.664  11.513   7.350
 7275POPC   NC351383  33.846  29.160   5.550
 7275POPC   PO451384  33.780  29.178   5.850
 7275POPC   GL151385  33.768  29.146   6.150
 7275POPC   GL251386  33.725  29.208   6.150
 7275POPC   C1A51387  33.779  29.168   6.450
 7275POPC   D2A51388  33.838  29.138   6.750
 7275POPC   C3A51389  33.761  29.129   7.050
 7275POPC   C4A51390  33.808  29.190   7.350
 7275POPC   C1B51391  33.540  29.230   6.450
 7275POPC   C2B51392  33.605  29.233   6.750
 7275POPC   C3B51393  33.598  29.218   7.050
 7275POPC   C4B51394  33.561  29.231   7.350
 7276POPC   NC351395  43.915  40.045   5.550
 7276POPC   PO451396  43.871  39.993   5.850
 7276POPC   GL151397  43.851  40.024   6.150
 7276POPC   GL251398  44.059  40.035   6.150
 7276POPC   C1A51399  43.849  39.994   6.450
 7276POPC   D2A51400  43.836  40.055   6.750
 7276POPC   C3A51401  43.882  39.975   7.050
 7276POPC   C4A51402  43.921  40.039   7.350
 7276POPC   C1B51403  44.097  40.016   6.450
 7276POPC   C2B51404  44.161  39.986   6.750
 7276POPC   C3B51405  44.174  39.977   7.050
 7276POPC   C4B51406  44.107  40.000   7.350
 7277POPC   NC351407  29.174  15.973   5.550
 7277POPC   PO451408  29.189  15.911   5.850
 7277POPC   GL151409  29.187  15.996   6.150
 7277POPC   GL251410  29.073  15.895   6.150
 7277POPC   C1A51411  29.157  15.962   6.450
 7277POPC   D2A51412  29.127  15.975   6.750
 7277POPC   C3A51413  29.095  15.944   7.050
 7277POPC   C4A51414  29.118  15.939   7.350
 7277POPC   C1B51415  29.037  15.730   6.450
 7277POPC   C2B51416  28.971  15.771   6.750
 7277POPC   C3B51417  28.995  15.800   7.050
 7277POPC   C4B51418  28.990  15.740   7.350
 7278POPC   NC351419  27.612  32.216   5.550
 7278POPC   PO451420  27.543  32.232   5.850
 7278POPC   GL151421  27.624  32.238   6.150
 7278POPC   GL251422  27.657  32.097   6.150
 7278POPC   C1A51423  27.564  32.296   6.450
 7278POPC   D2A51424  27.564  32.262   6.750
 7278POPC   C3A51425  27.618  32.204   7.050
 7278POPC   C4A51426  27.625  32.220   7.350
 7278POPC   C1B51427  27.755  32.062   6.450
 7278POPC   C2B51428  27.742  32.009   6.750
 7278POPC   C3B51429  27.704  32.072   7.050
 7278POPC   C4B51430  27.749  32.059   7.350
 7279POPC   NC351431  23.761   8.947   5.550
 7279POPC   PO451432  23.755   9.022   5.850
 7279POPC   GL151433  23.752   8.980   6.150
 7279POPC   GL251434  23.650   9.127   6.150
 7279POPC   C1A51435  23.684   8.959   6.450
 7279POPC   D2A51436  23.685   8.926   6.750
 7279POPC   C3A51437  23.694   8.969   7.050
 7279POPC   C4A51438  23.751   8.991   7.350
 7279POPC   C1B51439  23.629   9.241   6.450
 7279POPC   C2B51440  23.601   9.209   6.750
 7279POPC   C3B51441  23.631   9.249   7.050
 7279POPC   C4B51442  23.646   9.247   7.350
 7280POPC   NC351443  10.529  32.978   5.550
 7280POPC   PO451444  10.541  32.996   5.850
 7280POPC   GL151445  10.521  33.012   6.150
 7280POPC   GL251446  10.646  32.949   6.150
 7280POPC   C1A51447  10.560  32.974   6.450
 7280POPC   D2A51448  10.522  33.006   6.750
 7280POPC   C3A51449  10.475  33.026   7.050
 7280POPC   C4A51450  10.479  33.058   7.350
 7280POPC   C1B51451  10.725  32.881   6.450
 7280POPC   C2B51452  10.696  32.875   6.750
 7280POPC   C3B51453  10.760  32.860   7.050
 7280POPC   C4B51454  10.778  32.889   7.350
 7281POPC   NC351455   4.320  42.310   5.550
 7281POPC   PO451456   4.336  42.352   5.850
 7281POPC   GL151457   4.287  42.285   6.150
 7281POPC   GL251458   4.473  42.277   6.150
 7281POPC   C1A51459   4.329  42.304   6.450
 7281POPC   D2A51460   4.288  42.350   6.750
 7281POPC   C3A51461   4.286  42.287   7.050
 7281POPC   C4A51462   4.323  42.313   7.350
 7281POPC   C1B51463   4.532  42.317   6.450
 7281POPC   C2B51464   4.574  42.317   6.750
 7281POPC   C3B51465   4.547  42.334   7.050
 7281POPC   C4B51466   4.524  42.257   7.350
 7282POPC   NC351467   6.694  18.330   5.550
 7282POPC   PO451468   6.692  18.260   5.850
 7282POPC   GL151469   6.607  18.274   6.150
 7282POPC   GL251470   6.538  18.194   6.150
 7282POPC   C1A51471   6.675  18.242   6.450
 7282POPC   D2A51472   6.647  18.253   6.750
 7282POPC   C3A51473   6.604  18.316   7.050
 7282POPC   C4A51474   6.681  18.313   7.350
 7282POPC   C1B51475   6.434  18.086   6.450
 7282POPC   C2B51476   6.434  18.103   6.750
 7282POPC   C3B51477   6.474  18.175   7.050
 7282POPC   C4B51478   6.401  18.170   7.350
 7283POPC   NC351479   5.131  11.308   5.550
 7283POPC   PO451480   5.108  11.310   5.850
 7283POPC   GL151481   5.059  11.311   6.150
 7283POPC   GL251482   5.021  11.276   6.150
 7283POPC   C1A51483   5.044  11.330   6.450
 7283POPC   D2A51484   5.071  11.340   6.750
 7283POPC   C3A51485   5.098  11.324   7.050
 7283POPC   C4A51486   5.046  11.311   7.350
 7283POPC   C1B51487   4.923  11.124   6.450
 7283POPC   C2B51488   4.853  11.209   6.750
 7283POPC   C3B51489   4.864  11.197   7.050
 7283POPC   C4B51490   4.860  11.125   7.350
 7284POPC   NC351491  44.689  41.553   5.550
 7284POPC   PO451492  44.691  41.541   5.850
 7284POPC   GL151493  44.710  41.586   6.150
 7284POPC   GL251494  44.541  41.654   6.150
 7284POPC   C1A51495  44.698  41.562   6.450
 7284POPC   D2A51496  44.682  41.600   6.750
 7284POPC   C3A51497  44.687  41.576   7.050
 7284POPC   C4A51498  44.648  41.523   7.350
 7284POPC   C1B51499  44.481  41.666   6.450
 7284POPC   C2B51500  44.511  41.685   6.750
 7284POPC   C3B51501  44.499  41.664   7.050
 7284POPC   C4B51502  44.451  41.668   7.350
 7285POPC   NC351503  32.231  15.920   5.550
 7285POPC   PO451504  32.266  15.971   5.850
 7285POPC   GL151505  32.268  15.982   6.150
 7285POPC   GL251506  32.394  15.905   6.150
 7285POPC   C1A51507  32.270  15.957   6.450
 7285POPC   D2A51508  32.222  15.909   6.750
 7285POPC   C3A51509  32.261  15.999   7.050
 7285POPC   C4A51510  32.243  15.996   7.350
 7285POPC   C1B51511  32.528  15.984   6.450
 7285POPC   C2B51512  32.500  15.890   6.750
 7285POPC   C3B51513  32.502  15.942   7.050
 7285POPC   C4B51514  32.525  15.941   7.350
 7286POPC   NC351515  10.548  19.844   5.550
 7286POPC   PO451516  10.499  19.880   5.850
 7286POPC   GL151517  10.563  19.851   6.150
 7286POPC   GL251518  10.464  19.931   6.150
 7286POPC   C1A51519  10.520  19.840   6.450
 7286POPC   D2A51520  10.482  19.861   6.750
 7286POPC   C3A51521  10.538  19.834   7.050
 7286POPC   C4A51522  10.478  19.786   7.350
 7286POPC   C1B51523  10.344  20.078   6.450
 7286POPC   C2B51524  10.339  20.058   6.750
 7286POPC   C3B51525  10.352  20.002   7.050
 7286POPC   C4B51526  10.357  20.080   7.350
 7287POPC   NC351527   7.460  36.934   5.550
 7287POPC   PO451528   7.395  36.921   5.850
 7287POPC   GL151529   7.373  36.882   6.150
 7287POPC   GL251530   7.286  37.027   6.150
 7287POPC   C1A51531   7.381  36.869   6.450
 7287POPC   D2A51532   7.464  36.913   6.750
 7287POPC   C3A51533   7.382  36.923   7.050
 7287POPC   C4A51534   7.381  36.884   7.350
 7287POPC   C1B51535   7.299  37.055   6.450
 7287POPC   C2B51536   7.288  37.125   6.750
 7287POPC   C3B51537   7.297  37.078   7.050
 7287POPC   C4B51538   7.281  37.085   7.350
 7288POPC   NC351539  37.648  36.871   5.550
 7288POPC   PO451540  37.716  36.868   5.850
 7288POPC   GL151541  37.705  36.879   6.150
 7288POPC   GL251542  37.591  36.993   6.150
 7288POPC   C1A51543  37.638  36.854   6.450
 7288POPC   D2A51544  37.668  36.874   6.750
 7288POPC   C3A51545  37.702  36.884   7.050
 7288POPC   C4A51546  37.665  36.932   7.350
 7288POPC   C1B51547  37.434  37.015   6.450
 7288POPC   C2B51548  37.459  37.041   6.750
 7288POPC   C3B51549  37.430  36.985   7.050
 7288POPC   C4B51550  37.476  37.052   7.350
 7289POPC   NC351551  28.329  14.448   5.550
 7289POPC   PO451552  28.356  14.422   5.850
 7289POPC   GL151553  28.402  14.419   6.150
 7289POPC   GL251554  28.292  14.495   6.150
 7289POPC   C1A51555  28.378  14.403   6.450
 7289POPC   D2A51556  28.380  14.410   6.750
 7289POPC   C3A51557  28.331  14.403   7.050
 7289POPC   C4A51558  28.391  14.419   7.350
 7289POPC   C1B51559  28.184  14.573   6.450
 7289POPC   C2B51560  28.202  14.568   6.750
 7289POPC   C3B51561  28.203  14.544   7.050
 7289POPC   C4B51562  28.169  14.588   7.350
 7290POPC   NC351563  22.191   1.171   5.550
 7290POPC   PO451564  22.202   1.172   5.850
 7290POPC   GL151565  22.191   1.182   6.150
 7290POPC   GL251566  22.279   1.222   6.150
 7290POPC   C1A51567  22.129   1.207   6.450
 7290POPC   D2A51568  22.180   1.226   6.750
 7290POPC   C3A51569  22.201   1.216   7.050
 7290POPC   C4A51570  22.155   1.215   7.350
 7290POPC   C1B51571  22.416   1.246   6.450
 7290POPC   C2B51572  22.454   1.267   6.750
 7290POPC   C3B51573  22.436   1.257   7.050
 7290POPC   C4B51574  22.361   1.309   7.350
 7291POPC   NC351575  21.358   6.657   5.550
 7291POPC   PO451576  21.403   6.604   5.850
 7291POPC   GL151577  21.370   6.628   6.150
 7291POPC   GL251578  21.502   6.613   6.150
 7291POPC   C1A51579  21.343   6.662   6.450
 7291POPC   D2A51580  21.429   6.655   6.750
 7291POPC   C3A51581  21.428   6.639   7.050
 7291POPC   C4A51582  21.344   6.612   7.350
 7291POPC   C1B51583  21.647   6.549   6.450
 7291POPC   C2B51584  21.601   6.597   6.750
 7291POPC   C3B51585  21.644   6.515   7.050
 7291POPC   C4B51586  21.655   6.533   7.350
 7292POPC   NC351587  11.316  29.192   5.550
 7292POPC   PO451588  11.259  29.181   5.850
 7292POPC   GL151589  11.285  29.137   6.150
 7292POPC   GL251590  11.414  29.221   6.150
 7292POPC   C1A51591  11.293  29.168   6.450
 7292POPC   D2A51592  11.307  29.136   6.750
 7292POPC   C3A51593  11.268  29.099   7.050
 7292POPC   C4A51594  11.300  29.176   7.350
 7292POPC   C1B51595  11.514  29.230   6.450
 7292POPC   C2B51596  11.582  29.249   6.750
 7292POPC   C3B51597  11.535  29.211   7.050
 7292POPC   C4B51598  11.554  29.268   7.350
 7293POPC   NC351599   8.219  28.381   5.550
 7293POPC   PO451600   8.172  28.378   5.850
 7293POPC   GL151601   8.164  28.389   6.150
 7293POPC   GL251602   8.232  28.516   6.150
 7293POPC   C1A51603   8.229  28.376   6.450
 7293POPC   D2A51604   8.189  28.358   6.750
 7293POPC   C3A51605   8.205  28.353   7.050
 7293POPC   C4A51606   8.245  28.354   7.350
 7293POPC   C1B51607   8.255  28.653   6.450
 7293POPC   C2B51608   8.256  28.572   6.750
 7293POPC   C3B51609   8.307  28.648   7.050
 7293POPC   C4B51610   8.255  28.643   7.350
 7294POPC   NC351611  29.184  34.588   5.550
 7294POPC   PO451612  29.171  34.571   5.850
 7294POPC   GL151613  29.193  34.609   6.150
 7294POPC   GL251614  29.160  34.482   6.150
 7294POPC   C1A51615  29.104  34.585   6.450
 7294POPC   D2A51616  29.172  34.576   6.750
 7294POPC   C3A51617  29.187  34.621   7.050
 7294POPC   C4A51618  29.182  34.611   7.350
 7294POPC   C1B51619  29.033  34.316   6.450
 7294POPC   C2B51620  29.120  34.309   6.750
 7294POPC   C3B51621  29.104  34.338   7.050
 7294POPC   C4B51622  29.073  34.357   7.350
 7295POPC   NC351623   4.360  15.141   5.550
 7295POPC   PO451624   4.328  15.131   5.850
 7295POPC   GL151625   4.357  15.210   6.150
 7295POPC   GL251626   4.266  15.243   6.150
 7295POPC   C1A51627   4.331  15.177   6.450
 7295POPC   D2A51628   4.290  15.196   6.750
 7295POPC   C3A51629   4.272  15.215   7.050
 7295POPC   C4A51630   4.277  15.159   7.350
 7295POPC   C1B51631   4.119  15.410   6.450
 7295POPC   C2B51632   4.152  15.404   6.750
 7295POPC   C3B51633   4.195  15.419   7.050
 7295POPC   C4B51634   4.200  15.397   7.350
 7296POPC   NC351635  33.785  13.586   5.550
 7296POPC   PO451636  33.794  13.630   5.850
 7296POPC   GL151637  33.803  13.647   6.150
 7296POPC   GL251638  33.901  13.573   6.150
 7296POPC   C1A51639  33.790  13.654   6.450
 7296POPC   D2A51640  33.829  13.609   6.750
 7296POPC   C3A51641  33.753  13.623   7.050
 7296POPC   C4A51642  33.791  13.619   7.350
 7296POPC   C1B51643  33.998  13.484   6.450
 7296POPC   C2B51644  34.049  13.511   6.750
 7296POPC   C3B51645  34.007  13.552   7.050
 7296POPC   C4B51646  33.976  13.468   7.350
 7297POPC   NC351647  43.924  24.511   5.550
 7297POPC   PO451648  43.930  24.451   5.850
 7297POPC   GL151649  43.934  24.457   6.150
 7297POPC   GL251650  43.777  24.401   6.150
 7297POPC   C1A51651  43.889  24.507   6.450
 7297POPC   D2A51652  43.842  24.535   6.750
 7297POPC   C3A51653  43.853  24.462   7.050
 7297POPC   C4A51654  43.856  24.478   7.350
 7297POPC   C1B51655  43.704  24.370   6.450
 7297POPC   C2B51656  43.674  24.346   6.750
 7297POPC   C3B51657  43.662  24.353   7.050
 7297POPC   C4B51658  43.668  24.365   7.350
 7298POPC   NC351659  36.868  41.564   5.550
 7298POPC   PO451660  36.855  41.518   5.850
 7298POPC   GL151661  36.897  41.574   6.150
 7298POPC   GL251662  36.793  41.563   6.150
 7298POPC   C1A51663  36.894  41.553   6.450
 7298POPC   D2A51664  36.926  41.582   6.750
 7298POPC   C3A51665  36.897  41.518   7.050
 7298POPC   C4A51666  36.913  41.542   7.350
 7298POPC   C1B51667  36.682  41.618   6.450
 7298POPC   C2B51668  36.668  41.662   6.750
 7298POPC   C3B51669  36.696  41.605   7.050
 7298POPC   C4B51670  36.627  41.605   7.350
 7299POPC   NC351671   7.396   5.909   5.550
 7299POPC   PO451672   7.470   5.855   5.850
 7299POPC   GL151673   7.466   5.871   6.150
 7299POPC   GL251674   7.518   5.961   6.150
 7299POPC   C1A51675   7.470   5.852   6.450
 7299POPC   D2A51676   7.448   5.875   6.750
 7299POPC   C3A51677   7.391   5.889   7.050
 7299POPC   C4A51678   7.465   5.828   7.350
 7299POPC   C1B51679   7.680   5.922   6.450
 7299POPC   C2B51680   7.624   5.958   6.750
 7299POPC   C3B51681   7.681   5.975   7.050
 7299POPC   C4B51682   7.677   5.953   7.350
 7300POPC   NC351683  31.477  29.101   5.550
 7300POPC   PO451684  31.514  29.105   5.850
 7300POPC   GL151685  31.496  29.160   6.150
 7300POPC   GL251686  31.608  29.197   6.150
 7300POPC   C1A51687  31.497  29.118   6.450
 7300POPC   D2A51688  31.511  29.160   6.750
 7300POPC   C3A51689  31.468  29.178   7.050
 7300POPC   C4A51690  31.478  29.127   7.350
 7300POPC   C1B51691  31.736  29.217   6.450
 7300POPC   C2B51692  31.727  29.237   6.750
 7300POPC   C3B51693  31.714  29.247   7.050
 7300POPC   C4B51694  31.690  29.222   7.350
 7301POPC   NC351695   0.463  24.476   5.550
 7301POPC   PO451696   0.393  24.452   5.850
 7301POPC   GL151697   0.469  24.467   6.150
 7301POPC   GL251698   0.466  24.571   6.150
 7301POPC   C1A51699   0.401  24.537   6.450
 7301POPC   D2A51700   0.464  24.495   6.750
 7301POPC   C3A51701   0.486  24.456   7.050
 7301POPC   C4A51702   0.453  24.449   7.350
 7301POPC   C1B51703   0.444  24.742   6.450
 7301POPC   C2B51704   0.408  24.723   6.750
 7301POPC   C3B51705   0.362  24.700   7.050
 7301POPC   C4B51706   0.419  24.776   7.350
 7302POPC   NC351707  31.492   3.582   5.550
 7302POPC   PO451708  31.464   3.567   5.850
 7302POPC   GL151709  31.511   3.502   6.150
 7302POPC   GL251710  31.577   3.471   6.150
 7302POPC   C1A51711  31.447   3.503   6.450
 7302POPC   D2A51712  31.467   3.549   6.750
 7302POPC   C3A51713  31.455   3.588   7.050
 7302POPC   C4A51714  31.461   3.575   7.350
 7302POPC   C1B51715  31.594   3.285   6.450
 7302POPC   C2B51716  31.597   3.320   6.750
 7302POPC   C3B51717  31.583   3.302   7.050
 7302POPC   C4B51718  31.609   3.337   7.350
 7303POPC   NC351719  27.625  34.538   5.550
 7303POPC   PO451720  27.626  34.622   5.850
 7303POPC   GL151721  27.615  34.599   6.150
 7303POPC   GL251722  27.519  34.658   6.150
 7303POPC   C1A51723  27.552  34.578   6.450
 7303POPC   D2A51724  27.639  34.531   6.750
 7303POPC   C3A51725  27.640  34.554   7.050
 7303POPC   C4A51726  27.546  34.546   7.350
 7303POPC   C1B51727  27.375  34.758   6.450
 7303POPC   C2B51728  27.346  34.677   6.750
 7303POPC   C3B51729  27.380  34.724   7.050
 7303POPC   C4B51730  27.352  34.713   7.350
 7304POPC   NC351731  22.190  19.106   5.550
 7304POPC   PO451732  22.130  19.040   5.850
 7304POPC   GL151733  22.174  19.084   6.150
 7304POPC   GL251734  22.091  19.007   6.150
 7304POPC   C1A51735  22.191  19.011   6.450
 7304POPC   D2A51736  22.207  19.067   6.750
 7304POPC   C3A51737  22.114  19.094   7.050
 7304POPC   C4A51738  22.170  19.091   7.350
 7304POPC   C1B51739  21.896  19.010   6.450
 7304POPC   C2B51740  21.940  18.922   6.750
 7304POPC   C3B51741  21.960  18.979   7.050
 7304POPC   C4B51742  21.946  18.967   7.350
 7305POPC   NC351743  44.623   1.235   5.550
 7305POPC   PO451744  44.683   1.231   5.850
 7305POPC   GL151745  44.655   1.244   6.150
 7305POPC   GL251746  44.654   1.055   6.150
 7305POPC   C1A51747  44.650   1.222   6.450
 7305POPC   D2A51748  44.673   1.168   6.750
 7305POPC   C3A51749  44.678   1.240   7.050
 7305POPC   C4A51750  44.615   1.207   7.350
 7305POPC   C1B51751  44.731   0.921   6.450
 7305POPC   C2B51752  44.741   1.010   6.750
 7305POPC   C3B51753  44.692   0.942   7.050
 7305POPC   C4B51754  44.752   0.990   7.350
 7306POPC   NC351755  32.976  23.689   5.550
 7306POPC   PO451756  32.991  23.737   5.850
 7306POPC   GL151757  33.041  23.743   6.150
 7306POPC   GL251758  33.122  23.727   6.150
 7306POPC   C1A51759  33.014  23.760   6.450
 7306POPC   D2A51760  33.035  23.744   6.750
 7306POPC   C3A51761  33.071  23.739   7.050
 7306POPC   C4A51762  33.067  23.721   7.350
 7306POPC   C1B51763  33.312  23.712   6.450
 7306POPC   C2B51764  33.299  23.680   6.750
 7306POPC   C3B51765  33.237  23.730   7.050
 7306POPC   C4B51766  33.236  23.690   7.350
 7307POPC   NC351767  12.861  43.103   5.550
 7307POPC   PO451768  12.886  43.091   5.850
 7307POPC   GL151769  12.835  43.096   6.150
 7307POPC   GL251770  12.874  43.190   6.150
 7307POPC   C1A51771  12.872  43.122   6.450
 7307POPC   D2A51772  12.851  43.121   6.750
 7307POPC   C3A51773  12.826  43.081   7.050
 7307POPC   C4A51774  12.808  43.105   7.350
 7307POPC   C1B51775  12.879  43.308   6.450
 7307POPC   C2B51776  12.882  43.326   6.750
 7307POPC   C3B51777  12.876  43.366   7.050
 7307POPC   C4B51778  12.873  43.334   7.350
 7308POPC   NC351779  37.679  10.519   5.550
 7308POPC   PO451780  37.707  10.552   5.850
 7308POPC   GL151781  37.650  10.511   6.150
 7308POPC   GL251782  37.603  10.518   6.150
 7308POPC   C1A51783  37.641  10.574   6.450
 7308POPC   D2A51784  37.698  10.504   6.750
 7308POPC   C3A51785  37.662  10.515   7.050
 7308POPC   C4A51786  37.656  10.548   7.350
 7308POPC   C1B51787  37.452  10.508   6.450
 7308POPC   C2B51788  37.408  10.477   6.750
 7308POPC   C3B51789  37.408  10.520   7.050
 7308POPC   C4B51790  37.483  10.493   7.350
 7309POPC   NC351791  19.037   1.257   5.550
 7309POPC   PO451792  19.016   1.177   5.850
 7309POPC   GL151793  19.020   1.215   6.150
 7309POPC   GL251794  19.152   1.333   6.150
 7309POPC   C1A51795  19.034   1.168   6.450
 7309POPC   D2A51796  19.103   1.261   6.750
 7309POPC   C3A51797  19.033   1.252   7.050
 7309POPC   C4A51798  19.028   1.186   7.350
 7309POPC   C1B51799  19.259   1.339   6.450
 7309POPC   C2B51800  19.283   1.418   6.750
 7309POPC   C3B51801  19.198   1.388   7.050
 7309POPC   C4B51802  19.201   1.360   7.350
 7310POPC   NC351803  30.654  12.040   5.550
 7310POPC   PO451804  30.682  12.048   5.850
 7310POPC   GL151805  30.660  12.048   6.150
 7310POPC   GL251806  30.717  11.988   6.150
 7310POPC   C1A51807  30.660  12.040   6.450
 7310POPC   D2A51808  30.693  12.086   6.750
 7310POPC   C3A51809  30.675  12.059   7.050
 7310POPC   C4A51810  30.677  12.057   7.350
 7310POPC   C1B51811  30.726  11.795   6.450
 7310POPC   C2B51812  30.812  11.846   6.750
 7310POPC   C3B51813  30.771  11.812   7.050
 7310POPC   C4B51814  30.739  11.805   7.350
 7311POPC   NC351815  14.377  28.372   5.550
 7311POPC   PO451816  14.387  28.331   5.850
 7311POPC   GL151817  14.394  28.357   6.150
 7311POPC   GL251818  14.237  28.295   6.150
 7311POPC   C1A51819  14.441  28.346   6.450
 7311POPC   D2A51820  14.388  28.402   6.750
 7311POPC   C3A51821  14.411  28.334   7.050
 7311POPC   C4A51822  14.430  28.418   7.350
 7311POPC   C1B51823  14.157  28.259   6.450
 7311POPC   C2B51824  14.196  28.263   6.750
 7311POPC   C3B51825  14.195  28.340   7.050
 7311POPC   C4B51826  14.192  28.299   7.350
 7312POPC   NC351827   2.030  11.254   5.550
 7312POPC   PO451828   1.990  11.276   5.850
 7312POPC   GL151829   2.001  11.285   6.150
 7312POPC   GL251830   1.868  11.372   6.150
 7312POPC   C1A51831   1.955  11.255   6.450
 7312POPC   D2A51832   2.026  11.259   6.750
 7312POPC   C3A51833   1.997  11.307   7.050
 7312POPC   C4A51834   2.009  11.269   7.350
 7312POPC   C1B51835   1.776  11.403   6.450
 7312POPC   C2B51836   1.731  11.360   6.750
 7312POPC   C3B51837   1.774  11.428   7.050
 7312POPC   C4B51838   1.767  11.419   7.350
 7313POPC   NC351839   2.814   6.658   5.550
 7313POPC   PO451840   2.807   6.681   5.850
 7313POPC   GL151841   2.776   6.643   6.150
 7313POPC   GL251842   2.904   6.704   6.150
 7313POPC   C1A51843   2.745   6.677   6.450
 7313POPC   D2A51844   2.757   6.653   6.750
 7313POPC   C3A51845   2.744   6.668   7.050
 7313POPC   C4A51846   2.759   6.668   7.350
 7313POPC   C1B51847   2.979   6.796   6.450
 7313POPC   C2B51848   2.965   6.759   6.750
 7313POPC   C3B51849   2.944   6.834   7.050
 7313POPC   C4B51850   2.954   6.797   7.350
 7314POPC   NC351851  37.695  26.004   5.550
 7314POPC   PO451852  37.668  26.020   5.850
 7314POPC   GL151853  37.630  26.027   6.150
 7314POPC   GL251854  37.611  26.093   6.150
 7314POPC   C1A51855  37.647  26.035   6.450
 7314POPC   D2A51856  37.681  26.023   6.750
 7314POPC   C3A51857  37.633  26.039   7.050
 7314POPC   C4A51858  37.684  26.031   7.350
 7314POPC   C1B51859  37.468  26.188   6.450
 7314POPC   C2B51860  37.532  26.230   6.750
 7314POPC   C3B51861  37.497  26.228   7.050
 7314POPC   C4B51862  37.502  26.233   7.350
 7315POPC   NC351863  24.443   9.716   5.550
 7315POPC   PO451864  24.538   9.730   5.850
 7315POPC   GL151865  24.509   9.700   6.150
 7315POPC   GL251866  24.660   9.710   6.150
 7315POPC   C1A51867  24.516   9.740   6.450
 7315POPC   D2A51868  24.445   9.722   6.750
 7315POPC   C3A51869  24.495   9.796   7.050
 7315POPC   C4A51870  24.477   9.757   7.350
 7315POPC   C1B51871  24.756   9.706   6.450
 7315POPC   C2B51872  24.757   9.693   6.750
 7315POPC   C3B51873  24.693   9.738   7.050
 7315POPC   C4B51874  24.749   9.687   7.350
 7316POPC   NC351875   5.105  10.506   5.550
 7316POPC   PO451876   5.136  10.478   5.850
 7316POPC   GL151877   5.136  10.547   6.150
 7316POPC   GL251878   5.121  10.435   6.150
 7316POPC   C1A51879   5.068  10.487   6.450
 7316POPC   D2A51880   5.105  10.479   6.750
 7316POPC   C3A51881   5.053  10.546   7.050
 7316POPC   C4A51882   5.081  10.549   7.350
 7316POPC   C1B51883   5.200  10.276   6.450
 7316POPC   C2B51884   5.165  10.285   6.750
 7316POPC   C3B51885   5.162  10.311   7.050
 7316POPC   C4B51886   5.178  10.331   7.350
 7317POPC   NC351887  22.935  42.370   5.550
 7317POPC   PO451888  22.924  42.345   5.850
 7317POPC   GL151889  22.917  42.356   6.150
 7317POPC   GL251890  22.862  42.263   6.150
 7317POPC   C1A51891  22.936  42.368   6.450
 7317POPC   D2A51892  22.915  42.309   6.750
 7317POPC   C3A51893  22.898  42.349   7.050
 7317POPC   C4A51894  22.959  42.326   7.350
 7317POPC   C1B51895  22.710  42.278   6.450
 7317POPC   C2B51896  22.672  42.222   6.750
 7317POPC   C3B51897  22.689  42.227   7.050
 7317POPC   C4B51898  22.748  42.235   7.350
 7318POPC   NC351899  15.145  26.827   5.550
 7318POPC   PO451900  15.139  26.779   5.850
 7318POPC   GL151901  15.148  26.865   6.150
 7318POPC   GL251902  15.181  26.925   6.150
 7318POPC   C1A51903  15.213  26.775   6.450
 7318POPC   D2A51904  15.211  26.846   6.750
 7318POPC   C3A51905  15.215  26.778   7.050
 7318POPC   C4A51906  15.166  26.831   7.350
 7318POPC   C1B51907  15.234  27.023   6.450
 7318POPC   C2B51908  15.233  27.025   6.750
 7318POPC   C3B51909  15.238  27.081   7.050
 7318POPC   C4B51910  15.214  27.060   7.350
 7319POPC   NC351911  13.644  44.625   5.550
 7319POPC   PO451912  13.615  44.684   5.850
 7319POPC   GL151913  13.594  44.666   6.150
 7319POPC   GL251914  13.525  44.655   6.150
 7319POPC   C1A51915  13.604  44.706   6.450
 7319POPC   D2A51916  13.662  44.706   6.750
 7319POPC   C3A51917  13.629  44.617   7.050
 7319POPC   C4A51918  13.610  44.658   7.350
 7319POPC   C1B51919  13.420  44.697   6.450
 7319POPC   C2B51920  13.343  44.665   6.750
 7319POPC   C3B51921  13.391  44.666   7.050
 7319POPC   C4B51922  13.397  44.687   7.350
 7320POPC   NC351923   0.440  29.121   5.550
 7320POPC   PO451924   0.459  29.151   5.850
 7320POPC   GL151925   0.422  29.144   6.150
 7320POPC   GL251926   0.483  29.304   6.150
 7320POPC   C1A51927   0.452  29.118   6.450
 7320POPC   D2A51928   0.481  29.099   6.750
 7320POPC   C3A51929   0.462  29.184   7.050
 7320POPC   C4A51930   0.451  29.144   7.350
 7320POPC   C1B51931   0.427  29.422   6.450
 7320POPC   C2B51932   0.436  29.417   6.750
 7320POPC   C3B51933   0.438  29.437   7.050
 7320POPC   C4B51934   0.488  29.385   7.350
 7321POPC   NC351935  15.145  16.736   5.550
 7321POPC   PO451936  15.131  16.716   5.850
 7321POPC   GL151937  15.159  16.702   6.150
 7321POPC   GL251938  15.109  16.847   6.150
 7321POPC   C1A51939  15.227  16.719   6.450
 7321POPC   D2A51940  15.148  16.752   6.750
 7321POPC   C3A51941  15.191  16.761   7.050
 7321POPC   C4A51942  15.221  16.760   7.350
 7321POPC   C1B51943  14.951  16.900   6.450
 7321POPC   C2B51944  15.018  16.826   6.750
 7321POPC   C3B51945  14.956  16.862   7.050
 7321POPC   C4B51946  14.938  16.841   7.350
 7322POPC   NC351947   5.102   9.716   5.550
 7322POPC   PO451948   5.101   9.796   5.850
 7322POPC   GL151949   5.046   9.755   6.150
 7322POPC   GL251950   5.174   9.838   6.150
 7322POPC   C1A51951   5.061   9.717   6.450
 7322POPC   D2A51952   5.091   9.718   6.750
 7322POPC   C3A51953   5.115   9.699   7.050
 7322POPC   C4A51954   5.138   9.738   7.350
 7322POPC   C1B51955   5.260   9.896   6.450
 7322POPC   C2B51956   5.273   9.893   6.750
 7322POPC   C3B51957   5.220   9.889   7.050
 7322POPC   C4B51958   5.302   9.942   7.350
 7323POPC   NC351959  26.045   1.190   5.550
 7323POPC   PO451960  26.086   1.202   5.850
 7323POPC   GL151961  26.011   1.187   6.150
 7323POPC   GL251962  26.182   1.225   6.150
 7323POPC   C1A51963  26.040   1.178   6.450
 7323POPC   D2A51964  26.032   1.244   6.750
 7323POPC   C3A51965  26.059   1.215   7.050
 7323POPC   C4A51966  25.996   1.224   7.350
 7323POPC   C1B51967  26.277   1.114   6.450
 7323POPC   C2B51968  26.311   1.142   6.750
 7323POPC   C3B51969  26.255   1.194   7.050
 7323POPC   C4B51970  26.264   1.196   7.350
 7324POPC   NC351971  19.069   6.646   5.550
 7324POPC   PO451972  19.088   6.657   5.850
 7324POPC   GL151973  19.028   6.645   6.150
 7324POPC   GL251974  19.049   6.804   6.150
 7324POPC   C1A51975  19.068   6.664   6.450
 7324POPC   D2A51976  19.012   6.651   6.750
 7324POPC   C3A51977  19.065   6.672   7.050
 7324POPC   C4A51978  19.089   6.689   7.350
 7324POPC   C1B51979  18.940   6.847   6.450
 7324POPC   C2B51980  18.922   6.906   6.750
 7324POPC   C3B51981  18.945   6.873   7.050
 7324POPC   C4B51982  18.922   6.917   7.350
 7325POPC   NC351983  31.458  19.071   5.550
 7325POPC   PO451984  31.466  19.015   5.850
 7325POPC   GL151985  31.468  19.039   6.150
 7325POPC   GL251986  31.605  18.993   6.150
 7325POPC   C1A51987  31.439  19.096   6.450
 7325POPC   D2A51988  31.452  19.020   6.750
 7325POPC   C3A51989  31.459  19.075   7.050
 7325POPC   C4A51990  31.458  19.065   7.350
 7325POPC   C1B51991  31.707  19.058   6.450
 7325POPC   C2B51992  31.678  19.030   6.750
 7325POPC   C3B51993  31.689  19.027   7.050
 7325POPC   C4B51994  31.730  19.055   7.350
 7326POPC   NC351995  34.587  16.778   5.550
 7326POPC   PO451996  34.528  16.689   5.850
 7326POPC   GL151997  34.586  16.776   6.150
 7326POPC   GL251998  34.723  16.754   6.150
 7326POPC   C1A51999  34.617  16.774   6.450
 7326POPC   D2A52000  34.621  16.736   6.750
 7326POPC   C3A52001  34.526  16.767   7.050
 7326POPC   C4A52002  34.605  16.736   7.350
 7326POPC   C1B52003  34.804  16.873   6.450
 7326POPC   C2B52004  34.758  16.833   6.750
 7326POPC   C3B52005  34.780  16.884   7.050
 7326POPC   C4B52006  34.813  16.867   7.350
 7327POPC   NC352007   4.313  30.737   5.550
 7327POPC   PO452008   4.330  30.728   5.850
 7327POPC   GL152009   4.290  30.738   6.150
 7327POPC   GL252010   4.379  30.805   6.150
 7327POPC   C1A52011   4.340  30.683   6.450
 7327POPC   D2A52012   4.300  30.744   6.750
 7327POPC   C3A52013   4.332  30.690   7.050
 7327POPC   C4A52014   4.295  30.691   7.350
 7327POPC   C1B52015   4.436  30.913   6.450
 7327POPC   C2B52016   4.527  30.863   6.750
 7327POPC   C3B52017   4.503  30.900   7.050
 7327POPC   C4B52018   4.527  30.926   7.350
 7328POPC   NC352019  43.892  12.870   5.550
 7328POPC   PO452020  43.936  12.834   5.850
 7328POPC   GL152021  43.907  12.817   6.150
 7328POPC   GL252022  43.923  12.681   6.150
 7328POPC   C1A52023  43.842  12.877   6.450
 7328POPC   D2A52024  43.847  12.873   6.750
 7328POPC   C3A52025  43.887  12.875   7.050
 7328POPC   C4A52026  43.889  12.877   7.350
 7328POPC   C1B52027  43.923  12.559   6.450
 7328POPC   C2B52028  43.905  12.636   6.750
 7328POPC   C3B52029  43.887  12.596   7.050
 7328POPC   C4B52030  43.884  12.639   7.350
 7329POPC   NC352031   9.762  15.175   5.550
 7329POPC   PO452032   9.724  15.202   5.850
 7329POPC   GL152033   9.750  15.194   6.150
 7329POPC   GL252034   9.628  15.138   6.150
 7329POPC   C1A52035   9.745  15.177   6.450
 7329POPC   D2A52036   9.748  15.201   6.750
 7329POPC   C3A52037   9.718  15.205   7.050
 7329POPC   C4A52038   9.764  15.130   7.350
 7329POPC   C1B52039   9.484  15.176   6.450
 7329POPC   C2B52040   9.505  15.195   6.750
 7329POPC   C3B52041   9.449  15.195   7.050
 7329POPC   C4B52042   9.532  15.215   7.350
 7330POPC   NC352043  39.261  31.500   5.550
 7330POPC   PO452044  39.275  31.474   5.850
 7330POPC   GL152045  39.183  31.455   6.150
 7330POPC   GL252046  39.165  31.526   6.150
 7330POPC   C1A52047  39.232  31.514   6.450
 7330POPC   D2A52048  39.183  31.509   6.750
 7330POPC   C3A52049  39.242  31.423   7.050
 7330POPC   C4A52050  39.223  31.425   7.350
 7330POPC   C1B52051  38.997  31.538   6.450
 7330POPC   C2B52052  38.958  31.609   6.750
 7330POPC   C3B52053  39.054  31.570   7.050
 7330POPC   C4B52054  39.049  31.548   7.350
 7331POPC   NC352055   2.798  36.947   5.550
 7331POPC   PO452056   2.756  36.869   5.850
 7331POPC   GL152057   2.744  36.861   6.150
 7331POPC   GL252058   2.666  36.979   6.150
 7331POPC   C1A52059   2.784  36.937   6.450
 7331POPC   D2A52060   2.776  36.903   6.750
 7331POPC   C3A52061   2.758  36.857   7.050
 7331POPC   C4A52062   2.797  36.888   7.350
 7331POPC   C1B52063   2.604  37.076   6.450
 7331POPC   C2B52064   2.568  37.118   6.750
 7331POPC   C3B52065   2.594  37.051   7.050
 7331POPC   C4B52066   2.639  37.085   7.350
 7332POPC   NC352067  44.693  28.381   5.550
 7332POPC   PO452068  44.654  28.329   5.850
 7332POPC   GL152069  44.694  28.362   6.150
 7332POPC   GL252070  44.673  28.284   6.150
 7332POPC   C1A52071  44.690  28.379   6.450
 7332POPC   D2A52072  44.660  28.352   6.750
 7332POPC   C3A52073  44.614  28.327   7.050
 7332POPC   C4A52074  44.665  28.387   7.350
 7332POPC   C1B52075  44.692  28.084   6.450
 7332POPC   C2B52076  44.703  28.146   6.750
 7332POPC   C3B52077  44.771  28.135   7.050
 7332POPC   C4B52078  44.721  28.094   7.350
 7333POPC   NC352079   8.972  43.064   5.550
 7333POPC   PO452080   8.995  43.119   5.850
 7333POPC   GL152081   8.973  43.138   6.150
 7333POPC   GL252082   9.116  43.034   6.150
 7333POPC   C1A52083   9.019  43.146   6.450
 7333POPC   D2A52084   9.020  43.153   6.750
 7333POPC   C3A52085   8.951  43.086   7.050
 7333POPC   C4A52086   8.956  43.101   7.350
 7333POPC   C1B52087   9.143  43.001   6.450
 7333POPC   C2B52088   9.189  43.005   6.750
 7333POPC   C3B52089   9.140  42.970   7.050
 7333POPC   C4B52090   9.182  42.997   7.350
 7334POPC   NC352091  43.073  21.396   5.550
 7334POPC   PO452092  43.098  21.406   5.850
 7334POPC   GL152093  43.121  21.340   6.150
 7334POPC   GL252094  43.169  21.445   6.150
 7334POPC   C1A52095  43.136  21.376   6.450
 7334POPC   D2A52096  43.159  21.347   6.750
 7334POPC   C3A52097  43.126  21.393   7.050
 7334POPC   C4A52098  43.075  21.382   7.350
 7334POPC   C1B52099  43.283  21.509   6.450
 7334POPC   C2B52100  43.326  21.538   6.750
 7334POPC   C3B52101  43.298  21.520   7.050
 7334POPC   C4B52102  43.335  21.496   7.350
 7335POPC   NC352103  17.522  11.269   5.550
 7335POPC   PO452104  17.550  11.345   5.850
 7335POPC   GL152105  17.458  11.347   6.150
 7335POPC   GL252106  17.476  11.460   6.150
 7335POPC   C1A52107  17.464  11.331   6.450
 7335POPC   D2A52108  17.543  11.304   6.750
 7335POPC   C3A52109  17.459  11.336   7.050
 7335POPC   C4A52110  17.505  11.326   7.350
 7335POPC   C1B52111  17.474  11.517   6.450
 7335POPC   C2B52112  17.394  11.579   6.750
 7335POPC   C3B52113  17.449  11.518   7.050
 7335POPC   C4B52114  17.414  11.588   7.350
 7336POPC   NC352115  34.530  24.500   5.550
 7336POPC   PO452116  34.568  24.451   5.850
 7336POPC   GL152117  34.531  24.454   6.150
 7336POPC   GL252118  34.636  24.524   6.150
 7336POPC   C1A52119  34.574  24.487   6.450
 7336POPC   D2A52120  34.618  24.535   6.750
 7336POPC   C3A52121  34.601  24.474   7.050
 7336POPC   C4A52122  34.591  24.461   7.350
 7336POPC   C1B52123  34.835  24.659   6.450
 7336POPC   C2B52124  34.779  24.623   6.750
 7336POPC   C3B52125  34.828  24.656   7.050
 7336POPC   C4B52126  34.799  24.618   7.350
 7337POPC   NC352127  36.902  39.214   5.550
 7337POPC   PO452128  36.934  39.251   5.850
 7337POPC   GL152129  36.950  39.237   6.150
 7337POPC   GL252130  36.961  39.279   6.150
 7337POPC   C1A52131  36.911  39.206   6.450
 7337POPC   D2A52132  36.906  39.265   6.750
 7337POPC   C3A52133  36.902  39.277   7.050
 7337POPC   C4A52134  36.865  39.272   7.350
 7337POPC   C1B52135  37.097  39.444   6.450
 7337POPC   C2B52136  37.074  39.455   6.750
 7337POPC   C3B52137  37.041  39.422   7.050
 7337POPC   C4B52138  37.029  39.373   7.350
 7338POPC   NC352139  39.995  19.877   5.550
 7338POPC   PO452140  39.980  19.878   5.850
 7338POPC   GL152141  39.978  19.876   6.150
 7338POPC   GL252142  39.932  19.744   6.150
 7338POPC   C1A52143  40.035  19.808   6.450
 7338POPC   D2A52144  39.998  19.877   6.750
 7338POPC   C3A52145  40.020  19.805   7.050
 7338POPC   C4A52146  39.971  19.849   7.350
 7338POPC   C1B52147  39.804  19.742   6.450
 7338POPC   C2B52148  39.802  19.728   6.750
 7338POPC   C3B52149  39.766  19.697   7.050
 7338POPC   C4B52150  39.767  19.673   7.350
 7339POPC   NC352151  10.527  29.925   5.550
 7339POPC   PO452152  10.529  29.881   5.850
 7339POPC   GL152153  10.478  29.900   6.150
 7339POPC   GL252154  10.564  30.043   6.150
 7339POPC   C1A52155  10.554  29.900   6.450
 7339POPC   D2A52156  10.551  29.954   6.750
 7339POPC   C3A52157  10.477  29.968   7.050
 7339POPC   C4A52158  10.549  29.916   7.350
 7339POPC   C1B52159  10.575  30.140   6.450
 7339POPC   C2B52160  10.595  30.139   6.750
 7339POPC   C3B52161  10.561  30.192   7.050
 7339POPC   C4B52162  10.522  30.145   7.350
 7340POPC   NC352163  41.558  13.638   5.550
 7340POPC   PO452164  41.542  13.616   5.850
 7340POPC   GL152165  41.569  13.677   6.150
 7340POPC   GL252166  41.490  13.747   6.150
 7340POPC   C1A52167  41.526  13.603   6.450
 7340POPC   D2A52168  41.548  13.649   6.750
 7340POPC   C3A52169  41.566  13.591   7.050
 7340POPC   C4A52170  41.529  13.638   7.350
 7340POPC   C1B52171  41.424  13.848   6.450
 7340POPC   C2B52172  41.394  13.825   6.750
 7340POPC   C3B52173  41.408  13.834   7.050
 7340POPC   C4B52174  41.437  13.830   7.350
 7341POPC   NC352175   5.107  37.701   5.550
 7341POPC   PO452176   5.116  37.660   5.850
 7341POPC   GL152177   5.084  37.710   6.150
 7341POPC   GL252178   4.938  37.710   6.150
 7341POPC   C1A52179   5.087  37.657   6.450
 7341POPC   D2A52180   5.090  37.682   6.750
 7341POPC   C3A52181   5.101  37.658   7.050
 7341POPC   C4A52182   5.138  37.683   7.350
 7341POPC   C1B52183   4.824  37.731   6.450
 7341POPC   C2B52184   4.851  37.663   6.750
 7341POPC   C3B52185   4.833  37.697   7.050
 7341POPC   C4B52186   4.816  37.709   7.350
 7342POPC   NC352187  19.065  43.121   5.550
 7342POPC   PO452188  19.025  43.153   5.850
 7342POPC   GL152189  19.009  43.141   6.150
 7342POPC   GL252190  18.997  43.065   6.150
 7342POPC   C1A52191  19.011  43.108   6.450
 7342POPC   D2A52192  19.097  43.124   6.750
 7342POPC   C3A52193  19.086  43.153   7.050
 7342POPC   C4A52194  19.025  43.140   7.350
 7342POPC   C1B52195  18.860  42.969   6.450
 7342POPC   C2B52196  18.881  42.967   6.750
 7342POPC   C3B52197  18.859  42.958   7.050
 7342POPC   C4B52198  18.838  42.996   7.350
 7343POPC   NC352199  24.498  25.261   5.550
 7343POPC   PO452200  24.448  25.272   5.850
 7343POPC   GL152201  24.467  25.274   6.150
 7343POPC   GL252202  24.611  25.334   6.150
 7343POPC   C1A52203  24.451  25.251   6.450
 7343POPC   D2A52204  24.487  25.305   6.750
 7343POPC   C3A52205  24.461  25.261   7.050
 7343POPC   C4A52206  24.512  25.232   7.350
 7343POPC   C1B52207  24.730  25.366   6.450
 7343POPC   C2B52208  24.735  25.357   6.750
 7343POPC   C3B52209  24.714  25.308   7.050
 7343POPC   C4B52210  24.744  25.272   7.350
 7344POPC   NC352211  33.821  43.930   5.550
 7344POPC   PO452212  33.768  43.859   5.850
 7344POPC   GL152213  33.784  43.923   6.150
 7344POPC   GL252214  33.878  43.966   6.150
 7344POPC   C1A52215  33.803  43.868   6.450
 7344POPC   D2A52216  33.795  43.913   6.750
 7344POPC   C3A52217  33.814  43.919   7.050
 7344POPC   C4A52218  33.799  43.889   7.350
 7344POPC   C1B52219  33.960  44.074   6.450
 7344POPC   C2B52220  33.873  44.061   6.750
 7344POPC   C3B52221  33.944  44.074   7.050
 7344POPC   C4B52222  33.915  44.115   7.350
 7345POPC   NC352223   8.987  22.969   5.550
 7345POPC   PO452224   8.929  22.899   5.850
 7345POPC   GL152225   8.984  22.966   6.150
 7345POPC   GL252226   9.113  22.838   6.150
 7345POPC   C1A52227   8.941  22.931   6.450
 7345POPC   D2A52228   8.989  22.926   6.750
 7345POPC   C3A52229   8.964  22.949   7.050
 7345POPC   C4A52230   9.019  22.943   7.350
 7345POPC   C1B52231   9.210  22.864   6.450
 7345POPC   C2B52232   9.189  22.873   6.750
 7345POPC   C3B52233   9.218  22.802   7.050
 7345POPC   C4B52234   9.203  22.883   7.350
 7346POPC   NC352235  26.064  15.131   5.550
 7346POPC   PO452236  26.057  15.165   5.850
 7346POPC   GL152237  26.028  15.156   6.150
 7346POPC   GL252238  25.943  15.182   6.150
 7346POPC   C1A52239  26.074  15.142   6.450
 7346POPC   D2A52240  26.066  15.174   6.750
 7346POPC   C3A52241  26.038  15.212   7.050
 7346POPC   C4A52242  26.080  15.182   7.350
 7346POPC   C1B52243  25.835  15.221   6.450
 7346POPC   C2B52244  25.837  15.181   6.750
 7346POPC   C3B52245  25.806  15.194   7.050
 7346POPC   C4B52246  25.817  15.227   7.350
 7347POPC   NC352247   4.326  10.524   5.550
 7347POPC   PO452248   4.301  10.490   5.850
 7347POPC   GL152249   4.321  10.491   6.150
 7347POPC   GL252250   4.470  10.503   6.150
 7347POPC   C1A52251   4.365  10.572   6.450
 7347POPC   D2A52252   4.318  10.501   6.750
 7347POPC   C3A52253   4.324  10.547   7.050
 7347POPC   C4A52254   4.339  10.570   7.350
 7347POPC   C1B52255   4.554  10.468   6.450
 7347POPC   C2B52256   4.580  10.491   6.750
 7347POPC   C3B52257   4.529  10.506   7.050
 7347POPC   C4B52258   4.584  10.536   7.350
 7348POPC   NC352259  33.805   6.647   5.550
 7348POPC   PO452260  33.770   6.603   5.850
 7348POPC   GL152261  33.783   6.596   6.150
 7348POPC   GL252262  33.923   6.552   6.150
 7348POPC   C1A52263  33.794   6.664   6.450
 7348POPC   D2A52264  33.752   6.620   6.750
 7348POPC   C3A52265  33.769   6.621   7.050
 7348POPC   C4A52266  33.765   6.657   7.350
 7348POPC   C1B52267  33.982   6.568   6.450
 7348POPC   C2B52268  34.009   6.562   6.750
 7348POPC   C3B52269  34.075   6.550   7.050
 7348POPC   C4B52270  34.036   6.533   7.350
 7349POPC   NC352271   5.869  15.187   5.550
 7349POPC   PO452272   5.868  15.223   5.850
 7349POPC   GL152273   5.846  15.130   6.150
 7349POPC   GL252274   5.877  15.312   6.150
 7349POPC   C1A52275   5.868  15.174   6.450
 7349POPC   D2A52276   5.880  15.163   6.750
 7349POPC   C3A52277   5.882  15.225   7.050
 7349POPC   C4A52278   5.888  15.186   7.350
 7349POPC   C1B52279   5.841  15.471   6.450
 7349POPC   C2B52280   5.907  15.384   6.750
 7349POPC   C3B52281   5.851  15.460   7.050
 7349POPC   C4B52282   5.909  15.397   7.350
 7350POPC   NC352283  15.144  28.350   5.550
 7350POPC   PO452284  15.183  28.333   5.850
 7350POPC   GL152285  15.209  28.342   6.150
 7350POPC   GL252286  15.039  28.316   6.150
 7350POPC   C1A52287  15.164  28.414   6.450
 7350POPC   D2A52288  15.189  28.367   6.750
 7350POPC   C3A52289  15.154  28.339   7.050
 7350POPC   C4A52290  15.196  28.408   7.350
 7350POPC   C1B52291  14.944  28.373   6.450
 7350POPC   C2B52292  14.889  28.333   6.750
 7350POPC   C3B52293  14.962  28.309   7.050
 7350POPC   C4B52294  14.942  28.377   7.350
 7351POPC   NC352295  37.637  12.104   5.550
 7351POPC   PO452296  37.653  12.066   5.850
 7351POPC   GL152297  37.649  12.077   6.150
 7351POPC   GL252298  37.716  11.985   6.150
 7351POPC   C1A52299  37.711  12.091   6.450
 7351POPC   D2A52300  37.672  12.081   6.750
 7351POPC   C3A52301  37.632  12.100   7.050
 7351POPC   C4A52302  37.699  12.039   7.350
 7351POPC   C1B52303  37.738  11.789   6.450
 7351POPC   C2B52304  37.743  11.813   6.750
 7351POPC   C3B52305  37.800  11.800   7.050
 7351POPC   C4B52306  37.776  11.811   7.350
 7352POPC   NC352307  17.529   5.072   5.550
 7352POPC   PO452308  17.555   5.137   5.850
 7352POPC   GL152309  17.513   5.051   6.150
 7352POPC   GL252310  17.598   5.184   6.150
 7352POPC   C1A52311  17.476   5.049   6.450
 7352POPC   D2A52312  17.499   5.141   6.750
 7352POPC   C3A52313  17.515   5.083   7.050
 7352POPC   C4A52314  17.473   5.106   7.350
 7352POPC   C1B52315  17.686   5.252   6.450
 7352POPC   C2B52316  17.691   5.244   6.750
 7352POPC   C3B52317  17.721   5.247   7.050
 7352POPC   C4B52318  17.708   5.194   7.350
 7353POPC   NC352319  12.849  28.385   5.550
 7353POPC   PO452320  12.894  28.403   5.850
 7353POPC   GL152321  12.807  28.400   6.150
 7353POPC   GL252322  12.957  28.447   6.150
 7353POPC   C1A52323  12.893  28.352   6.450
 7353POPC   D2A52324  12.845  28.327   6.750
 7353POPC   C3A52325  12.828  28.323   7.050
 7353POPC   C4A52326  12.831  28.374   7.350
 7353POPC   C1B52327  12.997  28.553   6.450
 7353POPC   C2B52328  13.028  28.561   6.750
 7353POPC   C3B52329  13.033  28.576   7.050
 7353POPC   C4B52330  12.949  28.616   7.350
 7354POPC   NC352331  40.734  15.175   5.550
 7354POPC   PO452332  40.760  15.198   5.850
 7354POPC   GL152333  40.755  15.162   6.150
 7354POPC   GL252334  40.796  15.016   6.150
 7354POPC   C1A52335  40.784  15.137   6.450
 7354POPC   D2A52336  40.832  15.216   6.750
 7354POPC   C3A52337  40.773  15.180   7.050
 7354POPC   C4A52338  40.824  15.195   7.350
 7354POPC   C1B52339  40.837  14.888   6.450
 7354POPC   C2B52340  40.792  14.919   6.750
 7354POPC   C3B52341  40.823  14.929   7.050
 7354POPC   C4B52342  40.804  14.925   7.350
 7355POPC   NC352343  30.705  25.221   5.550
 7355POPC   PO452344  30.724  25.311   5.850
 7355POPC   GL152345  30.667  25.282   6.150
 7355POPC   GL252346  30.683  25.372   6.150
 7355POPC   C1A52347  30.719  25.282   6.450
 7355POPC   D2A52348  30.698  25.278   6.750
 7355POPC   C3A52349  30.714  25.273   7.050
 7355POPC   C4A52350  30.697  25.217   7.350
 7355POPC   C1B52351  30.757  25.527   6.450
 7355POPC   C2B52352  30.763  25.513   6.750
 7355POPC   C3B52353  30.762  25.525   7.050
 7355POPC   C4B52354  30.792  25.542   7.350
 7356POPC   NC352355  23.674  15.172   5.550
 7356POPC   PO452356  23.712  15.132   5.850
 7356POPC   GL152357  23.732  15.214   6.150
 7356POPC   GL252358  23.592  15.162   6.150
 7356POPC   C1A52359  23.731  15.215   6.450
 7356POPC   D2A52360  23.755  15.191   6.750
 7356POPC   C3A52361  23.731  15.192   7.050
 7356POPC   C4A52362  23.756  15.175   7.350
 7356POPC   C1B52363  23.494  15.228   6.450
 7356POPC   C2B52364  23.439  15.211   6.750
 7356POPC   C3B52365  23.449  15.238   7.050
 7356POPC   C4B52366  23.449  15.235   7.350
 7357POPC   NC352367  15.224   6.637   5.550
 7357POPC   PO452368  15.152   6.639   5.850
 7357POPC   GL152369  15.196   6.689   6.150
 7357POPC   GL252370  15.140   6.766   6.150
 7357POPC   C1A52371  15.221   6.600   6.450
 7357POPC   D2A52372  15.211   6.617   6.750
 7357POPC   C3A52373  15.153   6.645   7.050
 7357POPC   C4A52374  15.138   6.669   7.350
 7357POPC   C1B52375  15.083   6.924   6.450
 7357POPC   C2B52376  15.088   6.825   6.750
 7357POPC   C3B52377  15.113   6.871   7.050
 7357POPC   C4B52378  15.091   6.923   7.350
 7358POPC   NC352379  28.363  40.820   5.550
 7358POPC   PO452380  28.356  40.795   5.850
 7358POPC   GL152381  28.353  40.781   6.150
 7358POPC   GL252382  28.396  40.947   6.150
 7358POPC   C1A52383  28.379  40.801   6.450
 7358POPC   D2A52384  28.409  40.792   6.750
 7358POPC   C3A52385  28.362  40.765   7.050
 7358POPC   C4A52386  28.322  40.737   7.350
 7358POPC   C1B52387  28.399  41.004   6.450
 7358POPC   C2B52388  28.467  41.050   6.750
 7358POPC   C3B52389  28.391  41.024   7.050
 7358POPC   C4B52390  28.424  41.031   7.350
 7359POPC   NC352391  15.944  17.502   5.550
 7359POPC   PO452392  15.980  17.458   5.850
 7359POPC   GL152393  15.921  17.478   6.150
 7359POPC   GL252394  15.793  17.592   6.150
 7359POPC   C1A52395  15.983  17.519   6.450
 7359POPC   D2A52396  15.979  17.462   6.750
 7359POPC   C3A52397  16.004  17.515   7.050
 7359POPC   C4A52398  15.986  17.545   7.350
 7359POPC   C1B52399  15.738  17.606   6.450
 7359POPC   C2B52400  15.739  17.647   6.750
 7359POPC   C3B52401  15.685  17.606   7.050
 7359POPC   C4B52402  15.686  17.637   7.350
 7360POPC   NC352403   8.173  12.891   5.550
 7360POPC   PO452404   8.199  12.875   5.850
 7360POPC   GL152405   8.152  12.863   6.150
 7360POPC   GL252406   8.285  12.723   6.150
 7360POPC   C1A52407   8.180  12.883   6.450
 7360POPC   D2A52408   8.206  12.900   6.750
 7360POPC   C3A52409   8.207  12.895   7.050
 7360POPC   C4A52410   8.244  12.876   7.350
 7360POPC   C1B52411   8.350  12.688   6.450
 7360POPC   C2B52412   8.376  12.625   6.750
 7360POPC   C3B52413   8.310  12.675   7.050
 7360POPC   C4B52414   8.348  12.622   7.350
 7361POPC   NC352415  40.021   8.966   5.550
 7361POPC   PO452416  39.979   8.960   5.850
 7361POPC   GL152417  40.052   9.009   6.150
 7361POPC   GL252418  40.146   8.946   6.150
 7361POPC   C1A52419  39.980   8.967   6.450
 7361POPC   D2A52420  39.994   8.950   6.750
 7361POPC   C3A52421  39.989   8.988   7.050
 7361POPC   C4A52422  40.004   8.956   7.350
 7361POPC   C1B52423  40.215   8.811   6.450
 7361POPC   C2B52424  40.187   8.792   6.750
 7361POPC   C3B52425  40.236   8.834   7.050
 7361POPC   C4B52426  40.176   8.846   7.350
 7362POPC   NC352427  18.253  19.011   5.550
 7362POPC   PO452428  18.286  19.105   5.850
 7362POPC   GL152429  18.333  19.021   6.150
 7362POPC   GL252430  18.129  19.044   6.150
 7362POPC   C1A52431  18.252  19.040   6.450
 7362POPC   D2A52432  18.266  19.083   6.750
 7362POPC   C3A52433  18.285  19.051   7.050
 7362POPC   C4A52434  18.262  19.098   7.350
 7362POPC   C1B52435  18.030  19.056   6.450
 7362POPC   C2B52436  18.008  19.077   6.750
 7362POPC   C3B52437  18.013  19.041   7.050
 7362POPC   C4B52438  18.048  19.011   7.350
 7363POPC   NC352439   5.073   7.384   5.550
 7363POPC   PO452440   5.051   7.439   5.850
 7363POPC   GL152441   5.107   7.437   6.150
 7363POPC   GL252442   4.953   7.426   6.150
 7363POPC   C1A52443   5.140   7.436   6.450
 7363POPC   D2A52444   5.136   7.458   6.750
 7363POPC   C3A52445   5.064   7.391   7.050
 7363POPC   C4A52446   5.046   7.455   7.350
 7363POPC   C1B52447   4.883   7.340   6.450
 7363POPC   C2B52448   4.881   7.315   6.750
 7363POPC   C3B52449   4.872   7.284   7.050
 7363POPC   C4B52450   4.811   7.316   7.350
 7364POPC   NC352451   3.515  19.859   5.550
 7364POPC   PO452452   3.495  19.868   5.850
 7364POPC   GL152453   3.519  19.844   6.150
 7364POPC   GL252454   3.505  19.680   6.150
 7364POPC   C1A52455   3.557  19.879   6.450
 7364POPC   D2A52456   3.530  19.823   6.750
 7364POPC   C3A52457   3.571  19.792   7.050
 7364POPC   C4A52458   3.570  19.817   7.350
 7364POPC   C1B52459   3.439  19.614   6.450
 7364POPC   C2B52460   3.415  19.646   6.750
 7364POPC   C3B52461   3.403  19.655   7.050
 7364POPC   C4B52462   3.417  19.646   7.350
 7365POPC   NC352463   7.435   6.649   5.550
 7365POPC   PO452464   7.424   6.618   5.850
 7365POPC   GL152465   7.441   6.671   6.150
 7365POPC   GL252466   7.253   6.679   6.150
 7365POPC   C1A52467   7.410   6.614   6.450
 7365POPC   D2A52468   7.413   6.604   6.750
 7365POPC   C3A52469   7.467   6.694   7.050
 7365POPC   C4A52470   7.420   6.693   7.350
 7365POPC   C1B52471   7.130   6.687   6.450
 7365POPC   C2B52472   7.145   6.683   6.750
 7365POPC   C3B52473   7.128   6.722   7.050
 7365POPC   C4B52474   7.184   6.713   7.350
 7366POPC   NC352475   2.030  43.874   5.550
 7366POPC   PO452476   2.033  43.878   5.850
 7366POPC   GL152477   1.989  43.877   6.150
 7366POPC   GL252478   2.092  43.857   6.150
 7366POPC   C1A52479   2.003  43.910   6.450
 7366POPC   D2A52480   2.014  43.893   6.750
 7366POPC   C3A52481   1.941  43.845   7.050
 7366POPC   C4A52482   1.945  43.859   7.350
 7366POPC   C1B52483   2.267  43.954   6.450
 7366POPC   C2B52484   2.249  43.870   6.750
 7366POPC   C3B52485   2.268  43.964   7.050
 7366POPC   C4B52486   2.261  43.961   7.350
 7367POPC   NC352487  41.571  39.972   5.550
 7367POPC   PO452488  41.535  40.034   5.850
 7367POPC   GL152489  41.513  40.015   6.150
 7367POPC   GL252490  41.478  40.039   6.150
 7367POPC   C1A52491  41.531  40.014   6.450
 7367POPC   D2A52492  41.522  39.985   6.750
 7367POPC   C3A52493  41.511  39.986   7.050
 7367POPC   C4A52494  41.534  40.039   7.350
 7367POPC   C1B52495  41.309  39.957   6.450
 7367POPC   C2B52496  41.298  39.998   6.750
 7367POPC   C3B52497  41.344  40.041   7.050
 7367POPC   C4B52498  41.279  40.003   7.350
 7368POPC   NC352499  10.529  43.139   5.550
 7368POPC   PO452500  10.541  43.100   5.850
 7368POPC   GL152501  10.477  43.109   6.150
 7368POPC   GL252502  10.588  42.950   6.150
 7368POPC   C1A52503  10.512  43.116   6.450
 7368POPC   D2A52504  10.510  43.126   6.750
 7368POPC   C3A52505  10.513  43.102   7.050
 7368POPC   C4A52506  10.562  43.140   7.350
 7368POPC   C1B52507  10.594  42.869   6.450
 7368POPC   C2B52508  10.568  42.850   6.750
 7368POPC   C3B52509  10.644  42.868   7.050
 7368POPC   C4B52510  10.574  42.882   7.350
 7369POPC   NC352511  25.312  39.197   5.550
 7369POPC   PO452512  25.294  39.197   5.850
 7369POPC   GL152513  25.303  39.210   6.150
 7369POPC   GL252514  25.195  39.110   6.150
 7369POPC   C1A52515  25.223  39.260   6.450
 7369POPC   D2A52516  25.309  39.263   6.750
 7369POPC   C3A52517  25.219  39.268   7.050
 7369POPC   C4A52518  25.315  39.259   7.350
 7369POPC   C1B52519  25.104  39.027   6.450
 7369POPC   C2B52520  25.082  39.025   6.750
 7369POPC   C3B52521  25.098  39.068   7.050
 7369POPC   C4B52522  25.114  38.993   7.350
 7370POPC   NC352523  41.516   5.107   5.550
 7370POPC   PO452524  41.530   5.131   5.850
 7370POPC   GL152525  41.576   5.058   6.150
 7370POPC   GL252526  41.464   5.173   6.150
 7370POPC   C1A52527  41.603   5.055   6.450
 7370POPC   D2A52528  41.543   5.112   6.750
 7370POPC   C3A52529  41.607   5.095   7.050
 7370POPC   C4A52530  41.573   5.066   7.350
 7370POPC   C1B52531  41.481   5.290   6.450
 7370POPC   C2B52532  41.452   5.314   6.750
 7370POPC   C3B52533  41.422   5.297   7.050
 7370POPC   C4B52534  41.473   5.364   7.350
 7371POPC   NC352535  23.679  22.951   5.550
 7371POPC   PO452536  23.715  22.889   5.850
 7371POPC   GL152537  23.724  22.939   6.150
 7371POPC   GL252538  23.604  22.911   6.150
 7371POPC   C1A52539  23.677  22.927   6.450
 7371POPC   D2A52540  23.759  22.958   6.750
 7371POPC   C3A52541  23.682  22.914   7.050
 7371POPC   C4A52542  23.736  22.895   7.350
 7371POPC   C1B52543  23.479  22.928   6.450
 7371POPC   C2B52544  23.421  22.996   6.750
 7371POPC   C3B52545  23.483  22.956   7.050
 7371POPC   C4B52546  23.423  22.980   7.350
 7372POPC   NC352547  30.696  22.164   5.550
 7372POPC   PO452548  30.647  22.141   5.850
 7372POPC   GL152549  30.712  22.141   6.150
 7372POPC   GL252550  30.805  22.161   6.150
 7372POPC   C1A52551  30.717  22.199   6.450
 7372POPC   D2A52552  30.709  22.162   6.750
 7372POPC   C3A52553  30.655  22.129   7.050
 7372POPC   C4A52554  30.652  22.202   7.350
 7372POPC   C1B52555  30.926  22.238   6.450
 7372POPC   C2B52556  30.906  22.267   6.750
 7372POPC   C3B52557  30.965  22.298   7.050
 7372POPC   C4B52558  30.935  22.247   7.350
 7373POPC   NC352559  36.898  15.952   5.550
 7373POPC   PO452560  36.886  15.978   5.850
 7373POPC   GL152561  36.862  15.982   6.150
 7373POPC   GL252562  36.930  16.036   6.150
 7373POPC   C1A52563  36.913  15.920   6.450
 7373POPC   D2A52564  36.906  15.968   6.750
 7373POPC   C3A52565  36.869  15.965   7.050
 7373POPC   C4A52566  36.943  15.985   7.350
 7373POPC   C1B52567  37.037  16.211   6.450
 7373POPC   C2B52568  36.993  16.192   6.750
 7373POPC   C3B52569  37.006  16.215   7.050
 7373POPC   C4B52570  37.023  16.169   7.350
 7374POPC   NC352571  32.209  35.333   5.550
 7374POPC   PO452572  32.283  35.366   5.850
 7374POPC   GL152573  32.232  35.304   6.150
 7374POPC   GL252574  32.287  35.399   6.150
 7374POPC   C1A52575  32.259  35.308   6.450
 7374POPC   D2A52576  32.257  35.388   6.750
 7374POPC   C3A52577  32.221  35.303   7.050
 7374POPC   C4A52578  32.297  35.373   7.350
 7374POPC   C1B52579  32.394  35.510   6.450
 7374POPC   C2B52580  32.428  35.536   6.750
 7374POPC   C3B52581  32.430  35.542   7.050
 7374POPC   C4B52582  32.422  35.480   7.350
 7375POPC   NC352583  42.350   2.815   5.550
 7375POPC   PO452584  42.368   2.750   5.850
 7375POPC   GL152585  42.354   2.750   6.150
 7375POPC   GL252586  42.167   2.750   6.150
 7375POPC   C1A52587  42.345   2.758   6.450
 7375POPC   D2A52588  42.308   2.790   6.750
 7375POPC   C3A52589  42.303   2.753   7.050
 7375POPC   C4A52590  42.366   2.809   7.350
 7375POPC   C1B52591  42.081   2.720   6.450
 7375POPC   C2B52592  42.049   2.738   6.750
 7375POPC   C3B52593  42.069   2.783   7.050
 7375POPC   C4B52594  42.108   2.808   7.350
 7376POPC   NC352595  43.889   9.769   5.550
 7376POPC   PO452596  43.839   9.729   5.850
 7376POPC   GL152597  43.895   9.727   6.150
 7376POPC   GL252598  43.982   9.746   6.150
 7376POPC   C1A52599  43.890   9.726   6.450
 7376POPC   D2A52600  43.854   9.778   6.750
 7376POPC   C3A52601  43.867   9.726   7.050
 7376POPC   C4A52602  43.860   9.711   7.350
 7376POPC   C1B52603  44.073   9.606   6.450
 7376POPC   C2B52604  44.098   9.686   6.750
 7376POPC   C3B52605  44.145   9.620   7.050
 7376POPC   C4B52606  44.133   9.642   7.350
 7377POPC   NC352607  23.738  12.027   5.550
 7377POPC   PO452608  23.677  12.030   5.850
 7377POPC   GL152609  23.705  12.068   6.150
 7377POPC   GL252610  23.818  12.125   6.150
 7377POPC   C1A52611  23.667  12.047   6.450
 7377POPC   D2A52612  23.707  12.076   6.750
 7377POPC   C3A52613  23.750  12.035   7.050
 7377POPC   C4A52614  23.687  12.105   7.350
 7377POPC   C1B52615  23.948  12.169   6.450
 7377POPC   C2B52616  23.912  12.101   6.750
 7377POPC   C3B52617  23.980  12.156   7.050
 7377POPC   C4B52618  23.949  12.174   7.350
 7378POPC   NC352619   2.731   0.442   5.550
 7378POPC   PO452620   2.756   0.468   5.850
 7378POPC   GL152621   2.759   0.454   6.150
 7378POPC   GL252622   2.672   0.399   6.150
 7378POPC   C1A52623   2.734   0.467   6.450
 7378POPC   D2A52624   2.723   0.452   6.750
 7378POPC   C3A52625   2.787   0.396   7.050
 7378POPC   C4A52626   2.792   0.409   7.350
 7378POPC   C1B52627   2.534   0.286   6.450
 7378POPC   C2B52628   2.596   0.311   6.750
 7378POPC   C3B52629   2.555   0.246   7.050
 7378POPC   C4B52630   2.591   0.277   7.350
 7379POPC   NC352631   8.240  23.688   5.550
 7379POPC   PO452632   8.165  23.719   5.850
 7379POPC   GL152633   8.198  23.681   6.150
 7379POPC   GL252634   8.132  23.659   6.150
 7379POPC   C1A52635   8.233  23.732   6.450
 7379POPC   D2A52636   8.156  23.763   6.750
 7379POPC   C3A52637   8.231  23.666   7.050
 7379POPC   C4A52638   8.193  23.669   7.350
 7379POPC   C1B52639   8.012  23.531   6.450
 7379POPC   C2B52640   8.010  23.479   6.750
 7379POPC   C3B52641   8.035  23.507   7.050
 7379POPC   C4B52642   8.031  23.497   7.350
 7380POPC   NC352643   7.466  15.157   5.550
 7380POPC   PO452644   7.431  15.151   5.850
 7380POPC   GL152645   7.453  15.171   6.150
 7380POPC   GL252646   7.562  15.087   6.150
 7380POPC   C1A52647   7.418  15.176   6.450
 7380POPC   D2A52648   7.423  15.219   6.750
 7380POPC   C3A52649   7.407  15.222   7.050
 7380POPC   C4A52650   7.443  15.192   7.350
 7380POPC   C1B52651   7.660  15.024   6.450
 7380POPC   C2B52652   7.632  15.073   6.750
 7380POPC   C3B52653   7.608  15.064   7.050
 7380POPC   C4B52654   7.677  15.053   7.350
 7381POPC   NC352655  13.647   1.217   5.550
 7381POPC   PO452656  13.580   1.171   5.850
 7381POPC   GL152657  13.670   1.214   6.150
 7381POPC   GL252658  13.613   1.324   6.150
 7381POPC   C1A52659  13.673   1.194   6.450
 7381POPC   D2A52660  13.621   1.247   6.750
 7381POPC   C3A52661  13.637   1.209   7.050
 7381POPC   C4A52662  13.642   1.235   7.350
 7381POPC   C1B52663  13.635   1.490   6.450
 7381POPC   C2B52664  13.644   1.440   6.750
 7381POPC   C3B52665  13.672   1.491   7.050
 7381POPC   C4B52666  13.679   1.415   7.350
 7382POPC   NC352667   8.188  27.549   5.550
 7382POPC   PO452668   8.208  27.587   5.850
 7382POPC   GL152669   8.208  27.604   6.150
 7382POPC   GL252670   8.350  27.522   6.150
 7382POPC   C1A52671   8.166  27.567   6.450
 7382POPC   D2A52672   8.165  27.552   6.750
 7382POPC   C3A52673   8.199  27.549   7.050
 7382POPC   C4A52674   8.228  27.630   7.350
 7382POPC   C1B52675   8.454  27.565   6.450
 7382POPC   C2B52676   8.437  27.487   6.750
 7382POPC   C3B52677   8.451  27.576   7.050
 7382POPC   C4B52678   8.488  27.521   7.350
 7383POPC   NC352679  42.333  30.730   5.550
 7383POPC   PO452680  42.300  30.701   5.850
 7383POPC   GL152681  42.344  30.720   6.150
 7383POPC   GL252682  42.502  30.739   6.150
 7383POPC   C1A52683  42.331  30.673   6.450
 7383POPC   D2A52684  42.317  30.662   6.750
 7383POPC   C3A52685  42.313  30.670   7.050
 7383POPC   C4A52686  42.319  30.653   7.350
 7383POPC   C1B52687  42.555  30.767   6.450
 7383POPC   C2B52688  42.616  30.806   6.750
 7383POPC   C3B52689  42.553  30.800   7.050
 7383POPC   C4B52690  42.526  30.731   7.350
 7384POPC   NC352691   8.927  40.043   5.550
 7384POPC   PO452692   8.936  39.987   5.850
 7384POPC   GL152693   8.995  39.988   6.150
 7384POPC   GL252694   8.806  39.988   6.150
 7384POPC   C1A52695   8.962  39.958   6.450
 7384POPC   D2A52696   8.950  39.959   6.750
 7384POPC   C3A52697   8.989  40.049   7.050
 7384POPC   C4A52698   8.982  40.025   7.350
 7384POPC   C1B52699   8.707  40.076   6.450
 7384POPC   C2B52700   8.689  40.095   6.750
 7384POPC   C3B52701   8.681  40.094   7.050
 7384POPC   C4B52702   8.720  40.014   7.350
 7385POPC   NC352703  35.368   8.992   5.550
 7385POPC   PO452704  35.319   8.954   5.850
 7385POPC   GL152705  35.398   9.008   6.150
 7385POPC   GL252706  35.367   8.823   6.150
 7385POPC   C1A52707  35.307   8.960   6.450
 7385POPC   D2A52708  35.342   8.971   6.750
 7385POPC   C3A52709  35.364   8.951   7.050
 7385POPC   C4A52710  35.400   8.995   7.350
 7385POPC   C1B52711  35.470   8.729   6.450
 7385POPC   C2B52712  35.414   8.748   6.750
 7385POPC   C3B52713  35.385   8.782   7.050
 7385POPC   C4B52714  35.374   8.701   7.350
 7386POPC   NC352715  36.177  20.625   5.550
 7386POPC   PO452716  36.143  20.588   5.850
 7386POPC   GL152717  36.137  20.568   6.150
 7386POPC   GL252718  36.057  20.468   6.150
 7386POPC   C1A52719  36.138  20.579   6.450
 7386POPC   D2A52720  36.114  20.652   6.750
 7386POPC   C3A52721  36.171  20.594   7.050
 7386POPC   C4A52722  36.097  20.610   7.350
 7386POPC   C1B52723  35.990  20.374   6.450
 7386POPC   C2B52724  36.011  20.388   6.750
 7386POPC   C3B52725  36.006  20.370   7.050
 7386POPC   C4B52726  35.962  20.360   7.350
 7387POPC   NC352727  41.558   9.017   5.550
 7387POPC   PO452728  41.535   8.980   5.850
 7387POPC   GL152729  41.589   8.996   6.150
 7387POPC   GL252730  41.430   9.012   6.150
 7387POPC   C1A52731  41.561   8.973   6.450
 7387POPC   D2A52732  41.530   9.004   6.750
 7387POPC   C3A52733  41.557   8.991   7.050
 7387POPC   C4A52734  41.586   9.006   7.350
 7387POPC   C1B52735  41.362   9.104   6.450
 7387POPC   C2B52736  41.357   9.092   6.750
 7387POPC   C3B52737  41.359   9.048   7.050
 7387POPC   C4B52738  41.290   9.053   7.350
 7388POPC   NC352739  23.674  42.298   5.550
 7388POPC   PO452740  23.678  42.352   5.850
 7388POPC   GL152741  23.667  42.313   6.150
 7388POPC   GL252742  23.866  42.311   6.150
 7388POPC   C1A52743  23.693  42.308   6.450
 7388POPC   D2A52744  23.728  42.285   6.750
 7388POPC   C3A52745  23.751  42.312   7.050
 7388POPC   C4A52746  23.665  42.294   7.350
 7388POPC   C1B52747  23.917  42.247   6.450
 7388POPC   C2B52748  23.987  42.307   6.750
 7388POPC   C3B52749  23.915  42.295   7.050
 7388POPC   C4B52750  23.970  42.268   7.350
 7389POPC   NC352751  22.159  33.037   5.550
 7389POPC   PO452752  22.143  33.001   5.850
 7389POPC   GL152753  22.137  32.986   6.150
 7389POPC   GL252754  22.228  32.938   6.150
 7389POPC   C1A52755  22.199  33.023   6.450
 7389POPC   D2A52756  22.119  33.018   6.750
 7389POPC   C3A52757  22.199  33.066   7.050
 7389POPC   C4A52758  22.126  33.041   7.350
 7389POPC   C1B52759  22.368  32.911   6.450
 7389POPC   C2B52760  22.360  32.909   6.750
 7389POPC   C3B52761  22.413  32.922   7.050
 7389POPC   C4B52762  22.419  32.954   7.350
 7390POPC   NC352763  18.243  42.303   5.550
 7390POPC   PO452764  18.275  42.333   5.850
 7390POPC   GL152765  18.260  42.372   6.150
 7390POPC   GL252766  18.255  42.493   6.150
 7390POPC   C1A52767  18.323  42.332   6.450
 7390POPC   D2A52768  18.280  42.362   6.750
 7390POPC   C3A52769  18.258  42.316   7.050
 7390POPC   C4A52770  18.247  42.326   7.350
 7390POPC   C1B52771  18.243  42.605   6.450
 7390POPC   C2B52772  18.250  42.552   6.750
 7390POPC   C3B52773  18.243  42.588   7.050
 7390POPC   C4B52774  18.160  42.523   7.350
 7391POPC   NC352775  40.803  13.639   5.550
 7391POPC   PO452776  40.752  13.630   5.850
 7391POPC   GL152777  40.751  13.589   6.150
 7391POPC   GL252778  40.916  13.546   6.150
 7391POPC   C1A52779  40.746  13.579   6.450
 7391POPC   D2A52780  40.779  13.660   6.750
 7391POPC   C3A52781  40.797  13.639   7.050
 7391POPC   C4A52782  40.750  13.594   7.350
 7391POPC   C1B52783  40.945  13.523   6.450
 7391POPC   C2B52784  41.004  13.499   6.750
 7391POPC   C3B52785  41.006  13.488   7.050
 7391POPC   C4B52786  40.967  13.515   7.350
 7392POPC   NC352787   2.010  40.789   5.550
 7392POPC   PO452788   2.008  40.748   5.850
 7392POPC   GL152789   1.973  40.763   6.150
 7392POPC   GL252790   1.981  40.928   6.150
 7392POPC   C1A52791   1.996  40.737   6.450
 7392POPC   D2A52792   1.948  40.807   6.750
 7392POPC   C3A52793   2.026  40.749   7.050
 7392POPC   C4A52794   2.024  40.747   7.350
 7392POPC   C1B52795   2.094  41.056   6.450
 7392POPC   C2B52796   2.026  41.072   6.750
 7392POPC   C3B52797   2.101  41.032   7.050
 7392POPC   C4B52798   2.076  41.064   7.350
 7393POPC   NC352799   3.576   2.752   5.550
 7393POPC   PO452800   3.574   2.731   5.850
 7393POPC   GL152801   3.541   2.759   6.150
 7393POPC   GL252802   3.414   2.717   6.150
 7393POPC   C1A52803   3.586   2.733   6.450
 7393POPC   D2A52804   3.548   2.747   6.750
 7393POPC   C3A52805   3.537   2.790   7.050
 7393POPC   C4A52806   3.533   2.754   7.350
 7393POPC   C1B52807   3.330   2.673   6.450
 7393POPC   C2B52808   3.290   2.727   6.750
 7393POPC   C3B52809   3.265   2.644   7.050
 7393POPC   C4B52810   3.349   2.689   7.350
 7394POPC   NC352811  36.105  43.842   5.550
 7394POPC   PO452812  36.165  43.889   5.850
 7394POPC   GL152813  36.130  43.890   6.150
 7394POPC   GL252814  36.030  44.004   6.150
 7394POPC   C1A52815  36.155  43.924   6.450
 7394POPC   D2A52816  36.115  43.876   6.750
 7394POPC   C3A52817  36.096  43.881   7.050
 7394POPC   C4A52818  36.110  43.847   7.350
 7394POPC   C1B52819  35.991  44.124   6.450
 7394POPC   C2B52820  35.943  44.042   6.750
 7394POPC   C3B52821  35.989  44.061   7.050
 7394POPC   C4B52822  35.944  44.120   7.350
 7395POPC   NC352823   6.665  36.907   5.550
 7395POPC   PO452824   6.630  36.879   5.850
 7395POPC   GL152825   6.603  36.907   6.150
 7395POPC   GL252826   6.734  36.921   6.150
 7395POPC   C1A52827   6.629  36.941   6.450
 7395POPC   D2A52828   6.663  36.917   6.750
 7395POPC   C3A52829   6.647  36.934   7.050
 7395POPC   C4A52830   6.641  36.939   7.350
 7395POPC   C1B52831   6.848  36.978   6.450
 7395POPC   C2B52832   6.928  36.978   6.750
 7395POPC   C3B52833   6.902  36.965   7.050
 7395POPC   C4B52834   6.922  36.925   7.350
 7396POPC   NC352835   6.616  17.460   5.550
 7396POPC   PO452836   6.640  17.479   5.850
 7396POPC   GL152837   6.681  17.537   6.150
 7396POPC   GL252838   6.650  17.650   6.150
 7396POPC   C1A52839   6.673  17.485   6.450
 7396POPC   D2A52840   6.609  17.541   6.750
 7396POPC   C3A52841   6.659  17.538   7.050
 7396POPC   C4A52842   6.674  17.488   7.350
 7396POPC   C1B52843   6.545  17.752   6.450
 7396POPC   C2B52844   6.614  17.755   6.750
 7396POPC   C3B52845   6.620  17.727   7.050
 7396POPC   C4B52846   6.546  17.757   7.350
 7397POPC   NC352847  27.554  43.097   5.550
 7397POPC   PO452848  27.620  43.154   5.850
 7397POPC   GL152849  27.568  43.062   6.150
 7397POPC   GL252850  27.479  43.049   6.150
 7397POPC   C1A52851  27.591  43.083   6.450
 7397POPC   D2A52852  27.599  43.119   6.750
 7397POPC   C3A52853  27.637  43.078   7.050
 7397POPC   C4A52854  27.569  43.084   7.350
 7397POPC   C1B52855  27.432  42.894   6.450
 7397POPC   C2B52856  27.414  42.920   6.750
 7397POPC   C3B52857  27.425  42.898   7.050
 7397POPC   C4B52858  27.446  42.923   7.350
 7398POPC   NC352859  23.672  22.147   5.550
 7398POPC   PO452860  23.713  22.128   5.850
 7398POPC   GL152861  23.695  22.124   6.150
 7398POPC   GL252862  23.815  22.291   6.150
 7398POPC   C1A52863  23.684  22.202   6.450
 7398POPC   D2A52864  23.748  22.195   6.750
 7398POPC   C3A52865  23.750  22.181   7.050
 7398POPC   C4A52866  23.746  22.196   7.350
 7398POPC   C1B52867  23.893  22.406   6.450
 7398POPC   C2B52868  23.831  22.380   6.750
 7398POPC   C3B52869  23.880  22.415   7.050
 7398POPC   C4B52870  23.822  22.375   7.350
 7399POPC   NC352871  13.592  15.136   5.550
 7399POPC   PO452872  13.596  15.146   5.850
 7399POPC   GL152873  13.592  15.155   6.150
 7399POPC   GL252874  13.691  15.094   6.150
 7399POPC   C1A52875  13.633  15.202   6.450
 7399POPC   D2A52876  13.609  15.164   6.750
 7399POPC   C3A52877  13.667  15.158   7.050
 7399POPC   C4A52878  13.671  15.172   7.350
 7399POPC   C1B52879  13.813  15.007   6.450
 7399POPC   C2B52880  13.831  14.991   6.750
 7399POPC   C3B52881  13.841  15.030   7.050
 7399POPC   C4B52882  13.801  15.064   7.350
 7400POPC   NC352883   1.232  38.482   5.550
 7400POPC   PO452884   1.214  38.496   5.850
 7400POPC   GL152885   1.221  38.414   6.150
 7400POPC   GL252886   1.075  38.453   6.150
 7400POPC   C1A52887   1.240  38.407   6.450
 7400POPC   D2A52888   1.244  38.452   6.750
 7400POPC   C3A52889   1.189  38.488   7.050
 7400POPC   C4A52890   1.184  38.503   7.350
 7400POPC   C1B52891   0.939  38.507   6.450
 7400POPC   C2B52892   0.959  38.541   6.750
 7400POPC   C3B52893   0.946  38.495   7.050
 7400POPC   C4B52894   1.025  38.541   7.350
 7401POPC   NC352895  21.384  14.449   5.550
 7401POPC   PO452896  21.401  14.361   5.850
 7401POPC   GL152897  21.353  14.442   6.150
 7401POPC   GL252898  21.421  14.277   6.150
 7401POPC   C1A52899  21.405  14.391   6.450
 7401POPC   D2A52900  21.434  14.427   6.750
 7401POPC   C3A52901  21.423  14.362   7.050
 7401POPC   C4A52902  21.423  14.438   7.350
 7401POPC   C1B52903  21.571  14.209   6.450
 7401POPC   C2B52904  21.535  14.252   6.750
 7401POPC   C3B52905  21.535  14.197   7.050
 7401POPC   C4B52906  21.536  14.251   7.350
 7402POPC   NC352907  16.000  44.697   5.550
 7402POPC   PO452908  15.951  44.694   5.850
 7402POPC   GL152909  15.929  44.656   6.150
 7402POPC   GL252910  16.101  44.666   6.150
 7402POPC   C1A52911  15.977  44.689   6.450
 7402POPC   D2A52912  15.982  44.624   6.750
 7402POPC   C3A52913  15.957  44.655   7.050
 7402POPC   C4A52914  15.905  44.668   7.350
 7402POPC   C1B52915  16.205  44.772   6.450
 7402POPC   C2B52916  16.173  44.720   6.750
 7402POPC   C3B52917  16.164  44.752   7.050
 7402POPC   C4B52918  16.213  44.773   7.350
 7403POPC   NC352919   7.402  16.704   5.550
 7403POPC   PO452920   7.452  16.685   5.850
 7403POPC   GL152921   7.434  16.719   6.150
 7403POPC   GL252922   7.420  16.623   6.150
 7403POPC   C1A52923   7.375  16.688   6.450
 7403POPC   D2A52924   7.438  16.690   6.750
 7403POPC   C3A52925   7.399  16.720   7.050
 7403POPC   C4A52926   7.399  16.712   7.350
 7403POPC   C1B52927   7.413  16.471   6.450
 7403POPC   C2B52928   7.411  16.516   6.750
 7403POPC   C3B52929   7.347  16.452   7.050
 7403POPC   C4B52930   7.411  16.509   7.350
 7404POPC   NC352931  22.957  43.128   5.550
 7404POPC   PO452932  22.899  43.084   5.850
 7404POPC   GL152933  22.958  43.105   6.150
 7404POPC   GL252934  22.910  42.942   6.150
 7404POPC   C1A52935  22.935  43.153   6.450
 7404POPC   D2A52936  22.984  43.154   6.750
 7404POPC   C3A52937  22.960  43.099   7.050
 7404POPC   C4A52938  22.901  43.132   7.350
 7404POPC   C1B52939  22.979  42.813   6.450
 7404POPC   C2B52940  22.933  42.829   6.750
 7404POPC   C3B52941  22.913  42.856   7.050
 7404POPC   C4B52942  22.896  42.875   7.350
 7405POPC   NC352943   2.026  31.512   5.550
 7405POPC   PO452944   1.986  31.509   5.850
 7405POPC   GL152945   1.973  31.470   6.150
 7405POPC   GL252946   1.976  31.618   6.150
 7405POPC   C1A52947   2.010  31.444   6.450
 7405POPC   D2A52948   1.964  31.429   6.750
 7405POPC   C3A52949   2.029  31.508   7.050
 7405POPC   C4A52950   1.955  31.521   7.350
 7405POPC   C1B52951   1.975  31.719   6.450
 7405POPC   C2B52952   1.945  31.685   6.750
 7405POPC   C3B52953   2.001  31.766   7.050
 7405POPC   C4B52954   1.987  31.731   7.350
 7406POPC   NC352955  27.606  22.960   5.550
 7406POPC   PO452956  27.548  22.917   5.850
 7406POPC   GL152957  27.606  22.961   6.150
 7406POPC   GL252958  27.699  22.883   6.150
 7406POPC   C1A52959  27.568  22.930   6.450
 7406POPC   D2A52960  27.592  22.920   6.750
 7406POPC   C3A52961  27.643  22.965   7.050
 7406POPC   C4A52962  27.610  22.967   7.350
 7406POPC   C1B52963  27.832  22.821   6.450
 7406POPC   C2B52964  27.827  22.756   6.750
 7406POPC   C3B52965  27.746  22.787   7.050
 7406POPC   C4B52966  27.787  22.807   7.350
 7407POPC   NC352967  43.065  42.339   5.550
 7407POPC   PO452968  43.131  42.335   5.850
 7407POPC   GL152969  43.144  42.314   6.150
 7407POPC   GL252970  43.241  42.304   6.150
 7407POPC   C1A52971  43.140  42.338   6.450
 7407POPC   D2A52972  43.066  42.308   6.750
 7407POPC   C3A52973  43.145  42.339   7.050
 7407POPC   C4A52974  43.117  42.363   7.350
 7407POPC   C1B52975  43.404  42.268   6.450
 7407POPC   C2B52976  43.346  42.348   6.750
 7407POPC   C3B52977  43.346  42.347   7.050
 7407POPC   C4B52978  43.335  42.358   7.350
 7408POPC   NC352979  27.547  30.677   5.550
 7408POPC   PO452980  27.606  30.710   5.850
 7408POPC   GL152981  27.582  30.730   6.150
 7408POPC   GL252982  27.496  30.836   6.150
 7408POPC   C1A52983  27.611  30.660   6.450
 7408POPC   D2A52984  27.582  30.728   6.750
 7408POPC   C3A52985  27.581  30.739   7.050
 7408POPC   C4A52986  27.571  30.684   7.350
 7408POPC   C1B52987  27.381  30.895   6.450
 7408POPC   C2B52988  27.402  30.923   6.750
 7408POPC   C3B52989  27.380  30.868   7.050
 7408POPC   C4B52990  27.446  30.855   7.350
 7409POPC   NC352991  34.550   9.793   5.550
 7409POPC   PO452992  34.528   9.798   5.850
 7409POPC   GL152993  34.588   9.762   6.150
 7409POPC   GL252994  34.651   9.818   6.150
 7409POPC   C1A52995  34.584   9.754   6.450
 7409POPC   D2A52996  34.609   9.788   6.750
 7409POPC   C3A52997  34.581   9.711   7.050
 7409POPC   C4A52998  34.593   9.784   7.350
 7409POPC   C1B52999  34.668   9.975   6.450
 7409POPC   C2B53000  34.658   9.964   6.750
 7409POPC   C3B53001  34.649   9.980   7.050
 7409POPC   C4B53002  34.722   9.968   7.350
 7410POPC   NC353003  12.869  35.326   5.550
 7410POPC   PO453004  12.835  35.401   5.850
 7410POPC   GL153005  12.843  35.319   6.150
 7410POPC   GL253006  12.790  35.372   6.150
 7410POPC   C1A53007  12.835  35.320   6.450
 7410POPC   D2A53008  12.895  35.395   6.750
 7410POPC   C3A53009  12.813  35.354   7.050
 7410POPC   C4A53010  12.869  35.344   7.350
 7410POPC   C1B53011  12.611  35.506   6.450
 7410POPC   C2B53012  12.658  35.483   6.750
 7410POPC   C3B53013  12.673  35.503   7.050
 7410POPC   C4B53014  12.665  35.431   7.350
 7411POPC   NC353015  20.641  41.547   5.550
 7411POPC   PO453016  20.572  41.557   5.850
 7411POPC   GL153017  20.650  41.604   6.150
 7411POPC   GL253018  20.512  41.424   6.150
 7411POPC   C1A53019  20.622  41.511   6.450
 7411POPC   D2A53020  20.632  41.515   6.750
 7411POPC   C3A53021  20.646  41.595   7.050
 7411POPC   C4A53022  20.622  41.544   7.350
 7411POPC   C1B53023  20.442  41.341   6.450
 7411POPC   C2B53024  20.476  41.350   6.750
 7411POPC   C3B53025  20.395  41.367   7.050
 7411POPC   C4B53026  20.387  41.350   7.350
 7412POPC   NC353027  39.979  14.392   5.550
 7412POPC   PO453028  39.997  14.355   5.850
 7412POPC   GL153029  40.003  14.427   6.150
 7412POPC   GL253030  40.143  14.471   6.150
 7412POPC   C1A53031  39.967  14.436   6.450
 7412POPC   D2A53032  40.001  14.447   6.750
 7412POPC   C3A53033  40.007  14.389   7.050
 7412POPC   C4A53034  39.967  14.403   7.350
 7412POPC   C1B53035  40.257  14.479   6.450
 7412POPC   C2B53036  40.215  14.417   6.750
 7412POPC   C3B53037  40.215  14.474   7.050
 7412POPC   C4B53038  40.252  14.483   7.350
 7413POPC   NC353039  32.256  16.748   5.550
 7413POPC   PO453040  32.204  16.696   5.850
 7413POPC   GL153041  32.228  16.713   6.150
 7413POPC   GL253042  32.160  16.741   6.150
 7413POPC   C1A53043  32.281  16.742   6.450
 7413POPC   D2A53044  32.208  16.732   6.750
 7413POPC   C3A53045  32.214  16.755   7.050
 7413POPC   C4A53046  32.250  16.701   7.350
 7413POPC   C1B53047  31.997  16.698   6.450
 7413POPC   C2B53048  31.962  16.715   6.750
 7413POPC   C3B53049  31.984  16.666   7.050
 7413POPC   C4B53050  31.986  16.662   7.350
 7414POPC   NC353051  26.083  37.716   5.550
 7414POPC   PO453052  25.998  37.697   5.850
 7414POPC   GL153053  26.050  37.682   6.150
 7414POPC   GL253054  26.011  37.543   6.150
 7414POPC   C1A53055  26.084  37.703   6.450
 7414POPC   D2A53056  26.003  37.651   6.750
 7414POPC   C3A53057  26.028  37.669   7.050
 7414POPC   C4A53058  26.057  37.697   7.350
 7414POPC   C1B53059  25.944  37.525   6.450
 7414POPC   C2B53060  25.850  37.449   6.750
 7414POPC   C3B53061  25.853  37.464   7.050
 7414POPC   C4B53062  25.875  37.463   7.350
 7415POPC   NC353063   6.669   9.741   5.550
 7415POPC   PO453064   6.661   9.783   5.850
 7415POPC   GL153065   6.664   9.698   6.150
 7415POPC   GL253066   6.661   9.645   6.150
 7415POPC   C1A53067   6.684   9.736   6.450
 7415POPC   D2A53068   6.618   9.740   6.750
 7415POPC   C3A53069   6.676   9.795   7.050
 7415POPC   C4A53070   6.649   9.783   7.350
 7415POPC   C1B53071   6.654   9.455   6.450
 7415POPC   C2B53072   6.589   9.542   6.750
 7415POPC   C3B53073   6.589   9.449   7.050
 7415POPC   C4B53074   6.624   9.524   7.350
 7416POPC   NC353075  31.444   6.637   5.550
 7416POPC   PO453076  31.514   6.596   5.850
 7416POPC   GL153077  31.426   6.663   6.150
 7416POPC   GL253078  31.382   6.607   6.150
 7416POPC   C1A53079  31.458   6.615   6.450
 7416POPC   D2A53080  31.475   6.666   6.750
 7416POPC   C3A53081  31.481   6.610   7.050
 7416POPC   C4A53082  31.458   6.668   7.350
 7416POPC   C1B53083  31.294   6.555   6.450
 7416POPC   C2B53084  31.285   6.513   6.750
 7416POPC   C3B53085  31.255   6.506   7.050
 7416POPC   C4B53086  31.270   6.567   7.350
 7417POPC   NC353087  36.890  17.495   5.550
 7417POPC   PO453088  36.942  17.479   5.850
 7417POPC   GL153089  36.864  17.492   6.150
 7417POPC   GL253090  36.885  17.609   6.150
 7417POPC   C1A53091  36.855  17.527   6.450
 7417POPC   D2A53092  36.938  17.481   6.750
 7417POPC   C3A53093  36.929  17.507   7.050
 7417POPC   C4A53094  36.930  17.536   7.350
 7417POPC   C1B53095  36.821  17.777   6.450
 7417POPC   C2B53096  36.798  17.706   6.750
 7417POPC   C3B53097  36.813  17.757   7.050
 7417POPC   C4B53098  36.839  17.708   7.350
 7418POPC   NC353099   1.940  38.502   5.550
 7418POPC   PO453100   2.009  38.458   5.850
 7418POPC   GL153101   1.959  38.502   6.150
 7418POPC   GL253102   1.916  38.395   6.150
 7418POPC   C1A53103   1.952  38.428   6.450
 7418POPC   D2A53104   2.025  38.431   6.750
 7418POPC   C3A53105   1.993  38.420   7.050
 7418POPC   C4A53106   2.038  38.421   7.350
 7418POPC   C1B53107   1.735  38.430   6.450
 7418POPC   C2B53108   1.769  38.422   6.750
 7418POPC   C3B53109   1.790  38.359   7.050
 7418POPC   C4B53110   1.736  38.347   7.350
 7419POPC   NC353111  24.537  33.801   5.550
 7419POPC   PO453112  24.531  33.775   5.850
 7419POPC   GL153113  24.443  33.796   6.150
 7419POPC   GL253114  24.448  33.902   6.150
 7419POPC   C1A53115  24.523  33.836   6.450
 7419POPC   D2A53116  24.491  33.774   6.750
 7419POPC   C3A53117  24.531  33.776   7.050
 7419POPC   C4A53118  24.513  33.810   7.350
 7419POPC   C1B53119  24.327  34.002   6.450
 7419POPC   C2B53120  24.285  33.959   6.750
 7419POPC   C3B53121  24.288  33.950   7.050
 7419POPC   C4B53122  24.320  33.927   7.350
 7420POPC   NC353123  35.310  35.363   5.550
 7420POPC   PO453124  35.351  35.332   5.850
 7420POPC   GL153125  35.306  35.382   6.150
 7420POPC   GL253126  35.291  35.414   6.150
 7420POPC   C1A53127  35.341  35.328   6.450
 7420POPC   D2A53128  35.328  35.311   6.750
 7420POPC   C3A53129  35.366  35.399   7.050
 7420POPC   C4A53130  35.377  35.308   7.350
 7420POPC   C1B53131  35.187  35.552   6.450
 7420POPC   C2B53132  35.208  35.523   6.750
 7420POPC   C3B53133  35.180  35.568   7.050
 7420POPC   C4B53134  35.143  35.522   7.350
 7421POPC   NC353135  27.549  42.373   5.550
 7421POPC   PO453136  27.553  42.356   5.850
 7421POPC   GL153137  27.596  42.288   6.150
 7421POPC   GL253138  27.723  42.322   6.150
 7421POPC   C1A53139  27.580  42.371   6.450
 7421POPC   D2A53140  27.599  42.369   6.750
 7421POPC   C3A53141  27.571  42.313   7.050
 7421POPC   C4A53142  27.583  42.326   7.350
 7421POPC   C1B53143  27.878  42.451   6.450
 7421POPC   C2B53144  27.835  42.398   6.750
 7421POPC   C3B53145  27.817  42.381   7.050
 7421POPC   C4B53146  27.834  42.375   7.350
 7422POPC   NC353147  26.804  19.028   5.550
 7422POPC   PO453148  26.835  19.060   5.850
 7422POPC   GL153149  26.782  19.084   6.150
 7422POPC   GL253150  26.786  19.162   6.150
 7422POPC   C1A53151  26.803  19.107   6.450
 7422POPC   D2A53152  26.838  19.100   6.750
 7422POPC   C3A53153  26.841  19.081   7.050
 7422POPC   C4A53154  26.796  19.042   7.350
 7422POPC   C1B53155  26.695  19.290   6.450
 7422POPC   C2B53156  26.686  19.311   6.750
 7422POPC   C3B53157  26.694  19.327   7.050
 7422POPC   C4B53158  26.699  19.271   7.350
 7423POPC   NC353159  20.586   6.693   5.550
 7423POPC   PO453160  20.627   6.651   5.850
 7423POPC   GL153161  20.659   6.692   6.150
 7423POPC   GL253162  20.443   6.650   6.150
 7423POPC   C1A53163  20.576   6.614   6.450
 7423POPC   D2A53164  20.592   6.604   6.750
 7423POPC   C3A53165  20.568   6.642   7.050
 7423POPC   C4A53166  20.577   6.617   7.350
 7423POPC   C1B53167  20.348   6.701   6.450
 7423POPC   C2B53168  20.351   6.745   6.750
 7423POPC   C3B53169  20.394   6.731   7.050
 7423POPC   C4B53170  20.404   6.675   7.350
 7424POPC   NC353171  16.752  13.677   5.550
 7424POPC   PO453172  16.689  13.654   5.850
 7424POPC   GL153173  16.703  13.642   6.150
 7424POPC   GL253174  16.716  13.482   6.150
 7424POPC   C1A53175  16.760  13.647   6.450
 7424POPC   D2A53176  16.715  13.585   6.750
 7424POPC   C3A53177  16.753  13.637   7.050
 7424POPC   C4A53178  16.716  13.642   7.350
 7424POPC   C1B53179  16.689  13.336   6.450
 7424POPC   C2B53180  16.730  13.333   6.750
 7424POPC   C3B53181  16.706  13.379   7.050
 7424POPC   C4B53182  16.711  13.332   7.350
 7425POPC   NC353183   5.905  14.406   5.550
 7425POPC   PO453184   5.907  14.421   5.850
 7425POPC   GL153185   5.878  14.421   6.150
 7425POPC   GL253186   5.989  14.459   6.150
 7425POPC   C1A53187   5.918  14.434   6.450
 7425POPC   D2A53188   5.824  14.381   6.750
 7425POPC   C3A53189   5.870  14.382   7.050
 7425POPC   C4A53190   5.879  14.390   7.350
 7425POPC   C1B53191   6.053  14.504   6.450
 7425POPC   C2B53192   6.092  14.479   6.750
 7425POPC   C3B53193   6.070  14.461   7.050
 7425POPC   C4B53194   6.093  14.469   7.350
 7426POPC   NC353195  40.796  32.292   5.550
 7426POPC   PO453196  40.750  32.215   5.850
 7426POPC   GL153197  40.760  32.242   6.150
 7426POPC   GL253198  40.851  32.156   6.150
 7426POPC   C1A53199  40.746  32.254   6.450
 7426POPC   D2A53200  40.772  32.249   6.750
 7426POPC   C3A53201  40.823  32.207   7.050
 7426POPC   C4A53202  40.751  32.236   7.350
 7426POPC   C1B53203  40.937  32.075   6.450
 7426POPC   C2B53204  40.925  32.020   6.750
 7426POPC   C3B53205  40.904  32.021   7.050
 7426POPC   C4B53206  40.954  32.011   7.350
 7427POPC   NC353207   8.235  30.671   5.550
 7427POPC   PO453208   8.203  30.670   5.850
 7427POPC   GL153209   8.176  30.729   6.150
 7427POPC   GL253210   8.219  30.774   6.150
 7427POPC   C1A53211   8.190  30.741   6.450
 7427POPC   D2A53212   8.194  30.727   6.750
 7427POPC   C3A53213   8.157  30.709   7.050
 7427POPC   C4A53214   8.236  30.647   7.350
 7427POPC   C1B53215   8.167  30.962   6.450
 7427POPC   C2B53216   8.215  30.922   6.750
 7427POPC   C3B53217   8.131  30.972   7.050
 7427POPC   C4B53218   8.162  30.937   7.350
 7428POPC   NC353219  33.772  24.511   5.550
 7428POPC   PO453220  33.750  24.449   5.850
 7428POPC   GL153221  33.850  24.461   6.150
 7428POPC   GL253222  33.839  24.341   6.150
 7428POPC   C1A53223  33.804  24.484   6.450
 7428POPC   D2A53224  33.804  24.526   6.750
 7428POPC   C3A53225  33.771  24.521   7.050
 7428POPC   C4A53226  33.796  24.512   7.350
 7428POPC   C1B53227  33.813  24.241   6.450
 7428POPC   C2B53228  33.750  24.272   6.750
 7428POPC   C3B53229  33.834  24.262   7.050
 7428POPC   C4B53230  33.774  24.228   7.350
 7429POPC   NC353231  30.678   7.392   5.550
 7429POPC   PO453232  30.688   7.450   5.850
 7429POPC   GL153233  30.695   7.464   6.150
 7429POPC   GL253234  30.665   7.310   6.150
 7429POPC   C1A53235  30.674   7.399   6.450
 7429POPC   D2A53236  30.670   7.467   6.750
 7429POPC   C3A53237  30.734   7.405   7.050
 7429POPC   C4A53238  30.687   7.384   7.350
 7429POPC   C1B53239  30.592   7.178   6.450
 7429POPC   C2B53240  30.529   7.175   6.750
 7429POPC   C3B53241  30.576   7.175   7.050
 7429POPC   C4B53242  30.588   7.238   7.350
 7430POPC   NC353243  38.446  15.943   5.550
 7430POPC   PO453244  38.409  15.964   5.850
 7430POPC   GL153245  38.441  15.986   6.150
 7430POPC   GL253246  38.484  16.022   6.150
 7430POPC   C1A53247  38.447  15.968   6.450
 7430POPC   D2A53248  38.406  15.932   6.750
 7430POPC   C3A53249  38.494  16.004   7.050
 7430POPC   C4A53250  38.495  15.973   7.350
 7430POPC   C1B53251  38.612  16.186   6.450
 7430POPC   C2B53252  38.529  16.186   6.750
 7430POPC   C3B53253  38.542  16.137   7.050
 7430POPC   C4B53254  38.559  16.224   7.350
 7431POPC   NC353255  16.702  11.325   5.550
 7431POPC   PO453256  16.742  11.292   5.850
 7431POPC   GL153257  16.748  11.295   6.150
 7431POPC   GL253258  16.702  11.413   6.150
 7431POPC   C1A53259  16.732  11.251   6.450
 7431POPC   D2A53260  16.705  11.295   6.750
 7431POPC   C3A53261  16.714  11.252   7.050
 7431POPC   C4A53262  16.683  11.277   7.350
 7431POPC   C1B53263  16.740  11.509   6.450
 7431POPC   C2B53264  16.730  11.527   6.750
 7431POPC   C3B53265  16.736  11.546   7.050
 7431POPC   C4B53266  16.659  11.515   7.350
 7432POPC   NC353267  32.201   5.857   5.550
 7432POPC   PO453268  32.233   5.827   5.850
 7432POPC   GL153269  32.219   5.897   6.150
 7432POPC   GL253270  32.217   5.740   6.150
 7432POPC   C1A53271  32.289   5.843   6.450
 7432POPC   D2A53272  32.285   5.870   6.750
 7432POPC   C3A53273  32.236   5.886   7.050
 7432POPC   C4A53274  32.267   5.840   7.350
 7432POPC   C1B53275  32.094   5.637   6.450
 7432POPC   C2B53276  32.077   5.698   6.750
 7432POPC   C3B53277  32.149   5.640   7.050
 7432POPC   C4B53278  32.162   5.681   7.350
 7433POPC   NC353279  23.676  25.254   5.550
 7433POPC   PO453280  23.742  25.288   5.850
 7433POPC   GL153281  23.710  25.260   6.150
 7433POPC   GL253282  23.758  25.208   6.150
 7433POPC   C1A53283  23.668  25.218   6.450
 7433POPC   D2A53284  23.679  25.237   6.750
 7433POPC   C3A53285  23.691  25.274   7.050
 7433POPC   C4A53286  23.725  25.282   7.350
 7433POPC   C1B53287  23.919  25.102   6.450
 7433POPC   C2B53288  23.883  25.120   6.750
 7433POPC   C3B53289  23.931  25.054   7.050
 7433POPC   C4B53290  23.900  25.129   7.350
 7434POPC   NC353291  42.302  31.435   5.550
 7434POPC   PO453292  42.293  31.473   5.850
 7434POPC   GL153293  42.289  31.453   6.150
 7434POPC   GL253294  42.315  31.320   6.150
 7434POPC   C1A53295  42.332  31.487   6.450
 7434POPC   D2A53296  42.302  31.497   6.750
 7434POPC   C3A53297  42.286  31.481   7.050
 7434POPC   C4A53298  42.355  31.490   7.350
 7434POPC   C1B53299  42.227  31.252   6.450
 7434POPC   C2B53300  42.191  31.261   6.750
 7434POPC   C3B53301  42.209  31.252   7.050
 7434POPC   C4B53302  42.178  31.298   7.350
 7435POPC   NC353303   6.650  36.170   5.550
 7435POPC   PO453304   6.667  36.128   5.850
 7435POPC   GL153305   6.603  36.158   6.150
 7435POPC   GL253306   6.521  36.060   6.150
 7435POPC   C1A53307   6.630  36.158   6.450
 7435POPC   D2A53308   6.647  36.170   6.750
 7435POPC   C3A53309   6.625  36.127   7.050
 7435POPC   C4A53310   6.649  36.104   7.350
 7435POPC   C1B53311   6.406  36.003   6.450
 7435POPC   C2B53312   6.450  35.975   6.750
 7435POPC   C3B53313   6.452  36.016   7.050
 7435POPC   C4B53314   6.462  36.027   7.350
 7436POPC   NC353315   3.534  23.704   5.550
 7436POPC   PO453316   3.501  23.688   5.850
 7436POPC   GL153317   3.530  23.751   6.150
 7436POPC   GL253318   3.373  23.716   6.150
 7436POPC   C1A53319   3.495  23.729   6.450
 7436POPC   D2A53320   3.525  23.709   6.750
 7436POPC   C3A53321   3.506  23.728   7.050
 7436POPC   C4A53322   3.526  23.674   7.350
 7436POPC   C1B53323   3.316  23.748   6.450
 7436POPC   C2B53324   3.270  23.693   6.750
 7436POPC   C3B53325   3.328  23.756   7.050
 7436POPC   C4B53326   3.274  23.751   7.350
 7437POPC   NC353327  19.105  40.805   5.550
 7437POPC   PO453328  19.095  40.753   5.850
 7437POPC   GL153329  19.023  40.794   6.150
 7437POPC   GL253330  18.973  40.740   6.150
 7437POPC   C1A53331  19.011  40.811   6.450
 7437POPC   D2A53332  19.082  40.794   6.750
 7437POPC   C3A53333  19.035  40.790   7.050
 7437POPC   C4A53334  19.107  40.785   7.350
 7437POPC   C1B53335  18.812  40.794   6.450
 7437POPC   C2B53336  18.853  40.829   6.750
 7437POPC   C3B53337  18.782  40.823   7.050
 7437POPC   C4B53338  18.820  40.828   7.350
 7438POPC   NC353339  28.365  21.407   5.550
 7438POPC   PO453340  28.411  21.421   5.850
 7438POPC   GL153341  28.322  21.358   6.150
 7438POPC   GL253342  28.252  21.381   6.150
 7438POPC   C1A53343  28.321  21.425   6.450
 7438POPC   D2A53344  28.419  21.351   6.750
 7438POPC   C3A53345  28.365  21.394   7.050
 7438POPC   C4A53346  28.371  21.348   7.350
 7438POPC   C1B53347  28.098  21.435   6.450
 7438POPC   C2B53348  28.102  21.441   6.750
 7438POPC   C3B53349  28.126  21.448   7.050
 7438POPC   C4B53350  28.155  21.431   7.350
 7439POPC   NC353351  21.344  12.804   5.550
 7439POPC   PO453352  21.432  12.808   5.850
 7439POPC   GL153353  21.348  12.888   6.150
 7439POPC   GL253354  21.352  12.700   6.150
 7439POPC   C1A53355  21.372  12.824   6.450
 7439POPC   D2A53356  21.435  12.873   6.750
 7439POPC   C3A53357  21.372  12.812   7.050
 7439POPC   C4A53358  21.386  12.832   7.350
 7439POPC   C1B53359  21.378  12.576   6.450
 7439POPC   C2B53360  21.423  12.605   6.750
 7439POPC   C3B53361  21.372  12.642   7.050
 7439POPC   C4B53362  21.357  12.623   7.350
 7440POPC   NC353363  33.789  32.974   5.550
 7440POPC   PO453364  33.755  33.034   5.850
 7440POPC   GL153365  33.793  32.987   6.150
 7440POPC   GL253366  33.943  33.086   6.150
 7440POPC   C1A53367  33.775  33.027   6.450
 7440POPC   D2A53368  33.769  33.061   6.750
 7440POPC   C3A53369  33.821  33.063   7.050
 7440POPC   C4A53370  33.796  33.032   7.350
 7440POPC   C1B53371  34.033  33.098   6.450
 7440POPC   C2B53372  34.036  33.076   6.750
 7440POPC   C3B53373  34.002  33.133   7.050
 7440POPC   C4B53374  34.056  33.093   7.350
 7441POPC   NC353375  39.197  29.905   5.550
 7441POPC   PO453376  39.187  29.900   5.850
 7441POPC   GL153377  39.248  29.934   6.150
 7441POPC   GL253378  39.082  29.967   6.150
 7441POPC   C1A53379  39.218  29.871   6.450
 7441POPC   D2A53380  39.220  29.905   6.750
 7441POPC   C3A53381  39.209  29.899   7.050
 7441POPC   C4A53382  39.242  29.940   7.350
 7441POPC   C1B53383  39.017  30.061   6.450
 7441POPC   C2B53384  39.013  30.088   6.750
 7441POPC   C3B53385  39.040  30.078   7.050
 7441POPC   C4B53386  39.045  30.035   7.350
 7442POPC   NC353387   0.466  15.987   5.550
 7442POPC   PO453388   0.473  15.906   5.850
 7442POPC   GL153389   0.460  15.979   6.150
 7442POPC   GL253390   0.493  16.104   6.150
 7442POPC   C1A53391   0.470  15.914   6.450
 7442POPC   D2A53392   0.444  15.945   6.750
 7442POPC   C3A53393   0.424  15.979   7.050
 7442POPC   C4A53394   0.443  15.980   7.350
 7442POPC   C1B53395   0.527  16.234   6.450
 7442POPC   C2B53396   0.515  16.188   6.750
 7442POPC   C3B53397   0.457  16.214   7.050
 7442POPC   C4B53398   0.463  16.227   7.350
 7443POPC   NC353399   4.273  26.834   5.550
 7443POPC   PO453400   4.367  26.790   5.850
 7443POPC   GL153401   4.363  26.780   6.150
 7443POPC   GL253402   4.203  26.826   6.150
 7443POPC   C1A53403   4.295  26.813   6.450
 7443POPC   D2A53404   4.281  26.812   6.750
 7443POPC   C3A53405   4.345  26.829   7.050
 7443POPC   C4A53406   4.301  26.841   7.350
 7443POPC   C1B53407   4.103  26.858   6.450
 7443POPC   C2B53408   4.117  26.837   6.750
 7443POPC   C3B53409   4.100  26.895   7.050
 7443POPC   C4B53410   4.065  26.900   7.350
 7444POPC   NC353411  22.950  14.438   5.550
 7444POPC   PO453412  22.959  14.389   5.850
 7444POPC   GL153413  22.924  14.423   6.150
 7444POPC   GL253414  23.059  14.384   6.150
 7444POPC   C1A53415  22.912  14.444   6.450
 7444POPC   D2A53416  22.921  14.385   6.750
 7444POPC   C3A53417  22.891  14.388   7.050
 7444POPC   C4A53418  22.953  14.437   7.350
 7444POPC   C1B53419  23.152  14.425   6.450
 7444POPC   C2B53420  23.230  14.413   6.750
 7444POPC   C3B53421  23.167  14.398   7.050
 7444POPC   C4B53422  23.217  14.411   7.350
 7445POPC   NC353423  44.620   4.268   5.550
 7445POPC   PO453424  44.684   4.358   5.850
 7445POPC   GL153425  44.672   4.358   6.150
 7445POPC   GL253426  44.601   4.196   6.150
 7445POPC   C1A53427  44.671   4.282   6.450
 7445POPC   D2A53428  44.669   4.328   6.750
 7445POPC   C3A53429  44.618   4.356   7.050
 7445POPC   C4A53430  44.692   4.351   7.350
 7445POPC   C1B53431  44.636   4.019   6.450
 7445POPC   C2B53432  44.673   4.070   6.750
 7445POPC   C3B53433  44.609   4.056   7.050
 7445POPC   C4B53434  44.641   4.090   7.350
 7446POPC   NC353435  10.566  39.271   5.550
 7446POPC   PO453436  10.492  39.229   5.850
 7446POPC   GL153437  10.543  39.217   6.150
 7446POPC   GL253438  10.394  39.107   6.150
 7446POPC   C1A53439  10.480  39.238   6.450
 7446POPC   D2A53440  10.475  39.217   6.750
 7446POPC   C3A53441  10.528  39.252   7.050
 7446POPC   C4A53442  10.573  39.260   7.350
 7446POPC   C1B53443  10.313  39.027   6.450
 7446POPC   C2B53444  10.406  39.011   6.750
 7446POPC   C3B53445  10.408  39.062   7.050
 7446POPC   C4B53446  10.387  39.075   7.350
 7447POPC   NC353447  23.671  30.730   5.550
 7447POPC   PO453448  23.687  30.658   5.850
 7447POPC   GL153449  23.686  30.711   6.150
 7447POPC   GL253450  23.586  30.702   6.150
 7447POPC   C1A53451  23.672  30.701   6.450
 7447POPC   D2A53452  23.687  30.719   6.750
 7447POPC   C3A53453  23.710  30.701   7.050
 7447POPC   C4A53454  23.710  30.738   7.350
 7447POPC   C1B53455  23.506  30.738   6.450
 7447POPC   C2B53456  23.418  30.693   6.750
 7447POPC   C3B53457  23.505  30.726   7.050
 7447POPC   C4B53458  23.489  30.758   7.350
 7448POPC   NC353459  15.944   3.571   5.550
 7448POPC   PO453460  15.910   3.494   5.850
 7448POPC   GL153461  15.972   3.562   6.150
 7448POPC   GL253462  15.822   3.464   6.150
 7448POPC   C1A53463  15.970   3.570   6.450
 7448POPC   D2A53464  15.981   3.563   6.750
 7448POPC   C3A53465  15.935   3.524   7.050
 7448POPC   C4A53466  15.966   3.540   7.350
 7448POPC   C1B53467  15.758   3.420   6.450
 7448POPC   C2B53468  15.726   3.496   6.750
 7448POPC   C3B53469  15.695   3.461   7.050
 7448POPC   C4B53470  15.707   3.470   7.350
 7449POPC   NC353471  19.786  42.339   5.550
 7449POPC   PO453472  19.807  42.310   5.850
 7449POPC   GL153473  19.850  42.336   6.150
 7449POPC   GL253474  19.712  42.281   6.150
 7449POPC   C1A53475  19.819  42.330   6.450
 7449POPC   D2A53476  19.851  42.320   6.750
 7449POPC   C3A53477  19.826  42.328   7.050
 7449POPC   C4A53478  19.812  42.321   7.350
 7449POPC   C1B53479  19.574  42.222   6.450
 7449POPC   C2B53480  19.626  42.279   6.750
 7449POPC   C3B53481  19.631  42.193   7.050
 7449POPC   C4B53482  19.595  42.201   7.350
 7450POPC   NC353483  29.147   4.303   5.550
 7450POPC   PO453484  29.101   4.306   5.850
 7450POPC   GL153485  29.105   4.271   6.150
 7450POPC   GL253486  29.223   4.468   6.150
 7450POPC   C1A53487  29.191   4.318   6.450
 7450POPC   D2A53488  29.151   4.271   6.750
 7450POPC   C3A53489  29.115   4.354   7.050
 7450POPC   C4A53490  29.174   4.363   7.350
 7450POPC   C1B53491  29.256   4.494   6.450
 7450POPC   C2B53492  29.332   4.546   6.750
 7450POPC   C3B53493  29.330   4.565   7.050
 7450POPC   C4B53494  29.317   4.503   7.350
 7451POPC   NC353495  39.240  25.239   5.550
 7451POPC   PO453496  39.210  25.252   5.850
 7451POPC   GL153497  39.261  25.295   6.150
 7451POPC   GL253498  39.335  25.244   6.150
 7451POPC   C1A53499  39.227  25.216   6.450
 7451POPC   D2A53500  39.213  25.240   6.750
 7451POPC   C3A53501  39.270  25.265   7.050
 7451POPC   C4A53502  39.261  25.247   7.350
 7451POPC   C1B53503  39.524  25.261   6.450
 7451POPC   C2B53504  39.522  25.232   6.750
 7451POPC   C3B53505  39.460  25.233   7.050
 7451POPC   C4B53506  39.504  25.285   7.350
 7452POPC   NC353507  43.868   2.787   5.550
 7452POPC   PO453508  43.853   2.734   5.850
 7452POPC   GL153509  43.932   2.746   6.150
 7452POPC   GL253510  43.949   2.699   6.150
 7452POPC   C1A53511  43.933   2.790   6.450
 7452POPC   D2A53512  43.862   2.756   6.750
 7452POPC   C3A53513  43.870   2.768   7.050
 7452POPC   C4A53514  43.929   2.759   7.350
 7452POPC   C1B53515  44.121   2.566   6.450
 7452POPC   C2B53516  44.042   2.560   6.750
 7452POPC   C3B53517  44.078   2.569   7.050
 7452POPC   C4B53518  44.058   2.634   7.350
 7453POPC   NC353519  20.581  20.612   5.550
 7453POPC   PO453520  20.653  20.566   5.850
 7453POPC   GL153521  20.566  20.626   6.150
 7453POPC   GL253522  20.634  20.508   6.150
 7453POPC   C1A53523  20.611  20.588   6.450
 7453POPC   D2A53524  20.638  20.579   6.750
 7453POPC   C3A53525  20.606  20.576   7.050
 7453POPC   C4A53526  20.619  20.629   7.350
 7453POPC   C1B53527  20.633  20.362   6.450
 7453POPC   C2B53528  20.614  20.393   6.750
 7453POPC   C3B53529  20.666  20.348   7.050
 7453POPC   C4B53530  20.622  20.395   7.350
 7454POPC   NC353531  41.521  25.295   5.550
 7454POPC   PO453532  41.514  25.230   5.850
 7454POPC   GL153533  41.560  25.291   6.150
 7454POPC   GL253534  41.448  25.378   6.150
 7454POPC   C1A53535  41.593  25.298   6.450
 7454POPC   D2A53536  41.600  25.302   6.750
 7454POPC   C3A53537  41.536  25.278   7.050
 7454POPC   C4A53538  41.566  25.265   7.350
 7454POPC   C1B53539  41.440  25.487   6.450
 7454POPC   C2B53540  41.406  25.447   6.750
 7454POPC   C3B53541  41.440  25.456   7.050
 7454POPC   C4B53542  41.400  25.493   7.350
 7455POPC   NC353543   1.256   0.455   5.550
 7455POPC   PO453544   1.219   0.416   5.850
 7455POPC   GL153545   1.224   0.396   6.150
 7455POPC   GL253546   1.309   0.549   6.150
 7455POPC   C1A53547   1.222   0.425   6.450
 7455POPC   D2A53548   1.251   0.413   6.750
 7455POPC   C3A53549   1.197   0.436   7.050
 7455POPC   C4A53550   1.248   0.400   7.350
 7455POPC   C1B53551   1.390   0.617   6.450
 7455POPC   C2B53552   1.410   0.600   6.750
 7455POPC   C3B53553   1.353   0.625   7.050
 7455POPC   C4B53554   1.400   0.589   7.350
 7456POPC   NC353555  29.909  11.313   5.550
 7456POPC   PO453556  29.968  11.346   5.850
 7456POPC   GL153557  29.881  11.277   6.150
 7456POPC   GL253558  29.982  11.365   6.150
 7456POPC   C1A53559  29.886  11.264   6.450
 7456POPC   D2A53560  29.959  11.290   6.750
 7456POPC   C3A53561  29.874  11.328   7.050
 7456POPC   C4A53562  29.896  11.288   7.350
 7456POPC   C1B53563  30.140  11.498   6.450
 7456POPC   C2B53564  30.049  11.461   6.750
 7456POPC   C3B53565  30.138  11.504   7.050
 7456POPC   C4B53566  30.055  11.515   7.350
 7457POPC   NC353567  27.642  29.178   5.550
 7457POPC   PO453568  27.625  29.148   5.850
 7457POPC   GL153569  27.548  29.183   6.150
 7457POPC   GL253570  27.562  29.257   6.150
 7457POPC   C1A53571  27.613  29.160   6.450
 7457POPC   D2A53572  27.618  29.137   6.750
 7457POPC   C3A53573  27.592  29.110   7.050
 7457POPC   C4A53574  27.562  29.166   7.350
 7457POPC   C1B53575  27.662  29.367   6.450
 7457POPC   C2B53576  27.598  29.396   6.750
 7457POPC   C3B53577  27.582  29.408   7.050
 7457POPC   C4B53578  27.608  29.358   7.350
 7458POPC   NC353579  27.634  15.906   5.550
 7458POPC   PO453580  27.620  15.939   5.850
 7458POPC   GL153581  27.564  15.996   6.150
 7458POPC   GL253582  27.552  16.048   6.150
 7458POPC   C1A53583  27.619  15.919   6.450
 7458POPC   D2A53584  27.569  15.958   6.750
 7458POPC   C3A53585  27.617  15.960   7.050
 7458POPC   C4A53586  27.565  15.908   7.350
 7458POPC   C1B53587  27.542  16.173   6.450
 7458POPC   C2B53588  27.545  16.151   6.750
 7458POPC   C3B53589  27.473  16.200   7.050
 7458POPC   C4B53590  27.546  16.153   7.350
 7459POPC   NC353591   7.446  22.933   5.550
 7459POPC   PO453592   7.405  22.934   5.850
 7459POPC   GL153593   7.371  22.959   6.150
 7459POPC   GL253594   7.302  22.877   6.150
 7459POPC   C1A53595   7.383  22.970   6.450
 7459POPC   D2A53596   7.440  22.952   6.750
 7459POPC   C3A53597   7.414  22.968   7.050
 7459POPC   C4A53598   7.462  22.925   7.350
 7459POPC   C1B53599   7.180  22.796   6.450
 7459POPC   C2B53600   7.202  22.883   6.750
 7459POPC   C3B53601   7.239  22.845   7.050
 7459POPC   C4B53602   7.188  22.877   7.350
 7460POPC   NC353603  24.466  23.722   5.550
 7460POPC   PO453604  24.473  23.756   5.850
 7460POPC   GL153605  24.453  23.706   6.150
 7460POPC   GL253606  24.598  23.826   6.150
 7460POPC   C1A53607  24.508  23.695   6.450
 7460POPC   D2A53608  24.473  23.703   6.750
 7460POPC   C3A53609  24.514  23.699   7.050
 7460POPC   C4A53610  24.448  23.745   7.350
 7460POPC   C1B53611  24.606  23.924   6.450
 7460POPC   C2B53612  24.602  23.957   6.750
 7460POPC   C3B53613  24.608  23.909   7.050
 7460POPC   C4B53614  24.675  23.953   7.350
 7461POPC   NC353615  22.191  22.962   5.550
 7461POPC   PO453616  22.135  22.897   5.850
 7461POPC   GL153617  22.185  22.933   6.150
 7461POPC   GL253618  22.333  22.926   6.150
 7461POPC   C1A53619  22.130  22.957   6.450
 7461POPC   D2A53620  22.120  22.913   6.750
 7461POPC   C3A53621  22.207  22.950   7.050
 7461POPC   C4A53622  22.125  22.892   7.350
 7461POPC   C1B53623  22.410  22.982   6.450
 7461POPC   C2B53624  22.358  22.980   6.750
 7461POPC   C3B53625  22.373  23.018   7.050
 7461POPC   C4B53626  22.418  23.003   7.350
 7462POPC   NC353627  29.134  24.534   5.550
 7462POPC   PO453628  29.115  24.535   5.850
 7462POPC   GL153629  29.171  24.496   6.150
 7462POPC   GL253630  29.152  24.629   6.150
 7462POPC   C1A53631  29.107  24.488   6.450
 7462POPC   D2A53632  29.191  24.531   6.750
 7462POPC   C3A53633  29.161  24.490   7.050
 7462POPC   C4A53634  29.098  24.472   7.350
 7462POPC   C1B53635  29.210  24.704   6.450
 7462POPC   C2B53636  29.241  24.714   6.750
 7462POPC   C3B53637  29.158  24.748   7.050
 7462POPC   C4B53638  29.229  24.763   7.350
 7463POPC   NC353639  30.739   4.316   5.550
 7463POPC   PO453640  30.673   4.298   5.850
 7463POPC   GL153641  30.726   4.293   6.150
 7463POPC   GL253642  30.833   4.397   6.150
 7463POPC   C1A53643  30.657   4.348   6.450
 7463POPC   D2A53644  30.694   4.360   6.750
 7463POPC   C3A53645  30.680   4.338   7.050
 7463POPC   C4A53646  30.716   4.343   7.350
 7463POPC   C1B53647  30.851   4.521   6.450
 7463POPC   C2B53648  30.918   4.484   6.750
 7463POPC   C3B53649  30.848   4.526   7.050
 7463POPC   C4B53650  30.891   4.532   7.350
 7464POPC   NC353651  35.372   4.304   5.550
 7464POPC   PO453652  35.309   4.294   5.850
 7464POPC   GL153653  35.370   4.278   6.150
 7464POPC   GL253654  35.269   4.424   6.150
 7464POPC   C1A53655  35.370   4.365   6.450
 7464POPC   D2A53656  35.302   4.323   6.750
 7464POPC   C3A53657  35.312   4.351   7.050
 7464POPC   C4A53658  35.359   4.301   7.350
 7464POPC   C1B53659  35.183   4.458   6.450
 7464POPC   C2B53660  35.153   4.465   6.750
 7464POPC   C3B53661  35.150   4.520   7.050
 7464POPC   C4B53662  35.112   4.475   7.350
 7465POPC   NC353663   5.076   6.640   5.550
 7465POPC   PO453664   5.126   6.677   5.850
 7465POPC   GL153665   5.056   6.673   6.150
 7465POPC   GL253666   5.059   6.545   6.150
 7465POPC   C1A53667   5.140   6.633   6.450
 7465POPC   D2A53668   5.136   6.648   6.750
 7465POPC   C3A53669   5.137   6.599   7.050
 7465POPC   C4A53670   5.099   6.671   7.350
 7465POPC   C1B53671   5.134   6.351   6.450
 7465POPC   C2B53672   5.092   6.411   6.750
 7465POPC   C3B53673   5.104   6.425   7.050
 7465POPC   C4B53674   5.086   6.441   7.350
 7466POPC   NC353675  14.370   5.082   5.550
 7466POPC   PO453676  14.354   5.090   5.850
 7466POPC   GL153677  14.370   5.095   6.150
 7466POPC   GL253678  14.511   5.067   6.150
 7466POPC   C1A53679  14.390   5.051   6.450
 7466POPC   D2A53680  14.375   5.083   6.750
 7466POPC   C3A53681  14.433   5.082   7.050
 7466POPC   C4A53682  14.447   5.142   7.350
 7466POPC   C1B53683  14.608   5.079   6.450
 7466POPC   C2B53684  14.677   5.060   6.750
 7466POPC   C3B53685  14.658   5.055   7.050
 7466POPC   C4B53686  14.648   5.050   7.350
 7467POPC   NC353687  39.218  15.914   5.550
 7467POPC   PO453688  39.224  15.925   5.850
 7467POPC   GL153689  39.218  15.924   6.150
 7467POPC   GL253690  39.269  15.854   6.150
 7467POPC   C1A53691  39.183  15.997   6.450
 7467POPC   D2A53692  39.252  15.975   6.750
 7467POPC   C3A53693  39.260  16.001   7.050
 7467POPC   C4A53694  39.280  15.914   7.350
 7467POPC   C1B53695  39.345  15.750   6.450
 7467POPC   C2B53696  39.297  15.667   6.750
 7467POPC   C3B53697  39.332  15.701   7.050
 7467POPC   C4B53698  39.264  15.711   7.350
 7468POPC   NC353699  36.943   6.686   5.550
 7468POPC   PO453700  36.927   6.628   5.850
 7468POPC   GL153701  36.914   6.600   6.150
 7468POPC   GL253702  37.007   6.691   6.150
 7468POPC   C1A53703  36.864   6.686   6.450
 7468POPC   D2A53704  36.876   6.673   6.750
 7468POPC   C3A53705  36.932   6.688   7.050
 7468POPC   C4A53706  36.948   6.602   7.350
 7468POPC   C1B53707  37.142   6.778   6.450
 7468POPC   C2B53708  37.130   6.845   6.750
 7468POPC   C3B53709  37.111   6.800   7.050
 7468POPC   C4B53710  37.093   6.818   7.350
 7469POPC   NC353711  38.435  35.356   5.550
 7469POPC   PO453712  38.410  35.371   5.850
 7469POPC   GL153713  38.411  35.381   6.150
 7469POPC   GL253714  38.595  35.394   6.150
 7469POPC   C1A53715  38.484  35.319   6.450
 7469POPC   D2A53716  38.458  35.312   6.750
 7469POPC   C3A53717  38.439  35.398   7.050
 7469POPC   C4A53718  38.487  35.317   7.350
 7469POPC   C1B53719  38.602  35.570   6.450
 7469POPC   C2B53720  38.673  35.475   6.750
 7469POPC   C3B53721  38.675  35.500   7.050
 7469POPC   C4B53722  38.596  35.526   7.350
 7470POPC   NC353723  11.329  28.325   5.550
 7470POPC   PO453724  11.329  28.323   5.850
 7470POPC   GL153725  11.337  28.378   6.150
 7470POPC   GL253726  11.171  28.412   6.150
 7470POPC   C1A53727  11.324  28.335   6.450
 7470POPC   D2A53728  11.291  28.380   6.750
 7470POPC   C3A53729  11.279  28.327   7.050
 7470POPC   C4A53730  11.264  28.411   7.350
 7470POPC   C1B53731  11.155  28.553   6.450
 7470POPC   C2B53732  11.128  28.529   6.750
 7470POPC   C3B53733  11.158  28.585   7.050
 7470POPC   C4B53734  11.151  28.494   7.350
 7471POPC   NC353735   2.006  10.558   5.550
 7471POPC   PO453736   1.999  10.517   5.850
 7471POPC   GL153737   1.959  10.548   6.150
 7471POPC   GL253738   2.046  10.646   6.150
 7471POPC   C1A53739   1.975  10.515   6.450
 7471POPC   D2A53740   1.941  10.558   6.750
 7471POPC   C3A53741   1.974  10.510   7.050
 7471POPC   C4A53742   1.945  10.564   7.350
 7471POPC   C1B53743   2.117  10.735   6.450
 7471POPC   C2B53744   2.101  10.732   6.750
 7471POPC   C3B53745   2.042  10.757   7.050
 7471POPC   C4B53746   2.094  10.744   7.350
 7472POPC   NC353747  40.805  12.889   5.550
 7472POPC   PO453748  40.804  12.821   5.850
 7472POPC   GL153749  40.739  12.900   6.150
 7472POPC   GL253750  40.757  12.957   6.150
 7472POPC   C1A53751  40.755  12.832   6.450
 7472POPC   D2A53752  40.748  12.861   6.750
 7472POPC   C3A53753  40.756  12.812   7.050
 7472POPC   C4A53754  40.810  12.859   7.350
 7472POPC   C1B53755  40.828  13.069   6.450
 7472POPC   C2B53756  40.803  13.149   6.750
 7472POPC   C3B53757  40.827  13.108   7.050
 7472POPC   C4B53758  40.802  13.135   7.350
 7473POPC   NC353759   7.419   1.209   5.550
 7473POPC   PO453760   7.432   1.173   5.850
 7473POPC   GL153761   7.435   1.204   6.150
 7473POPC   GL253762   7.281   1.224   6.150
 7473POPC   C1A53763   7.426   1.230   6.450
 7473POPC   D2A53764   7.395   1.167   6.750
 7473POPC   C3A53765   7.395   1.198   7.050
 7473POPC   C4A53766   7.464   1.207   7.350
 7473POPC   C1B53767   7.164   1.218   6.450
 7473POPC   C2B53768   7.178   1.175   6.750
 7473POPC   C3B53769   7.139   1.224   7.050
 7473POPC   C4B53770   7.155   1.162   7.350
 7474POPC   NC353771  15.977  10.491   5.550
 7474POPC   PO453772  15.929  10.505   5.850
 7474POPC   GL153773  15.978  10.545   6.150
 7474POPC   GL253774  15.968  10.672   6.150
 7474POPC   C1A53775  15.936  10.531   6.450
 7474POPC   D2A53776  15.997  10.538   6.750
 7474POPC   C3A53777  15.983  10.543   7.050
 7474POPC   C4A53778  15.996  10.554   7.350
 7474POPC   C1B53779  15.873  10.744   6.450
 7474POPC   C2B53780  15.856  10.787   6.750
 7474POPC   C3B53781  15.904  10.754   7.050
 7474POPC   C4B53782  15.897  10.777   7.350
 7475POPC   NC353783  38.451  26.856   5.550
 7475POPC   PO453784  38.469  26.830   5.850
 7475POPC   GL153785  38.464  26.852   6.150
 7475POPC   GL253786  38.621  26.839   6.150
 7475POPC   C1A53787  38.479  26.830   6.450
 7475POPC   D2A53788  38.451  26.866   6.750
 7475POPC   C3A53789  38.496  26.860   7.050
 7475POPC   C4A53790  38.472  26.788   7.350
 7475POPC   C1B53791  38.682  26.869   6.450
 7475POPC   C2B53792  38.656  26.951   6.750
 7475POPC   C3B53793  38.701  26.946   7.050
 7475POPC   C4B53794  38.673  26.942   7.350
 7476POPC   NC353795  43.875  23.712   5.550
 7476POPC   PO453796  43.874  23.752   5.850
 7476POPC   GL153797  43.891  23.707   6.150
 7476POPC   GL253798  43.780  23.649   6.150
 7476POPC   C1A53799  43.882  23.730   6.450
 7476POPC   D2A53800  43.906  23.676   6.750
 7476POPC   C3A53801  43.913  23.683   7.050
 7476POPC   C4A53802  43.872  23.719   7.350
 7476POPC   C1B53803  43.628  23.553   6.450
 7476POPC   C2B53804  43.664  23.560   6.750
 7476POPC   C3B53805  43.691  23.592   7.050
 7476POPC   C4B53806  43.695  23.560   7.350
 7477POPC   NC353807   0.412  44.681   5.550
 7477POPC   PO453808   0.438  44.660   5.850
 7477POPC   GL153809   0.464  44.692   6.150
 7477POPC   GL253810   0.320  44.674   6.150
 7477POPC   C1A53811   0.485  44.687   6.450
 7477POPC   D2A53812   0.435  44.704   6.750
 7477POPC   C3A53813   0.421  44.650   7.050
 7477POPC   C4A53814   0.474  44.688   7.350
 7477POPC   C1B53815   0.246  44.568   6.450
 7477POPC   C2B53816   0.162  44.580   6.750
 7477POPC   C3B53817   0.210  44.568   7.050
 7477POPC   C4B53818   0.152  44.556   7.350
 7478POPC   NC353819  20.659  15.944   5.550
 7478POPC   PO453820  20.580  15.998   5.850
 7478POPC   GL153821  20.634  15.945   6.150
 7478POPC   GL253822  20.718  15.836   6.150
 7478POPC   C1A53823  20.588  15.916   6.450
 7478POPC   D2A53824  20.584  15.999   6.750
 7478POPC   C3A53825  20.622  15.978   7.050
 7478POPC   C4A53826  20.607  15.983   7.350
 7478POPC   C1B53827  20.837  15.766   6.450
 7478POPC   C2B53828  20.862  15.792   6.750
 7478POPC   C3B53829  20.772  15.851   7.050
 7478POPC   C4B53830  20.840  15.797   7.350
 7479POPC   NC353831   5.093   4.359   5.550
 7479POPC   PO453832   5.117   4.320   5.850
 7479POPC   GL153833   5.070   4.353   6.150
 7479POPC   GL253834   4.945   4.305   6.150
 7479POPC   C1A53835   5.112   4.301   6.450
 7479POPC   D2A53836   5.143   4.312   6.750
 7479POPC   C3A53837   5.079   4.354   7.050
 7479POPC   C4A53838   5.054   4.290   7.350
 7479POPC   C1B53839   4.817   4.290   6.450
 7479POPC   C2B53840   4.833   4.250   6.750
 7479POPC   C3B53841   4.813   4.288   7.050
 7479POPC   C4B53842   4.825   4.300   7.350
 7480POPC   NC353843  12.898  14.430   5.550
 7480POPC   PO453844  12.856  14.392   5.850
 7480POPC   GL153845  12.852  14.408   6.150
 7480POPC   GL253846  12.909  14.537   6.150
 7480POPC   C1A53847  12.891  14.397   6.450
 7480POPC   D2A53848  12.844  14.415   6.750
 7480POPC   C3A53849  12.862  14.396   7.050
 7480POPC   C4A53850  12.859  14.408   7.350
 7480POPC   C1B53851  12.914  14.656   6.450
 7480POPC   C2B53852  12.878  14.626   6.750
 7480POPC   C3B53853  12.931  14.625   7.050
 7480POPC   C4B53854  12.849  14.666   7.350
 7481POPC   NC353855  15.212  10.528   5.550
 7481POPC   PO453856  15.180  10.513   5.850
 7481POPC   GL153857  15.224  10.481   6.150
 7481POPC   GL253858  15.246  10.622   6.150
 7481POPC   C1A53859  15.167  10.567   6.450
 7481POPC   D2A53860  15.144  10.535   6.750
 7481POPC   C3A53861  15.191  10.540   7.050
 7481POPC   C4A53862  15.168  10.552   7.350
 7481POPC   C1B53863  15.262  10.807   6.450
 7481POPC   C2B53864  15.253  10.769   6.750
 7481POPC   C3B53865  15.191  10.800   7.050
 7481POPC   C4B53866  15.262  10.745   7.350
 7482POPC   NC353867   8.969  12.898   5.550
 7482POPC   PO453868   8.977  12.899   5.850
 7482POPC   GL153869   8.999  12.880   6.150
 7482POPC   GL253870   8.970  12.969   6.150
 7482POPC   C1A53871   8.981  12.894   6.450
 7482POPC   D2A53872   8.976  12.837   6.750
 7482POPC   C3A53873   9.017  12.891   7.050
 7482POPC   C4A53874   8.981  12.841   7.350
 7482POPC   C1B53875   8.939  13.091   6.450
 7482POPC   C2B53876   8.892  13.111   6.750
 7482POPC   C3B53877   8.892  13.094   7.050
 7482POPC   C4B53878   8.955  13.071   7.350
 7483POPC   NC353879  22.202  27.619   5.550
 7483POPC   PO453880  22.165  27.600   5.850
 7483POPC   GL153881  22.212  27.613   6.150
 7483POPC   GL253882  22.084  27.586   6.150
 7483POPC   C1A53883  22.187  27.608   6.450
 7483POPC   D2A53884  22.117  27.592   6.750
 7483POPC   C3A53885  22.129  27.550   7.050
 7483POPC   C4A53886  22.145  27.618   7.350
 7483POPC   C1B53887  21.958  27.689   6.450
 7483POPC   C2B53888  21.962  27.630   6.750
 7483POPC   C3B53889  21.940  27.690   7.050
 7483POPC   C4B53890  21.931  27.630   7.350
 7484POPC   NC353891  12.835  23.718   5.550
 7484POPC   PO453892  12.825  23.699   5.850
 7484POPC   GL153893  12.884  23.695   6.150
 7484POPC   GL253894  12.897  23.872   6.150
 7484POPC   C1A53895  12.825  23.702   6.450
 7484POPC   D2A53896  12.868  23.708   6.750
 7484POPC   C3A53897  12.868  23.737   7.050
 7484POPC   C4A53898  12.875  23.687   7.350
 7484POPC   C1B53899  12.907  23.931   6.450
 7484POPC   C2B53900  12.939  23.973   6.750
 7484POPC   C3B53901  12.921  23.923   7.050
 7484POPC   C4B53902  12.964  23.948   7.350
 7485POPC   NC353903   2.751  25.217   5.550
 7485POPC   PO453904   2.740  25.307   5.850
 7485POPC   GL153905   2.736  25.293   6.150
 7485POPC   GL253906   2.875  25.269   6.150
 7485POPC   C1A53907   2.780  25.259   6.450
 7485POPC   D2A53908   2.788  25.272   6.750
 7485POPC   C3A53909   2.751  25.278   7.050
 7485POPC   C4A53910   2.745  25.294   7.350
 7485POPC   C1B53911   2.985  25.182   6.450
 7485POPC   C2B53912   2.986  25.223   6.750
 7485POPC   C3B53913   3.007  25.168   7.050
 7485POPC   C4B53914   3.023  25.168   7.350
 7486POPC   NC353915  12.889   9.729   5.550
 7486POPC   PO453916  12.838   9.772   5.850
 7486POPC   GL153917  12.869   9.773   6.150
 7486POPC   GL253918  12.769   9.713   6.150
 7486POPC   C1A53919  12.839   9.754   6.450
 7486POPC   D2A53920  12.892   9.750   6.750
 7486POPC   C3A53921  12.887   9.730   7.050
 7486POPC   C4A53922  12.887   9.762   7.350
 7486POPC   C1B53923  12.573   9.732   6.450
 7486POPC   C2B53924  12.629   9.794   6.750
 7486POPC   C3B53925  12.632   9.775   7.050
 7486POPC   C4B53926  12.581   9.789   7.350
 7487POPC   NC353927  23.728  39.974   5.550
 7487POPC   PO453928  23.679  40.020   5.850
 7487POPC   GL153929  23.738  39.973   6.150
 7487POPC   GL253930  23.770  39.862   6.150
 7487POPC   C1A53931  23.717  39.966   6.450
 7487POPC   D2A53932  23.688  40.017   6.750
 7487POPC   C3A53933  23.719  40.029   7.050
 7487POPC   C4A53934  23.716  39.959   7.350
 7487POPC   C1B53935  23.726  39.809   6.450
 7487POPC   C2B53936  23.806  39.741   6.750
 7487POPC   C3B53937  23.723  39.738   7.050
 7487POPC   C4B53938  23.747  39.754   7.350
 7488POPC   NC353939  36.860  11.337   5.550
 7488POPC   PO453940  36.894  11.293   5.850
 7488POPC   GL153941  36.925  11.340   6.150
 7488POPC   GL253942  36.801  11.369   6.150
 7488POPC   C1A53943  36.916  11.334   6.450
 7488POPC   D2A53944  36.877  11.264   6.750
 7488POPC   C3A53945  36.897  11.292   7.050
 7488POPC   C4A53946  36.875  11.331   7.350
 7488POPC   C1B53947  36.664  11.400   6.450
 7488POPC   C2B53948  36.685  11.424   6.750
 7488POPC   C3B53949  36.677  11.337   7.050
 7488POPC   C4B53950  36.633  11.361   7.350
 7489POPC   NC353951  19.830  27.546   5.550
 7489POPC   PO453952  19.843  27.544   5.850
 7489POPC   GL153953  19.858  27.640   6.150
 7489POPC   GL253954  19.767  27.700   6.150
 7489POPC   C1A53955  19.837  27.581   6.450
 7489POPC   D2A53956  19.875  27.544   6.750
 7489POPC   C3A53957  19.800  27.635   7.050
 7489POPC   C4A53958  19.856  27.548   7.350
 7489POPC   C1B53959  19.699  27.810   6.450
 7489POPC   C2B53960  19.762  27.852   6.750
 7489POPC   C3B53961  19.792  27.780   7.050
 7489POPC   C4B53962  19.722  27.845   7.350
 7490POPC   NC353963  28.319  19.835   5.550
 7490POPC   PO453964  28.382  19.811   5.850
 7490POPC   GL153965  28.418  19.884   6.150
 7490POPC   GL253966  28.473  19.771   6.150
 7490POPC   C1A53967  28.322  19.854   6.450
 7490POPC   D2A53968  28.325  19.795   6.750
 7490POPC   C3A53969  28.413  19.838   7.050
 7490POPC   C4A53970  28.400  19.866   7.350
 7490POPC   C1B53971  28.567  19.776   6.450
 7490POPC   C2B53972  28.584  19.804   6.750
 7490POPC   C3B53973  28.588  19.791   7.050
 7490POPC   C4B53974  28.590  19.790   7.350
 7491POPC   NC353975  13.647  19.105   5.550
 7491POPC   PO453976  13.595  19.012   5.850
 7491POPC   GL153977  13.663  19.073   6.150
 7491POPC   GL253978  13.558  19.008   6.150
 7491POPC   C1A53979  13.665  19.077   6.450
 7491POPC   D2A53980  13.664  19.087   6.750
 7491POPC   C3A53981  13.581  19.064   7.050
 7491POPC   C4A53982  13.646  19.030   7.350
 7491POPC   C1B53983  13.473  18.944   6.450
 7491POPC   C2B53984  13.459  18.871   6.750
 7491POPC   C3B53985  13.391  18.928   7.050
 7491POPC   C4B53986  13.398  18.913   7.350
 7492POPC   NC353987  26.816  22.152   5.550
 7492POPC   PO453988  26.799  22.128   5.850
 7492POPC   GL153989  26.794  22.127   6.150
 7492POPC   GL253990  26.822  22.293   6.150
 7492POPC   C1A53991  26.782  22.201   6.450
 7492POPC   D2A53992  26.793  22.182   6.750
 7492POPC   C3A53993  26.867  22.202   7.050
 7492POPC   C4A53994  26.866  22.115   7.350
 7492POPC   C1B53995  26.801  22.395   6.450
 7492POPC   C2B53996  26.832  22.443   6.750
 7492POPC   C3B53997  26.801  22.457   7.050
 7492POPC   C4B53998  26.842  22.365   7.350
 7493POPC   NC353999   1.251   4.357   5.550
 7493POPC   PO454000   1.215   4.327   5.850
 7493POPC   GL154001   1.207   4.358   6.150
 7493POPC   GL254002   1.154   4.203   6.150
 7493POPC   C1A54003   1.204   4.313   6.450
 7493POPC   D2A54004   1.203   4.305   6.750
 7493POPC   C3A54005   1.239   4.363   7.050
 7493POPC   C4A54006   1.261   4.326   7.350
 7493POPC   C1B54007   0.980   4.184   6.450
 7493POPC   C2B54008   0.995   4.171   6.750
 7493POPC   C3B54009   1.018   4.148   7.050
 7493POPC   C4B54010   0.991   4.132   7.350
 7494POPC   NC354011  40.051  30.720   5.550
 7494POPC   PO454012  39.983  30.709   5.850
 7494POPC   GL154013  39.984  30.707   6.150
 7494POPC   GL254014  39.943  30.575   6.150
 7494POPC   C1A54015  39.980  30.731   6.450
 7494POPC   D2A54016  40.044  30.732   6.750
 7494POPC   C3A54017  40.021  30.670   7.050
 7494POPC   C4A54018  40.035  30.681   7.350
 7494POPC   C1B54019  39.998  30.478   6.450
 7494POPC   C2B54020  39.992  30.460   6.750
 7494POPC   C3B54021  39.948  30.419   7.050
 7494POPC   C4B54022  39.982  30.466   7.350
 7495POPC   NC354023   5.833  42.360   5.550
 7495POPC   PO454024   5.840  42.350   5.850
 7495POPC   GL154025   5.863  42.360   6.150
 7495POPC   GL254026   5.836  42.484   6.150
 7495POPC   C1A54027   5.836  42.317   6.450
 7495POPC   D2A54028   5.899  42.343   6.750
 7495POPC   C3A54029   5.872  42.367   7.050
 7495POPC   C4A54030   5.898  42.336   7.350
 7495POPC   C1B54031   5.699  42.593   6.450
 7495POPC   C2B54032   5.695  42.544   6.750
 7495POPC   C3B54033   5.700  42.569   7.050
 7495POPC   C4B54034   5.732  42.596   7.350
 7496POPC   NC354035   5.114  43.132   5.550
 7496POPC   PO454036   5.078  43.137   5.850
 7496POPC   GL154037   5.097  43.068   6.150
 7496POPC   GL254038   5.084  43.279   6.150
 7496POPC   C1A54039   5.074  43.093   6.450
 7496POPC   D2A54040   5.114  43.139   6.750
 7496POPC   C3A54041   5.112  43.135   7.050
 7496POPC   C4A54042   5.097  43.131   7.350
 7496POPC   C1B54043   5.094  43.375   6.450
 7496POPC   C2B54044   5.097  43.383   6.750
 7496POPC   C3B54045   5.093  43.309   7.050
 7496POPC   C4B54046   5.077  43.386   7.350
 7497POPC   NC354047   8.952  41.536   5.550
 7497POPC   PO454048   8.957  41.530   5.850
 7497POPC   GL154049   8.975  41.593   6.150
 7497POPC   GL254050   9.052  41.590   6.150
 7497POPC   C1A54051   8.980  41.549   6.450
 7497POPC   D2A54052   8.971  41.549   6.750
 7497POPC   C3A54053   8.996  41.608   7.050
 7497POPC   C4A54054   8.934  41.539   7.350
 7497POPC   C1B54055   9.182  41.638   6.450
 7497POPC   C2B54056   9.191  41.631   6.750
 7497POPC   C3B54057   9.227  41.656   7.050
 7497POPC   C4B54058   9.249  41.650   7.350
 7498POPC   NC354059  37.654  36.118   5.550
 7498POPC   PO454060  37.645  36.122   5.850
 7498POPC   GL154061  37.675  36.147   6.150
 7498POPC   GL254062  37.705  36.031   6.150
 7498POPC   C1A54063  37.641  36.156   6.450
 7498POPC   D2A54064  37.725  36.165   6.750
 7498POPC   C3A54065  37.672  36.123   7.050
 7498POPC   C4A54066  37.678  36.152   7.350
 7498POPC   C1B54067  37.628  35.836   6.450
 7498POPC   C2B54068  37.642  35.869   6.750
 7498POPC   C3B54069  37.713  35.922   7.050
 7498POPC   C4B54070  37.702  35.857   7.350
 7499POPC   NC354071  26.024  23.669   5.550
 7499POPC   PO454072  26.052  23.748   5.850
 7499POPC   GL154073  26.040  23.754   6.150
 7499POPC   GL254074  25.916  23.622   6.150
 7499POPC   C1A54075  26.069  23.687   6.450
 7499POPC   D2A54076  25.997  23.670   6.750
 7499POPC   C3A54077  26.078  23.720   7.050
 7499POPC   C4A54078  26.066  23.692   7.350
 7499POPC   C1B54079  25.923  23.518   6.450
 7499POPC   C2B54080  25.921  23.562   6.750
 7499POPC   C3B54081  25.839  23.505   7.050
 7499POPC   C4B54082  25.849  23.500   7.350
 7500POPC   NC354083  16.710   2.736   5.550
 7500POPC   PO454084  16.725   2.756   5.850
 7500POPC   GL154085  16.704   2.741   6.150
 7500POPC   GL254086  16.745   2.922   6.150
 7500POPC   C1A54087  16.688   2.808   6.450
 7500POPC   D2A54088  16.735   2.743   6.750
 7500POPC   C3A54089  16.690   2.752   7.050
 7500POPC   C4A54090  16.736   2.722   7.350
 7500POPC   C1B54091  16.815   3.036   6.450
 7500POPC   C2B54092  16.782   2.962   6.750
 7500POPC   C3B54093  16.847   3.004   7.050
 7500POPC   C4B54094  16.836   3.035   7.350
 7501POPC   NC354095  28.347   9.013   5.550
 7501POPC   PO454096  28.388   8.944   5.850
 7501POPC   GL154097  28.337   8.927   6.150
 7501POPC   GL254098  28.295   8.898   6.150
 7501POPC   C1A54099  28.369   8.929   6.450
 7501POPC   D2A54100  28.406   8.982   6.750
 7501POPC   C3A54101  28.321   8.931   7.050
 7501POPC   C4A54102  28.377   8.954   7.350
 7501POPC   C1B54103  28.149   8.859   6.450
 7501POPC   C2B54104  28.172   8.886   6.750
 7501POPC   C3B54105  28.182   8.874   7.050
 7501POPC   C4B54106  28.087   8.916   7.350
 7502POPC   NC354107  29.898  43.850   5.550
 7502POPC   PO454108  29.969  43.889   5.850
 7502POPC   GL154109  29.885  43.921   6.150
 7502POPC   GL254110  30.011  43.929   6.150
 7502POPC   C1A54111  29.944  43.867   6.450
 7502POPC   D2A54112  29.882  43.858   6.750
 7502POPC   C3A54113  29.963  43.844   7.050
 7502POPC   C4A54114  29.917  43.910   7.350
 7502POPC   C1B54115  30.154  44.022   6.450
 7502POPC   C2B54116  30.153  44.005   6.750
 7502POPC   C3B54117  30.149  43.937   7.050
 7502POPC   C4B54118  30.112  43.950   7.350
 7503POPC   NC354119  40.765  36.896   5.550
 7503POPC   PO454120  40.740  36.926   5.850
 7503POPC   GL154121  40.832  36.853   6.150
 7503POPC   GL254122  40.621  36.871   6.150
 7503POPC   C1A54123  40.761  36.858   6.450
 7503POPC   D2A54124  40.799  36.880   6.750
 7503POPC   C3A54125  40.830  36.945   7.050
 7503POPC   C4A54126  40.802  36.903   7.350
 7503POPC   C1B54127  40.506  36.787   6.450
 7503POPC   C2B54128  40.536  36.857   6.750
 7503POPC   C3B54129  40.583  36.858   7.050
 7503POPC   C4B54130  40.558  36.847   7.350
 7504POPC   NC354131  16.706  27.587   5.550
 7504POPC   PO454132  16.752  27.603   5.850
 7504POPC   GL154133  16.770  27.565   6.150
 7504POPC   GL254134  16.707  27.700   6.150
 7504POPC   C1A54135  16.740  27.562   6.450
 7504POPC   D2A54136  16.750  27.626   6.750
 7504POPC   C3A54137  16.714  27.559   7.050
 7504POPC   C4A54138  16.776  27.556   7.350
 7504POPC   C1B54139  16.626  27.826   6.450
 7504POPC   C2B54140  16.627  27.811   6.750
 7504POPC   C3B54141  16.625  27.806   7.050
 7504POPC   C4B54142  16.604  27.838   7.350
 7505POPC   NC354143   5.854  20.651   5.550
 7505POPC   PO454144   5.834  20.638   5.850
 7505POPC   GL154145   5.902  20.620   6.150
 7505POPC   GL254146   5.793  20.537   6.150
 7505POPC   C1A54147   5.833  20.645   6.450
 7505POPC   D2A54148   5.891  20.602   6.750
 7505POPC   C3A54149   5.879  20.561   7.050
 7505POPC   C4A54150   5.895  20.588   7.350
 7505POPC   C1B54151   5.836  20.337   6.450
 7505POPC   C2B54152   5.784  20.323   6.750
 7505POPC   C3B54153   5.845  20.366   7.050
 7505POPC   C4B54154   5.823  20.379   7.350
 7506POPC   NC354155  13.607  11.266   5.550
 7506POPC   PO454156  13.665  11.292   5.850
 7506POPC   GL154157  13.655  11.322   6.150
 7506POPC   GL254158  13.763  11.350   6.150
 7506POPC   C1A54159  13.592  11.269   6.450
 7506POPC   D2A54160  13.578  11.297   6.750
 7506POPC   C3A54161  13.584  11.272   7.050
 7506POPC   C4A54162  13.605  11.264   7.350
 7506POPC   C1B54163  13.855  11.376   6.450
 7506POPC   C2B54164  13.886  11.377   6.750
 7506POPC   C3B54165  13.882  11.389   7.050
 7506POPC   C4B54166  13.870  11.348   7.350
 7507POPC   NC354167  12.851  15.939   5.550
 7507POPC   PO454168  12.887  15.951   5.850
 7507POPC   GL154169  12.871  15.920   6.150
 7507POPC   GL254170  12.932  16.066   6.150
 7507POPC   C1A54171  12.878  15.984   6.450
 7507POPC   D2A54172  12.847  15.979   6.750
 7507POPC   C3A54173  12.869  15.936   7.050
 7507POPC   C4A54174  12.857  15.914   7.350
 7507POPC   C1B54175  12.979  16.141   6.450
 7507POPC   C2B54176  12.993  16.208   6.750
 7507POPC   C3B54177  12.986  16.191   7.050
 7507POPC   C4B54178  13.002  16.220   7.350
 7508POPC   NC354179  42.339  34.570   5.550
 7508POPC   PO454180  42.349  34.546   5.850
 7508POPC   GL154181  42.334  34.596   6.150
 7508POPC   GL254182  42.446  34.645   6.150
 7508POPC   C1A54183  42.291  34.533   6.450
 7508POPC   D2A54184  42.327  34.537   6.750
 7508POPC   C3A54185  42.340  34.531   7.050
 7508POPC   C4A54186  42.364  34.554   7.350
 7508POPC   C1B54187  42.516  34.778   6.450
 7508POPC   C2B54188  42.542  34.716   6.750
 7508POPC   C3B54189  42.505  34.706   7.050
 7508POPC   C4B54190  42.572  34.746   7.350
 7509POPC   NC354191  39.962  33.812   5.550
 7509POPC   PO454192  39.959  33.756   5.850
 7509POPC   GL154193  40.048  33.847   6.150
 7509POPC   GL254194  39.901  33.861   6.150
 7509POPC   C1A54195  39.960  33.769   6.450
 7509POPC   D2A54196  40.039  33.800   6.750
 7509POPC   C3A54197  40.027  33.771   7.050
 7509POPC   C4A54198  40.043  33.774   7.350
 7509POPC   C1B54199  39.801  33.932   6.450
 7509POPC   C2B54200  39.773  33.992   6.750
 7509POPC   C3B54201  39.849  33.924   7.050
 7509POPC   C4B54202  39.868  34.011   7.350
 7510POPC   NC354203  34.613  35.321   5.550
 7510POPC   PO454204  34.544  35.395   5.850
 7510POPC   GL154205  34.614  35.394   6.150
 7510POPC   GL254206  34.692  35.249   6.150
 7510POPC   C1A54207  34.558  35.395   6.450
 7510POPC   D2A54208  34.560  35.374   6.750
 7510POPC   C3A54209  34.581  35.335   7.050
 7510POPC   C4A54210  34.595  35.327   7.350
 7510POPC   C1B54211  34.768  35.233   6.450
 7510POPC   C2B54212  34.773  35.198   6.750
 7510POPC   C3B54213  34.772  35.189   7.050
 7510POPC   C4B54214  34.809  35.189   7.350
 7511POPC   NC354215   8.998  15.918   5.550
 7511POPC   PO454216   9.020  15.957   5.850
 7511POPC   GL154217   9.012  15.931   6.150
 7511POPC   GL254218   8.863  15.894   6.150
 7511POPC   C1A54219   9.009  15.974   6.450
 7511POPC   D2A54220   8.948  15.943   6.750
 7511POPC   C3A54221   8.955  15.957   7.050
 7511POPC   C4A54222   8.931  15.943   7.350
 7511POPC   C1B54223   8.878  15.752   6.450
 7511POPC   C2B54224   8.851  15.724   6.750
 7511POPC   C3B54225   8.876  15.756   7.050
 7511POPC   C4B54226   8.858  15.783   7.350
 7512POPC   NC354227  22.919  10.477   5.550
 7512POPC   PO454228  22.904  10.522   5.850
 7512POPC   GL154229  22.900  10.487   6.150
 7512POPC   GL254230  22.826  10.421   6.150
 7512POPC   C1A54231  22.910  10.480   6.450
 7512POPC   D2A54232  22.927  10.533   6.750
 7512POPC   C3A54233  22.976  10.543   7.050
 7512POPC   C4A54234  22.975  10.559   7.350
 7512POPC   C1B54235  22.723  10.350   6.450
 7512POPC   C2B54236  22.744  10.381   6.750
 7512POPC   C3B54237  22.795  10.337   7.050
 7512POPC   C4B54238  22.740  10.406   7.350
 7513POPC   NC354239   8.213  21.432   5.550
 7513POPC   PO454240   8.184  21.351   5.850
 7513POPC   GL154241   8.241  21.392   6.150
 7513POPC   GL254242   8.252  21.321   6.150
 7513POPC   C1A54243   8.181  21.344   6.450
 7513POPC   D2A54244   8.168  21.404   6.750
 7513POPC   C3A54245   8.234  21.402   7.050
 7513POPC   C4A54246   8.177  21.352   7.350
 7513POPC   C1B54247   8.371  21.168   6.450
 7513POPC   C2B54248   8.381  21.144   6.750
 7513POPC   C3B54249   8.384  21.216   7.050
 7513POPC   C4B54250   8.373  21.155   7.350
 7514POPC   NC354251  26.775  11.350   5.550
 7514POPC   PO454252  26.777  11.250   5.850
 7514POPC   GL154253  26.861  11.307   6.150
 7514POPC   GL254254  26.735  11.442   6.150
 7514POPC   C1A54255  26.780  11.259   6.450
 7514POPC   D2A54256  26.821  11.268   6.750
 7514POPC   C3A54257  26.833  11.262   7.050
 7514POPC   C4A54258  26.778  11.328   7.350
 7514POPC   C1B54259  26.658  11.476   6.450
 7514POPC   C2B54260  26.646  11.441   6.750
 7514POPC   C3B54261  26.689  11.508   7.050
 7514POPC   C4B54262  26.672  11.527   7.350
 7515POPC   NC354263  34.618  12.861   5.550
 7515POPC   PO454264  34.587  12.814   5.850
 7515POPC   GL154265  34.563  12.885   6.150
 7515POPC   GL254266  34.689  12.829   6.150
 7515POPC   C1A54267  34.549  12.817   6.450
 7515POPC   D2A54268  34.574  12.860   6.750
 7515POPC   C3A54269  34.573  12.850   7.050
 7515POPC   C4A54270  34.608  12.812   7.350
 7515POPC   C1B54271  34.796  12.687   6.450
 7515POPC   C2B54272  34.780  12.757   6.750
 7515POPC   C3B54273  34.838  12.691   7.050
 7515POPC   C4B54274  34.798  12.676   7.350
 7516POPC   NC354275  26.789  14.357   5.550
 7516POPC   PO454276  26.818  14.406   5.850
 7516POPC   GL154277  26.807  14.447   6.150
 7516POPC   GL254278  26.905  14.479   6.150
 7516POPC   C1A54279  26.774  14.438   6.450
 7516POPC   D2A54280  26.835  14.450   6.750
 7516POPC   C3A54281  26.782  14.358   7.050
 7516POPC   C4A54282  26.789  14.441   7.350
 7516POPC   C1B54283  26.926  14.594   6.450
 7516POPC   C2B54284  26.883  14.637   6.750
 7516POPC   C3B54285  26.917  14.642   7.050
 7516POPC   C4B54286  26.878  14.650   7.350
 7517POPC   NC354287  22.122  37.710   5.550
 7517POPC   PO454288  22.206  37.723   5.850
 7517POPC   GL154289  22.148  37.673   6.150
 7517POPC   GL254290  22.113  37.807   6.150
 7517POPC   C1A54291  22.126  37.650   6.450
 7517POPC   D2A54292  22.200  37.648   6.750
 7517POPC   C3A54293  22.161  37.667   7.050
 7517POPC   C4A54294  22.112  37.630   7.350
 7517POPC   C1B54295  22.092  37.862   6.450
 7517POPC   C2B54296  22.107  37.930   6.750
 7517POPC   C3B54297  22.074  37.895   7.050
 7517POPC   C4B54298  22.076  37.872   7.350
 7518POPC   NC354299  35.369  39.183   5.550
 7518POPC   PO454300  35.326  39.194   5.850
 7518POPC   GL154301  35.324  39.245   6.150
 7518POPC   GL254302  35.490  39.276   6.150
 7518POPC   C1A54303  35.327  39.189   6.450
 7518POPC   D2A54304  35.363  39.209   6.750
 7518POPC   C3A54305  35.396  39.279   7.050
 7518POPC   C4A54306  35.353  39.214   7.350
 7518POPC   C1B54307  35.603  39.351   6.450
 7518POPC   C2B54308  35.552  39.277   6.750
 7518POPC   C3B54309  35.548  39.341   7.050
 7518POPC   C4B54310  35.547  39.313   7.350
 7519POPC   NC354311  29.144  31.507   5.550
 7519POPC   PO454312  29.150  31.482   5.850
 7519POPC   GL154313  29.105  31.473   6.150
 7519POPC   GL254314  29.044  31.586   6.150
 7519POPC   C1A54315  29.118  31.517   6.450
 7519POPC   D2A54316  29.130  31.511   6.750
 7519POPC   C3A54317  29.146  31.434   7.050
 7519POPC   C4A54318  29.116  31.491   7.350
 7519POPC   C1B54319  29.017  31.621   6.450
 7519POPC   C2B54320  28.980  31.624   6.750
 7519POPC   C3B54321  29.032  31.666   7.050
 7519POPC   C4B54322  28.965  31.628   7.350
 7520POPC   NC354323  44.633  33.058   5.550
 7520POPC   PO454324  44.648  32.994   5.850
 7520POPC   GL154325  44.710  33.073   6.150
 7520POPC   GL254326  44.572  33.151   6.150
 7520POPC   C1A54327  44.656  33.018   6.450
 7520POPC   D2A54328  44.621  32.989   6.750
 7520POPC   C3A54329  44.707  33.026   7.050
 7520POPC   C4A54330  44.650  32.982   7.350
 7520POPC   C1B54331  44.610  33.295   6.450
 7520POPC   C2B54332  44.551  33.292   6.750
 7520POPC   C3B54333  44.570  33.272   7.050
 7520POPC   C4B54334  44.603  33.212   7.350
 7521POPC   NC354335  27.594  26.089   5.550
 7521POPC   PO454336  27.582  26.086   5.850
 7521POPC   GL154337  27.604  26.015   6.150
 7521POPC   GL254338  27.662  26.008   6.150
 7521POPC   C1A54339  27.565  26.024   6.450
 7521POPC   D2A54340  27.589  26.053   6.750
 7521POPC   C3A54341  27.643  26.013   7.050
 7521POPC   C4A54342  27.570  26.064   7.350
 7521POPC   C1B54343  27.856  25.900   6.450
 7521POPC   C2B54344  27.793  25.896   6.750
 7521POPC   C3B54345  27.794  25.934   7.050
 7521POPC   C4B54346  27.796  25.899   7.350
 7522POPC   NC354347   2.729  23.673   5.550
 7522POPC   PO454348   2.800  23.678   5.850
 7522POPC   GL154349   2.776  23.666   6.150
 7522POPC   GL254350   2.716  23.617   6.150
 7522POPC   C1A54351   2.722  23.752   6.450
 7522POPC   D2A54352   2.745  23.679   6.750
 7522POPC   C3A54353   2.735  23.676   7.050
 7522POPC   C4A54354   2.769  23.668   7.350
 7522POPC   C1B54355   2.645  23.541   6.450
 7522POPC   C2B54356   2.574  23.543   6.750
 7522POPC   C3B54357   2.636  23.548   7.050
 7522POPC   C4B54358   2.590  23.549   7.350
 7523POPC   NC354359  26.866   7.442   5.550
 7523POPC   PO454360  26.844   7.450   5.850
 7523POPC   GL154361  26.836   7.397   6.150
 7523POPC   GL254362  26.687   7.378   6.150
 7523POPC   C1A54363  26.785   7.429   6.450
 7523POPC   D2A54364  26.790   7.435   6.750
 7523POPC   C3A54365  26.796   7.468   7.050
 7523POPC   C4A54366  26.809   7.452   7.350
 7523POPC   C1B54367  26.605   7.385   6.450
 7523POPC   C2B54368  26.591   7.344   6.750
 7523POPC   C3B54369  26.612   7.362   7.050
 7523POPC   C4B54370  26.555   7.394   7.350
 7524POPC   NC354371   8.984  34.560   5.550
 7524POPC   PO454372   8.987  34.580   5.850
 7524POPC   GL154373   8.986  34.590   6.150
 7524POPC   GL254374   8.924  34.475   6.150
 7524POPC   C1A54375   9.015  34.604   6.450
 7524POPC   D2A54376   8.923  34.588   6.750
 7524POPC   C3A54377   9.019  34.610   7.050
 7524POPC   C4A54378   8.993  34.608   7.350
 7524POPC   C1B54379   8.821  34.379   6.450
 7524POPC   C2B54380   8.851  34.357   6.750
 7524POPC   C3B54381   8.829  34.385   7.050
 7524POPC   C4B54382   8.834  34.364   7.350
 7525POPC   NC354383  29.109  27.561   5.550
 7525POPC   PO454384  29.154  27.573   5.850
 7525POPC   GL154385  29.145  27.592   6.150
 7525POPC   GL254386  29.015  27.617   6.150
 7525POPC   C1A54387  29.120  27.581   6.450
 7525POPC   D2A54388  29.126  27.604   6.750
 7525POPC   C3A54389  29.170  27.565   7.050
 7525POPC   C4A54390  29.100  27.592   7.350
 7525POPC   C1B54391  28.920  27.666   6.450
 7525POPC   C2B54392  28.909  27.656   6.750
 7525POPC   C3B54393  28.918  27.642   7.050
 7525POPC   C4B54394  28.941  27.716   7.350
 7526POPC   NC354395  12.027  26.856   5.550
 7526POPC   PO454396  12.081  26.822   5.850
 7526POPC   GL154397  12.036  26.796   6.150
 7526POPC   GL254398  12.160  26.664   6.150
 7526POPC   C1A54399  12.066  26.796   6.450
 7526POPC   D2A54400  12.052  26.838   6.750
 7526POPC   C3A54401  12.046  26.854   7.050
 7526POPC   C4A54402  12.066  26.801   7.350
 7526POPC   C1B54403  12.134  26.560   6.450
 7526POPC   C2B54404  12.169  26.538   6.750
 7526POPC   C3B54405  12.121  26.555   7.050
 7526POPC   C4B54406  12.150  26.533   7.350
 7527POPC   NC354407  36.927  22.944   5.550
 7527POPC   PO454408  36.906  22.923   5.850
 7527POPC   GL154409  36.862  22.937   6.150
 7527POPC   GL254410  36.889  22.815   6.150
 7527POPC   C1A54411  36.924  22.901   6.450
 7527POPC   D2A54412  36.938  22.890   6.750
 7527POPC   C3A54413  36.880  22.932   7.050
 7527POPC   C4A54414  36.867  22.985   7.350
 7527POPC   C1B54415  36.898  22.680   6.450
 7527POPC   C2B54416  36.886  22.690   6.750
 7527POPC   C3B54417  36.817  22.729   7.050
 7527POPC   C4B54418  36.891  22.725   7.350
 7528POPC   NC354419   7.411  40.805   5.550
 7528POPC   PO454420   7.449  40.814   5.850
 7528POPC   GL154421   7.409  40.742   6.150
 7528POPC   GL254422   7.343  40.701   6.150
 7528POPC   C1A54423   7.429  40.810   6.450
 7528POPC   D2A54424   7.390  40.793   6.750
 7528POPC   C3A54425   7.408  40.745   7.050
 7528POPC   C4A54426   7.395  40.792   7.350
 7528POPC   C1B54427   7.190  40.702   6.450
 7528POPC   C2B54428   7.227  40.690   6.750
 7528POPC   C3B54429   7.225  40.638   7.050
 7528POPC   C4B54430   7.204  40.640   7.350
 7529POPC   NC354431  34.528  32.997   5.550
 7529POPC   PO454432  34.544  32.992   5.850
 7529POPC   GL154433  34.553  33.024   6.150
 7529POPC   GL254434  34.555  32.891   6.150
 7529POPC   C1A54435  34.604  33.034   6.450
 7529POPC   D2A54436  34.590  33.035   6.750
 7529POPC   C3A54437  34.549  33.023   7.050
 7529POPC   C4A54438  34.579  33.056   7.350
 7529POPC   C1B54439  34.560  32.749   6.450
 7529POPC   C2B54440  34.470  32.771   6.750
 7529POPC   C3B54441  34.469  32.799   7.050
 7529POPC   C4B54442  34.538  32.760   7.350
 7530POPC   NC354443  14.410   8.170   5.550
 7530POPC   PO454444  14.358   8.189   5.850
 7530POPC   GL154445  14.428   8.196   6.150
 7530POPC   GL254446  14.277   8.261   6.150
 7530POPC   C1A54447  14.400   8.245   6.450
 7530POPC   D2A54448  14.383   8.148   6.750
 7530POPC   C3A54449  14.426   8.191   7.050
 7530POPC   C4A54450  14.432   8.222   7.350
 7530POPC   C1B54451  14.144   8.298   6.450
 7530POPC   C2B54452  14.228   8.366   6.750
 7530POPC   C3B54453  14.186   8.315   7.050
 7530POPC   C4B54454  14.162   8.351   7.350
 7531POPC   NC354455  43.139  11.303   5.550
 7531POPC   PO454456  43.154  11.331   5.850
 7531POPC   GL154457  43.151  11.336   6.150
 7531POPC   GL254458  43.011  11.304   6.150
 7531POPC   C1A54459  43.063  11.283   6.450
 7531POPC   D2A54460  43.097  11.269   6.750
 7531POPC   C3A54461  43.131  11.279   7.050
 7531POPC   C4A54462  43.064  11.284   7.350
 7531POPC   C1B54463  42.905  11.350   6.450
 7531POPC   C2B54464  42.820  11.326   6.750
 7531POPC   C3B54465  42.830  11.361   7.050
 7531POPC   C4B54466  42.838  11.305   7.350
 7532POPC   NC354467  36.110  34.592   5.550
 7532POPC   PO454468  36.146  34.612   5.850
 7532POPC   GL154469  36.136  34.543   6.150
 7532POPC   GL254470  36.068  34.415   6.150
 7532POPC   C1A54471  36.126  34.598   6.450
 7532POPC   D2A54472  36.152  34.613   6.750
 7532POPC   C3A54473  36.134  34.606   7.050
 7532POPC   C4A54474  36.144  34.608   7.350
 7532POPC   C1B54475  36.104  34.310   6.450
 7532POPC   C2B54476  36.083  34.318   6.750
 7532POPC   C3B54477  36.097  34.336   7.050
 7532POPC   C4B54478  36.085  34.314   7.350
 7533POPC   NC354479  11.346  37.702   5.550
 7533POPC   PO454480  11.310  37.728   5.850
 7533POPC   GL154481  11.253  37.660   6.150
 7533POPC   GL254482  11.388  37.609   6.150
 7533POPC   C1A54483  11.255  37.678   6.450
 7533POPC   D2A54484  11.262  37.691   6.750
 7533POPC   C3A54485  11.255  37.645   7.050
 7533POPC   C4A54486  11.300  37.670   7.350
 7533POPC   C1B54487  11.467  37.495   6.450
 7533POPC   C2B54488  11.455  37.421   6.750
 7533POPC   C3B54489  11.431  37.494   7.050
 7533POPC   C4B54490  11.444  37.450   7.350
 7534POPC   NC354491  33.039   1.179   5.550
 7534POPC   PO454492  33.017   1.261   5.850
 7534POPC   GL154493  33.013   1.244   6.150
 7534POPC   GL254494  32.978   1.075   6.150
 7534POPC   C1A54495  33.029   1.196   6.450
 7534POPC   D2A54496  32.976   1.220   6.750
 7534POPC   C3A54497  33.030   1.258   7.050
 7534POPC   C4A54498  33.054   1.234   7.350
 7534POPC   C1B54499  32.871   1.035   6.450
 7534POPC   C2B54500  32.875   1.038   6.750
 7534POPC   C3B54501  32.914   1.007   7.050
 7534POPC   C4B54502  32.892   0.971   7.350
 7535POPC   NC354503   8.951  16.692   5.550
 7535POPC   PO454504   8.981  16.707   5.850
 7535POPC   GL154505   9.019  16.773   6.150
 7535POPC   GL254506   9.070  16.689   6.150
 7535POPC   C1A54507   8.937  16.691   6.450
 7535POPC   D2A54508   9.012  16.747   6.750
 7535POPC   C3A54509   8.965  16.706   7.050
 7535POPC   C4A54510   8.973  16.733   7.350
 7535POPC   C1B54511   9.203  16.726   6.450
 7535POPC   C2B54512   9.227  16.726   6.750
 7535POPC   C3B54513   9.271  16.787   7.050
 7535POPC   C4B54514   9.205  16.718   7.350
 7536POPC   NC354515  32.995  36.098   5.550
 7536POPC   PO454516  33.060  36.112   5.850
 7536POPC   GL154517  33.039  36.101   6.150
 7536POPC   GL254518  32.929  36.269   6.150
 7536POPC   C1A54519  33.040  36.151   6.450
 7536POPC   D2A54520  33.019  36.154   6.750
 7536POPC   C3A54521  33.012  36.124   7.050
 7536POPC   C4A54522  33.022  36.133   7.350
 7536POPC   C1B54523  32.868  36.337   6.450
 7536POPC   C2B54524  32.817  36.276   6.750
 7536POPC   C3B54525  32.895  36.307   7.050
 7536POPC   C4B54526  32.830  36.299   7.350
 7537POPC   NC354527  28.396  26.768   5.550
 7537POPC   PO454528  28.370  26.779   5.850
 7537POPC   GL154529  28.373  26.829   6.150
 7537POPC   GL254530  28.321  26.656   6.150
 7537POPC   C1A54531  28.347  26.865   6.450
 7537POPC   D2A54532  28.379  26.826   6.750
 7537POPC   C3A54533  28.406  26.821   7.050
 7537POPC   C4A54534  28.402  26.817   7.350
 7537POPC   C1B54535  28.310  26.539   6.450
 7537POPC   C2B54536  28.356  26.612   6.750
 7537POPC   C3B54537  28.380  26.605   7.050
 7537POPC   C4B54538  28.355  26.522   7.350
 7538POPC   NC354539  19.803  16.773   5.550
 7538POPC   PO454540  19.830  16.727   5.850
 7538POPC   GL154541  19.796  16.725   6.150
 7538POPC   GL254542  19.760  16.725   6.150
 7538POPC   C1A54543  19.849  16.695   6.450
 7538POPC   D2A54544  19.787  16.735   6.750
 7538POPC   C3A54545  19.822  16.691   7.050
 7538POPC   C4A54546  19.805  16.701   7.350
 7538POPC   C1B54547  19.582  16.678   6.450
 7538POPC   C2B54548  19.633  16.657   6.750
 7538POPC   C3B54549  19.565  16.621   7.050
 7538POPC   C4B54550  19.616  16.700   7.350
 7539POPC   NC354551  26.836  29.907   5.550
 7539POPC   PO454552  26.841  29.902   5.850
 7539POPC   GL154553  26.860  29.891   6.150
 7539POPC   GL254554  26.929  29.982   6.150
 7539POPC   C1A54555  26.774  29.942   6.450
 7539POPC   D2A54556  26.794  29.962   6.750
 7539POPC   C3A54557  26.857  29.951   7.050
 7539POPC   C4A54558  26.855  29.943   7.350
 7539POPC   C1B54559  27.029  30.070   6.450
 7539POPC   C2B54560  27.060  30.033   6.750
 7539POPC   C3B54561  27.042  29.987   7.050
 7539POPC   C4B54562  27.041  30.061   7.350
 7540POPC   NC354563  22.127  29.165   5.550
 7540POPC   PO454564  22.183  29.165   5.850
 7540POPC   GL154565  22.176  29.191   6.150
 7540POPC   GL254566  22.155  29.261   6.150
 7540POPC   C1A54567  22.152  29.145   6.450
 7540POPC   D2A54568  22.197  29.143   6.750
 7540POPC   C3A54569  22.121  29.181   7.050
 7540POPC   C4A54570  22.125  29.152   7.350
 7540POPC   C1B54571  22.169  29.401   6.450
 7540POPC   C2B54572  22.161  29.439   6.750
 7540POPC   C3B54573  22.213  29.363   7.050
 7540POPC   C4B54574  22.154  29.401   7.350
 7541POPC   NC354575  11.286   7.396   5.550
 7541POPC   PO454576  11.288   7.421   5.850
 7541POPC   GL154577  11.311   7.464   6.150
 7541POPC   GL254578  11.414   7.419   6.150
 7541POPC   C1A54579  11.344   7.415   6.450
 7541POPC   D2A54580  11.297   7.395   6.750
 7541POPC   C3A54581  11.250   7.413   7.050
 7541POPC   C4A54582  11.252   7.403   7.350
 7541POPC   C1B54583  11.538   7.464   6.450
 7541POPC   C2B54584  11.577   7.408   6.750
 7541POPC   C3B54585  11.553   7.455   7.050
 7541POPC   C4B54586  11.567   7.444   7.350
 7542POPC   NC354587  21.347  35.384   5.550
 7542POPC   PO454588  21.422  35.311   5.850
 7542POPC   GL154589  21.421  35.399   6.150
 7542POPC   GL254590  21.302  35.363   6.150
 7542POPC   C1A54591  21.365  35.383   6.450
 7542POPC   D2A54592  21.355  35.367   6.750
 7542POPC   C3A54593  21.421  35.321   7.050
 7542POPC   C4A54594  21.358  35.347   7.350
 7542POPC   C1B54595  21.181  35.348   6.450
 7542POPC   C2B54596  21.116  35.431   6.750
 7542POPC   C3B54597  21.148  35.408   7.050
 7542POPC   C4B54598  21.166  35.361   7.350
 7543POPC   NC354599  41.587  37.684   5.550
 7543POPC   PO454600  41.530  37.643   5.850
 7543POPC   GL154601  41.574  37.650   6.150
 7543POPC   GL254602  41.471  37.600   6.150
 7543POPC   C1A54603  41.509  37.661   6.450
 7543POPC   D2A54604  41.554  37.713   6.750
 7543POPC   C3A54605  41.566  37.722   7.050
 7543POPC   C4A54606  41.542  37.637   7.350
 7543POPC   C1B54607  41.415  37.463   6.450
 7543POPC   C2B54608  41.413  37.441   6.750
 7543POPC   C3B54609  41.482  37.505   7.050
 7543POPC   C4B54610  41.457  37.442   7.350
 7544POPC   NC354611  34.577  38.467   5.550
 7544POPC   PO454612  34.609  38.448   5.850
 7544POPC   GL154613  34.585  38.469   6.150
 7544POPC   GL254614  34.621  38.314   6.150
 7544POPC   C1A54615  34.548  38.504   6.450
 7544POPC   D2A54616  34.528  38.431   6.750
 7544POPC   C3A54617  34.544  38.501   7.050
 7544POPC   C4A54618  34.615  38.473   7.350
 7544POPC   C1B54619  34.715  38.221   6.450
 7544POPC   C2B54620  34.730  38.298   6.750
 7544POPC   C3B54621  34.720  38.268   7.050
 7544POPC   C4B54622  34.691  38.278   7.350
 7545POPC   NC354623  12.813   3.535   5.550
 7545POPC   PO454624  12.820   3.583   5.850
 7545POPC   GL154625  12.887   3.515   6.150
 7545POPC   GL254626  12.702   3.495   6.150
 7545POPC   C1A54627  12.820   3.547   6.450
 7545POPC   D2A54628  12.845   3.568   6.750
 7545POPC   C3A54629  12.812   3.567   7.050
 7545POPC   C4A54630  12.838   3.527   7.350
 7545POPC   C1B54631  12.628   3.435   6.450
 7545POPC   C2B54632  12.632   3.434   6.750
 7545POPC   C3B54633  12.669   3.476   7.050
 7545POPC   C4B54634  12.620   3.446   7.350
 7546POPC   NC354635   7.447  41.567   5.550
 7546POPC   PO454636   7.374  41.551   5.850
 7546POPC   GL154637   7.469  41.602   6.150
 7546POPC   GL254638   7.363  41.439   6.150
 7546POPC   C1A54639   7.396  41.586   6.450
 7546POPC   D2A54640   7.463  41.530   6.750
 7546POPC   C3A54641   7.429  41.542   7.050
 7546POPC   C4A54642   7.403  41.607   7.350
 7546POPC   C1B54643   7.362  41.363   6.450
 7546POPC   C2B54644   7.279  41.345   6.750
 7546POPC   C3B54645   7.311  41.310   7.050
 7546POPC   C4B54646   7.325  41.357   7.350
 7547POPC   NC354647  35.365  38.462   5.550
 7547POPC   PO454648  35.328  38.423   5.850
 7547POPC   GL154649  35.310  38.466   6.150
 7547POPC   GL254650  35.315  38.598   6.150
 7547POPC   C1A54651  35.376  38.461   6.450
 7547POPC   D2A54652  35.310  38.451   6.750
 7547POPC   C3A54653  35.310  38.428   7.050
 7547POPC   C4A54654  35.385  38.451   7.350
 7547POPC   C1B54655  35.389  38.725   6.450
 7547POPC   C2B54656  35.332  38.749   6.750
 7547POPC   C3B54657  35.388  38.720   7.050
 7547POPC   C4B54658  35.314  38.697   7.350
 7548POPC   NC354659  12.060  36.134   5.550
 7548POPC   PO454660  12.079  36.166   5.850
 7548POPC   GL154661  12.046  36.106   6.150
 7548POPC   GL254662  11.972  35.988   6.150
 7548POPC   C1A54663  12.118  36.136   6.450
 7548POPC   D2A54664  12.048  36.145   6.750
 7548POPC   C3A54665  12.098  36.141   7.050
 7548POPC   C4A54666  12.075  36.106   7.350
 7548POPC   C1B54667  11.952  35.909   6.450
 7548POPC   C2B54668  11.910  35.913   6.750
 7548POPC   C3B54669  11.900  35.914   7.050
 7548POPC   C4B54670  11.936  35.885   7.350
 7549POPC   NC354671  21.342  29.880   5.550
 7549POPC   PO454672  21.401  29.911   5.850
 7549POPC   GL154673  21.373  29.961   6.150
 7549POPC   GL254674  21.280  29.957   6.150
 7549POPC   C1A54675  21.378  29.887   6.450
 7549POPC   D2A54676  21.352  29.909   6.750
 7549POPC   C3A54677  21.350  29.928   7.050
 7549POPC   C4A54678  21.396  29.911   7.350
 7549POPC   C1B54679  21.095  29.886   6.450
 7549POPC   C2B54680  21.095  29.951   6.750
 7549POPC   C3B54681  21.129  29.863   7.050
 7549POPC   C4B54682  21.156  29.955   7.350
 7550POPC   NC354683  12.086   5.845   5.550
 7550POPC   PO454684  12.044   5.919   5.850
 7550POPC   GL154685  12.102   5.860   6.150
 7550POPC   GL254686  11.982   6.018   6.150
 7550POPC   C1A54687  12.113   5.896   6.450
 7550POPC   D2A54688  12.037   5.898   6.750
 7550POPC   C3A54689  12.125   5.847   7.050
 7550POPC   C4A54690  12.098   5.878   7.350
 7550POPC   C1B54691  11.898   6.085   6.450
 7550POPC   C2B54692  11.976   6.082   6.750
 7550POPC   C3B54693  11.886   6.124   7.050
 7550POPC   C4B54694  11.897   6.102   7.350
 7551POPC   NC354695  26.020  33.032   5.550
 7551POPC   PO454696  26.003  33.063   5.850
 7551POPC   GL154697  26.013  33.045   6.150
 7551POPC   GL254698  25.939  33.130   6.150
 7551POPC   C1A54699  26.064  33.067   6.450
 7551POPC   D2A54700  26.073  33.016   6.750
 7551POPC   C3A54701  26.030  32.983   7.050
 7551POPC   C4A54702  26.075  33.068   7.350
 7551POPC   C1B54703  25.802  33.108   6.450
 7551POPC   C2B54704  25.780  33.109   6.750
 7551POPC   C3B54705  25.870  33.197   7.050
 7551POPC   C4B54706  25.873  33.191   7.350
 7552POPC   NC354707  19.078  19.786   5.550
 7552POPC   PO454708  19.023  19.856   5.850
 7552POPC   GL154709  19.013  19.876   6.150
 7552POPC   GL254710  19.163  19.922   6.150
 7552POPC   C1A54711  19.070  19.829   6.450
 7552POPC   D2A54712  19.089  19.876   6.750
 7552POPC   C3A54713  19.081  19.785   7.050
 7552POPC   C4A54714  19.107  19.862   7.350
 7552POPC   C1B54715  19.285  20.000   6.450
 7552POPC   C2B54716  19.276  19.932   6.750
 7552POPC   C3B54717  19.225  19.943   7.050
 7552POPC   C4B54718  19.289  19.986   7.350
 7553POPC   NC354719  29.124  16.701   5.550
 7553POPC   PO454720  29.117  16.761   5.850
 7553POPC   GL154721  29.142  16.776   6.150
 7553POPC   GL254722  29.027  16.763   6.150
 7553POPC   C1A54723  29.118  16.774   6.450
 7553POPC   D2A54724  29.126  16.735   6.750
 7553POPC   C3A54725  29.108  16.772   7.050
 7553POPC   C4A54726  29.193  16.695   7.350
 7553POPC   C1B54727  28.919  16.744   6.450
 7553POPC   C2B54728  28.916  16.785   6.750
 7553POPC   C3B54729  28.857  16.766   7.050
 7553POPC   C4B54730  28.869  16.740   7.350
 7554POPC   NC354731   8.241  35.389   5.550
 7554POPC   PO454732   8.169  35.303   5.850
 7554POPC   GL154733   8.200  35.327   6.150
 7554POPC   GL254734   8.307  35.465   6.150
 7554POPC   C1A54735   8.210  35.320   6.450
 7554POPC   D2A54736   8.211  35.333   6.750
 7554POPC   C3A54737   8.221  35.383   7.050
 7554POPC   C4A54738   8.234  35.385   7.350
 7554POPC   C1B54739   8.371  35.479   6.450
 7554POPC   C2B54740   8.361  35.548   6.750
 7554POPC   C3B54741   8.362  35.488   7.050
 7554POPC   C4B54742   8.404  35.480   7.350
 7555POPC   NC354743  30.732  42.327   5.550
 7555POPC   PO454744  30.699  42.318   5.850
 7555POPC   GL154745  30.680  42.294   6.150
 7555POPC   GL254746  30.728  42.448   6.150
 7555POPC   C1A54747  30.709  42.318   6.450
 7555POPC   D2A54748  30.739  42.290   6.750
 7555POPC   C3A54749  30.668  42.330   7.050
 7555POPC   C4A54750  30.710  42.294   7.350
 7555POPC   C1B54751  30.752  42.589   6.450
 7555POPC   C2B54752  30.748  42.558   6.750
 7555POPC   C3B54753  30.784  42.564   7.050
 7555POPC   C4B54754  30.793  42.539   7.350
 7556POPC   NC354755  37.721  29.110   5.550
 7556POPC   PO454756  37.639  29.119   5.850
 7556POPC   GL154757  37.676  29.171   6.150
 7556POPC   GL254758  37.593  29.244   6.150
 7556POPC   C1A54759  37.680  29.190   6.450
 7556POPC   D2A54760  37.699  29.124   6.750
 7556POPC   C3A54761  37.632  29.139   7.050
 7556POPC   C4A54762  37.663  29.101   7.350
 7556POPC   C1B54763  37.465  29.286   6.450
 7556POPC   C2B54764  37.508  29.333   6.750
 7556POPC   C3B54765  37.455  29.279   7.050
 7556POPC   C4B54766  37.539  29.301   7.350
 7557POPC   NC354767  26.815  19.823   5.550
 7557POPC   PO454768  26.867  19.862   5.850
 7557POPC   GL154769  26.806  19.826   6.150
 7557POPC   GL254770  26.881  19.753   6.150
 7557POPC   C1A54771  26.803  19.790   6.450
 7557POPC   D2A54772  26.790  19.855   6.750
 7557POPC   C3A54773  26.808  19.798   7.050
 7557POPC   C4A54774  26.845  19.849   7.350
 7557POPC   C1B54775  26.855  19.637   6.450
 7557POPC   C2B54776  26.899  19.562   6.750
 7557POPC   C3B54777  26.889  19.605   7.050
 7557POPC   C4B54778  26.898  19.548   7.350
 7558POPC   NC354779   3.512  28.392   5.550
 7558POPC   PO454780   3.531  28.341   5.850
 7558POPC   GL154781   3.551  28.419   6.150
 7558POPC   GL254782   3.489  28.322   6.150
 7558POPC   C1A54783   3.538  28.414   6.450
 7558POPC   D2A54784   3.582  28.358   6.750
 7558POPC   C3A54785   3.565  28.416   7.050
 7558POPC   C4A54786   3.541  28.390   7.350
 7558POPC   C1B54787   3.306  28.231   6.450
 7558POPC   C2B54788   3.314  28.196   6.750
 7558POPC   C3B54789   3.351  28.254   7.050
 7558POPC   C4B54790   3.306  28.192   7.350
 7559POPC   NC354791  30.714   2.755   5.550
 7559POPC   PO454792  30.663   2.743   5.850
 7559POPC   GL154793  30.660   2.728   6.150
 7559POPC   GL254794  30.695   2.695   6.150
 7559POPC   C1A54795  30.656   2.719   6.450
 7559POPC   D2A54796  30.709   2.722   6.750
 7559POPC   C3A54797  30.711   2.752   7.050
 7559POPC   C4A54798  30.716   2.803   7.350
 7559POPC   C1B54799  30.735   2.530   6.450
 7559POPC   C2B54800  30.766   2.501   6.750
 7559POPC   C3B54801  30.798   2.494   7.050
 7559POPC   C4B54802  30.752   2.566   7.350
 7560POPC   NC354803  22.912   4.323   5.550
 7560POPC   PO454804  22.939   4.304   5.850
 7560POPC   GL154805  22.941   4.273   6.150
 7560POPC   GL254806  22.838   4.410   6.150
 7560POPC   C1A54807  22.917   4.344   6.450
 7560POPC   D2A54808  22.954   4.335   6.750
 7560POPC   C3A54809  22.889   4.270   7.050
 7560POPC   C4A54810  22.900   4.323   7.350
 7560POPC   C1B54811  22.747   4.408   6.450
 7560POPC   C2B54812  22.700   4.391   6.750
 7560POPC   C3B54813  22.704   4.390   7.050
 7560POPC   C4B54814  22.675   4.431   7.350
 7561POPC   NC354815  36.116  24.450   5.550
 7561POPC   PO454816  36.132  24.517   5.850
 7561POPC   GL154817  36.088  24.505   6.150
 7561POPC   GL254818  36.248  24.475   6.150
 7561POPC   C1A54819  36.170  24.534   6.450
 7561POPC   D2A54820  36.117  24.527   6.750
 7561POPC   C3A54821  36.081  24.500   7.050
 7561POPC   C4A54822  36.145  24.493   7.350
 7561POPC   C1B54823  36.402  24.403   6.450
 7561POPC   C2B54824  36.374  24.436   6.750
 7561POPC   C3B54825  36.406  24.449   7.050
 7561POPC   C4B54826  36.347  24.383   7.350
 7562POPC   NC354827  39.186  32.266   5.550
 7562POPC   PO454828  39.272  32.283   5.850
 7562POPC   GL154829  39.222  32.211   6.150
 7562POPC   GL254830  39.326  32.334   6.150
 7562POPC   C1A54831  39.234  32.226   6.450
 7562POPC   D2A54832  39.258  32.244   6.750
 7562POPC   C3A54833  39.244  32.291   7.050
 7562POPC   C4A54834  39.232  32.220   7.350
 7562POPC   C1B54835  39.284  32.432   6.450
 7562POPC   C2B54836  39.340  32.485   6.750
 7562POPC   C3B54837  39.281  32.444   7.050
 7562POPC   C4B54838  39.285  32.480   7.350
 7563POPC   NC354839  13.671  30.693   5.550
 7563POPC   PO454840  13.613  30.734   5.850
 7563POPC   GL154841  13.659  30.730   6.150
 7563POPC   GL254842  13.694  30.830   6.150
 7563POPC   C1A54843  13.672  30.691   6.450
 7563POPC   D2A54844  13.610  30.666   6.750
 7563POPC   C3A54845  13.618  30.691   7.050
 7563POPC   C4A54846  13.672  30.656   7.350
 7563POPC   C1B54847  13.712  30.905   6.450
 7563POPC   C2B54848  13.700  30.938   6.750
 7563POPC   C3B54849  13.751  30.967   7.050
 7563POPC   C4B54850  13.725  30.955   7.350
 7564POPC   NC354851  13.613  14.416   5.550
 7564POPC   PO454852  13.636  14.423   5.850
 7564POPC   GL154853  13.588  14.406   6.150
 7564POPC   GL254854  13.511  14.452   6.150
 7564POPC   C1A54855  13.675  14.398   6.450
 7564POPC   D2A54856  13.658  14.446   6.750
 7564POPC   C3A54857  13.655  14.436   7.050
 7564POPC   C4A54858  13.646  14.431   7.350
 7564POPC   C1B54859  13.448  14.559   6.450
 7564POPC   C2B54860  13.420  14.531   6.750
 7564POPC   C3B54861  13.460  14.604   7.050
 7564POPC   C4B54862  13.444  14.604   7.350
 7565POPC   NC354863   9.797   1.972   5.550
 7565POPC   PO454864   9.719   2.027   5.850
 7565POPC   GL154865   9.785   2.037   6.150
 7565POPC   GL254866   9.673   1.865   6.150
 7565POPC   C1A54867   9.718   1.964   6.450
 7565POPC   D2A54868   9.707   1.991   6.750
 7565POPC   C3A54869   9.705   1.941   7.050
 7565POPC   C4A54870   9.736   2.031   7.350
 7565POPC   C1B54871   9.625   1.809   6.450
 7565POPC   C2B54872   9.594   1.775   6.750
 7565POPC   C3B54873   9.623   1.774   7.050
 7565POPC   C4B54874   9.599   1.819   7.350
 7566POPC   NC354875  41.546  31.473   5.550
 7566POPC   PO454876  41.557  31.482   5.850
 7566POPC   GL154877  41.572  31.423   6.150
 7566POPC   GL254878  41.561  31.357   6.150
 7566POPC   C1A54879  41.544  31.483   6.450
 7566POPC   D2A54880  41.546  31.478   6.750
 7566POPC   C3A54881  41.606  31.469   7.050
 7566POPC   C4A54882  41.511  31.425   7.350
 7566POPC   C1B54883  41.510  31.244   6.450
 7566POPC   C2B54884  41.541  31.257   6.750
 7566POPC   C3B54885  41.455  31.192   7.050
 7566POPC   C4B54886  41.471  31.239   7.350
 7567POPC   NC354887  15.928  14.354   5.550
 7567POPC   PO454888  15.939  14.376   5.850
 7567POPC   GL154889  15.949  14.386   6.150
 7567POPC   GL254890  15.919  14.502   6.150
 7567POPC   C1A54891  15.951  14.422   6.450
 7567POPC   D2A54892  15.987  14.375   6.750
 7567POPC   C3A54893  15.991  14.393   7.050
 7567POPC   C4A54894  15.974  14.369   7.350
 7567POPC   C1B54895  15.988  14.615   6.450
 7567POPC   C2B54896  15.975  14.653   6.750
 7567POPC   C3B54897  15.954  14.673   7.050
 7567POPC   C4B54898  15.960  14.689   7.350
 7568POPC   NC354899  42.374   6.606   5.550
 7568POPC   PO454900  42.300   6.622   5.850
 7568POPC   GL154901  42.352   6.605   6.150
 7568POPC   GL254902  42.419   6.578   6.150
 7568POPC   C1A54903  42.337   6.670   6.450
 7568POPC   D2A54904  42.307   6.656   6.750
 7568POPC   C3A54905  42.383   6.595   7.050
 7568POPC   C4A54906  42.351   6.686   7.350
 7568POPC   C1B54907  42.459   6.458   6.450
 7568POPC   C2B54908  42.448   6.449   6.750
 7568POPC   C3B54909  42.469   6.480   7.050
 7568POPC   C4B54910  42.476   6.458   7.350
 7569POPC   NC354911  39.246  11.267   5.550
 7569POPC   PO454912  39.253  11.260   5.850
 7569POPC   GL154913  39.281  11.326   6.150
 7569POPC   GL254914  39.137  11.427   6.150
 7569POPC   C1A54915  39.209  11.252   6.450
 7569POPC   D2A54916  39.208  11.258   6.750
 7569POPC   C3A54917  39.213  11.350   7.050
 7569POPC   C4A54918  39.227  11.299   7.350
 7569POPC   C1B54919  39.104  11.542   6.450
 7569POPC   C2B54920  39.102  11.515   6.750
 7569POPC   C3B54921  39.091  11.468   7.050
 7569POPC   C4B54922  39.106  11.453   7.350
 7570POPC   NC354923   8.935  11.329   5.550
 7570POPC   PO454924   8.941  11.261   5.850
 7570POPC   GL154925   9.002  11.300   6.150
 7570POPC   GL254926   8.838  11.376   6.150
 7570POPC   C1A54927   9.012  11.254   6.450
 7570POPC   D2A54928   9.015  11.251   6.750
 7570POPC   C3A54929   8.969  11.274   7.050
 7570POPC   C4A54930   8.957  11.337   7.350
 7570POPC   C1B54931   8.774  11.419   6.450
 7570POPC   C2B54932   8.686  11.393   6.750
 7570POPC   C3B54933   8.769  11.354   7.050
 7570POPC   C4B54934   8.715  11.365   7.350
 7571POPC   NC354935   0.450  33.769   5.550
 7571POPC   PO454936   0.482  33.820   5.850
 7571POPC   GL154937   0.424  33.821   6.150
 7571POPC   GL254938   0.563  33.851   6.150
 7571POPC   C1A54939   0.408  33.752   6.450
 7571POPC   D2A54940   0.405  33.751   6.750
 7571POPC   C3A54941   0.397  33.763   7.050
 7571POPC   C4A54942   0.436  33.763   7.350
 7571POPC   C1B54943   0.647  33.867   6.450
 7571POPC   C2B54944   0.696  33.816   6.750
 7571POPC   C3B54945   0.643  33.902   7.050
 7571POPC   C4B54946   0.721  33.910   7.350
 7572POPC   NC354947  36.142  12.085   5.550
 7572POPC   PO454948  36.160  12.097   5.850
 7572POPC   GL154949  36.118  12.035   6.150
 7572POPC   GL254950  36.039  12.063   6.150
 7572POPC   C1A54951  36.146  12.090   6.450
 7572POPC   D2A54952  36.126  12.054   6.750
 7572POPC   C3A54953  36.126  12.068   7.050
 7572POPC   C4A54954  36.131  12.112   7.350
 7572POPC   C1B54955  35.876  12.081   6.450
 7572POPC   C2B54956  35.912  12.076   6.750
 7572POPC   C3B54957  35.914  12.128   7.050
 7572POPC   C4B54958  35.889  12.082   7.350
 7573POPC   NC354959  40.000  35.327   5.550
 7573POPC   PO454960  40.006  35.338   5.850
 7573POPC   GL154961  39.961  35.396   6.150
 7573POPC   GL254962  39.910  35.472   6.150
 7573POPC   C1A54963  40.002  35.363   6.450
 7573POPC   D2A54964  40.024  35.328   6.750
 7573POPC   C3A54965  39.960  35.362   7.050
 7573POPC   C4A54966  40.042  35.398   7.350
 7573POPC   C1B54967  39.891  35.580   6.450
 7573POPC   C2B54968  39.869  35.623   6.750
 7573POPC   C3B54969  39.911  35.566   7.050
 7573POPC   C4B54970  39.871  35.587   7.350
 7574POPC   NC354971  18.234   6.601   5.550
 7574POPC   PO454972  18.299   6.690   5.850
 7574POPC   GL154973  18.312   6.623   6.150
 7574POPC   GL254974  18.396   6.728   6.150
 7574POPC   C1A54975  18.267   6.687   6.450
 7574POPC   D2A54976  18.310   6.613   6.750
 7574POPC   C3A54977  18.265   6.675   7.050
 7574POPC   C4A54978  18.267   6.665   7.350
 7574POPC   C1B54979  18.518   6.749   6.450
 7574POPC   C2B54980  18.515   6.724   6.750
 7574POPC   C3B54981  18.565   6.749   7.050
 7574POPC   C4B54982  18.560   6.755   7.350
 7575POPC   NC354983  26.785  36.175   5.550
 7575POPC   PO454984  26.847  36.155   5.850
 7575POPC   GL154985  26.800  36.169   6.150
 7575POPC   GL254986  26.820  35.963   6.150
 7575POPC   C1A54987  26.821  36.089   6.450
 7575POPC   D2A54988  26.818  36.121   6.750
 7575POPC   C3A54989  26.833  36.146   7.050
 7575POPC   C4A54990  26.833  36.175   7.350
 7575POPC   C1B54991  26.776  35.922   6.450
 7575POPC   C2B54992  26.725  35.850   6.750
 7575POPC   C3B54993  26.760  35.869   7.050
 7575POPC   C4B54994  26.745  35.895   7.350
 7576POPC   NC354995  36.156  29.889   5.550
 7576POPC   PO454996  36.078  29.960   5.850
 7576POPC   GL154997  36.139  29.896   6.150
 7576POPC   GL254998  36.199  30.038   6.150
 7576POPC   C1A54999  36.109  29.945   6.450
 7576POPC   D2A55000  36.158  29.875   6.750
 7576POPC   C3A55001  36.085  29.900   7.050
 7576POPC   C4A55002  36.124  29.899   7.350
 7576POPC   C1B55003  36.309  30.099   6.450
 7576POPC   C2B55004  36.311  30.038   6.750
 7576POPC   C3B55005  36.302  30.107   7.050
 7576POPC   C4B55006  36.342  30.096   7.350
 7577POPC   NC355007  30.655  22.978   5.550
 7577POPC   PO455008  30.722  22.894   5.850
 7577POPC   GL155009  30.679  22.911   6.150
 7577POPC   GL255010  30.698  23.076   6.150
 7577POPC   C1A55011  30.657  22.890   6.450
 7577POPC   D2A55012  30.702  22.894   6.750
 7577POPC   C3A55013  30.704  22.949   7.050
 7577POPC   C4A55014  30.682  22.943   7.350
 7577POPC   C1B55015  30.704  23.219   6.450
 7577POPC   C2B55016  30.697  23.200   6.750
 7577POPC   C3B55017  30.699  23.224   7.050
 7577POPC   C4B55018  30.676  23.194   7.350
 7578POPC   NC355019   0.418   6.632   5.550
 7578POPC   PO455020   0.470   6.647   5.850
 7578POPC   GL155021   0.455   6.631   6.150
 7578POPC   GL255022   0.501   6.574   6.150
 7578POPC   C1A55023   0.409   6.629   6.450
 7578POPC   D2A55024   0.446   6.609   6.750
 7578POPC   C3A55025   0.413   6.644   7.050
 7578POPC   C4A55026   0.424   6.680   7.350
 7578POPC   C1B55027   0.621   6.509   6.450
 7578POPC   C2B55028   0.679   6.474   6.750
 7578POPC   C3B55029   0.615   6.485   7.050
 7578POPC   C4B55030   0.637   6.458   7.350
 7579POPC   NC355031  12.096  14.441   5.550
 7579POPC   PO455032  12.027  14.426   5.850
 7579POPC   GL155033  12.113  14.410   6.150
 7579POPC   GL255034  12.184  14.541   6.150
 7579POPC   C1A55035  12.027  14.448   6.450
 7579POPC   D2A55036  12.111  14.431   6.750
 7579POPC   C3A55037  12.037  14.416   7.050
 7579POPC   C4A55038  12.026  14.416   7.350
 7579POPC   C1B55039  12.168  14.633   6.450
 7579POPC   C2B55040  12.208  14.619   6.750
 7579POPC   C3B55041  12.263  14.620   7.050
 7579POPC   C4B55042  12.247  14.632   7.350
 7580POPC   NC355043  43.084   3.543   5.550
 7580POPC   PO455044  43.103   3.581   5.850
 7580POPC   GL155045  43.107   3.542   6.150
 7580POPC   GL255046  43.264   3.549   6.150
 7580POPC   C1A55047  43.134   3.510   6.450
 7580POPC   D2A55048  43.064   3.565   6.750
 7580POPC   C3A55049  43.148   3.582   7.050
 7580POPC   C4A55050  43.110   3.503   7.350
 7580POPC   C1B55051  43.368   3.602   6.450
 7580POPC   C2B55052  43.378   3.605   6.750
 7580POPC   C3B55053  43.376   3.644   7.050
 7580POPC   C4B55054  43.377   3.643   7.350
 7581POPC   NC355055  10.556  18.289   5.550
 7581POPC   PO455056  10.573  18.291   5.850
 7581POPC   GL155057  10.521  18.314   6.150
 7581POPC   GL255058  10.505  18.149   6.150
 7581POPC   C1A55059  10.514  18.261   6.450
 7581POPC   D2A55060  10.566  18.242   6.750
 7581POPC   C3A55061  10.528  18.268   7.050
 7581POPC   C4A55062  10.522  18.291   7.350
 7581POPC   C1B55063  10.471  18.084   6.450
 7581POPC   C2B55064  10.408  18.007   6.750
 7581POPC   C3B55065  10.453  18.073   7.050
 7581POPC   C4B55066  10.480  18.071   7.350
 7582POPC   NC355067  35.312  26.842   5.550
 7582POPC   PO455068  35.354  26.840   5.850
 7582POPC   GL155069  35.332  26.792   6.150
 7582POPC   GL255070  35.336  26.991   6.150
 7582POPC   C1A55071  35.379  26.834   6.450
 7582POPC   D2A55072  35.321  26.798   6.750
 7582POPC   C3A55073  35.307  26.857   7.050
 7582POPC   C4A55074  35.375  26.853   7.350
 7582POPC   C1B55075  35.363  27.113   6.450
 7582POPC   C2B55076  35.350  27.064   6.750
 7582POPC   C3B55077  35.379  27.043   7.050
 7582POPC   C4B55078  35.411  27.103   7.350
 7583POPC   NC355079   0.484  41.576   5.550
 7583POPC   PO455080   0.422  41.514   5.850
 7583POPC   GL155081   0.487  41.543   6.150
 7583POPC   GL255082   0.518  41.449   6.150
 7583POPC   C1A55083   0.432  41.556   6.450
 7583POPC   D2A55084   0.456  41.563   6.750
 7583POPC   C3A55085   0.406  41.555   7.050
 7583POPC   C4A55086   0.468  41.571   7.350
 7583POPC   C1B55087   0.504  41.300   6.450
 7583POPC   C2B55088   0.540  41.281   6.750
 7583POPC   C3B55089   0.549  41.317   7.050
 7583POPC   C4B55090   0.513  41.311   7.350
 7584POPC   NC355091   8.237  22.966   5.550
 7584POPC   PO455092   8.175  22.916   5.850
 7584POPC   GL155093   8.166  22.933   6.150
 7584POPC   GL255094   8.103  23.012   6.150
 7584POPC   C1A55095   8.173  22.907   6.450
 7584POPC   D2A55096   8.151  22.906   6.750
 7584POPC   C3A55097   8.202  22.919   7.050
 7584POPC   C4A55098   8.211  22.910   7.350
 7584POPC   C1B55099   7.905  22.968   6.450
 7584POPC   C2B55100   7.922  23.046   6.750
 7584POPC   C3B55101   7.943  23.039   7.050
 7584POPC   C4B55102   7.940  23.040   7.350
 7585POPC   NC355103  41.602  33.816   5.550
 7585POPC   PO455104  41.584  33.786   5.850
 7585POPC   GL155105  41.513  33.808   6.150
 7585POPC   GL255106  41.670  33.757   6.150
 7585POPC   C1A55107  41.556  33.754   6.450
 7585POPC   D2A55108  41.564  33.840   6.750
 7585POPC   C3A55109  41.581  33.832   7.050
 7585POPC   C4A55110  41.548  33.793   7.350
 7585POPC   C1B55111  41.839  33.726   6.450
 7585POPC   C2B55112  41.836  33.705   6.750
 7585POPC   C3B55113  41.783  33.743   7.050
 7585POPC   C4B55114  41.764  33.735   7.350
 7586POPC   NC355115   1.168   2.024   5.550
 7586POPC   PO455116   1.212   1.961   5.850
 7586POPC   GL155117   1.174   1.985   6.150
 7586POPC   GL255118   1.166   1.876   6.150
 7586POPC   C1A55119   1.220   1.995   6.450
 7586POPC   D2A55120   1.197   1.994   6.750
 7586POPC   C3A55121   1.231   2.033   7.050
 7586POPC   C4A55122   1.175   1.953   7.350
 7586POPC   C1B55123   1.103   1.784   6.450
 7586POPC   C2B55124   1.040   1.775   6.750
 7586POPC   C3B55125   1.091   1.770   7.050
 7586POPC   C4B55126   1.012   1.814   7.350
 7587POPC   NC355127   5.892   0.479   5.550
 7587POPC   PO455128   5.820   0.458   5.850
 7587POPC   GL155129   5.899   0.400   6.150
 7587POPC   GL255130   5.975   0.357   6.150
 7587POPC   C1A55131   5.904   0.475   6.450
 7587POPC   D2A55132   5.855   0.440   6.750
 7587POPC   C3A55133   5.829   0.438   7.050
 7587POPC   C4A55134   5.877   0.414   7.350
 7587POPC   C1B55135   5.969   0.260   6.450
 7587POPC   C2B55136   5.993   0.265   6.750
 7587POPC   C3B55137   6.023   0.192   7.050
 7587POPC   C4B55138   6.033   0.248   7.350
 7588POPC   NC355139  27.583  36.138   5.550
 7588POPC   PO455140  27.579  36.094   5.850
 7588POPC   GL155141  27.578  36.082   6.150
 7588POPC   GL255142  27.592  36.238   6.150
 7588POPC   C1A55143  27.565  36.114   6.450
 7588POPC   D2A55144  27.642  36.148   6.750
 7588POPC   C3A55145  27.635  36.112   7.050
 7588POPC   C4A55146  27.622  36.152   7.350
 7588POPC   C1B55147  27.635  36.403   6.450
 7588POPC   C2B55148  27.677  36.382   6.750
 7588POPC   C3B55149  27.711  36.365   7.050
 7588POPC   C4B55150  27.719  36.392   7.350
 7589POPC   NC355151  13.636  21.366   5.550
 7589POPC   PO455152  13.589  21.357   5.850
 7589POPC   GL155153  13.601  21.364   6.150
 7589POPC   GL255154  13.491  21.433   6.150
 7589POPC   C1A55155  13.626  21.383   6.450
 7589POPC   D2A55156  13.653  21.360   6.750
 7589POPC   C3A55157  13.666  21.427   7.050
 7589POPC   C4A55158  13.599  21.430   7.350
 7589POPC   C1B55159  13.407  21.498   6.450
 7589POPC   C2B55160  13.436  21.505   6.750
 7589POPC   C3B55161  13.396  21.497   7.050
 7589POPC   C4B55162  13.376  21.496   7.350
 7590POPC   NC355163   6.604   6.620   5.550
 7590POPC   PO455164   6.622   6.663   5.850
 7590POPC   GL155165   6.638   6.676   6.150
 7590POPC   GL255166   6.477   6.647   6.150
 7590POPC   C1A55167   6.686   6.649   6.450
 7590POPC   D2A55168   6.603   6.627   6.750
 7590POPC   C3A55169   6.658   6.676   7.050
 7590POPC   C4A55170   6.598   6.607   7.350
 7590POPC   C1B55171   6.416   6.604   6.450
 7590POPC   C2B55172   6.451   6.559   6.750
 7590POPC   C3B55173   6.435   6.540   7.050
 7590POPC   C4B55174   6.411   6.549   7.350
 7591POPC   NC355175  40.802  44.648   5.550
 7591POPC   PO455176  40.813  44.688   5.850
 7591POPC   GL155177  40.827  44.687   6.150
 7591POPC   GL255178  40.665  44.756   6.150
 7591POPC   C1A55179  40.813  44.664   6.450
 7591POPC   D2A55180  40.828  44.617   6.750
 7591POPC   C3A55181  40.753  44.621   7.050
 7591POPC   C4A55182  40.752  44.625   7.350
 7591POPC   C1B55183  40.556  44.850   6.450
 7591POPC   C2B55184  40.601  44.805   6.750
 7591POPC   C3B55185  40.621  44.832   7.050
 7591POPC   C4B55186  40.620  44.767   7.350
 7592POPC   NC355187  22.181  11.286   5.550
 7592POPC   PO455188  22.175  11.312   5.850
 7592POPC   GL155189  22.126  11.284   6.150
 7592POPC   GL255190  22.076  11.285   6.150
 7592POPC   C1A55191  22.192  11.317   6.450
 7592POPC   D2A55192  22.118  11.313   6.750
 7592POPC   C3A55193  22.145  11.306   7.050
 7592POPC   C4A55194  22.207  11.251   7.350
 7592POPC   C1B55195  21.932  11.254   6.450
 7592POPC   C2B55196  21.922  11.174   6.750
 7592POPC   C3B55197  21.887  11.233   7.050
 7592POPC   C4B55198  21.951  11.253   7.350
 7593POPC   NC355199   8.982  17.548   5.550
 7593POPC   PO455200   8.985  17.489   5.850
 7593POPC   GL155201   9.003  17.528   6.150
 7593POPC   GL255202   9.044  17.600   6.150
 7593POPC   C1A55203   8.960  17.526   6.450
 7593POPC   D2A55204   8.961  17.546   6.750
 7593POPC   C3A55205   8.988  17.535   7.050
 7593POPC   C4A55206   8.963  17.469   7.350
 7593POPC   C1B55207   9.243  17.608   6.450
 7593POPC   C2B55208   9.227  17.664   6.750
 7593POPC   C3B55209   9.234  17.627   7.050
 7593POPC   C4B55210   9.240  17.629   7.350
 7594POPC   NC355211  16.747  38.454   5.550
 7594POPC   PO455212  16.769  38.443   5.850
 7594POPC   GL155213  16.743  38.475   6.150
 7594POPC   GL255214  16.831  38.459   6.150
 7594POPC   C1A55215  16.781  38.446   6.450
 7594POPC   D2A55216  16.697  38.492   6.750
 7594POPC   C3A55217  16.719  38.473   7.050
 7594POPC   C4A55218  16.737  38.408   7.350
 7594POPC   C1B55219  16.942  38.430   6.450
 7594POPC   C2B55220  16.941  38.509   6.750
 7594POPC   C3B55221  17.001  38.435   7.050
 7594POPC   C4B55222  17.017  38.452   7.350
 7595POPC   NC355223  44.623  12.804   5.550
 7595POPC   PO455224  44.623  12.817   5.850
 7595POPC   GL155225  44.667  12.899   6.150
 7595POPC   GL255226  44.541  12.863   6.150
 7595POPC   C1A55227  44.686  12.887   6.450
 7595POPC   D2A55228  44.619  12.805   6.750
 7595POPC   C3A55229  44.634  12.866   7.050
 7595POPC   C4A55230  44.694  12.882   7.350
 7595POPC   C1B55231  44.371  12.886   6.450
 7595POPC   C2B55232  44.431  12.852   6.750
 7595POPC   C3B55233  44.397  12.817   7.050
 7595POPC   C4B55234  44.368  12.887   7.350
 7596POPC   NC355235  23.727  21.411   5.550
 7596POPC   PO455236  23.697  21.356   5.850
 7596POPC   GL155237  23.723  21.373   6.150
 7596POPC   GL255238  23.779  21.291   6.150
 7596POPC   C1A55239  23.728  21.431   6.450
 7596POPC   D2A55240  23.763  21.373   6.750
 7596POPC   C3A55241  23.742  21.377   7.050
 7596POPC   C4A55242  23.761  21.418   7.350
 7596POPC   C1B55243  23.896  21.211   6.450
 7596POPC   C2B55244  23.961  21.263   6.750
 7596POPC   C3B55245  23.890  21.272   7.050
 7596POPC   C4B55246  23.906  21.235   7.350
 7597POPC   NC355247  12.074   7.449   5.550
 7597POPC   PO455248  12.068   7.426   5.850
 7597POPC   GL155249  12.045   7.374   6.150
 7597POPC   GL255250  11.919   7.414   6.150
 7597POPC   C1A55251  12.125   7.448   6.450
 7597POPC   D2A55252  12.069   7.454   6.750
 7597POPC   C3A55253  12.068   7.411   7.050
 7597POPC   C4A55254  12.075   7.418   7.350
 7597POPC   C1B55255  11.800   7.291   6.450
 7597POPC   C2B55256  11.814   7.307   6.750
 7597POPC   C3B55257  11.865   7.276   7.050
 7597POPC   C4B55258  11.825   7.296   7.350
 7598POPC   NC355259  12.073  25.994   5.550
 7598POPC   PO455260  12.056  26.043   5.850
 7598POPC   GL155261  12.119  26.023   6.150
 7598POPC   GL255262  12.193  26.051   6.150
 7598POPC   C1A55263  12.033  26.080   6.450
 7598POPC   D2A55264  12.062  26.001   6.750
 7598POPC   C3A55265  12.032  26.001   7.050
 7598POPC   C4A55266  12.108  26.062   7.350
 7598POPC   C1B55267  12.314  26.011   6.450
 7598POPC   C2B55268  12.284  26.031   6.750
 7598POPC   C3B55269  12.344  25.999   7.050
 7598POPC   C4B55270  12.342  26.066   7.350
 7599POPC   NC355271  39.975  25.218   5.550
 7599POPC   PO455272  40.049  25.273   5.850
 7599POPC   GL155273  39.989  25.300   6.150
 7599POPC   GL255274  40.129  25.231   6.150
 7599POPC   C1A55275  39.987  25.296   6.450
 7599POPC   D2A55276  39.999  25.226   6.750
 7599POPC   C3A55277  40.033  25.286   7.050
 7599POPC   C4A55278  39.986  25.313   7.350
 7599POPC   C1B55279  40.293  25.245   6.450
 7599POPC   C2B55280  40.270  25.312   6.750
 7599POPC   C3B55281  40.286  25.232   7.050
 7599POPC   C4B55282  40.216  25.297   7.350
 7600POPC   NC355283  30.742  19.105   5.550
 7600POPC   PO455284  30.733  19.075   5.850
 7600POPC   GL155285  30.706  19.099   6.150
 7600POPC   GL255286  30.579  18.966   6.150
 7600POPC   C1A55287  30.700  19.086   6.450
 7600POPC   D2A55288  30.727  19.105   6.750
 7600POPC   C3A55289  30.731  19.058   7.050
 7600POPC   C4A55290  30.683  19.016   7.350
 7600POPC   C1B55291  30.437  18.880   6.450
 7600POPC   C2B55292  30.472  18.906   6.750
 7600POPC   C3B55293  30.510  18.946   7.050
 7600POPC   C4B55294  30.464  18.917   7.350
 7601POPC   NC355295  31.471   5.116   5.550
 7601POPC   PO455296  31.439   5.111   5.850
 7601POPC   GL155297  31.505   5.140   6.150
 7601POPC   GL255298  31.555   4.949   6.150
 7601POPC   C1A55299  31.454   5.103   6.450
 7601POPC   D2A55300  31.444   5.078   6.750
 7601POPC   C3A55301  31.479   5.088   7.050
 7601POPC   C4A55302  31.461   5.097   7.350
 7601POPC   C1B55303  31.572   4.834   6.450
 7601POPC   C2B55304  31.630   4.868   6.750
 7601POPC   C3B55305  31.563   4.849   7.050
 7601POPC   C4B55306  31.590   4.831   7.350
 7602POPC   NC355307  36.874  28.319   5.550
 7602POPC   PO455308  36.950  28.371   5.850
 7602POPC   GL155309  36.931  28.322   6.150
 7602POPC   GL255310  36.971  28.450   6.150
 7602POPC   C1A55311  36.873  28.401   6.450
 7602POPC   D2A55312  36.890  28.387   6.750
 7602POPC   C3A55313  36.866  28.387   7.050
 7602POPC   C4A55314  36.932  28.356   7.350
 7602POPC   C1B55315  37.001  28.577   6.450
 7602POPC   C2B55316  37.030  28.629   6.750
 7602POPC   C3B55317  36.946  28.598   7.050
 7602POPC   C4B55318  36.939  28.621   7.350
 7603POPC   NC355319  39.278  26.009   5.550
 7603POPC   PO455320  39.204  26.053   5.850
 7603POPC   GL155321  39.217  26.019   6.150
 7603POPC   GL255322  39.118  26.088   6.150
 7603POPC   C1A55323  39.193  26.010   6.450
 7603POPC   D2A55324  39.230  26.070   6.750
 7603POPC   C3A55325  39.196  26.031   7.050
 7603POPC   C4A55326  39.262  26.041   7.350
 7603POPC   C1B55327  39.001  26.073   6.450
 7603POPC   C2B55328  39.014  26.153   6.750
 7603POPC   C3B55329  39.008  26.107   7.050
 7603POPC   C4B55330  39.004  26.103   7.350
 7604POPC   NC355331   8.924  31.438   5.550
 7604POPC   PO455332   9.008  31.502   5.850
 7604POPC   GL155333   8.946  31.466   6.150
 7604POPC   GL255334   8.890  31.473   6.150
 7604POPC   C1A55335   8.937  31.486   6.450
 7604POPC   D2A55336   8.935  31.444   6.750
 7604POPC   C3A55337   8.950  31.428   7.050
 7604POPC   C4A55338   9.003  31.494   7.350
 7604POPC   C1B55339   8.684  31.485   6.450
 7604POPC   C2B55340   8.736  31.467   6.750
 7604POPC   C3B55341   8.716  31.544   7.050
 7604POPC   C4B55342   8.742  31.496   7.350
 7605POPC   NC355343  14.369  27.589   5.550
 7605POPC   PO455344  14.395  27.638   5.850
 7605POPC   GL155345  14.387  27.597   6.150
 7605POPC   GL255346  14.302  27.707   6.150
 7605POPC   C1A55347  14.428  27.603   6.450
 7605POPC   D2A55348  14.419  27.614   6.750
 7605POPC   C3A55349  14.443  27.553   7.050
 7605POPC   C4A55350  14.453  27.548   7.350
 7605POPC   C1B55351  14.287  27.782   6.450
 7605POPC   C2B55352  14.263  27.759   6.750
 7605POPC   C3B55353  14.255  27.801   7.050
 7605POPC   C4B55354  14.283  27.824   7.350
 7606POPC   NC355355  19.022  28.350   5.550
 7606POPC   PO455356  19.081  28.358   5.850
 7606POPC   GL155357  19.071  28.355   6.150
 7606POPC   GL255358  19.014  28.509   6.150
 7606POPC   C1A55359  19.027  28.345   6.450
 7606POPC   D2A55360  19.100  28.332   6.750
 7606POPC   C3A55361  19.018  28.357   7.050
 7606POPC   C4A55362  19.107  28.373   7.350
 7606POPC   C1B55363  19.023  28.635   6.450
 7606POPC   C2B55364  18.992  28.618   6.750
 7606POPC   C3B55365  19.072  28.633   7.050
 7606POPC   C4B55366  19.077  28.571   7.350
 7607POPC   NC355367  41.585  34.549   5.550
 7607POPC   PO455368  41.568  34.575   5.850
 7607POPC   GL155369  41.575  34.576   6.150
 7607POPC   GL255370  41.566  34.714   6.150
 7607POPC   C1A55371  41.587  34.619   6.450
 7607POPC   D2A55372  41.602  34.575   6.750
 7607POPC   C3A55373  41.555  34.600   7.050
 7607POPC   C4A55374  41.583  34.540   7.350
 7607POPC   C1B55375  41.606  34.804   6.450
 7607POPC   C2B55376  41.616  34.781   6.750
 7607POPC   C3B55377  41.669  34.761   7.050
 7607POPC   C4B55378  41.594  34.842   7.350
 7608POPC   NC355379  10.497  39.996   5.550
 7608POPC   PO455380  10.540  39.985   5.850
 7608POPC   GL155381  10.523  39.979   6.150
 7608POPC   GL255382  10.438  39.950   6.150
 7608POPC   C1A55383  10.522  40.045   6.450
 7608POPC   D2A55384  10.554  40.023   6.750
 7608POPC   C3A55385  10.477  39.972   7.050
 7608POPC   C4A55386  10.523  40.028   7.350
 7608POPC   C1B55387  10.301  39.834   6.450
 7608POPC   C2B55388  10.359  39.879   6.750
 7608POPC   C3B55389  10.287  39.859   7.050
 7608POPC   C4B55390  10.375  39.804   7.350
 7609POPC   NC355391  38.408  39.262   5.550
 7609POPC   PO455392  38.460  39.254   5.850
 7609POPC   GL155393  38.477  39.182   6.150
 7609POPC   GL255394  38.528  39.386   6.150
 7609POPC   C1A55395  38.444  39.182   6.450
 7609POPC   D2A55396  38.490  39.186   6.750
 7609POPC   C3A55397  38.476  39.209   7.050
 7609POPC   C4A55398  38.464  39.214   7.350
 7609POPC   C1B55399  38.556  39.447   6.450
 7609POPC   C2B55400  38.489  39.427   6.750
 7609POPC   C3B55401  38.544  39.437   7.050
 7609POPC   C4B55402  38.554  39.479   7.350
 7610POPC   NC355403   2.736  36.150   5.550
 7610POPC   PO455404   2.735  36.095   5.850
 7610POPC   GL155405   2.726  36.107   6.150
 7610POPC   GL255406   2.825  36.197   6.150
 7610POPC   C1A55407   2.808  36.147   6.450
 7610POPC   D2A55408   2.795  36.170   6.750
 7610POPC   C3A55409   2.743  36.078   7.050
 7610POPC   C4A55410   2.799  36.098   7.350
 7610POPC   C1B55411   2.890  36.337   6.450
 7610POPC   C2B55412   2.937  36.322   6.750
 7610POPC   C3B55413   2.937  36.378   7.050
 7610POPC   C4B55414   2.896  36.287   7.350
 7611POPC   NC355415   4.295  38.491   5.550
 7611POPC   PO455416   4.359  38.472   5.850
 7611POPC   GL155417   4.344  38.419   6.150
 7611POPC   GL255418   4.163  38.488   6.150
 7611POPC   C1A55419   4.353  38.473   6.450
 7611POPC   D2A55420   4.356  38.482   6.750
 7611POPC   C3A55421   4.314  38.443   7.050
 7611POPC   C4A55422   4.332  38.490   7.350
 7611POPC   C1B55423   4.065  38.457   6.450
 7611POPC   C2B55424   4.043  38.508   6.750
 7611POPC   C3B55425   4.111  38.543   7.050
 7611POPC   C4B55426   4.116  38.483   7.350
 7612POPC   NC355427  29.871  28.392   5.550
 7612POPC   PO455428  29.910  28.324   5.850
 7612POPC   GL155429  29.969  28.418   6.150
 7612POPC   GL255430  30.034  28.250   6.150
 7612POPC   C1A55431  29.960  28.409   6.450
 7612POPC   D2A55432  29.926  28.350   6.750
 7612POPC   C3A55433  29.934  28.365   7.050
 7612POPC   C4A55434  29.922  28.361   7.350
 7612POPC   C1B55435  30.137  28.221   6.450
 7612POPC   C2B55436  30.134  28.158   6.750
 7612POPC   C3B55437  30.103  28.174   7.050
 7612POPC   C4B55438  30.125  28.212   7.350
 7613POPC   NC355439  22.195  40.806   5.550
 7613POPC   PO455440  22.192  40.765   5.850
 7613POPC   GL155441  22.164  40.767   6.150
 7613POPC   GL255442  22.192  40.706   6.150
 7613POPC   C1A55443  22.131  40.755   6.450
 7613POPC   D2A55444  22.149  40.735   6.750
 7613POPC   C3A55445  22.194  40.767   7.050
 7613POPC   C4A55446  22.134  40.755   7.350
 7613POPC   C1B55447  22.187  40.536   6.450
 7613POPC   C2B55448  22.170  40.520   6.750
 7613POPC   C3B55449  22.152  40.501   7.050
 7613POPC   C4B55450  22.186  40.551   7.350
 7614POPC   NC355451  22.951  31.470   5.550
 7614POPC   PO455452  22.963  31.481   5.850
 7614POPC   GL155453  22.978  31.437   6.150
 7614POPC   GL255454  23.045  31.429   6.150
 7614POPC   C1A55455  22.923  31.463   6.450
 7614POPC   D2A55456  22.956  31.468   6.750
 7614POPC   C3A55457  22.904  31.431   7.050
 7614POPC   C4A55458  22.952  31.423   7.350
 7614POPC   C1B55459  23.222  31.440   6.450
 7614POPC   C2B55460  23.203  31.417   6.750
 7614POPC   C3B55461  23.234  31.439   7.050
 7614POPC   C4B55462  23.189  31.404   7.350
 7615POPC   NC355463  28.394  27.600   5.550
 7615POPC   PO455464  28.322  27.564   5.850
 7615POPC   GL155465  28.411  27.565   6.150
 7615POPC   GL255466  28.321  27.677   6.150
 7615POPC   C1A55467  28.417  27.548   6.450
 7615POPC   D2A55468  28.335  27.600   6.750
 7615POPC   C3A55469  28.339  27.557   7.050
 7615POPC   C4A55470  28.406  27.578   7.350
 7615POPC   C1B55471  28.209  27.707   6.450
 7615POPC   C2B55472  28.186  27.800   6.750
 7615POPC   C3B55473  28.227  27.792   7.050
 7615POPC   C4B55474  28.147  27.739   7.350
 7616POPC   NC355475   6.663  16.722   5.550
 7616POPC   PO455476   6.662  16.725   5.850
 7616POPC   GL155477   6.612  16.688   6.150
 7616POPC   GL255478   6.683  16.657   6.150
 7616POPC   C1A55479   6.601  16.743   6.450
 7616POPC   D2A55480   6.612  16.726   6.750
 7616POPC   C3A55481   6.681  16.697   7.050
 7616POPC   C4A55482   6.669  16.718   7.350
 7616POPC   C1B55483   6.738  16.451   6.450
 7616POPC   C2B55484   6.741  16.501   6.750
 7616POPC   C3B55485   6.719  16.502   7.050
 7616POPC   C4B55486   6.720  16.527   7.350
 7617POPC   NC355487  22.982   5.075   5.550
 7617POPC   PO455488  22.952   5.110   5.850
 7617POPC   GL155489  22.924   5.093   6.150
 7617POPC   GL255490  22.848   5.063   6.150
 7617POPC   C1A55491  22.921   5.060   6.450
 7617POPC   D2A55492  22.907   5.080   6.750
 7617POPC   C3A55493  22.896   5.077   7.050
 7617POPC   C4A55494  22.905   5.056   7.350
 7617POPC   C1B55495  22.732   5.074   6.450
 7617POPC   C2B55496  22.652   5.109   6.750
 7617POPC   C3B55497  22.670   5.122   7.050
 7617POPC   C4B55498  22.676   5.078   7.350
 7618POPC   NC355499  33.058   5.046   5.550
 7618POPC   PO455500  33.066   5.074   5.850
 7618POPC   GL155501  33.050   5.050   6.150
 7618POPC   GL255502  33.139   4.978   6.150
 7618POPC   C1A55503  33.010   5.085   6.450
 7618POPC   D2A55504  32.982   5.066   6.750
 7618POPC   C3A55505  33.002   5.051   7.050
 7618POPC   C4A55506  33.057   5.093   7.350
 7618POPC   C1B55507  33.238   4.954   6.450
 7618POPC   C2B55508  33.257   4.962   6.750
 7618POPC   C3B55509  33.239   4.889   7.050
 7618POPC   C4B55510  33.241   4.903   7.350
 7619POPC   NC355511   6.670  33.838   5.550
 7619POPC   PO455512   6.634  33.787   5.850
 7619POPC   GL155513   6.626  33.833   6.150
 7619POPC   GL255514   6.707  33.858   6.150
 7619POPC   C1A55515   6.689  33.792   6.450
 7619POPC   D2A55516   6.684  33.839   6.750
 7619POPC   C3A55517   6.650  33.753   7.050
 7619POPC   C4A55518   6.648  33.783   7.350
 7619POPC   C1B55519   6.875  33.927   6.450
 7619POPC   C2B55520   6.859  33.940   6.750
 7619POPC   C3B55521   6.869  33.986   7.050
 7619POPC   C4B55522   6.798  33.983   7.350
 7620POPC   NC355523  15.184  19.072   5.550
 7620POPC   PO455524  15.211  19.016   5.850
 7620POPC   GL155525  15.204  19.093   6.150
 7620POPC   GL255526  15.047  19.008   6.150
 7620POPC   C1A55527  15.171  19.075   6.450
 7620POPC   D2A55528  15.215  19.026   6.750
 7620POPC   C3A55529  15.147  19.072   7.050
 7620POPC   C4A55530  15.199  19.031   7.350
 7620POPC   C1B55531  14.893  18.967   6.450
 7620POPC   C2B55532  14.979  19.025   6.750
 7620POPC   C3B55533  14.956  19.006   7.050
 7620POPC   C4B55534  14.899  19.011   7.350
 7621POPC   NC355535  19.793  22.186   5.550
 7621POPC   PO455536  19.787  22.126   5.850
 7621POPC   GL155537  19.810  22.132   6.150
 7621POPC   GL255538  19.781  22.106   6.150
 7621POPC   C1A55539  19.864  22.193   6.450
 7621POPC   D2A55540  19.797  22.182   6.750
 7621POPC   C3A55541  19.848  22.200   7.050
 7621POPC   C4A55542  19.796  22.209   7.350
 7621POPC   C1B55543  19.667  21.997   6.450
 7621POPC   C2B55544  19.641  22.006   6.750
 7621POPC   C3B55545  19.692  21.947   7.050
 7621POPC   C4B55546  19.703  21.947   7.350
 7622POPC   NC355547   7.417  29.893   5.550
 7622POPC   PO455548   7.406  29.875   5.850
 7622POPC   GL155549   7.432  29.928   6.150
 7622POPC   GL255550   7.363  29.804   6.150
 7622POPC   C1A55551   7.391  29.945   6.450
 7622POPC   D2A55552   7.438  29.961   6.750
 7622POPC   C3A55553   7.393  29.911   7.050
 7622POPC   C4A55554   7.377  29.953   7.350
 7622POPC   C1B55555   7.316  29.686   6.450
 7622POPC   C2B55556   7.298  29.666   6.750
 7622POPC   C3B55557   7.334  29.703   7.050
 7622POPC   C4B55558   7.305  29.649   7.350
 7623POPC   NC355559  19.807  23.716   5.550
 7623POPC   PO455560  19.834  23.708   5.850
 7623POPC   GL155561  19.801  23.707   6.150
 7623POPC   GL255562  19.936  23.772   6.150
 7623POPC   C1A55563  19.791  23.761   6.450
 7623POPC   D2A55564  19.794  23.754   6.750
 7623POPC   C3A55565  19.852  23.723   7.050
 7623POPC   C4A55566  19.804  23.677   7.350
 7623POPC   C1B55567  20.097  23.842   6.450
 7623POPC   C2B55568  20.060  23.800   6.750
 7623POPC   C3B55569  20.026  23.791   7.050
 7623POPC   C4B55570  20.079  23.833   7.350
 7624POPC   NC355571   9.745  38.496   5.550
 7624POPC   PO455572   9.768  38.418   5.850
 7624POPC   GL155573   9.795  38.423   6.150
 7624POPC   GL255574   9.794  38.351   6.150
 7624POPC   C1A55575   9.708  38.430   6.450
 7624POPC   D2A55576   9.711  38.443   6.750
 7624POPC   C3A55577   9.775  38.406   7.050
 7624POPC   C4A55578   9.744  38.411   7.350
 7624POPC   C1B55579   9.750  38.229   6.450
 7624POPC   C2B55580   9.757  38.253   6.750
 7624POPC   C3B55581   9.792  38.210   7.050
 7624POPC   C4B55582   9.767  38.213   7.350
 7625POPC   NC355583  17.481  15.910   5.550
 7625POPC   PO455584  17.544  15.936   5.850
 7625POPC   GL155585  17.515  15.917   6.150
 7625POPC   GL255586  17.424  15.930   6.150
 7625POPC   C1A55587  17.534  15.929   6.450
 7625POPC   D2A55588  17.514  15.952   6.750
 7625POPC   C3A55589  17.500  15.915   7.050
 7625POPC   C4A55590  17.472  15.994   7.350
 7625POPC   C1B55591  17.252  15.916   6.450
 7625POPC   C2B55592  17.239  15.849   6.750
 7625POPC   C3B55593  17.239  15.917   7.050
 7625POPC   C4B55594  17.227  15.934   7.350
 7626POPC   NC355595  35.322  18.325   5.550
 7626POPC   PO455596  35.397  18.262   5.850
 7626POPC   GL155597  35.320  18.270   6.150
 7626POPC   GL255598  35.233  18.314   6.150
 7626POPC   C1A55599  35.362  18.283   6.450
 7626POPC   D2A55600  35.393  18.324   6.750
 7626POPC   C3A55601  35.344  18.333   7.050
 7626POPC   C4A55602  35.335  18.243   7.350
 7626POPC   C1B55603  35.161  18.444   6.450
 7626POPC   C2B55604  35.163  18.473   6.750
 7626POPC   C3B55605  35.107  18.436   7.050
 7626POPC   C4B55606  35.140  18.473   7.350
 7627POPC   NC355607  29.899  44.615   5.550
 7627POPC   PO455608  29.922  44.709   5.850
 7627POPC   GL155609  29.913  44.658   6.150
 7627POPC   GL255610  29.990  44.565   6.150
 7627POPC   C1A55611  29.887  44.706   6.450
 7627POPC   D2A55612  29.957  44.620   6.750
 7627POPC   C3A55613  29.937  44.669   7.050
 7627POPC   C4A55614  29.940  44.637   7.350
 7627POPC   C1B55615  30.037  44.378   6.450
 7627POPC   C2B55616  30.000  44.435   6.750
 7627POPC   C3B55617  30.035  44.441   7.050
 7627POPC   C4B55618  29.994  44.447   7.350
 7628POPC   NC355619  41.591  39.267   5.550
 7628POPC   PO455620  41.518  39.255   5.850
 7628POPC   GL155621  41.582  39.275   6.150
 7628POPC   GL255622  41.633  39.245   6.150
 7628POPC   C1A55623  41.570  39.251   6.450
 7628POPC   D2A55624  41.547  39.194   6.750
 7628POPC   C3A55625  41.568  39.261   7.050
 7628POPC   C4A55626  41.543  39.256   7.350
 7628POPC   C1B55627  41.823  39.336   6.450
 7628POPC   C2B55628  41.803  39.315   6.750
 7628POPC   C3B55629  41.754  39.357   7.050
 7628POPC   C4B55630  41.767  39.381   7.350
 7629POPC   NC355631   1.216   2.723   5.550
 7629POPC   PO455632   1.171   2.753   5.850
 7629POPC   GL155633   1.220   2.798   6.150
 7629POPC   GL255634   1.387   2.772   6.150
 7629POPC   C1A55635   1.227   2.737   6.450
 7629POPC   D2A55636   1.189   2.813   6.750
 7629POPC   C3A55637   1.212   2.725   7.050
 7629POPC   C4A55638   1.173   2.807   7.350
 7629POPC   C1B55639   1.483   2.749   6.450
 7629POPC   C2B55640   1.455   2.811   6.750
 7629POPC   C3B55641   1.488   2.781   7.050
 7629POPC   C4B55642   1.447   2.759   7.350
 7630POPC   NC355643   7.388  19.070   5.550
 7630POPC   PO455644   7.425  19.072   5.850
 7630POPC   GL155645   7.388  19.053   6.150
 7630POPC   GL255646   7.294  18.963   6.150
 7630POPC   C1A55647   7.460  19.079   6.450
 7630POPC   D2A55648   7.464  19.022   6.750
 7630POPC   C3A55649   7.468  19.090   7.050
 7630POPC   C4A55650   7.414  19.015   7.350
 7630POPC   C1B55651   7.200  18.933   6.450
 7630POPC   C2B55652   7.219  18.955   6.750
 7630POPC   C3B55653   7.241  18.923   7.050
 7630POPC   C4B55654   7.180  18.959   7.350
 7631POPC   NC355655  23.734   2.751   5.550
 7631POPC   PO455656  23.714   2.742   5.850
 7631POPC   GL155657  23.743   2.773   6.150
 7631POPC   GL255658  23.801   2.720   6.150
 7631POPC   C1A55659  23.687   2.721   6.450
 7631POPC   D2A55660  23.703   2.809   6.750
 7631POPC   C3A55661  23.667   2.735   7.050
 7631POPC   C4A55662  23.675   2.781   7.350
 7631POPC   C1B55663  23.980   2.768   6.450
 7631POPC   C2B55664  23.951   2.755   6.750
 7631POPC   C3B55665  23.999   2.761   7.050
 7631POPC   C4B55666  23.955   2.727   7.350
 7632POPC   NC355667  39.223   5.904   5.550
 7632POPC   PO455668  39.250   5.856   5.850
 7632POPC   GL155669  39.197   5.912   6.150
 7632POPC   GL255670  39.122   5.784   6.150
 7632POPC   C1A55671  39.223   5.897   6.450
 7632POPC   D2A55672  39.255   5.873   6.750
 7632POPC   C3A55673  39.243   5.907   7.050
 7632POPC   C4A55674  39.208   5.826   7.350
 7632POPC   C1B55675  39.033   5.743   6.450
 7632POPC   C2B55676  39.063   5.721   6.750
 7632POPC   C3B55677  39.072   5.673   7.050
 7632POPC   C4B55678  39.064   5.690   7.350
 7633POPC   NC355679  12.040  37.718   5.550
 7633POPC   PO455680  12.104  37.681   5.850
 7633POPC   GL155681  12.045  37.685   6.150
 7633POPC   GL255682  12.104  37.804   6.150
 7633POPC   C1A55683  12.059  37.638   6.450
 7633POPC   D2A55684  12.058  37.702   6.750
 7633POPC   C3A55685  12.030  37.694   7.050
 7633POPC   C4A55686  12.107  37.659   7.350
 7633POPC   C1B55687  12.195  37.913   6.450
 7633POPC   C2B55688  12.205  37.906   6.750
 7633POPC   C3B55689  12.129  37.917   7.050
 7633POPC   C4B55690  12.156  37.872   7.350
 7634POPC   NC355691  20.648  12.855   5.550
 7634POPC   PO455692  20.577  12.802   5.850
 7634POPC   GL155693  20.610  12.887   6.150
 7634POPC   GL255694  20.566  12.785   6.150
 7634POPC   C1A55695  20.591  12.843   6.450
 7634POPC   D2A55696  20.573  12.814   6.750
 7634POPC   C3A55697  20.585  12.888   7.050
 7634POPC   C4A55698  20.567  12.818   7.350
 7634POPC   C1B55699  20.495  12.669   6.450
 7634POPC   C2B55700  20.508  12.658   6.750
 7634POPC   C3B55701  20.523  12.595   7.050
 7634POPC   C4B55702  20.536  12.625   7.350
 7635POPC   NC355703   5.123  16.739   5.550
 7635POPC   PO455704   5.107  16.685   5.850
 7635POPC   GL155705   5.064  16.708   6.150
 7635POPC   GL255706   5.157  16.629   6.150
 7635POPC   C1A55707   5.135  16.701   6.450
 7635POPC   D2A55708   5.132  16.686   6.750
 7635POPC   C3A55709   5.125  16.702   7.050
 7635POPC   C4A55710   5.055  16.741   7.350
 7635POPC   C1B55711   5.219  16.545   6.450
 7635POPC   C2B55712   5.278  16.545   6.750
 7635POPC   C3B55713   5.213  16.497   7.050
 7635POPC   C4B55714   5.232  16.497   7.350
 7636POPC   NC355715  12.833  36.119   5.550
 7636POPC   PO455716  12.894  36.115   5.850
 7636POPC   GL155717  12.839  36.122   6.150
 7636POPC   GL255718  12.748  36.127   6.150
 7636POPC   C1A55719  12.884  36.120   6.450
 7636POPC   D2A55720  12.843  36.154   6.750
 7636POPC   C3A55721  12.807  36.133   7.050
 7636POPC   C4A55722  12.877  36.086   7.350
 7636POPC   C1B55723  12.573  36.027   6.450
 7636POPC   C2B55724  12.664  35.987   6.750
 7636POPC   C3B55725  12.593  36.035   7.050
 7636POPC   C4B55726  12.637  36.077   7.350
 7637POPC   NC355727   1.245   8.994   5.550
 7637POPC   PO455728   1.200   8.966   5.850
 7637POPC   GL155729   1.215   9.007   6.150
 7637POPC   GL255730   1.275   9.088   6.150
 7637POPC   C1A55731   1.176   8.965   6.450
 7637POPC   D2A55732   1.245   8.966   6.750
 7637POPC   C3A55733   1.238   8.988   7.050
 7637POPC   C4A55734   1.209   9.020   7.350
 7637POPC   C1B55735   1.280   9.266   6.450
 7637POPC   C2B55736   1.262   9.238   6.750
 7637POPC   C3B55737   1.292   9.257   7.050
 7637POPC   C4B55738   1.297   9.236   7.350
 7638POPC   NC355739  18.237  24.454   5.550
 7638POPC   PO455740  18.267  24.538   5.850
 7638POPC   GL155741  18.282  24.502   6.150
 7638POPC   GL255742  18.207  24.447   6.150
 7638POPC   C1A55743  18.243  24.524   6.450
 7638POPC   D2A55744  18.284  24.536   6.750
 7638POPC   C3A55745  18.275  24.459   7.050
 7638POPC   C4A55746  18.257  24.463   7.350
 7638POPC   C1B55747  18.028  24.454   6.450
 7638POPC   C2B55748  18.057  24.515   6.750
 7638POPC   C3B55749  18.070  24.457   7.050
 7638POPC   C4B55750  18.082  24.479   7.350
 7639POPC   NC355751  20.610  29.153   5.550
 7639POPC   PO455752  20.636  29.192   5.850
 7639POPC   GL155753  20.631  29.148   6.150
 7639POPC   GL255754  20.540  29.035   6.150
 7639POPC   C1A55755  20.620  29.136   6.450
 7639POPC   D2A55756  20.600  29.163   6.750
 7639POPC   C3A55757  20.582  29.155   7.050
 7639POPC   C4A55758  20.657  29.168   7.350
 7639POPC   C1B55759  20.467  28.884   6.450
 7639POPC   C2B55760  20.464  28.924   6.750
 7639POPC   C3B55761  20.510  28.876   7.050
 7639POPC   C4B55762  20.472  28.960   7.350
 7640POPC   NC355763   3.543  15.969   5.550
 7640POPC   PO455764   3.571  15.936   5.850
 7640POPC   GL155765   3.521  15.950   6.150
 7640POPC   GL255766   3.637  15.889   6.150
 7640POPC   C1A55767   3.507  15.957   6.450
 7640POPC   D2A55768   3.574  15.969   6.750
 7640POPC   C3A55769   3.517  15.930   7.050
 7640POPC   C4A55770   3.533  15.931   7.350
 7640POPC   C1B55771   3.717  15.819   6.450
 7640POPC   C2B55772   3.759  15.837   6.750
 7640POPC   C3B55773   3.729  15.832   7.050
 7640POPC   C4B55774   3.733  15.777   7.350
 7641POPC   NC355775  22.132   9.747   5.550
 7641POPC   PO455776  22.148   9.711   5.850
 7641POPC   GL155777  22.142   9.718   6.150
 7641POPC   GL255778  22.311   9.729   6.150
 7641POPC   C1A55779  22.137   9.740   6.450
 7641POPC   D2A55780  22.200   9.758   6.750
 7641POPC   C3A55781  22.210   9.769   7.050
 7641POPC   C4A55782  22.152   9.740   7.350
 7641POPC   C1B55783  22.436   9.695   6.450
 7641POPC   C2B55784  22.454   9.671   6.750
 7641POPC   C3B55785  22.442   9.726   7.050
 7641POPC   C4B55786  22.424   9.735   7.350
 7642POPC   NC355787  44.692  39.269   5.550
 7642POPC   PO455788  44.647  39.194   5.850
 7642POPC   GL155789  44.625  39.219   6.150
 7642POPC   GL255790  44.662  39.402   6.150
 7642POPC   C1A55791  44.629  39.274   6.450
 7642POPC   D2A55792  44.676  39.280   6.750
 7642POPC   C3A55793  44.613  39.200   7.050
 7642POPC   C4A55794  44.678  39.276   7.350
 7642POPC   C1B55795  44.648  39.468   6.450
 7642POPC   C2B55796  44.697  39.508   6.750
 7642POPC   C3B55797  44.705  39.511   7.050
 7642POPC   C4B55798  44.680  39.461   7.350
 7643POPC   NC355799   5.856  32.261   5.550
 7643POPC   PO455800   5.821  32.254   5.850
 7643POPC   GL155801   5.918  32.217   6.150
 7643POPC   GL255802   5.907  32.356   6.150
 7643POPC   C1A55803   5.907  32.204   6.450
 7643POPC   D2A55804   5.850  32.205   6.750
 7643POPC   C3A55805   5.833  32.281   7.050
 7643POPC   C4A55806   5.896  32.247   7.350
 7643POPC   C1B55807   6.018  32.504   6.450
 7643POPC   C2B55808   5.976  32.460   6.750
 7643POPC   C3B55809   5.993  32.495   7.050
 7643POPC   C4B55810   5.958  32.429   7.350
 7644POPC   NC355811  18.333  39.260   5.550
 7644POPC   PO455812  18.258  39.241   5.850
 7644POPC   GL155813  18.252  39.268   6.150
 7644POPC   GL255814  18.263  39.105   6.150
 7644POPC   C1A55815  18.306  39.257   6.450
 7644POPC   D2A55816  18.240  39.233   6.750
 7644POPC   C3A55817  18.280  39.190   7.050
 7644POPC   C4A55818  18.274  39.247   7.350
 7644POPC   C1B55819  18.323  38.991   6.450
 7644POPC   C2B55820  18.267  38.948   6.750
 7644POPC   C3B55821  18.249  39.012   7.050
 7644POPC   C4B55822  18.311  38.936   7.350
 7645POPC   NC355823   1.237   5.884   5.550
 7645POPC   PO455824   1.258   5.890   5.850
 7645POPC   GL155825   1.214   5.824   6.150
 7645POPC   GL255826   1.244   5.724   6.150
 7645POPC   C1A55827   1.171   5.831   6.450
 7645POPC   D2A55828   1.185   5.889   6.750
 7645POPC   C3A55829   1.213   5.828   7.050
 7645POPC   C4A55830   1.201   5.848   7.350
 7645POPC   C1B55831   1.302   5.681   6.450
 7645POPC   C2B55832   1.299   5.691   6.750
 7645POPC   C3B55833   1.312   5.661   7.050
 7645POPC   C4B55834   1.353   5.665   7.350
 7646POPC   NC355835  40.755  10.479   5.550
 7646POPC   PO455836  40.827  10.571   5.850
 7646POPC   GL155837  40.802  10.521   6.150
 7646POPC   GL255838  40.896  10.584   6.150
 7646POPC   C1A55839  40.820  10.503   6.450
 7646POPC   D2A55840  40.809  10.479   6.750
 7646POPC   C3A55841  40.805  10.570   7.050
 7646POPC   C4A55842  40.812  10.539   7.350
 7646POPC   C1B55843  40.920  10.779   6.450
 7646POPC   C2B55844  40.940  10.694   6.750
 7646POPC   C3B55845  40.877  10.779   7.050
 7646POPC   C4B55846  40.941  10.694   7.350
 7647POPC   NC355847  27.569  22.177   5.550
 7647POPC   PO455848  27.569  22.177   5.850
 7647POPC   GL155849  27.556  22.120   6.150
 7647POPC   GL255850  27.492  22.175   6.150
 7647POPC   C1A55851  27.574  22.200   6.450
 7647POPC   D2A55852  27.602  22.171   6.750
 7647POPC   C3A55853  27.572  22.138   7.050
 7647POPC   C4A55854  27.641  22.196   7.350
 7647POPC   C1B55855  27.345  22.289   6.450
 7647POPC   C2B55856  27.326  22.327   6.750
 7647POPC   C3B55857  27.358  22.255   7.050
 7647POPC   C4B55858  27.340  22.303   7.350
 7648POPC   NC355859  37.672  11.333   5.550
 7648POPC   PO455860  37.635  11.269   5.850
 7648POPC   GL155861  37.660  11.258   6.150
 7648POPC   GL255862  37.732  11.447   6.150
 7648POPC   C1A55863  37.638  11.287   6.450
 7648POPC   D2A55864  37.645  11.305   6.750
 7648POPC   C3A55865  37.647  11.271   7.050
 7648POPC   C4A55866  37.707  11.254   7.350
 7648POPC   C1B55867  37.735  11.485   6.450
 7648POPC   C2B55868  37.740  11.492   6.750
 7648POPC   C3B55869  37.764  11.519   7.050
 7648POPC   C4B55870  37.814  11.528   7.350
 7649POPC   NC355871   0.476  11.325   5.550
 7649POPC   PO455872   0.454  11.292   5.850
 7649POPC   GL155873   0.438  11.349   6.150
 7649POPC   GL255874   0.473  11.164   6.150
 7649POPC   C1A55875   0.448  11.284   6.450
 7649POPC   D2A55876   0.399  11.331   6.750
 7649POPC   C3A55877   0.392  11.306   7.050
 7649POPC   C4A55878   0.436  11.260   7.350
 7649POPC   C1B55879   0.482  11.096   6.450
 7649POPC   C2B55880   0.448  11.052   6.750
 7649POPC   C3B55881   0.431  11.091   7.050
 7649POPC   C4B55882   0.426  11.033   7.350
 7650POPC   NC355883  37.703  19.811   5.550
 7650POPC   PO455884  37.646  19.861   5.850
 7650POPC   GL155885  37.668  19.813   6.150
 7650POPC   GL255886  37.553  19.959   6.150
 7650POPC   C1A55887  37.723  19.792   6.450
 7650POPC   D2A55888  37.681  19.816   6.750
 7650POPC   C3A55889  37.674  19.853   7.050
 7650POPC   C4A55890  37.636  19.853   7.350
 7650POPC   C1B55891  37.510  19.958   6.450
 7650POPC   C2B55892  37.456  19.994   6.750
 7650POPC   C3B55893  37.546  20.010   7.050
 7650POPC   C4B55894  37.479  20.038   7.350
 7651POPC   NC355895  10.535  24.491   5.550
 7651POPC   PO455896  10.477  24.520   5.850
 7651POPC   GL155897  10.548  24.444   6.150
 7651POPC   GL255898  10.392  24.458   6.150
 7651POPC   C1A55899  10.528  24.446   6.450
 7651POPC   D2A55900  10.509  24.505   6.750
 7651POPC   C3A55901  10.521  24.511   7.050
 7651POPC   C4A55902  10.506  24.489   7.350
 7651POPC   C1B55903  10.326  24.341   6.450
 7651POPC   C2B55904  10.295  24.417   6.750
 7651POPC   C3B55905  10.337  24.395   7.050
 7651POPC   C4B55906  10.262  24.340   7.350
 7652POPC   NC355907  13.617  19.840   5.550
 7652POPC   PO455908  13.675  19.797   5.850
 7652POPC   GL155909  13.606  19.865   6.150
 7652POPC   GL255910  13.704  19.817   6.150
 7652POPC   C1A55911  13.637  19.824   6.450
 7652POPC   D2A55912  13.613  19.807   6.750
 7652POPC   C3A55913  13.599  19.877   7.050
 7652POPC   C4A55914  13.643  19.800   7.350
 7652POPC   C1B55915  13.840  19.853   6.450
 7652POPC   C2B55916  13.901  19.913   6.750
 7652POPC   C3B55917  13.889  19.849   7.050
 7652POPC   C4B55918  13.898  19.857   7.350
 7653POPC   NC355919  25.235   8.158   5.550
 7653POPC   PO455920  25.233   8.176   5.850
 7653POPC   GL155921  25.290   8.211   6.150
 7653POPC   GL255922  25.323   8.286   6.150
 7653POPC   C1A55923  25.263   8.224   6.450
 7653POPC   D2A55924  25.307   8.201   6.750
 7653POPC   C3A55925  25.297   8.148   7.050
 7653POPC   C4A55926  25.224   8.226   7.350
 7653POPC   C1B55927  25.492   8.300   6.450
 7653POPC   C2B55928  25.505   8.339   6.750
 7653POPC   C3B55929  25.427   8.355   7.050
 7653POPC   C4B55930  25.487   8.368   7.350
 7654POPC   NC355931  34.572  19.873   5.550
 7654POPC   PO455932  34.537  19.862   5.850
 7654POPC   GL155933  34.574  19.844   6.150
 7654POPC   GL255934  34.557  19.977   6.150
 7654POPC   C1A55935  34.558  19.819   6.450
 7654POPC   D2A55936  34.537  19.839   6.750
 7654POPC   C3A55937  34.596  19.798   7.050
 7654POPC   C4A55938  34.614  19.880   7.350
 7654POPC   C1B55939  34.541  20.039   6.450
 7654POPC   C2B55940  34.480  20.079   6.750
 7654POPC   C3B55941  34.466  20.120   7.050
 7654POPC   C4B55942  34.516  20.106   7.350
 7655POPC   NC355943  10.523  26.780   5.550
 7655POPC   PO455944  10.488  26.795   5.850
 7655POPC   GL155945  10.541  26.866   6.150
 7655POPC   GL255946  10.419  26.818   6.150
 7655POPC   C1A55947  10.557  26.833   6.450
 7655POPC   D2A55948  10.550  26.771   6.750
 7655POPC   C3A55949  10.478  26.863   7.050
 7655POPC   C4A55950  10.544  26.784   7.350
 7655POPC   C1B55951  10.299  26.793   6.450
 7655POPC   C2B55952  10.236  26.829   6.750
 7655POPC   C3B55953  10.255  26.812   7.050
 7655POPC   C4B55954  10.241  26.779   7.350
 7656POPC   NC355955  28.414   1.941   5.550
 7656POPC   PO455956  28.399   1.995   5.850
 7656POPC   GL155957  28.333   1.940   6.150
 7656POPC   GL255958  28.379   1.865   6.150
 7656POPC   C1A55959  28.326   1.981   6.450
 7656POPC   D2A55960  28.341   2.032   6.750
 7656POPC   C3A55961  28.362   2.005   7.050
 7656POPC   C4A55962  28.359   2.016   7.350
 7656POPC   C1B55963  28.278   1.788   6.450
 7656POPC   C2B55964  28.281   1.702   6.750
 7656POPC   C3B55965  28.345   1.765   7.050
 7656POPC   C4B55966  28.289   1.705   7.350
 7657POPC   NC355967  29.159   8.943   5.550
 7657POPC   PO455968  29.134   8.966   5.850
 7657POPC   GL155969  29.095   8.972   6.150
 7657POPC   GL255970  29.061   9.035   6.150
 7657POPC   C1A55971  29.133   8.935   6.450
 7657POPC   D2A55972  29.122   8.945   6.750
 7657POPC   C3A55973  29.129   8.962   7.050
 7657POPC   C4A55974  29.194   9.011   7.350
 7657POPC   C1B55975  28.897   9.137   6.450
 7657POPC   C2B55976  28.929   9.089   6.750
 7657POPC   C3B55977  28.919   9.130   7.050
 7657POPC   C4B55978  28.947   9.083   7.350
 7658POPC   NC355979  18.239   4.354   5.550
 7658POPC   PO455980  18.242   4.299   5.850
 7658POPC   GL155981  18.242   4.269   6.150
 7658POPC   GL255982  18.251   4.165   6.150
 7658POPC   C1A55983  18.256   4.268   6.450
 7658POPC   D2A55984  18.257   4.288   6.750
 7658POPC   C3A55985  18.266   4.335   7.050
 7658POPC   C4A55986  18.252   4.346   7.350
 7658POPC   C1B55987  18.284   4.104   6.450
 7658POPC   C2B55988  18.316   4.062   6.750
 7658POPC   C3B55989  18.343   4.073   7.050
 7658POPC   C4B55990  18.350   4.055   7.350
 7659POPC   NC355991  41.604   6.654   5.550
 7659POPC   PO455992  41.511   6.609   5.850
 7659POPC   GL155993  41.511   6.667   6.150
 7659POPC   GL255994  41.721   6.608   6.150
 7659POPC   C1A55995  41.549   6.598   6.450
 7659POPC   D2A55996  41.529   6.618   6.750
 7659POPC   C3A55997  41.594   6.653   7.050
 7659POPC   C4A55998  41.562   6.641   7.350
 7659POPC   C1B55999  41.772   6.598   6.450
 7659POPC   C2B56000  41.814   6.632   6.750
 7659POPC   C3B56001  41.771   6.585   7.050
 7659POPC   C4B56002  41.752   6.620   7.350
 7660POPC   NC356003  13.578  34.581   5.550
 7660POPC   PO456004  13.660  34.564   5.850
 7660POPC   GL156005  13.613  34.623   6.150
 7660POPC   GL256006  13.704  34.600   6.150
 7660POPC   C1A56007  13.620  34.531   6.450
 7660POPC   D2A56008  13.603  34.526   6.750
 7660POPC   C3A56009  13.663  34.590   7.050
 7660POPC   C4A56010  13.598  34.539   7.350
 7660POPC   C1B56011  13.825  34.739   6.450
 7660POPC   C2B56012  13.828  34.720   6.750
 7660POPC   C3B56013  13.815  34.769   7.050
 7660POPC   C4B56014  13.820  34.698   7.350
 7661POPC   NC356015   9.756  29.137   5.550
 7661POPC   PO456016   9.752  29.153   5.850
 7661POPC   GL156017   9.775  29.117   6.150
 7661POPC   GL256018   9.652  29.269   6.150
 7661POPC   C1A56019   9.714  29.143   6.450
 7661POPC   D2A56020   9.779  29.099   6.750
 7661POPC   C3A56021   9.734  29.184   7.050
 7661POPC   C4A56022   9.781  29.183   7.350
 7661POPC   C1B56023   9.520  29.333   6.450
 7661POPC   C2B56024   9.599  29.347   6.750
 7661POPC   C3B56025   9.588  29.336   7.050
 7661POPC   C4B56026   9.523  29.296   7.350
 7662POPC   NC356027  14.442  44.637   5.550
 7662POPC   PO456028  14.376  44.632   5.850
 7662POPC   GL156029  14.409  44.621   6.150
 7662POPC   GL256030  14.286  44.595   6.150
 7662POPC   C1A56031  14.382  44.663   6.450
 7662POPC   D2A56032  14.435  44.679   6.750
 7662POPC   C3A56033  14.441  44.617   7.050
 7662POPC   C4A56034  14.427  44.701   7.350
 7662POPC   C1B56035  14.243  44.443   6.450
 7662POPC   C2B56036  14.199  44.527   6.750
 7662POPC   C3B56037  14.189  44.450   7.050
 7662POPC   C4B56038  14.264  44.472   7.350
 7663POPC   NC356039  42.319  29.967   5.550
 7663POPC   PO456040  42.381  29.967   5.850
 7663POPC   GL156041  42.310  29.918   6.150
 7663POPC   GL256042  42.466  30.028   6.150
 7663POPC   C1A56043  42.304  29.945   6.450
 7663POPC   D2A56044  42.291  29.906   6.750
 7663POPC   C3A56045  42.373  29.968   7.050
 7663POPC   C4A56046  42.367  29.935   7.350
 7663POPC   C1B56047  42.569  30.074   6.450
 7663POPC   C2B56048  42.540  30.061   6.750
 7663POPC   C3B56049  42.545  30.002   7.050
 7663POPC   C4B56050  42.528  30.079   7.350
 7664POPC   NC356051  15.190   5.858   5.550
 7664POPC   PO456052  15.163   5.900   5.850
 7664POPC   GL156053  15.210   5.871   6.150
 7664POPC   GL256054  15.143   5.997   6.150
 7664POPC   C1A56055  15.186   5.901   6.450
 7664POPC   D2A56056  15.186   5.871   6.750
 7664POPC   C3A56057  15.206   5.838   7.050
 7664POPC   C4A56058  15.226   5.826   7.350
 7664POPC   C1B56059  15.008   6.095   6.450
 7664POPC   C2B56060  15.029   6.066   6.750
 7664POPC   C3B56061  15.005   6.103   7.050
 7664POPC   C4B56062  15.088   6.076   7.350
 7665POPC   NC356063   0.460   2.789   5.550
 7665POPC   PO456064   0.424   2.738   5.850
 7665POPC   GL156065   0.398   2.815   6.150
 7665POPC   GL256066   0.393   2.665   6.150
 7665POPC   C1A56067   0.471   2.736   6.450
 7665POPC   D2A56068   0.459   2.753   6.750
 7665POPC   C3A56069   0.407   2.754   7.050
 7665POPC   C4A56070   0.430   2.767   7.350
 7665POPC   C1B56071   0.441   2.499   6.450
 7665POPC   C2B56072   0.402   2.467   6.750
 7665POPC   C3B56073   0.395   2.537   7.050
 7665POPC   C4B56074   0.440   2.547   7.350
 7666POPC   NC356075  43.075  29.127   5.550
 7666POPC   PO456076  43.126  29.165   5.850
 7666POPC   GL156077  43.152  29.143   6.150
 7666POPC   GL256078  43.048  29.085   6.150
 7666POPC   C1A56079  43.105  29.152   6.450
 7666POPC   D2A56080  43.103  29.129   6.750
 7666POPC   C3A56081  43.157  29.098   7.050
 7666POPC   C4A56082  43.102  29.179   7.350
 7666POPC   C1B56083  42.855  29.031   6.450
 7666POPC   C2B56084  42.859  29.032   6.750
 7666POPC   C3B56085  42.925  29.034   7.050
 7666POPC   C4B56086  42.853  29.068   7.350
 7667POPC   NC356087  24.457   2.727   5.550
 7667POPC   PO456088  24.490   2.785   5.850
 7667POPC   GL156089  24.456   2.734   6.150
 7667POPC   GL256090  24.478   2.614   6.150
 7667POPC   C1A56091  24.450   2.739   6.450
 7667POPC   D2A56092  24.462   2.815   6.750
 7667POPC   C3A56093  24.481   2.801   7.050
 7667POPC   C4A56094  24.492   2.790   7.350
 7667POPC   C1B56095  24.495   2.518   6.450
 7667POPC   C2B56096  24.481   2.466   6.750
 7667POPC   C3B56097  24.471   2.471   7.050
 7667POPC   C4B56098  24.539   2.474   7.350
 7668POPC   NC356099  38.420  28.390   5.550
 7668POPC   PO456100  38.477  28.369   5.850
 7668POPC   GL156101  38.466  28.385   6.150
 7668POPC   GL256102  38.379  28.325   6.150
 7668POPC   C1A56103  38.447  28.322   6.450
 7668POPC   D2A56104  38.493  28.366   6.750
 7668POPC   C3A56105  38.432  28.402   7.050
 7668POPC   C4A56106  38.482  28.373   7.350
 7668POPC   C1B56107  38.180  28.399   6.450
 7668POPC   C2B56108  38.173  28.338   6.750
 7668POPC   C3B56109  38.227  28.337   7.050
 7668POPC   C4B56110  38.194  28.317   7.350
 7669POPC   NC356111  33.780  23.709   5.550
 7669POPC   PO456112  33.812  23.717   5.850
 7669POPC   GL156113  33.777  23.700   6.150
 7669POPC   GL256114  33.916  23.749   6.150
 7669POPC   C1A56115  33.773  23.686   6.450
 7669POPC   D2A56116  33.811  23.703   6.750
 7669POPC   C3A56117  33.774  23.706   7.050
 7669POPC   C4A56118  33.842  23.735   7.350
 7669POPC   C1B56119  34.029  23.796   6.450
 7669POPC   C2B56120  34.074  23.816   6.750
 7669POPC   C3B56121  34.015  23.814   7.050
 7669POPC   C4B56122  34.031  23.831   7.350
 7670POPC   NC356123  19.884  33.037   5.550
 7670POPC   PO456124  19.880  32.988   5.850
 7670POPC   GL156125  19.876  33.073   6.150
 7670POPC   GL256126  19.736  33.124   6.150
 7670POPC   C1A56127  19.822  32.997   6.450
 7670POPC   D2A56128  19.850  33.014   6.750
 7670POPC   C3A56129  19.875  33.059   7.050
 7670POPC   C4A56130  19.858  33.066   7.350
 7670POPC   C1B56131  19.653  33.171   6.450
 7670POPC   C2B56132  19.654  33.133   6.750
 7670POPC   C3B56133  19.660  33.174   7.050
 7670POPC   C4B56134  19.632  33.192   7.350
 7671POPC   NC356135   9.006  23.687   5.550
 7671POPC   PO456136   9.007  23.665   5.850
 7671POPC   GL156137   8.940  23.690   6.150
 7671POPC   GL256138   8.827  23.760   6.150
 7671POPC   C1A56139   9.010  23.665   6.450
 7671POPC   D2A56140   8.962  23.693   6.750
 7671POPC   C3A56141   9.005  23.753   7.050
 7671POPC   C4A56142   8.966  23.759   7.350
 7671POPC   C1B56143   8.793  23.820   6.450
 7671POPC   C2B56144   8.727  23.877   6.750
 7671POPC   C3B56145   8.805  23.890   7.050
 7671POPC   C4B56146   8.801  23.880   7.350
 7672POPC   NC356147  12.888  29.156   5.550
 7672POPC   PO456148  12.891  29.105   5.850
 7672POPC   GL156149  12.892  29.131   6.150
 7672POPC   GL256150  12.697  29.181   6.150
 7672POPC   C1A56151  12.802  29.112   6.450
 7672POPC   D2A56152  12.863  29.170   6.750
 7672POPC   C3A56153  12.811  29.107   7.050
 7672POPC   C4A56154  12.847  29.183   7.350
 7672POPC   C1B56155  12.585  29.140   6.450
 7672POPC   C2B56156  12.615  29.145   6.750
 7672POPC   C3B56157  12.609  29.157   7.050
 7672POPC   C4B56158  12.602  29.151   7.350
 7673POPC   NC356159  40.825   4.318   5.550
 7673POPC   PO456160  40.760   4.292   5.850
 7673POPC   GL156161  40.739   4.331   6.150
 7673POPC   GL256162  40.712   4.406   6.150
 7673POPC   C1A56163  40.800   4.325   6.450
 7673POPC   D2A56164  40.781   4.326   6.750
 7673POPC   C3A56165  40.770   4.359   7.050
 7673POPC   C4A56166  40.749   4.364   7.350
 7673POPC   C1B56167  40.653   4.592   6.450
 7673POPC   C2B56168  40.644   4.590   6.750
 7673POPC   C3B56169  40.695   4.517   7.050
 7673POPC   C4B56170  40.679   4.519   7.350
 7674POPC   NC356171  26.089  29.971   5.550
 7674POPC   PO456172  25.998  29.953   5.850
 7674POPC   GL156173  26.038  29.923   6.150
 7674POPC   GL256174  25.963  29.754   6.150
 7674POPC   C1A56175  26.059  29.886   6.450
 7674POPC   D2A56176  25.994  29.875   6.750
 7674POPC   C3A56177  26.039  29.946   7.050
 7674POPC   C4A56178  26.005  29.905   7.350
 7674POPC   C1B56179  25.998  29.649   6.450
 7674POPC   C2B56180  25.985  29.711   6.750
 7674POPC   C3B56181  26.022  29.682   7.050
 7674POPC   C4B56182  26.023  29.661   7.350
 7675POPC   NC356183  27.573  37.640   5.550
 7675POPC   PO456184  27.603  37.686   5.850
 7675POPC   GL156185  27.601  37.712   6.150
 7675POPC   GL256186  27.607  37.844   6.150
 7675POPC   C1A56187  27.564  37.689   6.450
 7675POPC   D2A56188  27.636  37.670   6.750
 7675POPC   C3A56189  27.565  37.710   7.050
 7675POPC   C4A56190  27.635  37.644   7.350
 7675POPC   C1B56191  27.728  37.955   6.450
 7675POPC   C2B56192  27.648  37.934   6.750
 7675POPC   C3B56193  27.688  37.936   7.050
 7675POPC   C4B56194  27.701  37.917   7.350
 7676POPC   NC356195   1.947  21.384   5.550
 7676POPC   PO456196   1.943  21.373   5.850
 7676POPC   GL156197   2.030  21.419   6.150
 7676POPC   GL256198   2.113  21.493   6.150
 7676POPC   C1A56199   1.978  21.349   6.450
 7676POPC   D2A56200   1.954  21.411   6.750
 7676POPC   C3A56201   2.010  21.379   7.050
 7676POPC   C4A56202   1.949  21.429   7.350
 7676POPC   C1B56203   2.131  21.581   6.450
 7676POPC   C2B56204   2.147  21.616   6.750
 7676POPC   C3B56205   2.209  21.541   7.050
 7676POPC   C4B56206   2.178  21.529   7.350
 7677POPC   NC356207  38.489  31.496   5.550
 7677POPC   PO456208  38.494  31.468   5.850
 7677POPC   GL156209  38.447  31.488   6.150
 7677POPC   GL256210  38.287  31.520   6.150
 7677POPC   C1A56211  38.460  31.447   6.450
 7677POPC   D2A56212  38.487  31.516   6.750
 7677POPC   C3A56213  38.442  31.486   7.050
 7677POPC   C4A56214  38.429  31.508   7.350
 7677POPC   C1B56215  38.227  31.541   6.450
 7677POPC   C2B56216  38.204  31.591   6.750
 7677POPC   C3B56217  38.179  31.592   7.050
 7677POPC   C4B56218  38.193  31.575   7.350
 7678POPC   NC356219  37.705   9.733   5.550
 7678POPC   PO456220  37.703   9.758   5.850
 7678POPC   GL156221  37.693   9.787   6.150
 7678POPC   GL256222  37.816   9.780   6.150
 7678POPC   C1A56223  37.705   9.736   6.450
 7678POPC   D2A56224  37.679   9.763   6.750
 7678POPC   C3A56225  37.665   9.784   7.050
 7678POPC   C4A56226  37.660   9.735   7.350
 7678POPC   C1B56227  37.877   9.842   6.450
 7678POPC   C2B56228  37.852   9.867   6.750
 7678POPC   C3B56229  37.942   9.874   7.050
 7678POPC   C4B56230  37.897   9.920   7.350
 7679POPC   NC356231  29.958   5.869   5.550
 7679POPC   PO456232  29.952   5.828   5.850
 7679POPC   GL156233  29.955   5.848   6.150
 7679POPC   GL256234  30.058   5.818   6.150
 7679POPC   C1A56235  29.875   5.871   6.450
 7679POPC   D2A56236  29.943   5.825   6.750
 7679POPC   C3A56237  29.937   5.898   7.050
 7679POPC   C4A56238  29.923   5.824   7.350
 7679POPC   C1B56239  30.159   5.799   6.450
 7679POPC   C2B56240  30.120   5.814   6.750
 7679POPC   C3B56241  30.190   5.862   7.050
 7679POPC   C4B56242  30.156   5.854   7.350
 7680POPC   NC356243  43.926  36.112   5.550
 7680POPC   PO456244  43.908  36.152   5.850
 7680POPC   GL156245  43.906  36.160   6.150
 7680POPC   GL256246  43.980  36.217   6.150
 7680POPC   C1A56247  43.885  36.149   6.450
 7680POPC   D2A56248  43.891  36.172   6.750
 7680POPC   C3A56249  43.896  36.113   7.050
 7680POPC   C4A56250  43.909  36.086   7.350
 7680POPC   C1B56251  44.001  36.358   6.450
 7680POPC   C2B56252  44.010  36.344   6.750
 7680POPC   C3B56253  43.975  36.333   7.050
 7680POPC   C4B56254  43.944  36.333   7.350
 7681POPC   NC356255  35.397  20.592   5.550
 7681POPC   PO456256  35.320  20.635   5.850
 7681POPC   GL156257  35.379  20.619   6.150
 7681POPC   GL256258  35.467  20.566   6.150
 7681POPC   C1A56259  35.338  20.652   6.450
 7681POPC   D2A56260  35.314  20.634   6.750
 7681POPC   C3A56261  35.339  20.617   7.050
 7681POPC   C4A56262  35.366  20.617   7.350
 7681POPC   C1B56263  35.611  20.574   6.450
 7681POPC   C2B56264  35.583  20.636   6.750
 7681POPC   C3B56265  35.554  20.585   7.050
 7681POPC   C4B56266  35.576  20.598   7.350
 7682POPC   NC356267   0.471   0.452   5.550
 7682POPC   PO456268   0.418   0.421   5.850
 7682POPC   GL156269   0.472   0.485   6.150
 7682POPC   GL256270   0.559   0.459   6.150
 7682POPC   C1A56271   0.431   0.393   6.450
 7682POPC   D2A56272   0.435   0.395   6.750
 7682POPC   C3A56273   0.486   0.484   7.050
 7682POPC   C4A56274   0.444   0.410   7.350
 7682POPC   C1B56275   0.712   0.474   6.450
 7682POPC   C2B56276   0.668   0.466   6.750
 7682POPC   C3B56277   0.711   0.466   7.050
 7682POPC   C4B56278   0.674   0.507   7.350
 7683POPC   NC356279  31.510   2.028   5.550
 7683POPC   PO456280  31.437   1.940   5.850
 7683POPC   GL156281  31.456   1.977   6.150
 7683POPC   GL256282  31.557   1.931   6.150
 7683POPC   C1A56283  31.423   2.019   6.450
 7683POPC   D2A56284  31.484   1.945   6.750
 7683POPC   C3A56285  31.474   2.028   7.050
 7683POPC   C4A56286  31.452   1.980   7.350
 7683POPC   C1B56287  31.675   1.963   6.450
 7683POPC   C2B56288  31.680   1.954   6.750
 7683POPC   C3B56289  31.691   1.893   7.050
 7683POPC   C4B56290  31.748   1.915   7.350
 7684POPC   NC356291  22.202  42.383   5.550
 7684POPC   PO456292  22.175  42.310   5.850
 7684POPC   GL156293  22.129  42.374   6.150
 7684POPC   GL256294  22.035  42.392   6.150
 7684POPC   C1A56295  22.171  42.355   6.450
 7684POPC   D2A56296  22.191  42.358   6.750
 7684POPC   C3A56297  22.114  42.359   7.050
 7684POPC   C4A56298  22.184  42.341   7.350
 7684POPC   C1B56299  21.966  42.449   6.450
 7684POPC   C2B56300  21.941  42.453   6.750
 7684POPC   C3B56301  21.989  42.475   7.050
 7684POPC   C4B56302  21.976  42.476   7.350
 7685POPC   NC356303  19.875  36.930   5.550
 7685POPC   PO456304  19.846  36.938   5.850
 7685POPC   GL156305  19.827  36.879   6.150
 7685POPC   GL256306  19.913  36.863   6.150
 7685POPC   C1A56307  19.805  36.922   6.450
 7685POPC   D2A56308  19.857  36.929   6.750
 7685POPC   C3A56309  19.845  36.924   7.050
 7685POPC   C4A56310  19.834  36.926   7.350
 7685POPC   C1B56311  20.094  36.771   6.450
 7685POPC   C2B56312  20.087  36.810   6.750
 7685POPC   C3B56313  20.045  36.826   7.050
 7685POPC   C4B56314  20.073  36.796   7.350
 7686POPC   NC356315  32.233   8.984   5.550
 7686POPC   PO456316  32.251   8.980   5.850
 7686POPC   GL156317  32.267   8.995   6.150
 7686POPC   GL256318  32.356   8.903   6.150
 7686POPC   C1A56319  32.246   8.939   6.450
 7686POPC   D2A56320  32.249   8.982   6.750
 7686POPC   C3A56321  32.256   8.993   7.050
 7686POPC   C4A56322  32.206   8.976   7.350
 7686POPC   C1B56323  32.476   8.789   6.450
 7686POPC   C2B56324  32.477   8.800   6.750
 7686POPC   C3B56325  32.474   8.810   7.050
 7686POPC   C4B56326  32.392   8.845   7.350
 7687POPC   NC356327   3.557  14.387   5.550
 7687POPC   PO456328   3.574  14.378   5.850
 7687POPC   GL156329   3.502  14.408   6.150
 7687POPC   GL256330   3.450  14.377   6.150
 7687POPC   C1A56331   3.578  14.367   6.450
 7687POPC   D2A56332   3.587  14.435   6.750
 7687POPC   C3A56333   3.518  14.377   7.050
 7687POPC   C4A56334   3.560  14.436   7.350
 7687POPC   C1B56335   3.293  14.353   6.450
 7687POPC   C2B56336   3.286  14.415   6.750
 7687POPC   C3B56337   3.324  14.392   7.050
 7687POPC   C4B56338   3.309  14.358   7.350
 7688POPC   NC356339  13.663   2.776   5.550
 7688POPC   PO456340  13.591   2.815   5.850
 7688POPC   GL156341  13.597   2.725   6.150
 7688POPC   GL256342  13.500   2.711   6.150
 7688POPC   C1A56343  13.669   2.761   6.450
 7688POPC   D2A56344  13.609   2.796   6.750
 7688POPC   C3A56345  13.591   2.795   7.050
 7688POPC   C4A56346  13.669   2.756   7.350
 7688POPC   C1B56347  13.373   2.746   6.450
 7688POPC   C2B56348  13.403   2.766   6.750
 7688POPC   C3B56349  13.387   2.741   7.050
 7688POPC   C4B56350  13.419   2.724   7.350
 7689POPC   NC356351   2.005   7.452   5.550
 7689POPC   PO456352   1.983   7.437   5.850
 7689POPC   GL156353   1.952   7.419   6.150
 7689POPC   GL256354   2.082   7.512   6.150
 7689POPC   C1A56355   1.959   7.418   6.450
 7689POPC   D2A56356   1.995   7.418   6.750
 7689POPC   C3A56357   1.964   7.450   7.050
 7689POPC   C4A56358   2.022   7.371   7.350
 7689POPC   C1B56359   2.091   7.696   6.450
 7689POPC   C2B56360   2.129   7.620   6.750
 7689POPC   C3B56361   2.128   7.626   7.050
 7689POPC   C4B56362   2.048   7.621   7.350
 7690POPC   NC356363  35.311  27.579   5.550
 7690POPC   PO456364  35.382  27.566   5.850
 7690POPC   GL156365  35.304  27.642   6.150
 7690POPC   GL256366  35.312  27.443   6.150
 7690POPC   C1A56367  35.331  27.560   6.450
 7690POPC   D2A56368  35.377  27.615   6.750
 7690POPC   C3A56369  35.347  27.563   7.050
 7690POPC   C4A56370  35.343  27.544   7.350
 7690POPC   C1B56371  35.212  27.401   6.450
 7690POPC   C2B56372  35.248  27.395   6.750
 7690POPC   C3B56373  35.234  27.368   7.050
 7690POPC   C4B56374  35.246  27.346   7.350
 7691POPC   NC356375   5.873  38.502   5.550
 7691POPC   PO456376   5.915  38.459   5.850
 7691POPC   GL156377   5.889  38.504   6.150
 7691POPC   GL256378   5.791  38.429   6.150
 7691POPC   C1A56379   5.892  38.495   6.450
 7691POPC   D2A56380   5.917  38.415   6.750
 7691POPC   C3A56381   5.834  38.438   7.050
 7691POPC   C4A56382   5.853  38.410   7.350
 7691POPC   C1B56383   5.639  38.447   6.450
 7691POPC   C2B56384   5.667  38.479   6.750
 7691POPC   C3B56385   5.627  38.409   7.050
 7691POPC   C4B56386   5.626  38.469   7.350
 7692POPC   NC356387   6.673  40.023   5.550
 7692POPC   PO456388   6.624  40.017   5.850
 7692POPC   GL156389   6.613  40.009   6.150
 7692POPC   GL256390   6.775  40.066   6.150
 7692POPC   C1A56391   6.620  39.964   6.450
 7692POPC   D2A56392   6.672  39.964   6.750
 7692POPC   C3A56393   6.626  40.037   7.050
 7692POPC   C4A56394   6.641  40.013   7.350
 7692POPC   C1B56395   6.843  40.173   6.450
 7692POPC   C2B56396   6.813  40.108   6.750
 7692POPC   C3B56397   6.898  40.172   7.050
 7692POPC   C4B56398   6.825  40.098   7.350
 7693POPC   NC356399  32.230  19.048   5.550
 7693POPC   PO456400  32.218  19.009   5.850
 7693POPC   GL156401  32.222  19.030   6.150
 7693POPC   GL256402  32.115  18.967   6.150
 7693POPC   C1A56403  32.213  19.096   6.450
 7693POPC   D2A56404  32.280  19.087   6.750
 7693POPC   C3A56405  32.271  19.039   7.050
 7693POPC   C4A56406  32.210  19.068   7.350
 7693POPC   C1B56407  32.088  18.923   6.450
 7693POPC   C2B56408  32.026  18.882   6.750
 7693POPC   C3B56409  32.081  18.924   7.050
 7693POPC   C4B56410  32.054  18.848   7.350
 7694POPC   NC356411   8.176  26.041   5.550
 7694POPC   PO456412   8.174  26.050   5.850
 7694POPC   GL156413   8.193  26.068   6.150
 7694POPC   GL256414   8.174  25.981   6.150
 7694POPC   C1A56415   8.208  26.002   6.450
 7694POPC   D2A56416   8.189  26.046   6.750
 7694POPC   C3A56417   8.204  26.057   7.050
 7694POPC   C4A56418   8.163  26.020   7.350
 7694POPC   C1B56419   8.047  25.821   6.450
 7694POPC   C2B56420   8.103  25.821   6.750
 7694POPC   C3B56421   8.098  25.856   7.050
 7694POPC   C4B56422   8.060  25.826   7.350
 7695POPC   NC356423  11.266  19.033   5.550
 7695POPC   PO456424  11.289  19.019   5.850
 7695POPC   GL156425  11.342  19.044   6.150
 7695POPC   GL256426  11.264  19.184   6.150
 7695POPC   C1A56427  11.294  19.057   6.450
 7695POPC   D2A56428  11.267  19.096   6.750
 7695POPC   C3A56429  11.287  19.042   7.050
 7695POPC   C4A56430  11.328  19.095   7.350
 7695POPC   C1B56431  11.216  19.293   6.450
 7695POPC   C2B56432  11.207  19.307   6.750
 7695POPC   C3B56433  11.239  19.296   7.050
 7695POPC   C4B56434  11.229  19.310   7.350
 7696POPC   NC356435   8.947  26.836   5.550
 7696POPC   PO456436   8.963  26.778   5.850
 7696POPC   GL156437   8.973  26.790   6.150
 7696POPC   GL256438   8.964  26.739   6.150
 7696POPC   C1A56439   8.996  26.778   6.450
 7696POPC   D2A56440   8.947  26.785   6.750
 7696POPC   C3A56441   8.951  26.768   7.050
 7696POPC   C4A56442   8.991  26.842   7.350
 7696POPC   C1B56443   8.880  26.580   6.450
 7696POPC   C2B56444   8.885  26.545   6.750
 7696POPC   C3B56445   8.905  26.545   7.050
 7696POPC   C4B56446   8.839  26.565   7.350
 7697POPC   NC356447  10.563  30.730   5.550
 7697POPC   PO456448  10.497  30.703   5.850
 7697POPC   GL156449  10.494  30.725   6.150
 7697POPC   GL256450  10.477  30.823   6.150
 7697POPC   C1A56451  10.544  30.648   6.450
 7697POPC   D2A56452  10.524  30.722   6.750
 7697POPC   C3A56453  10.514  30.717   7.050
 7697POPC   C4A56454  10.526  30.695   7.350
 7697POPC   C1B56455  10.462  30.917   6.450
 7697POPC   C2B56456  10.459  30.938   6.750
 7697POPC   C3B56457  10.412  30.946   7.050
 7697POPC   C4B56458  10.465  30.968   7.350
 7698POPC   NC356459  31.472  17.463   5.550
 7698POPC   PO456460  31.474  17.543   5.850
 7698POPC   GL156461  31.499  17.528   6.150
 7698POPC   GL256462  31.543  17.486   6.150
 7698POPC   C1A56463  31.433  17.545   6.450
 7698POPC   D2A56464  31.458  17.498   6.750
 7698POPC   C3A56465  31.438  17.516   7.050
 7698POPC   C4A56466  31.513  17.473   7.350
 7698POPC   C1B56467  31.728  17.428   6.450
 7698POPC   C2B56468  31.684  17.385   6.750
 7698POPC   C3B56469  31.752  17.372   7.050
 7698POPC   C4B56470  31.684  17.377   7.350
 7699POPC   NC356471  33.071   2.801   5.550
 7699POPC   PO456472  33.049   2.806   5.850
 7699POPC   GL156473  33.044   2.806   6.150
 7699POPC   GL256474  33.097   2.671   6.150
 7699POPC   C1A56475  33.064   2.745   6.450
 7699POPC   D2A56476  32.982   2.810   6.750
 7699POPC   C3A56477  33.020   2.800   7.050
 7699POPC   C4A56478  33.055   2.780   7.350
 7699POPC   C1B56479  33.187   2.593   6.450
 7699POPC   C2B56480  33.254   2.551   6.750
 7699POPC   C3B56481  33.253   2.622   7.050
 7699POPC   C4B56482  33.189   2.627   7.350
 7700POPC   NC356483   1.235  28.328   5.550
 7700POPC   PO456484   1.236  28.364   5.850
 7700POPC   GL156485   1.259  28.358   6.150
 7700POPC   GL256486   1.316  28.384   6.150
 7700POPC   C1A56487   1.246  28.398   6.450
 7700POPC   D2A56488   1.244  28.398   6.750
 7700POPC   C3A56489   1.204  28.339   7.050
 7700POPC   C4A56490   1.223  28.406   7.350
 7700POPC   C1B56491   1.402  28.461   6.450
 7700POPC   C2B56492   1.407  28.485   6.750
 7700POPC   C3B56493   1.400  28.448   7.050
 7700POPC   C4B56494   1.457  28.531   7.350
 7701POPC   NC356495   5.075  13.583   5.550
 7701POPC   PO456496   5.124  13.581   5.850
 7701POPC   GL156497   5.124  13.634   6.150
 7701POPC   GL256498   5.081  13.509   6.150
 7701POPC   C1A56499   5.046  13.584   6.450
 7701POPC   D2A56500   5.094  13.581   6.750
 7701POPC   C3A56501   5.067  13.636   7.050
 7701POPC   C4A56502   5.094  13.644   7.350
 7701POPC   C1B56503   5.022  13.373   6.450
 7701POPC   C2B56504   4.978  13.390   6.750
 7701POPC   C3B56505   5.017  13.386   7.050
 7701POPC   C4B56506   5.005  13.450   7.350
 7702POPC   NC356507  20.641  14.437   5.550
 7702POPC   PO456508  20.621  14.442   5.850
 7702POPC   GL156509  20.602  14.440   6.150
 7702POPC   GL256510  20.746  14.473   6.150
 7702POPC   C1A56511  20.570  14.357   6.450
 7702POPC   D2A56512  20.615  14.450   6.750
 7702POPC   C3A56513  20.656  14.433   7.050
 7702POPC   C4A56514  20.655  14.418   7.350
 7702POPC   C1B56515  20.812  14.600   6.450
 7702POPC   C2B56516  20.784  14.518   6.750
 7702POPC   C3B56517  20.800  14.543   7.050
 7702POPC   C4B56518  20.854  14.537   7.350
 7703POPC   NC356519  26.028   4.302   5.550
 7703POPC   PO456520  26.061   4.309   5.850
 7703POPC   GL156521  26.038   4.366   6.150
 7703POPC   GL256522  26.047   4.415   6.150
 7703POPC   C1A56523  26.008   4.300   6.450
 7703POPC   D2A56524  26.041   4.318   6.750
 7703POPC   C3A56525  26.071   4.349   7.050
 7703POPC   C4A56526  26.044   4.283   7.350
 7703POPC   C1B56527  26.070   4.577   6.450
 7703POPC   C2B56528  26.054   4.599   6.750
 7703POPC   C3B56529  26.011   4.555   7.050
 7703POPC   C4B56530  26.067   4.571   7.350
 7704POPC   NC356531   1.979   9.764   5.550
 7704POPC   PO456532   1.991   9.748   5.850
 7704POPC   GL156533   1.977   9.767   6.150
 7704POPC   GL256534   1.842   9.730   6.150
 7704POPC   C1A56535   2.026   9.772   6.450
 7704POPC   D2A56536   2.004   9.742   6.750
 7704POPC   C3A56537   1.979   9.728   7.050
 7704POPC   C4A56538   2.021   9.756   7.350
 7704POPC   C1B56539   1.714   9.750   6.450
 7704POPC   C2B56540   1.753   9.830   6.750
 7704POPC   C3B56541   1.755   9.788   7.050
 7704POPC   C4B56542   1.702   9.750   7.350
 7705POPC   NC356543  32.273  24.534   5.550
 7705POPC   PO456544  32.287  24.525   5.850
 7705POPC   GL156545  32.248  24.467   6.150
 7705POPC   GL256546  32.404  24.506   6.150
 7705POPC   C1A56547  32.225  24.491   6.450
 7705POPC   D2A56548  32.205  24.451   6.750
 7705POPC   C3A56549  32.297  24.457   7.050
 7705POPC   C4A56550  32.259  24.538   7.350
 7705POPC   C1B56551  32.426  24.598   6.450
 7705POPC   C2B56552  32.506  24.586   6.750
 7705POPC   C3B56553  32.498  24.589   7.050
 7705POPC   C4B56554  32.499  24.597   7.350
 7706POPC   NC356555  43.930  43.102   5.550
 7706POPC   PO456556  43.851  43.137   5.850
 7706POPC   GL156557  43.852  43.132   6.150
 7706POPC   GL256558  43.952  43.175   6.150
 7706POPC   C1A56559  43.880  43.092   6.450
 7706POPC   D2A56560  43.845  43.098   6.750
 7706POPC   C3A56561  43.901  43.128   7.050
 7706POPC   C4A56562  43.899  43.065   7.350
 7706POPC   C1B56563  44.102  43.219   6.450
 7706POPC   C2B56564  44.094  43.213   6.750
 7706POPC   C3B56565  44.117  43.196   7.050
 7706POPC   C4B56566  44.112  43.265   7.350
 7707POPC   NC356567   1.206  33.785   5.550
 7707POPC   PO456568   1.222  33.766   5.850
 7707POPC   GL156569   1.231  33.844   6.150
 7707POPC   GL256570   1.152  33.746   6.150
 7707POPC   C1A56571   1.184  33.779   6.450
 7707POPC   D2A56572   1.215  33.809   6.750
 7707POPC   C3A56573   1.244  33.780   7.050
 7707POPC   C4A56574   1.190  33.814   7.350
 7707POPC   C1B56575   1.082  33.657   6.450
 7707POPC   C2B56576   1.050  33.585   6.750
 7707POPC   C3B56577   1.070  33.634   7.050
 7707POPC   C4B56578   1.053  33.595   7.350
 7708POPC   NC356579  33.758  12.080   5.550
 7708POPC   PO456580  33.788  12.028   5.850
 7708POPC   GL156581  33.800  12.041   6.150
 7708POPC   GL256582  33.799  12.233   6.150
 7708POPC   C1A56583  33.770  12.059   6.450
 7708POPC   D2A56584  33.757  12.063   6.750
 7708POPC   C3A56585  33.802  12.112   7.050
 7708POPC   C4A56586  33.798  12.079   7.350
 7708POPC   C1B56587  33.820  12.343   6.450
 7708POPC   C2B56588  33.825  12.330   6.750
 7708POPC   C3B56589  33.893  12.312   7.050
 7708POPC   C4B56590  33.842  12.348   7.350
 7709POPC   NC356591   2.805   3.551   5.550
 7709POPC   PO456592   2.732   3.580   5.850
 7709POPC   GL156593   2.743   3.517   6.150
 7709POPC   GL256594   2.745   3.621   6.150
 7709POPC   C1A56595   2.755   3.523   6.450
 7709POPC   D2A56596   2.727   3.562   6.750
 7709POPC   C3A56597   2.776   3.533   7.050
 7709POPC   C4A56598   2.746   3.493   7.350
 7709POPC   C1B56599   2.772   3.781   6.450
 7709POPC   C2B56600   2.819   3.839   6.750
 7709POPC   C3B56601   2.762   3.804   7.050
 7709POPC   C4B56602   2.772   3.749   7.350
 7710POPC   NC356603   9.016   3.522   5.550
 7710POPC   PO456604   9.011   3.575   5.850
 7710POPC   GL156605   9.012   3.563   6.150
 7710POPC   GL256606   9.117   3.550   6.150
 7710POPC   C1A56607   9.017   3.548   6.450
 7710POPC   D2A56608   8.976   3.562   6.750
 7710POPC   C3A56609   8.993   3.520   7.050
 7710POPC   C4A56610   8.956   3.545   7.350
 7710POPC   C1B56611   9.220   3.564   6.450
 7710POPC   C2B56612   9.210   3.590   6.750
 7710POPC   C3B56613   9.244   3.581   7.050
 7710POPC   C4B56614   9.204   3.586   7.350
 7711POPC   NC356615   2.774  24.539   5.550
 7711POPC   PO456616   2.800  24.457   5.850
 7711POPC   GL156617   2.810  24.454   6.150
 7711POPC   GL256618   2.848  24.393   6.150
 7711POPC   C1A56619   2.810  24.496   6.450
 7711POPC   D2A56620   2.776  24.479   6.750
 7711POPC   C3A56621   2.783  24.473   7.050
 7711POPC   C4A56622   2.771  24.441   7.350
 7711POPC   C1B56623   2.942  24.332   6.450
 7711POPC   C2B56624   2.902  24.291   6.750
 7711POPC   C3B56625   2.966  24.283   7.050
 7711POPC   C4B56626   2.918  24.324   7.350
 7712POPC   NC356627   6.618  10.490   5.550
 7712POPC   PO456628   6.612  10.552   5.850
 7712POPC   GL156629   6.679  10.517   6.150
 7712POPC   GL256630   6.768  10.428   6.150
 7712POPC   C1A56631   6.667  10.557   6.450
 7712POPC   D2A56632   6.694  10.518   6.750
 7712POPC   C3A56633   6.684  10.525   7.050
 7712POPC   C4A56634   6.617  10.483   7.350
 7712POPC   C1B56635   6.786  10.370   6.450
 7712POPC   C2B56636   6.811  10.324   6.750
 7712POPC   C3B56637   6.843  10.347   7.050
 7712POPC   C4B56638   6.845  10.339   7.350
 7713POPC   NC356639  29.101   8.223   5.550
 7713POPC   PO456640  29.183   8.225   5.850
 7713POPC   GL156641  29.178   8.206   6.150
 7713POPC   GL256642  29.228   8.208   6.150
 7713POPC   C1A56643  29.165   8.199   6.450
 7713POPC   D2A56644  29.182   8.225   6.750
 7713POPC   C3A56645  29.104   8.155   7.050
 7713POPC   C4A56646  29.129   8.228   7.350
 7713POPC   C1B56647  29.363   8.128   6.450
 7713POPC   C2B56648  29.436   8.145   6.750
 7713POPC   C3B56649  29.354   8.140   7.050
 7713POPC   C4B56650  29.436   8.199   7.350
 7714POPC   NC356651  36.165  40.784   5.550
 7714POPC   PO456652  36.141  40.804   5.850
 7714POPC   GL156653  36.100  40.819   6.150
 7714POPC   GL256654  36.037  40.884   6.150
 7714POPC   C1A56655  36.156  40.830   6.450
 7714POPC   D2A56656  36.105  40.733   6.750
 7714POPC   C3A56657  36.108  40.809   7.050
 7714POPC   C4A56658  36.132  40.752   7.350
 7714POPC   C1B56659  36.058  41.021   6.450
 7714POPC   C2B56660  35.994  41.058   6.750
 7714POPC   C3B56661  36.030  40.973   7.050
 7714POPC   C4B56662  36.033  41.005   7.350
 7715POPC   NC356663  24.481  41.544   5.550
 7715POPC   PO456664  24.499  41.570   5.850
 7715POPC   GL156665  24.443  41.550   6.150
 7715POPC   GL256666  24.409  41.466   6.150
 7715POPC   C1A56667  24.524  41.551   6.450
 7715POPC   D2A56668  24.515  41.573   6.750
 7715POPC   C3A56669  24.512  41.515   7.050
 7715POPC   C4A56670  24.497  41.580   7.350
 7715POPC   C1B56671  24.231  41.435   6.450
 7715POPC   C2B56672  24.245  41.477   6.750
 7715POPC   C3B56673  24.270  41.438   7.050
 7715POPC   C4B56674  24.287  41.392   7.350
 7716POPC   NC356675  43.062   2.747   5.550
 7716POPC   PO456676  43.147   2.783   5.850
 7716POPC   GL156677  43.099   2.808   6.150
 7716POPC   GL256678  43.073   2.631   6.150
 7716POPC   C1A56679  43.129   2.804   6.450
 7716POPC   D2A56680  43.081   2.782   6.750
 7716POPC   C3A56681  43.083   2.779   7.050
 7716POPC   C4A56682  43.119   2.762   7.350
 7716POPC   C1B56683  42.994   2.622   6.450
 7716POPC   C2B56684  42.911   2.530   6.750
 7716POPC   C3B56685  42.973   2.534   7.050
 7716POPC   C4B56686  42.913   2.558   7.350
 7717POPC   NC356687  25.247   4.356   5.550
 7717POPC   PO456688  25.269   4.331   5.850
 7717POPC   GL156689  25.267   4.354   6.150
 7717POPC   GL256690  25.166   4.319   6.150
 7717POPC   C1A56691  25.239   4.355   6.450
 7717POPC   D2A56692  25.241   4.324   6.750
 7717POPC   C3A56693  25.301   4.350   7.050
 7717POPC   C4A56694  25.256   4.280   7.350
 7717POPC   C1B56695  25.011   4.317   6.450
 7717POPC   C2B56696  25.014   4.332   6.750
 7717POPC   C3B56697  25.017   4.363   7.050
 7717POPC   C4B56698  24.987   4.314   7.350
 7718POPC   NC356699  19.862  14.439   5.550
 7718POPC   PO456700  19.823  14.361   5.850
 7718POPC   GL156701  19.785  14.377   6.150
 7718POPC   GL256702  19.725  14.465   6.150
 7718POPC   C1A56703  19.794  14.443   6.450
 7718POPC   D2A56704  19.815  14.410   6.750
 7718POPC   C3A56705  19.821  14.388   7.050
 7718POPC   C4A56706  19.884  14.433   7.350
 7718POPC   C1B56707  19.681  14.536   6.450
 7718POPC   C2B56708  19.668  14.538   6.750
 7718POPC   C3B56709  19.624  14.620   7.050
 7718POPC   C4B56710  19.665  14.578   7.350
 7719POPC   NC356711  31.431   1.238   5.550
 7719POPC   PO456712  31.439   1.244   5.850
 7719POPC   GL156713  31.482   1.194   6.150
 7719POPC   GL256714  31.484   1.105   6.150
 7719POPC   C1A56715  31.501   1.235   6.450
 7719POPC   D2A56716  31.433   1.241   6.750
 7719POPC   C3A56717  31.429   1.188   7.050
 7719POPC   C4A56718  31.457   1.191   7.350
 7719POPC   C1B56719  31.445   1.008   6.450
 7719POPC   C2B56720  31.505   0.961   6.750
 7719POPC   C3B56721  31.501   0.997   7.050
 7719POPC   C4B56722  31.507   1.000   7.350
 7720POPC   NC356723   3.556  44.674   5.550
 7720POPC   PO456724   3.584  44.706   5.850
 7720POPC   GL156725   3.559  44.666   6.150
 7720POPC   GL256726   3.491  44.780   6.150
 7720POPC   C1A56727   3.584  44.710   6.450
 7720POPC   D2A56728   3.536  44.707   6.750
 7720POPC   C3A56729   3.569  44.625   7.050
 7720POPC   C4A56730   3.582  44.700   7.350
 7720POPC   C1B56731   3.454  44.882   6.450
 7720POPC   C2B56732   3.404  44.881   6.750
 7720POPC   C3B56733   3.407  44.939   7.050
 7720POPC   C4B56734   3.467  44.885   7.350
 7721POPC   NC356735  22.978  35.399   5.550
 7721POPC   PO456736  22.944  35.379   5.850
 7721POPC   GL156737  22.962  35.384   6.150
 7721POPC   GL256738  22.991  35.245   6.150
 7721POPC   C1A56739  22.924  35.336   6.450
 7721POPC   D2A56740  22.969  35.321   6.750
 7721POPC   C3A56741  22.977  35.384   7.050
 7721POPC   C4A56742  22.976  35.338   7.350
 7721POPC   C1B56743  23.041  35.126   6.450
 7721POPC   C2B56744  23.038  35.112   6.750
 7721POPC   C3B56745  23.042  35.098   7.050
 7721POPC   C4B56746  23.056  35.137   7.350
 7722POPC   NC356747  24.525  12.829   5.550
 7722POPC   PO456748  24.534  12.877   5.850
 7722POPC   GL156749  24.468  12.844   6.150
 7722POPC   GL256750  24.661  12.796   6.150
 7722POPC   C1A56751  24.469  12.831   6.450
 7722POPC   D2A56752  24.458  12.870   6.750
 7722POPC   C3A56753  24.462  12.879   7.050
 7722POPC   C4A56754  24.500  12.890   7.350
 7722POPC   C1B56755  24.729  12.803   6.450
 7722POPC   C2B56756  24.708  12.766   6.750
 7722POPC   C3B56757  24.754  12.822   7.050
 7722POPC   C4B56758  24.785  12.829   7.350
 7723POPC   NC356759  34.601  34.538   5.550
 7723POPC   PO456760  34.567  34.554   5.850
 7723POPC   GL156761  34.617  34.527   6.150
 7723POPC   GL256762  34.728  34.549   6.150
 7723POPC   C1A56763  34.557  34.580   6.450
 7723POPC   D2A56764  34.555  34.568   6.750
 7723POPC   C3A56765  34.553  34.589   7.050
 7723POPC   C4A56766  34.592  34.603   7.350
 7723POPC   C1B56767  34.840  34.578   6.450
 7723POPC   C2B56768  34.775  34.608   6.750
 7723POPC   C3B56769  34.835  34.642   7.050
 7723POPC   C4B56770  34.830  34.584   7.350
 7724POPC   NC356771  41.587  38.410   5.550
 7724POPC   PO456772  41.553  38.417   5.850
 7724POPC   GL156773  41.541  38.419   6.150
 7724POPC   GL256774  41.476  38.606   6.150
 7724POPC   C1A56775  41.516  38.494   6.450
 7724POPC   D2A56776  41.563  38.411   6.750
 7724POPC   C3A56777  41.525  38.475   7.050
 7724POPC   C4A56778  41.524  38.438   7.350
 7724POPC   C1B56779  41.495  38.673   6.450
 7724POPC   C2B56780  41.511  38.738   6.750
 7724POPC   C3B56781  41.516  38.693   7.050
 7724POPC   C4B56782  41.450  38.704   7.350
 7725POPC   NC356783  37.635   2.028   5.550
 7725POPC   PO456784  37.670   1.993   5.850
 7725POPC   GL156785  37.653   2.003   6.150
 7725POPC   GL256786  37.722   2.101   6.150
 7725POPC   C1A56787  37.638   1.943   6.450
 7725POPC   D2A56788  37.707   2.001   6.750
 7725POPC   C3A56789  37.729   1.953   7.050
 7725POPC   C4A56790  37.660   1.971   7.350
 7725POPC   C1B56791  37.839   2.260   6.450
 7725POPC   C2B56792  37.762   2.186   6.750
 7725POPC   C3B56793  37.814   2.230   7.050
 7725POPC   C4B56794  37.778   2.186   7.350
 7726POPC   NC356795   9.741   6.612   5.550
 7726POPC   PO456796   9.769   6.676   5.850
 7726POPC   GL156797   9.700   6.608   6.150
 7726POPC   GL256798   9.612   6.685   6.150
 7726POPC   C1A56799   9.754   6.689   6.450
 7726POPC   D2A56800   9.709   6.610   6.750
 7726POPC   C3A56801   9.714   6.652   7.050
 7726POPC   C4A56802   9.779   6.639   7.350
 7726POPC   C1B56803   9.474   6.700   6.450
 7726POPC   C2B56804   9.532   6.763   6.750
 7726POPC   C3B56805   9.485   6.678   7.050
 7726POPC   C4B56806   9.475   6.730   7.350
 7727POPC   NC356807   8.212  44.649   5.550
 7727POPC   PO456808   8.211  44.692   5.850
 7727POPC   GL156809   8.201  44.672   6.150
 7727POPC   GL256810   8.290  44.629   6.150
 7727POPC   C1A56811   8.155  44.697   6.450
 7727POPC   D2A56812   8.220  44.648   6.750
 7727POPC   C3A56813   8.215  44.644   7.050
 7727POPC   C4A56814   8.167  44.647   7.350
 7727POPC   C1B56815   8.443  44.556   6.450
 7727POPC   C2B56816   8.355  44.515   6.750
 7727POPC   C3B56817   8.372  44.476   7.050
 7727POPC   C4B56818   8.443  44.554   7.350
 7728POPC   NC356819  42.326  15.227   5.550
 7728POPC   PO456820  42.298  15.131   5.850
 7728POPC   GL156821  42.343  15.141   6.150
 7728POPC   GL256822  42.432  15.329   6.150
 7728POPC   C1A56823  42.365  15.226   6.450
 7728POPC   D2A56824  42.351  15.193   6.750
 7728POPC   C3A56825  42.373  15.156   7.050
 7728POPC   C4A56826  42.308  15.194   7.350
 7728POPC   C1B56827  42.430  15.354   6.450
 7728POPC   C2B56828  42.490  15.441   6.750
 7728POPC   C3B56829  42.414  15.371   7.050
 7728POPC   C4B56830  42.424  15.394   7.350
 7729POPC   NC356831  37.683  35.328   5.550
 7729POPC   PO456832  37.705  35.353   5.850
 7729POPC   GL156833  37.661  35.333   6.150
 7729POPC   GL256834  37.803  35.419   6.150
 7729POPC   C1A56835  37.699  35.391   6.450
 7729POPC   D2A56836  37.659  35.392   6.750
 7729POPC   C3A56837  37.679  35.333   7.050
 7729POPC   C4A56838  37.688  35.334   7.350
 7729POPC   C1B56839  37.880  35.440   6.450
 7729POPC   C2B56840  37.914  35.411   6.750
 7729POPC   C3B56841  37.885  35.406   7.050
 7729POPC   C4B56842  37.868  35.409   7.350
 7730POPC   NC356843  26.834  25.288   5.550
 7730POPC   PO456844  26.816  25.244   5.850
 7730POPC   GL156845  26.783  25.304   6.150
 7730POPC   GL256846  26.769  25.132   6.150
 7730POPC   C1A56847  26.799  25.302   6.450
 7730POPC   D2A56848  26.834  25.218   6.750
 7730POPC   C3A56849  26.855  25.244   7.050
 7730POPC   C4A56850  26.791  25.288   7.350
 7730POPC   C1B56851  26.677  25.003   6.450
 7730POPC   C2B56852  26.653  25.014   6.750
 7730POPC   C3B56853  26.664  25.053   7.050
 7730POPC   C4B56854  26.650  25.045   7.350
 7731POPC   NC356855  26.804  31.486   5.550
 7731POPC   PO456856  26.805  31.480   5.850
 7731POPC   GL156857  26.866  31.456   6.150
 7731POPC   GL256858  26.834  31.627   6.150
 7731POPC   C1A56859  26.826  31.516   6.450
 7731POPC   D2A56860  26.867  31.438   6.750
 7731POPC   C3A56861  26.829  31.427   7.050
 7731POPC   C4A56862  26.792  31.491   7.350
 7731POPC   C1B56863  26.781  31.694   6.450
 7731POPC   C2B56864  26.702  31.753   6.750
 7731POPC   C3B56865  26.796  31.732   7.050
 7731POPC   C4B56866  26.785  31.747   7.350
 7732POPC   NC356867  23.686  20.632   5.550
 7732POPC   PO456868  23.711  20.593   5.850
 7732POPC   GL156869  23.720  20.651   6.150
 7732POPC   GL256870  23.838  20.555   6.150
 7732POPC   C1A56871  23.674  20.653   6.450
 7732POPC   D2A56872  23.720  20.655   6.750
 7732POPC   C3A56873  23.710  20.572   7.050
 7732POPC   C4A56874  23.715  20.601   7.350
 7732POPC   C1B56875  23.841  20.431   6.450
 7732POPC   C2B56876  23.882  20.403   6.750
 7732POPC   C3B56877  23.883  20.369   7.050
 7732POPC   C4B56878  23.825  20.457   7.350
 7733POPC   NC356879  27.549  36.866   5.550
 7733POPC   PO456880  27.607  36.885   5.850
 7733POPC   GL156881  27.596  36.901   6.150
 7733POPC   GL256882  27.634  36.845   6.150
 7733POPC   C1A56883  27.581  36.945   6.450
 7733POPC   D2A56884  27.581  36.862   6.750
 7733POPC   C3A56885  27.571  36.942   7.050
 7733POPC   C4A56886  27.641  36.922   7.350
 7733POPC   C1B56887  27.731  36.770   6.450
 7733POPC   C2B56888  27.720  36.705   6.750
 7733POPC   C3B56889  27.780  36.762   7.050
 7733POPC   C4B56890  27.805  36.705   7.350
 7734POPC   NC356891  42.329  10.519   5.550
 7734POPC   PO456892  42.289  10.533   5.850
 7734POPC   GL156893  42.361  10.533   6.150
 7734POPC   GL256894  42.443  10.369   6.150
 7734POPC   C1A56895  42.370  10.506   6.450
 7734POPC   D2A56896  42.384  10.484   6.750
 7734POPC   C3A56897  42.310  10.489   7.050
 7734POPC   C4A56898  42.299  10.536   7.350
 7734POPC   C1B56899  42.420  10.284   6.450
 7734POPC   C2B56900  42.487  10.331   6.750
 7734POPC   C3B56901  42.421  10.293   7.050
 7734POPC   C4B56902  42.477  10.272   7.350
 7735POPC   NC356903  15.173  15.989   5.550
 7735POPC   PO456904  15.150  15.923   5.850
 7735POPC   GL156905  15.200  15.909   6.150
 7735POPC   GL256906  15.091  15.805   6.150
 7735POPC   C1A56907  15.222  15.906   6.450
 7735POPC   D2A56908  15.157  15.945   6.750
 7735POPC   C3A56909  15.184  15.940   7.050
 7735POPC   C4A56910  15.134  15.952   7.350
 7735POPC   C1B56911  15.144  15.718   6.450
 7735POPC   C2B56912  15.074  15.692   6.750
 7735POPC   C3B56913  15.119  15.715   7.050
 7735POPC   C4B56914  15.100  15.729   7.350
 7736POPC   NC356915   2.029  28.324   5.550
 7736POPC   PO456916   1.966  28.330   5.850
 7736POPC   GL156917   1.990  28.391   6.150
 7736POPC   GL256918   1.948  28.488   6.150
 7736POPC   C1A56919   1.977  28.371   6.450
 7736POPC   D2A56920   1.993  28.402   6.750
 7736POPC   C3A56921   2.022  28.372   7.050
 7736POPC   C4A56922   2.003  28.368   7.350
 7736POPC   C1B56923   1.803  28.496   6.450
 7736POPC   C2B56924   1.851  28.500   6.750
 7736POPC   C3B56925   1.790  28.552   7.050
 7736POPC   C4B56926   1.823  28.555   7.350
 7737POPC   NC356927  41.579   2.777   5.550
 7737POPC   PO456928  41.605   2.792   5.850
 7737POPC   GL156929  41.608   2.749   6.150
 7737POPC   GL256930  41.540   2.635   6.150
 7737POPC   C1A56931  41.565   2.718   6.450
 7737POPC   D2A56932  41.550   2.761   6.750
 7737POPC   C3A56933  41.511   2.762   7.050
 7737POPC   C4A56934  41.522   2.736   7.350
 7737POPC   C1B56935  41.430   2.530   6.450
 7737POPC   C2B56936  41.495   2.578   6.750
 7737POPC   C3B56937  41.465   2.570   7.050
 7737POPC   C4B56938  41.442   2.567   7.350
 7738POPC   NC356939  16.681  43.137   5.550
 7738POPC   PO456940  16.738  43.069   5.850
 7738POPC   GL156941  16.769  43.140   6.150
 7738POPC   GL256942  16.727  43.010   6.150
 7738POPC   C1A56943  16.685  43.092   6.450
 7738POPC   D2A56944  16.776  43.090   6.750
 7738POPC   C3A56945  16.744  43.083   7.050
 7738POPC   C4A56946  16.696  43.144   7.350
 7738POPC   C1B56947  16.793  42.899   6.450
 7738POPC   C2B56948  16.795  42.882   6.750
 7738POPC   C3B56949  16.773  42.896   7.050
 7738POPC   C4B56950  16.772  42.912   7.350
 7739POPC   NC356951  34.601  14.412   5.550
 7739POPC   PO456952  34.543  14.402   5.850
 7739POPC   GL156953  34.535  14.444   6.150
 7739POPC   GL256954  34.543  14.529   6.150
 7739POPC   C1A56955  34.538  14.383   6.450
 7739POPC   D2A56956  34.603  14.383   6.750
 7739POPC   C3A56957  34.625  14.383   7.050
 7739POPC   C4A56958  34.597  14.394   7.350
 7739POPC   C1B56959  34.593  14.697   6.450
 7739POPC   C2B56960  34.504  14.642   6.750
 7739POPC   C3B56961  34.544  14.616   7.050
 7739POPC   C4B56962  34.547  14.607   7.350
 7740POPC   NC356963  33.763   1.247   5.550
 7740POPC   PO456964  33.775   1.245   5.850
 7740POPC   GL156965  33.841   1.240   6.150
 7740POPC   GL256966  33.903   1.172   6.150
 7740POPC   C1A56967  33.813   1.201   6.450
 7740POPC   D2A56968  33.846   1.207   6.750
 7740POPC   C3A56969  33.821   1.186   7.050
 7740POPC   C4A56970  33.780   1.206   7.350
 7740POPC   C1B56971  34.027   1.105   6.450
 7740POPC   C2B56972  34.061   1.084   6.750
 7740POPC   C3B56973  34.038   1.093   7.050
 7740POPC   C4B56974  33.988   1.052   7.350
 7741POPC   NC356975  38.464  19.827   5.550
 7741POPC   PO456976  38.495  19.817   5.850
 7741POPC   GL156977  38.450  19.839   6.150
 7741POPC   GL256978  38.454  19.919   6.150
 7741POPC   C1A56979  38.419  19.823   6.450
 7741POPC   D2A56980  38.487  19.785   6.750
 7741POPC   C3A56981  38.488  19.877   7.050
 7741POPC   C4A56982  38.409  19.881   7.350
 7741POPC   C1B56983  38.526  20.064   6.450
 7741POPC   C2B56984  38.552  20.117   6.750
 7741POPC   C3B56985  38.493  20.067   7.050
 7741POPC   C4B56986  38.542  20.120   7.350
 7742POPC   NC356987  12.088  41.576   5.550
 7742POPC   PO456988  12.066  41.521   5.850
 7742POPC   GL156989  12.033  41.556   6.150
 7742POPC   GL256990  12.103  41.460   6.150
 7742POPC   C1A56991  12.031  41.607   6.450
 7742POPC   D2A56992  12.081  41.598   6.750
 7742POPC   C3A56993  12.103  41.571   7.050
 7742POPC   C4A56994  12.100  41.529   7.350
 7742POPC   C1B56995  12.244  41.360   6.450
 7742POPC   C2B56996  12.214  41.318   6.750
 7742POPC   C3B56997  12.163  41.347   7.050
 7742POPC   C4B56998  12.201  41.329   7.350
 7743POPC   NC356999   6.670   7.381   5.550
 7743POPC   PO457000   6.597   7.421   5.850
 7743POPC   GL157001   6.668   7.401   6.150
 7743POPC   GL257002   6.528   7.352   6.150
 7743POPC   C1A57003   6.649   7.419   6.450
 7743POPC   D2A57004   6.656   7.395   6.750
 7743POPC   C3A57005   6.624   7.443   7.050
 7743POPC   C4A57006   6.662   7.439   7.350
 7743POPC   C1B57007   6.366   7.399   6.450
 7743POPC   C2B57008   6.408   7.391   6.750
 7743POPC   C3B57009   6.414   7.389   7.050
 7743POPC   C4B57010   6.371   7.371   7.350
 7744POPC   NC357011  41.599  36.172   5.550
 7744POPC   PO457012  41.519  36.158   5.850
 7744POPC   GL157013  41.569  36.176   6.150
 7744POPC   GL257014  41.638  36.222   6.150
 7744POPC   C1A57015  41.598  36.082   6.450
 7744POPC   D2A57016  41.511  36.098   6.750
 7744POPC   C3A57017  41.556  36.175   7.050
 7744POPC   C4A57018  41.566  36.131   7.350
 7744POPC   C1B57019  41.817  36.299   6.450
 7744POPC   C2B57020  41.788  36.214   6.750
 7744POPC   C3B57021  41.758  36.253   7.050
 7744POPC   C4B57022  41.738  36.207   7.350
 7745POPC   NC357023  16.717  37.685   5.550
 7745POPC   PO457024  16.778  37.673   5.850
 7745POPC   GL157025  16.778  37.642   6.150
 7745POPC   GL257026  16.804  37.791   6.150
 7745POPC   C1A57027  16.743  37.656   6.450
 7745POPC   D2A57028  16.738  37.651   6.750
 7745POPC   C3A57029  16.687  37.690   7.050
 7745POPC   C4A57030  16.736  37.634   7.350
 7745POPC   C1B57031  16.812  37.919   6.450
 7745POPC   C2B57032  16.858  37.917   6.750
 7745POPC   C3B57033  16.800  37.905   7.050
 7745POPC   C4B57034  16.878  37.920   7.350
 7746POPC   NC357035   8.978  18.327   5.550
 7746POPC   PO457036   8.956  18.295   5.850
 7746POPC   GL157037   8.968  18.258   6.150
 7746POPC   GL257038   8.997  18.155   6.150
 7746POPC   C1A57039   8.936  18.326   6.450
 7746POPC   D2A57040   9.004  18.247   6.750
 7746POPC   C3A57041   8.962  18.237   7.050
 7746POPC   C4A57042   8.952  18.247   7.350
 7746POPC   C1B57043   9.075  18.044   6.450
 7746POPC   C2B57044   9.111  18.052   6.750
 7746POPC   C3B57045   9.120  18.103   7.050
 7746POPC   C4B57046   9.073  18.063   7.350
 7747POPC   NC357047  29.968   1.226   5.550
 7747POPC   PO457048  29.929   1.203   5.850
 7747POPC   GL157049  29.911   1.181   6.150
 7747POPC   GL257050  29.855   1.327   6.150
 7747POPC   C1A57051  29.948   1.220   6.450
 7747POPC   D2A57052  29.923   1.185   6.750
 7747POPC   C3A57053  29.882   1.222   7.050
 7747POPC   C4A57054  29.959   1.199   7.350
 7747POPC   C1B57055  29.808   1.450   6.450
 7747POPC   C2B57056  29.729   1.407   6.750
 7747POPC   C3B57057  29.737   1.455   7.050
 7747POPC   C4B57058  29.721   1.404   7.350
 7748POPC   NC357059  19.851  43.862   5.550
 7748POPC   PO457060  19.830  43.912   5.850
 7748POPC   GL157061  19.826  43.935   6.150
 7748POPC   GL257062  19.950  43.864   6.150
 7748POPC   C1A57063  19.794  43.912   6.450
 7748POPC   D2A57064  19.852  43.881   6.750
 7748POPC   C3A57065  19.802  43.878   7.050
 7748POPC   C4A57066  19.831  43.910   7.350
 7748POPC   C1B57067  20.037  43.870   6.450
 7748POPC   C2B57068  20.047  43.928   6.750
 7748POPC   C3B57069  20.131  43.884   7.050
 7748POPC   C4B57070  20.033  43.908   7.350
 7749POPC   NC357071  29.957  36.881   5.550
 7749POPC   PO457072  29.887  36.875   5.850
 7749POPC   GL157073  29.878  36.869   6.150
 7749POPC   GL257074  30.020  36.834   6.150
 7749POPC   C1A57075  29.900  36.947   6.450
 7749POPC   D2A57076  29.930  36.898   6.750
 7749POPC   C3A57077  29.923  36.945   7.050
 7749POPC   C4A57078  29.957  36.897   7.350
 7749POPC   C1B57079  30.200  36.874   6.450
 7749POPC   C2B57080  30.205  36.814   6.750
 7749POPC   C3B57081  30.172  36.809   7.050
 7749POPC   C4B57082  30.127  36.795   7.350
 7750POPC   NC357083  27.595   0.403   5.550
 7750POPC   PO457084  27.611   0.407   5.850
 7750POPC   GL157085  27.593   0.438   6.150
 7750POPC   GL257086  27.546   0.362   6.150
 7750POPC   C1A57087  27.582   0.471   6.450
 7750POPC   D2A57088  27.557   0.449   6.750
 7750POPC   C3A57089  27.589   0.440   7.050
 7750POPC   C4A57090  27.591   0.458   7.350
 7750POPC   C1B57091  27.475   0.225   6.450
 7750POPC   C2B57092  27.513   0.262   6.750
 7750POPC   C3B57093  27.450   0.249   7.050
 7750POPC   C4B57094  27.454   0.212   7.350
 7751POPC   NC357095  26.787   1.234   5.550
 7751POPC   PO457096  26.848   1.234   5.850
 7751POPC   GL157097  26.799   1.215   6.150
 7751POPC   GL257098  26.659   1.255   6.150
 7751POPC   C1A57099  26.845   1.232   6.450
 7751POPC   D2A57100  26.798   1.175   6.750
 7751POPC   C3A57101  26.804   1.229   7.050
 7751POPC   C4A57102  26.823   1.164   7.350
 7751POPC   C1B57103  26.563   1.318   6.450
 7751POPC   C2B57104  26.577   1.319   6.750
 7751POPC   C3B57105  26.597   1.303   7.050
 7751POPC   C4B57106  26.567   1.316   7.350
 7752POPC   NC357107  38.448  34.577   5.550
 7752POPC   PO457108  38.447  34.571   5.850
 7752POPC   GL157109  38.461  34.539   6.150
 7752POPC   GL257110  38.370  34.592   6.150
 7752POPC   C1A57111  38.456  34.545   6.450
 7752POPC   D2A57112  38.412  34.574   6.750
 7752POPC   C3A57113  38.428  34.549   7.050
 7752POPC   C4A57114  38.433  34.580   7.350
 7752POPC   C1B57115  38.192  34.660   6.450
 7752POPC   C2B57116  38.253  34.718   6.750
 7752POPC   C3B57117  38.206  34.704   7.050
 7752POPC   C4B57118  38.272  34.645   7.350
 7753POPC   NC357119  31.454  22.186   5.550
 7753POPC   PO457120  31.445  22.136   5.850
 7753POPC   GL157121  31.454  22.139   6.150
 7753POPC   GL257122  31.352  22.253   6.150
 7753POPC   C1A57123  31.501  22.118   6.450
 7753POPC   D2A57124  31.515  22.209   6.750
 7753POPC   C3A57125  31.465  22.169   7.050
 7753POPC   C4A57126  31.517  22.144   7.350
 7753POPC   C1B57127  31.335  22.302   6.450
 7753POPC   C2B57128  31.268  22.377   6.750
 7753POPC   C3B57129  31.250  22.327   7.050
 7753POPC   C4B57130  31.296  22.361   7.350
 7754POPC   NC357131  32.267   3.542   5.550
 7754POPC   PO457132  32.285   3.563   5.850
 7754POPC   GL157133  32.293   3.494   6.150
 7754POPC   GL257134  32.313   3.496   6.150
 7754POPC   C1A57135  32.296   3.525   6.450
 7754POPC   D2A57136  32.256   3.514   6.750
 7754POPC   C3A57137  32.260   3.591   7.050
 7754POPC   C4A57138  32.249   3.578   7.350
 7754POPC   C1B57139  32.484   3.422   6.450
 7754POPC   C2B57140  32.511   3.468   6.750
 7754POPC   C3B57141  32.489   3.459   7.050
 7754POPC   C4B57142  32.483   3.416   7.350
 7755POPC   NC357143  35.315  19.109   5.550
 7755POPC   PO457144  35.352  19.046   5.850
 7755POPC   GL157145  35.333  19.088   6.150
 7755POPC   GL257146  35.481  19.149   6.150
 7755POPC   C1A57147  35.400  19.087   6.450
 7755POPC   D2A57148  35.315  19.091   6.750
 7755POPC   C3A57149  35.317  19.060   7.050
 7755POPC   C4A57150  35.364  19.048   7.350
 7755POPC   C1B57151  35.598  19.191   6.450
 7755POPC   C2B57152  35.604  19.199   6.750
 7755POPC   C3B57153  35.583  19.195   7.050
 7755POPC   C4B57154  35.626  19.169   7.350
 7756POPC   NC357155  38.449   1.206   5.550
 7756POPC   PO457156  38.437   1.200   5.850
 7756POPC   GL157157  38.428   1.245   6.150
 7756POPC   GL257158  38.544   1.222   6.150
 7756POPC   C1A57159  38.418   1.191   6.450
 7756POPC   D2A57160  38.421   1.178   6.750
 7756POPC   C3A57161  38.406   1.238   7.050
 7756POPC   C4A57162  38.442   1.213   7.350
 7756POPC   C1B57163  38.688   1.259   6.450
 7756POPC   C2B57164  38.680   1.285   6.750
 7756POPC   C3B57165  38.707   1.312   7.050
 7756POPC   C4B57166  38.740   1.308   7.350
 7757POPC   NC357167  16.716  36.161   5.550
 7757POPC   PO457168  16.726  36.112   5.850
 7757POPC   GL157169  16.773  36.078   6.150
 7757POPC   GL257170  16.836  36.160   6.150
 7757POPC   C1A57171  16.707  36.138   6.450
 7757POPC   D2A57172  16.735  36.103   6.750
 7757POPC   C3A57173  16.781  36.171   7.050
 7757POPC   C4A57174  16.742  36.148   7.350
 7757POPC   C1B57175  17.008  36.191   6.450
 7757POPC   C2B57176  17.023  36.124   6.750
 7757POPC   C3B57177  16.996  36.118   7.050
 7757POPC   C4B57178  16.989  36.157   7.350
 7758POPC   NC357179  32.270  32.244   5.550
 7758POPC   PO457180  32.215  32.262   5.850
 7758POPC   GL157181  32.280  32.247   6.150
 7758POPC   GL257182  32.183  32.381   6.150
 7758POPC   C1A57183  32.212  32.241   6.450
 7758POPC   D2A57184  32.201  32.276   6.750
 7758POPC   C3A57185  32.238  32.230   7.050
 7758POPC   C4A57186  32.253  32.253   7.350
 7758POPC   C1B57187  32.213  32.533   6.450
 7758POPC   C2B57188  32.183  32.469   6.750
 7758POPC   C3B57189  32.161  32.481   7.050
 7758POPC   C4B57190  32.155  32.477   7.350
 7759POPC   NC357191  34.625  32.291   5.550
 7759POPC   PO457192  34.599  32.253   5.850
 7759POPC   GL157193  34.608  32.198   6.150
 7759POPC   GL257194  34.483  32.218   6.150
 7759POPC   C1A57195  34.539  32.219   6.450
 7759POPC   D2A57196  34.535  32.217   6.750
 7759POPC   C3A57197  34.615  32.234   7.050
 7759POPC   C4A57198  34.581  32.236   7.350
 7759POPC   C1B57199  34.331  32.098   6.450
 7759POPC   C2B57200  34.310  32.138   6.750
 7759POPC   C3B57201  34.345  32.160   7.050
 7759POPC   C4B57202  34.383  32.187   7.350
 7760POPC   NC357203  19.064   9.757   5.550
 7760POPC   PO457204  19.020   9.750   5.850
 7760POPC   GL157205  19.015   9.719   6.150
 7760POPC   GL257206  19.080   9.637   6.150
 7760POPC   C1A57207  19.052   9.780   6.450
 7760POPC   D2A57208  19.056   9.737   6.750
 7760POPC   C3A57209  19.026   9.716   7.050
 7760POPC   C4A57210  19.035   9.720   7.350
 7760POPC   C1B57211  19.175   9.475   6.450
 7760POPC   C2B57212  19.138   9.534   6.750
 7760POPC   C3B57213  19.174   9.519   7.050
 7760POPC   C4B57214  19.174   9.461   7.350
 7761POPC   NC357215  40.772  43.889   5.550
 7761POPC   PO457216  40.800  43.875   5.850
 7761POPC   GL157217  40.827  43.860   6.150
 7761POPC   GL257218  40.829  44.010   6.150
 7761POPC   C1A57219  40.762  43.888   6.450
 7761POPC   D2A57220  40.756  43.919   6.750
 7761POPC   C3A57221  40.818  43.905   7.050
 7761POPC   C4A57222  40.809  43.861   7.350
 7761POPC   C1B57223  40.880  44.140   6.450
 7761POPC   C2B57224  40.905  44.165   6.750
 7761POPC   C3B57225  40.895  44.130   7.050
 7761POPC   C4B57226  40.842  44.136   7.350
 7762POPC   NC357227  40.781   5.110   5.550
 7762POPC   PO457228  40.762   5.055   5.850
 7762POPC   GL157229  40.805   5.103   6.150
 7762POPC   GL257230  40.692   5.249   6.150
 7762POPC   C1A57231  40.791   5.080   6.450
 7762POPC   D2A57232  40.776   5.045   6.750
 7762POPC   C3A57233  40.823   5.117   7.050
 7762POPC   C4A57234  40.746   5.048   7.350
 7762POPC   C1B57235  40.745   5.338   6.450
 7762POPC   C2B57236  40.683   5.347   6.750
 7762POPC   C3B57237  40.740   5.300   7.050
 7762POPC   C4B57238  40.668   5.289   7.350
 7763POPC   NC357239   3.518   3.547   5.550
 7763POPC   PO457240   3.537   3.542   5.850
 7763POPC   GL157241   3.505   3.550   6.150
 7763POPC   GL257242   3.709   3.549   6.150
 7763POPC   C1A57243   3.503   3.513   6.450
 7763POPC   D2A57244   3.569   3.500   6.750
 7763POPC   C3A57245   3.586   3.495   7.050
 7763POPC   C4A57246   3.579   3.536   7.350
 7763POPC   C1B57247   3.809   3.590   6.450
 7763POPC   C2B57248   3.758   3.531   6.750
 7763POPC   C3B57249   3.761   3.584   7.050
 7763POPC   C4B57250   3.797   3.566   7.350
 7764POPC   NC357251  26.780  33.041   5.550
 7764POPC   PO457252  26.823  33.018   5.850
 7764POPC   GL157253  26.822  33.063   6.150
 7764POPC   GL257254  26.922  32.966   6.150
 7764POPC   C1A57255  26.788  32.994   6.450
 7764POPC   D2A57256  26.784  33.030   6.750
 7764POPC   C3A57257  26.777  33.003   7.050
 7764POPC   C4A57258  26.822  33.055   7.350
 7764POPC   C1B57259  27.004  32.883   6.450
 7764POPC   C2B57260  27.009  32.938   6.750
 7764POPC   C3B57261  27.038  32.902   7.050
 7764POPC   C4B57262  27.078  32.854   7.350
 7765POPC   NC357263  40.822  37.644   5.550
 7765POPC   PO457264  40.804  37.729   5.850
 7765POPC   GL157265  40.822  37.702   6.150
 7765POPC   GL257266  40.685  37.564   6.150
 7765POPC   C1A57267  40.769  37.662   6.450
 7765POPC   D2A57268  40.734  37.647   6.750
 7765POPC   C3A57269  40.764  37.677   7.050
 7765POPC   C4A57270  40.827  37.650   7.350
 7765POPC   C1B57271  40.624  37.557   6.450
 7765POPC   C2B57272  40.533  37.521   6.750
 7765POPC   C3B57273  40.532  37.489   7.050
 7765POPC   C4B57274  40.625  37.509   7.350
 7766POPC   NC357275  15.997  16.743   5.550
 7766POPC   PO457276  15.995  16.734   5.850
 7766POPC   GL157277  15.909  16.743   6.150
 7766POPC   GL257278  16.028  16.875   6.150
 7766POPC   C1A57279  15.925  16.706   6.450
 7766POPC   D2A57280  15.971  16.753   6.750
 7766POPC   C3A57281  15.924  16.705   7.050
 7766POPC   C4A57282  15.948  16.722   7.350
 7766POPC   C1B57283  16.099  16.964   6.450
 7766POPC   C2B57284  16.105  16.910   6.750
 7766POPC   C3B57285  16.122  16.910   7.050
 7766POPC   C4B57286  16.054  16.964   7.350
 7767POPC   NC357287   9.703  13.631   5.550
 7767POPC   PO457288   9.720  13.591   5.850
 7767POPC   GL157289   9.700  13.626   6.150
 7767POPC   GL257290   9.665  13.739   6.150
 7767POPC   C1A57291   9.757  13.644   6.450
 7767POPC   D2A57292   9.746  13.673   6.750
 7767POPC   C3A57293   9.718  13.628   7.050
 7767POPC   C4A57294   9.739  13.630   7.350
 7767POPC   C1B57295   9.635  13.839   6.450
 7767POPC   C2B57296   9.561  13.778   6.750
 7767POPC   C3B57297   9.613  13.775   7.050
 7767POPC   C4B57298   9.576  13.774   7.350
 7768POPC   NC357299  36.088   6.596   5.550
 7768POPC   PO457300  36.138   6.695   5.850
 7768POPC   GL157301  36.088   6.613   6.150
 7768POPC   GL257302  36.278   6.587   6.150
 7768POPC   C1A57303  36.149   6.675   6.450
 7768POPC   D2A57304  36.109   6.599   6.750
 7768POPC   C3A57305  36.160   6.616   7.050
 7768POPC   C4A57306  36.153   6.659   7.350
 7768POPC   C1B57307  36.384   6.603   6.450
 7768POPC   C2B57308  36.382   6.535   6.750
 7768POPC   C3B57309  36.359   6.606   7.050
 7768POPC   C4B57310  36.323   6.533   7.350
 7769POPC   NC357311   7.377  28.358   5.550
 7769POPC   PO457312   7.379  28.406   5.850
 7769POPC   GL157313   7.410  28.396   6.150
 7769POPC   GL257314   7.400  28.216   6.150
 7769POPC   C1A57315   7.446  28.322   6.450
 7769POPC   D2A57316   7.428  28.391   6.750
 7769POPC   C3A57317   7.400  28.367   7.050
 7769POPC   C4A57318   7.383  28.408   7.350
 7769POPC   C1B57319   7.393  28.113   6.450
 7769POPC   C2B57320   7.317  28.169   6.750
 7769POPC   C3B57321   7.381  28.166   7.050
 7769POPC   C4B57322   7.382  28.105   7.350
 7770POPC   NC357323  20.646  43.120   5.550
 7770POPC   PO457324  20.629  43.070   5.850
 7770POPC   GL157325  20.569  43.104   6.150
 7770POPC   GL257326  20.702  43.126   6.150
 7770POPC   C1A57327  20.626  43.089   6.450
 7770POPC   D2A57328  20.595  43.128   6.750
 7770POPC   C3A57329  20.631  43.066   7.050
 7770POPC   C4A57330  20.594  43.150   7.350
 7770POPC   C1B57331  20.880  43.130   6.450
 7770POPC   C2B57332  20.835  43.130   6.750
 7770POPC   C3B57333  20.897  43.148   7.050
 7770POPC   C4B57334  20.819  43.150   7.350
 7771POPC   NC357335  27.611  29.945   5.550
 7771POPC   PO457336  27.559  29.914   5.850
 7771POPC   GL157337  27.594  29.943   6.150
 7771POPC   GL257338  27.640  29.808   6.150
 7771POPC   C1A57339  27.640  29.876   6.450
 7771POPC   D2A57340  27.579  29.908   6.750
 7771POPC   C3A57341  27.580  29.913   7.050
 7771POPC   C4A57342  27.554  29.956   7.350
 7771POPC   C1B57343  27.653  29.679   6.450
 7771POPC   C2B57344  27.666  29.702   6.750
 7771POPC   C3B57345  27.614  29.660   7.050
 7771POPC   C4B57346  27.669  29.681   7.350
 7772POPC   NC357347  31.454  20.646   5.550
 7772POPC   PO457348  31.479  20.608   5.850
 7772POPC   GL157349  31.502  20.585   6.150
 7772POPC   GL257350  31.392  20.679   6.150
 7772POPC   C1A57351  31.423  20.591   6.450
 7772POPC   D2A57352  31.442  20.603   6.750
 7772POPC   C3A57353  31.471  20.617   7.050
 7772POPC   C4A57354  31.437  20.648   7.350
 7772POPC   C1B57355  31.335  20.801   6.450
 7772POPC   C2B57356  31.388  20.802   6.750
 7772POPC   C3B57357  31.376  20.843   7.050
 7772POPC   C4B57358  31.348  20.833   7.350
 7773POPC   NC357359  33.048  28.361   5.550
 7773POPC   PO457360  33.043  28.360   5.850
 7773POPC   GL157361  32.994  28.361   6.150
 7773POPC   GL257362  32.892  28.450   6.150
 7773POPC   C1A57363  33.037  28.414   6.450
 7773POPC   D2A57364  32.984  28.360   6.750
 7773POPC   C3A57365  33.028  28.377   7.050
 7773POPC   C4A57366  33.049  28.365   7.350
 7773POPC   C1B57367  32.870  28.561   6.450
 7773POPC   C2B57368  32.795  28.506   6.750
 7773POPC   C3B57369  32.821  28.540   7.050
 7773POPC   C4B57370  32.851  28.515   7.350
 7774POPC   NC357371  22.185  32.258   5.550
 7774POPC   PO457372  22.156  32.249   5.850
 7774POPC   GL157373  22.137  32.265   6.150
 7774POPC   GL257374  22.021  32.156   6.150
 7774POPC   C1A57375  22.124  32.199   6.450
 7774POPC   D2A57376  22.212  32.217   6.750
 7774POPC   C3A57377  22.139  32.287   7.050
 7774POPC   C4A57378  22.194  32.206   7.350
 7774POPC   C1B57379  21.909  32.185   6.450
 7774POPC   C2B57380  21.948  32.132   6.750
 7774POPC   C3B57381  21.954  32.113   7.050
 7774POPC   C4B57382  21.903  32.157   7.350
 7775POPC   NC357383  20.586  16.726   5.550
 7775POPC   PO457384  20.637  16.744   5.850
 7775POPC   GL157385  20.582  16.719   6.150
 7775POPC   GL257386  20.525  16.642   6.150
 7775POPC   C1A57387  20.612  16.766   6.450
 7775POPC   D2A57388  20.610  16.715   6.750
 7775POPC   C3A57389  20.567  16.771   7.050
 7775POPC   C4A57390  20.577  16.773   7.350
 7775POPC   C1B57391  20.558  16.545   6.450
 7775POPC   C2B57392  20.522  16.534   6.750
 7775POPC   C3B57393  20.516  16.476   7.050
 7775POPC   C4B57394  20.478  16.546   7.350
 7776POPC   NC357395   2.763  33.811   5.550
 7776POPC   PO457396   2.768  33.759   5.850
 7776POPC   GL157397   2.733  33.817   6.150
 7776POPC   GL257398   2.812  33.904   6.150
 7776POPC   C1A57399   2.745  33.775   6.450
 7776POPC   D2A57400   2.727  33.817   6.750
 7776POPC   C3A57401   2.813  33.779   7.050
 7776POPC   C4A57402   2.733  33.814   7.350
 7776POPC   C1B57403   2.824  34.019   6.450
 7776POPC   C2B57404   2.863  34.029   6.750
 7776POPC   C3B57405   2.825  34.036   7.050
 7776POPC   C4B57406   2.876  34.054   7.350
 7777POPC   NC357407  30.709   1.231   5.550
 7777POPC   PO457408  30.668   1.174   5.850
 7777POPC   GL157409  30.721   1.225   6.150
 7777POPC   GL257410  30.660   1.152   6.150
 7777POPC   C1A57411  30.729   1.182   6.450
 7777POPC   D2A57412  30.680   1.244   6.750
 7777POPC   C3A57413  30.666   1.215   7.050
 7777POPC   C4A57414  30.656   1.208   7.350
 7777POPC   C1B57415  30.489   0.979   6.450
 7777POPC   C2B57416  30.505   1.023   6.750
 7777POPC   C3B57417  30.538   1.021   7.050
 7777POPC   C4B57418  30.568   1.048   7.350
 7778POPC   NC357419   8.170  29.900   5.550
 7778POPC   PO457420   8.174  29.941   5.850
 7778POPC   GL157421   8.224  29.920   6.150
 7778POPC   GL257422   8.319  29.821   6.150
 7778POPC   C1A57423   8.187  29.914   6.450
 7778POPC   D2A57424   8.232  29.933   6.750
 7778POPC   C3A57425   8.176  29.924   7.050
 7778POPC   C4A57426   8.192  29.952   7.350
 7778POPC   C1B57427   8.373  29.783   6.450
 7778POPC   C2B57428   8.425  29.786   6.750
 7778POPC   C3B57429   8.445  29.776   7.050
 7778POPC   C4B57430   8.396  29.788   7.350
 7779POPC   NC357431   7.436  34.617   5.550
 7779POPC   PO457432   7.470  34.559   5.850
 7779POPC   GL157433   7.372  34.588   6.150
 7779POPC   GL257434   7.395  34.471   6.150
 7779POPC   C1A57435   7.436  34.542   6.450
 7779POPC   D2A57436   7.383  34.623   6.750
 7779POPC   C3A57437   7.408  34.574   7.050
 7779POPC   C4A57438   7.464  34.611   7.350
 7779POPC   C1B57439   7.399  34.374   6.450
 7779POPC   C2B57440   7.449  34.374   6.750
 7779POPC   C3B57441   7.448  34.284   7.050
 7779POPC   C4B57442   7.396  34.336   7.350
 7780POPC   NC357443  32.995  43.864   5.550
 7780POPC   PO457444  33.072  43.902   5.850
 7780POPC   GL157445  33.040  43.846   6.150
 7780POPC   GL257446  32.976  43.826   6.150
 7780POPC   C1A57447  33.057  43.846   6.450
 7780POPC   D2A57448  33.054  43.924   6.750
 7780POPC   C3A57449  32.987  43.924   7.050
 7780POPC   C4A57450  32.993  43.857   7.350
 7780POPC   C1B57451  32.906  43.669   6.450
 7780POPC   C2B57452  32.836  43.712   6.750
 7780POPC   C3B57453  32.812  43.706   7.050
 7780POPC   C4B57454  32.826  43.743   7.350
 7781POPC   NC357455  31.520  35.364   5.550
 7781POPC   PO457456  31.459  35.302   5.850
 7781POPC   GL157457  31.483  35.315   6.150
 7781POPC   GL257458  31.583  35.455   6.150
 7781POPC   C1A57459  31.470  35.357   6.450
 7781POPC   D2A57460  31.428  35.317   6.750
 7781POPC   C3A57461  31.474  35.379   7.050
 7781POPC   C4A57462  31.496  35.318   7.350
 7781POPC   C1B57463  31.581  35.559   6.450
 7781POPC   C2B57464  31.650  35.603   6.750
 7781POPC   C3B57465  31.598  35.596   7.050
 7781POPC   C4B57466  31.589  35.550   7.350
 7782POPC   NC357467  15.919  13.596   5.550
 7782POPC   PO457468  15.996  13.626   5.850
 7782POPC   GL157469  15.926  13.676   6.150
 7782POPC   GL257470  16.027  13.545   6.150
 7782POPC   C1A57471  15.954  13.644   6.450
 7782POPC   D2A57472  15.960  13.598   6.750
 7782POPC   C3A57473  15.918  13.638   7.050
 7782POPC   C4A57474  15.958  13.611   7.350
 7782POPC   C1B57475  16.182  13.487   6.450
 7782POPC   C2B57476  16.119  13.430   6.750
 7782POPC   C3B57477  16.119  13.412   7.050
 7782POPC   C4B57478  16.106  13.424   7.350
 7783POPC   NC357479  13.665  29.970   5.550
 7783POPC   PO457480  13.626  29.899   5.850
 7783POPC   GL157481  13.625  29.959   6.150
 7783POPC   GL257482  13.535  29.883   6.150
 7783POPC   C1A57483  13.622  29.873   6.450
 7783POPC   D2A57484  13.632  29.900   6.750
 7783POPC   C3A57485  13.633  29.948   7.050
 7783POPC   C4A57486  13.654  29.962   7.350
 7783POPC   C1B57487  13.422  29.915   6.450
 7783POPC   C2B57488  13.350  29.961   6.750
 7783POPC   C3B57489  13.381  29.926   7.050
 7783POPC   C4B57490  13.399  29.958   7.350
 7784POPC   NC357491  19.095  25.260   5.550
 7784POPC   PO457492  19.050  25.233   5.850
 7784POPC   GL157493  19.081  25.260   6.150
 7784POPC   GL257494  18.928  25.290   6.150
 7784POPC   C1A57495  19.020  25.264   6.450
 7784POPC   D2A57496  19.070  25.307   6.750
 7784POPC   C3A57497  19.057  25.265   7.050
 7784POPC   C4A57498  19.082  25.310   7.350
 7784POPC   C1B57499  18.780  25.387   6.450
 7784POPC   C2B57500  18.823  25.352   6.750
 7784POPC   C3B57501  18.825  25.345   7.050
 7784POPC   C4B57502  18.822  25.325   7.350
 7785POPC   NC357503   3.512  24.481   5.550
 7785POPC   PO457504   3.535  24.467   5.850
 7785POPC   GL157505   3.492  24.537   6.150
 7785POPC   GL257506   3.538  24.401   6.150
 7785POPC   C1A57507   3.576  24.499   6.450
 7785POPC   D2A57508   3.499  24.537   6.750
 7785POPC   C3A57509   3.563  24.502   7.050
 7785POPC   C4A57510   3.553  24.530   7.350
 7785POPC   C1B57511   3.554  24.282   6.450
 7785POPC   C2B57512   3.519  24.217   6.750
 7785POPC   C3B57513   3.531  24.196   7.050
 7785POPC   C4B57514   3.495  24.220   7.350
 7786POPC   NC357515   8.990   5.110   5.550
 7786POPC   PO457516   8.938   5.059   5.850
 7786POPC   GL157517   8.948   5.058   6.150
 7786POPC   GL257518   8.859   5.116   6.150
 7786POPC   C1A57519   8.959   5.126   6.450
 7786POPC   D2A57520   8.924   5.047   6.750
 7786POPC   C3A57521   8.942   5.058   7.050
 7786POPC   C4A57522   8.940   5.132   7.350
 7786POPC   C1B57523   8.696   5.142   6.450
 7786POPC   C2B57524   8.686   5.097   6.750
 7786POPC   C3B57525   8.711   5.128   7.050
 7786POPC   C4B57526   8.770   5.179   7.350
 7787POPC   NC357527  22.958   8.204   5.550
 7787POPC   PO457528  22.903   8.176   5.850
 7787POPC   GL157529  22.977   8.196   6.150
 7787POPC   GL257530  22.918   8.030   6.150
 7787POPC   C1A57531  22.917   8.217   6.450
 7787POPC   D2A57532  22.901   8.215   6.750
 7787POPC   C3A57533  22.933   8.198   7.050
 7787POPC   C4A57534  22.958   8.242   7.350
 7787POPC   C1B57535  22.950   7.917   6.450
 7787POPC   C2B57536  22.916   7.976   6.750
 7787POPC   C3B57537  22.910   7.981   7.050
 7787POPC   C4B57538  22.938   7.991   7.350
 7788POPC   NC357539  22.138  20.600   5.550
 7788POPC   PO457540  22.201  20.622   5.850
 7788POPC   GL157541  22.154  20.572   6.150
 7788POPC   GL257542  22.116  20.679   6.150
 7788POPC   C1A57543  22.123  20.634   6.450
 7788POPC   D2A57544  22.142  20.653   6.750
 7788POPC   C3A57545  22.143  20.638   7.050
 7788POPC   C4A57546  22.170  20.595   7.350
 7788POPC   C1B57547  22.074  20.837   6.450
 7788POPC   C2B57548  22.070  20.873   6.750
 7788POPC   C3B57549  22.057  20.787   7.050
 7788POPC   C4B57550  22.007  20.836   7.350
 7789POPC   NC357551   9.774  24.534   5.550
 7789POPC   PO457552   9.792  24.522   5.850
 7789POPC   GL157553   9.742  24.483   6.150
 7789POPC   GL257554   9.845  24.458   6.150
 7789POPC   C1A57555   9.734  24.456   6.450
 7789POPC   D2A57556   9.725  24.477   6.750
 7789POPC   C3A57557   9.776  24.494   7.050
 7789POPC   C4A57558   9.702  24.515   7.350
 7789POPC   C1B57559   9.991  24.477   6.450
 7789POPC   C2B57560   9.962  24.501   6.750
 7789POPC   C3B57561   9.961  24.509   7.050
 7789POPC   C4B57562  10.020  24.442   7.350
 7790POPC   NC357563  21.340  38.483   5.550
 7790POPC   PO457564  21.410  38.472   5.850
 7790POPC   GL157565  21.415  38.489   6.150
 7790POPC   GL257566  21.502  38.414   6.150
 7790POPC   C1A57567  21.366  38.434   6.450
 7790POPC   D2A57568  21.393  38.478   6.750
 7790POPC   C3A57569  21.340  38.492   7.050
 7790POPC   C4A57570  21.352  38.419   7.350
 7790POPC   C1B57571  21.572  38.318   6.450
 7790POPC   C2B57572  21.607  38.308   6.750
 7790POPC   C3B57573  21.613  38.291   7.050
 7790POPC   C4B57574  21.579  38.340   7.350
 7791POPC   NC357575  42.364  12.035   5.550
 7791POPC   PO457576  42.294  12.095   5.850
 7791POPC   GL157577  42.308  12.091   6.150
 7791POPC   GL257578  42.251  11.989   6.150
 7791POPC   C1A57579  42.352  12.098   6.450
 7791POPC   D2A57580  42.312  12.074   6.750
 7791POPC   C3A57581  42.371  12.059   7.050
 7791POPC   C4A57582  42.379  12.099   7.350
 7791POPC   C1B57583  42.208  11.872   6.450
 7791POPC   C2B57584  42.177  11.826   6.750
 7791POPC   C3B57585  42.196  11.852   7.050
 7791POPC   C4B57586  42.252  11.873   7.350
 7792POPC   NC357587   1.979   4.366   5.550
 7792POPC   PO457588   2.002   4.331   5.850
 7792POPC   GL157589   1.941   4.283   6.150
 7792POPC   GL257590   2.009   4.199   6.150
 7792POPC   C1A57591   1.951   4.329   6.450
 7792POPC   D2A57592   2.037   4.326   6.750
 7792POPC   C3A57593   1.965   4.354   7.050
 7792POPC   C4A57594   1.945   4.273   7.350
 7792POPC   C1B57595   2.115   4.079   6.450
 7792POPC   C2B57596   2.085   4.081   6.750
 7792POPC   C3B57597   2.135   4.121   7.050
 7792POPC   C4B57598   2.120   4.065   7.350
 7793POPC   NC357599   4.332  11.288   5.550
 7793POPC   PO457600   4.269  11.297   5.850
 7793POPC   GL157601   4.349  11.318   6.150
 7793POPC   GL257602   4.151  11.357   6.150
 7793POPC   C1A57603   4.362  11.323   6.450
 7793POPC   D2A57604   4.302  11.294   6.750
 7793POPC   C3A57605   4.306  11.295   7.050
 7793POPC   C4A57606   4.282  11.278   7.350
 7793POPC   C1B57607   4.050  11.341   6.450
 7793POPC   C2B57608   4.058  11.433   6.750
 7793POPC   C3B57609   4.084  11.398   7.050
 7793POPC   C4B57610   4.057  11.387   7.350
 7794POPC   NC357611  26.030  35.374   5.550
 7794POPC   PO457612  26.051  35.384   5.850
 7794POPC   GL157613  26.038  35.347   6.150
 7794POPC   GL257614  26.005  35.434   6.150
 7794POPC   C1A57615  26.061  35.308   6.450
 7794POPC   D2A57616  26.038  35.354   6.750
 7794POPC   C3A57617  26.039  35.379   7.050
 7794POPC   C4A57618  26.025  35.384   7.350
 7794POPC   C1B57619  25.969  35.568   6.450
 7794POPC   C2B57620  26.000  35.603   6.750
 7794POPC   C3B57621  26.004  35.624   7.050
 7794POPC   C4B57622  26.007  35.564   7.350
 7795POPC   NC357623  29.881  41.563   5.550
 7795POPC   PO457624  29.928  41.583   5.850
 7795POPC   GL157625  29.919  41.606   6.150
 7795POPC   GL257626  29.870  41.650   6.150
 7795POPC   C1A57627  29.941  41.606   6.450
 7795POPC   D2A57628  29.905  41.544   6.750
 7795POPC   C3A57629  29.894  41.532   7.050
 7795POPC   C4A57630  29.966  41.543   7.350
 7795POPC   C1B57631  29.775  41.772   6.450
 7795POPC   C2B57632  29.745  41.764   6.750
 7795POPC   C3B57633  29.798  41.801   7.050
 7795POPC   C4B57634  29.745  41.772   7.350
 7796POPC   NC357635  26.841  35.343   5.550
 7796POPC   PO457636  26.796  35.394   5.850
 7796POPC   GL157637  26.806  35.357   6.150
 7796POPC   GL257638  26.822  35.253   6.150
 7796POPC   C1A57639  26.789  35.325   6.450
 7796POPC   D2A57640  26.843  35.332   6.750
 7796POPC   C3A57641  26.799  35.387   7.050
 7796POPC   C4A57642  26.867  35.389   7.350
 7796POPC   C1B57643  26.778  35.064   6.450
 7796POPC   C2B57644  26.747  35.120   6.750
 7796POPC   C3B57645  26.731  35.121   7.050
 7796POPC   C4B57646  26.777  35.117   7.350
 7797POPC   NC357647  24.482  36.171   5.550
 7797POPC   PO457648  24.506  36.081   5.850
 7797POPC   GL157649  24.512  36.164   6.150
 7797POPC   GL257650  24.583  36.081   6.150
 7797POPC   C1A57651  24.478  36.105   6.450
 7797POPC   D2A57652  24.482  36.164   6.750
 7797POPC   C3A57653  24.510  36.098   7.050
 7797POPC   C4A57654  24.534  36.152   7.350
 7797POPC   C1B57655  24.687  36.045   6.450
 7797POPC   C2B57656  24.762  36.011   6.750
 7797POPC   C3B57657  24.691  36.013   7.050
 7797POPC   C4B57658  24.692  36.005   7.350
 7798POPC   NC357659   5.120   8.162   5.550
 7798POPC   PO457660   5.065   8.165   5.850
 7798POPC   GL157661   5.137   8.228   6.150
 7798POPC   GL257662   5.240   8.168   6.150
 7798POPC   C1A57663   5.081   8.196   6.450
 7798POPC   D2A57664   5.104   8.212   6.750
 7798POPC   C3A57665   5.077   8.158   7.050
 7798POPC   C4A57666   5.119   8.173   7.350
 7798POPC   C1B57667   5.276   8.020   6.450
 7798POPC   C2B57668   5.261   8.098   6.750
 7798POPC   C3B57669   5.340   8.046   7.050
 7798POPC   C4B57670   5.263   8.002   7.350
 7799POPC   NC357671   7.398  13.661   5.550
 7799POPC   PO457672   7.417  13.620   5.850
 7799POPC   GL157673   7.444  13.661   6.150
 7799POPC   GL257674   7.528  13.574   6.150
 7799POPC   C1A57675   7.466  13.601   6.450
 7799POPC   D2A57676   7.471  13.662   6.750
 7799POPC   C3A57677   7.452  13.650   7.050
 7799POPC   C4A57678   7.459  13.609   7.350
 7799POPC   C1B57679   7.601  13.499   6.450
 7799POPC   C2B57680   7.685  13.480   6.750
 7799POPC   C3B57681   7.624  13.568   7.050
 7799POPC   C4B57682   7.640  13.543   7.350
 7800POPC   NC357683  31.489  15.199   5.550
 7800POPC   PO457684  31.508  15.148   5.850
 7800POPC   GL157685  31.454  15.198   6.150
 7800POPC   GL257686  31.395  15.270   6.150
 7800POPC   C1A57687  31.495  15.227   6.450
 7800POPC   D2A57688  31.449  15.144   6.750
 7800POPC   C3A57689  31.439  15.205   7.050
 7800POPC   C4A57690  31.430  15.182   7.350
 7800POPC   C1B57691  31.308  15.355   6.450
 7800POPC   C2B57692  31.284  15.357   6.750
 7800POPC   C3B57693  31.370  15.385   7.050
 7800POPC   C4B57694  31.293  15.398   7.350
 7801POPC   NC357695  36.860  19.848   5.550
 7801POPC   PO457696  36.911  19.874   5.850
 7801POPC   GL157697  36.944  19.874   6.150
 7801POPC   GL257698  37.065  19.839   6.150
 7801POPC   C1A57699  36.901  19.841   6.450
 7801POPC   D2A57700  36.909  19.814   6.750
 7801POPC   C3A57701  36.872  19.805   7.050
 7801POPC   C4A57702  36.877  19.820   7.350
 7801POPC   C1B57703  37.123  19.823   6.450
 7801POPC   C2B57704  37.121  19.778   6.750
 7801POPC   C3B57705  37.115  19.750   7.050
 7801POPC   C4B57706  37.173  19.738   7.350
 7802POPC   NC357707  42.315  13.601   5.550
 7802POPC   PO457708  42.293  13.597   5.850
 7802POPC   GL157709  42.311  13.584   6.150
 7802POPC   GL257710  42.411  13.520   6.150
 7802POPC   C1A57711  42.321  13.671   6.450
 7802POPC   D2A57712  42.321  13.628   6.750
 7802POPC   C3A57713  42.378  13.637   7.050
 7802POPC   C4A57714  42.359  13.648   7.350
 7802POPC   C1B57715  42.431  13.422   6.450
 7802POPC   C2B57716  42.402  13.415   6.750
 7802POPC   C3B57717  42.459  13.362   7.050
 7802POPC   C4B57718  42.460  13.352   7.350
 7803POPC   NC357719  23.730  29.120   5.550
 7803POPC   PO457720  23.695  29.155   5.850
 7803POPC   GL157721  23.676  29.122   6.150
 7803POPC   GL257722  23.811  29.234   6.150
 7803POPC   C1A57723  23.738  29.154   6.450
 7803POPC   D2A57724  23.676  29.186   6.750
 7803POPC   C3A57725  23.707  29.100   7.050
 7803POPC   C4A57726  23.744  29.161   7.350
 7803POPC   C1B57727  23.936  29.266   6.450
 7803POPC   C2B57728  23.945  29.247   6.750
 7803POPC   C3B57729  23.887  29.288   7.050
 7803POPC   C4B57730  23.922  29.301   7.350
 7804POPC   NC357731   9.008  19.872   5.550
 7804POPC   PO457732   8.923  19.831   5.850
 7804POPC   GL157733   8.944  19.792   6.150
 7804POPC   GL257734   8.843  19.806   6.150
 7804POPC   C1A57735   9.018  19.822   6.450
 7804POPC   D2A57736   8.942  19.855   6.750
 7804POPC   C3A57737   8.972  19.825   7.050
 7804POPC   C4A57738   8.933  19.876   7.350
 7804POPC   C1B57739   8.792  19.644   6.450
 7804POPC   C2B57740   8.721  19.737   6.750
 7804POPC   C3B57741   8.801  19.736   7.050
 7804POPC   C4B57742   8.755  19.658   7.350
 7805POPC   NC357743  33.829  20.604   5.550
 7805POPC   PO457744  33.805  20.573   5.850
 7805POPC   GL157745  33.814  20.590   6.150
 7805POPC   GL257746  33.814  20.512   6.150
 7805POPC   C1A57747  33.836  20.565   6.450
 7805POPC   D2A57748  33.750  20.618   6.750
 7805POPC   C3A57749  33.778  20.653   7.050
 7805POPC   C4A57750  33.823  20.588   7.350
 7805POPC   C1B57751  33.740  20.346   6.450
 7805POPC   C2B57752  33.813  20.405   6.750
 7805POPC   C3B57753  33.779  20.344   7.050
 7805POPC   C4B57754  33.742  20.339   7.350
 7806POPC   NC357755  14.385   1.946   5.550
 7806POPC   PO457756  14.418   2.007   5.850
 7806POPC   GL157757  14.438   2.017   6.150
 7806POPC   GL257758  14.463   2.152   6.150
 7806POPC   C1A57759  14.373   2.038   6.450
 7806POPC   D2A57760  14.378   2.018   6.750
 7806POPC   C3A57761  14.392   2.014   7.050
 7806POPC   C4A57762  14.366   1.976   7.350
 7806POPC   C1B57763  14.542   2.253   6.450
 7806POPC   C2B57764  14.471   2.186   6.750
 7806POPC   C3B57765  14.499   2.269   7.050
 7806POPC   C4B57766  14.532   2.182   7.350
 7807POPC   NC357767  24.455  39.973   5.550
 7807POPC   PO457768  24.484  40.019   5.850
 7807POPC   GL157769  24.519  39.979   6.150
 7807POPC   GL257770  24.443  40.157   6.150
 7807POPC   C1A57771  24.471  39.964   6.450
 7807POPC   D2A57772  24.515  39.963   6.750
 7807POPC   C3A57773  24.509  40.025   7.050
 7807POPC   C4A57774  24.445  39.965   7.350
 7807POPC   C1B57775  24.470  40.266   6.450
 7807POPC   C2B57776  24.511  40.213   6.750
 7807POPC   C3B57777  24.506  40.251   7.050
 7807POPC   C4B57778  24.507  40.235   7.350
 7808POPC   NC357779   6.682  15.908   5.550
 7808POPC   PO457780   6.659  15.989   5.850
 7808POPC   GL157781   6.599  15.964   6.150
 7808POPC   GL257782   6.586  15.822   6.150
 7808POPC   C1A57783   6.642  15.961   6.450
 7808POPC   D2A57784   6.595  15.962   6.750
 7808POPC   C3A57785   6.663  15.924   7.050
 7808POPC   C4A57786   6.635  15.956   7.350
 7808POPC   C1B57787   6.448  15.740   6.450
 7808POPC   C2B57788   6.501  15.820   6.750
 7808POPC   C3B57789   6.458  15.792   7.050
 7808POPC   C4B57790   6.496  15.813   7.350
 7809POPC   NC357791  39.958  22.129   5.550
 7809POPC   PO457792  39.965  22.199   5.850
 7809POPC   GL157793  40.033  22.125   6.150
 7809POPC   GL257794  39.909  22.089   6.150
 7809POPC   C1A57795  40.043  22.129   6.450
 7809POPC   D2A57796  40.026  22.188   6.750
 7809POPC   C3A57797  40.051  22.154   7.050
 7809POPC   C4A57798  40.000  22.176   7.350
 7809POPC   C1B57799  39.766  22.120   6.450
 7809POPC   C2B57800  39.772  22.094   6.750
 7809POPC   C3B57801  39.812  22.066   7.050
 7809POPC   C4B57802  39.800  22.113   7.350
 7810POPC   NC357803  27.610  12.847   5.550
 7810POPC   PO457804  27.606  12.816   5.850
 7810POPC   GL157805  27.608  12.805   6.150
 7810POPC   GL257806  27.597  12.699   6.150
 7810POPC   C1A57807  27.594  12.870   6.450
 7810POPC   D2A57808  27.563  12.870   6.750
 7810POPC   C3A57809  27.544  12.820   7.050
 7810POPC   C4A57810  27.636  12.897   7.350
 7810POPC   C1B57811  27.632  12.643   6.450
 7810POPC   C2B57812  27.673  12.570   6.750
 7810POPC   C3B57813  27.617  12.650   7.050
 7810POPC   C4B57814  27.696  12.599   7.350
 7811POPC   NC357815  26.087  32.218   5.550
 7811POPC   PO457816  25.994  32.282   5.850
 7811POPC   GL157817  26.073  32.224   6.150
 7811POPC   GL257818  26.046  32.346   6.150
 7811POPC   C1A57819  26.041  32.254   6.450
 7811POPC   D2A57820  26.072  32.283   6.750
 7811POPC   C3A57821  26.054  32.261   7.050
 7811POPC   C4A57822  26.086  32.270   7.350
 7811POPC   C1B57823  25.977  32.472   6.450
 7811POPC   C2B57824  25.932  32.514   6.750
 7811POPC   C3B57825  25.957  32.447   7.050
 7811POPC   C4B57826  26.025  32.469   7.350
 7812POPC   NC357827   5.055   1.961   5.550
 7812POPC   PO457828   5.088   2.037   5.850
 7812POPC   GL157829   5.142   2.020   6.150
 7812POPC   GL257830   5.234   1.901   6.150
 7812POPC   C1A57831   5.089   1.975   6.450
 7812POPC   D2A57832   5.083   2.007   6.750
 7812POPC   C3A57833   5.051   1.988   7.050
 7812POPC   C4A57834   5.085   2.002   7.350
 7812POPC   C1B57835   5.345   1.822   6.450
 7812POPC   C2B57836   5.263   1.912   6.750
 7812POPC   C3B57837   5.275   1.884   7.050
 7812POPC   C4B57838   5.286   1.831   7.350
 7813POPC   NC357839  22.963  12.821   5.550
 7813POPC   PO457840  22.900  12.828   5.850
 7813POPC   GL157841  22.932  12.901   6.150
 7813POPC   GL257842  23.080  12.873   6.150
 7813POPC   C1A57843  22.935  12.898   6.450
 7813POPC   D2A57844  22.936  12.881   6.750
 7813POPC   C3A57845  22.944  12.815   7.050
 7813POPC   C4A57846  22.982  12.837   7.350
 7813POPC   C1B57847  23.187  12.863   6.450
 7813POPC   C2B57848  23.190  12.855   6.750
 7813POPC   C3B57849  23.190  12.911   7.050
 7813POPC   C4B57850  23.158  12.917   7.350
 7814POPC   NC357851  23.717  26.056   5.550
 7814POPC   PO457852  23.747  26.039   5.850
 7814POPC   GL157853  23.709  26.005   6.150
 7814POPC   GL257854  23.761  25.928   6.150
 7814POPC   C1A57855  23.670  26.039   6.450
 7814POPC   D2A57856  23.664  26.060   6.750
 7814POPC   C3A57857  23.678  26.052   7.050
 7814POPC   C4A57858  23.682  26.023   7.350
 7814POPC   C1B57859  23.783  25.757   6.450
 7814POPC   C2B57860  23.751  25.813   6.750
 7814POPC   C3B57861  23.706  25.752   7.050
 7814POPC   C4B57862  23.704  25.840   7.350
 7815POPC   NC357863   5.821  30.743   5.550
 7815POPC   PO457864   5.917  30.647   5.850
 7815POPC   GL157865   5.912  30.725   6.150
 7815POPC   GL257866   5.707  30.677   6.150
 7815POPC   C1A57867   5.913  30.701   6.450
 7815POPC   D2A57868   5.876  30.682   6.750
 7815POPC   C3A57869   5.917  30.661   7.050
 7815POPC   C4A57870   5.830  30.697   7.350
 7815POPC   C1B57871   5.664  30.604   6.450
 7815POPC   C2B57872   5.643  30.670   6.750
 7815POPC   C3B57873   5.630  30.582   7.050
 7815POPC   C4B57874   5.588  30.596   7.350
 7816POPC   NC357875  33.827  38.468   5.550
 7816POPC   PO457876  33.810  38.463   5.850
 7816POPC   GL157877  33.754  38.436   6.150
 7816POPC   GL257878  33.841  38.499   6.150
 7816POPC   C1A57879  33.840  38.444   6.450
 7816POPC   D2A57880  33.758  38.439   6.750
 7816POPC   C3A57881  33.838  38.498   7.050
 7816POPC   C4A57882  33.794  38.501   7.350
 7816POPC   C1B57883  33.971  38.618   6.450
 7816POPC   C2B57884  33.973  38.673   6.750
 7816POPC   C3B57885  33.987  38.686   7.050
 7816POPC   C4B57886  33.964  38.664   7.350
 7817POPC   NC357887  23.721  44.627   5.550
 7817POPC   PO457888  23.757  44.681   5.850
 7817POPC   GL157889  23.697  44.678   6.150
 7817POPC   GL257890  23.857  44.650   6.150
 7817POPC   C1A57891  23.755  44.634   6.450
 7817POPC   D2A57892  23.734  44.615   6.750
 7817POPC   C3A57893  23.678  44.682   7.050
 7817POPC   C4A57894  23.747  44.646   7.350
 7817POPC   C1B57895  23.947  44.594   6.450
 7817POPC   C2B57896  23.963  44.509   6.750
 7817POPC   C3B57897  23.890  44.589   7.050
 7817POPC   C4B57898  23.987  44.558   7.350
 7818POPC   NC357899  37.687   6.625   5.550
 7818POPC   PO457900  37.638   6.625   5.850
 7818POPC   GL157901  37.651   6.627   6.150
 7818POPC   GL257902  37.772   6.729   6.150
 7818POPC   C1A57903  37.702   6.683   6.450
 7818POPC   D2A57904  37.686   6.656   6.750
 7818POPC   C3A57905  37.677   6.691   7.050
 7818POPC   C4A57906  37.713   6.655   7.350
 7818POPC   C1B57907  37.818   6.841   6.450
 7818POPC   C2B57908  37.901   6.800   6.750
 7818POPC   C3B57909  37.869   6.831   7.050
 7818POPC   C4B57910  37.849   6.828   7.350
 7819POPC   NC357911   8.245  41.598   5.550
 7819POPC   PO457912   8.194  41.550   5.850
 7819POPC   GL157913   8.152  41.532   6.150
 7819POPC   GL257914   8.301  41.689   6.150
 7819POPC   C1A57915   8.196  41.567   6.450
 7819POPC   D2A57916   8.238  41.518   6.750
 7819POPC   C3A57917   8.209  41.531   7.050
 7819POPC   C4A57918   8.220  41.519   7.350
 7819POPC   C1B57919   8.351  41.703   6.450
 7819POPC   C2B57920   8.389  41.695   6.750
 7819POPC   C3B57921   8.371  41.743   7.050
 7819POPC   C4B57922   8.383  41.757   7.350
 7820POPC   NC357923  15.181   8.960   5.550
 7820POPC   PO457924  15.183   8.985   5.850
 7820POPC   GL157925  15.177   9.022   6.150
 7820POPC   GL257926  15.194   8.865   6.150
 7820POPC   C1A57927  15.208   8.990   6.450
 7820POPC   D2A57928  15.191   8.955   6.750
 7820POPC   C3A57929  15.177   8.964   7.050
 7820POPC   C4A57930  15.223   8.960   7.350
 7820POPC   C1B57931  15.231   8.738   6.450
 7820POPC   C2B57932  15.174   8.765   6.750
 7820POPC   C3B57933  15.170   8.697   7.050
 7820POPC   C4B57934  15.193   8.712   7.350
 7821POPC   NC357935   2.783   2.015   5.550
 7821POPC   PO457936   2.741   2.034   5.850
 7821POPC   GL157937   2.731   2.023   6.150
 7821POPC   GL257938   2.630   1.913   6.150
 7821POPC   C1A57939   2.743   1.994   6.450
 7821POPC   D2A57940   2.733   2.030   6.750
 7821POPC   C3A57941   2.756   1.960   7.050
 7821POPC   C4A57942   2.747   2.018   7.350
 7821POPC   C1B57943   2.556   1.934   6.450
 7821POPC   C2B57944   2.547   1.915   6.750
 7821POPC   C3B57945   2.573   1.849   7.050
 7821POPC   C4B57946   2.566   1.867   7.350
 7822POPC   NC357947  20.578  19.104   5.550
 7822POPC   PO457948  20.585  19.022   5.850
 7822POPC   GL157949  20.655  19.040   6.150
 7822POPC   GL257950  20.458  19.164   6.150
 7822POPC   C1A57951  20.646  19.051   6.450
 7822POPC   D2A57952  20.641  19.029   6.750
 7822POPC   C3A57953  20.617  19.026   7.050
 7822POPC   C4A57954  20.587  19.064   7.350
 7822POPC   C1B57955  20.358  19.236   6.450
 7822POPC   C2B57956  20.410  19.172   6.750
 7822POPC   C3B57957  20.368  19.168   7.050
 7822POPC   C4B57958  20.399  19.204   7.350
 7823POPC   NC357959  29.098  17.476   5.550
 7823POPC   PO457960  29.138  17.539   5.850
 7823POPC   GL157961  29.120  17.467   6.150
 7823POPC   GL257962  29.126  17.418   6.150
 7823POPC   C1A57963  29.123  17.471   6.450
 7823POPC   D2A57964  29.160  17.540   6.750
 7823POPC   C3A57965  29.179  17.550   7.050
 7823POPC   C4A57966  29.151  17.524   7.350
 7823POPC   C1B57967  29.163  17.264   6.450
 7823POPC   C2B57968  29.086  17.296   6.750
 7823POPC   C3B57969  29.104  17.280   7.050
 7823POPC   C4B57970  29.161  17.295   7.350
 7824POPC   NC357971   9.014  15.131   5.550
 7824POPC   PO457972   8.986  15.138   5.850
 7824POPC   GL157973   9.003  15.224   6.150
 7824POPC   GL257974   8.896  15.080   6.150
 7824POPC   C1A57975   9.009  15.203   6.450
 7824POPC   D2A57976   8.978  15.158   6.750
 7824POPC   C3A57977   8.937  15.220   7.050
 7824POPC   C4A57978   8.941  15.176   7.350
 7824POPC   C1B57979   8.839  14.940   6.450
 7824POPC   C2B57980   8.836  14.926   6.750
 7824POPC   C3B57981   8.862  14.983   7.050
 7824POPC   C4B57982   8.914  14.935   7.350
 7825POPC   NC357983   2.803  12.891   5.550
 7825POPC   PO457984   2.721  12.808   5.850
 7825POPC   GL157985   2.809  12.857   6.150
 7825POPC   GL257986   2.677  12.766   6.150
 7825POPC   C1A57987   2.811  12.808   6.450
 7825POPC   D2A57988   2.752  12.876   6.750
 7825POPC   C3A57989   2.718  12.843   7.050
 7825POPC   C4A57990   2.758  12.829   7.350
 7825POPC   C1B57991   2.511  12.807   6.450
 7825POPC   C2B57992   2.570  12.747   6.750
 7825POPC   C3B57993   2.507  12.720   7.050
 7825POPC   C4B57994   2.565  12.742   7.350
 7826POPC   NC357995  17.481  43.838   5.550
 7826POPC   PO457996  17.475  43.931   5.850
 7826POPC   GL157997  17.511  43.888   6.150
 7826POPC   GL257998  17.442  44.009   6.150
 7826POPC   C1A57999  17.553  43.887   6.450
 7826POPC   D2A58000  17.490  43.882   6.750
 7826POPC   C3A58001  17.484  43.840   7.050
 7826POPC   C4A58002  17.540  43.851   7.350
 7826POPC   C1B58003  17.299  44.007   6.450
 7826POPC   C2B58004  17.296  44.047   6.750
 7826POPC   C3B58005  17.296  44.016   7.050
 7826POPC   C4B58006  17.326  44.061   7.350
 7827POPC   NC358007   8.218  22.132   5.550
 7827POPC   PO458008   8.165  22.130   5.850
 7827POPC   GL158009   8.232  22.133   6.150
 7827POPC   GL258010   8.262  22.115   6.150
 7827POPC   C1A58011   8.204  22.145   6.450
 7827POPC   D2A58012   8.215  22.195   6.750
 7827POPC   C3A58013   8.211  22.168   7.050
 7827POPC   C4A58014   8.195  22.139   7.350
 7827POPC   C1B58015   8.373  21.982   6.450
 7827POPC   C2B58016   8.440  21.990   6.750
 7827POPC   C3B58017   8.453  22.000   7.050
 7827POPC   C4B58018   8.402  22.012   7.350
 7828POPC   NC358019  35.306  14.380   5.550
 7828POPC   PO458020  35.345  14.400   5.850
 7828POPC   GL158021  35.328  14.412   6.150
 7828POPC   GL258022  35.352  14.263   6.150
 7828POPC   C1A58023  35.310  14.389   6.450
 7828POPC   D2A58024  35.311  14.436   6.750
 7828POPC   C3A58025  35.336  14.428   7.050
 7828POPC   C4A58026  35.306  14.429   7.350
 7828POPC   C1B58027  35.268  14.119   6.450
 7828POPC   C2B58028  35.317  14.154   6.750
 7828POPC   C3B58029  35.279  14.154   7.050
 7828POPC   C4B58030  35.251  14.211   7.350
 7829POPC   NC358031  35.382  29.891   5.550
 7829POPC   PO458032  35.394  29.872   5.850
 7829POPC   GL158033  35.388  29.883   6.150
 7829POPC   GL258034  35.476  29.807   6.150
 7829POPC   C1A58035  35.320  29.958   6.450
 7829POPC   D2A58036  35.389  29.909   6.750
 7829POPC   C3A58037  35.316  29.882   7.050
 7829POPC   C4A58038  35.345  29.879   7.350
 7829POPC   C1B58039  35.561  29.788   6.450
 7829POPC   C2B58040  35.533  29.751   6.750
 7829POPC   C3B58041  35.513  29.778   7.050
 7829POPC   C4B58042  35.489  29.758   7.350
 7830POPC   NC358043   2.805  12.090   5.550
 7830POPC   PO458044   2.766  12.118   5.850
 7830POPC   GL158045   2.740  12.075   6.150
 7830POPC   GL258046   2.662  12.210   6.150
 7830POPC   C1A58047   2.804  12.089   6.450
 7830POPC   D2A58048   2.748  12.036   6.750
 7830POPC   C3A58049   2.747  12.054   7.050
 7830POPC   C4A58050   2.737  12.108   7.350
 7830POPC   C1B58051   2.580  12.267   6.450
 7830POPC   C2B58052   2.603  12.315   6.750
 7830POPC   C3B58053   2.581  12.270   7.050
 7830POPC   C4B58054   2.649  12.256   7.350
 7831POPC   NC358055  22.179   1.977   5.550
 7831POPC   PO458056  22.131   1.971   5.850
 7831POPC   GL158057  22.127   1.972   6.150
 7831POPC   GL258058  22.314   1.995   6.150
 7831POPC   C1A58059  22.145   1.995   6.450
 7831POPC   D2A58060  22.158   2.015   6.750
 7831POPC   C3A58061  22.185   2.039   7.050
 7831POPC   C4A58062  22.198   1.979   7.350
 7831POPC   C1B58063  22.402   2.017   6.450
 7831POPC   C2B58064  22.367   1.972   6.750
 7831POPC   C3B58065  22.405   2.024   7.050
 7831POPC   C4B58066  22.461   2.020   7.350
 7832POPC   NC358067   3.571  29.158   5.550
 7832POPC   PO458068   3.533  29.103   5.850
 7832POPC   GL158069   3.587  29.167   6.150
 7832POPC   GL258070   3.410  29.085   6.150
 7832POPC   C1A58071   3.505  29.097   6.450
 7832POPC   D2A58072   3.550  29.182   6.750
 7832POPC   C3A58073   3.532  29.133   7.050
 7832POPC   C4A58074   3.546  29.122   7.350
 7832POPC   C1B58075   3.399  29.020   6.450
 7832POPC   C2B58076   3.338  29.011   6.750
 7832POPC   C3B58077   3.380  28.972   7.050
 7832POPC   C4B58078   3.369  28.989   7.350
 7833POPC   NC358079  39.958   4.342   5.550
 7833POPC   PO458080  40.054   4.294   5.850
 7833POPC   GL158081  39.969   4.272   6.150
 7833POPC   GL258082  39.885   4.373   6.150
 7833POPC   C1A58083  39.993   4.342   6.450
 7833POPC   D2A58084  39.999   4.284   6.750
 7833POPC   C3A58085  40.021   4.355   7.050
 7833POPC   C4A58086  40.025   4.349   7.350
 7833POPC   C1B58087  39.765   4.476   6.450
 7833POPC   C2B58088  39.835   4.477   6.750
 7833POPC   C3B58089  39.825   4.512   7.050
 7833POPC   C4B58090  39.857   4.518   7.350
 7834POPC   NC358091   2.768  42.382   5.550
 7834POPC   PO458092   2.750  42.317   5.850
 7834POPC   GL158093   2.727  42.373   6.150
 7834POPC   GL258094   2.748  42.178   6.150
 7834POPC   C1A58095   2.740  42.333   6.450
 7834POPC   D2A58096   2.771  42.355   6.750
 7834POPC   C3A58097   2.811  42.376   7.050
 7834POPC   C4A58098   2.770  42.364   7.350
 7834POPC   C1B58099   2.693  42.134   6.450
 7834POPC   C2B58100   2.699  42.088   6.750
 7834POPC   C3B58101   2.654  42.080   7.050
 7834POPC   C4B58102   2.611  42.074   7.350
 7835POPC   NC358103  31.440  13.657   5.550
 7835POPC   PO458104  31.451  13.592   5.850
 7835POPC   GL158105  31.442  13.636   6.150
 7835POPC   GL258106  31.635  13.598   6.150
 7835POPC   C1A58107  31.470  13.578   6.450
 7835POPC   D2A58108  31.515  13.672   6.750
 7835POPC   C3A58109  31.492  13.641   7.050
 7835POPC   C4A58110  31.441  13.671   7.350
 7835POPC   C1B58111  31.750  13.528   6.450
 7835POPC   C2B58112  31.697  13.604   6.750
 7835POPC   C3B58113  31.694  13.549   7.050
 7835POPC   C4B58114  31.680  13.587   7.350
 7836POPC   NC358115  16.761   1.262   5.550
 7836POPC   PO458116  16.772   1.187   5.850
 7836POPC   GL158117  16.705   1.224   6.150
 7836POPC   GL258118  16.794   1.310   6.150
 7836POPC   C1A58119  16.720   1.190   6.450
 7836POPC   D2A58120  16.696   1.188   6.750
 7836POPC   C3A58121  16.758   1.264   7.050
 7836POPC   C4A58122  16.732   1.190   7.350
 7836POPC   C1B58123  16.864   1.452   6.450
 7836POPC   C2B58124  16.875   1.447   6.750
 7836POPC   C3B58125  16.830   1.411   7.050
 7836POPC   C4B58126  16.893   1.448   7.350
 7837POPC   NC358127  40.798  29.943   5.550
 7837POPC   PO458128  40.770  29.902   5.850
 7837POPC   GL158129  40.786  29.886   6.150
 7837POPC   GL258130  40.924  29.901   6.150
 7837POPC   C1A58131  40.777  29.919   6.450
 7837POPC   D2A58132  40.833  29.941   6.750
 7837POPC   C3A58133  40.816  29.961   7.050
 7837POPC   C4A58134  40.768  29.943   7.350
 7837POPC   C1B58135  40.987  29.894   6.450
 7837POPC   C2B58136  40.978  29.862   6.750
 7837POPC   C3B58137  41.032  29.884   7.050
 7837POPC   C4B58138  40.986  29.904   7.350
 7838POPC   NC358139  39.982  34.608   5.550
 7838POPC   PO458140  40.014  34.567   5.850
 7838POPC   GL158141  40.006  34.577   6.150
 7838POPC   GL258142  40.102  34.596   6.150
 7838POPC   C1A58143  39.984  34.537   6.450
 7838POPC   D2A58144  39.993  34.534   6.750
 7838POPC   C3A58145  40.020  34.558   7.050
 7838POPC   C4A58146  40.024  34.539   7.350
 7838POPC   C1B58147  40.286  34.642   6.450
 7838POPC   C2B58148  40.286  34.618   6.750
 7838POPC   C3B58149  40.275  34.654   7.050
 7838POPC   C4B58150  40.196  34.646   7.350
 7839POPC   NC358151  21.341  15.131   5.550
 7839POPC   PO458152  21.346  15.151   5.850
 7839POPC   GL158153  21.356  15.169   6.150
 7839POPC   GL258154  21.259  15.225   6.150
 7839POPC   C1A58155  21.382  15.211   6.450
 7839POPC   D2A58156  21.338  15.208   6.750
 7839POPC   C3A58157  21.428  15.197   7.050
 7839POPC   C4A58158  21.388  15.150   7.350
 7839POPC   C1B58159  21.147  15.219   6.450
 7839POPC   C2B58160  21.108  15.239   6.750
 7839POPC   C3B58161  21.178  15.156   7.050
 7839POPC   C4B58162  21.153  15.217   7.350
 7840POPC   NC358163   1.952  33.024   5.550
 7840POPC   PO458164   1.977  33.073   5.850
 7840POPC   GL158165   1.947  33.011   6.150
 7840POPC   GL258166   2.024  33.183   6.150
 7840POPC   C1A58167   2.037  33.028   6.450
 7840POPC   D2A58168   1.960  33.024   6.750
 7840POPC   C3A58169   1.964  33.066   7.050
 7840POPC   C4A58170   2.011  32.984   7.350
 7840POPC   C1B58171   2.044  33.229   6.450
 7840POPC   C2B58172   2.054  33.225   6.750
 7840POPC   C3B58173   2.065  33.244   7.050
 7840POPC   C4B58174   1.977  33.310   7.350
 7841POPC   NC358175   9.785  16.687   5.550
 7841POPC   PO458176   9.785  16.738   5.850
 7841POPC   GL158177   9.765  16.683   6.150
 7841POPC   GL258178   9.778  16.850   6.150
 7841POPC   C1A58179   9.790  16.776   6.450
 7841POPC   D2A58180   9.726  16.699   6.750
 7841POPC   C3A58181   9.772  16.727   7.050
 7841POPC   C4A58182   9.728  16.747   7.350
 7841POPC   C1B58183   9.722  16.942   6.450
 7841POPC   C2B58184   9.703  17.014   6.750
 7841POPC   C3B58185   9.785  16.958   7.050
 7841POPC   C4B58186   9.770  17.018   7.350
 7842POPC   NC358187  36.146  13.658   5.550
 7842POPC   PO458188  36.141  13.611   5.850
 7842POPC   GL158189  36.152  13.585   6.150
 7842POPC   GL258190  36.218  13.760   6.150
 7842POPC   C1A58191  36.142  13.668   6.450
 7842POPC   D2A58192  36.120  13.659   6.750
 7842POPC   C3A58193  36.170  13.668   7.050
 7842POPC   C4A58194  36.133  13.588   7.350
 7842POPC   C1B58195  36.294  13.830   6.450
 7842POPC   C2B58196  36.340  13.799   6.750
 7842POPC   C3B58197  36.259  13.816   7.050
 7842POPC   C4B58198  36.329  13.819   7.350
 7843POPC   NC358199  13.672  42.314   5.550
 7843POPC   PO458200  13.626  42.301   5.850
 7843POPC   GL158201  13.596  42.377   6.150
 7843POPC   GL258202  13.585  42.460   6.150
 7843POPC   C1A58203  13.675  42.340   6.450
 7843POPC   D2A58204  13.578  42.308   6.750
 7843POPC   C3A58205  13.652  42.294   7.050
 7843POPC   C4A58206  13.617  42.354   7.350
 7843POPC   C1B58207  13.546  42.546   6.450
 7843POPC   C2B58208  13.606  42.571   6.750
 7843POPC   C3B58209  13.585  42.611   7.050
 7843POPC   C4B58210  13.563  42.556   7.350
 7844POPC   NC358211  11.277  40.764   5.550
 7844POPC   PO458212  11.267  40.795   5.850
 7844POPC   GL158213  11.330  40.733   6.150
 7844POPC   GL258214  11.447  40.848   6.150
 7844POPC   C1A58215  11.312  40.736   6.450
 7844POPC   D2A58216  11.257  40.820   6.750
 7844POPC   C3A58217  11.327  40.763   7.050
 7844POPC   C4A58218  11.259  40.804   7.350
 7844POPC   C1B58219  11.549  40.869   6.450
 7844POPC   C2B58220  11.527  40.900   6.750
 7844POPC   C3B58221  11.567  40.928   7.050
 7844POPC   C4B58222  11.512  40.924   7.350
 7845POPC   NC358223   4.311   7.382   5.550
 7845POPC   PO458224   4.330   7.408   5.850
 7845POPC   GL158225   4.358   7.414   6.150
 7845POPC   GL258226   4.237   7.528   6.150
 7845POPC   C1A58227   4.294   7.454   6.450
 7845POPC   D2A58228   4.330   7.470   6.750
 7845POPC   C3A58229   4.277   7.387   7.050
 7845POPC   C4A58230   4.283   7.389   7.350
 7845POPC   C1B58231   4.195   7.623   6.450
 7845POPC   C2B58232   4.142   7.607   6.750
 7845POPC   C3B58233   4.152   7.658   7.050
 7845POPC   C4B58234   4.145   7.619   7.350
 7846POPC   NC358235  13.674   4.352   5.550
 7846POPC   PO458236  13.595   4.314   5.850
 7846POPC   GL158237  13.598   4.291   6.150
 7846POPC   GL258238  13.660   4.175   6.150
 7846POPC   C1A58239  13.658   4.322   6.450
 7846POPC   D2A58240  13.629   4.281   6.750
 7846POPC   C3A58241  13.592   4.360   7.050
 7846POPC   C4A58242  13.596   4.362   7.350
 7846POPC   C1B58243  13.617   4.018   6.450
 7846POPC   C2B58244  13.583   4.040   6.750
 7846POPC   C3B58245  13.584   4.026   7.050
 7846POPC   C4B58246  13.650   4.057   7.350
 7847POPC   NC358247   9.721   2.736   5.550
 7847POPC   PO458248   9.702   2.801   5.850
 7847POPC   GL158249   9.737   2.728   6.150
 7847POPC   GL258250   9.803   2.697   6.150
 7847POPC   C1A58251   9.790   2.769   6.450
 7847POPC   D2A58252   9.790   2.752   6.750
 7847POPC   C3A58253   9.738   2.759   7.050
 7847POPC   C4A58254   9.707   2.756   7.350
 7847POPC   C1B58255   9.949   2.580   6.450
 7847POPC   C2B58256   9.968   2.551   6.750
 7847POPC   C3B58257   9.901   2.576   7.050
 7847POPC   C4B58258   9.918   2.627   7.350
 7848POPC   NC358259  36.152  39.198   5.550
 7848POPC   PO458260  36.177  39.195   5.850
 7848POPC   GL158261  36.079  39.244   6.150
 7848POPC   GL258262  36.246  39.159   6.150
 7848POPC   C1A58263  36.087  39.210   6.450
 7848POPC   D2A58264  36.139  39.198   6.750
 7848POPC   C3A58265  36.100  39.267   7.050
 7848POPC   C4A58266  36.171  39.224   7.350
 7848POPC   C1B58267  36.268  38.997   6.450
 7848POPC   C2B58268  36.319  39.051   6.750
 7848POPC   C3B58269  36.330  38.997   7.050
 7848POPC   C4B58270  36.298  39.014   7.350
 7849POPC   NC358271  36.101  14.379   5.550
 7849POPC   PO458272  36.087  14.372   5.850
 7849POPC   GL158273  36.084  14.373   6.150
 7849POPC   GL258274  36.091  14.292   6.150
 7849POPC   C1A58275  36.113  14.361   6.450
 7849POPC   D2A58276  36.155  14.357   6.750
 7849POPC   C3A58277  36.122  14.401   7.050
 7849POPC   C4A58278  36.171  14.437   7.350
 7849POPC   C1B58279  35.970  14.166   6.450
 7849POPC   C2B58280  35.971  14.218   6.750
 7849POPC   C3B58281  35.937  14.257   7.050
 7849POPC   C4B58282  35.955  14.233   7.350
 7850POPC   NC358283  36.130  19.821   5.550
 7850POPC   PO458284  36.116  19.866   5.850
 7850POPC   GL158285  36.090  19.848   6.150
 7850POPC   GL258286  36.258  19.935   6.150
 7850POPC   C1A58287  36.106  19.837   6.450
 7850POPC   D2A58288  36.142  19.786   6.750
 7850POPC   C3A58289  36.171  19.858   7.050
 7850POPC   C4A58290  36.098  19.822   7.350
 7850POPC   C1B58291  36.273  20.032   6.450
 7850POPC   C2B58292  36.317  19.993   6.750
 7850POPC   C3B58293  36.303  19.966   7.050
 7850POPC   C4B58294  36.314  20.024   7.350
 7851POPC   NC358295  31.439   9.778   5.550
 7851POPC   PO458296  31.446   9.782   5.850
 7851POPC   GL158297  31.431   9.708   6.150
 7851POPC   GL258298  31.405   9.689   6.150
 7851POPC   C1A58299  31.520   9.769   6.450
 7851POPC   D2A58300  31.492   9.729   6.750
 7851POPC   C3A58301  31.444   9.742   7.050
 7851POPC   C4A58302  31.445   9.728   7.350
 7851POPC   C1B58303  31.247   9.617   6.450
 7851POPC   C2B58304  31.296   9.688   6.750
 7851POPC   C3B58305  31.220   9.663   7.050
 7851POPC   C4B58306  31.202   9.631   7.350
 7852POPC   NC358307  40.774  38.424   5.550
 7852POPC   PO458308  40.788  38.434   5.850
 7852POPC   GL158309  40.794  38.501   6.150
 7852POPC   GL258310  40.858  38.590   6.150
 7852POPC   C1A58311  40.818  38.477   6.450
 7852POPC   D2A58312  40.780  38.484   6.750
 7852POPC   C3A58313  40.758  38.429   7.050
 7852POPC   C4A58314  40.768  38.437   7.350
 7852POPC   C1B58315  40.836  38.712   6.450
 7852POPC   C2B58316  40.869  38.739   6.750
 7852POPC   C3B58317  40.872  38.651   7.050
 7852POPC   C4B58318  40.865  38.706   7.350
 7853POPC   NC358319  20.641  43.925   5.550
 7853POPC   PO458320  20.650  43.917   5.850
 7853POPC   GL158321  20.621  43.907   6.150
 7853POPC   GL258322  20.549  43.800   6.150
 7853POPC   C1A58323  20.598  43.925   6.450
 7853POPC   D2A58324  20.656  43.910   6.750
 7853POPC   C3A58325  20.567  43.931   7.050
 7853POPC   C4A58326  20.610  43.870   7.350
 7853POPC   C1B58327  20.440  43.725   6.450
 7853POPC   C2B58328  20.508  43.629   6.750
 7853POPC   C3B58329  20.506  43.669   7.050
 7853POPC   C4B58330  20.498  43.635   7.350
 7854POPC   NC358331  12.822   4.303   5.550
 7854POPC   PO458332  12.878   4.360   5.850
 7854POPC   GL158333  12.848   4.320   6.150
 7854POPC   GL258334  12.909   4.184   6.150
 7854POPC   C1A58335  12.857   4.312   6.450
 7854POPC   D2A58336  12.813   4.362   6.750
 7854POPC   C3A58337  12.900   4.344   7.050
 7854POPC   C4A58338  12.873   4.334   7.350
 7854POPC   C1B58339  13.056   4.185   6.450
 7854POPC   C2B58340  13.024   4.160   6.750
 7854POPC   C3B58341  13.081   4.137   7.050
 7854POPC   C4B58342  12.986   4.110   7.350
 7855POPC   NC358343  38.467  14.356   5.550
 7855POPC   PO458344  38.487  14.388   5.850
 7855POPC   GL158345  38.435  14.427   6.150
 7855POPC   GL258346  38.492  14.237   6.150
 7855POPC   C1A58347  38.445  14.400   6.450
 7855POPC   D2A58348  38.423  14.444   6.750
 7855POPC   C3A58349  38.445  14.452   7.050
 7855POPC   C4A58350  38.415  14.446   7.350
 7855POPC   C1B58351  38.517  14.134   6.450
 7855POPC   C2B58352  38.500  14.174   6.750
 7855POPC   C3B58353  38.534  14.124   7.050
 7855POPC   C4B58354  38.556  14.165   7.350
 7856POPC   NC358355  37.692  22.197   5.550
 7856POPC   PO458356  37.715  22.170   5.850
 7856POPC   GL158357  37.637  22.201   6.150
 7856POPC   GL258358  37.542  22.182   6.150
 7856POPC   C1A58359  37.634  22.169   6.450
 7856POPC   D2A58360  37.695  22.210   6.750
 7856POPC   C3A58361  37.656  22.180   7.050
 7856POPC   C4A58362  37.683  22.160   7.350
 7856POPC   C1B58363  37.436  22.196   6.450
 7856POPC   C2B58364  37.452  22.288   6.750
 7856POPC   C3B58365  37.472  22.242   7.050
 7856POPC   C4B58366  37.424  22.244   7.350
 7857POPC   NC358367  12.085  13.617   5.550
 7857POPC   PO458368  12.120  13.670   5.850
 7857POPC   GL158369  12.029  13.675   6.150
 7857POPC   GL258370  12.019  13.576   6.150
 7857POPC   C1A58371  12.090  13.595   6.450
 7857POPC   D2A58372  12.061  13.674   6.750
 7857POPC   C3A58373  12.122  13.619   7.050
 7857POPC   C4A58374  12.110  13.596   7.350
 7857POPC   C1B58375  11.923  13.472   6.450
 7857POPC   C2B58376  11.898  13.486   6.750
 7857POPC   C3B58377  11.906  13.516   7.050
 7857POPC   C4B58378  11.839  13.471   7.350
 7858POPC   NC358379  16.741  19.874   5.550
 7858POPC   PO458380  16.713  19.855   5.850
 7858POPC   GL158381  16.740  19.851   6.150
 7858POPC   GL258382  16.662  19.702   6.150
 7858POPC   C1A58383  16.752  19.855   6.450
 7858POPC   D2A58384  16.697  19.794   6.750
 7858POPC   C3A58385  16.779  19.883   7.050
 7858POPC   C4A58386  16.713  19.820   7.350
 7858POPC   C1B58387  16.600  19.591   6.450
 7858POPC   C2B58388  16.607  19.615   6.750
 7858POPC   C3B58389  16.563  19.581   7.050
 7858POPC   C4B58390  16.601  19.636   7.350
 7859POPC   NC358391  23.700  32.983   5.550
 7859POPC   PO458392  23.744  33.031   5.850
 7859POPC   GL158393  23.680  33.034   6.150
 7859POPC   GL258394  23.607  32.980   6.150
 7859POPC   C1A58395  23.681  33.031   6.450
 7859POPC   D2A58396  23.714  33.012   6.750
 7859POPC   C3A58397  23.698  33.009   7.050
 7859POPC   C4A58398  23.694  33.020   7.350
 7859POPC   C1B58399  23.470  32.876   6.450
 7859POPC   C2B58400  23.504  32.865   6.750
 7859POPC   C3B58401  23.517  32.865   7.050
 7859POPC   C4B58402  23.475  32.893   7.350
 7860POPC   NC358403  35.323  44.622   5.550
 7860POPC   PO458404  35.383  44.668   5.850
 7860POPC   GL158405  35.373  44.668   6.150
 7860POPC   GL258406  35.364  44.739   6.150
 7860POPC   C1A58407  35.348  44.707   6.450
 7860POPC   D2A58408  35.379  44.627   6.750
 7860POPC   C3A58409  35.353  44.697   7.050
 7860POPC   C4A58410  35.333  44.647   7.350
 7860POPC   C1B58411  35.381  44.902   6.450
 7860POPC   C2B58412  35.319  44.897   6.750
 7860POPC   C3B58413  35.333  44.886   7.050
 7860POPC   C4B58414  35.373  44.959   7.350
 7861POPC   NC358415  15.952  29.967   5.550
 7861POPC   PO458416  15.908  29.937   5.850
 7861POPC   GL158417  15.980  29.948   6.150
 7861POPC   GL258418  15.860  29.967   6.150
 7861POPC   C1A58419  15.905  29.895   6.450
 7861POPC   D2A58420  15.950  29.877   6.750
 7861POPC   C3A58421  15.945  29.890   7.050
 7861POPC   C4A58422  15.937  29.935   7.350
 7861POPC   C1B58423  15.700  29.985   6.450
 7861POPC   C2B58424  15.707  29.988   6.750
 7861POPC   C3B58425  15.706  29.986   7.050
 7861POPC   C4B58426  15.741  29.998   7.350
 7862POPC   NC358427  26.055   5.832   5.550
 7862POPC   PO458428  26.083   5.863   5.850
 7862POPC   GL158429  26.040   5.896   6.150
 7862POPC   GL258430  26.213   5.832   6.150
 7862POPC   C1A58431  26.052   5.860   6.450
 7862POPC   D2A58432  26.051   5.856   6.750
 7862POPC   C3A58433  26.011   5.894   7.050
 7862POPC   C4A58434  26.080   5.886   7.350
 7862POPC   C1B58435  26.280   5.903   6.450
 7862POPC   C2B58436  26.340   5.899   6.750
 7862POPC   C3B58437  26.307   5.888   7.050
 7862POPC   C4B58438  26.336   5.858   7.350
 7863POPC   NC358439   7.434   3.580   5.550
 7863POPC   PO458440   7.440   3.578   5.850
 7863POPC   GL158441   7.372   3.509   6.150
 7863POPC   GL258442   7.590   3.546   6.150
 7863POPC   C1A58443   7.433   3.582   6.450
 7863POPC   D2A58444   7.376   3.576   6.750
 7863POPC   C3A58445   7.378   3.524   7.050
 7863POPC   C4A58446   7.446   3.576   7.350
 7863POPC   C1B58447   7.621   3.537   6.450
 7863POPC   C2B58448   7.713   3.488   6.750
 7863POPC   C3B58449   7.632   3.503   7.050
 7863POPC   C4B58450   7.669   3.475   7.350
 7864POPC   NC358451  16.717  15.144   5.550
 7864POPC   PO458452  16.708  15.219   5.850
 7864POPC   GL158453  16.743  15.173   6.150
 7864POPC   GL258454  16.677  15.334   6.150
 7864POPC   C1A58455  16.698  15.172   6.450
 7864POPC   D2A58456  16.711  15.222   6.750
 7864POPC   C3A58457  16.723  15.176   7.050
 7864POPC   C4A58458  16.768  15.154   7.350
 7864POPC   C1B58459  16.688  15.394   6.450
 7864POPC   C2B58460  16.652  15.410   6.750
 7864POPC   C3B58461  16.673  15.402   7.050
 7864POPC   C4B58462  16.659  15.456   7.350
 7865POPC   NC358463  34.546  26.805   5.550
 7865POPC   PO458464  34.619  26.810   5.850
 7865POPC   GL158465  34.626  26.801   6.150
 7865POPC   GL258466  34.717  26.877   6.150
 7865POPC   C1A58467  34.622  26.853   6.450
 7865POPC   D2A58468  34.549  26.827   6.750
 7865POPC   C3A58469  34.556  26.774   7.050
 7865POPC   C4A58470  34.622  26.802   7.350
 7865POPC   C1B58471  34.818  26.924   6.450
 7865POPC   C2B58472  34.822  26.911   6.750
 7865POPC   C3B58473  34.774  26.887   7.050
 7865POPC   C4B58474  34.779  26.891   7.350
 7866POPC   NC358475   9.714  44.622   5.550
 7866POPC   PO458476   9.710  44.676   5.850
 7866POPC   GL158477   9.770  44.645   6.150
 7866POPC   GL258478   9.869  44.565   6.150
 7866POPC   C1A58479   9.707  44.668   6.450
 7866POPC   D2A58480   9.739  44.643   6.750
 7866POPC   C3A58481   9.760  44.688   7.050
 7866POPC   C4A58482   9.747  44.698   7.350
 7866POPC   C1B58483   9.897  44.524   6.450
 7866POPC   C2B58484   9.962  44.535   6.750
 7866POPC   C3B58485   9.956  44.522   7.050
 7866POPC   C4B58486   9.948  44.506   7.350
 7867POPC   NC358487   6.680   2.025   5.550
 7867POPC   PO458488   6.608   2.033   5.850
 7867POPC   GL158489   6.613   2.001   6.150
 7867POPC   GL258490   6.653   1.861   6.150
 7867POPC   C1A58491   6.693   2.023   6.450
 7867POPC   D2A58492   6.677   2.015   6.750
 7867POPC   C3A58493   6.603   1.960   7.050
 7867POPC   C4A58494   6.690   1.969   7.350
 7867POPC   C1B58495   6.633   1.716   6.450
 7867POPC   C2B58496   6.728   1.772   6.750
 7867POPC   C3B58497   6.667   1.780   7.050
 7867POPC   C4B58498   6.658   1.705   7.350
 7868POPC   NC358499  36.906  15.134   5.550
 7868POPC   PO458500  36.939  15.180   5.850
 7868POPC   GL158501  36.882  15.204   6.150
 7868POPC   GL258502  36.825  15.119   6.150
 7868POPC   C1A58503  36.914  15.169   6.450
 7868POPC   D2A58504  36.880  15.151   6.750
 7868POPC   C3A58505  36.908  15.194   7.050
 7868POPC   C4A58506  36.857  15.131   7.350
 7868POPC   C1B58507  36.754  14.990   6.450
 7868POPC   C2B58508  36.758  14.990   6.750
 7868POPC   C3B58509  36.722  15.031   7.050
 7868POPC   C4B58510  36.754  14.984   7.350
 7869POPC   NC358511  33.816  17.557   5.550
 7869POPC   PO458512  33.822  17.498   5.850
 7869POPC   GL158513  33.826  17.472   6.150
 7869POPC   GL258514  33.902  17.604   6.150
 7869POPC   C1A58515  33.802  17.499   6.450
 7869POPC   D2A58516  33.751  17.459   6.750
 7869POPC   C3A58517  33.756  17.478   7.050
 7869POPC   C4A58518  33.808  17.479   7.350
 7869POPC   C1B58519  34.068  17.662   6.450
 7869POPC   C2B58520  34.032  17.570   6.750
 7869POPC   C3B58521  34.042  17.578   7.050
 7869POPC   C4B58522  34.019  17.599   7.350
 7870POPC   NC358523  26.859  36.881   5.550
 7870POPC   PO458524  26.867  36.919   5.850
 7870POPC   GL158525  26.832  36.898   6.150
 7870POPC   GL258526  26.723  36.879   6.150
 7870POPC   C1A58527  26.824  36.865   6.450
 7870POPC   D2A58528  26.806  36.864   6.750
 7870POPC   C3A58529  26.773  36.875   7.050
 7870POPC   C4A58530  26.811  36.895   7.350
 7870POPC   C1B58531  26.550  36.812   6.450
 7870POPC   C2B58532  26.558  36.895   6.750
 7870POPC   C3B58533  26.526  36.818   7.050
 7870POPC   C4B58534  26.540  36.865   7.350
 7871POPC   NC358535  15.154  37.660   5.550
 7871POPC   PO458536  15.192  37.715   5.850
 7871POPC   GL158537  15.130  37.663   6.150
 7871POPC   GL258538  15.239  37.761   6.150
 7871POPC   C1A58539  15.168  37.640   6.450
 7871POPC   D2A58540  15.162  37.671   6.750
 7871POPC   C3A58541  15.217  37.630   7.050
 7871POPC   C4A58542  15.133  37.645   7.350
 7871POPC   C1B58543  15.227  37.885   6.450
 7871POPC   C2B58544  15.238  37.901   6.750
 7871POPC   C3B58545  15.249  37.954   7.050
 7871POPC   C4B58546  15.236  37.949   7.350
 7872POPC   NC358547  33.017   9.734   5.550
 7872POPC   PO458548  32.991   9.763   5.850
 7872POPC   GL158549  33.003   9.715   6.150
 7872POPC   GL258550  33.142   9.716   6.150
 7872POPC   C1A58551  33.001   9.757   6.450
 7872POPC   D2A58552  33.024   9.706   6.750
 7872POPC   C3A58553  33.032   9.754   7.050
 7872POPC   C4A58554  33.005   9.789   7.350
 7872POPC   C1B58555  33.300   9.705   6.450
 7872POPC   C2B58556  33.220   9.713   6.750
 7872POPC   C3B58557  33.253   9.651   7.050
 7872POPC   C4B58558  33.302   9.654   7.350
 7873POPC   NC358559  13.635  29.171   5.550
 7873POPC   PO458560  13.582  29.121   5.850
 7873POPC   GL158561  13.618  29.142   6.150
 7873POPC   GL258562  13.616  29.020   6.150
 7873POPC   C1A58563  13.602  29.186   6.450
 7873POPC   D2A58564  13.612  29.148   6.750
 7873POPC   C3A58565  13.588  29.172   7.050
 7873POPC   C4A58566  13.664  29.186   7.350
 7873POPC   C1B58567  13.706  28.885   6.450
 7873POPC   C2B58568  13.705  28.923   6.750
 7873POPC   C3B58569  13.702  28.915   7.050
 7873POPC   C4B58570  13.669  28.899   7.350
 7874POPC   NC358571   3.533  11.261   5.550
 7874POPC   PO458572   3.582  11.273   5.850
 7874POPC   GL158573   3.536  11.346   6.150
 7874POPC   GL258574   3.626  11.322   6.150
 7874POPC   C1A58575   3.515  11.270   6.450
 7874POPC   D2A58576   3.498  11.256   6.750
 7874POPC   C3A58577   3.529  11.332   7.050
 7874POPC   C4A58578   3.493  11.295   7.350
 7874POPC   C1B58579   3.789  11.312   6.450
 7874POPC   C2B58580   3.822  11.311   6.750
 7874POPC   C3B58581   3.794  11.297   7.050
 7874POPC   C4B58582   3.748  11.326   7.350
 7875POPC   NC358583   2.781   8.933   5.550
 7875POPC   PO458584   2.750   8.926   5.850
 7875POPC   GL158585   2.758   8.989   6.150
 7875POPC   GL258586   2.645   9.026   6.150
 7875POPC   C1A58587   2.764   8.992   6.450
 7875POPC   D2A58588   2.795   9.015   6.750
 7875POPC   C3A58589   2.737   8.995   7.050
 7875POPC   C4A58590   2.732   8.960   7.350
 7875POPC   C1B58591   2.541   9.041   6.450
 7875POPC   C2B58592   2.563   9.025   6.750
 7875POPC   C3B58593   2.538   9.056   7.050
 7875POPC   C4B58594   2.513   9.016   7.350
 7876POPC   NC358595  33.047  44.672   5.550
 7876POPC   PO458596  33.011  44.675   5.850
 7876POPC   GL158597  32.989  44.628   6.150
 7876POPC   GL258598  32.939  44.761   6.150
 7876POPC   C1A58599  33.043  44.710   6.450
 7876POPC   D2A58600  33.026  44.636   6.750
 7876POPC   C3A58601  33.048  44.671   7.050
 7876POPC   C4A58602  33.067  44.664   7.350
 7876POPC   C1B58603  32.872  44.887   6.450
 7876POPC   C2B58604  32.892  44.879   6.750
 7876POPC   C3B58605  32.952  44.906   7.050
 7876POPC   C4B58606  32.887  44.857   7.350
 7877POPC   NC358607  19.838  24.457   5.550
 7877POPC   PO458608  19.816  24.534   5.850
 7877POPC   GL158609  19.842  24.495   6.150
 7877POPC   GL258610  19.698  24.481   6.150
 7877POPC   C1A58611  19.855  24.523   6.450
 7877POPC   D2A58612  19.822  24.470   6.750
 7877POPC   C3A58613  19.818  24.532   7.050
 7877POPC   C4A58614  19.862  24.518   7.350
 7877POPC   C1B58615  19.611  24.394   6.450
 7877POPC   C2B58616  19.579  24.360   6.750
 7877POPC   C3B58617  19.647  24.456   7.050
 7877POPC   C4B58618  19.563  24.437   7.350
 7878POPC   NC358619  36.929  22.160   5.550
 7878POPC   PO458620  36.912  22.136   5.850
 7878POPC   GL158621  36.883  22.157   6.150
 7878POPC   GL258622  36.855  22.250   6.150
 7878POPC   C1A58623  36.946  22.119   6.450
 7878POPC   D2A58624  36.936  22.157   6.750
 7878POPC   C3A58625  36.855  22.186   7.050
 7878POPC   C4A58626  36.905  22.205   7.350
 7878POPC   C1B58627  36.944  22.461   6.450
 7878POPC   C2B58628  36.855  22.448   6.750
 7878POPC   C3B58629  36.880  22.411   7.050
 7878POPC   C4B58630  36.889  22.382   7.350
 7879POPC   NC358631  13.664   0.404   5.550
 7879POPC   PO458632  13.590   0.474   5.850
 7879POPC   GL158633  13.644   0.487   6.150
 7879POPC   GL258634  13.505   0.450   6.150
 7879POPC   C1A58635  13.661   0.393   6.450
 7879POPC   D2A58636  13.647   0.455   6.750
 7879POPC   C3A58637  13.585   0.450   7.050
 7879POPC   C4A58638  13.666   0.439   7.350
 7879POPC   C1B58639  13.433   0.524   6.450
 7879POPC   C2B58640  13.416   0.502   6.750
 7879POPC   C3B58641  13.372   0.502   7.050
 7879POPC   C4B58642  13.363   0.469   7.350
 7880POPC   NC358643  22.146  26.077   5.550
 7880POPC   PO458644  22.117  26.012   5.850
 7880POPC   GL158645  22.170  26.058   6.150
 7880POPC   GL258646  22.159  25.942   6.150
 7880POPC   C1A58647  22.182  26.001   6.450
 7880POPC   D2A58648  22.133  26.090   6.750
 7880POPC   C3A58649  22.129  26.015   7.050
 7880POPC   C4A58650  22.205  26.038   7.350
 7880POPC   C1B58651  22.104  25.750   6.450
 7880POPC   C2B58652  22.070  25.813   6.750
 7880POPC   C3B58653  22.089  25.770   7.050
 7880POPC   C4B58654  22.069  25.795   7.350
 7881POPC   NC358655  18.325  44.649   5.550
 7881POPC   PO458656  18.319  44.679   5.850
 7881POPC   GL158657  18.246  44.622   6.150
 7881POPC   GL258658  18.185  44.597   6.150
 7881POPC   C1A58659  18.314  44.660   6.450
 7881POPC   D2A58660  18.277  44.619   6.750
 7881POPC   C3A58661  18.328  44.675   7.050
 7881POPC   C4A58662  18.239  44.640   7.350
 7881POPC   C1B58663  18.110  44.499   6.450
 7881POPC   C2B58664  18.120  44.509   6.750
 7881POPC   C3B58665  18.156  44.523   7.050
 7881POPC   C4B58666  18.110  44.482   7.350
 7882POPC   NC358667  24.505   8.979   5.550
 7882POPC   PO458668  24.462   8.972   5.850
 7882POPC   GL158669  24.497   9.005   6.150
 7882POPC   GL258670  24.363   8.934   6.150
 7882POPC   C1A58671  24.503   8.934   6.450
 7882POPC   D2A58672  24.481   9.002   6.750
 7882POPC   C3A58673  24.488   8.952   7.050
 7882POPC   C4A58674  24.520   8.947   7.350
 7882POPC   C1B58675  24.293   8.951   6.450
 7882POPC   C2B58676  24.283   8.974   6.750
 7882POPC   C3B58677  24.257   8.941   7.050
 7882POPC   C4B58678  24.204   8.961   7.350
 7883POPC   NC358679  15.153  18.290   5.550
 7883POPC   PO458680  15.178  18.306   5.850
 7883POPC   GL158681  15.209  18.321   6.150
 7883POPC   GL258682  15.279  18.182   6.150
 7883POPC   C1A58683  15.210  18.278   6.450
 7883POPC   D2A58684  15.211  18.320   6.750
 7883POPC   C3A58685  15.195  18.309   7.050
 7883POPC   C4A58686  15.130  18.242   7.350
 7883POPC   C1B58687  15.376  18.165   6.450
 7883POPC   C2B58688  15.445  18.127   6.750
 7883POPC   C3B58689  15.431  18.145   7.050
 7883POPC   C4B58690  15.360  18.150   7.350
 7884POPC   NC358691  33.019  13.646   5.550
 7884POPC   PO458692  33.070  13.632   5.850
 7884POPC   GL158693  33.049  13.662   6.150
 7884POPC   GL258694  33.118  13.741   6.150
 7884POPC   C1A58695  33.019  13.674   6.450
 7884POPC   D2A58696  33.001  13.603   6.750
 7884POPC   C3A58697  33.041  13.651   7.050
 7884POPC   C4A58698  32.991  13.649   7.350
 7884POPC   C1B58699  33.179  13.799   6.450
 7884POPC   C2B58700  33.257  13.757   6.750
 7884POPC   C3B58701  33.182  13.754   7.050
 7884POPC   C4B58702  33.197  13.769   7.350
 7885POPC   NC358703  13.587  22.200   5.550
 7885POPC   PO458704  13.668  22.205   5.850
 7885POPC   GL158705  13.615  22.122   6.150
 7885POPC   GL258706  13.764  22.186   6.150
 7885POPC   C1A58707  13.579  22.210   6.450
 7885POPC   D2A58708  13.588  22.200   6.750
 7885POPC   C3A58709  13.636  22.180   7.050
 7885POPC   C4A58710  13.609  22.150   7.350
 7885POPC   C1B58711  13.924  22.166   6.450
 7885POPC   C2B58712  13.854  22.233   6.750
 7885POPC   C3B58713  13.837  22.170   7.050
 7885POPC   C4B58714  13.832  22.180   7.350
 7886POPC   NC358715  36.912   1.237   5.550
 7886POPC   PO458716  36.860   1.193   5.850
 7886POPC   GL158717  36.895   1.235   6.150
 7886POPC   GL258718  36.777   1.126   6.150
 7886POPC   C1A58719  36.936   1.259   6.450
 7886POPC   D2A58720  36.949   1.202   6.750
 7886POPC   C3A58721  36.855   1.167   7.050
 7886POPC   C4A58722  36.934   1.255   7.350
 7886POPC   C1B58723  36.675   1.082   6.450
 7886POPC   C2B58724  36.712   1.119   6.750
 7886POPC   C3B58725  36.688   1.161   7.050
 7886POPC   C4B58726  36.675   1.145   7.350
 7887POPC   NC358727  36.083  44.690   5.550
 7887POPC   PO458728  36.133  44.671   5.850
 7887POPC   GL158729  36.136  44.665   6.150
 7887POPC   GL258730  36.212  44.678   6.150
 7887POPC   C1A58731  36.166  44.624   6.450
 7887POPC   D2A58732  36.158  44.616   6.750
 7887POPC   C3A58733  36.084  44.710   7.050
 7887POPC   C4A58734  36.164  44.648   7.350
 7887POPC   C1B58735  36.388  44.627   6.450
 7887POPC   C2B58736  36.325  44.597   6.750
 7887POPC   C3B58737  36.327  44.624   7.050
 7887POPC   C4B58738  36.369  44.632   7.350
 7888POPC   NC358739   0.400  32.248   5.550
 7888POPC   PO458740   0.445  32.256   5.850
 7888POPC   GL158741   0.403  32.202   6.150
 7888POPC   GL258742   0.402  32.118   6.150
 7888POPC   C1A58743   0.465  32.228   6.450
 7888POPC   D2A58744   0.476  32.227   6.750
 7888POPC   C3A58745   0.411  32.246   7.050
 7888POPC   C4A58746   0.471  32.289   7.350
 7888POPC   C1B58747   0.274  32.016   6.450
 7888POPC   C2B58748   0.290  32.097   6.750
 7888POPC   C3B58749   0.233  32.033   7.050
 7888POPC   C4B58750   0.287  32.063   7.350
 7889POPC   NC358751   8.956  14.406   5.550
 7889POPC   PO458752   8.997  14.389   5.850
 7889POPC   GL158753   8.980  14.407   6.150
 7889POPC   GL258754   8.912  14.453   6.150
 7889POPC   C1A58755   8.973  14.426   6.450
 7889POPC   D2A58756   9.013  14.433   6.750
 7889POPC   C3A58757   9.007  14.417   7.050
 7889POPC   C4A58758   8.976  14.387   7.350
 7889POPC   C1B58759   8.789  14.616   6.450
 7889POPC   C2B58760   8.845  14.600   6.750
 7889POPC   C3B58761   8.799  14.613   7.050
 7889POPC   C4B58762   8.832  14.593   7.350
 7890POPC   NC358763  12.890  12.896   5.550
 7890POPC   PO458764  12.840  12.838   5.850
 7890POPC   GL158765  12.874  12.889   6.150
 7890POPC   GL258766  12.832  12.744   6.150
 7890POPC   C1A58767  12.879  12.823   6.450
 7890POPC   D2A58768  12.894  12.860   6.750
 7890POPC   C3A58769  12.824  12.879   7.050
 7890POPC   C4A58770  12.844  12.880   7.350
 7890POPC   C1B58771  12.778  12.650   6.450
 7890POPC   C2B58772  12.706  12.663   6.750
 7890POPC   C3B58773  12.707  12.592   7.050
 7890POPC   C4B58774  12.754  12.636   7.350
 7891POPC   NC358775  29.100  19.881   5.550
 7891POPC   PO458776  29.117  19.804   5.850
 7891POPC   GL158777  29.162  19.840   6.150
 7891POPC   GL258778  29.114  19.924   6.150
 7891POPC   C1A58779  29.127  19.870   6.450
 7891POPC   D2A58780  29.147  19.872   6.750
 7891POPC   C3A58781  29.099  19.865   7.050
 7891POPC   C4A58782  29.117  19.824   7.350
 7891POPC   C1B58783  29.120  20.133   6.450
 7891POPC   C2B58784  29.113  20.082   6.750
 7891POPC   C3B58785  29.183  20.109   7.050
 7891POPC   C4B58786  29.111  20.097   7.350
 7892POPC   NC358787  19.055   3.500   5.550
 7892POPC   PO458788  19.067   3.546   5.850
 7892POPC   GL158789  19.085   3.526   6.150
 7892POPC   GL258790  19.052   3.427   6.150
 7892POPC   C1A58791  19.090   3.499   6.450
 7892POPC   D2A58792  19.071   3.560   6.750
 7892POPC   C3A58793  19.062   3.522   7.050
 7892POPC   C4A58794  19.044   3.525   7.350
 7892POPC   C1B58795  19.091   3.247   6.450
 7892POPC   C2B58796  19.058   3.295   6.750
 7892POPC   C3B58797  19.057   3.262   7.050
 7892POPC   C4B58798  19.033   3.262   7.350
 7893POPC   NC358799  29.193  15.169   5.550
 7893POPC   PO458800  29.177  15.176   5.850
 7893POPC   GL158801  29.104  15.154   6.150
 7893POPC   GL258802  29.086  15.096   6.150
 7893POPC   C1A58803  29.128  15.154   6.450
 7893POPC   D2A58804  29.194  15.153   6.750
 7893POPC   C3A58805  29.189  15.155   7.050
 7893POPC   C4A58806  29.157  15.130   7.350
 7893POPC   C1B58807  28.999  15.004   6.450
 7893POPC   C2B58808  29.007  14.971   6.750
 7893POPC   C3B58809  29.023  15.022   7.050
 7893POPC   C4B58810  28.966  15.000   7.350
 7894POPC   NC358811  31.508  34.543   5.550
 7894POPC   PO458812  31.503  34.619   5.850
 7894POPC   GL158813  31.424  34.575   6.150
 7894POPC   GL258814  31.350  34.562   6.150
 7894POPC   C1A58815  31.484  34.528   6.450
 7894POPC   D2A58816  31.436  34.608   6.750
 7894POPC   C3A58817  31.501  34.596   7.050
 7894POPC   C4A58818  31.484  34.561   7.350
 7894POPC   C1B58819  31.185  34.641   6.450
 7894POPC   C2B58820  31.182  34.574   6.750
 7894POPC   C3B58821  31.270  34.647   7.050
 7894POPC   C4B58822  31.226  34.609   7.350
 7895POPC   NC358823  19.793  44.662   5.550
 7895POPC   PO458824  19.882  44.688   5.850
 7895POPC   GL158825  19.867  44.701   6.150
 7895POPC   GL258826  19.753  44.706   6.150
 7895POPC   C1A58827  19.827  44.643   6.450
 7895POPC   D2A58828  19.818  44.671   6.750
 7895POPC   C3A58829  19.844  44.693   7.050
 7895POPC   C4A58830  19.851  44.639   7.350
 7895POPC   C1B58831  19.614  44.627   6.450
 7895POPC   C2B58832  19.599  44.653   6.750
 7895POPC   C3B58833  19.574  44.690   7.050
 7895POPC   C4B58834  19.617  44.683   7.350
 7896POPC   NC358835  21.403  32.267   5.550
 7896POPC   PO458836  21.397  32.266   5.850
 7896POPC   GL158837  21.432  32.260   6.150
 7896POPC   GL258838  21.424  32.325   6.150
 7896POPC   C1A58839  21.342  32.253   6.450
 7896POPC   D2A58840  21.350  32.253   6.750
 7896POPC   C3A58841  21.398  32.212   7.050
 7896POPC   C4A58842  21.405  32.292   7.350
 7896POPC   C1B58843  21.561  32.461   6.450
 7896POPC   C2B58844  21.502  32.456   6.750
 7896POPC   C3B58845  21.564  32.459   7.050
 7896POPC   C4B58846  21.516  32.394   7.350
 7897POPC   NC358847  22.133  39.195   5.550
 7897POPC   PO458848  22.137  39.273   5.850
 7897POPC   GL158849  22.199  39.278   6.150
 7897POPC   GL258850  22.072  39.206   6.150
 7897POPC   C1A58851  22.192  39.235   6.450
 7897POPC   D2A58852  22.190  39.269   6.750
 7897POPC   C3A58853  22.183  39.212   7.050
 7897POPC   C4A58854  22.115  39.277   7.350
 7897POPC   C1B58855  21.902  39.299   6.450
 7897POPC   C2B58856  21.884  39.274   6.750
 7897POPC   C3B58857  21.923  39.263   7.050
 7897POPC   C4B58858  21.933  39.283   7.350
 7898POPC   NC358859   4.319  23.727   5.550
 7898POPC   PO458860   4.355  23.756   5.850
 7898POPC   GL158861   4.309  23.700   6.150
 7898POPC   GL258862   4.336  23.869   6.150
 7898POPC   C1A58863   4.297  23.729   6.450
 7898POPC   D2A58864   4.311  23.755   6.750
 7898POPC   C3A58865   4.339  23.738   7.050
 7898POPC   C4A58866   4.353  23.666   7.350
 7898POPC   C1B58867   4.376  23.925   6.450
 7898POPC   C2B58868   4.378  23.997   6.750
 7898POPC   C3B58869   4.367  23.919   7.050
 7898POPC   C4B58870   4.431  23.980   7.350
 7899POPC   NC358871  28.321  15.148   5.550
 7899POPC   PO458872  28.400  15.187   5.850
 7899POPC   GL158873  28.411  15.149   6.150
 7899POPC   GL258874  28.345  15.268   6.150
 7899POPC   C1A58875  28.359  15.169   6.450
 7899POPC   D2A58876  28.389  15.163   6.750
 7899POPC   C3A58877  28.330  15.198   7.050
 7899POPC   C4A58878  28.404  15.218   7.350
 7899POPC   C1B58879  28.234  15.432   6.450
 7899POPC   C2B58880  28.292  15.447   6.750
 7899POPC   C3B58881  28.295  15.363   7.050
 7899POPC   C4B58882  28.295  15.433   7.350
 7900POPC   NC358883   1.948  15.192   5.550
 7900POPC   PO458884   1.960  15.218   5.850
 7900POPC   GL158885   2.015  15.141   6.150
 7900POPC   GL258886   2.046  15.053   6.150
 7900POPC   C1A58887   1.944  15.212   6.450
 7900POPC   D2A58888   1.997  15.197   6.750
 7900POPC   C3A58889   1.965  15.208   7.050
 7900POPC   C4A58890   2.008  15.177   7.350
 7900POPC   C1B58891   2.143  15.013   6.450
 7900POPC   C2B58892   2.149  15.034   6.750
 7900POPC   C3B58893   2.206  14.997   7.050
 7900POPC   C4B58894   2.207  14.971   7.350
 7901POPC   NC358895  26.771  13.671   5.550
 7901POPC   PO458896  26.820  13.647   5.850
 7901POPC   GL158897  26.861  13.628   6.150
 7901POPC   GL258898  26.902  13.581   6.150
 7901POPC   C1A58899  26.809  13.615   6.450
 7901POPC   D2A58900  26.808  13.667   6.750
 7901POPC   C3A58901  26.830  13.600   7.050
 7901POPC   C4A58902  26.815  13.662   7.350
 7901POPC   C1B58903  27.048  13.540   6.450
 7901POPC   C2B58904  27.034  13.565   6.750
 7901POPC   C3B58905  27.071  13.511   7.050
 7901POPC   C4B58906  27.052  13.509   7.350
 7902POPC   NC358907   8.928   8.148   5.550
 7902POPC   PO458908   9.018   8.199   5.850
 7902POPC   GL158909   9.014   8.244   6.150
 7902POPC   GL258910   9.063   8.124   6.150
 7902POPC   C1A58911   8.945   8.187   6.450
 7902POPC   D2A58912   8.924   8.189   6.750
 7902POPC   C3A58913   8.950   8.172   7.050
 7902POPC   C4A58914   8.940   8.161   7.350
 7902POPC   C1B58915   9.239   8.145   6.450
 7902POPC   C2B58916   9.168   8.146   6.750
 7902POPC   C3B58917   9.203   8.115   7.050
 7902POPC   C4B58918   9.232   8.151   7.350
 7903POPC   NC358919  19.080   2.753   5.550
 7903POPC   PO458920  19.037   2.716   5.850
 7903POPC   GL158921  19.060   2.757   6.150
 7903POPC   GL258922  19.190   2.728   6.150
 7903POPC   C1A58923  19.090   2.795   6.450
 7903POPC   D2A58924  19.069   2.719   6.750
 7903POPC   C3A58925  19.016   2.790   7.050
 7903POPC   C4A58926  19.090   2.768   7.350
 7903POPC   C1B58927  19.349   2.802   6.450
 7903POPC   C2B58928  19.281   2.707   6.750
 7903POPC   C3B58929  19.290   2.743   7.050
 7903POPC   C4B58930  19.306   2.803   7.350
 7904POPC   NC358931  20.652   2.000   5.550
 7904POPC   PO458932  20.597   2.039   5.850
 7904POPC   GL158933  20.649   2.010   6.150
 7904POPC   GL258934  20.761   1.962   6.150
 7904POPC   C1A58935  20.643   2.032   6.450
 7904POPC   D2A58936  20.657   1.948   6.750
 7904POPC   C3A58937  20.567   2.011   7.050
 7904POPC   C4A58938  20.619   2.039   7.350
 7904POPC   C1B58939  20.828   1.914   6.450
 7904POPC   C2B58940  20.856   1.904   6.750
 7904POPC   C3B58941  20.857   1.956   7.050
 7904POPC   C4B58942  20.873   1.955   7.350
 7905POPC   NC358943  28.378  17.509   5.550
 7905POPC   PO458944  28.342  17.546   5.850
 7905POPC   GL158945  28.416  17.470   6.150
 7905POPC   GL258946  28.320  17.655   6.150
 7905POPC   C1A58947  28.407  17.530   6.450
 7905POPC   D2A58948  28.357  17.461   6.750
 7905POPC   C3A58949  28.396  17.495   7.050
 7905POPC   C4A58950  28.319  17.546   7.350
 7905POPC   C1B58951  28.262  17.786   6.450
 7905POPC   C2B58952  28.314  17.743   6.750
 7905POPC   C3B58953  28.237  17.706   7.050
 7905POPC   C4B58954  28.269  17.695   7.350
 7906POPC   NC358955  24.500  22.978   5.550
 7906POPC   PO458956  24.491  22.984   5.850
 7906POPC   GL158957  24.484  22.970   6.150
 7906POPC   GL258958  24.495  22.812   6.150
 7906POPC   C1A58959  24.536  22.972   6.450
 7906POPC   D2A58960  24.536  22.953   6.750
 7906POPC   C3A58961  24.463  22.942   7.050
 7906POPC   C4A58962  24.470  22.942   7.350
 7906POPC   C1B58963  24.494  22.717   6.450
 7906POPC   C2B58964  24.583  22.643   6.750
 7906POPC   C3B58965  24.501  22.696   7.050
 7906POPC   C4B58966  24.503  22.645   7.350
 7907POPC   NC358967  10.483  20.578   5.550
 7907POPC   PO458968  10.570  20.595   5.850
 7907POPC   GL158969  10.561  20.605   6.150
 7907POPC   GL258970  10.539  20.472   6.150
 7907POPC   C1A58971  10.515  20.611   6.450
 7907POPC   D2A58972  10.551  20.642   6.750
 7907POPC   C3A58973  10.569  20.568   7.050
 7907POPC   C4A58974  10.491  20.585   7.350
 7907POPC   C1B58975  10.641  20.431   6.450
 7907POPC   C2B58976  10.636  20.339   6.750
 7907POPC   C3B58977  10.597  20.376   7.050
 7907POPC   C4B58978  10.661  20.347   7.350
 7908POPC   NC358979   2.748   9.719   5.550
 7908POPC   PO458980   2.792   9.783   5.850
 7908POPC   GL158981   2.809   9.722   6.150
 7908POPC   GL258982   2.698   9.672   6.150
 7908POPC   C1A58983   2.729   9.701   6.450
 7908POPC   D2A58984   2.765   9.759   6.750
 7908POPC   C3A58985   2.750   9.776   7.050
 7908POPC   C4A58986   2.737   9.784   7.350
 7908POPC   C1B58987   2.525   9.625   6.450
 7908POPC   C2B58988   2.532   9.665   6.750
 7908POPC   C3B58989   2.519   9.598   7.050
 7908POPC   C4B58990   2.518   9.670   7.350
 7909POPC   NC358991  34.607   2.736   5.550
 7909POPC   PO458992  34.555   2.810   5.850
 7909POPC   GL158993  34.616   2.794   6.150
 7909POPC   GL258994  34.631   2.669   6.150
 7909POPC   C1A58995  34.592   2.793   6.450
 7909POPC   D2A58996  34.565   2.803   6.750
 7909POPC   C3A58997  34.573   2.735   7.050
 7909POPC   C4A58998  34.564   2.750   7.350
 7909POPC   C1B58999  34.768   2.591   6.450
 7909POPC   C2B59000  34.738   2.569   6.750
 7909POPC   C3B59001  34.790   2.585   7.050
 7909POPC   C4B59002  34.809   2.579   7.350
 7910POPC   NC359003   0.482  33.064   5.550
 7910POPC   PO459004   0.429  32.979   5.850
 7910POPC   GL159005   0.449  33.055   6.150
 7910POPC   GL259006   0.459  33.149   6.150
 7910POPC   C1A59007   0.429  32.995   6.450
 7910POPC   D2A59008   0.460  33.048   6.750
 7910POPC   C3A59009   0.443  33.051   7.050
 7910POPC   C4A59010   0.398  33.060   7.350
 7910POPC   C1B59011   0.609  33.214   6.450
 7910POPC   C2B59012   0.561  33.272   6.750
 7910POPC   C3B59013   0.566  33.237   7.050
 7910POPC   C4B59014   0.594  33.261   7.350
 7911POPC   NC359015  30.686   6.676   5.550
 7911POPC   PO459016  30.713   6.626   5.850
 7911POPC   GL159017  30.707   6.632   6.150
 7911POPC   GL259018  30.628   6.518   6.150
 7911POPC   C1A59019  30.741   6.689   6.450
 7911POPC   D2A59020  30.658   6.648   6.750
 7911POPC   C3A59021  30.647   6.682   7.050
 7911POPC   C4A59022  30.658   6.679   7.350
 7911POPC   C1B59023  30.537   6.523   6.450
 7911POPC   C2B59024  30.467   6.445   6.750
 7911POPC   C3B59025  30.466   6.444   7.050
 7911POPC   C4B59026  30.534   6.451   7.350
 7912POPC   NC359027  40.048  16.689   5.550
 7912POPC   PO459028  40.017  16.683   5.850
 7912POPC   GL159029  39.986  16.742   6.150
 7912POPC   GL259030  39.932  16.723   6.150
 7912POPC   C1A59031  39.999  16.778   6.450
 7912POPC   D2A59032  40.024  16.710   6.750
 7912POPC   C3A59033  39.980  16.701   7.050
 7912POPC   C4A59034  39.993  16.727   7.350
 7912POPC   C1B59035  39.762  16.791   6.450
 7912POPC   C2B59036  39.743  16.745   6.750
 7912POPC   C3B59037  39.798  16.816   7.050
 7912POPC   C4B59038  39.756  16.758   7.350
 7913POPC   NC359039  34.555  22.115   5.550
 7913POPC   PO459040  34.612  22.206   5.850
 7913POPC   GL159041  34.619  22.194   6.150
 7913POPC   GL259042  34.504  22.225   6.150
 7913POPC   C1A59043  34.564  22.189   6.450
 7913POPC   D2A59044  34.583  22.180   6.750
 7913POPC   C3A59045  34.552  22.149   7.050
 7913POPC   C4A59046  34.592  22.148   7.350
 7913POPC   C1B59047  34.483  22.413   6.450
 7913POPC   C2B59048  34.411  22.400   6.750
 7913POPC   C3B59049  34.449  22.390   7.050
 7913POPC   C4B59050  34.475  22.362   7.350
 7914POPC   NC359051  26.859  32.283   5.550
 7914POPC   PO459052  26.845  32.281   5.850
 7914POPC   GL159053  26.835  32.280   6.150
 7914POPC   GL259054  26.655  32.218   6.150
 7914POPC   C1A59055  26.784  32.229   6.450
 7914POPC   D2A59056  26.770  32.221   6.750
 7914POPC   C3A59057  26.811  32.219   7.050
 7914POPC   C4A59058  26.845  32.251   7.350
 7914POPC   C1B59059  26.558  32.189   6.450
 7914POPC   C2B59060  26.532  32.254   6.750
 7914POPC   C3B59061  26.571  32.269   7.050
 7914POPC   C4B59062  26.586  32.256   7.350
 7915POPC   NC359063  17.490  30.743   5.550
 7915POPC   PO459064  17.544  30.687   5.850
 7915POPC   GL159065  17.463  30.671   6.150
 7915POPC   GL259066  17.405  30.589   6.150
 7915POPC   C1A59067  17.476  30.673   6.450
 7915POPC   D2A59068  17.551  30.689   6.750
 7915POPC   C3A59069  17.546  30.671   7.050
 7915POPC   C4A59070  17.546  30.691   7.350
 7915POPC   C1B59071  17.363  30.461   6.450
 7915POPC   C2B59072  17.401  30.483   6.750
 7915POPC   C3B59073  17.332  30.484   7.050
 7915POPC   C4B59074  17.370  30.515   7.350
 7916POPC   NC359075  32.253   2.020   5.550
 7916POPC   PO459076  32.239   2.018   5.850
 7916POPC   GL159077  32.223   2.018   6.150
 7916POPC   GL259078  32.219   2.138   6.150
 7916POPC   C1A59079  32.298   2.025   6.450
 7916POPC   D2A59080  32.278   1.979   6.750
 7916POPC   C3A59081  32.228   1.941   7.050
 7916POPC   C4A59082  32.294   2.026   7.350
 7916POPC   C1B59083  32.188   2.252   6.450
 7916POPC   C2B59084  32.184   2.233   6.750
 7916POPC   C3B59085  32.096   2.236   7.050
 7916POPC   C4B59086  32.145   2.226   7.350
 7917POPC   NC359087  17.497  12.873   5.550
 7917POPC   PO459088  17.494  12.823   5.850
 7917POPC   GL159089  17.542  12.811   6.150
 7917POPC   GL259090  17.386  12.713   6.150
 7917POPC   C1A59091  17.515  12.892   6.450
 7917POPC   D2A59092  17.496  12.816   6.750
 7917POPC   C3A59093  17.505  12.826   7.050
 7917POPC   C4A59094  17.520  12.862   7.350
 7917POPC   C1B59095  17.386  12.693   6.450
 7917POPC   C2B59096  17.323  12.607   6.750
 7917POPC   C3B59097  17.348  12.675   7.050
 7917POPC   C4B59098  17.393  12.651   7.350
 7918POPC   NC359099  15.196  17.479   5.550
 7918POPC   PO459100  15.136  17.519   5.850
 7918POPC   GL159101  15.213  17.486   6.150
 7918POPC   GL259102  15.309  17.435   6.150
 7918POPC   C1A59103  15.222  17.473   6.450
 7918POPC   D2A59104  15.220  17.494   6.750
 7918POPC   C3A59105  15.160  17.460   7.050
 7918POPC   C4A59106  15.189  17.553   7.350
 7918POPC   C1B59107  15.463  17.432   6.450
 7918POPC   C2B59108  15.417  17.405   6.750
 7918POPC   C3B59109  15.391  17.443   7.050
 7918POPC   C4B59110  15.419  17.387   7.350
 7919POPC   NC359111   5.132   2.767   5.550
 7919POPC   PO459112   5.067   2.746   5.850
 7919POPC   GL159113   5.067   2.757   6.150
 7919POPC   GL259114   5.201   2.842   6.150
 7919POPC   C1A59115   5.073   2.798   6.450
 7919POPC   D2A59116   5.119   2.764   6.750
 7919POPC   C3A59117   5.132   2.799   7.050
 7919POPC   C4A59118   5.045   2.802   7.350
 7919POPC   C1B59119   5.308   2.927   6.450
 7919POPC   C2B59120   5.244   2.928   6.750
 7919POPC   C3B59121   5.271   2.936   7.050
 7919POPC   C4B59122   5.317   2.952   7.350
 7920POPC   NC359123  35.376  15.913   5.550
 7920POPC   PO459124  35.345  16.003   5.850
 7920POPC   GL159125  35.315  15.973   6.150
 7920POPC   GL259126  35.263  16.047   6.150
 7920POPC   C1A59127  35.341  16.005   6.450
 7920POPC   D2A59128  35.340  15.970   6.750
 7920POPC   C3A59129  35.372  15.906   7.050
 7920POPC   C4A59130  35.338  15.910   7.350
 7920POPC   C1B59131  35.144  16.140   6.450
 7920POPC   C2B59132  35.129  16.083   6.750
 7920POPC   C3B59133  35.206  16.081   7.050
 7920POPC   C4B59134  35.148  16.103   7.350
 7921POPC   NC359135  21.344  12.101   5.550
 7921POPC   PO459136  21.357  12.087   5.850
 7921POPC   GL159137  21.358  12.080   6.150
 7921POPC   GL259138  21.290  12.023   6.150
 7921POPC   C1A59139  21.361  12.032   6.450
 7921POPC   D2A59140  21.373  12.087   6.750
 7921POPC   C3A59141  21.370  12.089   7.050
 7921POPC   C4A59142  21.400  12.030   7.350
 7921POPC   C1B59143  21.244  11.872   6.450
 7921POPC   C2B59144  21.225  11.879   6.750
 7921POPC   C3B59145  21.188  11.888   7.050
 7921POPC   C4B59146  21.269  11.852   7.350
 7922POPC   NC359147  42.365   5.884   5.550
 7922POPC   PO459148  42.315   5.821   5.850
 7922POPC   GL159149  42.360   5.890   6.150
 7922POPC   GL259150  42.206   5.845   6.150
 7922POPC   C1A59151  42.366   5.843   6.450
 7922POPC   D2A59152  42.288   5.902   6.750
 7922POPC   C3A59153  42.353   5.836   7.050
 7922POPC   C4A59154  42.328   5.847   7.350
 7922POPC   C1B59155  42.134   5.805   6.450
 7922POPC   C2B59156  42.060   5.816   6.750
 7922POPC   C3B59157  42.131   5.822   7.050
 7922POPC   C4B59158  42.139   5.795   7.350
 7923POPC   NC359159  26.041  36.094   5.550
 7923POPC   PO459160  26.017  36.158   5.850
 7923POPC   GL159161  26.001  36.110   6.150
 7923POPC   GL259162  26.110  36.239   6.150
 7923POPC   C1A59163  26.058  36.126   6.450
 7923POPC   D2A59164  26.000  36.123   6.750
 7923POPC   C3A59165  26.079  36.132   7.050
 7923POPC   C4A59166  25.995  36.101   7.350
 7923POPC   C1B59167  26.251  36.276   6.450
 7923POPC   C2B59168  26.252  36.346   6.750
 7923POPC   C3B59169  26.235  36.292   7.050
 7923POPC   C4B59170  26.188  36.334   7.350
 7924POPC   NC359171  18.330   3.526   5.550
 7924POPC   PO459172  18.311   3.492   5.850
 7924POPC   GL159173  18.303   3.549   6.150
 7924POPC   GL259174  18.404   3.639   6.150
 7924POPC   C1A59175  18.314   3.539   6.450
 7924POPC   D2A59176  18.286   3.523   6.750
 7924POPC   C3A59177  18.307   3.540   7.050
 7924POPC   C4A59178  18.308   3.564   7.350
 7924POPC   C1B59179  18.460   3.756   6.450
 7924POPC   C2B59180  18.466   3.693   6.750
 7924POPC   C3B59181  18.440   3.693   7.050
 7924POPC   C4B59182  18.461   3.767   7.350
 7925POPC   NC359183  42.313  26.802   5.550
 7925POPC   PO459184  42.304  26.854   5.850
 7925POPC   GL159185  42.324  26.836   6.150
 7925POPC   GL259186  42.288  26.710   6.150
 7925POPC   C1A59187  42.363  26.844   6.450
 7925POPC   D2A59188  42.296  26.795   6.750
 7925POPC   C3A59189  42.379  26.845   7.050
 7925POPC   C4A59190  42.381  26.864   7.350
 7925POPC   C1B59191  42.282  26.551   6.450
 7925POPC   C2B59192  42.374  26.533   6.750
 7925POPC   C3B59193  42.370  26.518   7.050
 7925POPC   C4B59194  42.292  26.523   7.350
 7926POPC   NC359195  43.070  43.911   5.550
 7926POPC   PO459196  43.159  43.841   5.850
 7926POPC   GL159197  43.085  43.866   6.150
 7926POPC   GL259198  43.144  44.017   6.150
 7926POPC   C1A59199  43.080  43.896   6.450
 7926POPC   D2A59200  43.115  43.839   6.750
 7926POPC   C3A59201  43.095  43.868   7.050
 7926POPC   C4A59202  43.088  43.841   7.350
 7926POPC   C1B59203  43.267  44.128   6.450
 7926POPC   C2B59204  43.231  44.082   6.750
 7926POPC   C3B59205  43.263  44.130   7.050
 7926POPC   C4B59206  43.258  44.143   7.350
 7927POPC   NC359207  15.955  30.694   5.550
 7927POPC   PO459208  15.984  30.738   5.850
 7927POPC   GL159209  15.932  30.648   6.150
 7927POPC   GL259210  15.870  30.837   6.150
 7927POPC   C1A59211  15.996  30.702   6.450
 7927POPC   D2A59212  15.908  30.738   6.750
 7927POPC   C3A59213  15.927  30.678   7.050
 7927POPC   C4A59214  15.943  30.647   7.350
 7927POPC   C1B59215  15.839  30.953   6.450
 7927POPC   C2B59216  15.831  30.910   6.750
 7927POPC   C3B59217  15.840  30.939   7.050
 7927POPC   C4B59218  15.802  30.951   7.350
 7928POPC   NC359219  40.832  23.748   5.550
 7928POPC   PO459220  40.786  23.713   5.850
 7928POPC   GL159221  40.742  23.695   6.150
 7928POPC   GL259222  40.728  23.546   6.150
 7928POPC   C1A59223  40.772  23.763   6.450
 7928POPC   D2A59224  40.773  23.760   6.750
 7928POPC   C3A59225  40.803  23.695   7.050
 7928POPC   C4A59226  40.830  23.725   7.350
 7928POPC   C1B59227  40.754  23.473   6.450
 7928POPC   C2B59228  40.741  23.430   6.750
 7928POPC   C3B59229  40.713  23.468   7.050
 7928POPC   C4B59230  40.726  23.468   7.350
 7929POPC   NC359231  10.504  34.594   5.550
 7929POPC   PO459232  10.555  34.598   5.850
 7929POPC   GL159233  10.514  34.538   6.150
 7929POPC   GL259234  10.631  34.636   6.150
 7929POPC   C1A59235  10.564  34.590   6.450
 7929POPC   D2A59236  10.478  34.583   6.750
 7929POPC   C3A59237  10.531  34.538   7.050
 7929POPC   C4A59238  10.477  34.577   7.350
 7929POPC   C1B59239  10.670  34.739   6.450
 7929POPC   C2B59240  10.673  34.802   6.750
 7929POPC   C3B59241  10.648  34.751   7.050
 7929POPC   C4B59242  10.653  34.796   7.350
 7930POPC   NC359243  43.840   3.520   5.550
 7930POPC   PO459244  43.853   3.543   5.850
 7930POPC   GL159245  43.851   3.561   6.150
 7930POPC   GL259246  43.894   3.634   6.150
 7930POPC   C1A59247  43.913   3.558   6.450
 7930POPC   D2A59248  43.859   3.528   6.750
 7930POPC   C3A59249  43.902   3.521   7.050
 7930POPC   C4A59250  43.917   3.569   7.350
 7930POPC   C1B59251  43.851   3.792   6.450
 7930POPC   C2B59252  43.784   3.825   6.750
 7930POPC   C3B59253  43.817   3.798   7.050
 7930POPC   C4B59254  43.872   3.752   7.350
 7931POPC   NC359255  10.485  16.737   5.550
 7931POPC   PO459256  10.520  16.758   5.850
 7931POPC   GL159257  10.536  16.724   6.150
 7931POPC   GL259258  10.571  16.615   6.150
 7931POPC   C1A59259  10.551  16.770   6.450
 7931POPC   D2A59260  10.503  16.692   6.750
 7931POPC   C3A59261  10.559  16.718   7.050
 7931POPC   C4A59262  10.483  16.691   7.350
 7931POPC   C1B59263  10.663  16.517   6.450
 7931POPC   C2B59264  10.638  16.468   6.750
 7931POPC   C3B59265  10.652  16.550   7.050
 7931POPC   C4B59266  10.646  16.480   7.350
 7932POPC   NC359267  13.621   7.399   5.550
 7932POPC   PO459268  13.655   7.380   5.850
 7932POPC   GL159269  13.651   7.395   6.150
 7932POPC   GL259270  13.480   7.438   6.150
 7932POPC   C1A59271  13.614   7.380   6.450
 7932POPC   D2A59272  13.653   7.461   6.750
 7932POPC   C3A59273  13.631   7.393   7.050
 7932POPC   C4A59274  13.636   7.391   7.350
 7932POPC   C1B59275  13.443   7.575   6.450
 7932POPC   C2B59276  13.397   7.523   6.750
 7932POPC   C3B59277  13.413   7.564   7.050
 7932POPC   C4B59278  13.379   7.537   7.350
 7933POPC   NC359279  32.259  14.375   5.550
 7933POPC   PO459280  32.240  14.410   5.850
 7933POPC   GL159281  32.285  14.354   6.150
 7933POPC   GL259282  32.217  14.565   6.150
 7933POPC   C1A59283  32.297  14.383   6.450
 7933POPC   D2A59284  32.290  14.360   6.750
 7933POPC   C3A59285  32.263  14.426   7.050
 7933POPC   C4A59286  32.281  14.441   7.350
 7933POPC   C1B59287  32.243  14.632   6.450
 7933POPC   C2B59288  32.243  14.647   6.750
 7933POPC   C3B59289  32.237  14.655   7.050
 7933POPC   C4B59290  32.291  14.695   7.350
 7934POPC   NC359291  25.308  35.334   5.550
 7934POPC   PO459292  25.305  35.335   5.850
 7934POPC   GL159293  25.273  35.308   6.150
 7934POPC   GL259294  25.370  35.416   6.150
 7934POPC   C1A59295  25.257  35.326   6.450
 7934POPC   D2A59296  25.217  35.356   6.750
 7934POPC   C3A59297  25.288  35.361   7.050
 7934POPC   C4A59298  25.259  35.343   7.350
 7934POPC   C1B59299  25.527  35.449   6.450
 7934POPC   C2B59300  25.530  35.508   6.750
 7934POPC   C3B59301  25.469  35.466   7.050
 7934POPC   C4B59302  25.482  35.478   7.350
 7935POPC   NC359303  26.799  20.651   5.550
 7935POPC   PO459304  26.831  20.629   5.850
 7935POPC   GL159305  26.822  20.656   6.150
 7935POPC   GL259306  26.754  20.510   6.150
 7935POPC   C1A59307  26.820  20.612   6.450
 7935POPC   D2A59308  26.859  20.589   6.750
 7935POPC   C3A59309  26.783  20.590   7.050
 7935POPC   C4A59310  26.812  20.618   7.350
 7935POPC   C1B59311  26.735  20.365   6.450
 7935POPC   C2B59312  26.732  20.353   6.750
 7935POPC   C3B59313  26.740  20.372   7.050
 7935POPC   C4B59314  26.702  20.363   7.350
 7936POPC   NC359315  25.315  43.851   5.550
 7936POPC   PO459316  25.291  43.885   5.850
 7936POPC   GL159317  25.297  43.869   6.150
 7936POPC   GL259318  25.161  43.892   6.150
 7936POPC   C1A59319  25.302  43.872   6.450
 7936POPC   D2A59320  25.295  43.932   6.750
 7936POPC   C3A59321  25.293  43.887   7.050
 7936POPC   C4A59322  25.260  43.920   7.350
 7936POPC   C1B59323  25.051  43.981   6.450
 7936POPC   C2B59324  25.017  43.966   6.750
 7936POPC   C3B59325  24.984  43.912   7.050
 7936POPC   C4B59326  25.010  43.956   7.350
 7937POPC   NC359327  43.114  36.871   5.550
 7937POPC   PO459328  43.074  36.867   5.850
 7937POPC   GL159329  43.064  36.915   6.150
 7937POPC   GL259330  43.241  36.877   6.150
 7937POPC   C1A59331  43.078  36.855   6.450
 7937POPC   D2A59332  43.098  36.901   6.750
 7937POPC   C3A59333  43.089  36.943   7.050
 7937POPC   C4A59334  43.098  36.930   7.350
 7937POPC   C1B59335  43.365  36.849   6.450
 7937POPC   C2B59336  43.335  36.765   6.750
 7937POPC   C3B59337  43.357  36.811   7.050
 7937POPC   C4B59338  43.379  36.802   7.350
 7938POPC   NC359339  16.705  42.380   5.550
 7938POPC   PO459340  16.686  42.345   5.850
 7938POPC   GL159341  16.777  42.343   6.150
 7938POPC   GL259342  16.702  42.479   6.150
 7938POPC   C1A59343  16.700  42.334   6.450
 7938POPC   D2A59344  16.770  42.357   6.750
 7938POPC   C3A59345  16.682  42.336   7.050
 7938POPC   C4A59346  16.711  42.329   7.350
 7938POPC   C1B59347  16.710  42.555   6.450
 7938POPC   C2B59348  16.728  42.579   6.750
 7938POPC   C3B59349  16.723  42.553   7.050
 7938POPC   C4B59350  16.744  42.535   7.350
 7939POPC   NC359351  38.445   2.758   5.550
 7939POPC   PO459352  38.502   2.799   5.850
 7939POPC   GL159353  38.438   2.743   6.150
 7939POPC   GL259354  38.430   2.616   6.150
 7939POPC   C1A59355  38.438   2.762   6.450
 7939POPC   D2A59356  38.442   2.791   6.750
 7939POPC   C3A59357  38.433   2.742   7.050
 7939POPC   C4A59358  38.436   2.737   7.350
 7939POPC   C1B59359  38.467   2.562   6.450
 7939POPC   C2B59360  38.514   2.514   6.750
 7939POPC   C3B59361  38.477   2.535   7.050
 7939POPC   C4B59362  38.486   2.503   7.350
 7940POPC   NC359363  40.024  24.474   5.550
 7940POPC   PO459364  39.981  24.444   5.850
 7940POPC   GL159365  40.013  24.506   6.150
 7940POPC   GL259366  39.850  24.496   6.150
 7940POPC   C1A59367  39.994  24.451   6.450
 7940POPC   D2A59368  40.028  24.534   6.750
 7940POPC   C3A59369  39.979  24.498   7.050
 7940POPC   C4A59370  39.985  24.512   7.350
 7940POPC   C1B59371  39.780  24.613   6.450
 7940POPC   C2B59372  39.759  24.562   6.750
 7940POPC   C3B59373  39.809  24.535   7.050
 7940POPC   C4B59374  39.809  24.543   7.350
 7941POPC   NC359375  20.632  33.782   5.550
 7941POPC   PO459376  20.615  33.819   5.850
 7941POPC   GL159377  20.660  33.832   6.150
 7941POPC   GL259378  20.527  33.839   6.150
 7941POPC   C1A59379  20.575  33.768   6.450
 7941POPC   D2A59380  20.618  33.784   6.750
 7941POPC   C3A59381  20.565  33.777   7.050
 7941POPC   C4A59382  20.621  33.832   7.350
 7941POPC   C1B59383  20.437  33.995   6.450
 7941POPC   C2B59384  20.477  33.986   6.750
 7941POPC   C3B59385  20.466  33.968   7.050
 7941POPC   C4B59386  20.433  33.948   7.350
 7942POPC   NC359387  28.324  25.309   5.550
 7942POPC   PO459388  28.324  25.280   5.850
 7942POPC   GL159389  28.386  25.218   6.150
 7942POPC   GL259390  28.223  25.260   6.150
 7942POPC   C1A59391  28.342  25.277   6.450
 7942POPC   D2A59392  28.356  25.232   6.750
 7942POPC   C3A59393  28.352  25.280   7.050
 7942POPC   C4A59394  28.406  25.256   7.350
 7942POPC   C1B59395  28.155  25.198   6.450
 7942POPC   C2B59396  28.126  25.182   6.750
 7942POPC   C3B59397  28.178  25.153   7.050
 7942POPC   C4B59398  28.085  25.140   7.350
 7943POPC   NC359399   2.771  14.402   5.550
 7943POPC   PO459400   2.739  14.423   5.850
 7943POPC   GL159401   2.808  14.433   6.150
 7943POPC   GL259402   2.894  14.428   6.150
 7943POPC   C1A59403   2.723  14.437   6.450
 7943POPC   D2A59404   2.796  14.398   6.750
 7943POPC   C3A59405   2.781  14.435   7.050
 7943POPC   C4A59406   2.752  14.451   7.350
 7943POPC   C1B59407   3.041  14.487   6.450
 7943POPC   C2B59408   3.012  14.499   6.750
 7943POPC   C3B59409   2.994  14.412   7.050
 7943POPC   C4B59410   3.016  14.500   7.350
 7944POPC   NC359411   3.543  30.737   5.550
 7944POPC   PO459412   3.549  30.715   5.850
 7944POPC   GL159413   3.575  30.723   6.150
 7944POPC   GL259414   3.424  30.600   6.150
 7944POPC   C1A59415   3.559  30.716   6.450
 7944POPC   D2A59416   3.570  30.745   6.750
 7944POPC   C3A59417   3.583  30.740   7.050
 7944POPC   C4A59418   3.499  30.694   7.350
 7944POPC   C1B59419   3.338  30.550   6.450
 7944POPC   C2B59420   3.354  30.508   6.750
 7944POPC   C3B59421   3.325  30.571   7.050
 7944POPC   C4B59422   3.299  30.556   7.350
 7945POPC   NC359423  12.849  18.287   5.550
 7945POPC   PO459424  12.807  18.323   5.850
 7945POPC   GL159425  12.899  18.278   6.150
 7945POPC   GL259426  12.740  18.239   6.150
 7945POPC   C1A59427  12.823  18.243   6.450
 7945POPC   D2A59428  12.869  18.290   6.750
 7945POPC   C3A59429  12.872  18.262   7.050
 7945POPC   C4A59430  12.834  18.317   7.350
 7945POPC   C1B59431  12.714  18.138   6.450
 7945POPC   C2B59432  12.639  18.156   6.750
 7945POPC   C3B59433  12.668  18.154   7.050
 7945POPC   C4B59434  12.633  18.128   7.350
 7946POPC   NC359435  30.737  35.341   5.550
 7946POPC   PO459436  30.681  35.320   5.850
 7946POPC   GL159437  30.711  35.335   6.150
 7946POPC   GL259438  30.716  35.207   6.150
 7946POPC   C1A59439  30.689  35.339   6.450
 7946POPC   D2A59440  30.702  35.304   6.750
 7946POPC   C3A59441  30.701  35.383   7.050
 7946POPC   C4A59442  30.681  35.365   7.350
 7946POPC   C1B59443  30.798  35.108   6.450
 7946POPC   C2B59444  30.783  35.123   6.750
 7946POPC   C3B59445  30.819  35.135   7.050
 7946POPC   C4B59446  30.787  35.122   7.350
 7947POPC   NC359447   5.131  42.351   5.550
 7947POPC   PO459448   5.127  42.309   5.850
 7947POPC   GL159449   5.108  42.346   6.150
 7947POPC   GL259450   5.199  42.198   6.150
 7947POPC   C1A59451   5.100  42.369   6.450
 7947POPC   D2A59452   5.106  42.374   6.750
 7947POPC   C3A59453   5.119  42.347   7.050
 7947POPC   C4A59454   5.071  42.361   7.350
 7947POPC   C1B59455   5.293  42.122   6.450
 7947POPC   C2B59456   5.276  42.175   6.750
 7947POPC   C3B59457   5.236  42.123   7.050
 7947POPC   C4B59458   5.299  42.146   7.350
 7948POPC   NC359459  31.514  12.096   5.550
 7948POPC   PO459460  31.515  12.096   5.850
 7948POPC   GL159461  31.462  12.089   6.150
 7948POPC   GL259462  31.363  12.109   6.150
 7948POPC   C1A59463  31.501  12.068   6.450
 7948POPC   D2A59464  31.520  12.074   6.750
 7948POPC   C3A59465  31.506  12.101   7.050
 7948POPC   C4A59466  31.436  12.026   7.350
 7948POPC   C1B59467  31.298  12.164   6.450
 7948POPC   C2B59468  31.291  12.199   6.750
 7948POPC   C3B59469  31.238  12.255   7.050
 7948POPC   C4B59470  31.283  12.247   7.350
 7949POPC   NC359471  11.260   6.635   5.550
 7949POPC   PO459472  11.258   6.679   5.850
 7949POPC   GL159473  11.313   6.677   6.150
 7949POPC   GL259474  11.358   6.627   6.150
 7949POPC   C1A59475  11.347   6.693   6.450
 7949POPC   D2A59476  11.331   6.640   6.750
 7949POPC   C3A59477  11.262   6.658   7.050
 7949POPC   C4A59478  11.293   6.611   7.350
 7949POPC   C1B59479  11.473   6.565   6.450
 7949POPC   C2B59480  11.496   6.522   6.750
 7949POPC   C3B59481  11.509   6.507   7.050
 7949POPC   C4B59482  11.490   6.535   7.350
 7950POPC   NC359483  35.332  22.984   5.550
 7950POPC   PO459484  35.306  22.897   5.850
 7950POPC   GL159485  35.390  22.920   6.150
 7950POPC   GL259486  35.238  22.899   6.150
 7950POPC   C1A59487  35.341  22.952   6.450
 7950POPC   D2A59488  35.367  22.965   6.750
 7950POPC   C3A59489  35.363  22.983   7.050
 7950POPC   C4A59490  35.335  22.975   7.350
 7950POPC   C1B59491  35.185  22.812   6.450
 7950POPC   C2B59492  35.159  22.731   6.750
 7950POPC   C3B59493  35.201  22.761   7.050
 7950POPC   C4B59494  35.190  22.722   7.350
 7951POPC   NC359495   3.554  35.388   5.550
 7951POPC   PO459496   3.507  35.312   5.850
 7951POPC   GL159497   3.555  35.338   6.150
 7951POPC   GL259498   3.458  35.419   6.150
 7951POPC   C1A59499   3.575  35.402   6.450
 7951POPC   D2A59500   3.586  35.303   6.750
 7951POPC   C3A59501   3.570  35.380   7.050
 7951POPC   C4A59502   3.580  35.339   7.350
 7951POPC   C1B59503   3.303  35.514   6.450
 7951POPC   C2B59504   3.319  35.490   6.750
 7951POPC   C3B59505   3.364  35.477   7.050
 7951POPC   C4B59506   3.330  35.507   7.350
 7952POPC   NC359507   0.471  27.629   5.550
 7952POPC   PO459508   0.452  27.601   5.850
 7952POPC   GL159509   0.484  27.623   6.150
 7952POPC   GL259510   0.327  27.605   6.150
 7952POPC   C1A59511   0.476  27.594   6.450
 7952POPC   D2A59512   0.477  27.633   6.750
 7952POPC   C3A59513   0.458  27.625   7.050
 7952POPC   C4A59514   0.468  27.562   7.350
 7952POPC   C1B59515   0.241  27.700   6.450
 7952POPC   C2B59516   0.163  27.677   6.750
 7952POPC   C3B59517   0.164  27.683   7.050
 7952POPC   C4B59518   0.209  27.669   7.350
 7953POPC   NC359519  17.512   3.590   5.550
 7953POPC   PO459520  17.477   3.523   5.850
 7953POPC   GL159521  17.487   3.528   6.150
 7953POPC   GL259522  17.596   3.620   6.150
 7953POPC   C1A59523  17.461   3.542   6.450
 7953POPC   D2A59524  17.464   3.544   6.750
 7953POPC   C3A59525  17.514   3.576   7.050
 7953POPC   C4A59526  17.547   3.586   7.350
 7953POPC   C1B59527  17.755   3.582   6.450
 7953POPC   C2B59528  17.744   3.650   6.750
 7953POPC   C3B59529  17.777   3.609   7.050
 7953POPC   C4B59530  17.747   3.611   7.350
 7954POPC   NC359531   7.417  12.815   5.550
 7954POPC   PO459532   7.410  12.886   5.850
 7954POPC   GL159533   7.412  12.816   6.150
 7954POPC   GL259534   7.280  12.738   6.150
 7954POPC   C1A59535   7.449  12.819   6.450
 7954POPC   D2A59536   7.414  12.852   6.750
 7954POPC   C3A59537   7.402  12.816   7.050
 7954POPC   C4A59538   7.425  12.897   7.350
 7954POPC   C1B59539   7.270  12.686   6.450
 7954POPC   C2B59540   7.228  12.661   6.750
 7954POPC   C3B59541   7.262  12.708   7.050
 7954POPC   C4B59542   7.274  12.657   7.350
 7955POPC   NC359543  21.361  40.811   5.550
 7955POPC   PO459544  21.362  40.756   5.850
 7955POPC   GL159545  21.385  40.824   6.150
 7955POPC   GL259546  21.425  40.917   6.150
 7955POPC   C1A59547  21.383  40.768   6.450
 7955POPC   D2A59548  21.377  40.797   6.750
 7955POPC   C3A59549  21.375  40.809   7.050
 7955POPC   C4A59550  21.373  40.797   7.350
 7955POPC   C1B59551  21.432  41.013   6.450
 7955POPC   C2B59552  21.401  41.050   6.750
 7955POPC   C3B59553  21.445  40.995   7.050
 7955POPC   C4B59554  21.398  41.029   7.350
 7956POPC   NC359555  16.757  29.131   5.550
 7956POPC   PO459556  16.720  29.159   5.850
 7956POPC   GL159557  16.707  29.122   6.150
 7956POPC   GL259558  16.624  29.173   6.150
 7956POPC   C1A59559  16.776  29.130   6.450
 7956POPC   D2A59560  16.733  29.181   6.750
 7956POPC   C3A59561  16.697  29.147   7.050
 7956POPC   C4A59562  16.730  29.162   7.350
 7956POPC   C1B59563  16.496  29.225   6.450
 7956POPC   C2B59564  16.499  29.180   6.750
 7956POPC   C3B59565  16.498  29.181   7.050
 7956POPC   C4B59566  16.522  29.158   7.350
 7957POPC   NC359567  42.380  36.095   5.550
 7957POPC   PO459568  42.318  36.101   5.850
 7957POPC   GL159569  42.343  36.142   6.150
 7957POPC   GL259570  42.342  36.283   6.150
 7957POPC   C1A59571  42.354  36.120   6.450
 7957POPC   D2A59572  42.340  36.163   6.750
 7957POPC   C3A59573  42.355  36.168   7.050
 7957POPC   C4A59574  42.360  36.174   7.350
 7957POPC   C1B59575  42.246  36.375   6.450
 7957POPC   C2B59576  42.273  36.347   6.750
 7957POPC   C3B59577  42.233  36.342   7.050
 7957POPC   C4B59578  42.239  36.316   7.350
 7958POPC   NC359579  38.451  16.711   5.550
 7958POPC   PO459580  38.419  16.743   5.850
 7958POPC   GL159581  38.454  16.735   6.150
 7958POPC   GL259582  38.452  16.870   6.150
 7958POPC   C1A59583  38.469  16.708   6.450
 7958POPC   D2A59584  38.424  16.778   6.750
 7958POPC   C3A59585  38.493  16.703   7.050
 7958POPC   C4A59586  38.429  16.687   7.350
 7958POPC   C1B59587  38.553  16.983   6.450
 7958POPC   C2B59588  38.530  16.922   6.750
 7958POPC   C3B59589  38.509  16.939   7.050
 7958POPC   C4B59590  38.478  16.987   7.350
 7959POPC   NC359591   5.917   5.131   5.550
 7959POPC   PO459592   5.846   5.116   5.850
 7959POPC   GL159593   5.887   5.061   6.150
 7959POPC   GL259594   5.965   5.013   6.150
 7959POPC   C1A59595   5.820   5.117   6.450
 7959POPC   D2A59596   5.903   5.137   6.750
 7959POPC   C3A59597   5.871   5.047   7.050
 7959POPC   C4A59598   5.843   5.111   7.350
 7959POPC   C1B59599   6.010   4.886   6.450
 7959POPC   C2B59600   6.066   4.883   6.750
 7959POPC   C3B59601   6.046   4.902   7.050
 7959POPC   C4B59602   6.045   4.937   7.350
 7960POPC   NC359603  36.132   0.437   5.550
 7960POPC   PO459604  36.132   0.424   5.850
 7960POPC   GL159605  36.171   0.473   6.150
 7960POPC   GL259606  36.089   0.607   6.150
 7960POPC   C1A59607  36.148   0.444   6.450
 7960POPC   D2A59608  36.105   0.464   6.750
 7960POPC   C3A59609  36.097   0.472   7.050
 7960POPC   C4A59610  36.085   0.438   7.350
 7960POPC   C1B59611  36.106   0.650   6.450
 7960POPC   C2B59612  36.046   0.705   6.750
 7960POPC   C3B59613  36.114   0.714   7.050
 7960POPC   C4B59614  36.049   0.712   7.350
 7961POPC   NC359615  22.908   3.575   5.550
 7961POPC   PO459616  22.893   3.518   5.850
 7961POPC   GL159617  22.945   3.513   6.150
 7961POPC   GL259618  23.052   3.638   6.150
 7961POPC   C1A59619  22.964   3.570   6.450
 7961POPC   D2A59620  22.975   3.526   6.750
 7961POPC   C3A59621  22.927   3.582   7.050
 7961POPC   C4A59622  22.950   3.508   7.350
 7961POPC   C1B59623  23.131   3.782   6.450
 7961POPC   C2B59624  23.099   3.724   6.750
 7961POPC   C3B59625  23.113   3.791   7.050
 7961POPC   C4B59626  23.035   3.734   7.350
 7962POPC   NC359627   7.420   1.971   5.550
 7962POPC   PO459628   7.458   1.963   5.850
 7962POPC   GL159629   7.443   1.972   6.150
 7962POPC   GL259630   7.359   1.931   6.150
 7962POPC   C1A59631   7.455   1.970   6.450
 7962POPC   D2A59632   7.431   2.005   6.750
 7962POPC   C3A59633   7.375   1.979   7.050
 7962POPC   C4A59634   7.454   1.950   7.350
 7962POPC   C1B59635   7.212   1.854   6.450
 7962POPC   C2B59636   7.161   1.874   6.750
 7962POPC   C3B59637   7.194   1.858   7.050
 7962POPC   C4B59638   7.165   1.809   7.350
 7963POPC   NC359639  32.980  25.239   5.550
 7963POPC   PO459640  33.063  25.269   5.850
 7963POPC   GL159641  33.023  25.257   6.150
 7963POPC   GL259642  32.960  25.172   6.150
 7963POPC   C1A59643  32.982  25.313   6.450
 7963POPC   D2A59644  32.998  25.255   6.750
 7963POPC   C3A59645  33.016  25.254   7.050
 7963POPC   C4A59646  33.067  25.296   7.350
 7963POPC   C1B59647  32.927  25.010   6.450
 7963POPC   C2B59648  32.849  25.071   6.750
 7963POPC   C3B59649  32.886  25.010   7.050
 7963POPC   C4B59650  32.844  25.053   7.350
 7964POPC   NC359651  30.716  15.183   5.550
 7964POPC   PO459652  30.663  15.161   5.850
 7964POPC   GL159653  30.744  15.185   6.150
 7964POPC   GL259654  30.643  15.273   6.150
 7964POPC   C1A59655  30.667  15.184   6.450
 7964POPC   D2A59656  30.704  15.144   6.750
 7964POPC   C3A59657  30.658  15.185   7.050
 7964POPC   C4A59658  30.728  15.173   7.350
 7964POPC   C1B59659  30.503  15.337   6.450
 7964POPC   C2B59660  30.493  15.325   6.750
 7964POPC   C3B59661  30.550  15.310   7.050
 7964POPC   C4B59662  30.554  15.347   7.350
 7965POPC   NC359663  19.087  33.010   5.550
 7965POPC   PO459664  19.052  33.056   5.850
 7965POPC   GL159665  19.034  32.996   6.150
 7965POPC   GL259666  18.925  33.129   6.150
 7965POPC   C1A59667  19.062  33.059   6.450
 7965POPC   D2A59668  19.044  33.036   6.750
 7965POPC   C3A59669  19.032  33.004   7.050
 7965POPC   C4A59670  19.076  33.050   7.350
 7965POPC   C1B59671  18.841  33.120   6.450
 7965POPC   C2B59672  18.883  33.166   6.750
 7965POPC   C3B59673  18.863  33.098   7.050
 7965POPC   C4B59674  18.858  33.125   7.350
 7966POPC   NC359675   1.946  41.533   5.550
 7966POPC   PO459676   2.032  41.608   5.850
 7966POPC   GL159677   2.017  41.603   6.150
 7966POPC   GL259678   2.016  41.684   6.150
 7966POPC   C1A59679   1.943  41.533   6.450
 7966POPC   D2A59680   2.034  41.593   6.750
 7966POPC   C3A59681   2.034  41.600   7.050
 7966POPC   C4A59682   1.986  41.529   7.350
 7966POPC   C1B59683   2.014  41.850   6.450
 7966POPC   C2B59684   2.034  41.764   6.750
 7966POPC   C3B59685   2.010  41.846   7.050
 7966POPC   C4B59686   2.040  41.789   7.350
 7967POPC   NC359687  42.348  38.495   5.550
 7967POPC   PO459688  42.383  38.498   5.850
 7967POPC   GL159689  42.320  38.408   6.150
 7967POPC   GL259690  42.418  38.605   6.150
 7967POPC   C1A59691  42.355  38.424   6.450
 7967POPC   D2A59692  42.317  38.458   6.750
 7967POPC   C3A59693  42.296  38.459   7.050
 7967POPC   C4A59694  42.291  38.435   7.350
 7967POPC   C1B59695  42.458  38.656   6.450
 7967POPC   C2B59696  42.434  38.664   6.750
 7967POPC   C3B59697  42.459  38.723   7.050
 7967POPC   C4B59698  42.457  38.652   7.350
 7968POPC   NC359699   9.746  21.426   5.550
 7968POPC   PO459700   9.701  21.375   5.850
 7968POPC   GL159701   9.710  21.374   6.150
 7968POPC   GL259702   9.682  21.270   6.150
 7968POPC   C1A59703   9.701  21.384   6.450
 7968POPC   D2A59704   9.702  21.355   6.750
 7968POPC   C3A59705   9.745  21.425   7.050
 7968POPC   C4A59706   9.747  21.376   7.350
 7968POPC   C1B59707   9.586  21.228   6.450
 7968POPC   C2B59708   9.568  21.244   6.750
 7968POPC   C3B59709   9.610  21.235   7.050
 7968POPC   C4B59710   9.555  21.205   7.350
 7969POPC   NC359711  41.556  36.882   5.550
 7969POPC   PO459712  41.579  36.947   5.850
 7969POPC   GL159713  41.531  36.921   6.150
 7969POPC   GL259714  41.606  36.783   6.150
 7969POPC   C1A59715  41.533  36.888   6.450
 7969POPC   D2A59716  41.570  36.944   6.750
 7969POPC   C3A59717  41.596  36.858   7.050
 7969POPC   C4A59718  41.580  36.881   7.350
 7969POPC   C1B59719  41.608  36.677   6.450
 7969POPC   C2B59720  41.610  36.672   6.750
 7969POPC   C3B59721  41.589  36.636   7.050
 7969POPC   C4B59722  41.602  36.629   7.350
 7970POPC   NC359723  31.445  37.680   5.550
 7970POPC   PO459724  31.455  37.719   5.850
 7970POPC   GL159725  31.510  37.716   6.150
 7970POPC   GL259726  31.632  37.686   6.150
 7970POPC   C1A59727  31.456  37.682   6.450
 7970POPC   D2A59728  31.522  37.636   6.750
 7970POPC   C3A59729  31.483  37.653   7.050
 7970POPC   C4A59730  31.478  37.693   7.350
 7970POPC   C1B59731  31.694  37.698   6.450
 7970POPC   C2B59732  31.740  37.726   6.750
 7970POPC   C3B59733  31.751  37.678   7.050
 7970POPC   C4B59734  31.732  37.719   7.350
 7971POPC   NC359735  17.506  43.158   5.550
 7971POPC   PO459736  17.491  43.140   5.850
 7971POPC   GL159737  17.499  43.132   6.150
 7971POPC   GL259738  17.587  43.234   6.150
 7971POPC   C1A59739  17.522  43.143   6.450
 7971POPC   D2A59740  17.521  43.153   6.750
 7971POPC   C3A59741  17.508  43.067   7.050
 7971POPC   C4A59742  17.526  43.092   7.350
 7971POPC   C1B59743  17.690  43.230   6.450
 7971POPC   C2B59744  17.712  43.226   6.750
 7971POPC   C3B59745  17.667  43.248   7.050
 7971POPC   C4B59746  17.676  43.222   7.350
 7972POPC   NC359747  33.031  21.409   5.550
 7972POPC   PO459748  33.004  21.388   5.850
 7972POPC   GL159749  33.003  21.377   6.150
 7972POPC   GL259750  33.023  21.262   6.150
 7972POPC   C1A59751  32.982  21.352   6.450
 7972POPC   D2A59752  33.011  21.420   6.750
 7972POPC   C3A59753  33.016  21.411   7.050
 7972POPC   C4A59754  33.037  21.369   7.350
 7972POPC   C1B59755  33.060  21.166   6.450
 7972POPC   C2B59756  33.048  21.171   6.750
 7972POPC   C3B59757  33.025  21.127   7.050
 7972POPC   C4B59758  33.022  21.170   7.350
 7973POPC   NC359759  29.181  28.418   5.550
 7973POPC   PO459760  29.183  28.355   5.850
 7973POPC   GL159761  29.117  28.331   6.150
 7973POPC   GL259762  29.203  28.518   6.150
 7973POPC   C1A59763  29.122  28.352   6.450
 7973POPC   D2A59764  29.155  28.328   6.750
 7973POPC   C3A59765  29.172  28.340   7.050
 7973POPC   C4A59766  29.112  28.386   7.350
 7973POPC   C1B59767  29.201  28.605   6.450
 7973POPC   C2B59768  29.216  28.619   6.750
 7973POPC   C3B59769  29.224  28.570   7.050
 7973POPC   C4B59770  29.219  28.576   7.350
 7974POPC   NC359771  26.846   8.959   5.550
 7974POPC   PO459772  26.827   8.939   5.850
 7974POPC   GL159773  26.834   8.947   6.150
 7974POPC   GL259774  26.752   8.846   6.150
 7974POPC   C1A59775  26.867   8.997   6.450
 7974POPC   D2A59776  26.854   8.976   6.750
 7974POPC   C3A59777  26.814   8.999   7.050
 7974POPC   C4A59778  26.805   9.002   7.350
 7974POPC   C1B59779  26.703   8.788   6.450
 7974POPC   C2B59780  26.679   8.782   6.750
 7974POPC   C3B59781  26.689   8.732   7.050
 7974POPC   C4B59782  26.701   8.756   7.350
 7975POPC   NC359783  36.946  23.696   5.550
 7975POPC   PO459784  36.924  23.688   5.850
 7975POPC   GL159785  36.878  23.759   6.150
 7975POPC   GL259786  36.798  23.855   6.150
 7975POPC   C1A59787  36.913  23.667   6.450
 7975POPC   D2A59788  36.909  23.707   6.750
 7975POPC   C3A59789  36.883  23.715   7.050
 7975POPC   C4A59790  36.900  23.738   7.350
 7975POPC   C1B59791  36.750  23.879   6.450
 7975POPC   C2B59792  36.777  23.898   6.750
 7975POPC   C3B59793  36.754  23.974   7.050
 7975POPC   C4B59794  36.766  23.925   7.350
 7976POPC   NC359795  14.433  29.142   5.550
 7976POPC   PO459796  14.420  29.153   5.850
 7976POPC   GL159797  14.430  29.103   6.150
 7976POPC   GL259798  14.500  29.153   6.150
 7976POPC   C1A59799  14.386  29.129   6.450
 7976POPC   D2A59800  14.404  29.149   6.750
 7976POPC   C3A59801  14.437  29.186   7.050
 7976POPC   C4A59802  14.393  29.132   7.350
 7976POPC   C1B59803  14.624  29.204   6.450
 7976POPC   C2B59804  14.677  29.195   6.750
 7976POPC   C3B59805  14.683  29.150   7.050
 7976POPC   C4B59806  14.641  29.201   7.350
 7977POPC   NC359807  13.661  32.213   5.550
 7977POPC   PO459808  13.603  32.262   5.850
 7977POPC   GL159809  13.671  32.245   6.150
 7977POPC   GL259810  13.739  32.318   6.150
 7977POPC   C1A59811  13.597  32.235   6.450
 7977POPC   D2A59812  13.581  32.266   6.750
 7977POPC   C3A59813  13.591  32.218   7.050
 7977POPC   C4A59814  13.615  32.223   7.350
 7977POPC   C1B59815  13.770  32.463   6.450
 7977POPC   C2B59816  13.807  32.386   6.750
 7977POPC   C3B59817  13.758  32.410   7.050
 7977POPC   C4B59818  13.821  32.473   7.350
 7978POPC   NC359819  24.517  43.071   5.550
 7978POPC   PO459820  24.504  43.075   5.850
 7978POPC   GL159821  24.498  43.133   6.150
 7978POPC   GL259822  24.333  43.068   6.150
 7978POPC   C1A59823  24.473  43.152   6.450
 7978POPC   D2A59824  24.454  43.075   6.750
 7978POPC   C3A59825  24.447  43.126   7.050
 7978POPC   C4A59826  24.529  43.135   7.350
 7978POPC   C1B59827  24.275  43.083   6.450
 7978POPC   C2B59828  24.214  43.053   6.750
 7978POPC   C3B59829  24.226  43.123   7.050
 7978POPC   C4B59830  24.274  43.131   7.350
 7979POPC   NC359831  31.427  14.453   5.550
 7979POPC   PO459832  31.440  14.412   5.850
 7979POPC   GL159833  31.428  14.354   6.150
 7979POPC   GL259834  31.562  14.297   6.150
 7979POPC   C1A59835  31.516  14.390   6.450
 7979POPC   D2A59836  31.427  14.422   6.750
 7979POPC   C3A59837  31.509  14.382   7.050
 7979POPC   C4A59838  31.426  14.440   7.350
 7979POPC   C1B59839  31.604  14.136   6.450
 7979POPC   C2B59840  31.572  14.225   6.750
 7979POPC   C3B59841  31.593  14.165   7.050
 7979POPC   C4B59842  31.589  14.209   7.350
 7980POPC   NC359843  39.990  15.175   5.550
 7980POPC   PO459844  40.025  15.202   5.850
 7980POPC   GL159845  40.022  15.135   6.150
 7980POPC   GL259846  39.935  15.096   6.150
 7980POPC   C1A59847  39.986  15.202   6.450
 7980POPC   D2A59848  40.006  15.190   6.750
 7980POPC   C3A59849  39.987  15.196   7.050
 7980POPC   C4A59850  40.009  15.153   7.350
 7980POPC   C1B59851  39.909  14.905   6.450
 7980POPC   C2B59852  39.879  14.906   6.750
 7980POPC   C3B59853  39.913  14.983   7.050
 7980POPC   C4B59854  39.939  14.941   7.350
 7981POPC   NC359855   4.334  13.618   5.550
 7981POPC   PO459856   4.337  13.673   5.850
 7981POPC   GL159857   4.306  13.677   6.150
 7981POPC   GL259858   4.360  13.554   6.150
 7981POPC   C1A59859   4.305  13.643   6.450
 7981POPC   D2A59860   4.345  13.664   6.750
 7981POPC   C3A59861   4.338  13.665   7.050
 7981POPC   C4A59862   4.291  13.620   7.350
 7981POPC   C1B59863   4.338  13.388   6.450
 7981POPC   C2B59864   4.362  13.353   6.750
 7981POPC   C3B59865   4.376  13.413   7.050
 7981POPC   C4B59866   4.364  13.365   7.350
 7982POPC   NC359867  44.683  23.697   5.550
 7982POPC   PO459868  44.625  23.669   5.850
 7982POPC   GL159869  44.668  23.666   6.150
 7982POPC   GL259870  44.780  23.678   6.150
 7982POPC   C1A59871  44.702  23.740   6.450
 7982POPC   D2A59872  44.679  23.675   6.750
 7982POPC   C3A59873  44.658  23.738   7.050
 7982POPC   C4A59874  44.692  23.713   7.350
 7982POPC   C1B59875  44.857  23.662   6.450
 7982POPC   C2B59876  44.949  23.677   6.750
 7982POPC   C3B59877  44.944  23.675   7.050
 7982POPC   C4B59878  44.910  23.681   7.350
 7983POPC   NC359879  20.648  10.567   5.550
 7983POPC   PO459880  20.651  10.542   5.850
 7983POPC   GL159881  20.657  10.526   6.150
 7983POPC   GL259882  20.475  10.532   6.150
 7983POPC   C1A59883  20.636  10.542   6.450
 7983POPC   D2A59884  20.612  10.567   6.750
 7983POPC   C3A59885  20.591  10.508   7.050
 7983POPC   C4A59886  20.647  10.506   7.350
 7983POPC   C1B59887  20.350  10.538   6.450
 7983POPC   C2B59888  20.390  10.596   6.750
 7983POPC   C3B59889  20.332  10.623   7.050
 7983POPC   C4B59890  20.365  10.535   7.350
 7984POPC   NC359891   7.438  18.253   5.550
 7984POPC   PO459892   7.417  18.299   5.850
 7984POPC   GL159893   7.420  18.328   6.150
 7984POPC   GL259894   7.493  18.386   6.150
 7984POPC   C1A59895   7.382  18.312   6.450
 7984POPC   D2A59896   7.429  18.286   6.750
 7984POPC   C3A59897   7.395  18.252   7.050
 7984POPC   C4A59898   7.439  18.298   7.350
 7984POPC   C1B59899   7.541  18.535   6.450
 7984POPC   C2B59900   7.538  18.484   6.750
 7984POPC   C3B59901   7.585  18.519   7.050
 7984POPC   C4B59902   7.542  18.509   7.350
 7985POPC   NC359903  12.824  33.788   5.550
 7985POPC   PO459904  12.826  33.753   5.850
 7985POPC   GL159905  12.879  33.816   6.150
 7985POPC   GL259906  12.867  33.722   6.150
 7985POPC   C1A59907  12.863  33.777   6.450
 7985POPC   D2A59908  12.817  33.844   6.750
 7985POPC   C3A59909  12.830  33.770   7.050
 7985POPC   C4A59910  12.840  33.778   7.350
 7985POPC   C1B59911  12.934  33.532   6.450
 7985POPC   C2B59912  12.936  33.570   6.750
 7985POPC   C3B59913  12.879  33.519   7.050
 7985POPC   C4B59914  12.891  33.584   7.350
 7986POPC   NC359915  36.951  29.136   5.550
 7986POPC   PO459916  36.898  29.185   5.850
 7986POPC   GL159917  36.904  29.180   6.150
 7986POPC   GL259918  37.008  29.259   6.150
 7986POPC   C1A59919  36.915  29.147   6.450
 7986POPC   D2A59920  36.922  29.116   6.750
 7986POPC   C3A59921  36.945  29.119   7.050
 7986POPC   C4A59922  36.886  29.180   7.350
 7986POPC   C1B59923  37.066  29.336   6.450
 7986POPC   C2B59924  37.111  29.332   6.750
 7986POPC   C3B59925  37.104  29.337   7.050
 7986POPC   C4B59926  37.088  29.294   7.350
 7987POPC   NC359927   5.905  36.881   5.550
 7987POPC   PO459928   5.874  36.875   5.850
 7987POPC   GL159929   5.889  36.898   6.150
 7987POPC   GL259930   5.881  37.061   6.150
 7987POPC   C1A59931   5.901  36.918   6.450
 7987POPC   D2A59932   5.910  36.860   6.750
 7987POPC   C3A59933   5.866  36.935   7.050
 7987POPC   C4A59934   5.900  36.869   7.350
 7987POPC   C1B59935   5.985  37.082   6.450
 7987POPC   C2B59936   5.961  37.077   6.750
 7987POPC   C3B59937   5.986  37.072   7.050
 7987POPC   C4B59938   6.027  37.146   7.350
 7988POPC   NC359939   6.596  19.818   5.550
 7988POPC   PO459940   6.654  19.855   5.850
 7988POPC   GL159941   6.663  19.793   6.150
 7988POPC   GL259942   6.621  19.721   6.150
 7988POPC   C1A59943   6.689  19.810   6.450
 7988POPC   D2A59944   6.690  19.861   6.750
 7988POPC   C3A59945   6.641  19.825   7.050
 7988POPC   C4A59946   6.679  19.852   7.350
 7988POPC   C1B59947   6.565  19.571   6.450
 7988POPC   C2B59948   6.561  19.654   6.750
 7988POPC   C3B59949   6.537  19.619   7.050
 7988POPC   C4B59950   6.481  19.571   7.350
 7989POPC   NC359951   6.682   0.461   5.550
 7989POPC   PO459952   6.614   0.406   5.850
 7989POPC   GL159953   6.601   0.412   6.150
 7989POPC   GL259954   6.728   0.588   6.150
 7989POPC   C1A59955   6.683   0.450   6.450
 7989POPC   D2A59956   6.612   0.450   6.750
 7989POPC   C3A59957   6.653   0.462   7.050
 7989POPC   C4A59958   6.682   0.471   7.350
 7989POPC   C1B59959   6.793   0.669   6.450
 7989POPC   C2B59960   6.803   0.682   6.750
 7989POPC   C3B59961   6.740   0.670   7.050
 7989POPC   C4B59962   6.767   0.629   7.350
 7990POPC   NC359963   8.147   7.393   5.550
 7990POPC   PO459964   8.155   7.457   5.850
 7990POPC   GL159965   8.165   7.454   6.150
 7990POPC   GL259966   8.153   7.311   6.150
 7990POPC   C1A59967   8.158   7.451   6.450
 7990POPC   D2A59968   8.199   7.421   6.750
 7990POPC   C3A59969   8.221   7.435   7.050
 7990POPC   C4A59970   8.167   7.433   7.350
 7990POPC   C1B59971   8.178   7.164   6.450
 7990POPC   C2B59972   8.195   7.217   6.750
 7990POPC   C3B59973   8.230   7.133   7.050
 7990POPC   C4B59974   8.221   7.133   7.350
 7991POPC   NC359975  26.002   8.158   5.550
 7991POPC   PO459976  26.072   8.189   5.850
 7991POPC   GL159977  26.081   8.222   6.150
 7991POPC   GL259978  26.004   8.249   6.150
 7991POPC   C1A59979  26.062   8.221   6.450
 7991POPC   D2A59980  26.082   8.156   6.750
 7991POPC   C3A59981  25.995   8.170   7.050
 7991POPC   C4A59982  26.006   8.208   7.350
 7991POPC   C1B59983  25.854   8.397   6.450
 7991POPC   C2B59984  25.914   8.384   6.750
 7991POPC   C3B59985  25.898   8.360   7.050
 7991POPC   C4B59986  25.851   8.393   7.350
 7992POPC   NC359987  23.753  13.585   5.550
 7992POPC   PO459988  23.731  13.651   5.850
 7992POPC   GL159989  23.727  13.642   6.150
 7992POPC   GL259990  23.757  13.468   6.150
 7992POPC   C1A59991  23.743  13.592   6.450
 7992POPC   D2A59992  23.761  13.647   6.750
 7992POPC   C3A59993  23.758  13.639   7.050
 7992POPC   C4A59994  23.681  13.603   7.350
 7992POPC   C1B59995  23.765  13.353   6.450
 7992POPC   C2B59996  23.829  13.399   6.750
 7992POPC   C3B59997  23.823  13.404   7.050
 7992POPC   C4B59998  23.797  13.359   7.350
 7993POPC   NC359999  10.524   4.334   5.550
 7993POPC   PO460000  10.530   4.348   5.850
 7993POPC   GL160001  10.525   4.366   6.150
 7993POPC   GL260002  10.483   4.369   6.150
 7993POPC   C1A60003  10.553   4.278   6.450
 7993POPC   D2A60004  10.493   4.299   6.750
 7993POPC   C3A60005  10.526   4.281   7.050
 7993POPC   C4A60006  10.479   4.282   7.350
 7993POPC   C1B60007  10.386   4.529   6.450
 7993POPC   C2B60008  10.389   4.543   6.750
 7993POPC   C3B60009  10.366   4.491   7.050
 7993POPC   C4B60010  10.336   4.491   7.350
 7994POPC   NC360011  43.920  44.666   5.550
 7994POPC   PO460012  43.882  44.637   5.850
 7994POPC   GL160013  43.932  44.659   6.150
 7994POPC   GL260014  43.891  44.781   6.150
 7994POPC   C1A60015  43.846  44.628   6.450
 7994POPC   D2A60016  43.882  44.688   6.750
 7994POPC   C3A60017  43.874  44.671   7.050
 7994POPC   C4A60018  43.847  44.641   7.350
 7994POPC   C1B60019  43.812  44.880   6.450
 7994POPC   C2B60020  43.802  44.943   6.750
 7994POPC   C3B60021  43.830  44.940   7.050
 7994POPC   C4B60022  43.872  44.903   7.350
 7995POPC   NC360023  22.921  40.048   5.550
 7995POPC   PO460024  22.904  40.035   5.850
 7995POPC   GL160025  22.963  40.021   6.150
 7995POPC   GL260026  22.849  40.015   6.150
 7995POPC   C1A60027  22.965  39.971   6.450
 7995POPC   D2A60028  22.975  40.002   6.750
 7995POPC   C3A60029  22.959  39.988   7.050
 7995POPC   C4A60030  22.973  40.026   7.350
 7995POPC   C1B60031  22.743  40.110   6.450
 7995POPC   C2B60032  22.746  40.087   6.750
 7995POPC   C3B60033  22.725  40.117   7.050
 7995POPC   C4B60034  22.729  40.095   7.350
 7996POPC   NC360035  19.805  19.077   5.550
 7996POPC   PO460036  19.814  19.067   5.850
 7996POPC   GL160037  19.820  19.106   6.150
 7996POPC   GL260038  19.818  19.190   6.150
 7996POPC   C1A60039  19.865  19.076   6.450
 7996POPC   D2A60040  19.785  19.070   6.750
 7996POPC   C3A60041  19.801  19.044   7.050
 7996POPC   C4A60042  19.826  19.056   7.350
 7996POPC   C1B60043  19.811  19.306   6.450
 7996POPC   C2B60044  19.781  19.270   6.750
 7996POPC   C3B60045  19.731  19.350   7.050
 7996POPC   C4B60046  19.766  19.275   7.350
 7997POPC   NC360047  43.912  16.759   5.550
 7997POPC   PO460048  43.884  16.732   5.850
 7997POPC   GL160049  43.887  16.739   6.150
 7997POPC   GL260050  43.800  16.642   6.150
 7997POPC   C1A60051  43.908  16.687   6.450
 7997POPC   D2A60052  43.928  16.751   6.750
 7997POPC   C3A60053  43.915  16.771   7.050
 7997POPC   C4A60054  43.936  16.715   7.350
 7997POPC   C1B60055  43.688  16.536   6.450
 7997POPC   C2B60056  43.656  16.619   6.750
 7997POPC   C3B60057  43.656  16.535   7.050
 7997POPC   C4B60058  43.742  16.593   7.350
 7998POPC   NC360059  40.037  23.703   5.550
 7998POPC   PO460060  39.958  23.677   5.850
 7998POPC   GL160061  40.045  23.676   6.150
 7998POPC   GL260062  40.081  23.619   6.150
 7998POPC   C1A60063  40.016  23.733   6.450
 7998POPC   D2A60064  39.980  23.664   6.750
 7998POPC   C3A60065  39.994  23.720   7.050
 7998POPC   C4A60066  39.962  23.734   7.350
 7998POPC   C1B60067  40.287  23.569   6.450
 7998POPC   C2B60068  40.277  23.620   6.750
 7998POPC   C3B60069  40.222  23.584   7.050
 7998POPC   C4B60070  40.256  23.638   7.350
 7999POPC   NC360071  13.641  24.504   5.550
 7999POPC   PO460072  13.608  24.442   5.850
 7999POPC   GL160073  13.638  24.479   6.150
 7999POPC   GL260074  13.696  24.344   6.150
 7999POPC   C1A60075  13.595  24.481   6.450
 7999POPC   D2A60076  13.666  24.463   6.750
 7999POPC   C3A60077  13.611  24.491   7.050
 7999POPC   C4A60078  13.674  24.464   7.350
 7999POPC   C1B60079  13.700  24.250   6.450
 7999POPC   C2B60080  13.674  24.233   6.750
 7999POPC   C3B60081  13.742  24.229   7.050
 7999POPC   C4B60082  13.668  24.262   7.350
 8000POPC   NC360083   9.764  34.561   5.550
 8000POPC   PO460084   9.753  34.572   5.850
 8000POPC   GL160085   9.783  34.595   6.150
 8000POPC   GL260086   9.629  34.684   6.150
 8000POPC   C1A60087   9.781  34.539   6.450
 8000POPC   D2A60088   9.743  34.624   6.750
 8000POPC   C3A60089   9.705  34.601   7.050
 8000POPC   C4A60090   9.792  34.604   7.350
 8000POPC   C1B60091   9.536  34.715   6.450
 8000POPC   C2B60092   9.547  34.747   6.750
 8000POPC   C3B60093   9.566  34.735   7.050
 8000POPC   C4B60094   9.553  34.718   7.350
 8001POPC   NC360095   3.531  33.019   5.550
 8001POPC   PO460096   3.563  33.017   5.850
 8001POPC   GL160097   3.586  32.975   6.150
 8001POPC   GL260098   3.511  32.890   6.150
 8001POPC   C1A60099   3.583  33.017   6.450
 8001POPC   D2A60100   3.520  33.023   6.750
 8001POPC   C3A60101   3.556  33.051   7.050
 8001POPC   C4A60102   3.496  32.997   7.350
 8001POPC   C1B60103   3.509  32.761   6.450
 8001POPC   C2B60104   3.479  32.741   6.750
 8001POPC   C3B60105   3.524  32.797   7.050
 8001POPC   C4B60106   3.498  32.755   7.350
 8002POPC   NC360107  28.418   9.780   5.550
 8002POPC   PO460108  28.418   9.712   5.850
 8002POPC   GL160109  28.328   9.721   6.150
 8002POPC   GL260110  28.402   9.699   6.150
 8002POPC   C1A60111  28.397   9.710   6.450
 8002POPC   D2A60112  28.320   9.705   6.750
 8002POPC   C3A60113  28.399   9.711   7.050
 8002POPC   C4A60114  28.376   9.749   7.350
 8002POPC   C1B60115  28.551   9.518   6.450
 8002POPC   C2B60116  28.536   9.567   6.750
 8002POPC   C3B60117  28.565   9.536   7.050
 8002POPC   C4B60118  28.551   9.595   7.350
 8003POPC   NC360119  43.118   7.379   5.550
 8003POPC   PO460120  43.062   7.396   5.850
 8003POPC   GL160121  43.129   7.444   6.150
 8003POPC   GL260122  43.018   7.290   6.150
 8003POPC   C1A60123  43.067   7.379   6.450
 8003POPC   D2A60124  43.079   7.383   6.750
 8003POPC   C3A60125  43.105   7.398   7.050
 8003POPC   C4A60126  43.068   7.424   7.350
 8003POPC   C1B60127  43.013   7.251   6.450
 8003POPC   C2B60128  42.943   7.246   6.750
 8003POPC   C3B60129  42.985   7.228   7.050
 8003POPC   C4B60130  43.004   7.259   7.350
 8004POPC   NC360131  34.578  10.523   5.550
 8004POPC   PO460132  34.615  10.531   5.850
 8004POPC   GL160133  34.529  10.516   6.150
 8004POPC   GL260134  34.666  10.457   6.150
 8004POPC   C1A60135  34.626  10.529   6.450
 8004POPC   D2A60136  34.598  10.504   6.750
 8004POPC   C3A60137  34.600  10.508   7.050
 8004POPC   C4A60138  34.531  10.563   7.350
 8004POPC   C1B60139  34.758  10.331   6.450
 8004POPC   C2B60140  34.713  10.329   6.750
 8004POPC   C3B60141  34.748  10.279   7.050
 8004POPC   C4B60142  34.747  10.355   7.350
 8005POPC   NC360143   5.874  16.724   5.550
 8005POPC   PO460144   5.918  16.684   5.850
 8005POPC   GL160145   5.843  16.717   6.150
 8005POPC   GL260146   5.885  16.584   6.150
 8005POPC   C1A60147   5.909  16.694   6.450
 8005POPC   D2A60148   5.830  16.692   6.750
 8005POPC   C3A60149   5.874  16.751   7.050
 8005POPC   C4A60150   5.853  16.698   7.350
 8005POPC   C1B60151   5.952  16.497   6.450
 8005POPC   C2B60152   5.948  16.459   6.750
 8005POPC   C3B60153   5.951  16.548   7.050
 8005POPC   C4B60154   5.941  16.489   7.350
 8006POPC   NC360155  24.522   7.428   5.550
 8006POPC   PO460156  24.519   7.435   5.850
 8006POPC   GL160157  24.513   7.391   6.150
 8006POPC   GL260158  24.554   7.269   6.150
 8006POPC   C1A60159  24.461   7.434   6.450
 8006POPC   D2A60160  24.524   7.416   6.750
 8006POPC   C3A60161  24.448   7.390   7.050
 8006POPC   C4A60162  24.533   7.429   7.350
 8006POPC   C1B60163  24.570   7.211   6.450
 8006POPC   C2B60164  24.557   7.239   6.750
 8006POPC   C3B60165  24.608   7.149   7.050
 8006POPC   C4B60166  24.554   7.166   7.350
 8007POPC   NC360167  29.176  37.712   5.550
 8007POPC   PO460168  29.175  37.669   5.850
 8007POPC   GL160169  29.168  37.710   6.150
 8007POPC   GL260170  29.251  37.815   6.150
 8007POPC   C1A60171  29.148  37.675   6.450
 8007POPC   D2A60172  29.125  37.682   6.750
 8007POPC   C3A60173  29.148  37.634   7.050
 8007POPC   C4A60174  29.121  37.683   7.350
 8007POPC   C1B60175  29.300  37.941   6.450
 8007POPC   C2B60176  29.302  37.883   6.750
 8007POPC   C3B60177  29.237  37.876   7.050
 8007POPC   C4B60178  29.299  37.863   7.350
 8008POPC   NC360179  44.651  42.356   5.550
 8008POPC   PO460180  44.650  42.358   5.850
 8008POPC   GL160181  44.647  42.314   6.150
 8008POPC   GL260182  44.687  42.220   6.150
 8008POPC   C1A60183  44.659  42.300   6.450
 8008POPC   D2A60184  44.656  42.318   6.750
 8008POPC   C3A60185  44.693  42.359   7.050
 8008POPC   C4A60186  44.672  42.294   7.350
 8008POPC   C1B60187  44.778  42.135   6.450
 8008POPC   C2B60188  44.768  42.150   6.750
 8008POPC   C3B60189  44.840  42.126   7.050
 8008POPC   C4B60190  44.796  42.160   7.350
 8009POPC   NC360191  12.090  20.629   5.550
 8009POPC   PO460192  12.037  20.657   5.850
 8009POPC   GL160193  12.093  20.567   6.150
 8009POPC   GL260194  12.013  20.467   6.150
 8009POPC   C1A60195  12.113  20.620   6.450
 8009POPC   D2A60196  12.042  20.595   6.750
 8009POPC   C3A60197  12.092  20.564   7.050
 8009POPC   C4A60198  12.034  20.603   7.350
 8009POPC   C1B60199  12.008  20.370   6.450
 8009POPC   C2B60200  12.015  20.353   6.750
 8009POPC   C3B60201  11.985  20.359   7.050
 8009POPC   C4B60202  11.989  20.394   7.350
 8010POPC   NC360203  14.424  14.360   5.550
 8010POPC   PO460204  14.360  14.403   5.850
 8010POPC   GL160205  14.402  14.377   6.150
 8010POPC   GL260206  14.294  14.378   6.150
 8010POPC   C1A60207  14.424  14.441   6.450
 8010POPC   D2A60208  14.431  14.383   6.750
 8010POPC   C3A60209  14.374  14.413   7.050
 8010POPC   C4A60210  14.437  14.370   7.350
 8010POPC   C1B60211  14.199  14.334   6.450
 8010POPC   C2B60212  14.127  14.344   6.750
 8010POPC   C3B60213  14.173  14.314   7.050
 8010POPC   C4B60214  14.174  14.312   7.350
 8011POPC   NC360215  24.446   0.426   5.550
 8011POPC   PO460216  24.507   0.450   5.850
 8011POPC   GL160217  24.518   0.401   6.150
 8011POPC   GL260218  24.590   0.455   6.150
 8011POPC   C1A60219  24.484   0.433   6.450
 8011POPC   D2A60220  24.527   0.483   6.750
 8011POPC   C3A60221  24.445   0.436   7.050
 8011POPC   C4A60222  24.443   0.461   7.350
 8011POPC   C1B60223  24.766   0.508   6.450
 8011POPC   C2B60224  24.750   0.437   6.750
 8011POPC   C3B60225  24.700   0.506   7.050
 8011POPC   C4B60226  24.780   0.487   7.350
 8012POPC   NC360227  16.781   3.528   5.550
 8012POPC   PO460228  16.710   3.561   5.850
 8012POPC   GL160229  16.757   3.575   6.150
 8012POPC   GL260230  16.800   3.398   6.150
 8012POPC   C1A60231  16.724   3.536   6.450
 8012POPC   D2A60232  16.726   3.527   6.750
 8012POPC   C3A60233  16.739   3.567   7.050
 8012POPC   C4A60234  16.693   3.548   7.350
 8012POPC   C1B60235  16.830   3.361   6.450
 8012POPC   C2B60236  16.843   3.383   6.750
 8012POPC   C3B60237  16.908   3.344   7.050
 8012POPC   C4B60238  16.855   3.349   7.350
 8013POPC   NC360239  32.986  16.762   5.550
 8013POPC   PO460240  33.032  16.721   5.850
 8013POPC   GL160241  32.982  16.707   6.150
 8013POPC   GL260242  33.097  16.690   6.150
 8013POPC   C1A60243  32.990  16.756   6.450
 8013POPC   D2A60244  32.987  16.766   6.750
 8013POPC   C3A60245  32.991  16.762   7.050
 8013POPC   C4A60246  33.064  16.697   7.350
 8013POPC   C1B60247  33.278  16.675   6.450
 8013POPC   C2B60248  33.295  16.652   6.750
 8013POPC   C3B60249  33.314  16.709   7.050
 8013POPC   C4B60250  33.256  16.708   7.350
 8014POPC   NC360251  34.541  18.265   5.550
 8014POPC   PO460252  34.614  18.289   5.850
 8014POPC   GL160253  34.527  18.324   6.150
 8014POPC   GL260254  34.731  18.270   6.150
 8014POPC   C1A60255  34.578  18.307   6.450
 8014POPC   D2A60256  34.603  18.266   6.750
 8014POPC   C3A60257  34.611  18.301   7.050
 8014POPC   C4A60258  34.622  18.238   7.350
 8014POPC   C1B60259  34.853  18.235   6.450
 8014POPC   C2B60260  34.823  18.293   6.750
 8014POPC   C3B60261  34.855  18.236   7.050
 8014POPC   C4B60262  34.845  18.282   7.350
 8015POPC   NC360263   8.158   8.955   5.550
 8015POPC   PO460264   8.165   8.923   5.850
 8015POPC   GL160265   8.156   8.940   6.150
 8015POPC   GL260266   8.105   8.891   6.150
 8015POPC   C1A60267   8.196   8.997   6.450
 8015POPC   D2A60268   8.186   8.976   6.750
 8015POPC   C3A60269   8.246   8.988   7.050
 8015POPC   C4A60270   8.204   8.985   7.350
 8015POPC   C1B60271   7.996   8.807   6.450
 8015POPC   C2B60272   8.003   8.799   6.750
 8015POPC   C3B60273   8.019   8.774   7.050
 8015POPC   C4B60274   8.024   8.789   7.350
 8016POPC   NC360275  19.869   8.946   5.550
 8016POPC   PO460276  19.838   8.970   5.850
 8016POPC   GL160277  19.879   8.944   6.150
 8016POPC   GL260278  19.903   8.864   6.150
 8016POPC   C1A60279  19.853   8.961   6.450
 8016POPC   D2A60280  19.824   9.021   6.750
 8016POPC   C3A60281  19.786   8.951   7.050
 8016POPC   C4A60282  19.821   9.013   7.350
 8016POPC   C1B60283  19.987   8.765   6.450
 8016POPC   C2B60284  20.016   8.743   6.750
 8016POPC   C3B60285  19.946   8.731   7.050
 8016POPC   C4B60286  19.948   8.781   7.350
 8017POPC   NC360287  12.086   3.544   5.550
 8017POPC   PO460288  12.083   3.499   5.850
 8017POPC   GL160289  12.120   3.562   6.150
 8017POPC   GL260290  12.013   3.381   6.150
 8017POPC   C1A60291  12.079   3.534   6.450
 8017POPC   D2A60292  12.125   3.501   6.750
 8017POPC   C3A60293  12.038   3.516   7.050
 8017POPC   C4A60294  12.042   3.572   7.350
 8017POPC   C1B60295  11.995   3.297   6.450
 8017POPC   C2B60296  11.944   3.346   6.750
 8017POPC   C3B60297  11.987   3.321   7.050
 8017POPC   C4B60298  11.985   3.367   7.350
 8018POPC   NC360299  15.938   5.107   5.550
 8018POPC   PO460300  15.949   5.044   5.850
 8018POPC   GL160301  15.936   5.143   6.150
 8018POPC   GL260302  16.067   4.978   6.150
 8018POPC   C1A60303  15.958   5.142   6.450
 8018POPC   D2A60304  15.921   5.109   6.750
 8018POPC   C3A60305  16.000   5.114   7.050
 8018POPC   C4A60306  15.991   5.048   7.350
 8018POPC   C1B60307  16.161   4.929   6.450
 8018POPC   C2B60308  16.165   4.900   6.750
 8018POPC   C3B60309  16.099   4.891   7.050
 8018POPC   C4B60310  16.121   4.941   7.350
 8019POPC   NC360311   0.420  10.496   5.550
 8019POPC   PO460312   0.435  10.529   5.850
 8019POPC   GL160313   0.428  10.475   6.150
 8019POPC   GL260314   0.340  10.460   6.150
 8019POPC   C1A60315   0.462  10.556   6.450
 8019POPC   D2A60316   0.391  10.526   6.750
 8019POPC   C3A60317   0.445  10.554   7.050
 8019POPC   C4A60318   0.409  10.544   7.350
 8019POPC   C1B60319   0.296  10.317   6.450
 8019POPC   C2B60320   0.342  10.342   6.750
 8019POPC   C3B60321   0.293  10.301   7.050
 8019POPC   C4B60322   0.292  10.304   7.350
 8020POPC   NC360323  36.083  22.124   5.550
 8020POPC   PO460324  36.123  22.133   5.850
 8020POPC   GL160325  36.154  22.202   6.150
 8020POPC   GL260326  36.258  22.269   6.150
 8020POPC   C1A60327  36.122  22.153   6.450
 8020POPC   D2A60328  36.146  22.166   6.750
 8020POPC   C3A60329  36.110  22.114   7.050
 8020POPC   C4A60330  36.128  22.124   7.350
 8020POPC   C1B60331  36.352  22.329   6.450
 8020POPC   C2B60332  36.333  22.272   6.750
 8020POPC   C3B60333  36.290  22.275   7.050
 8020POPC   C4B60334  36.296  22.322   7.350
 8021POPC   NC360335  40.019  21.402   5.550
 8021POPC   PO460336  40.003  21.392   5.850
 8021POPC   GL160337  39.996  21.374   6.150
 8021POPC   GL260338  39.904  21.333   6.150
 8021POPC   C1A60339  40.037  21.360   6.450
 8021POPC   D2A60340  40.051  21.338   6.750
 8021POPC   C3A60341  39.969  21.395   7.050
 8021POPC   C4A60342  39.959  21.419   7.350
 8021POPC   C1B60343  39.724  21.320   6.450
 8021POPC   C2B60344  39.800  21.288   6.750
 8021POPC   C3B60345  39.787  21.357   7.050
 8021POPC   C4B60346  39.739  21.365   7.350
 8022POPC   NC360347  29.941  39.185   5.550
 8022POPC   PO460348  29.903  39.244   5.850
 8022POPC   GL160349  29.941  39.242   6.150
 8022POPC   GL260350  30.016  39.141   6.150
 8022POPC   C1A60351  29.884  39.238   6.450
 8022POPC   D2A60352  29.925  39.245   6.750
 8022POPC   C3A60353  29.898  39.245   7.050
 8022POPC   C4A60354  29.957  39.197   7.350
 8022POPC   C1B60355  30.048  39.012   6.450
 8022POPC   C2B60356  30.058  39.029   6.750
 8022POPC   C3B60357  30.128  39.042   7.050
 8022POPC   C4B60358  30.057  39.045   7.350
 8023POPC   NC360359  39.979  13.637   5.550
 8023POPC   PO460360  39.983  13.596   5.850
 8023POPC   GL160361  39.993  13.668   6.150
 8023POPC   GL260362  40.146  13.630   6.150
 8023POPC   C1A60363  40.017  13.593   6.450
 8023POPC   D2A60364  40.005  13.601   6.750
 8023POPC   C3A60365  40.026  13.622   7.050
 8023POPC   C4A60366  40.021  13.586   7.350
 8023POPC   C1B60367  40.300  13.606   6.450
 8023POPC   C2B60368  40.228  13.632   6.750
 8023POPC   C3B60369  40.227  13.589   7.050
 8023POPC   C4B60370  40.239  13.558   7.350
 8024POPC   NC360371   4.361  26.000   5.550
 8024POPC   PO460372   4.360  26.010   5.850
 8024POPC   GL160373   4.329  26.070   6.150
 8024POPC   GL260374   4.190  25.980   6.150
 8024POPC   C1A60375   4.282  26.065   6.450
 8024POPC   D2A60376   4.272  26.055   6.750
 8024POPC   C3A60377   4.329  26.020   7.050
 8024POPC   C4A60378   4.305  26.056   7.350
 8024POPC   C1B60379   4.077  25.930   6.450
 8024POPC   C2B60380   4.100  25.943   6.750
 8024POPC   C3B60381   4.152  25.889   7.050
 8024POPC   C4B60382   4.119  25.866   7.350
 8025POPC   NC360383  35.318  40.053   5.550
 8025POPC   PO460384  35.340  39.958   5.850
 8025POPC   GL160385  35.352  40.038   6.150
 8025POPC   GL260386  35.338  40.174   6.150
 8025POPC   C1A60387  35.380  40.027   6.450
 8025POPC   D2A60388  35.378  40.004   6.750
 8025POPC   C3A60389  35.380  40.010   7.050
 8025POPC   C4A60390  35.343  39.962   7.350
 8025POPC   C1B60391  35.377  40.276   6.450
 8025POPC   C2B60392  35.360  40.209   6.750
 8025POPC   C3B60393  35.391  40.282   7.050
 8025POPC   C4B60394  35.402  40.296   7.350
 8026POPC   NC360395  32.223  22.189   5.550
 8026POPC   PO460396  32.218  22.147   5.850
 8026POPC   GL160397  32.288  22.139   6.150
 8026POPC   GL260398  32.261  22.320   6.150
 8026POPC   C1A60399  32.207  22.121   6.450
 8026POPC   D2A60400  32.298  22.196   6.750
 8026POPC   C3A60401  32.274  22.160   7.050
 8026POPC   C4A60402  32.241  22.207   7.350
 8026POPC   C1B60403  32.306  22.440   6.450
 8026POPC   C2B60404  32.291  22.378   6.750
 8026POPC   C3B60405  32.370  22.379   7.050
 8026POPC   C4B60406  32.302  22.354   7.350
 8027POPC   NC360407   4.345   3.501   5.550
 8027POPC   PO460408   4.331   3.579   5.850
 8027POPC   GL160409   4.307   3.511   6.150
 8027POPC   GL260410   4.396   3.617   6.150
 8027POPC   C1A60411   4.310   3.570   6.450
 8027POPC   D2A60412   4.331   3.557   6.750
 8027POPC   C3A60413   4.268   3.572   7.050
 8027POPC   C4A60414   4.357   3.586   7.350
 8027POPC   C1B60415   4.430   3.729   6.450
 8027POPC   C2B60416   4.476   3.687   6.750
 8027POPC   C3B60417   4.525   3.721   7.050
 8027POPC   C4B60418   4.460   3.708   7.350
 8028POPC   NC360419  25.292  34.624   5.550
 8028POPC   PO460420  25.304  34.540   5.850
 8028POPC   GL160421  25.233  34.541   6.150
 8028POPC   GL260422  25.339  34.618   6.150
 8028POPC   C1A60423  25.236  34.572   6.450
 8028POPC   D2A60424  25.314  34.564   6.750
 8028POPC   C3A60425  25.230  34.569   7.050
 8028POPC   C4A60426  25.265  34.569   7.350
 8028POPC   C1B60427  25.528  34.684   6.450
 8028POPC   C2B60428  25.518  34.654   6.750
 8028POPC   C3B60429  25.465  34.642   7.050
 8028POPC   C4B60430  25.465  34.693   7.350
 8029POPC   NC360431  17.551  44.712   5.550
 8029POPC   PO460432  17.480  44.613   5.850
 8029POPC   GL160433  17.512  44.633   6.150
 8029POPC   GL260434  17.599  44.786   6.150
 8029POPC   C1A60435  17.475  44.647   6.450
 8029POPC   D2A60436  17.495  44.693   6.750
 8029POPC   C3A60437  17.463  44.662   7.050
 8029POPC   C4A60438  17.496  44.706   7.350
 8029POPC   C1B60439  17.674  44.917   6.450
 8029POPC   C2B60440  17.644  44.858   6.750
 8029POPC   C3B60441  17.680  44.910   7.050
 8029POPC   C4B60442  17.661  44.902   7.350
 8030POPC   NC360443  21.399  43.913   5.550
 8030POPC   PO460444  21.422  43.887   5.850
 8030POPC   GL160445  21.428  43.904   6.150
 8030POPC   GL260446  21.260  43.848   6.150
 8030POPC   C1A60447  21.399  43.883   6.450
 8030POPC   D2A60448  21.425  43.861   6.750
 8030POPC   C3A60449  21.364  43.896   7.050
 8030POPC   C4A60450  21.346  43.900   7.350
 8030POPC   C1B60451  21.120  43.785   6.450
 8030POPC   C2B60452  21.164  43.815   6.750
 8030POPC   C3B60453  21.118  43.786   7.050
 8030POPC   C4B60454  21.181  43.799   7.350
 8031POPC   NC360455  32.256   5.118   5.550
 8031POPC   PO460456  32.222   5.046   5.850
 8031POPC   GL160457  32.228   5.113   6.150
 8031POPC   GL260458  32.313   5.165   6.150
 8031POPC   C1A60459  32.286   5.088   6.450
 8031POPC   D2A60460  32.274   5.106   6.750
 8031POPC   C3A60461  32.244   5.102   7.050
 8031POPC   C4A60462  32.264   5.114   7.350
 8031POPC   C1B60463  32.389   5.363   6.450
 8031POPC   C2B60464  32.397   5.356   6.750
 8031POPC   C3B60465  32.317   5.332   7.050
 8031POPC   C4B60466  32.367   5.363   7.350
 8032POPC   NC360467  36.913   7.467   5.550
 8032POPC   PO460468  36.895   7.443   5.850
 8032POPC   GL160469  36.875   7.398   6.150
 8032POPC   GL260470  36.980   7.519   6.150
 8032POPC   C1A60471  36.854   7.449   6.450
 8032POPC   D2A60472  36.935   7.435   6.750
 8032POPC   C3A60473  36.875   7.389   7.050
 8032POPC   C4A60474  36.870   7.410   7.350
 8032POPC   C1B60475  37.165   7.482   6.450
 8032POPC   C2B60476  37.084   7.490   6.750
 8032POPC   C3B60477  37.160   7.515   7.050
 8032POPC   C4B60478  37.179   7.503   7.350
 8033POPC   NC360479  44.656  33.805   5.550
 8033POPC   PO460480  44.642  33.815   5.850
 8033POPC   GL160481  44.634  33.845   6.150
 8033POPC   GL260482  44.562  33.750   6.150
 8033POPC   C1A60483  44.625  33.758   6.450
 8033POPC   D2A60484  44.712  33.760   6.750
 8033POPC   C3A60485  44.627  33.787   7.050
 8033POPC   C4A60486  44.631  33.792   7.350
 8033POPC   C1B60487  44.403  33.729   6.450
 8033POPC   C2B60488  44.420  33.764   6.750
 8033POPC   C3B60489  44.456  33.697   7.050
 8033POPC   C4B60490  44.421  33.753   7.350
 8034POPC   NC360491  20.622   3.538   5.550
 8034POPC   PO460492  20.580   3.502   5.850
 8034POPC   GL160493  20.579   3.516   6.150
 8034POPC   GL260494  20.756   3.575   6.150
 8034POPC   C1A60495  20.569   3.581   6.450
 8034POPC   D2A60496  20.641   3.585   6.750
 8034POPC   C3A60497  20.645   3.501   7.050
 8034POPC   C4A60498  20.574   3.526   7.350
 8034POPC   C1B60499  20.804   3.687   6.450
 8034POPC   C2B60500  20.814   3.691   6.750
 8034POPC   C3B60501  20.831   3.675   7.050
 8034POPC   C4B60502  20.823   3.730   7.350
 8035POPC   NC360503  30.665  23.764   5.550
 8035POPC   PO460504  30.692  23.723   5.850
 8035POPC   GL160505  30.731  23.756   6.150
 8035POPC   GL260506  30.617  23.577   6.150
 8035POPC   C1A60507  30.743  23.703   6.450
 8035POPC   D2A60508  30.654  23.755   6.750
 8035POPC   C3A60509  30.734  23.681   7.050
 8035POPC   C4A60510  30.678  23.715   7.350
 8035POPC   C1B60511  30.601  23.469   6.450
 8035POPC   C2B60512  30.663  23.425   6.750
 8035POPC   C3B60513  30.598  23.474   7.050
 8035POPC   C4B60514  30.590  23.443   7.350
 8036POPC   NC360515  20.562  22.162   5.550
 8036POPC   PO460516  20.599  22.128   5.850
 8036POPC   GL160517  20.646  22.192   6.150
 8036POPC   GL260518  20.517  22.241   6.150
 8036POPC   C1A60519  20.610  22.181   6.450
 8036POPC   D2A60520  20.596  22.162   6.750
 8036POPC   C3A60521  20.640  22.174   7.050
 8036POPC   C4A60522  20.569  22.154   7.350
 8036POPC   C1B60523  20.471  22.322   6.450
 8036POPC   C2B60524  20.457  22.322   6.750
 8036POPC   C3B60525  20.506  22.351   7.050
 8036POPC   C4B60526  20.454  22.398   7.350
 8037POPC   NC360527  19.870   1.166   5.550
 8037POPC   PO460528  19.795   1.188   5.850
 8037POPC   GL160529  19.811   1.165   6.150
 8037POPC   GL260530  19.701   1.254   6.150
 8037POPC   C1A60531  19.847   1.249   6.450
 8037POPC   D2A60532  19.811   1.178   6.750
 8037POPC   C3A60533  19.822   1.244   7.050
 8037POPC   C4A60534  19.824   1.251   7.350
 8037POPC   C1B60535  19.583   1.222   6.450
 8037POPC   C2B60536  19.616   1.230   6.750
 8037POPC   C3B60537  19.561   1.252   7.050
 8037POPC   C4B60538  19.592   1.195   7.350
 8038POPC   NC360539  25.312  41.552   5.550
 8038POPC   PO460540  25.293  41.514   5.850
 8038POPC   GL160541  25.298  41.533   6.150
 8038POPC   GL260542  25.242  41.415   6.150
 8038POPC   C1A60543  25.232  41.560   6.450
 8038POPC   D2A60544  25.235  41.562   6.750
 8038POPC   C3A60545  25.291  41.511   7.050
 8038POPC   C4A60546  25.266  41.561   7.350
 8038POPC   C1B60547  25.130  41.303   6.450
 8038POPC   C2B60548  25.201  41.373   6.750
 8038POPC   C3B60549  25.112  41.287   7.050
 8038POPC   C4B60550  25.166  41.289   7.350
 8039POPC   NC360551  22.171  17.491   5.550
 8039POPC   PO460552  22.144  17.534   5.850
 8039POPC   GL160553  22.156  17.512   6.150
 8039POPC   GL260554  22.206  17.392   6.150
 8039POPC   C1A60555  22.183  17.490   6.450
 8039POPC   D2A60556  22.166  17.495   6.750
 8039POPC   C3A60557  22.191  17.514   7.050
 8039POPC   C4A60558  22.194  17.488   7.350
 8039POPC   C1B60559  22.301  17.319   6.450
 8039POPC   C2B60560  22.303  17.315   6.750
 8039POPC   C3B60561  22.308  17.376   7.050
 8039POPC   C4B60562  22.387  17.311   7.350
 8040POPC   NC360563   7.442  30.701   5.550
 8040POPC   PO460564   7.409  30.672   5.850
 8040POPC   GL160565   7.404  30.648   6.150
 8040POPC   GL260566   7.276  30.719   6.150
 8040POPC   C1A60567   7.443  30.705   6.450
 8040POPC   D2A60568   7.394  30.675   6.750
 8040POPC   C3A60569   7.451  30.706   7.050
 8040POPC   C4A60570   7.374  30.700   7.350
 8040POPC   C1B60571   7.153  30.685   6.450
 8040POPC   C2B60572   7.191  30.756   6.750
 8040POPC   C3B60573   7.162  30.764   7.050
 8040POPC   C4B60574   7.155  30.708   7.350
 8041POPC   NC360575  12.895  41.600   5.550
 8041POPC   PO460576  12.804  41.512   5.850
 8041POPC   GL160577  12.842  41.520   6.150
 8041POPC   GL260578  12.913  41.499   6.150
 8041POPC   C1A60579  12.883  41.542   6.450
 8041POPC   D2A60580  12.834  41.594   6.750
 8041POPC   C3A60581  12.867  41.516   7.050
 8041POPC   C4A60582  12.872  41.517   7.350
 8041POPC   C1B60583  12.943  41.388   6.450
 8041POPC   C2B60584  13.004  41.395   6.750
 8041POPC   C3B60585  12.960  41.354   7.050
 8041POPC   C4B60586  13.019  41.326   7.350
 8042POPC   NC360587  28.390   6.689   5.550
 8042POPC   PO460588  28.418   6.608   5.850
 8042POPC   GL160589  28.401   6.630   6.150
 8042POPC   GL260590  28.471   6.609   6.150
 8042POPC   C1A60591  28.350   6.690   6.450
 8042POPC   D2A60592  28.362   6.674   6.750
 8042POPC   C3A60593  28.392   6.611   7.050
 8042POPC   C4A60594  28.327   6.641   7.350
 8042POPC   C1B60595  28.640   6.571   6.450
 8042POPC   C2B60596  28.600   6.594   6.750
 8042POPC   C3B60597  28.583   6.583   7.050
 8042POPC   C4B60598  28.576   6.540   7.350
 8043POPC   NC360599  43.935  27.562   5.550
 8043POPC   PO460600  43.910  27.597   5.850
 8043POPC   GL160601  43.888  27.602   6.150
 8043POPC   GL260602  44.027  27.593   6.150
 8043POPC   C1A60603  43.860  27.601   6.450
 8043POPC   D2A60604  43.924  27.606   6.750
 8043POPC   C3A60605  43.917  27.544   7.050
 8043POPC   C4A60606  43.859  27.593   7.350
 8043POPC   C1B60607  44.108  27.637   6.450
 8043POPC   C2B60608  44.155  27.591   6.750
 8043POPC   C3B60609  44.129  27.576   7.050
 8043POPC   C4B60610  44.122  27.598   7.350
 8044POPC   NC360611  15.164   1.252   5.550
 8044POPC   PO460612  15.171   1.244   5.850
 8044POPC   GL160613  15.195   1.257   6.150
 8044POPC   GL260614  15.062   1.302   6.150
 8044POPC   C1A60615  15.206   1.232   6.450
 8044POPC   D2A60616  15.223   1.173   6.750
 8044POPC   C3A60617  15.157   1.186   7.050
 8044POPC   C4A60618  15.137   1.190   7.350
 8044POPC   C1B60619  14.925   1.281   6.450
 8044POPC   C2B60620  14.963   1.255   6.750
 8044POPC   C3B60621  14.945   1.266   7.050
 8044POPC   C4B60622  14.897   1.261   7.350
 8045POPC   NC360623  29.914   3.557   5.550
 8045POPC   PO460624  29.910   3.555   5.850
 8045POPC   GL160625  29.907   3.502   6.150
 8045POPC   GL260626  29.932   3.468   6.150
 8045POPC   C1A60627  29.887   3.576   6.450
 8045POPC   D2A60628  29.919   3.576   6.750
 8045POPC   C3A60629  29.915   3.537   7.050
 8045POPC   C4A60630  29.910   3.547   7.350
 8045POPC   C1B60631  29.873   3.310   6.450
 8045POPC   C2B60632  29.819   3.264   6.750
 8045POPC   C3B60633  29.880   3.331   7.050
 8045POPC   C4B60634  29.859   3.257   7.350
 8046POPC   NC360635  20.628  36.917   5.550
 8046POPC   PO460636  20.596  36.938   5.850
 8046POPC   GL160637  20.658  36.935   6.150
 8046POPC   GL260638  20.718  36.757   6.150
 8046POPC   C1A60639  20.630  36.926   6.450
 8046POPC   D2A60640  20.618  36.885   6.750
 8046POPC   C3A60641  20.648  36.861   7.050
 8046POPC   C4A60642  20.573  36.910   7.350
 8046POPC   C1B60643  20.788  36.740   6.450
 8046POPC   C2B60644  20.760  36.675   6.750
 8046POPC   C3B60645  20.755  36.651   7.050
 8046POPC   C4B60646  20.712  36.660   7.350
 8047POPC   NC360647  35.384   0.409   5.550
 8047POPC   PO460648  35.338   0.406   5.850
 8047POPC   GL160649  35.358   0.440   6.150
 8047POPC   GL260650  35.203   0.525   6.150
 8047POPC   C1A60651  35.371   0.464   6.450
 8047POPC   D2A60652  35.383   0.389   6.750
 8047POPC   C3A60653  35.324   0.468   7.050
 8047POPC   C4A60654  35.314   0.443   7.350
 8047POPC   C1B60655  35.166   0.552   6.450
 8047POPC   C2B60656  35.150   0.570   6.750
 8047POPC   C3B60657  35.096   0.604   7.050
 8047POPC   C4B60658  35.176   0.529   7.350
 8048POPC   NC360659  41.511   0.390   5.550
 8048POPC   PO460660  41.580   0.429   5.850
 8048POPC   GL160661  41.571   0.437   6.150
 8048POPC   GL260662  41.543   0.537   6.150
 8048POPC   C1A60663  41.572   0.470   6.450
 8048POPC   D2A60664  41.524   0.437   6.750
 8048POPC   C3A60665  41.556   0.426   7.050
 8048POPC   C4A60666  41.581   0.420   7.350
 8048POPC   C1B60667  41.568   0.719   6.450
 8048POPC   C2B60668  41.566   0.642   6.750
 8048POPC   C3B60669  41.552   0.717   7.050
 8048POPC   C4B60670  41.528   0.645   7.350
 8049POPC   NC360671  29.887  37.659   5.550
 8049POPC   PO460672  29.882  37.723   5.850
 8049POPC   GL160673  29.955  37.654   6.150
 8049POPC   GL260674  30.064  37.621   6.150
 8049POPC   C1A60675  29.942  37.702   6.450
 8049POPC   D2A60676  29.943  37.710   6.750
 8049POPC   C3A60677  29.908  37.712   7.050
 8049POPC   C4A60678  29.871  37.698   7.350
 8049POPC   C1B60679  30.149  37.578   6.450
 8049POPC   C2B60680  30.150  37.516   6.750
 8049POPC   C3B60681  30.135  37.583   7.050
 8049POPC   C4B60682  30.103  37.506   7.350
 8050POPC   NC360683   1.168  13.628   5.550
 8050POPC   PO460684   1.253  13.663   5.850
 8050POPC   GL160685   1.182  13.629   6.150
 8050POPC   GL260686   1.292  13.549   6.150
 8050POPC   C1A60687   1.202  13.590   6.450
 8050POPC   D2A60688   1.256  13.677   6.750
 8050POPC   C3A60689   1.186  13.617   7.050
 8050POPC   C4A60690   1.182  13.646   7.350
 8050POPC   C1B60691   1.375  13.443   6.450
 8050POPC   C2B60692   1.438  13.438   6.750
 8050POPC   C3B60693   1.433  13.469   7.050
 8050POPC   C4B60694   1.367  13.503   7.350
 8051POPC   NC360695  15.185  24.495   5.550
 8051POPC   PO460696  15.150  24.454   5.850
 8051POPC   GL160697  15.149  24.516   6.150
 8051POPC   GL260698  15.193  24.570   6.150
 8051POPC   C1A60699  15.157  24.501   6.450
 8051POPC   D2A60700  15.134  24.460   6.750
 8051POPC   C3A60701  15.164  24.528   7.050
 8051POPC   C4A60702  15.219  24.465   7.350
 8051POPC   C1B60703  15.294  24.730   6.450
 8051POPC   C2B60704  15.264  24.687   6.750
 8051POPC   C3B60705  15.304  24.726   7.050
 8051POPC   C4B60706  15.221  24.724   7.350
 8052POPC   NC360707   5.868  11.293   5.550
 8052POPC   PO460708   5.852  11.268   5.850
 8052POPC   GL160709   5.839  11.294   6.150
 8052POPC   GL260710   5.820  11.394   6.150
 8052POPC   C1A60711   5.902  11.324   6.450
 8052POPC   D2A60712   5.915  11.280   6.750
 8052POPC   C3A60713   5.872  11.319   7.050
 8052POPC   C4A60714   5.895  11.314   7.350
 8052POPC   C1B60715   5.902  11.530   6.450
 8052POPC   C2B60716   5.891  11.544   6.750
 8052POPC   C3B60717   5.835  11.575   7.050
 8052POPC   C4B60718   5.916  11.536   7.350
 8053POPC   NC360719   9.013  26.018   5.550
 8053POPC   PO460720   9.015  26.060   5.850
 8053POPC   GL160721   8.959  25.992   6.150
 8053POPC   GL260722   8.896  26.167   6.150
 8053POPC   C1A60723   8.992  26.002   6.450
 8053POPC   D2A60724   8.994  26.048   6.750
 8053POPC   C3A60725   8.983  26.040   7.050
 8053POPC   C4A60726   9.011  25.994   7.350
 8053POPC   C1B60727   8.881  26.328   6.450
 8053POPC   C2B60728   8.887  26.255   6.750
 8053POPC   C3B60729   8.918  26.317   7.050
 8053POPC   C4B60730   8.851  26.243   7.350
 8054POPC   NC360731  24.476   6.660   5.550
 8054POPC   PO460732  24.490   6.683   5.850
 8054POPC   GL160733  24.455   6.652   6.150
 8054POPC   GL260734  24.453   6.773   6.150
 8054POPC   C1A60735  24.459   6.676   6.450
 8054POPC   D2A60736  24.448   6.679   6.750
 8054POPC   C3A60737  24.483   6.603   7.050
 8054POPC   C4A60738  24.481   6.691   7.350
 8054POPC   C1B60739  24.417   6.849   6.450
 8054POPC   C2B60740  24.413   6.921   6.750
 8054POPC   C3B60741  24.371   6.901   7.050
 8054POPC   C4B60742  24.450   6.861   7.350
 8055POPC   NC360743  24.494   3.560   5.550
 8055POPC   PO460744  24.492   3.502   5.850
 8055POPC   GL160745  24.525   3.558   6.150
 8055POPC   GL260746  24.584   3.615   6.150
 8055POPC   C1A60747  24.491   3.513   6.450
 8055POPC   D2A60748  24.539   3.562   6.750
 8055POPC   C3A60749  24.537   3.495   7.050
 8055POPC   C4A60750  24.489   3.497   7.350
 8055POPC   C1B60751  24.708   3.630   6.450
 8055POPC   C2B60752  24.723   3.606   6.750
 8055POPC   C3B60753  24.728   3.562   7.050
 8055POPC   C4B60754  24.695   3.606   7.350
 8056POPC   NC360755  28.376  39.258   5.550
 8056POPC   PO460756  28.384  39.251   5.850
 8056POPC   GL160757  28.350  39.274   6.150
 8056POPC   GL260758  28.222  39.271   6.150
 8056POPC   C1A60759  28.336  39.246   6.450
 8056POPC   D2A60760  28.352  39.191   6.750
 8056POPC   C3A60761  28.334  39.268   7.050
 8056POPC   C4A60762  28.324  39.214   7.350
 8056POPC   C1B60763  28.166  39.192   6.450
 8056POPC   C2B60764  28.092  39.231   6.750
 8056POPC   C3B60765  28.100  39.273   7.050
 8056POPC   C4B60766  28.077  39.181   7.350
 8057POPC   NC360767  21.372  39.987   5.550
 8057POPC   PO460768  21.358  40.028   5.850
 8057POPC   GL160769  21.378  39.974   6.150
 8057POPC   GL260770  21.552  40.019   6.150
 8057POPC   C1A60771  21.395  40.047   6.450
 8057POPC   D2A60772  21.423  40.014   6.750
 8057POPC   C3A60773  21.414  39.969   7.050
 8057POPC   C4A60774  21.373  40.042   7.350
 8057POPC   C1B60775  21.598  40.092   6.450
 8057POPC   C2B60776  21.657  40.114   6.750
 8057POPC   C3B60777  21.600  40.100   7.050
 8057POPC   C4B60778  21.628  40.109   7.350
 8058POPC   NC360779  21.354  22.897   5.550
 8058POPC   PO460780  21.360  22.896   5.850
 8058POPC   GL160781  21.360  22.889   6.150
 8058POPC   GL260782  21.417  22.814   6.150
 8058POPC   C1A60783  21.434  22.896   6.450
 8058POPC   D2A60784  21.385  22.922   6.750
 8058POPC   C3A60785  21.375  22.982   7.050
 8058POPC   C4A60786  21.412  22.889   7.350
 8058POPC   C1B60787  21.437  22.744   6.450
 8058POPC   C2B60788  21.496  22.650   6.750
 8058POPC   C3B60789  21.455  22.653   7.050
 8058POPC   C4B60790  21.460  22.723   7.350
 8059POPC   NC360791  24.469  33.013   5.550
 8059POPC   PO460792  24.481  33.019   5.850
 8059POPC   GL160793  24.482  33.023   6.150
 8059POPC   GL260794  24.584  32.957   6.150
 8059POPC   C1A60795  24.504  33.042   6.450
 8059POPC   D2A60796  24.480  33.070   6.750
 8059POPC   C3A60797  24.443  33.041   7.050
 8059POPC   C4A60798  24.501  33.041   7.350
 8059POPC   C1B60799  24.728  32.910   6.450
 8059POPC   C2B60800  24.739  32.913   6.750
 8059POPC   C3B60801  24.752  32.911   7.050
 8059POPC   C4B60802  24.743  32.880   7.350
 8060POPC   NC360803  14.408  34.581   5.550
 8060POPC   PO460804  14.452  34.533   5.850
 8060POPC   GL160805  14.406  34.582   6.150
 8060POPC   GL260806  14.535  34.573   6.150
 8060POPC   C1A60807  14.405  34.601   6.450
 8060POPC   D2A60808  14.400  34.551   6.750
 8060POPC   C3A60809  14.404  34.527   7.050
 8060POPC   C4A60810  14.407  34.541   7.350
 8060POPC   C1B60811  14.662  34.592   6.450
 8060POPC   C2B60812  14.639  34.599   6.750
 8060POPC   C3B60813  14.655  34.550   7.050
 8060POPC   C4B60814  14.691  34.611   7.350
 8061POPC   NC360815  30.686  38.491   5.550
 8061POPC   PO460816  30.685  38.423   5.850
 8061POPC   GL160817  30.652  38.447   6.150
 8061POPC   GL260818  30.780  38.586   6.150
 8061POPC   C1A60819  30.668  38.481   6.450
 8061POPC   D2A60820  30.731  38.479   6.750
 8061POPC   C3A60821  30.648  38.485   7.050
 8061POPC   C4A60822  30.739  38.432   7.350
 8061POPC   C1B60823  30.838  38.649   6.450
 8061POPC   C2B60824  30.837  38.695   6.750
 8061POPC   C3B60825  30.836  38.647   7.050
 8061POPC   C4B60826  30.856  38.701   7.350
 8062POPC   NC360827  32.270  12.062   5.550
 8062POPC   PO460828  32.283  12.066   5.850
 8062POPC   GL160829  32.263  12.094   6.150
 8062POPC   GL260830  32.238  12.167   6.150
 8062POPC   C1A60831  32.253  12.053   6.450
 8062POPC   D2A60832  32.297  12.049   6.750
 8062POPC   C3A60833  32.231  12.068   7.050
 8062POPC   C4A60834  32.266  12.121   7.350
 8062POPC   C1B60835  32.137  12.354   6.450
 8062POPC   C2B60836  32.172  12.325   6.750
 8062POPC   C3B60837  32.198  12.267   7.050
 8062POPC   C4B60838  32.119  12.292   7.350
 8063POPC   NC360839  43.151  33.004   5.550
 8063POPC   PO460840  43.128  33.073   5.850
 8063POPC   GL160841  43.153  32.992   6.150
 8063POPC   GL260842  43.175  32.898   6.150
 8063POPC   C1A60843  43.090  32.996   6.450
 8063POPC   D2A60844  43.076  32.991   6.750
 8063POPC   C3A60845  43.078  33.058   7.050
 8063POPC   C4A60846  43.096  33.057   7.350
 8063POPC   C1B60847  43.231  32.863   6.450
 8063POPC   C2B60848  43.246  32.772   6.750
 8063POPC   C3B60849  43.215  32.844   7.050
 8063POPC   C4B60850  43.217  32.832   7.350
 8064POPC   NC360851  29.118   1.992   5.550
 8064POPC   PO460852  29.163   1.991   5.850
 8064POPC   GL160853  29.128   1.996   6.150
 8064POPC   GL260854  29.242   2.111   6.150
 8064POPC   C1A60855  29.140   2.021   6.450
 8064POPC   D2A60856  29.188   2.006   6.750
 8064POPC   C3A60857  29.185   1.960   7.050
 8064POPC   C4A60858  29.145   1.990   7.350
 8064POPC   C1B60859  29.216   2.195   6.450
 8064POPC   C2B60860  29.234   2.209   6.750
 8064POPC   C3B60861  29.253   2.236   7.050
 8064POPC   C4B60862  29.214   2.224   7.350
 8065POPC   NC360863  10.505  38.443   5.550
 8065POPC   PO460864  10.564  38.482   5.850
 8065POPC   GL160865  10.545  38.420   6.150
 8065POPC   GL260866  10.492  38.331   6.150
 8065POPC   C1A60867  10.528  38.501   6.450
 8065POPC   D2A60868  10.524  38.496   6.750
 8065POPC   C3A60869  10.493  38.460   7.050
 8065POPC   C4A60870  10.556  38.474   7.350
 8065POPC   C1B60871  10.406  38.202   6.450
 8065POPC   C2B60872  10.465  38.225   6.750
 8065POPC   C3B60873  10.450  38.261   7.050
 8065POPC   C4B60874  10.468  38.277   7.350
 8066POPC   NC360875  29.946   8.243   5.550
 8066POPC   PO460876  29.937   8.152   5.850
 8066POPC   GL160877  29.884   8.199   6.150
 8066POPC   GL260878  29.993   8.051   6.150
 8066POPC   C1A60879  29.928   8.221   6.450
 8066POPC   D2A60880  29.928   8.191   6.750
 8066POPC   C3A60881  29.928   8.167   7.050
 8066POPC   C4A60882  29.882   8.244   7.350
 8066POPC   C1B60883  29.964   7.979   6.450
 8066POPC   C2B60884  29.979   7.929   6.750
 8066POPC   C3B60885  30.016   7.937   7.050
 8066POPC   C4B60886  30.037   7.933   7.350
 8067POPC   NC360887  37.631  18.273   5.550
 8067POPC   PO460888  37.720  18.305   5.850
 8067POPC   GL160889  37.720  18.249   6.150
 8067POPC   GL260890  37.778  18.395   6.150
 8067POPC   C1A60891  37.664  18.254   6.450
 8067POPC   D2A60892  37.632  18.320   6.750
 8067POPC   C3A60893  37.703  18.292   7.050
 8067POPC   C4A60894  37.673  18.303   7.350
 8067POPC   C1B60895  37.880  18.454   6.450
 8067POPC   C2B60896  37.900  18.417   6.750
 8067POPC   C3B60897  37.883  18.381   7.050
 8067POPC   C4B60898  37.852  18.432   7.350
 8068POPC   NC360899   9.699   5.853   5.550
 8068POPC   PO460900   9.793   5.857   5.850
 8068POPC   GL160901   9.762   5.835   6.150
 8068POPC   GL260902   9.669   5.852   6.150
 8068POPC   C1A60903   9.738   5.832   6.450
 8068POPC   D2A60904   9.752   5.913   6.750
 8068POPC   C3A60905   9.737   5.871   7.050
 8068POPC   C4A60906   9.702   5.868   7.350
 8068POPC   C1B60907   9.545   5.882   6.450
 8068POPC   C2B60908   9.491   5.830   6.750
 8068POPC   C3B60909   9.515   5.788   7.050
 8068POPC   C4B60910   9.497   5.855   7.350
 8069POPC   NC360911  24.452  31.439   5.550
 8069POPC   PO460912  24.514  31.459   5.850
 8069POPC   GL160913  24.528  31.521   6.150
 8069POPC   GL260914  24.569  31.413   6.150
 8069POPC   C1A60915  24.520  31.488   6.450
 8069POPC   D2A60916  24.501  31.471   6.750
 8069POPC   C3A60917  24.440  31.450   7.050
 8069POPC   C4A60918  24.467  31.445   7.350
 8069POPC   C1B60919  24.724  31.354   6.450
 8069POPC   C2B60920  24.722  31.335   6.750
 8069POPC   C3B60921  24.657  31.329   7.050
 8069POPC   C4B60922  24.685  31.309   7.350
 8070POPC   NC360923  43.069  30.665   5.550
 8070POPC   PO460924  43.071  30.680   5.850
 8070POPC   GL160925  43.124  30.656   6.150
 8070POPC   GL260926  42.982  30.703   6.150
 8070POPC   C1A60927  43.159  30.668   6.450
 8070POPC   D2A60928  43.119  30.680   6.750
 8070POPC   C3A60929  43.142  30.735   7.050
 8070POPC   C4A60930  43.062  30.702   7.350
 8070POPC   C1B60931  42.836  30.784   6.450
 8070POPC   C2B60932  42.915  30.726   6.750
 8070POPC   C3B60933  42.875  30.719   7.050
 8070POPC   C4B60934  42.858  30.738   7.350
 8071POPC   NC360935  20.594  23.743   5.550
 8071POPC   PO460936  20.597  23.668   5.850
 8071POPC   GL160937  20.607  23.756   6.150
 8071POPC   GL260938  20.519  23.574   6.150
 8071POPC   C1A60939  20.581  23.742   6.450
 8071POPC   D2A60940  20.591  23.707   6.750
 8071POPC   C3A60941  20.599  23.725   7.050
 8071POPC   C4A60942  20.609  23.718   7.350
 8071POPC   C1B60943  20.483  23.472   6.450
 8071POPC   C2B60944  20.453  23.527   6.750
 8071POPC   C3B60945  20.486  23.461   7.050
 8071POPC   C4B60946  20.516  23.475   7.350
 8072POPC   NC360947   9.786  36.097   5.550
 8072POPC   PO460948   9.702  36.097   5.850
 8072POPC   GL160949   9.794  36.120   6.150
 8072POPC   GL260950   9.590  36.136   6.150
 8072POPC   C1A60951   9.760  36.160   6.450
 8072POPC   D2A60952   9.788  36.079   6.750
 8072POPC   C3A60953   9.745  36.089   7.050
 8072POPC   C4A60954   9.771  36.110   7.350
 8072POPC   C1B60955   9.499  36.193   6.450
 8072POPC   C2B60956   9.501  36.227   6.750
 8072POPC   C3B60957   9.488  36.285   7.050
 8072POPC   C4B60958   9.565  36.221   7.350
 8073POPC   NC360959   4.298  40.747   5.550
 8073POPC   PO460960   4.287  40.745   5.850
 8073POPC   GL160961   4.275  40.802   6.150
 8073POPC   GL260962   4.437  40.703   6.150
 8073POPC   C1A60963   4.312  40.755   6.450
 8073POPC   D2A60964   4.271  40.809   6.750
 8073POPC   C3A60965   4.316  40.735   7.050
 8073POPC   C4A60966   4.283  40.776   7.350
 8073POPC   C1B60967   4.487  40.590   6.450
 8073POPC   C2B60968   4.523  40.627   6.750
 8073POPC   C3B60969   4.502  40.603   7.050
 8073POPC   C4B60970   4.547  40.648   7.350
 8074POPC   NC360971  42.350   8.952   5.550
 8074POPC   PO460972  42.302   8.972   5.850
 8074POPC   GL160973  42.286   8.970   6.150
 8074POPC   GL260974  42.421   9.116   6.150
 8074POPC   C1A60975  42.368   8.969   6.450
 8074POPC   D2A60976  42.318   8.948   6.750
 8074POPC   C3A60977  42.297   8.926   7.050
 8074POPC   C4A60978  42.335   8.930   7.350
 8074POPC   C1B60979  42.514   9.175   6.450
 8074POPC   C2B60980  42.480   9.207   6.750
 8074POPC   C3B60981  42.439   9.166   7.050
 8074POPC   C4B60982  42.440   9.167   7.350
 8075POPC   NC360983  22.165  12.887   5.550
 8075POPC   PO460984  22.195  12.829   5.850
 8075POPC   GL160985  22.139  12.818   6.150
 8075POPC   GL260986  22.224  12.941   6.150
 8075POPC   C1A60987  22.129  12.891   6.450
 8075POPC   D2A60988  22.180  12.901   6.750
 8075POPC   C3A60989  22.161  12.810   7.050
 8075POPC   C4A60990  22.209  12.807   7.350
 8075POPC   C1B60991  22.332  13.010   6.450
 8075POPC   C2B60992  22.378  12.978   6.750
 8075POPC   C3B60993  22.387  13.037   7.050
 8075POPC   C4B60994  22.389  13.038   7.350
 8076POPC   NC360995  42.364  43.103   5.550
 8076POPC   PO460996  42.321  43.120   5.850
 8076POPC   GL160997  42.340  43.148   6.150
 8076POPC   GL260998  42.353  42.986   6.150
 8076POPC   C1A60999  42.286  43.120   6.450
 8076POPC   D2A61000  42.337  43.094   6.750
 8076POPC   C3A61001  42.343  43.140   7.050
 8076POPC   C4A61002  42.380  43.154   7.350
 8076POPC   C1B61003  42.469  42.903   6.450
 8076POPC   C2B61004  42.421  42.900   6.750
 8076POPC   C3B61005  42.429  42.829   7.050
 8076POPC   C4B61006  42.422  42.852   7.350
 8077POPC   NC361007  35.370  32.995   5.550
 8077POPC   PO461008  35.381  33.038   5.850
 8077POPC   GL161009  35.325  32.982   6.150
 8077POPC   GL261010  35.442  32.940   6.150
 8077POPC   C1A61011  35.397  33.069   6.450
 8077POPC   D2A61012  35.393  32.994   6.750
 8077POPC   C3A61013  35.381  32.993   7.050
 8077POPC   C4A61014  35.367  33.023   7.350
 8077POPC   C1B61015  35.554  32.992   6.450
 8077POPC   C2B61016  35.541  32.992   6.750
 8077POPC   C3B61017  35.564  32.916   7.050
 8077POPC   C4B61018  35.555  32.928   7.350
 8078POPC   NC361019  19.041  26.034   5.550
 8078POPC   PO461020  19.085  26.074   5.850
 8078POPC   GL161021  19.060  26.090   6.150
 8078POPC   GL261022  18.905  26.075   6.150
 8078POPC   C1A61023  19.107  26.075   6.450
 8078POPC   D2A61024  19.087  26.017   6.750
 8078POPC   C3A61025  19.025  25.996   7.050
 8078POPC   C4A61026  19.096  26.039   7.350
 8078POPC   C1B61027  18.813  26.092   6.450
 8078POPC   C2B61028  18.856  26.006   6.750
 8078POPC   C3B61029  18.821  26.078   7.050
 8078POPC   C4B61030  18.763  26.034   7.350
 8079POPC   NC361031   8.930   2.779   5.550
 8079POPC   PO461032   8.957   2.772   5.850
 8079POPC   GL161033   8.979   2.794   6.150
 8079POPC   GL261034   8.892   2.866   6.150
 8079POPC   C1A61035   8.927   2.716   6.450
 8079POPC   D2A61036   8.977   2.797   6.750
 8079POPC   C3A61037   8.956   2.801   7.050
 8079POPC   C4A61038   9.010   2.718   7.350
 8079POPC   C1B61039   8.748   2.920   6.450
 8079POPC   C2B61040   8.791   2.910   6.750
 8079POPC   C3B61041   8.772   2.924   7.050
 8079POPC   C4B61042   8.791   2.946   7.350
 8080POPC   NC361043  28.381  33.775   5.550
 8080POPC   PO461044  28.363  33.800   5.850
 8080POPC   GL161045  28.377  33.750   6.150
 8080POPC   GL261046  28.410  33.926   6.150
 8080POPC   C1A61047  28.372  33.775   6.450
 8080POPC   D2A61048  28.412  33.777   6.750
 8080POPC   C3A61049  28.324  33.784   7.050
 8080POPC   C4A61050  28.365  33.791   7.350
 8080POPC   C1B61051  28.485  34.011   6.450
 8080POPC   C2B61052  28.522  34.003   6.750
 8080POPC   C3B61053  28.505  34.016   7.050
 8080POPC   C4B61054  28.463  34.051   7.350
 8081POPC   NC361055  25.255   7.432   5.550
 8081POPC   PO461056  25.297   7.458   5.850
 8081POPC   GL161057  25.232   7.373   6.150
 8081POPC   GL261058  25.205   7.294   6.150
 8081POPC   C1A61059  25.237   7.454   6.450
 8081POPC   D2A61060  25.241   7.455   6.750
 8081POPC   C3A61061  25.221   7.380   7.050
 8081POPC   C4A61062  25.218   7.457   7.350
 8081POPC   C1B61063  25.185   7.172   6.450
 8081POPC   C2B61064  25.161   7.217   6.750
 8081POPC   C3B61065  25.175   7.204   7.050
 8081POPC   C4B61066  25.149   7.209   7.350
 8082POPC   NC361067  30.714  30.668   5.550
 8082POPC   PO461068  30.656  30.713   5.850
 8082POPC   GL161069  30.703  30.744   6.150
 8082POPC   GL261070  30.841  30.748   6.150
 8082POPC   C1A61071  30.692  30.710   6.450
 8082POPC   D2A61072  30.740  30.656   6.750
 8082POPC   C3A61073  30.675  30.676   7.050
 8082POPC   C4A61074  30.733  30.671   7.350
 8082POPC   C1B61075  30.958  30.697   6.450
 8082POPC   C2B61076  30.967  30.766   6.750
 8082POPC   C3B61077  30.966  30.732   7.050
 8082POPC   C4B61078  30.898  30.688   7.350
 8083POPC   NC361079  27.590  19.092   5.550
 8083POPC   PO461080  27.640  19.058   5.850
 8083POPC   GL161081  27.637  19.013   6.150
 8083POPC   GL261082  27.480  19.049   6.150
 8083POPC   C1A61083  27.626  19.063   6.450
 8083POPC   D2A61084  27.588  19.073   6.750
 8083POPC   C3A61085  27.605  19.022   7.050
 8083POPC   C4A61086  27.604  19.089   7.350
 8083POPC   C1B61087  27.360  18.983   6.450
 8083POPC   C2B61088  27.376  19.029   6.750
 8083POPC   C3B61089  27.316  18.953   7.050
 8083POPC   C4B61090  27.387  18.970   7.350
 8084POPC   NC361091  29.182  18.249   5.550
 8084POPC   PO461092  29.130  18.301   5.850
 8084POPC   GL161093  29.111  18.272   6.150
 8084POPC   GL261094  29.054  18.228   6.150
 8084POPC   C1A61095  29.141  18.313   6.450
 8084POPC   D2A61096  29.126  18.252   6.750
 8084POPC   C3A61097  29.174  18.326   7.050
 8084POPC   C4A61098  29.149  18.304   7.350
 8084POPC   C1B61099  28.916  18.159   6.450
 8084POPC   C2B61100  28.891  18.124   6.750
 8084POPC   C3B61101  28.935  18.141   7.050
 8084POPC   C4B61102  28.902  18.178   7.350
 8085POPC   NC361103  32.242   9.722   5.550
 8085POPC   PO461104  32.210   9.711   5.850
 8085POPC   GL161105  32.262   9.798   6.150
 8085POPC   GL261106  32.302   9.661   6.150
 8085POPC   C1A61107  32.277   9.745   6.450
 8085POPC   D2A61108  32.257   9.759   6.750
 8085POPC   C3A61109  32.270   9.762   7.050
 8085POPC   C4A61110  32.233   9.719   7.350
 8085POPC   C1B61111  32.442   9.560   6.450
 8085POPC   C2B61112  32.479   9.639   6.750
 8085POPC   C3B61113  32.410   9.635   7.050
 8085POPC   C4B61114  32.429   9.586   7.350
 8086POPC   NC361115  14.380  26.022   5.550
 8086POPC   PO461116  14.370  26.008   5.850
 8086POPC   GL161117  14.389  26.003   6.150
 8086POPC   GL261118  14.235  26.081   6.150
 8086POPC   C1A61119  14.428  26.003   6.450
 8086POPC   D2A61120  14.383  26.086   6.750
 8086POPC   C3A61121  14.418  26.005   7.050
 8086POPC   C4A61122  14.421  26.059   7.350
 8086POPC   C1B61123  14.172  26.061   6.450
 8086POPC   C2B61124  14.210  26.049   6.750
 8086POPC   C3B61125  14.111  26.059   7.050
 8086POPC   C4B61126  14.127  26.140   7.350
 8087POPC   NC361127  22.176  30.654   5.550
 8087POPC   PO461128  22.172  30.710   5.850
 8087POPC   GL161129  22.195  30.648   6.150
 8087POPC   GL261130  22.049  30.734   6.150
 8087POPC   C1A61131  22.150  30.701   6.450
 8087POPC   D2A61132  22.203  30.730   6.750
 8087POPC   C3A61133  22.160  30.716   7.050
 8087POPC   C4A61134  22.138  30.730   7.350
 8087POPC   C1B61135  21.963  30.821   6.450
 8087POPC   C2B61136  21.955  30.853   6.750
 8087POPC   C3B61137  21.980  30.847   7.050
 8087POPC   C4B61138  21.952  30.822   7.350
 8088POPC   NC361139  30.698  33.765   5.550
 8088POPC   PO461140  30.664  33.764   5.850
 8088POPC   GL161141  30.718  33.825   6.150
 8088POPC   GL261142  30.619  33.927   6.150
 8088POPC   C1A61143  30.708  33.841   6.450
 8088POPC   D2A61144  30.663  33.767   6.750
 8088POPC   C3A61145  30.669  33.775   7.050
 8088POPC   C4A61146  30.672  33.780   7.350
 8088POPC   C1B61147  30.458  33.971   6.450
 8088POPC   C2B61148  30.537  33.924   6.750
 8088POPC   C3B61149  30.454  33.948   7.050
 8088POPC   C4B61150  30.479  33.937   7.350
 8089POPC   NC361151  32.995   3.555   5.550
 8089POPC   PO461152  33.052   3.516   5.850
 8089POPC   GL161153  33.033   3.518   6.150
 8089POPC   GL261154  32.949   3.380   6.150
 8089POPC   C1A61155  33.005   3.534   6.450
 8089POPC   D2A61156  32.991   3.529   6.750
 8089POPC   C3A61157  33.065   3.499   7.050
 8089POPC   C4A61158  33.015   3.493   7.350
 8089POPC   C1B61159  32.948   3.305   6.450
 8089POPC   C2B61160  32.917   3.346   6.750
 8089POPC   C3B61161  32.924   3.278   7.050
 8089POPC   C4B61162  32.934   3.285   7.350
 8090POPC   NC361163  39.226  16.702   5.550
 8090POPC   PO461164  39.195  16.763   5.850
 8090POPC   GL161165  39.222  16.705   6.150
 8090POPC   GL261166  39.288  16.807   6.150
 8090POPC   C1A61167  39.224  16.749   6.450
 8090POPC   D2A61168  39.190  16.750   6.750
 8090POPC   C3A61169  39.281  16.780   7.050
 8090POPC   C4A61170  39.241  16.706   7.350
 8090POPC   C1B61171  39.338  16.925   6.450
 8090POPC   C2B61172  39.324  16.927   6.750
 8090POPC   C3B61173  39.267  16.951   7.050
 8090POPC   C4B61174  39.339  16.919   7.350
 8091POPC   NC361175   4.327  25.241   5.550
 8091POPC   PO461176   4.350  25.239   5.850
 8091POPC   GL161177   4.342  25.273   6.150
 8091POPC   GL261178   4.428  25.159   6.150
 8091POPC   C1A61179   4.293  25.314   6.450
 8091POPC   D2A61180   4.352  25.285   6.750
 8091POPC   C3A61181   4.312  25.277   7.050
 8091POPC   C4A61182   4.297  25.264   7.350
 8091POPC   C1B61183   4.463  25.090   6.450
 8091POPC   C2B61184   4.457  25.086   6.750
 8091POPC   C3B61185   4.433  25.058   7.050
 8091POPC   C4B61186   4.437  25.053   7.350
 8092POPC   NC361187  11.271   5.118   5.550
 8092POPC   PO461188  11.304   5.085   5.850
 8092POPC   GL161189  11.292   5.062   6.150
 8092POPC   GL261190  11.378   5.051   6.150
 8092POPC   C1A61191  11.300   5.091   6.450
 8092POPC   D2A61192  11.340   5.083   6.750
 8092POPC   C3A61193  11.340   5.045   7.050
 8092POPC   C4A61194  11.317   5.054   7.350
 8092POPC   C1B61195  11.487   4.946   6.450
 8092POPC   C2B61196  11.539   4.915   6.750
 8092POPC   C3B61197  11.521   4.926   7.050
 8092POPC   C4B61198  11.475   4.938   7.350
 8093POPC   NC361199  43.130  44.693   5.550
 8093POPC   PO461200  43.080  44.650   5.850
 8093POPC   GL161201  43.061  44.686   6.150
 8093POPC   GL261202  43.020  44.653   6.150
 8093POPC   C1A61203  43.105  44.697   6.450
 8093POPC   D2A61204  43.066  44.665   6.750
 8093POPC   C3A61205  43.120  44.631   7.050
 8093POPC   C4A61206  43.084  44.671   7.350
 8093POPC   C1B61207  42.901  44.553   6.450
 8093POPC   C2B61208  42.881  44.576   6.750
 8093POPC   C3B61209  42.850  44.553   7.050
 8093POPC   C4B61210  42.910  44.546   7.350
 8094POPC   NC361211  39.201  10.528   5.550
 8094POPC   PO461212  39.214  10.485   5.850
 8094POPC   GL161213  39.208  10.514   6.150
 8094POPC   GL261214  39.069  10.439   6.150
 8094POPC   C1A61215  39.280  10.533   6.450
 8094POPC   D2A61216  39.265  10.487   6.750
 8094POPC   C3A61217  39.200  10.506   7.050
 8094POPC   C4A61218  39.184  10.541   7.350
 8094POPC   C1B61219  39.014  10.411   6.450
 8094POPC   C2B61220  39.035  10.415   6.750
 8094POPC   C3B61221  38.964  10.416   7.050
 8094POPC   C4B61222  39.047  10.414   7.350
 8095POPC   NC361223  29.141  36.137   5.550
 8095POPC   PO461224  29.129  36.133   5.850
 8095POPC   GL161225  29.119  36.114   6.150
 8095POPC   GL261226  29.161  35.965   6.150
 8095POPC   C1A61227  29.121  36.165   6.450
 8095POPC   D2A61228  29.117  36.146   6.750
 8095POPC   C3A61229  29.190  36.099   7.050
 8095POPC   C4A61230  29.159  36.173   7.350
 8095POPC   C1B61231  29.282  35.930   6.450
 8095POPC   C2B61232  29.262  35.899   6.750
 8095POPC   C3B61233  29.275  35.855   7.050
 8095POPC   C4B61234  29.285  35.911   7.350
 8096POPC   NC361235  43.070  37.659   5.550
 8096POPC   PO461236  43.093  37.645   5.850
 8096POPC   GL161237  43.154  37.635   6.150
 8096POPC   GL261238  42.980  37.768   6.150
 8096POPC   C1A61239  43.089  37.634   6.450
 8096POPC   D2A61240  43.123  37.657   6.750
 8096POPC   C3A61241  43.131  37.709   7.050
 8096POPC   C4A61242  43.156  37.674   7.350
 8096POPC   C1B61243  42.923  37.863   6.450
 8096POPC   C2B61244  42.866  37.837   6.750
 8096POPC   C3B61245  42.953  37.819   7.050
 8096POPC   C4B61246  42.905  37.863   7.350
 8097POPC   NC361247  30.702  16.747   5.550
 8097POPC   PO461248  30.735  16.768   5.850
 8097POPC   GL161249  30.733  16.681   6.150
 8097POPC   GL261250  30.556  16.786   6.150
 8097POPC   C1A61251  30.664  16.691   6.450
 8097POPC   D2A61252  30.666  16.706   6.750
 8097POPC   C3A61253  30.720  16.737   7.050
 8097POPC   C4A61254  30.689  16.686   7.350
 8097POPC   C1B61255  30.464  16.785   6.450
 8097POPC   C2B61256  30.457  16.804   6.750
 8097POPC   C3B61257  30.440  16.752   7.050
 8097POPC   C4B61258  30.463  16.789   7.350
 8098POPC   NC361259  32.282  36.928   5.550
 8098POPC   PO461260  32.241  36.873   5.850
 8098POPC   GL161261  32.235  36.941   6.150
 8098POPC   GL261262  32.236  37.030   6.150
 8098POPC   C1A61263  32.289  36.926   6.450
 8098POPC   D2A61264  32.253  36.869   6.750
 8098POPC   C3A61265  32.214  36.867   7.050
 8098POPC   C4A61266  32.298  36.917   7.350
 8098POPC   C1B61267  32.305  37.166   6.450
 8098POPC   C2B61268  32.293  37.141   6.750
 8098POPC   C3B61269  32.293  37.190   7.050
 8098POPC   C4B61270  32.257  37.150   7.350
 8099POPC   NC361271  20.655  19.794   5.550
 8099POPC   PO461272  20.655  19.827   5.850
 8099POPC   GL161273  20.651  19.853   6.150
 8099POPC   GL261274  20.588  19.762   6.150
 8099POPC   C1A61275  20.596  19.864   6.450
 8099POPC   D2A61276  20.596  19.786   6.750
 8099POPC   C3A61277  20.655  19.855   7.050
 8099POPC   C4A61278  20.642  19.806   7.350
 8099POPC   C1B61279  20.444  19.645   6.450
 8099POPC   C2B61280  20.515  19.578   6.750
 8099POPC   C3B61281  20.437  19.671   7.050
 8099POPC   C4B61282  20.457  19.581   7.350
 8100POPC   NC361283  38.496  23.686   5.550
 8100POPC   PO461284  38.406  23.735   5.850
 8100POPC   GL161285  38.439  23.714   6.150
 8100POPC   GL261286  38.379  23.798   6.150
 8100POPC   C1A61287  38.422  23.732   6.450
 8100POPC   D2A61288  38.418  23.673   6.750
 8100POPC   C3A61289  38.442  23.741   7.050
 8100POPC   C4A61290  38.478  23.714   7.350
 8100POPC   C1B61291  38.276  23.861   6.450
 8100POPC   C2B61292  38.254  23.922   6.750
 8100POPC   C3B61293  38.317  23.900   7.050
 8100POPC   C4B61294  38.225  23.897   7.350
 8101POPC   NC361295   5.877  17.489   5.550
 8101POPC   PO461296   5.868  17.545   5.850
 8101POPC   GL161297   5.847  17.528   6.150
 8101POPC   GL261298   5.744  17.540   6.150
 8101POPC   C1A61299   5.850  17.480   6.450
 8101POPC   D2A61300   5.820  17.519   6.750
 8101POPC   C3A61301   5.908  17.517   7.050
 8101POPC   C4A61302   5.835  17.488   7.350
 8101POPC   C1B61303   5.616  17.500   6.450
 8101POPC   C2B61304   5.614  17.475   6.750
 8101POPC   C3B61305   5.610  17.514   7.050
 8101POPC   C4B61306   5.571  17.510   7.350
 8102POPC   NC361307   1.217  40.743   5.550
 8102POPC   PO461308   1.188  40.824   5.850
 8102POPC   GL161309   1.223  40.833   6.150
 8102POPC   GL261310   1.127  40.719   6.150
 8102POPC   C1A61311   1.246  40.759   6.450
 8102POPC   D2A61312   1.172  40.821   6.750
 8102POPC   C3A61313   1.226  40.780   7.050
 8102POPC   C4A61314   1.188  40.784   7.350
 8102POPC   C1B61315   0.981  40.668   6.450
 8102POPC   C2B61316   0.967  40.678   6.750
 8102POPC   C3B61317   0.985  40.605   7.050
 8102POPC   C4B61318   0.961  40.660   7.350
 8103POPC   NC361319  16.002  26.022   5.550
 8103POPC   PO461320  15.909  26.061   5.850
 8103POPC   GL161321  15.947  26.017   6.150
 8103POPC   GL261322  16.039  25.879   6.150
 8103POPC   C1A61323  15.919  26.070   6.450
 8103POPC   D2A61324  15.973  25.996   6.750
 8103POPC   C3A61325  15.953  26.066   7.050
 8103POPC   C4A61326  15.927  26.030   7.350
 8103POPC   C1B61327  16.015  25.816   6.450
 8103POPC   C2B61328  15.992  25.758   6.750
 8103POPC   C3B61329  16.016  25.846   7.050
 8103POPC   C4B61330  16.044  25.775   7.350
 8104POPC   NC361331  15.946  24.515   5.550
 8104POPC   PO461332  15.934  24.496   5.850
 8104POPC   GL161333  15.987  24.508   6.150
 8104POPC   GL261334  15.879  24.543   6.150
 8104POPC   C1A61335  15.935  24.513   6.450
 8104POPC   D2A61336  15.922  24.529   6.750
 8104POPC   C3A61337  15.924  24.486   7.050
 8104POPC   C4A61338  15.936  24.494   7.350
 8104POPC   C1B61339  15.731  24.629   6.450
 8104POPC   C2B61340  15.745  24.618   6.750
 8104POPC   C3B61341  15.713  24.575   7.050
 8104POPC   C4B61342  15.768  24.594   7.350
 8105POPC   NC361343  13.581   9.721   5.550
 8105POPC   PO461344  13.663   9.724   5.850
 8105POPC   GL161345  13.639   9.781   6.150
 8105POPC   GL261346  13.609   9.834   6.150
 8105POPC   C1A61347  13.652   9.720   6.450
 8105POPC   D2A61348  13.579   9.737   6.750
 8105POPC   C3A61349  13.628   9.778   7.050
 8105POPC   C4A61350  13.663   9.756   7.350
 8105POPC   C1B61351  13.577   9.980   6.450
 8105POPC   C2B61352  13.609   9.960   6.750
 8105POPC   C3B61353  13.621   9.996   7.050
 8105POPC   C4B61354  13.565   9.964   7.350
 8106POPC   NC361355  15.174  15.184   5.550
 8106POPC   PO461356  15.134  15.133   5.850
 8106POPC   GL161357  15.159  15.218   6.150
 8106POPC   GL261358  15.088  15.171   6.150
 8106POPC   C1A61359  15.132  15.217   6.450
 8106POPC   D2A61360  15.167  15.133   6.750
 8106POPC   C3A61361  15.153  15.179   7.050
 8106POPC   C4A61362  15.206  15.176   7.350
 8106POPC   C1B61363  14.942  15.131   6.450
 8106POPC   C2B61364  14.944  15.079   6.750
 8106POPC   C3B61365  14.904  15.061   7.050
 8106POPC   C4B61366  14.949  15.092   7.350
 8107POPC   NC361367  12.030   1.254   5.550
 8107POPC   PO461368  12.045   1.229   5.850
 8107POPC   GL161369  12.026   1.221   6.150
 8107POPC   GL261370  12.026   1.305   6.150
 8107POPC   C1A61371  12.059   1.200   6.450
 8107POPC   D2A61372  12.110   1.207   6.750
 8107POPC   C3A61373  12.107   1.219   7.050
 8107POPC   C4A61374  12.068   1.202   7.350
 8107POPC   C1B61375  11.881   1.395   6.450
 8107POPC   C2B61376  11.890   1.403   6.750
 8107POPC   C3B61377  11.940   1.448   7.050
 8107POPC   C4B61378  11.899   1.387   7.350
 8108POPC   NC361379  15.187  19.872   5.550
 8108POPC   PO461380  15.217  19.831   5.850
 8108POPC   GL161381  15.147  19.806   6.150
 8108POPC   GL261382  15.100  19.775   6.150
 8108POPC   C1A61383  15.224  19.833   6.450
 8108POPC   D2A61384  15.152  19.875   6.750
 8108POPC   C3A61385  15.228  19.854   7.050
 8108POPC   C4A61386  15.178  19.820   7.350
 8108POPC   C1B61387  14.924  19.824   6.450
 8108POPC   C2B61388  14.923  19.845   6.750
 8108POPC   C3B61389  14.890  19.827   7.050
 8108POPC   C4B61390  14.894  19.788   7.350
 8109POPC   NC361391  42.379  43.869   5.550
 8109POPC   PO461392  42.342  43.879   5.850
 8109POPC   GL161393  42.352  43.862   6.150
 8109POPC   GL261394  42.316  44.007   6.150
 8109POPC   C1A61395  42.338  43.870   6.450
 8109POPC   D2A61396  42.340  43.912   6.750
 8109POPC   C3A61397  42.363  43.885   7.050
 8109POPC   C4A61398  42.353  43.878   7.350
 8109POPC   C1B61399  42.210  44.118   6.450
 8109POPC   C2B61400  42.272  44.108   6.750
 8109POPC   C3B61401  42.231  44.092   7.050
 8109POPC   C4B61402  42.269  44.158   7.350
 8110POPC   NC361403  14.392  17.459   5.550
 8110POPC   PO461404  14.359  17.523   5.850
 8110POPC   GL161405  14.434  17.490   6.150
 8110POPC   GL261406  14.517  17.527   6.150
 8110POPC   C1A61407  14.446  17.474   6.450
 8110POPC   D2A61408  14.359  17.542   6.750
 8110POPC   C3A61409  14.441  17.522   7.050
 8110POPC   C4A61410  14.401  17.546   7.350
 8110POPC   C1B61411  14.677  17.426   6.450
 8110POPC   C2B61412  14.684  17.453   6.750
 8110POPC   C3B61413  14.649  17.495   7.050
 8110POPC   C4B61414  14.602  17.456   7.350
 8111POPC   NC361415  24.502  36.931   5.550
 8111POPC   PO461416  24.524  36.866   5.850
 8111POPC   GL161417  24.470  36.952   6.150
 8111POPC   GL261418  24.343  36.976   6.150
 8111POPC   C1A61419  24.486  36.880   6.450
 8111POPC   D2A61420  24.449  36.909   6.750
 8111POPC   C3A61421  24.470  36.934   7.050
 8111POPC   C4A61422  24.497  36.921   7.350
 8111POPC   C1B61423  24.254  37.024   6.450
 8111POPC   C2B61424  24.263  36.990   6.750
 8111POPC   C3B61425  24.232  36.987   7.050
 8111POPC   C4B61426  24.296  36.975   7.350
 8112POPC   NC361427  40.735   1.994   5.550
 8112POPC   PO461428  40.824   2.004   5.850
 8112POPC   GL161429  40.739   1.997   6.150
 8112POPC   GL261430  40.877   1.973   6.150
 8112POPC   C1A61431  40.737   1.965   6.450
 8112POPC   D2A61432  40.778   1.952   6.750
 8112POPC   C3A61433  40.814   1.968   7.050
 8112POPC   C4A61434  40.799   1.957   7.350
 8112POPC   C1B61435  41.053   1.922   6.450
 8112POPC   C2B61436  41.021   1.855   6.750
 8112POPC   C3B61437  40.996   1.913   7.050
 8112POPC   C4B61438  41.030   1.879   7.350
 8113POPC   NC361439  41.567  12.893   5.550
 8113POPC   PO461440  41.587  12.842   5.850
 8113POPC   GL161441  41.590  12.853   6.150
 8113POPC   GL261442  41.543  12.715   6.150
 8113POPC   C1A61443  41.533  12.847   6.450
 8113POPC   D2A61444  41.593  12.899   6.750
 8113POPC   C3A61445  41.533  12.838   7.050
 8113POPC   C4A61446  41.585  12.894   7.350
 8113POPC   C1B61447  41.533  12.637   6.450
 8113POPC   C2B61448  41.555  12.603   6.750
 8113POPC   C3B61449  41.561  12.566   7.050
 8113POPC   C4B61450  41.528  12.618   7.350
 8114POPC   NC361451  41.589  21.412   5.550
 8114POPC   PO461452  41.510  21.382   5.850
 8114POPC   GL161453  41.556  21.360   6.150
 8114POPC   GL261454  41.444  21.453   6.150
 8114POPC   C1A61455  41.557  21.343   6.450
 8114POPC   D2A61456  41.604  21.345   6.750
 8114POPC   C3A61457  41.567  21.419   7.050
 8114POPC   C4A61458  41.565  21.389   7.350
 8114POPC   C1B61459  41.397  21.476   6.450
 8114POPC   C2B61460  41.388  21.548   6.750
 8114POPC   C3B61461  41.305  21.554   7.050
 8114POPC   C4B61462  41.334  21.541   7.350
 8115POPC   NC361463  20.568  39.279   5.550
 8115POPC   PO461464  20.583  39.205   5.850
 8115POPC   GL161465  20.639  39.191   6.150
 8115POPC   GL261466  20.599  39.070   6.150
 8115POPC   C1A61467  20.570  39.231   6.450
 8115POPC   D2A61468  20.573  39.218   6.750
 8115POPC   C3A61469  20.655  39.263   7.050
 8115POPC   C4A61470  20.606  39.233   7.350
 8115POPC   C1B61471  20.549  39.002   6.450
 8115POPC   C2B61472  20.556  39.022   6.750
 8115POPC   C3B61473  20.495  38.994   7.050
 8115POPC   C4B61474  20.496  39.032   7.350
 8116POPC   NC361475   7.428  43.147   5.550
 8116POPC   PO461476   7.403  43.066   5.850
 8116POPC   GL161477   7.457  43.131   6.150
 8116POPC   GL261478   7.309  43.123   6.150
 8116POPC   C1A61479   7.465  43.139   6.450
 8116POPC   D2A61480   7.417  43.152   6.750
 8116POPC   C3A61481   7.467  43.145   7.050
 8116POPC   C4A61482   7.436  43.096   7.350
 8116POPC   C1B61483   7.165  43.074   6.450
 8116POPC   C2B61484   7.175  43.071   6.750
 8116POPC   C3B61485   7.167  43.097   7.050
 8116POPC   C4B61486   7.199  43.032   7.350
 8117POPC   NC361487  35.335  25.273   5.550
 8117POPC   PO461488  35.359  25.306   5.850
 8117POPC   GL161489  35.365  25.264   6.150
 8117POPC   GL261490  35.352  25.345   6.150
 8117POPC   C1A61491  35.376  25.295   6.450
 8117POPC   D2A61492  35.307  25.308   6.750
 8117POPC   C3A61493  35.395  25.307   7.050
 8117POPC   C4A61494  35.360  25.277   7.350
 8117POPC   C1B61495  35.364  25.506   6.450
 8117POPC   C2B61496  35.357  25.500   6.750
 8117POPC   C3B61497  35.353  25.483   7.050
 8117POPC   C4B61498  35.288  25.478   7.350
 8118POPC   NC361499  30.694  43.071   5.550
 8118POPC   PO461500  30.650  43.119   5.850
 8118POPC   GL161501  30.662  43.127   6.150
 8118POPC   GL261502  30.638  42.997   6.150
 8118POPC   C1A61503  30.673  43.069   6.450
 8118POPC   D2A61504  30.703  43.160   6.750
 8118POPC   C3A61505  30.657  43.105   7.050
 8118POPC   C4A61506  30.731  43.112   7.350
 8118POPC   C1B61507  30.668  42.841   6.450
 8118POPC   C2B61508  30.649  42.894   6.750
 8118POPC   C3B61509  30.618  42.835   7.050
 8118POPC   C4B61510  30.597  42.849   7.350
 8119POPC   NC361511  11.295  22.936   5.550
 8119POPC   PO461512  11.259  22.937   5.850
 8119POPC   GL161513  11.326  22.929   6.150
 8119POPC   GL261514  11.385  22.964   6.150
 8119POPC   C1A61515  11.264  22.930   6.450
 8119POPC   D2A61516  11.262  22.969   6.750
 8119POPC   C3A61517  11.347  22.917   7.050
 8119POPC   C4A61518  11.290  22.941   7.350
 8119POPC   C1B61519  11.561  22.942   6.450
 8119POPC   C2B61520  11.506  22.942   6.750
 8119POPC   C3B61521  11.544  22.959   7.050
 8119POPC   C4B61522  11.553  22.898   7.350
 8120POPC   NC361523  29.952  42.359   5.550
 8120POPC   PO461524  29.899  42.374   5.850
 8120POPC   GL161525  29.966  42.323   6.150
 8120POPC   GL261526  29.945  42.410   6.150
 8120POPC   C1A61527  29.889  42.354   6.450
 8120POPC   D2A61528  29.884  42.316   6.750
 8120POPC   C3A61529  29.871  42.298   7.050
 8120POPC   C4A61530  29.923  42.292   7.350
 8120POPC   C1B61531  30.026  42.577   6.450
 8120POPC   C2B61532  30.029  42.566   6.750
 8120POPC   C3B61533  29.983  42.533   7.050
 8120POPC   C4B61534  29.976  42.554   7.350
 8121POPC   NC361535   5.894  13.622   5.550
 8121POPC   PO461536   5.827  13.622   5.850
 8121POPC   GL161537   5.876  13.616   6.150
 8121POPC   GL261538   5.949  13.572   6.150
 8121POPC   C1A61539   5.882  13.650   6.450
 8121POPC   D2A61540   5.841  13.661   6.750
 8121POPC   C3A61541   5.853  13.635   7.050
 8121POPC   C4A61542   5.824  13.594   7.350
 8121POPC   C1B61543   6.095  13.485   6.450
 8121POPC   C2B61544   6.045  13.543   6.750
 8121POPC   C3B61545   6.122  13.503   7.050
 8121POPC   C4B61546   6.081  13.461   7.350
 8122POPC   NC361547  23.681  43.896   5.550
 8122POPC   PO461548  23.698  43.891   5.850
 8122POPC   GL161549  23.693  43.930   6.150
 8122POPC   GL261550  23.605  43.826   6.150
 8122POPC   C1A61551  23.752  43.843   6.450
 8122POPC   D2A61552  23.758  43.843   6.750
 8122POPC   C3A61553  23.749  43.865   7.050
 8122POPC   C4A61554  23.683  43.853   7.350
 8122POPC   C1B61555  23.435  43.858   6.450
 8122POPC   C2B61556  23.509  43.844   6.750
 8122POPC   C3B61557  23.422  43.875   7.050
 8122POPC   C4B61558  23.421  43.874   7.350
 8123POPC   NC361559  41.512  17.472   5.550
 8123POPC   PO461560  41.601  17.539   5.850
 8123POPC   GL161561  41.537  17.484   6.150
 8123POPC   GL261562  41.464  17.562   6.150
 8123POPC   C1A61563  41.594  17.490   6.450
 8123POPC   D2A61564  41.583  17.496   6.750
 8123POPC   C3A61565  41.607  17.534   7.050
 8123POPC   C4A61566  41.608  17.491   7.350
 8123POPC   C1B61567  41.380  17.730   6.450
 8123POPC   C2B61568  41.350  17.684   6.750
 8123POPC   C3B61569  41.377  17.690   7.050
 8123POPC   C4B61570  41.353  17.715   7.350
 8124POPC   NC361571  38.467  32.258   5.550
 8124POPC   PO461572  38.413  32.266   5.850
 8124POPC   GL161573  38.463  32.207   6.150
 8124POPC   GL261574  38.365  32.319   6.150
 8124POPC   C1A61575  38.408  32.223   6.450
 8124POPC   D2A61576  38.450  32.237   6.750
 8124POPC   C3A61577  38.413  32.286   7.050
 8124POPC   C4A61578  38.484  32.207   7.350
 8124POPC   C1B61579  38.189  32.311   6.450
 8124POPC   C2B61580  38.168  32.290   6.750
 8124POPC   C3B61581  38.169  32.335   7.050
 8124POPC   C4B61582  38.237  32.308   7.350
 8125POPC   NC361583  12.115  34.573   5.550
 8125POPC   PO461584  12.084  34.594   5.850
 8125POPC   GL161585  12.103  34.533   6.150
 8125POPC   GL261586  11.907  34.535   6.150
 8125POPC   C1A61587  12.060  34.560   6.450
 8125POPC   D2A61588  12.027  34.622   6.750
 8125POPC   C3A61589  12.081  34.568   7.050
 8125POPC   C4A61590  12.079  34.589   7.350
 8125POPC   C1B61591  11.823  34.509   6.450
 8125POPC   C2B61592  11.821  34.496   6.750
 8125POPC   C3B61593  11.859  34.478   7.050
 8125POPC   C4B61594  11.863  34.552   7.350
 8126POPC   NC361595  17.524   4.367   5.550
 8126POPC   PO461596  17.548   4.330   5.850
 8126POPC   GL161597  17.458   4.345   6.150
 8126POPC   GL261598  17.366   4.393   6.150
 8126POPC   C1A61599  17.488   4.306   6.450
 8126POPC   D2A61600  17.556   4.340   6.750
 8126POPC   C3A61601  17.531   4.308   7.050
 8126POPC   C4A61602  17.551   4.354   7.350
 8126POPC   C1B61603  17.372   4.438   6.450
 8126POPC   C2B61604  17.306   4.437   6.750
 8126POPC   C3B61605  17.362   4.442   7.050
 8126POPC   C4B61606  17.313   4.454   7.350
 8127POPC   NC361607  12.827   1.230   5.550
 8127POPC   PO461608  12.866   1.179   5.850
 8127POPC   GL161609  12.835   1.230   6.150
 8127POPC   GL261610  12.788   1.253   6.150
 8127POPC   C1A61611  12.883   1.246   6.450
 8127POPC   D2A61612  12.860   1.208   6.750
 8127POPC   C3A61613  12.894   1.204   7.050
 8127POPC   C4A61614  12.835   1.183   7.350
 8127POPC   C1B61615  12.705   1.407   6.450
 8127POPC   C2B61616  12.715   1.343   6.750
 8127POPC   C3B61617  12.633   1.403   7.050
 8127POPC   C4B61618  12.693   1.367   7.350
 8128POPC   NC361619  26.797   6.609   5.550
 8128POPC   PO461620  26.823   6.603   5.850
 8128POPC   GL161621  26.771   6.683   6.150
 8128POPC   GL261622  26.948   6.662   6.150
 8128POPC   C1A61623  26.798   6.624   6.450
 8128POPC   D2A61624  26.856   6.672   6.750
 8128POPC   C3A61625  26.785   6.671   7.050
 8128POPC   C4A61626  26.855   6.604   7.350
 8128POPC   C1B61627  27.073   6.737   6.450
 8128POPC   C2B61628  27.008   6.733   6.750
 8128POPC   C3B61629  27.050   6.710   7.050
 8128POPC   C4B61630  27.000   6.752   7.350
 8129POPC   NC361631  34.601  12.087   5.550
 8129POPC   PO461632  34.566  12.088   5.850
 8129POPC   GL161633  34.609  12.027   6.150
 8129POPC   GL261634  34.602  11.910   6.150
 8129POPC   C1A61635  34.530  12.117   6.450
 8129POPC   D2A61636  34.556  12.120   6.750
 8129POPC   C3A61637  34.593  12.062   7.050
 8129POPC   C4A61638  34.560  12.108   7.350
 8129POPC   C1B61639  34.637  11.783   6.450
 8129POPC   C2B61640  34.675  11.815   6.750
 8129POPC   C3B61641  34.581  11.857   7.050
 8129POPC   C4B61642  34.679  11.786   7.350
 8130POPC   NC361643  41.538  29.923   5.550
 8130POPC   PO461644  41.512  29.886   5.850
 8130POPC   GL161645  41.565  29.937   6.150
 8130POPC   GL261646  41.513  30.034   6.150
 8130POPC   C1A61647  41.528  29.883   6.450
 8130POPC   D2A61648  41.564  29.892   6.750
 8130POPC   C3A61649  41.543  29.919   7.050
 8130POPC   C4A61650  41.560  29.884   7.350
 8130POPC   C1B61651  41.420  30.146   6.450
 8130POPC   C2B61652  41.417  30.095   6.750
 8130POPC   C3B61653  41.411  30.103   7.050
 8130POPC   C4B61654  41.412  30.156   7.350
 8131POPC   NC361655  32.208  29.181   5.550
 8131POPC   PO461656  32.280  29.129   5.850
 8131POPC   GL161657  32.220  29.116   6.150
 8131POPC   GL261658  32.114  29.238   6.150
 8131POPC   C1A61659  32.216  29.128   6.450
 8131POPC   D2A61660  32.208  29.173   6.750
 8131POPC   C3A61661  32.268  29.100   7.050
 8131POPC   C4A61662  32.215  29.099   7.350
 8131POPC   C1B61663  32.055  29.269   6.450
 8131POPC   C2B61664  32.004  29.217   6.750
 8131POPC   C3B61665  32.059  29.210   7.050
 8131POPC   C4B61666  32.039  29.228   7.350
 8132POPC   NC361667  42.325  39.997   5.550
 8132POPC   PO461668  42.380  40.026   5.850
 8132POPC   GL161669  42.299  39.971   6.150
 8132POPC   GL261670  42.412  39.857   6.150
 8132POPC   C1A61671  42.322  39.996   6.450
 8132POPC   D2A61672  42.355  40.010   6.750
 8132POPC   C3A61673  42.326  40.007   7.050
 8132POPC   C4A61674  42.303  40.014   7.350
 8132POPC   C1B61675  42.443  39.760   6.450
 8132POPC   C2B61676  42.351  39.798   6.750
 8132POPC   C3B61677  42.419  39.787   7.050
 8132POPC   C4B61678  42.408  39.762   7.350
 8133POPC   NC361679  39.260   9.723   5.550
 8133POPC   PO461680  39.225   9.710   5.850
 8133POPC   GL161681  39.204   9.736   6.150
 8133POPC   GL261682  39.210   9.582   6.150
 8133POPC   C1A61683  39.230   9.742   6.450
 8133POPC   D2A61684  39.277   9.720   6.750
 8133POPC   C3A61685  39.270   9.789   7.050
 8133POPC   C4A61686  39.230   9.788   7.350
 8133POPC   C1B61687  39.275   9.456   6.450
 8133POPC   C2B61688  39.247   9.545   6.750
 8133POPC   C3B61689  39.211   9.472   7.050
 8133POPC   C4B61690  39.257   9.476   7.350
 8134POPC   NC361691  35.376  21.367   5.550
 8134POPC   PO461692  35.395  21.379   5.850
 8134POPC   GL161693  35.353  21.409   6.150
 8134POPC   GL261694  35.412  21.334   6.150
 8134POPC   C1A61695  35.375  21.390   6.450
 8134POPC   D2A61696  35.356  21.378   6.750
 8134POPC   C3A61697  35.344  21.348   7.050
 8134POPC   C4A61698  35.341  21.375   7.350
 8134POPC   C1B61699  35.587  21.250   6.450
 8134POPC   C2B61700  35.596  21.258   6.750
 8134POPC   C3B61701  35.581  21.271   7.050
 8134POPC   C4B61702  35.531  21.213   7.350
 8135POPC   NC361703  35.335   8.184   5.550
 8135POPC   PO461704  35.344   8.166   5.850
 8135POPC   GL161705  35.374   8.172   6.150
 8135POPC   GL261706  35.425   8.066   6.150
 8135POPC   C1A61707  35.341   8.197   6.450
 8135POPC   D2A61708  35.322   8.230   6.750
 8135POPC   C3A61709  35.326   8.232   7.050
 8135POPC   C4A61710  35.360   8.166   7.350
 8135POPC   C1B61711  35.392   7.945   6.450
 8135POPC   C2B61712  35.441   7.911   6.750
 8135POPC   C3B61713  35.477   7.985   7.050
 8135POPC   C4B61714  35.396   7.949   7.350
 8136POPC   NC361715   0.440   8.196   5.550
 8136POPC   PO461716   0.472   8.198   5.850
 8136POPC   GL161717   0.429   8.246   6.150
 8136POPC   GL261718   0.587   8.214   6.150
 8136POPC   C1A61719   0.437   8.215   6.450
 8136POPC   D2A61720   0.467   8.166   6.750
 8136POPC   C3A61721   0.439   8.215   7.050
 8136POPC   C4A61722   0.419   8.148   7.350
 8136POPC   C1B61723   0.644   8.207   6.450
 8136POPC   C2B61724   0.643   8.156   6.750
 8136POPC   C3B61725   0.667   8.179   7.050
 8136POPC   C4B61726   0.643   8.194   7.350
 8137POPC   NC361727  19.084  42.340   5.550
 8137POPC   PO461728  19.105  42.323   5.850
 8137POPC   GL161729  19.057  42.353   6.150
 8137POPC   GL261730  18.898  42.340   6.150
 8137POPC   C1A61731  19.022  42.342   6.450
 8137POPC   D2A61732  19.037  42.372   6.750
 8137POPC   C3A61733  19.030  42.286   7.050
 8137POPC   C4A61734  19.080  42.319   7.350
 8137POPC   C1B61735  18.858  42.221   6.450
 8137POPC   C2B61736  18.839  42.288   6.750
 8137POPC   C3B61737  18.787  42.223   7.050
 8137POPC   C4B61738  18.801  42.301   7.350
 8138POPC   NC361739   8.958  28.346   5.550
 8138POPC   PO461740   8.991  28.395   5.850
 8138POPC   GL161741   8.977  28.321   6.150
 8138POPC   GL261742   8.898  28.384   6.150
 8138POPC   C1A61743   8.947  28.329   6.450
 8138POPC   D2A61744   8.953  28.339   6.750
 8138POPC   C3A61745   8.989  28.408   7.050
 8138POPC   C4A61746   8.958  28.327   7.350
 8138POPC   C1B61747   8.750  28.438   6.450
 8138POPC   C2B61748   8.774  28.496   6.750
 8138POPC   C3B61749   8.759  28.432   7.050
 8138POPC   C4B61750   8.739  28.474   7.350
 8139POPC   NC361751  22.147  35.374   5.550
 8139POPC   PO461752  22.189  35.326   5.850
 8139POPC   GL161753  22.152  35.332   6.150
 8139POPC   GL261754  22.136  35.455   6.150
 8139POPC   C1A61755  22.177  35.341   6.450
 8139POPC   D2A61756  22.190  35.315   6.750
 8139POPC   C3A61757  22.209  35.399   7.050
 8139POPC   C4A61758  22.168  35.306   7.350
 8139POPC   C1B61759  22.090  35.596   6.450
 8139POPC   C2B61760  22.017  35.583   6.750
 8139POPC   C3B61761  22.049  35.614   7.050
 8139POPC   C4B61762  22.023  35.587   7.350
 8140POPC   NC361763  26.813  17.508   5.550
 8140POPC   PO461764  26.845  17.461   5.850
 8140POPC   GL161765  26.805  17.527   6.150
 8140POPC   GL261766  26.778  17.367   6.150
 8140POPC   C1A61767  26.811  17.499   6.450
 8140POPC   D2A61768  26.834  17.515   6.750
 8140POPC   C3A61769  26.836  17.530   7.050
 8140POPC   C4A61770  26.827  17.532   7.350
 8140POPC   C1B61771  26.717  17.236   6.450
 8140POPC   C2B61772  26.661  17.262   6.750
 8140POPC   C3B61773  26.678  17.244   7.050
 8140POPC   C4B61774  26.709  17.270   7.350
 8141POPC   NC361775   5.059  26.832   5.550
 8141POPC   PO461776   5.099  26.775   5.850
 8141POPC   GL161777   5.065  26.844   6.150
 8141POPC   GL261778   5.222  26.917   6.150
 8141POPC   C1A61779   5.074  26.794   6.450
 8141POPC   D2A61780   5.067  26.800   6.750
 8141POPC   C3A61781   5.045  26.848   7.050
 8141POPC   C4A61782   5.130  26.779   7.350
 8141POPC   C1B61783   5.333  26.917   6.450
 8141POPC   C2B61784   5.271  26.972   6.750
 8141POPC   C3B61785   5.298  26.960   7.050
 8141POPC   C4B61786   5.297  26.903   7.350
 8142POPC   NC361787  36.925  26.047   5.550
 8142POPC   PO461788  36.918  26.056   5.850
 8142POPC   GL161789  36.945  26.042   6.150
 8142POPC   GL261790  37.016  26.085   6.150
 8142POPC   C1A61791  36.949  25.994   6.450
 8142POPC   D2A61792  36.908  26.086   6.750
 8142POPC   C3A61793  36.903  26.007   7.050
 8142POPC   C4A61794  36.936  26.084   7.350
 8142POPC   C1B61795  37.132  26.170   6.450
 8142POPC   C2B61796  37.086  26.096   6.750
 8142POPC   C3B61797  37.140  26.132   7.050
 8142POPC   C4B61798  37.114  26.135   7.350
 8143POPC   NC361799  28.412  12.052   5.550
 8143POPC   PO461800  28.383  12.071   5.850
 8143POPC   GL161801  28.395  12.118   6.150
 8143POPC   GL261802  28.406  12.212   6.150
 8143POPC   C1A61803  28.372  12.068   6.450
 8143POPC   D2A61804  28.328  12.108   6.750
 8143POPC   C3A61805  28.374  12.084   7.050
 8143POPC   C4A61806  28.394  12.054   7.350
 8143POPC   C1B61807  28.340  12.284   6.450
 8143POPC   C2B61808  28.368  12.329   6.750
 8143POPC   C3B61809  28.391  12.338   7.050
 8143POPC   C4B61810  28.345  12.326   7.350
 8144POPC   NC361811  25.249   6.622   5.550
 8144POPC   PO461812  25.295   6.673   5.850
 8144POPC   GL161813  25.311   6.667   6.150
 8144POPC   GL261814  25.370   6.639   6.150
 8144POPC   C1A61815  25.268   6.669   6.450
 8144POPC   D2A61816  25.314   6.666   6.750
 8144POPC   C3A61817  25.239   6.690   7.050
 8144POPC   C4A61818  25.250   6.605   7.350
 8144POPC   C1B61819  25.500   6.622   6.450
 8144POPC   C2B61820  25.511   6.634   6.750
 8144POPC   C3B61821  25.490   6.618   7.050
 8144POPC   C4B61822  25.497   6.623   7.350
 8145POPC   NC361823  26.061  15.954   5.550
 8145POPC   PO461824  26.071  15.943   5.850
 8145POPC   GL161825  26.011  15.976   6.150
 8145POPC   GL261826  25.951  15.931   6.150
 8145POPC   C1A61827  26.044  15.910   6.450
 8145POPC   D2A61828  26.065  15.915   6.750
 8145POPC   C3A61829  26.008  15.934   7.050
 8145POPC   C4A61830  26.030  15.981   7.350
 8145POPC   C1B61831  25.791  15.950   6.450
 8145POPC   C2B61832  25.825  15.919   6.750
 8145POPC   C3B61833  25.749  15.900   7.050
 8145POPC   C4B61834  25.812  15.920   7.350
 8146POPC   NC361835  41.528  32.233   5.550
 8146POPC   PO461836  41.534  32.267   5.850
 8146POPC   GL161837  41.562  32.199   6.150
 8146POPC   GL261838  41.521  32.108   6.150
 8146POPC   C1A61839  41.579  32.297   6.450
 8146POPC   D2A61840  41.549  32.234   6.750
 8146POPC   C3A61841  41.555  32.222   7.050
 8146POPC   C4A61842  41.596  32.216   7.350
 8146POPC   C1B61843  41.391  32.059   6.450
 8146POPC   C2B61844  41.458  32.003   6.750
 8146POPC   C3B61845  41.402  32.066   7.050
 8146POPC   C4B61846  41.442  32.011   7.350
 8147POPC   NC361847   9.754   3.559   5.550
 8147POPC   PO461848   9.780   3.515   5.850
 8147POPC   GL161849   9.790   3.576   6.150
 8147POPC   GL261850   9.735   3.709   6.150
 8147POPC   C1A61851   9.761   3.587   6.450
 8147POPC   D2A61852   9.724   3.567   6.750
 8147POPC   C3A61853   9.779   3.542   7.050
 8147POPC   C4A61854   9.782   3.523   7.350
 8147POPC   C1B61855   9.712   3.822   6.450
 8147POPC   C2B61856   9.725   3.804   6.750
 8147POPC   C3B61857   9.711   3.811   7.050
 8147POPC   C4B61858   9.733   3.815   7.350
 8148POPC   NC361859  33.836   2.718   5.550
 8148POPC   PO461860  33.789   2.751   5.850
 8148POPC   GL161861  33.798   2.788   6.150
 8148POPC   GL261862  33.951   2.785   6.150
 8148POPC   C1A61863  33.763   2.736   6.450
 8148POPC   D2A61864  33.815   2.795   6.750
 8148POPC   C3A61865  33.752   2.740   7.050
 8148POPC   C4A61866  33.805   2.807   7.350
 8148POPC   C1B61867  34.091   2.739   6.450
 8148POPC   C2B61868  33.997   2.658   6.750
 8148POPC   C3B61869  34.034   2.711   7.050
 8148POPC   C4B61870  34.087   2.710   7.350
 8149POPC   NC361871  36.940  30.738   5.550
 8149POPC   PO461872  36.885  30.675   5.850
 8149POPC   GL161873  36.858  30.700   6.150
 8149POPC   GL261874  36.976  30.643   6.150
 8149POPC   C1A61875  36.924  30.733   6.450
 8149POPC   D2A61876  36.898  30.670   6.750
 8149POPC   C3A61877  36.881  30.704   7.050
 8149POPC   C4A61878  36.925  30.688   7.350
 8149POPC   C1B61879  37.076  30.525   6.450
 8149POPC   C2B61880  37.050  30.506   6.750
 8149POPC   C3B61881  37.094  30.468   7.050
 8149POPC   C4B61882  37.016  30.469   7.350
 8150POPC   NC361883  17.548  36.866   5.550
 8150POPC   PO461884  17.512  36.877   5.850
 8150POPC   GL161885  17.464  36.865   6.150
 8150POPC   GL261886  17.403  36.852   6.150
 8150POPC   C1A61887  17.459  36.928   6.450
 8150POPC   D2A61888  17.493  36.947   6.750
 8150POPC   C3A61889  17.460  36.871   7.050
 8150POPC   C4A61890  17.505  36.931   7.350
 8150POPC   C1B61891  17.287  36.800   6.450
 8150POPC   C2B61892  17.332  36.741   6.750
 8150POPC   C3B61893  17.319  36.726   7.050
 8150POPC   C4B61894  17.275  36.731   7.350
 8151POPC   NC361895   9.712  42.372   5.550
 8151POPC   PO461896   9.738  42.311   5.850
 8151POPC   GL161897   9.785  42.324   6.150
 8151POPC   GL261898   9.671  42.491   6.150
 8151POPC   C1A61899   9.767  42.303   6.450
 8151POPC   D2A61900   9.724  42.318   6.750
 8151POPC   C3A61901   9.745  42.383   7.050
 8151POPC   C4A61902   9.782  42.308   7.350
 8151POPC   C1B61903   9.631  42.528   6.450
 8151POPC   C2B61904   9.632  42.589   6.750
 8151POPC   C3B61905   9.674  42.548   7.050
 8151POPC   C4B61906   9.709  42.608   7.350
 8152POPC   NC361907   0.426  26.030   5.550
 8152POPC   PO461908   0.470  26.059   5.850
 8152POPC   GL161909   0.452  26.087   6.150
 8152POPC   GL261910   0.454  25.922   6.150
 8152POPC   C1A61911   0.392  26.056   6.450
 8152POPC   D2A61912   0.460  26.058   6.750
 8152POPC   C3A61913   0.466  26.075   7.050
 8152POPC   C4A61914   0.453  25.999   7.350
 8152POPC   C1B61915   0.506  25.840   6.450
 8152POPC   C2B61916   0.586  25.858   6.750
 8152POPC   C3B61917   0.518  25.792   7.050
 8152POPC   C4B61918   0.530  25.844   7.350
 8153POPC   NC361919  15.998   7.373   5.550
 8153POPC   PO461920  15.971   7.379   5.850
 8153POPC   GL161921  15.955   7.465   6.150
 8153POPC   GL261922  15.894   7.488   6.150
 8153POPC   C1A61923  15.913   7.439   6.450
 8153POPC   D2A61924  15.937   7.419   6.750
 8153POPC   C3A61925  15.972   7.403   7.050
 8153POPC   C4A61926  15.950   7.409   7.350
 8153POPC   C1B61927  15.794   7.598   6.450
 8153POPC   C2B61928  15.831   7.665   6.750
 8153POPC   C3B61929  15.782   7.586   7.050
 8153POPC   C4B61930  15.849   7.605   7.350
 8154POPC   NC361931   5.062  29.101   5.550
 8154POPC   PO461932   5.069  29.122   5.850
 8154POPC   GL161933   5.095  29.102   6.150
 8154POPC   GL261934   5.174  29.153   6.150
 8154POPC   C1A61935   5.134  29.103   6.450
 8154POPC   D2A61936   5.132  29.123   6.750
 8154POPC   C3A61937   5.130  29.191   7.050
 8154POPC   C4A61938   5.140  29.134   7.350
 8154POPC   C1B61939   5.341  29.176   6.450
 8154POPC   C2B61940   5.325  29.169   6.750
 8154POPC   C3B61941   5.322  29.196   7.050
 8154POPC   C4B61942   5.351  29.214   7.350
 8155POPC   NC361943  43.928  10.483   5.550
 8155POPC   PO461944  43.879  10.495   5.850
 8155POPC   GL161945  43.931  10.475   6.150
 8155POPC   GL261946  43.892  10.375   6.150
 8155POPC   C1A61947  43.845  10.534   6.450
 8155POPC   D2A61948  43.882  10.551   6.750
 8155POPC   C3A61949  43.898  10.499   7.050
 8155POPC   C4A61950  43.920  10.572   7.350
 8155POPC   C1B61951  43.839  10.317   6.450
 8155POPC   C2B61952  43.814  10.261   6.750
 8155POPC   C3B61953  43.875  10.254   7.050
 8155POPC   C4B61954  43.840  10.257   7.350
 8156POPC   NC361955  29.940  25.262   5.550
 8156POPC   PO461956  29.883  25.282   5.850
 8156POPC   GL161957  29.887  25.223   6.150
 8156POPC   GL261958  29.987  25.157   6.150
 8156POPC   C1A61959  29.885  25.296   6.450
 8156POPC   D2A61960  29.894  25.255   6.750
 8156POPC   C3A61961  29.923  25.299   7.050
 8156POPC   C4A61962  29.888  25.304   7.350
 8156POPC   C1B61963  30.056  25.055   6.450
 8156POPC   C2B61964  30.097  25.058   6.750
 8156POPC   C3B61965  30.077  25.104   7.050
 8156POPC   C4B61966  30.065  25.048   7.350
 8157POPC   NC361967   5.866  27.568   5.550
 8157POPC   PO461968   5.842  27.633   5.850
 8157POPC   GL161969   5.857  27.620   6.150
 8157POPC   GL261970   5.779  27.656   6.150
 8157POPC   C1A61971   5.916  27.553   6.450
 8157POPC   D2A61972   5.824  27.597   6.750
 8157POPC   C3A61973   5.902  27.562   7.050
 8157POPC   C4A61974   5.854  27.570   7.350
 8157POPC   C1B61975   5.641  27.686   6.450
 8157POPC   C2B61976   5.633  27.769   6.750
 8157POPC   C3B61977   5.653  27.750   7.050
 8157POPC   C4B61978   5.621  27.695   7.350
 8158POPC   NC361979  29.132  12.079   5.550
 8158POPC   PO461980  29.190  12.045   5.850
 8158POPC   GL161981  29.189  12.046   6.150
 8158POPC   GL261982  29.113  12.213   6.150
 8158POPC   C1A61983  29.133  12.050   6.450
 8158POPC   D2A61984  29.109  12.045   6.750
 8158POPC   C3A61985  29.168  12.048   7.050
 8158POPC   C4A61986  29.105  12.048   7.350
 8158POPC   C1B61987  29.142  12.356   6.450
 8158POPC   C2B61988  29.158  12.298   6.750
 8158POPC   C3B61989  29.133  12.276   7.050
 8158POPC   C4B61990  29.207  12.287   7.350
 8159POPC   NC361991  19.039  14.422   5.550
 8159POPC   PO461992  19.033  14.451   5.850
 8159POPC   GL161993  19.040  14.450   6.150
 8159POPC   GL261994  18.986  14.305   6.150
 8159POPC   C1A61995  19.105  14.372   6.450
 8159POPC   D2A61996  19.016  14.361   6.750
 8159POPC   C3A61997  19.086  14.371   7.050
 8159POPC   C4A61998  19.016  14.396   7.350
 8159POPC   C1B61999  18.892  14.280   6.450
 8159POPC   C2B62000  18.826  14.256   6.750
 8159POPC   C3B62001  18.858  14.283   7.050
 8159POPC   C4B62002  18.798  14.242   7.350
 8160POPC   NC362003  44.695  10.485   5.550
 8160POPC   PO462004  44.686  10.547   5.850
 8160POPC   GL162005  44.625  10.491   6.150
 8160POPC   GL262006  44.594  10.445   6.150
 8160POPC   C1A62007  44.635  10.482   6.450
 8160POPC   D2A62008  44.695  10.499   6.750
 8160POPC   C3A62009  44.630  10.547   7.050
 8160POPC   C4A62010  44.624  10.552   7.350
 8160POPC   C1B62011  44.401  10.419   6.450
 8160POPC   C2B62012  44.424  10.360   6.750
 8160POPC   C3B62013  44.432  10.416   7.050
 8160POPC   C4B62014  44.477  10.374   7.350
 8161POPC   NC362015  20.641  18.249   5.550
 8161POPC   PO462016  20.586  18.241   5.850
 8161POPC   GL162017  20.641  18.260   6.150
 8161POPC   GL262018  20.542  18.384   6.150
 8161POPC   C1A62019  20.620  18.247   6.450
 8161POPC   D2A62020  20.565  18.249   6.750
 8161POPC   C3A62021  20.573  18.315   7.050
 8161POPC   C4A62022  20.597  18.255   7.350
 8161POPC   C1B62023  20.377  18.463   6.450
 8161POPC   C2B62024  20.472  18.461   6.750
 8161POPC   C3B62025  20.391  18.445   7.050
 8161POPC   C4B62026  20.380  18.467   7.350
 8162POPC   NC362027  44.657  13.580   5.550
 8162POPC   PO462028  44.617  13.643   5.850
 8162POPC   GL162029  44.639  13.672   6.150
 8162POPC   GL262030  44.768  13.537   6.150
 8162POPC   C1A62031  44.627  13.656   6.450
 8162POPC   D2A62032  44.703  13.647   6.750
 8162POPC   C3A62033  44.659  13.669   7.050
 8162POPC   C4A62034  44.669  13.628   7.350
 8162POPC   C1B62035  44.836  13.525   6.450
 8162POPC   C2B62036  44.846  13.496   6.750
 8162POPC   C3B62037  44.832  13.451   7.050
 8162POPC   C4B62038  44.910  13.475   7.350
 8163POPC   NC362039  20.660  30.699   5.550
 8163POPC   PO462040  20.606  30.708   5.850
 8163POPC   GL162041  20.602  30.722   6.150
 8163POPC   GL262042  20.557  30.611   6.150
 8163POPC   C1A62043  20.654  30.666   6.450
 8163POPC   D2A62044  20.569  30.685   6.750
 8163POPC   C3A62045  20.659  30.735   7.050
 8163POPC   C4A62046  20.628  30.742   7.350
 8163POPC   C1B62047  20.515  30.484   6.450
 8163POPC   C2B62048  20.494  30.464   6.750
 8163POPC   C3B62049  20.467  30.448   7.050
 8163POPC   C4B62050  20.520  30.489   7.350
 8164POPC   NC362051  19.861  22.973   5.550
 8164POPC   PO462052  19.822  22.939   5.850
 8164POPC   GL162053  19.805  22.977   6.150
 8164POPC   GL262054  19.770  23.053   6.150
 8164POPC   C1A62055  19.795  22.965   6.450
 8164POPC   D2A62056  19.837  22.963   6.750
 8164POPC   C3A62057  19.793  22.984   7.050
 8164POPC   C4A62058  19.786  22.936   7.350
 8164POPC   C1B62059  19.778  23.178   6.450
 8164POPC   C2B62060  19.695  23.186   6.750
 8164POPC   C3B62061  19.742  23.162   7.050
 8164POPC   C4B62062  19.721  23.209   7.350
 8165POPC   NC362063  11.266  15.955   5.550
 8165POPC   PO462064  11.254  15.975   5.850
 8165POPC   GL162065  11.282  15.959   6.150
 8165POPC   GL262066  11.211  16.095   6.150
 8165POPC   C1A62067  11.291  15.953   6.450
 8165POPC   D2A62068  11.306  15.987   6.750
 8165POPC   C3A62069  11.267  15.978   7.050
 8165POPC   C4A62070  11.346  15.932   7.350
 8165POPC   C1B62071  11.162  16.224   6.450
 8165POPC   C2B62072  11.250  16.200   6.750
 8165POPC   C3B62073  11.241  16.216   7.050
 8165POPC   C4B62074  11.229  16.229   7.350
 8166POPC   NC362075  39.253   2.724   5.550
 8166POPC   PO462076  39.200   2.783   5.850
 8166POPC   GL162077  39.189   2.814   6.150
 8166POPC   GL262078  39.358   2.715   6.150
 8166POPC   C1A62079  39.240   2.739   6.450
 8166POPC   D2A62080  39.261   2.720   6.750
 8166POPC   C3A62081  39.227   2.748   7.050
 8166POPC   C4A62082  39.225   2.721   7.350
 8166POPC   C1B62083  39.382   2.588   6.450
 8166POPC   C2B62084  39.362   2.541   6.750
 8166POPC   C3B62085  39.384   2.520   7.050
 8166POPC   C4B62086  39.423   2.536   7.350
 8167POPC   NC362087  20.580  25.289   5.550
 8167POPC   PO462088  20.640  25.236   5.850
 8167POPC   GL162089  20.593  25.261   6.150
 8167POPC   GL262090  20.501  25.384   6.150
 8167POPC   C1A62091  20.624  25.261   6.450
 8167POPC   D2A62092  20.654  25.284   6.750
 8167POPC   C3A62093  20.610  25.307   7.050
 8167POPC   C4A62094  20.636  25.281   7.350
 8167POPC   C1B62095  20.495  25.447   6.450
 8167POPC   C2B62096  20.489  25.424   6.750
 8167POPC   C3B62097  20.437  25.435   7.050
 8167POPC   C4B62098  20.481  25.472   7.350
 8168POPC   NC362099  26.854  41.536   5.550
 8168POPC   PO462100  26.852  41.544   5.850
 8168POPC   GL162101  26.827  41.532   6.150
 8168POPC   GL262102  26.790  41.684   6.150
 8168POPC   C1A62103  26.867  41.563   6.450
 8168POPC   D2A62104  26.779  41.540   6.750
 8168POPC   C3A62105  26.849  41.527   7.050
 8168POPC   C4A62106  26.797  41.521   7.350
 8168POPC   C1B62107  26.801  41.770   6.450
 8168POPC   C2B62108  26.806  41.851   6.750
 8168POPC   C3B62109  26.775  41.789   7.050
 8168POPC   C4B62110  26.831  41.826   7.350
 8169POPC   NC362111  28.348  13.585   5.550
 8169POPC   PO462112  28.373  13.643   5.850
 8169POPC   GL162113  28.387  13.633   6.150
 8169POPC   GL262114  28.405  13.511   6.150
 8169POPC   C1A62115  28.366  13.657   6.450
 8169POPC   D2A62116  28.373  13.618   6.750
 8169POPC   C3A62117  28.355  13.666   7.050
 8169POPC   C4A62118  28.375  13.613   7.350
 8169POPC   C1B62119  28.505  13.443   6.450
 8169POPC   C2B62120  28.542  13.430   6.750
 8169POPC   C3B62121  28.550  13.425   7.050
 8169POPC   C4B62122  28.491  13.493   7.350
 8170POPC   NC362123  31.478  23.751   5.550
 8170POPC   PO462124  31.439  23.738   5.850
 8170POPC   GL162125  31.512  23.728   6.150
 8170POPC   GL262126  31.578  23.596   6.150
 8170POPC   C1A62127  31.513  23.754   6.450
 8170POPC   D2A62128  31.425  23.672   6.750
 8170POPC   C3A62129  31.500  23.739   7.050
 8170POPC   C4A62130  31.440  23.729   7.350
 8170POPC   C1B62131  31.645  23.509   6.450
 8170POPC   C2B62132  31.644  23.532   6.750
 8170POPC   C3B62133  31.548  23.467   7.050
 8170POPC   C4B62134  31.647  23.537   7.350
 8171POPC   NC362135  37.712   0.459   5.550
 8171POPC   PO462136  37.671   0.436   5.850
 8171POPC   GL162137  37.695   0.414   6.150
 8171POPC   GL262138  37.521   0.430   6.150
 8171POPC   C1A62139  37.655   0.469   6.450
 8171POPC   D2A62140  37.676   0.465   6.750
 8171POPC   C3A62141  37.685   0.400   7.050
 8171POPC   C4A62142  37.709   0.476   7.350
 8171POPC   C1B62143  37.445   0.309   6.450
 8171POPC   C2B62144  37.438   0.377   6.750
 8171POPC   C3B62145  37.487   0.374   7.050
 8171POPC   C4B62146  37.482   0.318   7.350
 8172POPC   NC362147  33.796  19.084   5.550
 8172POPC   PO462148  33.829  19.025   5.850
 8172POPC   GL162149  33.792  19.087   6.150
 8172POPC   GL262150  33.921  18.945   6.150
 8172POPC   C1A62151  33.767  19.010   6.450
 8172POPC   D2A62152  33.821  19.090   6.750
 8172POPC   C3A62153  33.776  19.090   7.050
 8172POPC   C4A62154  33.827  19.065   7.350
 8172POPC   C1B62155  33.942  18.867   6.450
 8172POPC   C2B62156  33.947  18.876   6.750
 8172POPC   C3B62157  33.978  18.837   7.050
 8172POPC   C4B62158  33.975  18.843   7.350
 8173POPC   NC362159   8.952  33.790   5.550
 8173POPC   PO462160   8.934  33.829   5.850
 8173POPC   GL162161   8.998  33.820   6.150
 8173POPC   GL262162   9.035  33.683   6.150
 8173POPC   C1A62163   8.965  33.832   6.450
 8173POPC   D2A62164   8.981  33.830   6.750
 8173POPC   C3A62165   8.962  33.790   7.050
 8173POPC   C4A62166   8.988  33.751   7.350
 8173POPC   C1B62167   9.047  33.539   6.450
 8173POPC   C2B62168   9.069  33.557   6.750
 8173POPC   C3B62169   9.081  33.601   7.050
 8173POPC   C4B62170   9.023  33.515   7.350
 8174POPC   NC362171  38.423  20.568   5.550
 8174POPC   PO462172  38.460  20.587   5.850
 8174POPC   GL162173  38.472  20.658   6.150
 8174POPC   GL262174  38.592  20.482   6.150
 8174POPC   C1A62175  38.478  20.626   6.450
 8174POPC   D2A62176  38.481  20.568   6.750
 8174POPC   C3A62177  38.472  20.654   7.050
 8174POPC   C4A62178  38.459  20.563   7.350
 8174POPC   C1B62179  38.664  20.404   6.450
 8174POPC   C2B62180  38.605  20.393   6.750
 8174POPC   C3B62181  38.647  20.392   7.050
 8174POPC   C4B62182  38.657  20.485   7.350
 8175POPC   NC362183  24.507  21.431   5.550
 8175POPC   PO462184  24.534  21.414   5.850
 8175POPC   GL162185  24.513  21.380   6.150
 8175POPC   GL262186  24.512  21.297   6.150
 8175POPC   C1A62187  24.471  21.368   6.450
 8175POPC   D2A62188  24.474  21.339   6.750
 8175POPC   C3A62189  24.456  21.351   7.050
 8175POPC   C4A62190  24.491  21.421   7.350
 8175POPC   C1B62191  24.568  21.192   6.450
 8175POPC   C2B62192  24.569  21.108   6.750
 8175POPC   C3B62193  24.592  21.189   7.050
 8175POPC   C4B62194  24.556  21.171   7.350
 8176POPC   NC362195  43.883  22.975   5.550
 8176POPC   PO462196  43.838  22.907   5.850
 8176POPC   GL162197  43.882  22.981   6.150
 8176POPC   GL262198  43.857  22.792   6.150
 8176POPC   C1A62199  43.854  22.980   6.450
 8176POPC   D2A62200  43.931  22.908   6.750
 8176POPC   C3A62201  43.918  22.959   7.050
 8176POPC   C4A62202  43.860  22.901   7.350
 8176POPC   C1B62203  43.756  22.771   6.450
 8176POPC   C2B62204  43.709  22.698   6.750
 8176POPC   C3B62205  43.683  22.733   7.050
 8176POPC   C4B62206  43.683  22.708   7.350
 8177POPC   NC362207  18.319  15.177   5.550
 8177POPC   PO462208  18.303  15.197   5.850
 8177POPC   GL162209  18.255  15.191   6.150
 8177POPC   GL262210  18.359  15.209   6.150
 8177POPC   C1A62211  18.255  15.147   6.450
 8177POPC   D2A62212  18.254  15.132   6.750
 8177POPC   C3A62213  18.328  15.213   7.050
 8177POPC   C4A62214  18.280  15.225   7.350
 8177POPC   C1B62215  18.515  15.246   6.450
 8177POPC   C2B62216  18.499  15.308   6.750
 8177POPC   C3B62217  18.469  15.311   7.050
 8177POPC   C4B62218  18.557  15.332   7.350
 8178POPC   NC362219  33.008  24.444   5.550
 8178POPC   PO462220  33.031  24.456   5.850
 8178POPC   GL162221  33.042  24.479   6.150
 8178POPC   GL262222  32.973  24.563   6.150
 8178POPC   C1A62223  33.068  24.518   6.450
 8178POPC   D2A62224  32.977  24.521   6.750
 8178POPC   C3A62225  33.022  24.493   7.050
 8178POPC   C4A62226  33.046  24.503   7.350
 8178POPC   C1B62227  32.803  24.612   6.450
 8178POPC   C2B62228  32.867  24.628   6.750
 8178POPC   C3B62229  32.869  24.623   7.050
 8178POPC   C4B62230  32.799  24.653   7.350
 8179POPC   NC362231   2.810  39.252   5.550
 8179POPC   PO462232   2.750  39.232   5.850
 8179POPC   GL162233   2.722  39.190   6.150
 8179POPC   GL262234   2.728  39.103   6.150
 8179POPC   C1A62235   2.764  39.276   6.450
 8179POPC   D2A62236   2.801  39.268   6.750
 8179POPC   C3A62237   2.793  39.217   7.050
 8179POPC   C4A62238   2.815  39.208   7.350
 8179POPC   C1B62239   2.719  39.021   6.450
 8179POPC   C2B62240   2.766  39.028   6.750
 8179POPC   C3B62241   2.778  38.999   7.050
 8179POPC   C4B62242   2.777  38.951   7.350
 8180POPC   NC362243   1.252  36.140   5.550
 8180POPC   PO462244   1.220  36.148   5.850
 8180POPC   GL162245   1.189  36.173   6.150
 8180POPC   GL262246   1.266  36.248   6.150
 8180POPC   C1A62247   1.196  36.176   6.450
 8180POPC   D2A62248   1.192  36.095   6.750
 8180POPC   C3A62249   1.178  36.120   7.050
 8180POPC   C4A62250   1.213  36.101   7.350
 8180POPC   C1B62251   1.312  36.377   6.450
 8180POPC   C2B62252   1.311  36.400   6.750
 8180POPC   C3B62253   1.333  36.367   7.050
 8180POPC   C4B62254   1.347  36.305   7.350
 8181POPC   NC362255  37.711  22.914   5.550
 8181POPC   PO462256  37.713  22.962   5.850
 8181POPC   GL162257  37.633  22.982   6.150
 8181POPC   GL262258  37.733  23.085   6.150
 8181POPC   C1A62259  37.663  22.956   6.450
 8181POPC   D2A62260  37.692  22.936   6.750
 8181POPC   C3A62261  37.671  22.935   7.050
 8181POPC   C4A62262  37.690  22.983   7.350
 8181POPC   C1B62263  37.708  23.219   6.450
 8181POPC   C2B62264  37.713  23.181   6.750
 8181POPC   C3B62265  37.800  23.224   7.050
 8181POPC   C4B62266  37.777  23.155   7.350
 8182POPC   NC362267  26.853  40.740   5.550
 8182POPC   PO462268  26.841  40.739   5.850
 8182POPC   GL162269  26.768  40.795   6.150
 8182POPC   GL262270  26.744  40.758   6.150
 8182POPC   C1A62271  26.863  40.788   6.450
 8182POPC   D2A62272  26.847  40.736   6.750
 8182POPC   C3A62273  26.824  40.762   7.050
 8182POPC   C4A62274  26.864  40.797   7.350
 8182POPC   C1B62275  26.611  40.652   6.450
 8182POPC   C2B62276  26.558  40.678   6.750
 8182POPC   C3B62277  26.585  40.642   7.050
 8182POPC   C4B62278  26.623  40.673   7.350
 8183POPC   NC362279   8.152  17.506   5.550
 8183POPC   PO462280   8.198  17.477   5.850
 8183POPC   GL162281   8.239  17.549   6.150
 8183POPC   GL262282   8.317  17.525   6.150
 8183POPC   C1A62283   8.174  17.518   6.450
 8183POPC   D2A62284   8.150  17.541   6.750
 8183POPC   C3A62285   8.160  17.487   7.050
 8183POPC   C4A62286   8.151  17.535   7.350
 8183POPC   C1B62287   8.424  17.646   6.450
 8183POPC   C2B62288   8.397  17.566   6.750
 8183POPC   C3B62289   8.456  17.593   7.050
 8183POPC   C4B62290   8.438  17.576   7.350
 8184POPC   NC362291  29.941  22.968   5.550
 8184POPC   PO462292  29.874  22.960   5.850
 8184POPC   GL162293  29.956  22.933   6.150
 8184POPC   GL262294  29.880  22.789   6.150
 8184POPC   C1A62295  29.939  22.947   6.450
 8184POPC   D2A62296  29.890  22.979   6.750
 8184POPC   C3A62297  29.905  22.904   7.050
 8184POPC   C4A62298  29.924  22.967   7.350
 8184POPC   C1B62299  29.858  22.670   6.450
 8184POPC   C2B62300  29.833  22.709   6.750
 8184POPC   C3B62301  29.856  22.658   7.050
 8184POPC   C4B62302  29.812  22.700   7.350
 8185POPC   NC362303  39.230  12.032   5.550
 8185POPC   PO462304  39.255  12.117   5.850
 8185POPC   GL162305  39.222  12.097   6.150
 8185POPC   GL262306  39.357  12.009   6.150
 8185POPC   C1A62307  39.244  12.081   6.450
 8185POPC   D2A62308  39.191  12.092   6.750
 8185POPC   C3A62309  39.268  12.063   7.050
 8185POPC   C4A62310  39.274  12.051   7.350
 8185POPC   C1B62311  39.440  11.947   6.450
 8185POPC   C2B62312  39.395  11.870   6.750
 8185POPC   C3B62313  39.457  11.948   7.050
 8185POPC   C4B62314  39.459  11.892   7.350
 8186POPC   NC362315  11.311   3.589   5.550
 8186POPC   PO462316  11.257   3.573   5.850
 8186POPC   GL162317  11.272   3.502   6.150
 8186POPC   GL262318  11.324   3.627   6.150
 8186POPC   C1A62319  11.330   3.501   6.450
 8186POPC   D2A62320  11.336   3.554   6.750
 8186POPC   C3A62321  11.261   3.506   7.050
 8186POPC   C4A62322  11.332   3.548   7.350
 8186POPC   C1B62323  11.272   3.804   6.450
 8186POPC   C2B62324  11.288   3.823   6.750
 8186POPC   C3B62325  11.289   3.769   7.050
 8186POPC   C4B62326  11.220   3.739   7.350
 8187POPC   NC362327   8.944  22.195   5.550
 8187POPC   PO462328   8.947  22.166   5.850
 8187POPC   GL162329   8.965  22.129   6.150
 8187POPC   GL262330   9.104  22.133   6.150
 8187POPC   C1A62331   8.969  22.174   6.450
 8187POPC   D2A62332   8.935  22.171   6.750
 8187POPC   C3A62333   8.972  22.168   7.050
 8187POPC   C4A62334   8.956  22.115   7.350
 8187POPC   C1B62335   9.238  22.073   6.450
 8187POPC   C2B62336   9.220  22.143   6.750
 8187POPC   C3B62337   9.187  22.047   7.050
 8187POPC   C4B62338   9.253  22.078   7.350
 8188POPC   NC362339   6.605  12.056   5.550
 8188POPC   PO462340   6.647  12.038   5.850
 8188POPC   GL162341   6.667  12.070   6.150
 8188POPC   GL262342   6.609  12.157   6.150
 8188POPC   C1A62343   6.639  12.081   6.450
 8188POPC   D2A62344   6.599  12.040   6.750
 8188POPC   C3A62345   6.664  12.035   7.050
 8188POPC   C4A62346   6.602  12.041   7.350
 8188POPC   C1B62347   6.549  12.257   6.450
 8188POPC   C2B62348   6.475  12.338   6.750
 8188POPC   C3B62349   6.496  12.329   7.050
 8188POPC   C4B62350   6.553  12.320   7.350
 8189POPC   NC362351  41.583   2.037   5.550
 8189POPC   PO462352  41.530   2.009   5.850
 8189POPC   GL162353  41.583   1.993   6.150
 8189POPC   GL262354  41.718   1.915   6.150
 8189POPC   C1A62355  41.604   1.968   6.450
 8189POPC   D2A62356  41.585   2.011   6.750
 8189POPC   C3A62357  41.547   1.949   7.050
 8189POPC   C4A62358  41.571   1.988   7.350
 8189POPC   C1B62359  41.765   1.899   6.450
 8189POPC   C2B62360  41.803   1.830   6.750
 8189POPC   C3B62361  41.818   1.821   7.050
 8189POPC   C4B62362  41.741   1.858   7.350
 8190POPC   NC362363  32.208  30.686   5.550
 8190POPC   PO462364  32.262  30.734   5.850
 8190POPC   GL162365  32.273  30.660   6.150
 8190POPC   GL262366  32.244  30.815   6.150
 8190POPC   C1A62367  32.284  30.726   6.450
 8190POPC   D2A62368  32.208  30.667   6.750
 8190POPC   C3A62369  32.269  30.732   7.050
 8190POPC   C4A62370  32.281  30.684   7.350
 8190POPC   C1B62371  32.319  30.980   6.450
 8190POPC   C2B62372  32.338  30.984   6.750
 8190POPC   C3B62373  32.305  30.964   7.050
 8190POPC   C4B62374  32.281  30.981   7.350
 8191POPC   NC362375  18.304  26.032   5.550
 8191POPC   PO462376  18.297  26.065   5.850
 8191POPC   GL162377  18.270  26.089   6.150
 8191POPC   GL262378  18.198  25.969   6.150
 8191POPC   C1A62379  18.304  26.055   6.450
 8191POPC   D2A62380  18.316  26.029   6.750
 8191POPC   C3A62381  18.315  26.053   7.050
 8191POPC   C4A62382  18.269  26.074   7.350
 8191POPC   C1B62383  18.170  25.804   6.450
 8191POPC   C2B62384  18.133  25.863   6.750
 8191POPC   C3B62385  18.154  25.812   7.050
 8191POPC   C4B62386  18.212  25.869   7.350
 8192POPC   NC362387  41.576  20.591   5.550
 8192POPC   PO462388  41.522  20.571   5.850
 8192POPC   GL162389  41.574  20.604   6.150
 8192POPC   GL262390  41.616  20.664   6.150
 8192POPC   C1A62391  41.567  20.632   6.450
 8192POPC   D2A62392  41.545  20.619   6.750
 8192POPC   C3A62393  41.530  20.573   7.050
 8192POPC   C4A62394  41.514  20.577   7.350
 8192POPC   C1B62395  41.713  20.722   6.450
 8192POPC   C2B62396  41.727  20.734   6.750
 8192POPC   C3B62397  41.781  20.745   7.050
 8192POPC   C4B62398  41.732  20.732   7.350
 8193POPC   NC362399   5.054  21.388   5.550
 8193POPC   PO462400   5.138  21.427   5.850
 8193POPC   GL162401   5.088  21.386   6.150
 8193POPC   GL262402   5.216  21.411   6.150
 8193POPC   C1A62403   5.127  21.388   6.450
 8193POPC   D2A62404   5.078  21.389   6.750
 8193POPC   C3A62405   5.053  21.390   7.050
 8193POPC   C4A62406   5.083  21.429   7.350
 8193POPC   C1B62407   5.348  21.328   6.450
 8193POPC   C2B62408   5.346  21.350   6.750
 8193POPC   C3B62409   5.372  21.289   7.050
 8193POPC   C4B62410   5.291  21.375   7.350
 8194POPC   NC362411  32.287  26.037   5.550
 8194POPC   PO462412  32.242  26.058   5.850
 8194POPC   GL162413  32.258  25.993   6.150
 8194POPC   GL262414  32.114  26.067   6.150
 8194POPC   C1A62415  32.206  26.046   6.450
 8194POPC   D2A62416  32.247  26.046   6.750
 8194POPC   C3A62417  32.268  26.039   7.050
 8194POPC   C4A62418  32.284  26.000   7.350
 8194POPC   C1B62419  32.034  26.137   6.450
 8194POPC   C2B62420  31.967  26.067   6.750
 8194POPC   C3B62421  31.983  26.141   7.050
 8194POPC   C4B62422  32.038  26.100   7.350
 8195POPC   NC362423  24.516   8.219   5.550
 8195POPC   PO462424  24.452   8.196   5.850
 8195POPC   GL162425  24.487   8.209   6.150
 8195POPC   GL262426  24.509   8.366   6.150
 8195POPC   C1A62427  24.502   8.167   6.450
 8195POPC   D2A62428  24.532   8.244   6.750
 8195POPC   C3A62429  24.460   8.196   7.050
 8195POPC   C4A62430  24.451   8.211   7.350
 8195POPC   C1B62431  24.447   8.439   6.450
 8195POPC   C2B62432  24.436   8.480   6.750
 8195POPC   C3B62433  24.406   8.400   7.050
 8195POPC   C4B62434  24.434   8.434   7.350
 8196POPC   NC362435   2.803   7.399   5.550
 8196POPC   PO462436   2.756   7.440   5.850
 8196POPC   GL162437   2.799   7.385   6.150
 8196POPC   GL262438   2.630   7.368   6.150
 8196POPC   C1A62439   2.785   7.438   6.450
 8196POPC   D2A62440   2.718   7.407   6.750
 8196POPC   C3A62441   2.743   7.386   7.050
 8196POPC   C4A62442   2.754   7.397   7.350
 8196POPC   C1B62443   2.538   7.320   6.450
 8196POPC   C2B62444   2.495   7.295   6.750
 8196POPC   C3B62445   2.541   7.282   7.050
 8196POPC   C4B62446   2.539   7.354   7.350
 8197POPC   NC362447  14.405   2.773   5.550
 8197POPC   PO462448  14.388   2.781   5.850
 8197POPC   GL162449  14.381   2.784   6.150
 8197POPC   GL262450  14.519   2.615   6.150
 8197POPC   C1A62451  14.379   2.721   6.450
 8197POPC   D2A62452  14.405   2.812   6.750
 8197POPC   C3A62453  14.356   2.759   7.050
 8197POPC   C4A62454  14.426   2.736   7.350
 8197POPC   C1B62455  14.523   2.554   6.450
 8197POPC   C2B62456  14.560   2.554   6.750
 8197POPC   C3B62457  14.510   2.569   7.050
 8197POPC   C4B62458  14.569   2.505   7.350
 8198POPC   NC362459  42.337  23.712   5.550
 8198POPC   PO462460  42.311  23.742   5.850
 8198POPC   GL162461  42.332  23.691   6.150
 8198POPC   GL262462  42.204  23.777   6.150
 8198POPC   C1A62463  42.299  23.713   6.450
 8198POPC   D2A62464  42.333  23.719   6.750
 8198POPC   C3A62465  42.342  23.715   7.050
 8198POPC   C4A62466  42.358  23.757   7.350
 8198POPC   C1B62467  42.072  23.825   6.450
 8198POPC   C2B62468  42.113  23.759   6.750
 8198POPC   C3B62469  42.086  23.810   7.050
 8198POPC   C4B62470  42.141  23.763   7.350
 8199POPC   NC362471  39.205  27.561   5.550
 8199POPC   PO462472  39.198  27.619   5.850
 8199POPC   GL162473  39.279  27.573   6.150
 8199POPC   GL262474  39.316  27.472   6.150
 8199POPC   C1A62475  39.202  27.637   6.450
 8199POPC   D2A62476  39.226  27.635   6.750
 8199POPC   C3A62477  39.224  27.571   7.050
 8199POPC   C4A62478  39.263  27.638   7.350
 8199POPC   C1B62479  39.422  27.392   6.450
 8199POPC   C2B62480  39.345  27.363   6.750
 8199POPC   C3B62481  39.411  27.393   7.050
 8199POPC   C4B62482  39.360  27.350   7.350
 8200POPC   NC362483  37.675   4.349   5.550
 8200POPC   PO462484  37.725   4.300   5.850
 8200POPC   GL162485  37.725   4.357   6.150
 8200POPC   GL262486  37.669   4.144   6.150
 8200POPC   C1A62487  37.646   4.347   6.450
 8200POPC   D2A62488  37.631   4.325   6.750
 8200POPC   C3A62489  37.670   4.344   7.050
 8200POPC   C4A62490  37.703   4.304   7.350
 8200POPC   C1B62491  37.715   4.064   6.450
 8200POPC   C2B62492  37.680   4.028   6.750
 8200POPC   C3B62493  37.683   4.068   7.050
 8200POPC   C4B62494  37.690   4.084   7.350
 8201POPC   NC362495  41.554   3.561   5.550
 8201POPC   PO462496  41.550   3.535   5.850
 8201POPC   GL162497  41.510   3.505   6.150
 8201POPC   GL262498  41.553   3.715   6.150
 8201POPC   C1A62499  41.590   3.514   6.450
 8201POPC   D2A62500  41.585   3.532   6.750
 8201POPC   C3A62501  41.539   3.541   7.050
 8201POPC   C4A62502  41.578   3.574   7.350
 8201POPC   C1B62503  41.564   3.833   6.450
 8201POPC   C2B62504  41.495   3.768   6.750
 8201POPC   C3B62505  41.578   3.785   7.050
 8201POPC   C4B62506  41.542   3.757   7.350
 8202POPC   NC362507  39.206  29.158   5.550
 8202POPC   PO462508  39.213  29.103   5.850
 8202POPC   GL162509  39.254  29.168   6.150
 8202POPC   GL262510  39.300  29.052   6.150
 8202POPC   C1A62511  39.238  29.147   6.450
 8202POPC   D2A62512  39.269  29.120   6.750
 8202POPC   C3A62513  39.256  29.123   7.050
 8202POPC   C4A62514  39.255  29.100   7.350
 8202POPC   C1B62515  39.362  28.892   6.450
 8202POPC   C2B62516  39.363  28.924   6.750
 8202POPC   C3B62517  39.364  28.955   7.050
 8202POPC   C4B62518  39.349  28.986   7.350
 8203POPC   NC362519  42.297  11.346   5.550
 8203POPC   PO462520  42.295  11.331   5.850
 8203POPC   GL162521  42.338  11.338   6.150
 8203POPC   GL262522  42.351  11.192   6.150
 8203POPC   C1A62523  42.384  11.338   6.450
 8203POPC   D2A62524  42.311  11.257   6.750
 8203POPC   C3A62525  42.314  11.318   7.050
 8203POPC   C4A62526  42.338  11.253   7.350
 8203POPC   C1B62527  42.332  11.042   6.450
 8203POPC   C2B62528  42.317  11.063   6.750
 8203POPC   C3B62529  42.343  11.033   7.050
 8203POPC   C4B62530  42.387  11.051   7.350
 8204POPC   NC362531  23.699  31.488   5.550
 8204POPC   PO462532  23.671  31.498   5.850
 8204POPC   GL162533  23.696  31.455   6.150
 8204POPC   GL262534  23.789  31.373   6.150
 8204POPC   C1A62535  23.716  31.466   6.450
 8204POPC   D2A62536  23.692  31.471   6.750
 8204POPC   C3A62537  23.696  31.454   7.050
 8204POPC   C4A62538  23.683  31.441   7.350
 8204POPC   C1B62539  23.902  31.364   6.450
 8204POPC   C2B62540  23.900  31.381   6.750
 8204POPC   C3B62541  23.892  31.356   7.050
 8204POPC   C4B62542  23.921  31.344   7.350
 8205POPC   NC362543   8.937  24.495   5.550
 8205POPC   PO462544   8.950  24.510   5.850
 8205POPC   GL162545   8.946  24.501   6.150
 8205POPC   GL262546   8.887  24.473   6.150
 8205POPC   C1A62547   8.984  24.516   6.450
 8205POPC   D2A62548   8.957  24.528   6.750
 8205POPC   C3A62549   8.966  24.516   7.050
 8205POPC   C4A62550   8.973  24.504   7.350
 8205POPC   C1B62551   8.742  24.339   6.450
 8205POPC   C2B62552   8.784  24.365   6.750
 8205POPC   C3B62553   8.782  24.405   7.050
 8205POPC   C4B62554   8.722  24.392   7.350
 8206POPC   NC362555  28.352  18.311   5.550
 8206POPC   PO462556  28.417  18.259   5.850
 8206POPC   GL162557  28.396  18.321   6.150
 8206POPC   GL262558  28.410  18.444   6.150
 8206POPC   C1A62559  28.376  18.242   6.450
 8206POPC   D2A62560  28.378  18.273   6.750
 8206POPC   C3A62561  28.396  18.277   7.050
 8206POPC   C4A62562  28.323  18.242   7.350
 8206POPC   C1B62563  28.460  18.518   6.450
 8206POPC   C2B62564  28.404  18.510   6.750
 8206POPC   C3B62565  28.451  18.567   7.050
 8206POPC   C4B62566  28.398  18.528   7.350
 8207POPC   NC362567   9.761  43.140   5.550
 8207POPC   PO462568   9.751  43.115   5.850
 8207POPC   GL162569   9.733  43.144   6.150
 8207POPC   GL262570   9.791  43.175   6.150
 8207POPC   C1A62571   9.740  43.157   6.450
 8207POPC   D2A62572   9.749  43.069   6.750
 8207POPC   C3A62573   9.754  43.098   7.050
 8207POPC   C4A62574   9.734  43.079   7.350
 8207POPC   C1B62575   9.933  43.298   6.450
 8207POPC   C2B62576   9.929  43.300   6.750
 8207POPC   C3B62577   9.952  43.324   7.050
 8207POPC   C4B62578   9.891  43.313   7.350
 8208POPC   NC362579  29.930  22.182   5.550
 8208POPC   PO462580  29.894  22.142   5.850
 8208POPC   GL162581  29.947  22.115   6.150
 8208POPC   GL262582  29.864  22.079   6.150
 8208POPC   C1A62583  29.948  22.167   6.450
 8208POPC   D2A62584  29.896  22.199   6.750
 8208POPC   C3A62585  29.887  22.141   7.050
 8208POPC   C4A62586  29.903  22.118   7.350
 8208POPC   C1B62587  29.894  21.952   6.450
 8208POPC   C2B62588  29.886  21.923   6.750
 8208POPC   C3B62589  29.895  21.891   7.050
 8208POPC   C4B62590  29.849  21.900   7.350
 8209POPC   NC362591   5.838  34.537   5.550
 8209POPC   PO462592   5.895  34.556   5.850
 8209POPC   GL162593   5.872  34.563   6.150
 8209POPC   GL262594   5.913  34.648   6.150
 8209POPC   C1A62595   5.866  34.607   6.450
 8209POPC   D2A62596   5.896  34.567   6.750
 8209POPC   C3A62597   5.880  34.620   7.050
 8209POPC   C4A62598   5.858  34.602   7.350
 8209POPC   C1B62599   5.980  34.779   6.450
 8209POPC   C2B62600   6.031  34.786   6.750
 8209POPC   C3B62601   5.987  34.776   7.050
 8209POPC   C4B62602   6.070  34.790   7.350
 8210POPC   NC362603  28.396  35.391   5.550
 8210POPC   PO462604  28.387  35.302   5.850
 8210POPC   GL162605  28.332  35.357   6.150
 8210POPC   GL262606  28.303  35.255   6.150
 8210POPC   C1A62607  28.358  35.304   6.450
 8210POPC   D2A62608  28.387  35.366   6.750
 8210POPC   C3A62609  28.415  35.392   7.050
 8210POPC   C4A62610  28.408  35.384   7.350
 8210POPC   C1B62611  28.281  35.165   6.450
 8210POPC   C2B62612  28.261  35.180   6.750
 8210POPC   C3B62613  28.256  35.091   7.050
 8210POPC   C4B62614  28.262  35.140   7.350
 8211POPC   NC362615  14.407  26.819   5.550
 8211POPC   PO462616  14.449  26.859   5.850
 8211POPC   GL162617  14.442  26.859   6.150
 8211POPC   GL262618  14.536  26.852   6.150
 8211POPC   C1A62619  14.381  26.867   6.450
 8211POPC   D2A62620  14.363  26.855   6.750
 8211POPC   C3A62621  14.369  26.857   7.050
 8211POPC   C4A62622  14.359  26.866   7.350
 8211POPC   C1B62623  14.653  26.874   6.450
 8211POPC   C2B62624  14.644  26.866   6.750
 8211POPC   C3B62625  14.622  26.941   7.050
 8211POPC   C4B62626  14.676  26.920   7.350
 8212POPC   NC362627   1.207  20.648   5.550
 8212POPC   PO462628   1.244  20.625   5.850
 8212POPC   GL162629   1.166  20.624   6.150
 8212POPC   GL262630   1.082  20.536   6.150
 8212POPC   C1A62631   1.222  20.608   6.450
 8212POPC   D2A62632   1.263  20.600   6.750
 8212POPC   C3A62633   1.216  20.610   7.050
 8212POPC   C4A62634   1.185  20.649   7.350
 8212POPC   C1B62635   0.964  20.485   6.450
 8212POPC   C2B62636   0.978  20.533   6.750
 8212POPC   C3B62637   1.019  20.481   7.050
 8212POPC   C4B62638   1.015  20.502   7.350
 8213POPC   NC362639  29.939  27.567   5.550
 8213POPC   PO462640  29.916  27.577   5.850
 8213POPC   GL162641  29.929  27.564   6.150
 8213POPC   GL262642  29.932  27.485   6.150
 8213POPC   C1A62643  29.959  27.554   6.450
 8213POPC   D2A62644  29.920  27.545   6.750
 8213POPC   C3A62645  29.937  27.554   7.050
 8213POPC   C4A62646  29.920  27.629   7.350
 8213POPC   C1B62647  29.971  27.343   6.450
 8213POPC   C2B62648  30.023  27.371   6.750
 8213POPC   C3B62649  30.031  27.385   7.050
 8213POPC   C4B62650  30.002  27.364   7.350
 8214POPC   NC362651  27.592   3.588   5.550
 8214POPC   PO462652  27.590   3.521   5.850
 8214POPC   GL162653  27.638   3.574   6.150
 8214POPC   GL262654  27.668   3.500   6.150
 8214POPC   C1A62655  27.597   3.583   6.450
 8214POPC   D2A62656  27.582   3.571   6.750
 8214POPC   C3A62657  27.611   3.565   7.050
 8214POPC   C4A62658  27.574   3.524   7.350
 8214POPC   C1B62659  27.883   3.518   6.450
 8214POPC   C2B62660  27.821   3.578   6.750
 8214POPC   C3B62661  27.880   3.547   7.050
 8214POPC   C4B62662  27.846   3.564   7.350
 8215POPC   NC362663  11.272  44.668   5.550
 8215POPC   PO462664  11.295  44.676   5.850
 8215POPC   GL162665  11.307  44.655   6.150
 8215POPC   GL262666  11.216  44.584   6.150
 8215POPC   C1A62667  11.295  44.670   6.450
 8215POPC   D2A62668  11.334  44.668   6.750
 8215POPC   C3A62669  11.307  44.707   7.050
 8215POPC   C4A62670  11.256  44.632   7.350
 8215POPC   C1B62671  11.173  44.479   6.450
 8215POPC   C2B62672  11.219  44.412   6.750
 8215POPC   C3B62673  11.154  44.479   7.050
 8215POPC   C4B62674  11.202  44.419   7.350
 8216POPC   NC362675  30.677  12.838   5.550
 8216POPC   PO462676  30.717  12.815   5.850
 8216POPC   GL162677  30.652  12.890   6.150
 8216POPC   GL262678  30.655  12.716   6.150
 8216POPC   C1A62679  30.711  12.870   6.450
 8216POPC   D2A62680  30.694  12.849   6.750
 8216POPC   C3A62681  30.692  12.844   7.050
 8216POPC   C4A62682  30.670  12.869   7.350
 8216POPC   C1B62683  30.587  12.620   6.450
 8216POPC   C2B62684  30.543  12.687   6.750
 8216POPC   C3B62685  30.530  12.659   7.050
 8216POPC   C4B62686  30.562  12.616   7.350
 8217POPC   NC362687  35.312  10.532   5.550
 8217POPC   PO462688  35.306  10.554   5.850
 8217POPC   GL162689  35.390  10.555   6.150
 8217POPC   GL262690  35.404  10.442   6.150
 8217POPC   C1A62691  35.322  10.507   6.450
 8217POPC   D2A62692  35.349  10.527   6.750
 8217POPC   C3A62693  35.339  10.571   7.050
 8217POPC   C4A62694  35.319  10.553   7.350
 8217POPC   C1B62695  35.470  10.329   6.450
 8217POPC   C2B62696  35.422  10.352   6.750
 8217POPC   C3B62697  35.454  10.348   7.050
 8217POPC   C4B62698  35.432  10.264   7.350
 8218POPC   NC362699  19.881  10.534   5.550
 8218POPC   PO462700  19.873  10.540   5.850
 8218POPC   GL162701  19.861  10.547   6.150
 8218POPC   GL262702  19.836  10.435   6.150
 8218POPC   C1A62703  19.876  10.530   6.450
 8218POPC   D2A62704  19.804  10.542   6.750
 8218POPC   C3A62705  19.824  10.478   7.050
 8218POPC   C4A62706  19.797  10.515   7.350
 8218POPC   C1B62707  19.857  10.309   6.450
 8218POPC   C2B62708  19.874  10.255   6.750
 8218POPC   C3B62709  19.843  10.285   7.050
 8218POPC   C4B62710  19.819  10.308   7.350
 8219POPC   NC362711  22.168  31.461   5.550
 8219POPC   PO462712  22.134  31.440   5.850
 8219POPC   GL162713  22.182  31.428   6.150
 8219POPC   GL262714  22.204  31.314   6.150
 8219POPC   C1A62715  22.154  31.445   6.450
 8219POPC   D2A62716  22.208  31.508   6.750
 8219POPC   C3A62717  22.178  31.441   7.050
 8219POPC   C4A62718  22.172  31.435   7.350
 8219POPC   C1B62719  22.280  31.194   6.450
 8219POPC   C2B62720  22.248  31.284   6.750
 8219POPC   C3B62721  22.247  31.287   7.050
 8219POPC   C4B62722  22.241  31.208   7.350
 8220POPC   NC362723  15.938   6.629   5.550
 8220POPC   PO462724  15.921   6.663   5.850
 8220POPC   GL162725  15.957   6.685   6.150
 8220POPC   GL262726  15.825   6.604   6.150
 8220POPC   C1A62727  15.953   6.595   6.450
 8220POPC   D2A62728  15.991   6.680   6.750
 8220POPC   C3A62729  16.001   6.613   7.050
 8220POPC   C4A62730  15.977   6.655   7.350
 8220POPC   C1B62731  15.689   6.675   6.450
 8220POPC   C2B62732  15.734   6.684   6.750
 8220POPC   C3B62733  15.751   6.675   7.050
 8220POPC   C4B62734  15.693   6.613   7.350
 8221POPC   NC362735  16.707  14.445   5.550
 8221POPC   PO462736  16.689  14.430   5.850
 8221POPC   GL162737  16.689  14.424   6.150
 8221POPC   GL262738  16.634  14.415   6.150
 8221POPC   C1A62739  16.698  14.445   6.450
 8221POPC   D2A62740  16.686  14.419   6.750
 8221POPC   C3A62741  16.728  14.364   7.050
 8221POPC   C4A62742  16.755  14.354   7.350
 8221POPC   C1B62743  16.527  14.349   6.450
 8221POPC   C2B62744  16.463  14.280   6.750
 8221POPC   C3B62745  16.513  14.286   7.050
 8221POPC   C4B62746  16.487  14.360   7.350
 8222POPC   NC362747  15.144  20.628   5.550
 8222POPC   PO462748  15.171  20.626   5.850
 8222POPC   GL162749  15.199  20.621   6.150
 8222POPC   GL262750  15.173  20.715   6.150
 8222POPC   C1A62751  15.202  20.615   6.450
 8222POPC   D2A62752  15.199  20.627   6.750
 8222POPC   C3A62753  15.163  20.623   7.050
 8222POPC   C4A62754  15.215  20.566   7.350
 8222POPC   C1B62755  15.162  20.825   6.450
 8222POPC   C2B62756  15.144  20.887   6.750
 8222POPC   C3B62757  15.203  20.892   7.050
 8222POPC   C4B62758  15.194  20.893   7.350
 8223POPC   NC362759  19.023   0.430   5.550
 8223POPC   PO462760  19.023   0.468   5.850
 8223POPC   GL162761  19.059   0.444   6.150
 8223POPC   GL262762  18.946   0.561   6.150
 8223POPC   C1A62763  19.037   0.462   6.450
 8223POPC   D2A62764  19.092   0.433   6.750
 8223POPC   C3A62765  19.013   0.434   7.050
 8223POPC   C4A62766  19.091   0.435   7.350
 8223POPC   C1B62767  18.888   0.577   6.450
 8223POPC   C2B62768  18.900   0.577   6.750
 8223POPC   C3B62769  18.900   0.626   7.050
 8223POPC   C4B62770  18.924   0.581   7.350
 8224POPC   NC362771  28.346  30.661   5.550
 8224POPC   PO462772  28.372  30.651   5.850
 8224POPC   GL162773  28.349  30.691   6.150
 8224POPC   GL262774  28.455  30.659   6.150
 8224POPC   C1A62775  28.419  30.730   6.450
 8224POPC   D2A62776  28.320  30.699   6.750
 8224POPC   C3A62777  28.335  30.660   7.050
 8224POPC   C4A62778  28.382  30.700   7.350
 8224POPC   C1B62779  28.634  30.616   6.450
 8224POPC   C2B62780  28.602  30.607   6.750
 8224POPC   C3B62781  28.622  30.618   7.050
 8224POPC   C4B62782  28.609  30.580   7.350
 8225POPC   NC362783  42.369  41.591   5.550
 8225POPC   PO462784  42.348  41.593   5.850
 8225POPC   GL162785  42.295  41.523   6.150
 8225POPC   GL262786  42.400  41.634   6.150
 8225POPC   C1A62787  42.330  41.581   6.450
 8225POPC   D2A62788  42.384  41.582   6.750
 8225POPC   C3A62789  42.353  41.550   7.050
 8225POPC   C4A62790  42.343  41.524   7.350
 8225POPC   C1B62791  42.542  41.714   6.450
 8225POPC   C2B62792  42.558  41.675   6.750
 8225POPC   C3B62793  42.509  41.708   7.050
 8225POPC   C4B62794  42.566  41.683   7.350
 8226POPC   NC362795   8.927   2.015   5.550
 8226POPC   PO462796   8.936   1.999   5.850
 8226POPC   GL162797   8.931   1.971   6.150
 8226POPC   GL262798   9.041   2.023   6.150
 8226POPC   C1A62799   8.924   2.022   6.450
 8226POPC   D2A62800   9.007   2.001   6.750
 8226POPC   C3A62801   8.972   1.957   7.050
 8226POPC   C4A62802   8.982   1.985   7.350
 8226POPC   C1B62803   9.191   2.197   6.450
 8226POPC   C2B62804   9.181   2.154   6.750
 8226POPC   C3B62805   9.137   2.107   7.050
 8226POPC   C4B62806   9.144   2.136   7.350
 8227POPC   NC362807  38.434  27.549   5.550
 8227POPC   PO462808  38.499  27.578   5.850
 8227POPC   GL162809  38.419  27.562   6.150
 8227POPC   GL262810  38.396  27.517   6.150
 8227POPC   C1A62811  38.484  27.582   6.450
 8227POPC   D2A62812  38.470  27.623   6.750
 8227POPC   C3A62813  38.483  27.561   7.050
 8227POPC   C4A62814  38.411  27.569   7.350
 8227POPC   C1B62815  38.314  27.440   6.450
 8227POPC   C2B62816  38.283  27.354   6.750
 8227POPC   C3B62817  38.312  27.417   7.050
 8227POPC   C4B62818  38.320  27.408   7.350
 8228POPC   NC362819  10.515  37.698   5.550
 8228POPC   PO462820  10.514  37.663   5.850
 8228POPC   GL162821  10.516  37.679   6.150
 8228POPC   GL262822  10.489  37.810   6.150
 8228POPC   C1A62823  10.552  37.675   6.450
 8228POPC   D2A62824  10.489  37.634   6.750
 8228POPC   C3A62825  10.535  37.714   7.050
 8228POPC   C4A62826  10.545  37.687   7.350
 8228POPC   C1B62827  10.505  37.939   6.450
 8228POPC   C2B62828  10.539  37.921   6.750
 8228POPC   C3B62829  10.551  37.929   7.050
 8228POPC   C4B62830  10.536  37.922   7.350
 8229POPC   NC362831   0.433  21.359   5.550
 8229POPC   PO462832   0.484  21.373   5.850
 8229POPC   GL162833   0.431  21.396   6.150
 8229POPC   GL262834   0.413  21.294   6.150
 8229POPC   C1A62835   0.402  21.356   6.450
 8229POPC   D2A62836   0.411  21.379   6.750
 8229POPC   C3A62837   0.451  21.417   7.050
 8229POPC   C4A62838   0.485  21.410   7.350
 8229POPC   C1B62839   0.366  21.190   6.450
 8229POPC   C2B62840   0.332  21.153   6.750
 8229POPC   C3B62841   0.362  21.129   7.050
 8229POPC   C4B62842   0.278  21.161   7.350
 8230POPC   NC362843  26.826   5.909   5.550
 8230POPC   PO462844  26.828   5.879   5.850
 8230POPC   GL162845  26.847   5.898   6.150
 8230POPC   GL262846  26.948   5.918   6.150
 8230POPC   C1A62847  26.842   5.887   6.450
 8230POPC   D2A62848  26.790   5.820   6.750
 8230POPC   C3A62849  26.833   5.860   7.050
 8230POPC   C4A62850  26.799   5.870   7.350
 8230POPC   C1B62851  27.059   5.996   6.450
 8230POPC   C2B62852  27.004   6.014   6.750
 8230POPC   C3B62853  27.006   5.979   7.050
 8230POPC   C4B62854  27.073   5.955   7.350
 8231POPC   NC362855  35.379   7.459   5.550
 8231POPC   PO462856  35.391   7.388   5.850
 8231POPC   GL162857  35.361   7.408   6.150
 8231POPC   GL262858  35.447   7.339   6.150
 8231POPC   C1A62859  35.314   7.444   6.450
 8231POPC   D2A62860  35.305   7.440   6.750
 8231POPC   C3A62861  35.383   7.409   7.050
 8231POPC   C4A62862  35.302   7.373   7.350
 8231POPC   C1B62863  35.555   7.268   6.450
 8231POPC   C2B62864  35.530   7.311   6.750
 8231POPC   C3B62865  35.554   7.299   7.050
 8231POPC   C4B62866  35.595   7.239   7.350
 8232POPC   NC362867  14.395  25.270   5.550
 8232POPC   PO462868  14.430  25.305   5.850
 8232POPC   GL162869  14.371  25.287   6.150
 8232POPC   GL262870  14.291  25.208   6.150
 8232POPC   C1A62871  14.407  25.303   6.450
 8232POPC   D2A62872  14.369  25.250   6.750
 8232POPC   C3A62873  14.416  25.220   7.050
 8232POPC   C4A62874  14.427  25.264   7.350
 8232POPC   C1B62875  14.176  25.140   6.450
 8232POPC   C2B62876  14.160  25.137   6.750
 8232POPC   C3B62877  14.242  25.149   7.050
 8232POPC   C4B62878  14.225  25.084   7.350
 8233POPC   NC362879  11.305   1.174   5.550
 8233POPC   PO462880  11.329   1.217   5.850
 8233POPC   GL162881  11.343   1.244   6.150
 8233POPC   GL262882  11.435   1.221   6.150
 8233POPC   C1A62883  11.340   1.232   6.450
 8233POPC   D2A62884  11.306   1.201   6.750
 8233POPC   C3A62885  11.324   1.257   7.050
 8233POPC   C4A62886  11.342   1.199   7.350
 8233POPC   C1B62887  11.595   1.213   6.450
 8233POPC   C2B62888  11.521   1.219   6.750
 8233POPC   C3B62889  11.582   1.236   7.050
 8233POPC   C4B62890  11.589   1.163   7.350
 8234POPC   NC362891  24.492  15.131   5.550
 8234POPC   PO462892  24.512  15.224   5.850
 8234POPC   GL162893  24.469  15.162   6.150
 8234POPC   GL262894  24.627  15.187   6.150
 8234POPC   C1A62895  24.508  15.228   6.450
 8234POPC   D2A62896  24.467  15.217   6.750
 8234POPC   C3A62897  24.468  15.199   7.050
 8234POPC   C4A62898  24.457  15.184   7.350
 8234POPC   C1B62899  24.686  15.266   6.450
 8234POPC   C2B62900  24.673  15.273   6.750
 8234POPC   C3B62901  24.731  15.307   7.050
 8234POPC   C4B62902  24.744  15.245   7.350
 8235POPC   NC362903   7.430   7.371   5.550
 8235POPC   PO462904   7.390   7.465   5.850
 8235POPC   GL162905   7.449   7.448   6.150
 8235POPC   GL262906   7.298   7.366   6.150
 8235POPC   C1A62907   7.464   7.401   6.450
 8235POPC   D2A62908   7.381   7.465   6.750
 8235POPC   C3A62909   7.471   7.378   7.050
 8235POPC   C4A62910   7.429   7.395   7.350
 8235POPC   C1B62911   7.159   7.331   6.450
 8235POPC   C2B62912   7.144   7.388   6.750
 8235POPC   C3B62913   7.184   7.378   7.050
 8235POPC   C4B62914   7.126   7.342   7.350
 8236POPC   NC362915   5.057   0.426   5.550
 8236POPC   PO462916   5.113   0.459   5.850
 8236POPC   GL162917   5.119   0.465   6.150
 8236POPC   GL262918   5.078   0.527   6.150
 8236POPC   C1A62919   5.056   0.442   6.450
 8236POPC   D2A62920   5.119   0.483   6.750
 8236POPC   C3A62921   5.091   0.396   7.050
 8236POPC   C4A62922   5.127   0.401   7.350
 8236POPC   C1B62923   5.053   0.690   6.450
 8236POPC   C2B62924   5.014   0.702   6.750
 8236POPC   C3B62925   5.006   0.690   7.050
 8236POPC   C4B62926   5.044   0.650   7.350
 8237POPC   NC362927  34.552  13.620   5.550
 8237POPC   PO462928  34.578  13.593   5.850
 8237POPC   GL162929  34.583  13.579   6.150
 8237POPC   GL262930  34.664  13.495   6.150
 8237POPC   C1A62931  34.560  13.592   6.450
 8237POPC   D2A62932  34.594  13.592   6.750
 8237POPC   C3A62933  34.562  13.580   7.050
 8237POPC   C4A62934  34.562  13.665   7.350
 8237POPC   C1B62935  34.670  13.452   6.450
 8237POPC   C2B62936  34.703  13.424   6.750
 8237POPC   C3B62937  34.705  13.372   7.050
 8237POPC   C4B62938  34.721  13.406   7.350
 8238POPC   NC362939  20.598   0.415   5.550
 8238POPC   PO462940  20.593   0.460   5.850
 8238POPC   GL162941  20.625   0.455   6.150
 8238POPC   GL262942  20.437   0.469   6.150
 8238POPC   C1A62943  20.590   0.429   6.450
 8238POPC   D2A62944  20.565   0.423   6.750
 8238POPC   C3A62945  20.588   0.435   7.050
 8238POPC   C4A62946  20.641   0.402   7.350
 8238POPC   C1B62947  20.358   0.430   6.450
 8238POPC   C2B62948  20.353   0.397   6.750
 8238POPC   C3B62949  20.406   0.404   7.050
 8238POPC   C4B62950  20.331   0.377   7.350
 8239POPC   NC362951  44.623   2.803   5.550
 8239POPC   PO462952  44.676   2.729   5.850
 8239POPC   GL162953  44.622   2.782   6.150
 8239POPC   GL262954  44.635   2.860   6.150
 8239POPC   C1A62955  44.686   2.814   6.450
 8239POPC   D2A62956  44.661   2.741   6.750
 8239POPC   C3A62957  44.677   2.739   7.050
 8239POPC   C4A62958  44.644   2.748   7.350
 8239POPC   C1B62959  44.667   2.964   6.450
 8239POPC   C2B62960  44.596   2.994   6.750
 8239POPC   C3B62961  44.670   2.963   7.050
 8239POPC   C4B62962  44.654   3.060   7.350
 8240POPC   NC362963  15.939  29.157   5.550
 8240POPC   PO462964  15.995  29.182   5.850
 8240POPC   GL162965  15.963  29.149   6.150
 8240POPC   GL262966  15.953  29.297   6.150
 8240POPC   C1A62967  15.977  29.115   6.450
 8240POPC   D2A62968  15.909  29.177   6.750
 8240POPC   C3A62969  15.960  29.101   7.050
 8240POPC   C4A62970  15.910  29.102   7.350
 8240POPC   C1B62971  15.893  29.405   6.450
 8240POPC   C2B62972  15.919  29.427   6.750
 8240POPC   C3B62973  15.930  29.345   7.050
 8240POPC   C4B62974  15.885  29.439   7.350
 8241POPC   NC362975   5.893  12.861   5.550
 8241POPC   PO462976   5.873  12.821   5.850
 8241POPC   GL162977   5.877  12.816   6.150
 8241POPC   GL262978   5.898  12.998   6.150
 8241POPC   C1A62979   5.821  12.879   6.450
 8241POPC   D2A62980   5.885  12.894   6.750
 8241POPC   C3A62981   5.902  12.877   7.050
 8241POPC   C4A62982   5.897  12.855   7.350
 8241POPC   C1B62983   6.036  13.112   6.450
 8241POPC   C2B62984   5.970  13.078   6.750
 8241POPC   C3B62985   5.954  13.027   7.050
 8241POPC   C4B62986   5.974  13.093   7.350
 8242POPC   NC362987  26.056  43.069   5.550
 8242POPC   PO462988  25.994  43.159   5.850
 8242POPC   GL162989  26.022  43.094   6.150
 8242POPC   GL262990  26.079  43.258   6.150
 8242POPC   C1A62991  26.087  43.154   6.450
 8242POPC   D2A62992  26.021  43.062   6.750
 8242POPC   C3A62993  25.996  43.116   7.050
 8242POPC   C4A62994  26.074  43.108   7.350
 8242POPC   C1B62995  26.081  43.318   6.450
 8242POPC   C2B62996  26.015  43.399   6.750
 8242POPC   C3B62997  26.081  43.343   7.050
 8242POPC   C4B62998  26.038  43.333   7.350
 8243POPC   NC362999  17.471  27.642   5.550
 8243POPC   PO463000  17.496  27.561   5.850
 8243POPC   GL163001  17.481  27.555   6.150
 8243POPC   GL263002  17.522  27.731   6.150
 8243POPC   C1A63003  17.542  27.587   6.450
 8243POPC   D2A63004  17.511  27.571   6.750
 8243POPC   C3A63005  17.496  27.637   7.050
 8243POPC   C4A63006  17.485  27.628   7.350
 8243POPC   C1B63007  17.464  27.802   6.450
 8243POPC   C2B63008  17.481  27.814   6.750
 8243POPC   C3B63009  17.449  27.834   7.050
 8243POPC   C4B63010  17.459  27.810   7.350
 8244POPC   NC363011   5.133   8.935   5.550
 8244POPC   PO463012   5.118   9.016   5.850
 8244POPC   GL163013   5.053   9.014   6.150
 8244POPC   GL263014   5.115   8.807   6.150
 8244POPC   C1A63015   5.126   8.930   6.450
 8244POPC   D2A63016   5.101   8.946   6.750
 8244POPC   C3A63017   5.118   9.018   7.050
 8244POPC   C4A63018   5.076   8.982   7.350
 8244POPC   C1B63019   5.125   8.749   6.450
 8244POPC   C2B63020   5.137   8.769   6.750
 8244POPC   C3B63021   5.119   8.695   7.050
 8244POPC   C4B63022   5.094   8.717   7.350
 8245POPC   NC363023  32.221  28.399   5.550
 8245POPC   PO463024  32.221  28.399   5.850
 8245POPC   GL163025  32.257  28.375   6.150
 8245POPC   GL263026  32.317  28.483   6.150
 8245POPC   C1A63027  32.249  28.362   6.450
 8245POPC   D2A63028  32.277  28.332   6.750
 8245POPC   C3A63029  32.237  28.339   7.050
 8245POPC   C4A63030  32.202  28.355   7.350
 8245POPC   C1B63031  32.353  28.629   6.450
 8245POPC   C2B63032  32.366  28.606   6.750
 8245POPC   C3B63033  32.348  28.573   7.050
 8245POPC   C4B63034  32.382  28.613   7.350
 8246POPC   NC363035  18.261  15.943   5.550
 8246POPC   PO463036  18.291  15.937   5.850
 8246POPC   GL163037  18.255  15.978   6.150
 8246POPC   GL263038  18.416  15.922   6.150
 8246POPC   C1A63039  18.318  15.913   6.450
 8246POPC   D2A63040  18.332  15.991   6.750
 8246POPC   C3A63041  18.287  15.954   7.050
 8246POPC   C4A63042  18.296  15.939   7.350
 8246POPC   C1B63043  18.490  15.819   6.450
 8246POPC   C2B63044  18.468  15.771   6.750
 8246POPC   C3B63045  18.518  15.795   7.050
 8246POPC   C4B63046  18.477  15.761   7.350
 8247POPC   NC363047  10.478   7.387   5.550
 8247POPC   PO463048  10.531   7.380   5.850
 8247POPC   GL163049  10.508   7.464   6.150
 8247POPC   GL263050  10.370   7.450   6.150
 8247POPC   C1A63051  10.501   7.392   6.450
 8247POPC   D2A63052  10.486   7.424   6.750
 8247POPC   C3A63053  10.574   7.390   7.050
 8247POPC   C4A63054  10.515   7.392   7.350
 8247POPC   C1B63055  10.248   7.534   6.450
 8247POPC   C2B63056  10.301   7.504   6.750
 8247POPC   C3B63057  10.287   7.483   7.050
 8247POPC   C4B63058  10.289   7.460   7.350
 8248POPC   NC363059  15.911  43.860   5.550
 8248POPC   PO463060  15.960  43.928   5.850
 8248POPC   GL163061  15.951  43.900   6.150
 8248POPC   GL263062  15.820  43.986   6.150
 8248POPC   C1A63063  15.913  43.923   6.450
 8248POPC   D2A63064  15.945  43.924   6.750
 8248POPC   C3A63065  15.915  43.928   7.050
 8248POPC   C4A63066  15.994  43.924   7.350
 8248POPC   C1B63067  15.754  44.102   6.450
 8248POPC   C2B63068  15.750  44.107   6.750
 8248POPC   C3B63069  15.766  44.081   7.050
 8248POPC   C4B63070  15.792  44.027   7.350
 8249POPC   NC363071  16.707  40.828   5.550
 8249POPC   PO463072  16.730  40.763   5.850
 8249POPC   GL163073  16.771  40.821   6.150
 8249POPC   GL263074  16.760  40.887   6.150
 8249POPC   C1A63075  16.734  40.766   6.450
 8249POPC   D2A63076  16.682  40.814   6.750
 8249POPC   C3A63077  16.754  40.785   7.050
 8249POPC   C4A63078  16.691  40.832   7.350
 8249POPC   C1B63079  16.840  41.038   6.450
 8249POPC   C2B63080  16.823  40.965   6.750
 8249POPC   C3B63081  16.864  40.980   7.050
 8249POPC   C4B63082  16.836  41.055   7.350
 8250POPC   NC363083  42.357  17.495   5.550
 8250POPC   PO463084  42.356  17.523   5.850
 8250POPC   GL163085  42.298  17.517   6.150
 8250POPC   GL263086  42.443  17.443   6.150
 8250POPC   C1A63087  42.298  17.471   6.450
 8250POPC   D2A63088  42.285  17.464   6.750
 8250POPC   C3A63089  42.322  17.529   7.050
 8250POPC   C4A63090  42.377  17.463   7.350
 8250POPC   C1B63091  42.486  17.309   6.450
 8250POPC   C2B63092  42.479  17.377   6.750
 8250POPC   C3B63093  42.523  17.347   7.050
 8250POPC   C4B63094  42.518  17.279   7.350
 8251POPC   NC363095  28.351  34.551   5.550
 8251POPC   PO463096  28.413  34.553   5.850
 8251POPC   GL163097  28.337  34.561   6.150
 8251POPC   GL263098  28.535  34.610   6.150
 8251POPC   C1A63099  28.391  34.553   6.450
 8251POPC   D2A63100  28.398  34.574   6.750
 8251POPC   C3A63101  28.381  34.578   7.050
 8251POPC   C4A63102  28.333  34.601   7.350
 8251POPC   C1B63103  28.657  34.596   6.450
 8251POPC   C2B63104  28.584  34.577   6.750
 8251POPC   C3B63105  28.627  34.530   7.050
 8251POPC   C4B63106  28.650  34.539   7.350
 8252POPC   NC363107   5.118  25.247   5.550
 8252POPC   PO463108   5.100  25.230   5.850
 8252POPC   GL163109   5.122  25.222   6.150
 8252POPC   GL263110   4.985  25.179   6.150
 8252POPC   C1A63111   5.060  25.220   6.450
 8252POPC   D2A63112   5.060  25.219   6.750
 8252POPC   C3A63113   5.068  25.307   7.050
 8252POPC   C4A63114   5.061  25.310   7.350
 8252POPC   C1B63115   4.840  25.170   6.450
 8252POPC   C2B63116   4.865  25.172   6.750
 8252POPC   C3B63117   4.860  25.138   7.050
 8252POPC   C4B63118   4.911  25.208   7.350
 8253POPC   NC363119   1.222  33.067   5.550
 8253POPC   PO463120   1.168  32.993   5.850
 8253POPC   GL163121   1.208  32.995   6.150
 8253POPC   GL263122   1.113  33.055   6.150
 8253POPC   C1A63123   1.177  33.071   6.450
 8253POPC   D2A63124   1.228  33.073   6.750
 8253POPC   C3A63125   1.173  33.059   7.050
 8253POPC   C4A63126   1.176  33.066   7.350
 8253POPC   C1B63127   0.984  33.165   6.450
 8253POPC   C2B63128   0.975  33.207   6.750
 8253POPC   C3B63129   0.969  33.192   7.050
 8253POPC   C4B63130   1.003  33.162   7.350
 8254POPC   NC363131   5.822   6.636   5.550
 8254POPC   PO463132   5.837   6.613   5.850
 8254POPC   GL163133   5.830   6.651   6.150
 8254POPC   GL263134   5.984   6.539   6.150
 8254POPC   C1A63135   5.848   6.619   6.450
 8254POPC   D2A63136   5.916   6.684   6.750
 8254POPC   C3A63137   5.873   6.692   7.050
 8254POPC   C4A63138   5.853   6.685   7.350
 8254POPC   C1B63139   6.060   6.537   6.450
 8254POPC   C2B63140   6.068   6.478   6.750
 8254POPC   C3B63141   6.102   6.467   7.050
 8254POPC   C4B63142   6.075   6.517   7.350
 8255POPC   NC363143  19.824  34.570   5.550
 8255POPC   PO463144  19.868  34.530   5.850
 8255POPC   GL163145  19.835  34.548   6.150
 8255POPC   GL263146  19.738  34.502   6.150
 8255POPC   C1A63147  19.822  34.540   6.450
 8255POPC   D2A63148  19.801  34.599   6.750
 8255POPC   C3A63149  19.884  34.541   7.050
 8255POPC   C4A63150  19.848  34.570   7.350
 8255POPC   C1B63151  19.584  34.507   6.450
 8255POPC   C2B63152  19.617  34.508   6.750
 8255POPC   C3B63153  19.576  34.465   7.050
 8255POPC   C4B63154  19.632  34.550   7.350
 8256POPC   NC363155  18.273  33.048   5.550
 8256POPC   PO463156  18.308  33.020   5.850
 8256POPC   GL163157  18.325  33.010   6.150
 8256POPC   GL263158  18.387  33.053   6.150
 8256POPC   C1A63159  18.244  33.031   6.450
 8256POPC   D2A63160  18.258  33.059   6.750
 8256POPC   C3A63161  18.262  33.048   7.050
 8256POPC   C4A63162  18.293  33.017   7.350
 8256POPC   C1B63163  18.541  33.028   6.450
 8256POPC   C2B63164  18.507  33.043   6.750
 8256POPC   C3B63165  18.558  32.966   7.050
 8256POPC   C4B63166  18.516  33.014   7.350
 8257POPC   NC363167  32.232  29.877   5.550
 8257POPC   PO463168  32.268  29.947   5.850
 8257POPC   GL163169  32.285  29.872   6.150
 8257POPC   GL263170  32.332  30.007   6.150
 8257POPC   C1A63171  32.228  29.939   6.450
 8257POPC   D2A63172  32.244  29.898   6.750
 8257POPC   C3A63173  32.203  29.949   7.050
 8257POPC   C4A63174  32.295  29.877   7.350
 8257POPC   C1B63175  32.367  30.096   6.450
 8257POPC   C2B63176  32.424  30.167   6.750
 8257POPC   C3B63177  32.435  30.110   7.050
 8257POPC   C4B63178  32.426  30.104   7.350
 8258POPC   NC363179  10.476  19.020   5.550
 8258POPC   PO463180  10.566  19.070   5.850
 8258POPC   GL163181  10.492  19.043   6.150
 8258POPC   GL263182  10.595  18.926   6.150
 8258POPC   C1A63183  10.499  19.027   6.450
 8258POPC   D2A63184  10.479  19.019   6.750
 8258POPC   C3A63185  10.498  19.108   7.050
 8258POPC   C4A63186  10.545  19.068   7.350
 8258POPC   C1B63187  10.595  18.820   6.450
 8258POPC   C2B63188  10.593  18.841   6.750
 8258POPC   C3B63189  10.634  18.796   7.050
 8258POPC   C4B63190  10.631  18.865   7.350
 8259POPC   NC363191  26.063  36.909   5.550
 8259POPC   PO463192  26.033  36.900   5.850
 8259POPC   GL163193  26.035  36.939   6.150
 8259POPC   GL263194  26.168  36.863   6.150
 8259POPC   C1A63195  26.041  36.885   6.450
 8259POPC   D2A63196  26.002  36.953   6.750
 8259POPC   C3A63197  26.088  36.927   7.050
 8259POPC   C4A63198  26.061  36.902   7.350
 8259POPC   C1B63199  26.297  36.917   6.450
 8259POPC   C2B63200  26.318  36.869   6.750
 8259POPC   C3B63201  26.266  36.875   7.050
 8259POPC   C4B63202  26.277  36.853   7.350
 8260POPC   NC363203  38.408  25.310   5.550
 8260POPC   PO463204  38.421  25.237   5.850
 8260POPC   GL163205  38.434  25.298   6.150
 8260POPC   GL263206  38.525  25.223   6.150
 8260POPC   C1A63207  38.489  25.272   6.450
 8260POPC   D2A63208  38.475  25.254   6.750
 8260POPC   C3A63209  38.452  25.304   7.050
 8260POPC   C4A63210  38.452  25.269   7.350
 8260POPC   C1B63211  38.653  25.189   6.450
 8260POPC   C2B63212  38.717  25.179   6.750
 8260POPC   C3B63213  38.723  25.153   7.050
 8260POPC   C4B63214  38.639  25.199   7.350
 8261POPC   NC363215  26.057  14.430   5.550
 8261POPC   PO463216  26.080  14.370   5.850
 8261POPC   GL163217  26.042  14.377   6.150
 8261POPC   GL263218  26.041  14.320   6.150
 8261POPC   C1A63219  26.018  14.378   6.450
 8261POPC   D2A63220  26.025  14.365   6.750
 8261POPC   C3A63221  26.040  14.376   7.050
 8261POPC   C4A63222  26.032  14.429   7.350
 8261POPC   C1B63223  26.001  14.147   6.450
 8261POPC   C2B63224  26.021  14.186   6.750
 8261POPC   C3B63225  26.053  14.117   7.050
 8261POPC   C4B63226  26.017  14.108   7.350
 8262POPC   NC363227   1.949   5.075   5.550
 8262POPC   PO463228   1.992   5.092   5.850
 8262POPC   GL163229   1.962   5.125   6.150
 8262POPC   GL263230   2.103   5.103   6.150
 8262POPC   C1A63231   1.977   5.133   6.450
 8262POPC   D2A63232   1.980   5.074   6.750
 8262POPC   C3A63233   1.997   5.056   7.050
 8262POPC   C4A63234   1.966   5.139   7.350
 8262POPC   C1B63235   2.269   5.090   6.450
 8262POPC   C2B63236   2.211   5.100   6.750
 8262POPC   C3B63237   2.209   5.053   7.050
 8262POPC   C4B63238   2.282   5.134   7.350
 8263POPC   NC363239  39.190  26.839   5.550
 8263POPC   PO463240  39.200  26.816   5.850
 8263POPC   GL163241  39.237  26.805   6.150
 8263POPC   GL263242  39.316  26.887   6.150
 8263POPC   C1A63243  39.203  26.861   6.450
 8263POPC   D2A63244  39.212  26.850   6.750
 8263POPC   C3A63245  39.268  26.811   7.050
 8263POPC   C4A63246  39.187  26.815   7.350
 8263POPC   C1B63247  39.469  26.952   6.450
 8263POPC   C2B63248  39.453  26.961   6.750
 8263POPC   C3B63249  39.459  26.883   7.050
 8263POPC   C4B63250  39.461  26.883   7.350
 8264POPC   NC363251  33.016   7.394   5.550
 8264POPC   PO463252  33.046   7.413   5.850
 8264POPC   GL163253  33.010   7.459   6.150
 8264POPC   GL263254  32.940   7.386   6.150
 8264POPC   C1A63255  33.046   7.457   6.450
 8264POPC   D2A63256  33.058   7.393   6.750
 8264POPC   C3A63257  33.018   7.400   7.050
 8264POPC   C4A63258  32.985   7.385   7.350
 8264POPC   C1B63259  32.845   7.297   6.450
 8264POPC   C2B63260  32.841   7.276   6.750
 8264POPC   C3B63261  32.812   7.273   7.050
 8264POPC   C4B63262  32.876   7.238   7.350
 8265POPC   NC363263  27.612   2.036   5.550
 8265POPC   PO463264  27.640   1.944   5.850
 8265POPC   GL163265  27.551   1.987   6.150
 8265POPC   GL263266  27.551   1.886   6.150
 8265POPC   C1A63267  27.607   1.956   6.450
 8265POPC   D2A63268  27.613   2.014   6.750
 8265POPC   C3A63269  27.609   1.954   7.050
 8265POPC   C4A63270  27.553   1.993   7.350
 8265POPC   C1B63271  27.427   1.786   6.450
 8265POPC   C2B63272  27.421   1.796   6.750
 8265POPC   C3B63273  27.442   1.789   7.050
 8265POPC   C4B63274  27.407   1.748   7.350
 8266POPC   NC363275  15.206  36.175   5.550
 8266POPC   PO463276  15.198  36.150   5.850
 8266POPC   GL163277  15.214  36.100   6.150
 8266POPC   GL263278  15.278  36.160   6.150
 8266POPC   C1A63279  15.140  36.107   6.450
 8266POPC   D2A63280  15.221  36.120   6.750
 8266POPC   C3A63281  15.210  36.167   7.050
 8266POPC   C4A63282  15.192  36.086   7.350
 8266POPC   C1B63283  15.427  36.189   6.450
 8266POPC   C2B63284  15.453  36.193   6.750
 8266POPC   C3B63285  15.380  36.197   7.050
 8266POPC   C4B63286  15.455  36.216   7.350
 8267POPC   NC363287  20.620  31.513   5.550
 8267POPC   PO463288  20.655  31.521   5.850
 8267POPC   GL163289  20.636  31.431   6.150
 8267POPC   GL263290  20.535  31.564   6.150
 8267POPC   C1A63291  20.611  31.454   6.450
 8267POPC   D2A63292  20.636  31.446   6.750
 8267POPC   C3A63293  20.594  31.494   7.050
 8267POPC   C4A63294  20.570  31.444   7.350
 8267POPC   C1B63295  20.447  31.695   6.450
 8267POPC   C2B63296  20.465  31.649   6.750
 8267POPC   C3B63297  20.486  31.698   7.050
 8267POPC   C4B63298  20.429  31.626   7.350
 8268POPC   NC363299   5.131  39.275   5.550
 8268POPC   PO463300   5.091  39.192   5.850
 8268POPC   GL163301   5.126  39.219   6.150
 8268POPC   GL263302   5.142  39.368   6.150
 8268POPC   C1A63303   5.071  39.215   6.450
 8268POPC   D2A63304   5.115  39.262   6.750
 8268POPC   C3A63305   5.125  39.272   7.050
 8268POPC   C4A63306   5.067  39.265   7.350
 8268POPC   C1B63307   5.196  39.432   6.450
 8268POPC   C2B63308   5.225  39.489   6.750
 8268POPC   C3B63309   5.238  39.407   7.050
 8268POPC   C4B63310   5.243  39.474   7.350
 8269POPC   NC363311  26.810  21.378   5.550
 8269POPC   PO463312  26.832  21.338   5.850
 8269POPC   GL163313  26.838  21.356   6.150
 8269POPC   GL263314  26.959  21.266   6.150
 8269POPC   C1A63315  26.817  21.430   6.450
 8269POPC   D2A63316  26.845  21.392   6.750
 8269POPC   C3A63317  26.857  21.342   7.050
 8269POPC   C4A63318  26.797  21.427   7.350
 8269POPC   C1B63319  26.974  21.234   6.450
 8269POPC   C2B63320  27.034  21.193   6.750
 8269POPC   C3B63321  26.997  21.275   7.050
 8269POPC   C4B63322  27.012  21.216   7.350
 8270POPC   NC363323  29.172  14.379   5.550
 8270POPC   PO463324  29.181  14.370   5.850
 8270POPC   GL163325  29.190  14.367   6.150
 8270POPC   GL263326  29.158  14.562   6.150
 8270POPC   C1A63327  29.112  14.417   6.450
 8270POPC   D2A63328  29.189  14.368   6.750
 8270POPC   C3A63329  29.163  14.425   7.050
 8270POPC   C4A63330  29.109  14.420   7.350
 8270POPC   C1B63331  29.160  14.665   6.450
 8270POPC   C2B63332  29.218  14.604   6.750
 8270POPC   C3B63333  29.188  14.655   7.050
 8270POPC   C4B63334  29.250  14.634   7.350
 8271POPC   NC363335  19.013  34.542   5.550
 8271POPC   PO463336  19.105  34.591   5.850
 8271POPC   GL163337  19.023  34.538   6.150
 8271POPC   GL263338  19.180  34.640   6.150
 8271POPC   C1A63339  19.080  34.603   6.450
 8271POPC   D2A63340  19.091  34.532   6.750
 8271POPC   C3A63341  19.074  34.528   7.050
 8271POPC   C4A63342  19.069  34.597   7.350
 8271POPC   C1B63343  19.267  34.732   6.450
 8271POPC   C2B63344  19.280  34.683   6.750
 8271POPC   C3B63345  19.318  34.736   7.050
 8271POPC   C4B63346  19.278  34.677   7.350
 8272POPC   NC363347  17.525  41.564   5.550
 8272POPC   PO463348  17.509  41.556   5.850
 8272POPC   GL163349  17.520  41.556   6.150
 8272POPC   GL263350  17.485  41.646   6.150
 8272POPC   C1A63351  17.507  41.582   6.450
 8272POPC   D2A63352  17.518  41.536   6.750
 8272POPC   C3A63353  17.479  41.560   7.050
 8272POPC   C4A63354  17.529  41.578   7.350
 8272POPC   C1B63355  17.425  41.830   6.450
 8272POPC   C2B63356  17.413  41.748   6.750
 8272POPC   C3B63357  17.473  41.837   7.050
 8272POPC   C4B63358  17.399  41.769   7.350
 8273POPC   NC363359  12.065  29.910   5.550
 8273POPC   PO463360  12.122  29.922   5.850
 8273POPC   GL163361  12.032  29.920   6.150
 8273POPC   GL263362  12.142  29.974   6.150
 8273POPC   C1A63363  12.059  29.928   6.450
 8273POPC   D2A63364  12.049  29.894   6.750
 8273POPC   C3A63365  12.061  29.950   7.050
 8273POPC   C4A63366  12.042  29.967   7.350
 8273POPC   C1B63367  12.292  30.093   6.450
 8273POPC   C2B63368  12.254  30.049   6.750
 8273POPC   C3B63369  12.223  30.111   7.050
 8273POPC   C4B63370  12.292  30.094   7.350
 8274POPC   NC363371  19.801  17.505   5.550
 8274POPC   PO463372  19.865  17.466   5.850
 8274POPC   GL163373  19.801  17.523   6.150
 8274POPC   GL263374  19.747  17.447   6.150
 8274POPC   C1A63375  19.823  17.483   6.450
 8274POPC   D2A63376  19.825  17.464   6.750
 8274POPC   C3A63377  19.860  17.535   7.050
 8274POPC   C4A63378  19.788  17.547   7.350
 8274POPC   C1B63379  19.554  17.376   6.450
 8274POPC   C2B63380  19.580  17.395   6.750
 8274POPC   C3B63381  19.604  17.454   7.050
 8274POPC   C4B63382  19.591  17.391   7.350
 8275POPC   NC363383  37.720  12.810   5.550
 8275POPC   PO463384  37.721  12.841   5.850
 8275POPC   GL163385  37.695  12.857   6.150
 8275POPC   GL263386  37.559  12.931   6.150
 8275POPC   C1A63387  37.638  12.817   6.450
 8275POPC   D2A63388  37.692  12.826   6.750
 8275POPC   C3A63389  37.687  12.830   7.050
 8275POPC   C4A63390  37.712  12.844   7.350
 8275POPC   C1B63391  37.446  12.920   6.450
 8275POPC   C2B63392  37.487  12.948   6.750
 8275POPC   C3B63393  37.449  12.956   7.050
 8275POPC   C4B63394  37.466  12.921   7.350
 8276POPC   NC363395  30.720  36.867   5.550
 8276POPC   PO463396  30.683  36.900   5.850
 8276POPC   GL163397  30.706  36.891   6.150
 8276POPC   GL263398  30.669  37.016   6.150
 8276POPC   C1A63399  30.712  36.879   6.450
 8276POPC   D2A63400  30.649  36.914   6.750
 8276POPC   C3A63401  30.674  36.934   7.050
 8276POPC   C4A63402  30.692  36.940   7.350
 8276POPC   C1B63403  30.579  37.102   6.450
 8276POPC   C2B63404  30.627  37.085   6.750
 8276POPC   C3B63405  30.606  37.140   7.050
 8276POPC   C4B63406  30.649  37.113   7.350
 8277POPC   NC363407  30.740  29.879   5.550
 8277POPC   PO463408  30.676  29.900   5.850
 8277POPC   GL163409  30.734  29.967   6.150
 8277POPC   GL263410  30.583  29.910   6.150
 8277POPC   C1A63411  30.664  29.921   6.450
 8277POPC   D2A63412  30.664  29.901   6.750
 8277POPC   C3A63413  30.734  29.881   7.050
 8277POPC   C4A63414  30.710  29.880   7.350
 8277POPC   C1B63415  30.489  29.801   6.450
 8277POPC   C2B63416  30.504  29.797   6.750
 8277POPC   C3B63417  30.442  29.773   7.050
 8277POPC   C4B63418  30.447  29.857   7.350
 8278POPC   NC363419   5.837   2.742   5.550
 8278POPC   PO463420   5.856   2.741   5.850
 8278POPC   GL163421   5.892   2.795   6.150
 8278POPC   GL263422   5.827   2.873   6.150
 8278POPC   C1A63423   5.844   2.772   6.450
 8278POPC   D2A63424   5.896   2.752   6.750
 8278POPC   C3A63425   5.823   2.790   7.050
 8278POPC   C4A63426   5.822   2.774   7.350
 8278POPC   C1B63427   5.847   3.038   6.450
 8278POPC   C2B63428   5.817   3.063   6.750
 8278POPC   C3B63429   5.880   2.966   7.050
 8278POPC   C4B63430   5.897   3.003   7.350
 8279POPC   NC363431   0.425  35.331   5.550
 8279POPC   PO463432   0.429  35.334   5.850
 8279POPC   GL163433   0.388  35.356   6.150
 8279POPC   GL263434   0.375  35.232   6.150
 8279POPC   C1A63435   0.422  35.322   6.450
 8279POPC   D2A63436   0.454  35.386   6.750
 8279POPC   C3A63437   0.467  35.304   7.050
 8279POPC   C4A63438   0.411  35.337   7.350
 8279POPC   C1B63439   0.274  35.245   6.450
 8279POPC   C2B63440   0.257  35.219   6.750
 8279POPC   C3B63441   0.210  35.204   7.050
 8279POPC   C4B63442   0.287  35.168   7.350
 8280POPC   NC363443  33.768  26.861   5.550
 8280POPC   PO463444  33.776  26.771   5.850
 8280POPC   GL163445  33.813  26.837   6.150
 8280POPC   GL263446  33.766  26.677   6.150
 8280POPC   C1A63447  33.785  26.804   6.450
 8280POPC   D2A63448  33.797  26.822   6.750
 8280POPC   C3A63449  33.838  26.788   7.050
 8280POPC   C4A63450  33.792  26.823   7.350
 8280POPC   C1B63451  33.697  26.536   6.450
 8280POPC   C2B63452  33.758  26.549   6.750
 8280POPC   C3B63453  33.699  26.564   7.050
 8280POPC   C4B63454  33.718  26.534   7.350
 8281POPC   NC363455  33.064  43.109   5.550
 8281POPC   PO463456  33.010  43.091   5.850
 8281POPC   GL163457  33.038  43.084   6.150
 8281POPC   GL263458  32.947  43.014   6.150
 8281POPC   C1A63459  32.976  43.075   6.450
 8281POPC   D2A63460  33.069  43.132   6.750
 8281POPC   C3A63461  32.985  43.087   7.050
 8281POPC   C4A63462  32.990  43.075   7.350
 8281POPC   C1B63463  32.814  42.944   6.450
 8281POPC   C2B63464  32.859  42.997   6.750
 8281POPC   C3B63465  32.819  42.991   7.050
 8281POPC   C4B63466  32.781  42.945   7.350
 8282POPC   NC363467  21.416  36.953   5.550
 8282POPC   PO463468  21.338  36.913   5.850
 8282POPC   GL163469  21.339  36.893   6.150
 8282POPC   GL263470  21.405  36.801   6.150
 8282POPC   C1A63471  21.405  36.884   6.450
 8282POPC   D2A63472  21.354  36.914   6.750
 8282POPC   C3A63473  21.428  36.858   7.050
 8282POPC   C4A63474  21.424  36.885   7.350
 8282POPC   C1B63475  21.400  36.642   6.450
 8282POPC   C2B63476  21.398  36.679   6.750
 8282POPC   C3B63477  21.450  36.616   7.050
 8282POPC   C4B63478  21.467  36.668   7.350
 8283POPC   NC363479  16.732   6.607   5.550
 8283POPC   PO463480  16.716   6.612   5.850
 8283POPC   GL163481  16.761   6.687   6.150
 8283POPC   GL263482  16.789   6.496   6.150
 8283POPC   C1A63483  16.744   6.649   6.450
 8283POPC   D2A63484  16.685   6.632   6.750
 8283POPC   C3A63485  16.744   6.605   7.050
 8283POPC   C4A63486  16.748   6.690   7.350
 8283POPC   C1B63487  16.826   6.444   6.450
 8283POPC   C2B63488  16.819   6.388   6.750
 8283POPC   C3B63489  16.868   6.444   7.050
 8283POPC   C4B63490  16.870   6.400   7.350
 8284POPC   NC363491  17.532   2.025   5.550
 8284POPC   PO463492  17.486   1.965   5.850
 8284POPC   GL163493  17.554   2.004   6.150
 8284POPC   GL263494  17.423   1.921   6.150
 8284POPC   C1A63495  17.543   1.977   6.450
 8284POPC   D2A63496  17.507   1.945   6.750
 8284POPC   C3A63497  17.490   1.996   7.050
 8284POPC   C4A63498  17.490   2.005   7.350
 8284POPC   C1B63499  17.254   1.873   6.450
 8284POPC   C2B63500  17.289   1.965   6.750
 8284POPC   C3B63501  17.274   1.888   7.050
 8284POPC   C4B63502  17.282   1.876   7.350
 8285POPC   NC363503   4.342  29.922   5.550
 8285POPC   PO463504   4.308  29.957   5.850
 8285POPC   GL163505   4.350  29.881   6.150
 8285POPC   GL263506   4.415  29.815   6.150
 8285POPC   C1A63507   4.319  29.900   6.450
 8285POPC   D2A63508   4.299  29.964   6.750
 8285POPC   C3A63509   4.341  29.922   7.050
 8285POPC   C4A63510   4.302  29.943   7.350
 8285POPC   C1B63511   4.464  29.765   6.450
 8285POPC   C2B63512   4.513  29.690   6.750
 8285POPC   C3B63513   4.422  29.671   7.050
 8285POPC   C4B63514   4.489  29.735   7.350
 8286POPC   NC363515  22.901  38.411   5.550
 8286POPC   PO463516  22.935  38.449   5.850
 8286POPC   GL163517  22.899  38.489   6.150
 8286POPC   GL263518  22.989  38.539   6.150
 8286POPC   C1A63519  22.947  38.419   6.450
 8286POPC   D2A63520  22.958  38.413   6.750
 8286POPC   C3A63521  22.942  38.406   7.050
 8286POPC   C4A63522  22.967  38.484   7.350
 8286POPC   C1B63523  23.120  38.604   6.450
 8286POPC   C2B63524  23.110  38.620   6.750
 8286POPC   C3B63525  23.124  38.684   7.050
 8286POPC   C4B63526  23.140  38.615   7.350
 8287POPC   NC363527   8.997  30.691   5.550
 8287POPC   PO463528   8.923  30.700   5.850
 8287POPC   GL163529   8.956  30.735   6.150
 8287POPC   GL263530   9.064  30.806   6.150
 8287POPC   C1A63531   8.978  30.707   6.450
 8287POPC   D2A63532   8.991  30.660   6.750
 8287POPC   C3A63533   8.985  30.673   7.050
 8287POPC   C4A63534   8.973  30.675   7.350
 8287POPC   C1B63535   9.090  30.929   6.450
 8287POPC   C2B63536   9.087  30.869   6.750
 8287POPC   C3B63537   9.144  30.923   7.050
 8287POPC   C4B63538   9.149  30.928   7.350
 8288POPC   NC363539  18.290  17.481   5.550
 8288POPC   PO463540  18.273  17.466   5.850
 8288POPC   GL163541  18.322  17.501   6.150
 8288POPC   GL263542  18.136  17.468   6.150
 8288POPC   C1A63543  18.283  17.476   6.450
 8288POPC   D2A63544  18.289  17.474   6.750
 8288POPC   C3A63545  18.278  17.544   7.050
 8288POPC   C4A63546  18.254  17.468   7.350
 8288POPC   C1B63547  18.010  17.453   6.450
 8288POPC   C2B63548  18.071  17.461   6.750
 8288POPC   C3B63549  18.069  17.450   7.050
 8288POPC   C4B63550  18.073  17.490   7.350
 8289POPC   NC363551   8.174  15.997   5.550
 8289POPC   PO463552   8.229  15.913   5.850
 8289POPC   GL163553   8.169  15.909   6.150
 8289POPC   GL263554   8.167  15.865   6.150
 8289POPC   C1A63555   8.220  15.970   6.450
 8289POPC   D2A63556   8.176  15.919   6.750
 8289POPC   C3A63557   8.234  15.946   7.050
 8289POPC   C4A63558   8.223  15.994   7.350
 8289POPC   C1B63559   8.208  15.709   6.450
 8289POPC   C2B63560   8.201  15.746   6.750
 8289POPC   C3B63561   8.276  15.667   7.050
 8289POPC   C4B63562   8.235  15.703   7.350
 8290POPC   NC363563   3.506  38.482   5.550
 8290POPC   PO463564   3.573  38.406   5.850
 8290POPC   GL163565   3.557  38.414   6.150
 8290POPC   GL263566   3.671  38.451   6.150
 8290POPC   C1A63567   3.526  38.465   6.450
 8290POPC   D2A63568   3.499  38.435   6.750
 8290POPC   C3A63569   3.590  38.490   7.050
 8290POPC   C4A63570   3.582  38.451   7.350
 8290POPC   C1B63571   3.773  38.477   6.450
 8290POPC   C2B63572   3.792  38.461   6.750
 8290POPC   C3B63573   3.812  38.505   7.050
 8290POPC   C4B63574   3.797  38.465   7.350
 8291POPC   NC363575  29.188  40.785   5.550
 8291POPC   PO463576  29.158  40.743   5.850
 8291POPC   GL163577  29.177  40.761   6.150
 8291POPC   GL263578  28.985  40.764   6.150
 8291POPC   C1A63579  29.134  40.742   6.450
 8291POPC   D2A63580  29.172  40.809   6.750
 8291POPC   C3A63581  29.146  40.826   7.050
 8291POPC   C4A63582  29.135  40.756   7.350
 8291POPC   C1B63583  28.920  40.814   6.450
 8291POPC   C2B63584  28.905  40.815   6.750
 8291POPC   C3B63585  28.936  40.845   7.050
 8291POPC   C4B63586  28.917  40.786   7.350
 8292POPC   NC363587   3.509  12.845   5.550
 8292POPC   PO463588   3.523  12.873   5.850
 8292POPC   GL163589   3.523  12.843   6.150
 8292POPC   GL263590   3.512  12.964   6.150
 8292POPC   C1A63591   3.536  12.834   6.450
 8292POPC   D2A63592   3.552  12.873   6.750
 8292POPC   C3A63593   3.559  12.814   7.050
 8292POPC   C4A63594   3.557  12.857   7.350
 8292POPC   C1B63595   3.384  13.058   6.450
 8292POPC   C2B63596   3.420  13.081   6.750
 8292POPC   C3B63597   3.367  13.024   7.050
 8292POPC   C4B63598   3.366  13.046   7.350
 8293POPC   NC363599  14.425  43.848   5.550
 8293POPC   PO463600  14.436  43.869   5.850
 8293POPC   GL163601  14.366  43.864   6.150
 8293POPC   GL263602  14.379  44.040   6.150
 8293POPC   C1A63603  14.387  43.883   6.450
 8293POPC   D2A63604  14.386  43.878   6.750
 8293POPC   C3A63605  14.422  43.891   7.050
 8293POPC   C4A63606  14.439  43.916   7.350
 8293POPC   C1B63607  14.346  44.136   6.450
 8293POPC   C2B63608  14.331  44.180   6.750
 8293POPC   C3B63609  14.419  44.153   7.050
 8293POPC   C4B63610  14.390  44.117   7.350
 8294POPC   NC363611   1.940  22.956   5.550
 8294POPC   PO463612   1.960  22.920   5.850
 8294POPC   GL163613   1.993  22.935   6.150
 8294POPC   GL263614   1.820  22.999   6.150
 8294POPC   C1A63615   2.023  22.904   6.450
 8294POPC   D2A63616   2.022  22.964   6.750
 8294POPC   C3A63617   1.995  22.950   7.050
 8294POPC   C4A63618   1.960  22.951   7.350
 8294POPC   C1B63619   1.742  22.993   6.450
 8294POPC   C2B63620   1.735  22.950   6.750
 8294POPC   C3B63621   1.705  22.992   7.050
 8294POPC   C4B63622   1.771  22.991   7.350
 8295POPC   NC363623  30.732  39.268   5.550
 8295POPC   PO463624  30.676  39.270   5.850
 8295POPC   GL163625  30.721  39.268   6.150
 8295POPC   GL263626  30.605  39.110   6.150
 8295POPC   C1A63627  30.691  39.245   6.450
 8295POPC   D2A63628  30.653  39.227   6.750
 8295POPC   C3A63629  30.692  39.235   7.050
 8295POPC   C4A63630  30.690  39.202   7.350
 8295POPC   C1B63631  30.539  39.051   6.450
 8295POPC   C2B63632  30.494  39.023   6.750
 8295POPC   C3B63633  30.477  39.102   7.050
 8295POPC   C4B63634  30.474  39.042   7.350
 8296POPC   NC363635  44.708  38.478   5.550
 8296POPC   PO463636  44.640  38.413   5.850
 8296POPC   GL163637  44.711  38.458   6.150
 8296POPC   GL263638  44.769  38.524   6.150
 8296POPC   C1A63639  44.649  38.481   6.450
 8296POPC   D2A63640  44.688  38.471   6.750
 8296POPC   C3A63641  44.641  38.490   7.050
 8296POPC   C4A63642  44.615  38.447   7.350
 8296POPC   C1B63643  44.898  38.533   6.450
 8296POPC   C2B63644  44.842  38.593   6.750
 8296POPC   C3B63645  44.887  38.601   7.050
 8296POPC   C4B63646  44.850  38.530   7.350
 8297POPC   NC363647  29.129  22.916   5.550
 8297POPC   PO463648  29.188  22.967   5.850
 8297POPC   GL163649  29.107  22.977   6.150
 8297POPC   GL263650  29.239  22.996   6.150
 8297POPC   C1A63651  29.160  22.954   6.450
 8297POPC   D2A63652  29.124  22.959   6.750
 8297POPC   C3A63653  29.145  22.925   7.050
 8297POPC   C4A63654  29.161  22.924   7.350
 8297POPC   C1B63655  29.288  23.176   6.450
 8297POPC   C2B63656  29.280  23.143   6.750
 8297POPC   C3B63657  29.269  23.150   7.050
 8297POPC   C4B63658  29.276  23.132   7.350
 8298POPC   NC363659  24.501   5.839   5.550
 8298POPC   PO463660  24.520   5.849   5.850
 8298POPC   GL163661  24.447   5.908   6.150
 8298POPC   GL263662  24.644   5.885   6.150
 8298POPC   C1A63663  24.491   5.908   6.450
 8298POPC   D2A63664  24.502   5.864   6.750
 8298POPC   C3A63665  24.472   5.911   7.050
 8298POPC   C4A63666  24.485   5.875   7.350
 8298POPC   C1B63667  24.706   6.037   6.450
 8298POPC   C2B63668  24.748   5.943   6.750
 8298POPC   C3B63669  24.752   5.994   7.050
 8298POPC   C4B63670  24.731   6.031   7.350
 8299POPC   NC363671  33.824  35.319   5.550
 8299POPC   PO463672  33.833  35.357   5.850
 8299POPC   GL163673  33.818  35.376   6.150
 8299POPC   GL263674  33.873  35.445   6.150
 8299POPC   C1A63675  33.845  35.341   6.450
 8299POPC   D2A63676  33.832  35.331   6.750
 8299POPC   C3A63677  33.818  35.393   7.050
 8299POPC   C4A63678  33.792  35.339   7.350
 8299POPC   C1B63679  34.021  35.566   6.450
 8299POPC   C2B63680  33.994  35.536   6.750
 8299POPC   C3B63681  34.015  35.550   7.050
 8299POPC   C4B63682  33.980  35.537   7.350
 8300POPC   NC363683  29.175   5.105   5.550
 8300POPC   PO463684  29.138   5.052   5.850
 8300POPC   GL163685  29.168   5.094   6.150
 8300POPC   GL263686  28.981   5.110   6.150
 8300POPC   C1A63687  29.168   5.100   6.450
 8300POPC   D2A63688  29.149   5.060   6.750
 8300POPC   C3A63689  29.150   5.110   7.050
 8300POPC   C4A63690  29.185   5.069   7.350
 8300POPC   C1B63691  28.857   5.100   6.450
 8300POPC   C2B63692  28.923   5.010   6.750
 8300POPC   C3B63693  28.888   5.100   7.050
 8300POPC   C4B63694  28.941   5.012   7.350
 8301POPC   NC363695   6.647  25.273   5.550
 8301POPC   PO463696   6.657  25.304   5.850
 8301POPC   GL163697   6.651  25.252   6.150
 8301POPC   GL263698   6.527  25.242   6.150
 8301POPC   C1A63699   6.610  25.312   6.450
 8301POPC   D2A63700   6.631  25.287   6.750
 8301POPC   C3A63701   6.606  25.268   7.050
 8301POPC   C4A63702   6.657  25.308   7.350
 8301POPC   C1B63703   6.453  25.116   6.450
 8301POPC   C2B63704   6.396  25.104   6.750
 8301POPC   C3B63705   6.449  25.119   7.050
 8301POPC   C4B63706   6.404  25.082   7.350
 8302POPC   NC363707   4.292  14.406   5.550
 8302POPC   PO463708   4.305  14.446   5.850
 8302POPC   GL163709   4.348  14.453   6.150
 8302POPC   GL263710   4.204  14.469   6.150
 8302POPC   C1A63711   4.304  14.356   6.450
 8302POPC   D2A63712   4.307  14.428   6.750
 8302POPC   C3A63713   4.329  14.424   7.050
 8302POPC   C4A63714   4.354  14.414   7.350
 8302POPC   C1B63715   4.075  14.463   6.450
 8302POPC   C2B63716   4.057  14.494   6.750
 8302POPC   C3B63717   4.093  14.403   7.050
 8302POPC   C4B63718   4.037  14.462   7.350
 8303POPC   NC363719   8.194  25.246   5.550
 8303POPC   PO463720   8.182  25.264   5.850
 8303POPC   GL163721   8.158  25.304   6.150
 8303POPC   GL263722   8.259  25.357   6.150
 8303POPC   C1A63723   8.228  25.262   6.450
 8303POPC   D2A63724   8.161  25.218   6.750
 8303POPC   C3A63725   8.246  25.280   7.050
 8303POPC   C4A63726   8.240  25.220   7.350
 8303POPC   C1B63727   8.228  25.488   6.450
 8303POPC   C2B63728   8.238  25.462   6.750
 8303POPC   C3B63729   8.251  25.485   7.050
 8303POPC   C4B63730   8.221  25.498   7.350
 8304POPC   NC363731  29.895  33.054   5.550
 8304POPC   PO463732  29.890  33.039   5.850
 8304POPC   GL163733  29.901  33.047   6.150
 8304POPC   GL263734  29.999  33.169   6.150
 8304POPC   C1A63735  29.912  33.009   6.450
 8304POPC   D2A63736  29.903  33.055   6.750
 8304POPC   C3A63737  29.948  33.067   7.050
 8304POPC   C4A63738  29.921  33.044   7.350
 8304POPC   C1B63739  30.092  33.184   6.450
 8304POPC   C2B63740  30.048  33.232   6.750
 8304POPC   C3B63741  30.061  33.225   7.050
 8304POPC   C4B63742  30.111  33.242   7.350
 8305POPC   NC363743  29.103  20.625   5.550
 8305POPC   PO463744  29.176  20.567   5.850
 8305POPC   GL163745  29.110  20.657   6.150
 8305POPC   GL263746  29.202  20.547   6.150
 8305POPC   C1A63747  29.169  20.645   6.450
 8305POPC   D2A63748  29.191  20.586   6.750
 8305POPC   C3A63749  29.181  20.659   7.050
 8305POPC   C4A63750  29.148  20.646   7.350
 8305POPC   C1B63751  29.302  20.368   6.450
 8305POPC   C2B63752  29.228  20.356   6.750
 8305POPC   C3B63753  29.314  20.416   7.050
 8305POPC   C4B63754  29.248  20.436   7.350
 8306POPC   NC363755  40.008   2.038   5.550
 8306POPC   PO463756  40.035   1.964   5.850
 8306POPC   GL163757  40.051   1.998   6.150
 8306POPC   GL263758  39.841   2.026   6.150
 8306POPC   C1A63759  40.033   2.036   6.450
 8306POPC   D2A63760  40.024   1.952   6.750
 8306POPC   C3A63761  39.985   1.974   7.050
 8306POPC   C4A63762  39.990   1.977   7.350
 8306POPC   C1B63763  39.738   2.013   6.450
 8306POPC   C2B63764  39.772   1.976   6.750
 8306POPC   C3B63765  39.800   1.931   7.050
 8306POPC   C4B63766  39.806   1.925   7.350
 8307POPC   NC363767  36.096  26.806   5.550
 8307POPC   PO463768  36.108  26.832   5.850
 8307POPC   GL163769  36.167  26.833   6.150
 8307POPC   GL263770  35.983  26.856   6.150
 8307POPC   C1A63771  36.085  26.850   6.450
 8307POPC   D2A63772  36.078  26.854   6.750
 8307POPC   C3A63773  36.086  26.813   7.050
 8307POPC   C4A63774  36.129  26.779   7.350
 8307POPC   C1B63775  35.863  26.887   6.450
 8307POPC   C2B63776  35.923  26.887   6.750
 8307POPC   C3B63777  35.926  26.875   7.050
 8307POPC   C4B63778  35.930  26.872   7.350
 8308POPC   NC363779  22.169  15.928   5.550
 8308POPC   PO463780  22.148  16.002   5.850
 8308POPC   GL163781  22.176  15.936   6.150
 8308POPC   GL263782  22.006  15.963   6.150
 8308POPC   C1A63783  22.153  15.986   6.450
 8308POPC   D2A63784  22.157  15.932   6.750
 8308POPC   C3A63785  22.155  15.952   7.050
 8308POPC   C4A63786  22.171  15.948   7.350
 8308POPC   C1B63787  21.885  15.877   6.450
 8308POPC   C2B63788  21.941  15.865   6.750
 8308POPC   C3B63789  21.926  15.872   7.050
 8308POPC   C4B63790  21.892  15.890   7.350
 8309POPC   NC363791   9.009  36.879   5.550
 8309POPC   PO463792   9.014  36.884   5.850
 8309POPC   GL163793   8.957  36.864   6.150
 8309POPC   GL263794   8.865  36.885   6.150
 8309POPC   C1A63795   8.984  36.945   6.450
 8309POPC   D2A63796   8.972  36.931   6.750
 8309POPC   C3A63797   8.975  36.915   7.050
 8309POPC   C4A63798   8.962  36.858   7.350
 8309POPC   C1B63799   8.729  36.825   6.450
 8309POPC   C2B63800   8.776  36.827   6.750
 8309POPC   C3B63801   8.737  36.763   7.050
 8309POPC   C4B63802   8.750  36.766   7.350
 8310POPC   NC363803  29.882  21.435   5.550
 8310POPC   PO463804  29.875  21.432   5.850
 8310POPC   GL163805  29.938  21.427   6.150
 8310POPC   GL263806  29.965  21.453   6.150
 8310POPC   C1A63807  29.911  21.383   6.450
 8310POPC   D2A63808  29.921  21.430   6.750
 8310POPC   C3A63809  29.934  21.418   7.050
 8310POPC   C4A63810  29.924  21.407   7.350
 8310POPC   C1B63811  30.105  21.569   6.450
 8310POPC   C2B63812  30.131  21.594   6.750
 8310POPC   C3B63813  30.120  21.618   7.050
 8310POPC   C4B63814  30.122  21.575   7.350
 8311POPC   NC363815  36.932  26.775   5.550
 8311POPC   PO463816  36.884  26.797   5.850
 8311POPC   GL163817  36.873  26.815   6.150
 8311POPC   GL263818  36.812  26.909   6.150
 8311POPC   C1A63819  36.911  26.787   6.450
 8311POPC   D2A63820  36.873  26.816   6.750
 8311POPC   C3A63821  36.936  26.854   7.050
 8311POPC   C4A63822  36.940  26.852   7.350
 8311POPC   C1B63823  36.663  26.935   6.450
 8311POPC   C2B63824  36.666  26.954   6.750
 8311POPC   C3B63825  36.692  26.919   7.050
 8311POPC   C4B63826  36.645  26.937   7.350
 8312POPC   NC363827  43.152   1.259   5.550
 8312POPC   PO463828  43.095   1.247   5.850
 8312POPC   GL163829  43.086   1.250   6.150
 8312POPC   GL263830  43.004   1.373   6.150
 8312POPC   C1A63831  43.112   1.260   6.450
 8312POPC   D2A63832  43.146   1.169   6.750
 8312POPC   C3A63833  43.087   1.256   7.050
 8312POPC   C4A63834  43.080   1.238   7.350
 8312POPC   C1B63835  42.990   1.425   6.450
 8312POPC   C2B63836  42.951   1.479   6.750
 8312POPC   C3B63837  43.014   1.454   7.050
 8312POPC   C4B63838  42.994   1.439   7.350
 8313POPC   NC363839   5.110  36.089   5.550
 8313POPC   PO463840   5.063  36.175   5.850
 8313POPC   GL163841   5.081  36.092   6.150
 8313POPC   GL263842   5.252  36.202   6.150
 8313POPC   C1A63843   5.132  36.126   6.450
 8313POPC   D2A63844   5.119  36.097   6.750
 8313POPC   C3A63845   5.120  36.153   7.050
 8313POPC   C4A63846   5.073  36.143   7.350
 8313POPC   C1B63847   5.332  36.191   6.450
 8313POPC   C2B63848   5.368  36.161   6.750
 8313POPC   C3B63849   5.383  36.238   7.050
 8313POPC   C4B63850   5.349  36.187   7.350
 8314POPC   NC363851  10.557  35.369   5.550
 8314POPC   PO463852  10.498  35.394   5.850
 8314POPC   GL163853  10.510  35.346   6.150
 8314POPC   GL263854  10.376  35.380   6.150
 8314POPC   C1A63855  10.521  35.397   6.450
 8314POPC   D2A63856  10.480  35.388   6.750
 8314POPC   C3A63857  10.517  35.323   7.050
 8314POPC   C4A63858  10.528  35.358   7.350
 8314POPC   C1B63859  10.240  35.336   6.450
 8314POPC   C2B63860  10.271  35.275   6.750
 8314POPC   C3B63861  10.275  35.299   7.050
 8314POPC   C4B63862  10.278  35.323   7.350
 8315POPC   NC363863  31.513  36.897   5.550
 8315POPC   PO463864  31.452  36.933   5.850
 8315POPC   GL163865  31.471  36.909   6.150
 8315POPC   GL263866  31.395  36.873   6.150
 8315POPC   C1A63867  31.482  36.870   6.450
 8315POPC   D2A63868  31.430  36.886   6.750
 8315POPC   C3A63869  31.461  36.935   7.050
 8315POPC   C4A63870  31.438  36.925   7.350
 8315POPC   C1B63871  31.257  36.796   6.450
 8315POPC   C2B63872  31.257  36.813   6.750
 8315POPC   C3B63873  31.261  36.812   7.050
 8315POPC   C4B63874  31.261  36.736   7.350
 8316POPC   NC363875  36.917   1.941   5.550
 8316POPC   PO463876  36.865   2.002   5.850
 8316POPC   GL163877  36.856   1.975   6.150
 8316POPC   GL263878  36.896   1.914   6.150
 8316POPC   C1A63879  36.942   1.963   6.450
 8316POPC   D2A63880  36.885   1.942   6.750
 8316POPC   C3A63881  36.952   1.946   7.050
 8316POPC   C4A63882  36.880   1.964   7.350
 8316POPC   C1B63883  36.880   1.697   6.450
 8316POPC   C2B63884  36.944   1.763   6.750
 8316POPC   C3B63885  36.915   1.757   7.050
 8316POPC   C4B63886  36.923   1.740   7.350
 8317POPC   NC363887  29.925  34.556   5.550
 8317POPC   PO463888  29.879  34.607   5.850
 8317POPC   GL163889  29.917  34.577   6.150
 8317POPC   GL263890  29.839  34.498   6.150
 8317POPC   C1A63891  29.937  34.608   6.450
 8317POPC   D2A63892  29.964  34.578   6.750
 8317POPC   C3A63893  29.872  34.553   7.050
 8317POPC   C4A63894  29.927  34.565   7.350
 8317POPC   C1B63895  29.716  34.375   6.450
 8317POPC   C2B63896  29.728  34.453   6.750
 8317POPC   C3B63897  29.712  34.403   7.050
 8317POPC   C4B63898  29.705  34.427   7.350
 8318POPC   NC363899  36.116  37.728   5.550
 8318POPC   PO463900  36.148  37.719   5.850
 8318POPC   GL163901  36.136  37.671   6.150
 8318POPC   GL263902  36.044  37.679   6.150
 8318POPC   C1A63903  36.141  37.722   6.450
 8318POPC   D2A63904  36.112  37.720   6.750
 8318POPC   C3A63905  36.118  37.632   7.050
 8318POPC   C4A63906  36.136  37.688   7.350
 8318POPC   C1B63907  35.861  37.687   6.450
 8318POPC   C2B63908  35.919  37.683   6.750
 8318POPC   C3B63909  35.872  37.718   7.050
 8318POPC   C4B63910  35.870  37.704   7.350
 8319POPC   NC363911   4.274  43.096   5.550
 8319POPC   PO463912   4.353  43.149   5.850
 8319POPC   GL163913   4.315  43.107   6.150
 8319POPC   GL263914   4.227  43.069   6.150
 8319POPC   C1A63915   4.277  43.127   6.450
 8319POPC   D2A63916   4.268  43.107   6.750
 8319POPC   C3A63917   4.317  43.086   7.050
 8319POPC   C4A63918   4.303  43.155   7.350
 8319POPC   C1B63919   4.091  42.962   6.450
 8319POPC   C2B63920   4.109  43.050   6.750
 8319POPC   C3B63921   4.131  42.978   7.050
 8319POPC   C4B63922   4.123  42.980   7.350
 8320POPC   NC363923  27.642  38.498   5.550
 8320POPC   PO463924  27.636  38.489   5.850
 8320POPC   GL163925  27.624  38.452   6.150
 8320POPC   GL263926  27.533  38.404   6.150
 8320POPC   C1A63927  27.566  38.406   6.450
 8320POPC   D2A63928  27.587  38.414   6.750
 8320POPC   C3A63929  27.545  38.415   7.050
 8320POPC   C4A63930  27.608  38.410   7.350
 8320POPC   C1B63931  27.441  38.265   6.450
 8320POPC   C2B63932  27.356  38.303   6.750
 8320POPC   C3B63933  27.375  38.295   7.050
 8320POPC   C4B63934  27.424  38.296   7.350
 8321POPC   NC363935  22.965   9.759   5.550
 8321POPC   PO463936  22.963   9.773   5.850
 8321POPC   GL163937  22.934   9.793   6.150
 8321POPC   GL263938  22.837   9.797   6.150
 8321POPC   C1A63939  22.947   9.754   6.450
 8321POPC   D2A63940  22.960   9.737   6.750
 8321POPC   C3A63941  22.978   9.710   7.050
 8321POPC   C4A63942  22.902   9.720   7.350
 8321POPC   C1B63943  22.705   9.858   6.450
 8321POPC   C2B63944  22.708   9.809   6.750
 8321POPC   C3B63945  22.659   9.871   7.050
 8321POPC   C4B63946  22.734   9.801   7.350
 8322POPC   NC363947  22.939   8.930   5.550
 8322POPC   PO463948  22.928   9.021   5.850
 8322POPC   GL163949  22.930   8.957   6.150
 8322POPC   GL263950  22.882   8.919   6.150
 8322POPC   C1A63951  22.975   8.940   6.450
 8322POPC   D2A63952  22.916   9.012   6.750
 8322POPC   C3A63953  22.903   8.980   7.050
 8322POPC   C4A63954  22.980   8.996   7.350
 8322POPC   C1B63955  22.761   8.734   6.450
 8322POPC   C2B63956  22.732   8.821   6.750
 8322POPC   C3B63957  22.739   8.814   7.050
 8322POPC   C4B63958  22.816   8.742   7.350
 8323POPC   NC363959   0.433  23.732   5.550
 8323POPC   PO463960   0.483  23.686   5.850
 8323POPC   GL163961   0.408  23.679   6.150
 8323POPC   GL263962   0.450  23.559   6.150
 8323POPC   C1A63963   0.442  23.712   6.450
 8323POPC   D2A63964   0.416  23.740   6.750
 8323POPC   C3A63965   0.480  23.681   7.050
 8323POPC   C4A63966   0.445  23.674   7.350
 8323POPC   C1B63967   0.350  23.460   6.450
 8323POPC   C2B63968   0.442  23.449   6.750
 8323POPC   C3B63969   0.446  23.461   7.050
 8323POPC   C4B63970   0.430  23.485   7.350
 8324POPC   NC363971  34.612  20.594   5.550
 8324POPC   PO463972  34.541  20.614   5.850
 8324POPC   GL163973  34.528  20.652   6.150
 8324POPC   GL263974  34.678  20.696   6.150
 8324POPC   C1A63975  34.546  20.658   6.450
 8324POPC   D2A63976  34.581  20.589   6.750
 8324POPC   C3A63977  34.546  20.612   7.050
 8324POPC   C4A63978  34.543  20.608   7.350
 8324POPC   C1B63979  34.666  20.857   6.450
 8324POPC   C2B63980  34.719  20.774   6.750
 8324POPC   C3B63981  34.726  20.819   7.050
 8324POPC   C4B63982  34.717  20.856   7.350
 8325POPC   NC363983  22.188  36.877   5.550
 8325POPC   PO463984  22.172  36.860   5.850
 8325POPC   GL163985  22.161  36.880   6.150
 8325POPC   GL263986  22.245  36.886   6.150
 8325POPC   C1A63987  22.173  36.865   6.450
 8325POPC   D2A63988  22.167  36.887   6.750
 8325POPC   C3A63989  22.173  36.938   7.050
 8325POPC   C4A63990  22.205  36.900   7.350
 8325POPC   C1B63991  22.441  36.892   6.450
 8325POPC   C2B63992  22.431  36.924   6.750
 8325POPC   C3B63993  22.422  36.872   7.050
 8325POPC   C4B63994  22.378  36.880   7.350
 8326POPC   NC363995  40.811  36.078   5.550
 8326POPC   PO463996  40.810  36.084   5.850
 8326POPC   GL163997  40.830  36.090   6.150
 8326POPC   GL263998  40.725  36.296   6.150
 8326POPC   C1A63999  40.811  36.088   6.450
 8326POPC   D2A64000  40.808  36.116   6.750
 8326POPC   C3A64001  40.757  36.171   7.050
 8326POPC   C4A64002  40.766  36.122   7.350
 8326POPC   C1B64003  40.680  36.322   6.450
 8326POPC   C2B64004  40.654  36.356   6.750
 8326POPC   C3B64005  40.678  36.411   7.050
 8326POPC   C4B64006  40.684  36.408   7.350
 8327POPC   NC364007  20.601  22.939   5.550
 8327POPC   PO464008  20.654  22.909   5.850
 8327POPC   GL164009  20.579  22.894   6.150
 8327POPC   GL264010  20.563  23.009   6.150
 8327POPC   C1A64011  20.576  22.954   6.450
 8327POPC   D2A64012  20.569  22.909   6.750
 8327POPC   C3A64013  20.585  22.908   7.050
 8327POPC   C4A64014  20.563  22.963   7.350
 8327POPC   C1B64015  20.547  23.147   6.450
 8327POPC   C2B64016  20.568  23.208   6.750
 8327POPC   C3B64017  20.493  23.205   7.050
 8327POPC   C4B64018  20.560  23.145   7.350
 8328POPC   NC364019  29.144  36.936   5.550
 8328POPC   PO464020  29.160  36.904   5.850
 8328POPC   GL164021  29.177  36.938   6.150
 8328POPC   GL264022  29.091  36.748   6.150
 8328POPC   C1A64023  29.135  36.883   6.450
 8328POPC   D2A64024  29.131  36.873   6.750
 8328POPC   C3A64025  29.130  36.899   7.050
 8328POPC   C4A64026  29.114  36.868   7.350
 8328POPC   C1B64027  29.050  36.730   6.450
 8328POPC   C2B64028  28.994  36.699   6.750
 8328POPC   C3B64029  28.978  36.724   7.050
 8328POPC   C4B64030  29.028  36.638   7.350
 8329POPC   NC364031   6.620  26.791   5.550
 8329POPC   PO464032   6.635  26.859   5.850
 8329POPC   GL164033   6.689  26.805   6.150
 8329POPC   GL264034   6.812  26.873   6.150
 8329POPC   C1A64035   6.653  26.784   6.450
 8329POPC   D2A64036   6.630  26.784   6.750
 8329POPC   C3A64037   6.649  26.788   7.050
 8329POPC   C4A64038   6.622  26.829   7.350
 8329POPC   C1B64039   6.859  26.880   6.450
 8329POPC   C2B64040   6.850  26.858   6.750
 8329POPC   C3B64041   6.927  26.833   7.050
 8329POPC   C4B64042   6.878  26.837   7.350
 8330POPC   NC364043  18.284   2.028   5.550
 8330POPC   PO464044  18.324   2.015   5.850
 8330POPC   GL164045  18.263   2.000   6.150
 8330POPC   GL264046  18.184   1.887   6.150
 8330POPC   C1A64047  18.314   2.003   6.450
 8330POPC   D2A64048  18.313   2.000   6.750
 8330POPC   C3A64049  18.279   1.963   7.050
 8330POPC   C4A64050  18.242   2.035   7.350
 8330POPC   C1B64051  18.133   1.818   6.450
 8330POPC   C2B64052  18.145   1.791   6.750
 8330POPC   C3B64053  18.087   1.770   7.050
 8330POPC   C4B64054  18.123   1.773   7.350
 8331POPC   NC364055  33.830  29.905   5.550
 8331POPC   PO464056  33.776  29.938   5.850
 8331POPC   GL164057  33.823  29.935   6.150
 8331POPC   GL264058  33.682  29.970   6.150
 8331POPC   C1A64059  33.781  29.953   6.450
 8331POPC   D2A64060  33.824  29.912   6.750
 8331POPC   C3A64061  33.792  29.958   7.050
 8331POPC   C4A64062  33.766  29.945   7.350
 8331POPC   C1B64063  33.620  30.147   6.450
 8331POPC   C2B64064  33.632  30.066   6.750
 8331POPC   C3B64065  33.691  30.137   7.050
 8331POPC   C4B64066  33.613  30.128   7.350
 8332POPC   NC364067  40.803  22.124   5.550
 8332POPC   PO464068  40.822  22.167   5.850
 8332POPC   GL164069  40.791  22.136   6.150
 8332POPC   GL264070  40.740  22.265   6.150
 8332POPC   C1A64071  40.777  22.120   6.450
 8332POPC   D2A64072  40.796  22.128   6.750
 8332POPC   C3A64073  40.812  22.155   7.050
 8332POPC   C4A64074  40.778  22.188   7.350
 8332POPC   C1B64075  40.701  22.424   6.450
 8332POPC   C2B64076  40.647  22.380   6.750
 8332POPC   C3B64077  40.710  22.420   7.050
 8332POPC   C4B64078  40.690  22.343   7.350
 8333POPC   NC364079  42.353   0.398   5.550
 8333POPC   PO464080  42.363   0.421   5.850
 8333POPC   GL164081  42.347   0.395   6.150
 8333POPC   GL264082  42.415   0.367   6.150
 8333POPC   C1A64083  42.308   0.427   6.450
 8333POPC   D2A64084  42.289   0.450   6.750
 8333POPC   C3A64085  42.368   0.462   7.050
 8333POPC   C4A64086  42.316   0.398   7.350
 8333POPC   C1B64087  42.590   0.349   6.450
 8333POPC   C2B64088  42.612   0.387   6.750
 8333POPC   C3B64089  42.556   0.428   7.050
 8333POPC   C4B64090  42.564   0.418   7.350
 8334POPC   NC364091  33.017   8.193   5.550
 8334POPC   PO464092  33.062   8.154   5.850
 8334POPC   GL164093  33.056   8.162   6.150
 8334POPC   GL264094  33.130   8.275   6.150
 8334POPC   C1A64095  33.070   8.216   6.450
 8334POPC   D2A64096  32.978   8.238   6.750
 8334POPC   C3A64097  32.981   8.218   7.050
 8334POPC   C4A64098  33.005   8.164   7.350
 8334POPC   C1B64099  33.207   8.361   6.450
 8334POPC   C2B64100  33.192   8.316   6.750
 8334POPC   C3B64101  33.257   8.377   7.050
 8334POPC   C4B64102  33.268   8.350   7.350
 8335POPC   NC364103  30.734   5.852   5.550
 8335POPC   PO464104  30.661   5.825   5.850
 8335POPC   GL164105  30.708   5.916   6.150
 8335POPC   GL264106  30.556   5.870   6.150
 8335POPC   C1A64107  30.708   5.883   6.450
 8335POPC   D2A64108  30.738   5.836   6.750
 8335POPC   C3A64109  30.713   5.885   7.050
 8335POPC   C4A64110  30.727   5.857   7.350
 8335POPC   C1B64111  30.419   5.813   6.450
 8335POPC   C2B64112  30.465   5.794   6.750
 8335POPC   C3B64113  30.469   5.806   7.050
 8335POPC   C4B64114  30.422   5.841   7.350
 8336POPC   NC364115  22.149   2.729   5.550
 8336POPC   PO464116  22.141   2.754   5.850
 8336POPC   GL164117  22.210   2.745   6.150
 8336POPC   GL264118  22.242   2.689   6.150
 8336POPC   C1A64119  22.161   2.719   6.450
 8336POPC   D2A64120  22.181   2.733   6.750
 8336POPC   C3A64121  22.114   2.815   7.050
 8336POPC   C4A64122  22.171   2.801   7.350
 8336POPC   C1B64123  22.362   2.658   6.450
 8336POPC   C2B64124  22.351   2.665   6.750
 8336POPC   C3B64125  22.352   2.678   7.050
 8336POPC   C4B64126  22.422   2.674   7.350
 8337POPC   NC364127  27.559  18.301   5.550
 8337POPC   PO464128  27.598  18.291   5.850
 8337POPC   GL164129  27.634  18.311   6.150
 8337POPC   GL264130  27.567  18.157   6.150
 8337POPC   C1A64131  27.602  18.251   6.450
 8337POPC   D2A64132  27.611  18.319   6.750
 8337POPC   C3A64133  27.598  18.258   7.050
 8337POPC   C4A64134  27.622  18.275   7.350
 8337POPC   C1B64135  27.549  18.075   6.450
 8337POPC   C2B64136  27.618  18.032   6.750
 8337POPC   C3B64137  27.574  18.077   7.050
 8337POPC   C4B64138  27.568  18.059   7.350
 8338POPC   NC364139  16.696  30.682   5.550
 8338POPC   PO464140  16.714  30.656   5.850
 8338POPC   GL164141  16.706  30.735   6.150
 8338POPC   GL264142  16.603  30.684   6.150
 8338POPC   C1A64143  16.709  30.699   6.450
 8338POPC   D2A64144  16.702  30.728   6.750
 8338POPC   C3A64145  16.769  30.737   7.050
 8338POPC   C4A64146  16.714  30.692   7.350
 8338POPC   C1B64147  16.463  30.662   6.450
 8338POPC   C2B64148  16.513  30.736   6.750
 8338POPC   C3B64149  16.462  30.653   7.050
 8338POPC   C4B64150  16.496  30.649   7.350
 8339POPC   NC364151  40.786  24.468   5.550
 8339POPC   PO464152  40.805  24.475   5.850
 8339POPC   GL164153  40.813  24.446   6.150
 8339POPC   GL264154  40.659  24.416   6.150
 8339POPC   C1A64155  40.786  24.492   6.450
 8339POPC   D2A64156  40.815  24.533   6.750
 8339POPC   C3A64157  40.761  24.463   7.050
 8339POPC   C4A64158  40.762  24.454   7.350
 8339POPC   C1B64159  40.496  24.423   6.450
 8339POPC   C2B64160  40.534  24.454   6.750
 8339POPC   C3B64161  40.570  24.398   7.050
 8339POPC   C4B64162  40.546  24.368   7.350
 8340POPC   NC364163  33.030  10.543   5.550
 8340POPC   PO464164  33.068  10.545   5.850
 8340POPC   GL164165  33.052  10.480   6.150
 8340POPC   GL264166  33.137  10.573   6.150
 8340POPC   C1A64167  33.029  10.528   6.450
 8340POPC   D2A64168  33.027  10.505   6.750
 8340POPC   C3A64169  33.022  10.535   7.050
 8340POPC   C4A64170  32.993  10.511   7.350
 8340POPC   C1B64171  33.168  10.729   6.450
 8340POPC   C2B64172  33.215  10.693   6.750
 8340POPC   C3B64173  33.182  10.724   7.050
 8340POPC   C4B64174  33.196  10.736   7.350
 8341POPC   NC364175  44.660  15.146   5.550
 8341POPC   PO464176  44.692  15.151   5.850
 8341POPC   GL164177  44.621  15.163   6.150
 8341POPC   GL264178  44.805  15.219   6.150
 8341POPC   C1A64179  44.712  15.204   6.450
 8341POPC   D2A64180  44.647  15.155   6.750
 8341POPC   C3A64181  44.669  15.154   7.050
 8341POPC   C4A64182  44.665  15.220   7.350
 8341POPC   C1B64183  44.883  15.321   6.450
 8341POPC   C2B64184  44.833  15.273   6.750
 8341POPC   C3B64185  44.851  15.286   7.050
 8341POPC   C4B64186  44.839  15.294   7.350
 8342POPC   NC364187  31.513  16.725   5.550
 8342POPC   PO464188  31.467  16.739   5.850
 8342POPC   GL164189  31.441  16.706   6.150
 8342POPC   GL264190  31.504  16.870   6.150
 8342POPC   C1A64191  31.511  16.717   6.450
 8342POPC   D2A64192  31.490  16.697   6.750
 8342POPC   C3A64193  31.440  16.759   7.050
 8342POPC   C4A64194  31.518  16.774   7.350
 8342POPC   C1B64195  31.561  16.954   6.450
 8342POPC   C2B64196  31.588  16.947   6.750
 8342POPC   C3B64197  31.604  16.919   7.050
 8342POPC   C4B64198  31.560  16.917   7.350
 8343POPC   NC364199  36.116   7.380   5.550
 8343POPC   PO464200  36.083   7.396   5.850
 8343POPC   GL164201  36.088   7.415   6.150
 8343POPC   GL264202  36.225   7.359   6.150
 8343POPC   C1A64203  36.102   7.380   6.450
 8343POPC   D2A64204  36.142   7.397   6.750
 8343POPC   C3A64205  36.160   7.397   7.050
 8343POPC   C4A64206  36.125   7.454   7.350
 8343POPC   C1B64207  36.278   7.246   6.450
 8343POPC   C2B64208  36.316   7.245   6.750
 8343POPC   C3B64209  36.275   7.192   7.050
 8343POPC   C4B64210  36.292   7.200   7.350
 8344POPC   NC364211   7.467  11.294   5.550
 8344POPC   PO464212   7.395  11.261   5.850
 8344POPC   GL164213   7.415  11.339   6.150
 8344POPC   GL264214   7.337  11.418   6.150
 8344POPC   C1A64215   7.433  11.337   6.450
 8344POPC   D2A64216   7.431  11.320   6.750
 8344POPC   C3A64217   7.432  11.282   7.050
 8344POPC   C4A64218   7.402  11.307   7.350
 8344POPC   C1B64219   7.295  11.535   6.450
 8344POPC   C2B64220   7.239  11.443   6.750
 8344POPC   C3B64221   7.299  11.515   7.050
 8344POPC   C4B64222   7.248  11.496   7.350
 8345POPC   NC364223  36.143  15.917   5.550
 8345POPC   PO464224  36.150  15.972   5.850
 8345POPC   GL164225  36.121  15.913   6.150
 8345POPC   GL264226  36.090  16.060   6.150
 8345POPC   C1A64227  36.097  15.929   6.450
 8345POPC   D2A64228  36.149  15.989   6.750
 8345POPC   C3A64229  36.130  15.950   7.050
 8345POPC   C4A64230  36.089  15.997   7.350
 8345POPC   C1B64231  36.092  16.229   6.450
 8345POPC   C2B64232  36.096  16.244   6.750
 8345POPC   C3B64233  36.038  16.223   7.050
 8345POPC   C4B64234  36.108  16.228   7.350
 8346POPC   NC364235  38.431  33.795   5.550
 8346POPC   PO464236  38.462  33.835   5.850
 8346POPC   GL164237  38.415  33.812   6.150
 8346POPC   GL264238  38.445  33.914   6.150
 8346POPC   C1A64239  38.489  33.790   6.450
 8346POPC   D2A64240  38.494  33.831   6.750
 8346POPC   C3A64241  38.451  33.783   7.050
 8346POPC   C4A64242  38.442  33.759   7.350
 8346POPC   C1B64243  38.353  34.007   6.450
 8346POPC   C2B64244  38.406  34.010   6.750
 8346POPC   C3B64245  38.341  34.062   7.050
 8346POPC   C4B64246  38.352  34.051   7.350
 8347POPC   NC364247  19.828  41.562   5.550
 8347POPC   PO464248  19.873  41.583   5.850
 8347POPC   GL164249  19.875  41.592   6.150
 8347POPC   GL264250  19.883  41.697   6.150
 8347POPC   C1A64251  19.833  41.575   6.450
 8347POPC   D2A64252  19.815  41.512   6.750
 8347POPC   C3A64253  19.823  41.608   7.050
 8347POPC   C4A64254  19.874  41.537   7.350
 8347POPC   C1B64255  19.902  41.812   6.450
 8347POPC   C2B64256  19.852  41.797   6.750
 8347POPC   C3B64257  19.903  41.789   7.050
 8347POPC   C4B64258  19.879  41.773   7.350
 8348POPC   NC364259   3.527  26.053   5.550
 8348POPC   PO464260   3.524  26.041   5.850
 8348POPC   GL164261   3.526  26.015   6.150
 8348POPC   GL264262   3.652  25.976   6.150
 8348POPC   C1A64263   3.529  26.044   6.450
 8348POPC   D2A64264   3.526  26.072   6.750
 8348POPC   C3A64265   3.556  26.048   7.050
 8348POPC   C4A64266   3.560  26.051   7.350
 8348POPC   C1B64267   3.789  25.955   6.450
 8348POPC   C2B64268   3.750  25.924   6.750
 8348POPC   C3B64269   3.738  25.990   7.050
 8348POPC   C4B64270   3.818  25.963   7.350
 8349POPC   NC364271  11.275   4.362   5.550
 8349POPC   PO464272  11.265   4.338   5.850
 8349POPC   GL164273  11.259   4.267   6.150
 8349POPC   GL264274  11.248   4.421   6.150
 8349POPC   C1A64275  11.303   4.335   6.450
 8349POPC   D2A64276  11.266   4.330   6.750
 8349POPC   C3A64277  11.268   4.300   7.050
 8349POPC   C4A64278  11.270   4.279   7.350
 8349POPC   C1B64279  11.178   4.484   6.450
 8349POPC   C2B64280  11.162   4.546   6.750
 8349POPC   C3B64281  11.175   4.545   7.050
 8349POPC   C4B64282  11.173   4.500   7.350
 8350POPC   NC364283  14.407   0.409   5.550
 8350POPC   PO464284  14.401   0.473   5.850
 8350POPC   GL164285  14.412   0.412   6.150
 8350POPC   GL264286  14.299   0.384   6.150
 8350POPC   C1A64287  14.360   0.446   6.450
 8350POPC   D2A64288  14.393   0.436   6.750
 8350POPC   C3A64289  14.360   0.452   7.050
 8350POPC   C4A64290  14.379   0.475   7.350
 8350POPC   C1B64291  14.163   0.354   6.450
 8350POPC   C2B64292  14.198   0.317   6.750
 8350POPC   C3B64293  14.223   0.301   7.050
 8350POPC   C4B64294  14.173   0.364   7.350
 8351POPC   NC364295   5.865  41.554   5.550
 8351POPC   PO464296   5.901  41.576   5.850
 8351POPC   GL164297   5.897  41.574   6.150
 8351POPC   GL264298   5.820  41.415   6.150
 8351POPC   C1A64299   5.870  41.578   6.450
 8351POPC   D2A64300   5.912  41.543   6.750
 8351POPC   C3A64301   5.860  41.590   7.050
 8351POPC   C4A64302   5.905  41.549   7.350
 8351POPC   C1B64303   5.804  41.331   6.450
 8351POPC   C2B64304   5.821  41.341   6.750
 8351POPC   C3B64305   5.789  41.271   7.050
 8351POPC   C4B64306   5.823  41.337   7.350
 8352POPC   NC364307  11.330  21.351   5.550
 8352POPC   PO464308  11.289  21.405   5.850
 8352POPC   GL164309  11.313  21.386   6.150
 8352POPC   GL264310  11.391  21.415   6.150
 8352POPC   C1A64311  11.262  21.395   6.450
 8352POPC   D2A64312  11.288  21.359   6.750
 8352POPC   C3A64313  11.312  21.411   7.050
 8352POPC   C4A64314  11.309  21.389   7.350
 8352POPC   C1B64315  11.559  21.362   6.450
 8352POPC   C2B64316  11.517  21.367   6.750
 8352POPC   C3B64317  11.587  21.397   7.050
 8352POPC   C4B64318  11.526  21.364   7.350
 8353POPC   NC364319  20.569   9.782   5.550
 8353POPC   PO464320  20.632   9.753   5.850
 8353POPC   GL164321  20.621   9.740   6.150
 8353POPC   GL264322  20.548   9.845   6.150
 8353POPC   C1A64323  20.616   9.775   6.450
 8353POPC   D2A64324  20.654   9.792   6.750
 8353POPC   C3A64325  20.616   9.764   7.050
 8353POPC   C4A64326  20.648   9.763   7.350
 8353POPC   C1B64327  20.513   9.919   6.450
 8353POPC   C2B64328  20.487  10.015   6.750
 8353POPC   C3B64329  20.493  10.016   7.050
 8353POPC   C4B64330  20.498   9.985   7.350
 8354POPC   NC364331  39.246   7.435   5.550
 8354POPC   PO464332  39.211   7.403   5.850
 8354POPC   GL164333  39.185   7.468   6.150
 8354POPC   GL264334  39.358   7.306   6.150
 8354POPC   C1A64335  39.201   7.386   6.450
 8354POPC   D2A64336  39.261   7.410   6.750
 8354POPC   C3A64337  39.196   7.410   7.050
 8354POPC   C4A64338  39.252   7.379   7.350
 8354POPC   C1B64339  39.387   7.237   6.450
 8354POPC   C2B64340  39.431   7.214   6.750
 8354POPC   C3B64341  39.441   7.275   7.050
 8354POPC   C4B64342  39.378   7.213   7.350
 8355POPC   NC364343  12.082  15.922   5.550
 8355POPC   PO464344  12.041  15.919   5.850
 8355POPC   GL164345  12.048  15.939   6.150
 8355POPC   GL264346  12.005  16.050   6.150
 8355POPC   C1A64347  12.040  16.001   6.450
 8355POPC   D2A64348  12.115  15.998   6.750
 8355POPC   C3A64349  12.029  15.939   7.050
 8355POPC   C4A64350  12.049  15.945   7.350
 8355POPC   C1B64351  11.903  16.106   6.450
 8355POPC   C2B64352  11.879  16.081   6.750
 8355POPC   C3B64353  11.933  16.068   7.050
 8355POPC   C4B64354  11.875  16.073   7.350
 8356POPC   NC364355  15.142  43.082   5.550
 8356POPC   PO464356  15.154  43.159   5.850
 8356POPC   GL164357  15.208  43.141   6.150
 8356POPC   GL264358  15.238  43.210   6.150
 8356POPC   C1A64359  15.173  43.123   6.450
 8356POPC   D2A64360  15.203  43.085   6.750
 8356POPC   C3A64361  15.165  43.098   7.050
 8356POPC   C4A64362  15.173  43.088   7.350
 8356POPC   C1B64363  15.277  43.390   6.450
 8356POPC   C2B64364  15.313  43.300   6.750
 8356POPC   C3B64365  15.261  43.316   7.050
 8356POPC   C4B64366  15.309  43.342   7.350
 8357POPC   NC364367  40.006   2.739   5.550
 8357POPC   PO464368  40.023   2.736   5.850
 8357POPC   GL164369  39.981   2.787   6.150
 8357POPC   GL264370  40.058   2.886   6.150
 8357POPC   C1A64371  40.051   2.753   6.450
 8357POPC   D2A64372  40.043   2.754   6.750
 8357POPC   C3A64373  40.001   2.812   7.050
 8357POPC   C4A64374  39.974   2.737   7.350
 8357POPC   C1B64375  40.071   3.049   6.450
 8357POPC   C2B64376  40.073   2.974   6.750
 8357POPC   C3B64377  40.109   2.965   7.050
 8357POPC   C4B64378  40.114   3.044   7.350
 8358POPC   NC364379  10.517   1.973   5.550
 8358POPC   PO464380  10.508   2.020   5.850
 8358POPC   GL164381  10.502   1.986   6.150
 8358POPC   GL264382  10.583   2.104   6.150
 8358POPC   C1A64383  10.502   2.039   6.450
 8358POPC   D2A64384  10.568   1.993   6.750
 8358POPC   C3A64385  10.506   1.965   7.050
 8358POPC   C4A64386  10.533   2.000   7.350
 8358POPC   C1B64387  10.720   2.185   6.450
 8358POPC   C2B64388  10.746   2.168   6.750
 8358POPC   C3B64389  10.742   2.152   7.050
 8358POPC   C4B64390  10.681   2.209   7.350
 8359POPC   NC364391  12.821  29.913   5.550
 8359POPC   PO464392  12.849  29.900   5.850
 8359POPC   GL164393  12.842  29.899   6.150
 8359POPC   GL264394  12.878  30.048   6.150
 8359POPC   C1A64395  12.875  29.935   6.450
 8359POPC   D2A64396  12.842  29.914   6.750
 8359POPC   C3A64397  12.892  29.879   7.050
 8359POPC   C4A64398  12.860  29.881   7.350
 8359POPC   C1B64399  12.990  30.131   6.450
 8359POPC   C2B64400  12.978  30.162   6.750
 8359POPC   C3B64401  12.964  30.145   7.050
 8359POPC   C4B64402  12.971  30.177   7.350
 8360POPC   NC364403   2.039  12.846   5.550
 8360POPC   PO464404   1.964  12.832   5.850
 8360POPC   GL164405   2.039  12.883   6.150
 8360POPC   GL264406   2.025  12.965   6.150
 8360POPC   C1A64407   1.991  12.868   6.450
 8360POPC   D2A64408   1.985  12.870   6.750
 8360POPC   C3A64409   1.985  12.828   7.050
 8360POPC   C4A64410   1.940  12.812   7.350
 8360POPC   C1B64411   2.092  13.054   6.450
 8360POPC   C2B64412   2.118  13.102   6.750
 8360POPC   C3B64413   2.073  13.081   7.050
 8360POPC   C4B64414   2.154  13.028   7.350
 8361POPC   NC364415  21.340   0.437   5.550
 8361POPC   PO464416  21.376   0.402   5.850
 8361POPC   GL164417  21.395   0.441   6.150
 8361POPC   GL264418  21.523   0.360   6.150
 8361POPC   C1A64419  21.338   0.471   6.450
 8361POPC   D2A64420  21.349   0.415   6.750
 8361POPC   C3A64421  21.413   0.434   7.050
 8361POPC   C4A64422  21.354   0.442   7.350
 8361POPC   C1B64423  21.566   0.302   6.450
 8361POPC   C2B64424  21.576   0.283   6.750
 8361POPC   C3B64425  21.547   0.332   7.050
 8361POPC   C4B64426  21.615   0.313   7.350
 8362POPC   NC364427  12.118  29.154   5.550
 8362POPC   PO464428  12.037  29.136   5.850
 8362POPC   GL164429  12.059  29.111   6.150
 8362POPC   GL264430  12.227  29.101   6.150
 8362POPC   C1A64431  12.124  29.178   6.450
 8362POPC   D2A64432  12.094  29.124   6.750
 8362POPC   C3A64433  12.110  29.163   7.050
 8362POPC   C4A64434  12.116  29.155   7.350
 8362POPC   C1B64435  12.255  29.072   6.450
 8362POPC   C2B64436  12.295  29.065   6.750
 8362POPC   C3B64437  12.316  29.000   7.050
 8362POPC   C4B64438  12.272  28.993   7.350
 8363POPC   NC364439   6.691  19.105   5.550
 8363POPC   PO464440   6.650  19.032   5.850
 8363POPC   GL164441   6.600  19.074   6.150
 8363POPC   GL264442   6.810  19.085   6.150
 8363POPC   C1A64443   6.689  19.029   6.450
 8363POPC   D2A64444   6.637  19.013   6.750
 8363POPC   C3A64445   6.685  19.014   7.050
 8363POPC   C4A64446   6.612  19.088   7.350
 8363POPC   C1B64447   6.927  19.111   6.450
 8363POPC   C2B64448   6.914  19.114   6.750
 8363POPC   C3B64449   6.879  19.125   7.050
 8363POPC   C4B64450   6.907  19.100   7.350
 8364POPC   NC364451  35.400  32.239   5.550
 8364POPC   PO464452  35.392  32.260   5.850
 8364POPC   GL164453  35.302  32.225   6.150
 8364POPC   GL264454  35.277  32.195   6.150
 8364POPC   C1A64455  35.338  32.277   6.450
 8364POPC   D2A64456  35.325  32.244   6.750
 8364POPC   C3A64457  35.351  32.220   7.050
 8364POPC   C4A64458  35.337  32.271   7.350
 8364POPC   C1B64459  35.098  32.118   6.450
 8364POPC   C2B64460  35.071  32.133   6.750
 8364POPC   C3B64461  35.087  32.169   7.050
 8364POPC   C4B64462  35.081  32.164   7.350
 8365POPC   NC364463   9.714  23.708   5.550
 8365POPC   PO464464   9.747  23.701   5.850
 8365POPC   GL164465   9.744  23.737   6.150
 8365POPC   GL264466   9.755  23.808   6.150
 8365POPC   C1A64467   9.761  23.748   6.450
 8365POPC   D2A64468   9.787  23.674   6.750
 8365POPC   C3A64469   9.756  23.744   7.050
 8365POPC   C4A64470   9.743  23.758   7.350
 8365POPC   C1B64471   9.783  23.989   6.450
 8365POPC   C2B64472   9.836  23.937   6.750
 8365POPC   C3B64473   9.760  23.958   7.050
 8365POPC   C4B64474   9.810  24.000   7.350
 8366POPC   NC364475  44.705   5.904   5.550
 8366POPC   PO464476  44.635   5.858   5.850
 8366POPC   GL164477  44.702   5.846   6.150
 8366POPC   GL264478  44.758   6.014   6.150
 8366POPC   C1A64479  44.672   5.865   6.450
 8366POPC   D2A64480  44.623   5.883   6.750
 8366POPC   C3A64481  44.648   5.874   7.050
 8366POPC   C4A64482  44.615   5.891   7.350
 8366POPC   C1B64483  44.802   6.046   6.450
 8366POPC   C2B64484  44.830   6.077   6.750
 8366POPC   C3B64485  44.790   6.128   7.050
 8366POPC   C4B64486  44.759   6.043   7.350
 8367POPC   NC364487   9.776  37.706   5.550
 8367POPC   PO464488   9.729  37.659   5.850
 8367POPC   GL164489   9.717  37.692   6.150
 8367POPC   GL264490   9.723  37.826   6.150
 8367POPC   C1A64491   9.708  37.676   6.450
 8367POPC   D2A64492   9.790  37.701   6.750
 8367POPC   C3A64493   9.774  37.657   7.050
 8367POPC   C4A64494   9.741  37.641   7.350
 8367POPC   C1B64495   9.634  37.944   6.450
 8367POPC   C2B64496   9.587  37.853   6.750
 8367POPC   C3B64497   9.623  37.894   7.050
 8367POPC   C4B64498   9.640  37.861   7.350
 8368POPC   NC364499  18.271   8.994   5.550
 8368POPC   PO464500  18.313   8.944   5.850
 8368POPC   GL164501  18.287   8.975   6.150
 8368POPC   GL264502  18.217   8.860   6.150
 8368POPC   C1A64503  18.282   8.967   6.450
 8368POPC   D2A64504  18.312   9.017   6.750
 8368POPC   C3A64505  18.298   9.002   7.050
 8368POPC   C4A64506  18.258   8.982   7.350
 8368POPC   C1B64507  18.025   8.796   6.450
 8368POPC   C2B64508  18.092   8.876   6.750
 8368POPC   C3B64509  18.040   8.825   7.050
 8368POPC   C4B64510  18.118   8.888   7.350
 8369POPC   NC364511  40.738   7.387   5.550
 8369POPC   PO464512  40.830   7.383   5.850
 8369POPC   GL164513  40.750   7.471   6.150
 8369POPC   GL264514  40.741   7.538   6.150
 8369POPC   C1A64515  40.759   7.393   6.450
 8369POPC   D2A64516  40.767   7.441   6.750
 8369POPC   C3A64517  40.788   7.438   7.050
 8369POPC   C4A64518  40.818   7.463   7.350
 8369POPC   C1B64519  40.742   7.703   6.450
 8369POPC   C2B64520  40.708   7.713   6.750
 8369POPC   C3B64521  40.773   7.711   7.050
 8369POPC   C4B64522  40.702   7.706   7.350
 8370POPC   NC364523  15.994   8.220   5.550
 8370POPC   PO464524  15.930   8.241   5.850
 8370POPC   GL164525  15.980   8.178   6.150
 8370POPC   GL264526  15.967   8.039   6.150
 8370POPC   C1A64527  15.933   8.197   6.450
 8370POPC   D2A64528  15.938   8.178   6.750
 8370POPC   C3A64529  15.947   8.179   7.050
 8370POPC   C4A64530  15.945   8.232   7.350
 8370POPC   C1B64531  16.001   7.998   6.450
 8370POPC   C2B64532  16.030   7.918   6.750
 8370POPC   C3B64533  15.999   7.977   7.050
 8370POPC   C4B64534  15.966   7.945   7.350
 8371POPC   NC364535  23.686  38.478   5.550
 8371POPC   PO464536  23.739  38.431   5.850
 8371POPC   GL164537  23.733  38.455   6.150
 8371POPC   GL264538  23.832  38.473   6.150
 8371POPC   C1A64539  23.753  38.418   6.450
 8371POPC   D2A64540  23.764  38.489   6.750
 8371POPC   C3A64541  23.734  38.489   7.050
 8371POPC   C4A64542  23.713  38.480   7.350
 8371POPC   C1B64543  23.976  38.510   6.450
 8371POPC   C2B64544  23.923  38.535   6.750
 8371POPC   C3B64545  23.936  38.505   7.050
 8371POPC   C4B64546  23.984  38.514   7.350
 8372POPC   NC364547  28.418  22.980   5.550
 8372POPC   PO464548  28.409  22.935   5.850
 8372POPC   GL164549  28.404  22.917   6.150
 8372POPC   GL264550  28.226  22.898   6.150
 8372POPC   C1A64551  28.326  22.934   6.450
 8372POPC   D2A64552  28.416  22.952   6.750
 8372POPC   C3A64553  28.381  22.919   7.050
 8372POPC   C4A64554  28.392  22.912   7.350
 8372POPC   C1B64555  28.131  22.956   6.450
 8372POPC   C2B64556  28.083  22.957   6.750
 8372POPC   C3B64557  28.159  22.909   7.050
 8372POPC   C4B64558  28.092  22.908   7.350
 8373POPC   NC364559   7.438  25.302   5.550
 8373POPC   PO464560   7.425  25.235   5.850
 8373POPC   GL164561   7.423  25.224   6.150
 8373POPC   GL264562   7.318  25.371   6.150
 8373POPC   C1A64563   7.417  25.283   6.450
 8373POPC   D2A64564   7.441  25.279   6.750
 8373POPC   C3A64565   7.430  25.276   7.050
 8373POPC   C4A64566   7.447  25.263   7.350
 8373POPC   C1B64567   7.283  25.478   6.450
 8373POPC   C2B64568   7.281  25.518   6.750
 8373POPC   C3B64569   7.324  25.531   7.050
 8373POPC   C4B64570   7.344  25.470   7.350
 8374POPC   NC364571   1.188  30.689   5.550
 8374POPC   PO464572   1.254  30.740   5.850
 8374POPC   GL164573   1.224  30.704   6.150
 8374POPC   GL264574   1.339  30.682   6.150
 8374POPC   C1A64575   1.223  30.666   6.450
 8374POPC   D2A64576   1.193  30.702   6.750
 8374POPC   C3A64577   1.257  30.699   7.050
 8374POPC   C4A64578   1.251  30.691   7.350
 8374POPC   C1B64579   1.430  30.702   6.450
 8374POPC   C2B64580   1.444  30.727   6.750
 8374POPC   C3B64581   1.508  30.688   7.050
 8374POPC   C4B64582   1.429  30.667   7.350
 8375POPC   NC364583   6.691  28.333   5.550
 8375POPC   PO464584   6.613  28.332   5.850
 8375POPC   GL164585   6.605  28.397   6.150
 8375POPC   GL264586   6.724  28.446   6.150
 8375POPC   C1A64587   6.648  28.334   6.450
 8375POPC   D2A64588   6.644  28.335   6.750
 8375POPC   C3A64589   6.638  28.333   7.050
 8375POPC   C4A64590   6.605  28.366   7.350
 8375POPC   C1B64591   6.849  28.517   6.450
 8375POPC   C2B64592   6.885  28.546   6.750
 8375POPC   C3B64593   6.813  28.485   7.050
 8375POPC   C4B64594   6.840  28.533   7.350
 8376POPC   NC364595  19.859  31.442   5.550
 8376POPC   PO464596  19.828  31.511   5.850
 8376POPC   GL164597  19.817  31.471   6.150
 8376POPC   GL264598  19.934  31.383   6.150
 8376POPC   C1A64599  19.884  31.450   6.450
 8376POPC   D2A64600  19.880  31.431   6.750
 8376POPC   C3A64601  19.834  31.494   7.050
 8376POPC   C4A64602  19.832  31.482   7.350
 8376POPC   C1B64603  19.960  31.232   6.450
 8376POPC   C2B64604  19.970  31.323   6.750
 8376POPC   C3B64605  19.969  31.280   7.050
 8376POPC   C4B64606  20.022  31.291   7.350
 8377POPC   NC364607   9.731   5.057   5.550
 8377POPC   PO464608   9.719   5.116   5.850
 8377POPC   GL164609   9.773   5.141   6.150
 8377POPC   GL264610   9.733   5.022   6.150
 8377POPC   C1A64611   9.757   5.141   6.450
 8377POPC   D2A64612   9.715   5.090   6.750
 8377POPC   C3A64613   9.755   5.088   7.050
 8377POPC   C4A64614   9.706   5.107   7.350
 8377POPC   C1B64615   9.675   4.909   6.450
 8377POPC   C2B64616   9.623   4.861   6.750
 8377POPC   C3B64617   9.618   4.867   7.050
 8377POPC   C4B64618   9.669   4.893   7.350
 8378POPC   NC364619  18.293   9.767   5.550
 8378POPC   PO464620  18.292   9.701   5.850
 8378POPC   GL164621  18.277   9.794   6.150
 8378POPC   GL264622  18.203   9.853   6.150
 8378POPC   C1A64623  18.252   9.745   6.450
 8378POPC   D2A64624  18.242   9.791   6.750
 8378POPC   C3A64625  18.326   9.789   7.050
 8378POPC   C4A64626  18.245   9.733   7.350
 8378POPC   C1B64627  18.119   9.968   6.450
 8378POPC   C2B64628  18.108   9.934   6.750
 8378POPC   C3B64629  18.104   9.923   7.050
 8378POPC   C4B64630  18.140   9.967   7.350
 8379POPC   NC364631  22.972  26.081   5.550
 8379POPC   PO464632  22.951  26.090   5.850
 8379POPC   GL164633  22.907  26.031   6.150
 8379POPC   GL264634  22.973  25.960   6.150
 8379POPC   C1A64635  22.932  26.021   6.450
 8379POPC   D2A64636  22.967  25.996   6.750
 8379POPC   C3A64637  22.940  26.000   7.050
 8379POPC   C4A64638  22.958  26.067   7.350
 8379POPC   C1B64639  23.008  25.760   6.450
 8379POPC   C2B64640  23.027  25.764   6.750
 8379POPC   C3B64641  23.007  25.830   7.050
 8379POPC   C4B64642  23.053  25.850   7.350
 8380POPC   NC364643  18.320  12.878   5.550
 8380POPC   PO464644  18.258  12.847   5.850
 8380POPC   GL164645  18.299  12.853   6.150
 8380POPC   GL264646  18.337  12.918   6.150
 8380POPC   C1A64647  18.304  12.855   6.450
 8380POPC   D2A64648  18.299  12.847   6.750
 8380POPC   C3A64649  18.279  12.898   7.050
 8380POPC   C4A64650  18.313  12.836   7.350
 8380POPC   C1B64651  18.447  13.017   6.450
 8380POPC   C2B64652  18.494  13.004   6.750
 8380POPC   C3B64653  18.443  13.057   7.050
 8380POPC   C4B64654  18.418  13.014   7.350
 8381POPC   NC364655   4.302  33.836   5.550
 8381POPC   PO464656   4.305  33.836   5.850
 8381POPC   GL164657   4.367  33.755   6.150
 8381POPC   GL264658   4.249  33.724   6.150
 8381POPC   C1A64659   4.276  33.829   6.450
 8381POPC   D2A64660   4.362  33.772   6.750
 8381POPC   C3A64661   4.270  33.754   7.050
 8381POPC   C4A64662   4.323  33.797   7.350
 8381POPC   C1B64663   4.160  33.637   6.450
 8381POPC   C2B64664   4.147  33.597   6.750
 8381POPC   C3B64665   4.113  33.566   7.050
 8381POPC   C4B64666   4.199  33.610   7.350
 8382POPC   NC364667  22.890  40.798   5.550
 8382POPC   PO464668  22.967  40.773   5.850
 8382POPC   GL164669  22.915  40.756   6.150
 8382POPC   GL264670  22.983  40.934   6.150
 8382POPC   C1A64671  22.901  40.770   6.450
 8382POPC   D2A64672  22.895  40.759   6.750
 8382POPC   C3A64673  22.936  40.764   7.050
 8382POPC   C4A64674  22.971  40.751   7.350
 8382POPC   C1B64675  23.081  41.025   6.450
 8382POPC   C2B64676  23.026  41.037   6.750
 8382POPC   C3B64677  23.024  41.042   7.050
 8382POPC   C4B64678  23.042  40.955   7.350
 8383POPC   NC364679  40.053  26.796   5.550
 8383POPC   PO464680  39.995  26.795   5.850
 8383POPC   GL164681  39.989  26.784   6.150
 8383POPC   GL264682  40.131  26.883   6.150
 8383POPC   C1A64683  39.982  26.837   6.450
 8383POPC   D2A64684  40.014  26.800   6.750
 8383POPC   C3A64685  40.031  26.784   7.050
 8383POPC   C4A64686  39.986  26.770   7.350
 8383POPC   C1B64687  40.213  26.975   6.450
 8383POPC   C2B64688  40.183  26.914   6.750
 8383POPC   C3B64689  40.246  26.879   7.050
 8383POPC   C4B64690  40.218  26.905   7.350
 8384POPC   NC364691   8.951  27.614   5.550
 8384POPC   PO464692   9.008  27.587   5.850
 8384POPC   GL164693   8.960  27.620   6.150
 8384POPC   GL264694   8.850  27.553   6.150
 8384POPC   C1A64695   8.923  27.604   6.450
 8384POPC   D2A64696   8.958  27.548   6.750
 8384POPC   C3A64697   9.001  27.599   7.050
 8384POPC   C4A64698   8.927  27.585   7.350
 8384POPC   C1B64699   8.702  27.504   6.450
 8384POPC   C2B64700   8.740  27.484   6.750
 8384POPC   C3B64701   8.747  27.448   7.050
 8384POPC   C4B64702   8.758  27.428   7.350
 8385POPC   NC364703  12.861  30.723   5.550
 8385POPC   PO464704  12.821  30.734   5.850
 8385POPC   GL164705  12.895  30.720   6.150
 8385POPC   GL264706  12.893  30.624   6.150
 8385POPC   C1A64707  12.871  30.742   6.450
 8385POPC   D2A64708  12.822  30.715   6.750
 8385POPC   C3A64709  12.853  30.743   7.050
 8385POPC   C4A64710  12.875  30.649   7.350
 8385POPC   C1B64711  13.066  30.526   6.450
 8385POPC   C2B64712  13.048  30.488   6.750
 8385POPC   C3B64713  13.044  30.485   7.050
 8385POPC   C4B64714  12.980  30.517   7.350
 8386POPC   NC364715  15.195  43.926   5.550
 8386POPC   PO464716  15.181  43.875   5.850
 8386POPC   GL164717  15.131  43.932   6.150
 8386POPC   GL264718  15.324  43.834   6.150
 8386POPC   C1A64719  15.158  43.849   6.450
 8386POPC   D2A64720  15.229  43.899   6.750
 8386POPC   C3A64721  15.182  43.895   7.050
 8386POPC   C4A64722  15.226  43.856   7.350
 8386POPC   C1B64723  15.445  43.815   6.450
 8386POPC   C2B64724  15.465  43.800   6.750
 8386POPC   C3B64725  15.428  43.865   7.050
 8386POPC   C4B64726  15.407  43.788   7.350
 8387POPC   NC364727  44.640  43.861   5.550
 8387POPC   PO464728  44.674  43.849   5.850
 8387POPC   GL164729  44.621  43.886   6.150
 8387POPC   GL264730  44.693  43.747   6.150
 8387POPC   C1A64731  44.624  43.910   6.450
 8387POPC   D2A64732  44.696  43.870   6.750
 8387POPC   C3A64733  44.712  43.900   7.050
 8387POPC   C4A64734  44.645  43.896   7.350
 8387POPC   C1B64735  44.782  43.679   6.450
 8387POPC   C2B64736  44.725  43.698   6.750
 8387POPC   C3B64737  44.739  43.614   7.050
 8387POPC   C4B64738  44.745  43.686   7.350
 8388POPC   NC364739  13.594  43.076   5.550
 8388POPC   PO464740  13.630  43.133   5.850
 8388POPC   GL164741  13.673  43.140   6.150
 8388POPC   GL264742  13.750  43.027   6.150
 8388POPC   C1A64743  13.653  43.114   6.450
 8388POPC   D2A64744  13.604  43.125   6.750
 8388POPC   C3A64745  13.650  43.074   7.050
 8388POPC   C4A64746  13.611  43.126   7.350
 8388POPC   C1B64747  13.784  42.937   6.450
 8388POPC   C2B64748  13.799  42.920   6.750
 8388POPC   C3B64749  13.762  42.949   7.050
 8388POPC   C4B64750  13.836  42.969   7.350
 8389POPC   NC364751   0.456  12.090   5.550
 8389POPC   PO464752   0.397  12.118   5.850
 8389POPC   GL164753   0.422  12.120   6.150
 8389POPC   GL264754   0.449  12.166   6.150
 8389POPC   C1A64755   0.487  12.087   6.450
 8389POPC   D2A64756   0.431  12.047   6.750
 8389POPC   C3A64757   0.415  12.115   7.050
 8389POPC   C4A64758   0.465  12.119   7.350
 8389POPC   C1B64759   0.402  12.308   6.450
 8389POPC   C2B64760   0.366  12.276   6.750
 8389POPC   C3B64761   0.369  12.308   7.050
 8389POPC   C4B64762   0.403  12.316   7.350
 8390POPC   NC364763  42.308  25.298   5.550
 8390POPC   PO464764  42.290  25.266   5.850
 8390POPC   GL164765  42.365  25.302   6.150
 8390POPC   GL264766  42.248  25.222   6.150
 8390POPC   C1A64767  42.320  25.238   6.450
 8390POPC   D2A64768  42.318  25.262   6.750
 8390POPC   C3A64769  42.314  25.278   7.050
 8390POPC   C4A64770  42.325  25.279   7.350
 8390POPC   C1B64771  42.094  25.158   6.450
 8390POPC   C2B64772  42.135  25.181   6.750
 8390POPC   C3B64773  42.096  25.141   7.050
 8390POPC   C4B64774  42.079  25.161   7.350
 8391POPC   NC364775  23.740  27.580   5.550
 8391POPC   PO464776  23.732  27.559   5.850
 8391POPC   GL164777  23.754  27.602   6.150
 8391POPC   GL264778  23.576  27.637   6.150
 8391POPC   C1A64779  23.688  27.612   6.450
 8391POPC   D2A64780  23.693  27.598   6.750
 8391POPC   C3A64781  23.698  27.583   7.050
 8391POPC   C4A64782  23.714  27.557   7.350
 8391POPC   C1B64783  23.488  27.732   6.450
 8391POPC   C2B64784  23.489  27.726   6.750
 8391POPC   C3B64785  23.484  27.757   7.050
 8391POPC   C4B64786  23.550  27.731   7.350
 8392POPC   NC364787  14.410  35.391   5.550
 8392POPC   PO464788  14.411  35.317   5.850
 8392POPC   GL164789  14.433  35.313   6.150
 8392POPC   GL264790  14.357  35.306   6.150
 8392POPC   C1A64791  14.445  35.372   6.450
 8392POPC   D2A64792  14.401  35.384   6.750
 8392POPC   C3A64793  14.440  35.328   7.050
 8392POPC   C4A64794  14.365  35.360   7.350
 8392POPC   C1B64795  14.256  35.192   6.450
 8392POPC   C2B64796  14.223  35.236   6.750
 8392POPC   C3B64797  14.250  35.143   7.050
 8392POPC   C4B64798  14.197  35.148   7.350
 8393POPC   NC364799   2.772  39.973   5.550
 8393POPC   PO464800   2.763  40.031   5.850
 8393POPC   GL164801   2.780  40.042   6.150
 8393POPC   GL264802   2.722  40.137   6.150
 8393POPC   C1A64803   2.757  40.054   6.450
 8393POPC   D2A64804   2.806  40.028   6.750
 8393POPC   C3A64805   2.758  40.038   7.050
 8393POPC   C4A64806   2.748  39.997   7.350
 8393POPC   C1B64807   2.635  40.268   6.450
 8393POPC   C2B64808   2.602  40.205   6.750
 8393POPC   C3B64809   2.637  40.257   7.050
 8393POPC   C4B64810   2.653  40.218   7.350
 8394POPC   NC364811  40.046  31.503   5.550
 8394POPC   PO464812  40.036  31.477   5.850
 8394POPC   GL164813  39.998  31.457   6.150
 8394POPC   GL264814  39.938  31.348   6.150
 8394POPC   C1A64815  40.018  31.510   6.450
 8394POPC   D2A64816  40.023  31.468   6.750
 8394POPC   C3A64817  40.020  31.438   7.050
 8394POPC   C4A64818  40.035  31.455   7.350
 8394POPC   C1B64819  39.894  31.210   6.450
 8394POPC   C2B64820  39.933  31.208   6.750
 8394POPC   C3B64821  39.952  31.220   7.050
 8394POPC   C4B64822  39.857  31.245   7.350
 8395POPC   NC364823  31.468  44.620   5.550
 8395POPC   PO464824  31.497  44.692   5.850
 8395POPC   GL164825  31.442  44.615   6.150
 8395POPC   GL264826  31.604  44.679   6.150
 8395POPC   C1A64827  31.452  44.685   6.450
 8395POPC   D2A64828  31.486  44.632   6.750
 8395POPC   C3A64829  31.465  44.613   7.050
 8395POPC   C4A64830  31.464  44.693   7.350
 8395POPC   C1B64831  31.715  44.708   6.450
 8395POPC   C2B64832  31.719  44.758   6.750
 8395POPC   C3B64833  31.746  44.705   7.050
 8395POPC   C4B64834  31.724  44.764   7.350
 8396POPC   NC364835   5.064   5.140   5.550
 8396POPC   PO464836   5.052   5.120   5.850
 8396POPC   GL164837   5.124   5.108   6.150
 8396POPC   GL264838   4.949   5.111   6.150
 8396POPC   C1A64839   5.056   5.142   6.450
 8396POPC   D2A64840   5.064   5.124   6.750
 8396POPC   C3A64841   5.075   5.063   7.050
 8396POPC   C4A64842   5.058   5.110   7.350
 8396POPC   C1B64843   4.892   5.021   6.450
 8396POPC   C2B64844   4.890   5.079   6.750
 8396POPC   C3B64845   4.852   5.083   7.050
 8396POPC   C4B64846   4.836   5.037   7.350
 8397POPC   NC364847  30.721   8.965   5.550
 8397POPC   PO464848  30.696   8.975   5.850
 8397POPC   GL164849  30.655   8.947   6.150
 8397POPC   GL264850  30.659   9.074   6.150
 8397POPC   C1A64851  30.669   8.955   6.450
 8397POPC   D2A64852  30.727   8.991   6.750
 8397POPC   C3A64853  30.729   8.997   7.050
 8397POPC   C4A64854  30.669   8.953   7.350
 8397POPC   C1B64855  30.599   9.195   6.450
 8397POPC   C2B64856  30.524   9.167   6.750
 8397POPC   C3B64857  30.585   9.141   7.050
 8397POPC   C4B64858  30.557   9.209   7.350
 8398POPC   NC364859  18.314   5.085   5.550
 8398POPC   PO464860  18.325   5.083   5.850
 8398POPC   GL164861  18.301   5.090   6.150
 8398POPC   GL264862  18.430   5.063   6.150
 8398POPC   C1A64863  18.245   5.126   6.450
 8398POPC   D2A64864  18.302   5.068   6.750
 8398POPC   C3A64865  18.280   5.051   7.050
 8398POPC   C4A64866  18.265   5.076   7.350
 8398POPC   C1B64867  18.531   5.018   6.450
 8398POPC   C2B64868  18.458   4.929   6.750
 8398POPC   C3B64869  18.455   4.965   7.050
 8398POPC   C4B64870  18.465   5.010   7.350
 8399POPC   NC364871  32.293   4.291   5.550
 8399POPC   PO464872  32.214   4.324   5.850
 8399POPC   GL164873  32.266   4.345   6.150
 8399POPC   GL264874  32.313   4.286   6.150
 8399POPC   C1A64875  32.265   4.350   6.450
 8399POPC   D2A64876  32.262   4.308   6.750
 8399POPC   C3A64877  32.267   4.323   7.050
 8399POPC   C4A64878  32.287   4.290   7.350
 8399POPC   C1B64879  32.478   4.134   6.450
 8399POPC   C2B64880  32.490   4.166   6.750
 8399POPC   C3B64881  32.440   4.200   7.050
 8399POPC   C4B64882  32.481   4.185   7.350
 8400POPC   NC364883  34.560  11.333   5.550
 8400POPC   PO464884  34.617  11.297   5.850
 8400POPC   GL164885  34.559  11.268   6.150
 8400POPC   GL264886  34.539  11.415   6.150
 8400POPC   C1A64887  34.577  11.292   6.450
 8400POPC   D2A64888  34.590  11.347   6.750
 8400POPC   C3A64889  34.538  11.329   7.050
 8400POPC   C4A64890  34.585  11.317   7.350
 8400POPC   C1B64891  34.598  11.591   6.450
 8400POPC   C2B64892  34.592  11.565   6.750
 8400POPC   C3B64893  34.635  11.502   7.050
 8400POPC   C4B64894  34.636  11.512   7.350
 8401POPC   NC364895  23.731  14.394   5.550
 8401POPC   PO464896  23.758  14.443   5.850
 8401POPC   GL164897  23.704  14.400   6.150
 8401POPC   GL264898  23.604  14.308   6.150
 8401POPC   C1A64899  23.726  14.406   6.450
 8401POPC   D2A64900  23.715  14.368   6.750
 8401POPC   C3A64901  23.731  14.433   7.050
 8401POPC   C4A64902  23.724  14.435   7.350
 8401POPC   C1B64903  23.598  14.193   6.450
 8401POPC   C2B64904  23.569  14.182   6.750
 8401POPC   C3B64905  23.516  14.194   7.050
 8401POPC   C4B64906  23.521  14.189   7.350
 8402POPC   NC364907  43.154  24.521   5.550
 8402POPC   PO464908  43.083  24.529   5.850
 8402POPC   GL164909  43.111  24.488   6.150
 8402POPC   GL264910  43.242  24.566   6.150
 8402POPC   C1A64911  43.120  24.459   6.450
 8402POPC   D2A64912  43.103  24.500   6.750
 8402POPC   C3A64913  43.145  24.537   7.050
 8402POPC   C4A64914  43.131  24.526   7.350
 8402POPC   C1B64915  43.284  24.667   6.450
 8402POPC   C2B64916  43.299  24.630   6.750
 8402POPC   C3B64917  43.264  24.718   7.050
 8402POPC   C4B64918  43.265  24.717   7.350
 8403POPC   NC364919  26.771  34.587   5.550
 8403POPC   PO464920  26.862  34.614   5.850
 8403POPC   GL164921  26.772  34.574   6.150
 8403POPC   GL264922  26.946  34.621   6.150
 8403POPC   C1A64923  26.825  34.582   6.450
 8403POPC   D2A64924  26.816  34.615   6.750
 8403POPC   C3A64925  26.805  34.613   7.050
 8403POPC   C4A64926  26.831  34.549   7.350
 8403POPC   C1B64927  27.064  34.631   6.450
 8403POPC   C2B64928  27.033  34.696   6.750
 8403POPC   C3B64929  27.093  34.630   7.050
 8403POPC   C4B64930  27.058  34.693   7.350
 8404POPC   NC364931   5.821  43.841   5.550
 8404POPC   PO464932   5.828  43.901   5.850
 8404POPC   GL164933   5.837  43.846   6.150
 8404POPC   GL264934   5.787  43.809   6.150
 8404POPC   C1A64935   5.845  43.872   6.450
 8404POPC   D2A64936   5.868  43.919   6.750
 8404POPC   C3A64937   5.911  43.858   7.050
 8404POPC   C4A64938   5.876  43.917   7.350
 8404POPC   C1B64939   5.814  43.667   6.450
 8404POPC   C2B64940   5.795  43.669   6.750
 8404POPC   C3B64941   5.765  43.684   7.050
 8404POPC   C4B64942   5.829  43.639   7.350
 8405POPC   NC364943   6.648  31.501   5.550
 8405POPC   PO464944   6.648  31.448   5.850
 8405POPC   GL164945   6.654  31.482   6.150
 8405POPC   GL264946   6.731  31.483   6.150
 8405POPC   C1A64947   6.655  31.486   6.450
 8405POPC   D2A64948   6.673  31.500   6.750
 8405POPC   C3A64949   6.607  31.438   7.050
 8405POPC   C4A64950   6.672  31.505   7.350
 8405POPC   C1B64951   6.899  31.500   6.450
 8405POPC   C2B64952   6.932  31.418   6.750
 8405POPC   C3B64953   6.894  31.405   7.050
 8405POPC   C4B64954   6.869  31.484   7.350
 8406POPC   NC364955   7.427  37.676   5.550
 8406POPC   PO464956   7.425  37.673   5.850
 8406POPC   GL164957   7.424  37.712   6.150
 8406POPC   GL264958   7.551  37.655   6.150
 8406POPC   C1A64959   7.392  37.709   6.450
 8406POPC   D2A64960   7.405  37.721   6.750
 8406POPC   C3A64961   7.440  37.647   7.050
 8406POPC   C4A64962   7.436  37.658   7.350
 8406POPC   C1B64963   7.638  37.714   6.450
 8406POPC   C2B64964   7.626  37.680   6.750
 8406POPC   C3B64965   7.669  37.628   7.050
 8406POPC   C4B64966   7.628  37.718   7.350
 8407POPC   NC364967   9.005   9.765   5.550
 8407POPC   PO464968   9.003   9.756   5.850
 8407POPC   GL164969   8.990   9.735   6.150
 8407POPC   GL264970   8.946   9.868   6.150
 8407POPC   C1A64971   8.980   9.716   6.450
 8407POPC   D2A64972   9.009   9.725   6.750
 8407POPC   C3A64973   8.970   9.766   7.050
 8407POPC   C4A64974   8.955   9.778   7.350
 8407POPC   C1B64975   8.960   9.971   6.450
 8407POPC   C2B64976   8.963  10.027   6.750
 8407POPC   C3B64977   8.987  10.008   7.050
 8407POPC   C4B64978   8.952  10.026   7.350
 8408POPC   NC364979  19.791  20.640   5.550
 8408POPC   PO464980  19.855  20.605   5.850
 8408POPC   GL164981  19.864  20.584   6.150
 8408POPC   GL264982  19.934  20.602   6.150
 8408POPC   C1A64983  19.806  20.562   6.450
 8408POPC   D2A64984  19.876  20.612   6.750
 8408POPC   C3A64985  19.799  20.624   7.050
 8408POPC   C4A64986  19.884  20.596   7.350
 8408POPC   C1B64987  20.051  20.600   6.450
 8408POPC   C2B64988  20.081  20.675   6.750
 8408POPC   C3B64989  20.118  20.656   7.050
 8408POPC   C4B64990  20.053  20.682   7.350
 8409POPC   NC364991  25.998   7.460   5.550
 8409POPC   PO464992  26.012   7.424   5.850
 8409POPC   GL164993  26.039   7.377   6.150
 8409POPC   GL264994  26.107   7.541   6.150
 8409POPC   C1A64995  26.043   7.459   6.450
 8409POPC   D2A64996  26.048   7.371   6.750
 8409POPC   C3A64997  26.003   7.376   7.050
 8409POPC   C4A64998  26.023   7.418   7.350
 8409POPC   C1B64999  26.213   7.581   6.450
 8409POPC   C2B65000  26.191   7.632   6.750
 8409POPC   C3B65001  26.158   7.627   7.050
 8409POPC   C4B65002  26.187   7.615   7.350
 8410POPC   NC365003   6.683  30.678   5.550
 8410POPC   PO465004   6.639  30.723   5.850
 8410POPC   GL165005   6.647  30.677   6.150
 8410POPC   GL265006   6.631  30.587   6.150
 8410POPC   C1A65007   6.694  30.658   6.450
 8410POPC   D2A65008   6.600  30.725   6.750
 8410POPC   C3A65009   6.599  30.692   7.050
 8410POPC   C4A65010   6.616  30.653   7.350
 8410POPC   C1B65011   6.567  30.439   6.450
 8410POPC   C2B65012   6.522  30.503   6.750
 8410POPC   C3B65013   6.543  30.441   7.050
 8410POPC   C4B65014   6.519  30.480   7.350
 8411POPC   NC365015  20.577   5.827   5.550
 8411POPC   PO465016  20.580   5.890   5.850
 8411POPC   GL165017  20.636   5.835   6.150
 8411POPC   GL265018  20.577   5.973   6.150
 8411POPC   C1A65019  20.608   5.855   6.450
 8411POPC   D2A65020  20.625   5.890   6.750
 8411POPC   C3A65021  20.563   5.917   7.050
 8411POPC   C4A65022  20.582   5.892   7.350
 8411POPC   C1B65023  20.541   6.114   6.450
 8411POPC   C2B65024  20.538   6.106   6.750
 8411POPC   C3B65025  20.609   6.070   7.050
 8411POPC   C4B65026  20.600   6.086   7.350
 8412POPC   NC365027  15.224  29.190   5.550
 8412POPC   PO465028  15.182  29.121   5.850
 8412POPC   GL165029  15.180  29.136   6.150
 8412POPC   GL265030  15.278  29.072   6.150
 8412POPC   C1A65031  15.200  29.163   6.450
 8412POPC   D2A65032  15.210  29.121   6.750
 8412POPC   C3A65033  15.191  29.177   7.050
 8412POPC   C4A65034  15.171  29.121   7.350
 8412POPC   C1B65035  15.400  29.021   6.450
 8412POPC   C2B65036  15.401  29.077   6.750
 8412POPC   C3B65037  15.395  29.019   7.050
 8412POPC   C4B65038  15.415  29.080   7.350
 8413POPC   NC365039   5.101  36.895   5.550
 8413POPC   PO465040   5.141  36.858   5.850
 8413POPC   GL165041   5.054  36.905   6.150
 8413POPC   GL265042   5.029  36.926   6.150
 8413POPC   C1A65043   5.116  36.859   6.450
 8413POPC   D2A65044   5.094  36.945   6.750
 8413POPC   C3A65045   5.114  36.931   7.050
 8413POPC   C4A65046   5.051  36.863   7.350
 8413POPC   C1B65047   4.878  37.050   6.450
 8413POPC   C2B65048   4.831  37.050   6.750
 8413POPC   C3B65049   4.897  37.014   7.050
 8413POPC   C4B65050   4.828  37.042   7.350
 8414POPC   NC365051  31.424  31.488   5.550
 8414POPC   PO465052  31.517  31.454   5.850
 8414POPC   GL165053  31.511  31.488   6.150
 8414POPC   GL265054  31.561  31.584   6.150
 8414POPC   C1A65055  31.453  31.465   6.450
 8414POPC   D2A65056  31.453  31.440   6.750
 8414POPC   C3A65057  31.475  31.432   7.050
 8414POPC   C4A65058  31.482  31.428   7.350
 8414POPC   C1B65059  31.591  31.714   6.450
 8414POPC   C2B65060  31.519  31.664   6.750
 8414POPC   C3B65061  31.581  31.716   7.050
 8414POPC   C4B65062  31.548  31.680   7.350
 8415POPC   NC365063  42.341  15.955   5.550
 8415POPC   PO465064  42.312  15.984   5.850
 8415POPC   GL165065  42.350  15.939   6.150
 8415POPC   GL265066  42.403  15.839   6.150
 8415POPC   C1A65067  42.359  15.909   6.450
 8415POPC   D2A65068  42.348  15.951   6.750
 8415POPC   C3A65069  42.361  15.916   7.050
 8415POPC   C4A65070  42.308  15.930   7.350
 8415POPC   C1B65071  42.397  15.745   6.450
 8415POPC   C2B65072  42.444  15.702   6.750
 8415POPC   C3B65073  42.444  15.748   7.050
 8415POPC   C4B65074  42.435  15.747   7.350
 8416POPC   NC365075  28.384   5.044   5.550
 8416POPC   PO465076  28.341   5.051   5.850
 8416POPC   GL165077  28.364   5.116   6.150
 8416POPC   GL265078  28.416   5.167   6.150
 8416POPC   C1A65079  28.400   5.096   6.450
 8416POPC   D2A65080  28.354   5.063   6.750
 8416POPC   C3A65081  28.409   5.074   7.050
 8416POPC   C4A65082  28.399   5.104   7.350
 8416POPC   C1B65083  28.462   5.314   6.450
 8416POPC   C2B65084  28.429   5.338   6.750
 8416POPC   C3B65085  28.393   5.353   7.050
 8416POPC   C4B65086  28.431   5.297   7.350
 8417POPC   NC365087  21.364  30.687   5.550
 8417POPC   PO465088  21.389  30.699   5.850
 8417POPC   GL165089  21.399  30.656   6.150
 8417POPC   GL265090  21.307  30.656   6.150
 8417POPC   C1A65091  21.363  30.708   6.450
 8417POPC   D2A65092  21.369  30.691   6.750
 8417POPC   C3A65093  21.351  30.719   7.050
 8417POPC   C4A65094  21.418  30.659   7.350
 8417POPC   C1B65095  21.204  30.518   6.450
 8417POPC   C2B65096  21.242  30.549   6.750
 8417POPC   C3B65097  21.186  30.517   7.050
 8417POPC   C4B65098  21.153  30.488   7.350
 8418POPC   NC365099  13.639  13.661   5.550
 8418POPC   PO465100  13.615  13.627   5.850
 8418POPC   GL165101  13.578  13.581   6.150
 8418POPC   GL265102  13.565  13.751   6.150
 8418POPC   C1A65103  13.674  13.645   6.450
 8418POPC   D2A65104  13.580  13.667   6.750
 8418POPC   C3A65105  13.596  13.667   7.050
 8418POPC   C4A65106  13.663  13.611   7.350
 8418POPC   C1B65107  13.489  13.803   6.450
 8418POPC   C2B65108  13.516  13.805   6.750
 8418POPC   C3B65109  13.463  13.801   7.050
 8418POPC   C4B65110  13.507  13.850   7.350
 8419POPC   NC365111   1.220   7.392   5.550
 8419POPC   PO465112   1.221   7.399   5.850
 8419POPC   GL165113   1.246   7.378   6.150
 8419POPC   GL265114   1.229   7.318   6.150
 8419POPC   C1A65115   1.192   7.405   6.450
 8419POPC   D2A65116   1.216   7.388   6.750
 8419POPC   C3A65117   1.227   7.412   7.050
 8419POPC   C4A65118   1.216   7.422   7.350
 8419POPC   C1B65119   1.211   7.207   6.450
 8419POPC   C2B65120   1.164   7.150   6.750
 8419POPC   C3B65121   1.213   7.181   7.050
 8419POPC   C4B65122   1.218   7.161   7.350
 8420POPC   NC365123  35.351  23.682   5.550
 8420POPC   PO465124  35.344  23.715   5.850
 8420POPC   GL165125  35.322  23.746   6.150
 8420POPC   GL265126  35.439  23.809   6.150
 8420POPC   C1A65127  35.348  23.684   6.450
 8420POPC   D2A65128  35.308  23.751   6.750
 8420POPC   C3A65129  35.352  23.730   7.050
 8420POPC   C4A65130  35.356  23.711   7.350
 8420POPC   C1B65131  35.592  23.847   6.450
 8420POPC   C2B65132  35.580  23.870   6.750
 8420POPC   C3B65133  35.535  23.792   7.050
 8420POPC   C4B65134  35.526  23.845   7.350
 8421POPC   NC365135   1.994  22.122   5.550
 8421POPC   PO465136   2.032  22.131   5.850
 8421POPC   GL165137   1.986  22.133   6.150
 8421POPC   GL265138   1.864  22.276   6.150
 8421POPC   C1A65139   1.945  22.157   6.450
 8421POPC   D2A65140   2.028  22.204   6.750
 8421POPC   C3A65141   1.967  22.138   7.050
 8421POPC   C4A65142   1.953  22.127   7.350
 8421POPC   C1B65143   1.830  22.322   6.450
 8421POPC   C2B65144   1.811  22.278   6.750
 8421POPC   C3B65145   1.832  22.355   7.050
 8421POPC   C4B65146   1.756  22.291   7.350
 8422POPC   NC365147  34.532  44.674   5.550
 8422POPC   PO465148  34.612  44.655   5.850
 8422POPC   GL165149  34.562  44.647   6.150
 8422POPC   GL265150  34.718  44.606   6.150
 8422POPC   C1A65151  34.596  44.701   6.450
 8422POPC   D2A65152  34.593  44.711   6.750
 8422POPC   C3A65153  34.564  44.700   7.050
 8422POPC   C4A65154  34.543  44.650   7.350
 8422POPC   C1B65155  34.807  44.652   6.450
 8422POPC   C2B65156  34.843  44.588   6.750
 8422POPC   C3B65157  34.797  44.615   7.050
 8422POPC   C4B65158  34.797  44.619   7.350
 8423POPC   NC365159  42.318  37.688   5.550
 8423POPC   PO465160  42.379  37.711   5.850
 8423POPC   GL165161  42.341  37.677   6.150
 8423POPC   GL265162  42.485  37.674   6.150
 8423POPC   C1A65163  42.329  37.708   6.450
 8423POPC   D2A65164  42.361  37.724   6.750
 8423POPC   C3A65165  42.366  37.688   7.050
 8423POPC   C4A65166  42.309  37.634   7.350
 8423POPC   C1B65167  42.522  37.532   6.450
 8423POPC   C2B65168  42.590  37.553   6.750
 8423POPC   C3B65169  42.532  37.597   7.050
 8423POPC   C4B65170  42.523  37.593   7.350
 8424POPC   NC365171  22.937  43.904   5.550
 8424POPC   PO465172  22.900  43.898   5.850
 8424POPC   GL165173  22.984  43.909   6.150
 8424POPC   GL265174  22.860  43.846   6.150
 8424POPC   C1A65175  22.895  43.925   6.450
 8424POPC   D2A65176  22.975  43.896   6.750
 8424POPC   C3A65177  22.964  43.901   7.050
 8424POPC   C4A65178  22.890  43.863   7.350
 8424POPC   C1B65179  22.676  43.863   6.450
 8424POPC   C2B65180  22.652  43.859   6.750
 8424POPC   C3B65181  22.678  43.914   7.050
 8424POPC   C4B65182  22.678  43.917   7.350
 8425POPC   NC365183  10.502  21.354   5.550
 8425POPC   PO465184  10.537  21.365   5.850
 8425POPC   GL165185  10.495  21.427   6.150
 8425POPC   GL265186  10.427  21.516   6.150
 8425POPC   C1A65187  10.573  21.398   6.450
 8425POPC   D2A65188  10.526  21.342   6.750
 8425POPC   C3A65189  10.561  21.416   7.050
 8425POPC   C4A65190  10.505  21.374   7.350
 8425POPC   C1B65191  10.439  21.656   6.450
 8425POPC   C2B65192  10.466  21.572   6.750
 8425POPC   C3B65193  10.373  21.615   7.050
 8425POPC   C4B65194  10.389  21.662   7.350
 8426POPC   NC365195  15.229  44.617   5.550
 8426POPC   PO465196  15.183  44.659   5.850
 8426POPC   GL165197  15.184  44.623   6.150
 8426POPC   GL265198  15.059  44.546   6.150
 8426POPC   C1A65199  15.227  44.696   6.450
 8426POPC   D2A65200  15.181  44.668   6.750
 8426POPC   C3A65201  15.198  44.662   7.050
 8426POPC   C4A65202  15.156  44.618   7.350
 8426POPC   C1B65203  15.010  44.532   6.450
 8426POPC   C2B65204  14.976  44.469   6.750
 8426POPC   C3B65205  15.022  44.533   7.050
 8426POPC   C4B65206  15.015  44.467   7.350
 8427POPC   NC365207   8.978  33.009   5.550
 8427POPC   PO465208   9.020  33.012   5.850
 8427POPC   GL165209   8.945  33.004   6.150
 8427POPC   GL265210   8.885  33.009   6.150
 8427POPC   C1A65211   8.944  32.983   6.450
 8427POPC   D2A65212   8.949  33.024   6.750
 8427POPC   C3A65213   8.962  32.976   7.050
 8427POPC   C4A65214   9.014  33.031   7.350
 8427POPC   C1B65215   8.757  32.943   6.450
 8427POPC   C2B65216   8.695  32.980   6.750
 8427POPC   C3B65217   8.776  32.936   7.050
 8427POPC   C4B65218   8.691  32.987   7.350
 8428POPC   NC365219  43.871  41.575   5.550
 8428POPC   PO465220  43.907  41.546   5.850
 8428POPC   GL165221  43.896  41.552   6.150
 8428POPC   GL265222  43.849  41.434   6.150
 8428POPC   C1A65223  43.883  41.553   6.450
 8428POPC   D2A65224  43.913  41.568   6.750
 8428POPC   C3A65225  43.888  41.510   7.050
 8428POPC   C4A65226  43.910  41.596   7.350
 8428POPC   C1B65227  43.867  41.293   6.450
 8428POPC   C2B65228  43.806  41.331   6.750
 8428POPC   C3B65229  43.846  41.271   7.050
 8428POPC   C4B65230  43.823  41.311   7.350
 8429POPC   NC365231  31.477  11.265   5.550
 8429POPC   PO465232  31.430  11.339   5.850
 8429POPC   GL165233  31.475  11.273   6.150
 8429POPC   GL265234  31.368  11.334   6.150
 8429POPC   C1A65235  31.504  11.290   6.450
 8429POPC   D2A65236  31.449  11.263   6.750
 8429POPC   C3A65237  31.442  11.349   7.050
 8429POPC   C4A65238  31.499  11.260   7.350
 8429POPC   C1B65239  31.274  11.350   6.450
 8429POPC   C2B65240  31.270  11.342   6.750
 8429POPC   C3B65241  31.277  11.382   7.050
 8429POPC   C4B65242  31.210  11.407   7.350
 8430POPC   NC365243  28.327  36.899   5.550
 8430POPC   PO465244  28.337  36.867   5.850
 8430POPC   GL165245  28.358  36.919   6.150
 8430POPC   GL265246  28.352  36.734   6.150
 8430POPC   C1A65247  28.323  36.861   6.450
 8430POPC   D2A65248  28.384  36.906   6.750
 8430POPC   C3A65249  28.406  36.892   7.050
 8430POPC   C4A65250  28.381  36.865   7.350
 8430POPC   C1B65251  28.443  36.660   6.450
 8430POPC   C2B65252  28.433  36.618   6.750
 8430POPC   C3B65253  28.458  36.648   7.050
 8430POPC   C4B65254  28.459  36.701   7.350
 8431POPC   NC365255  11.336  30.693   5.550
 8431POPC   PO465256  11.301  30.731   5.850
 8431POPC   GL165257  11.279  30.718   6.150
 8431POPC   GL265258  11.436  30.602   6.150
 8431POPC   C1A65259  11.336  30.731   6.450
 8431POPC   D2A65260  11.281  30.717   6.750
 8431POPC   C3A65261  11.254  30.664   7.050
 8431POPC   C4A65262  11.301  30.730   7.350
 8431POPC   C1B65263  11.466  30.479   6.450
 8431POPC   C2B65264  11.518  30.550   6.750
 8431POPC   C3B65265  11.503  30.505   7.050
 8431POPC   C4B65266  11.478  30.489   7.350
 8432POPC   NC365267  25.288   0.418   5.550
 8432POPC   PO465268  25.258   0.456   5.850
 8432POPC   GL165269  25.244   0.479   6.150
 8432POPC   GL265270  25.152   0.430   6.150
 8432POPC   C1A65271  25.278   0.479   6.450
 8432POPC   D2A65272  25.249   0.423   6.750
 8432POPC   C3A65273  25.258   0.451   7.050
 8432POPC   C4A65274  25.304   0.481   7.350
 8432POPC   C1B65275  25.047   0.322   6.450
 8432POPC   C2B65276  25.036   0.389   6.750
 8432POPC   C3B65277  25.051   0.383   7.050
 8432POPC   C4B65278  25.035   0.360   7.350
 8433POPC   NC365279   7.443   2.791   5.550
 8433POPC   PO465280   7.420   2.793   5.850
 8433POPC   GL165281   7.442   2.771   6.150
 8433POPC   GL265282   7.478   2.863   6.150
 8433POPC   C1A65283   7.466   2.784   6.450
 8433POPC   D2A65284   7.458   2.735   6.750
 8433POPC   C3A65285   7.442   2.724   7.050
 8433POPC   C4A65286   7.376   2.764   7.350
 8433POPC   C1B65287   7.476   3.042   6.450
 8433POPC   C2B65288   7.519   2.957   6.750
 8433POPC   C3B65289   7.476   3.006   7.050
 8433POPC   C4B65290   7.480   3.047   7.350
 8434POPC   NC365291   9.791  20.626   5.550
 8434POPC   PO465292   9.784  20.652   5.850
 8434POPC   GL165293   9.723  20.576   6.150
 8434POPC   GL265294   9.703  20.495   6.150
 8434POPC   C1A65295   9.757  20.644   6.450
 8434POPC   D2A65296   9.726  20.571   6.750
 8434POPC   C3A65297   9.777  20.566   7.050
 8434POPC   C4A65298   9.771  20.643   7.350
 8434POPC   C1B65299   9.643  20.389   6.450
 8434POPC   C2B65300   9.656  20.361   6.750
 8434POPC   C3B65301   9.641  20.368   7.050
 8434POPC   C4B65302   9.643  20.385   7.350
 8435POPC   NC365303  43.907   6.597   5.550
 8435POPC   PO465304  43.903   6.627   5.850
 8435POPC   GL165305  43.926   6.670   6.150
 8435POPC   GL265306  44.025   6.715   6.150
 8435POPC   C1A65307  43.898   6.630   6.450
 8435POPC   D2A65308  43.909   6.673   6.750
 8435POPC   C3A65309  43.909   6.598   7.050
 8435POPC   C4A65310  43.863   6.672   7.350
 8435POPC   C1B65311  44.170   6.740   6.450
 8435POPC   C2B65312  44.090   6.750   6.750
 8435POPC   C3B65313  44.094   6.752   7.050
 8435POPC   C4B65314  44.123   6.702   7.350
 8436POPC   NC365315  31.447   8.193   5.550
 8436POPC   PO465316  31.475   8.237   5.850
 8436POPC   GL165317  31.506   8.221   6.150
 8436POPC   GL265318  31.589   8.121   6.150
 8436POPC   C1A65319  31.500   8.188   6.450
 8436POPC   D2A65320  31.429   8.238   6.750
 8436POPC   C3A65321  31.499   8.151   7.050
 8436POPC   C4A65322  31.474   8.175   7.350
 8436POPC   C1B65323  31.734   8.139   6.450
 8436POPC   C2B65324  31.729   8.120   6.750
 8436POPC   C3B65325  31.687   8.058   7.050
 8436POPC   C4B65326  31.704   8.133   7.350
 8437POPC   NC365327  37.649  28.389   5.550
 8437POPC   PO465328  37.694  28.395   5.850
 8437POPC   GL165329  37.709  28.361   6.150
 8437POPC   GL265330  37.620  28.466   6.150
 8437POPC   C1A65331  37.670  28.405   6.450
 8437POPC   D2A65332  37.661  28.379   6.750
 8437POPC   C3A65333  37.700  28.357   7.050
 8437POPC   C4A65334  37.637  28.320   7.350
 8437POPC   C1B65335  37.648  28.599   6.450
 8437POPC   C2B65336  37.641  28.605   6.750
 8437POPC   C3B65337  37.661  28.603   7.050
 8437POPC   C4B65338  37.678  28.602   7.350
 8438POPC   NC365339   0.399  43.129   5.550
 8438POPC   PO465340   0.420  43.108   5.850
 8438POPC   GL165341   0.460  43.074   6.150
 8438POPC   GL265342   0.571  43.069   6.150
 8438POPC   C1A65343   0.440  43.156   6.450
 8438POPC   D2A65344   0.474  43.061   6.750
 8438POPC   C3A65345   0.488  43.084   7.050
 8438POPC   C4A65346   0.425  43.096   7.350
 8438POPC   C1B65347   0.635  42.939   6.450
 8438POPC   C2B65348   0.668  42.904   6.750
 8438POPC   C3B65349   0.598  42.924   7.050
 8438POPC   C4B65350   0.617  42.987   7.350
 8439POPC   NC365351  19.790   2.039   5.550
 8439POPC   PO465352  19.805   1.999   5.850
 8439POPC   GL165353  19.878   1.979   6.150
 8439POPC   GL265354  19.933   1.912   6.150
 8439POPC   C1A65355  19.804   2.021   6.450
 8439POPC   D2A65356  19.865   1.998   6.750
 8439POPC   C3A65357  19.875   1.947   7.050
 8439POPC   C4A65358  19.824   2.033   7.350
 8439POPC   C1B65359  20.076   1.858   6.450
 8439POPC   C2B65360  20.092   1.949   6.750
 8439POPC   C3B65361  20.062   1.946   7.050
 8439POPC   C4B65362  20.073   1.905   7.350
 8440POPC   NC365363  18.324  35.315   5.550
 8440POPC   PO465364  18.261  35.367   5.850
 8440POPC   GL165365  18.260  35.315   6.150
 8440POPC   GL265366  18.149  35.399   6.150
 8440POPC   C1A65367  18.302  35.381   6.450
 8440POPC   D2A65368  18.253  35.320   6.750
 8440POPC   C3A65369  18.260  35.317   7.050
 8440POPC   C4A65370  18.280  35.341   7.350
 8440POPC   C1B65371  18.126  35.549   6.450
 8440POPC   C2B65372  18.070  35.539   6.750
 8440POPC   C3B65373  18.065  35.509   7.050
 8440POPC   C4B65374  18.107  35.472   7.350
 8441POPC   NC365375  21.352  11.342   5.550
 8441POPC   PO465376  21.400  11.318   5.850
 8441POPC   GL165377  21.396  11.321   6.150
 8441POPC   GL265378  21.213  11.289   6.150
 8441POPC   C1A65379  21.403  11.332   6.450
 8441POPC   D2A65380  21.390  11.251   6.750
 8441POPC   C3A65381  21.368  11.324   7.050
 8441POPC   C4A65382  21.356  11.290   7.350
 8441POPC   C1B65383  21.111  11.357   6.450
 8441POPC   C2B65384  21.133  11.365   6.750
 8441POPC   C3B65385  21.089  11.362   7.050
 8441POPC   C4B65386  21.137  11.344   7.350
 8442POPC   NC365387   5.841  23.688   5.550
 8442POPC   PO465388   5.875  23.742   5.850
 8442POPC   GL165389   5.852  23.697   6.150
 8442POPC   GL265390   5.799  23.808   6.150
 8442POPC   C1A65391   5.917  23.742   6.450
 8442POPC   D2A65392   5.917  23.719   6.750
 8442POPC   C3A65393   5.821  23.664   7.050
 8442POPC   C4A65394   5.904  23.748   7.350
 8442POPC   C1B65395   5.766  23.949   6.450
 8442POPC   C2B65396   5.779  23.914   6.750
 8442POPC   C3B65397   5.808  23.941   7.050
 8442POPC   C4B65398   5.749  23.917   7.350
 8443POPC   NC365399  16.687  39.232   5.550
 8443POPC   PO465400  16.777  39.224   5.850
 8443POPC   GL165401  16.738  39.237   6.150
 8443POPC   GL265402  16.636  39.242   6.150
 8443POPC   C1A65403  16.724  39.223   6.450
 8443POPC   D2A65404  16.731  39.250   6.750
 8443POPC   C3A65405  16.737  39.220   7.050
 8443POPC   C4A65406  16.781  39.238   7.350
 8443POPC   C1B65407  16.521  39.166   6.450
 8443POPC   C2B65408  16.448  39.182   6.750
 8443POPC   C3B65409  16.508  39.148   7.050
 8443POPC   C4B65410  16.530  39.130   7.350
 8444POPC   NC365411   9.015  29.884   5.550
 8444POPC   PO465412   9.010  29.920   5.850
 8444POPC   GL165413   8.949  29.934   6.150
 8444POPC   GL265414   8.888  30.018   6.150
 8444POPC   C1A65415   8.996  29.945   6.450
 8444POPC   D2A65416   8.945  29.914   6.750
 8444POPC   C3A65417   9.014  29.939   7.050
 8444POPC   C4A65418   8.945  29.902   7.350
 8444POPC   C1B65419   8.837  30.082   6.450
 8444POPC   C2B65420   8.803  30.122   6.750
 8444POPC   C3B65421   8.798  30.145   7.050
 8444POPC   C4B65422   8.800  30.088   7.350
 8445POPC   NC365423  39.258  13.671   5.550
 8445POPC   PO465424  39.184  13.616   5.850
 8445POPC   GL165425  39.200  13.601   6.150
 8445POPC   GL265426  39.224  13.515   6.150
 8445POPC   C1A65427  39.184  13.615   6.450
 8445POPC   D2A65428  39.243  13.593   6.750
 8445POPC   C3A65429  39.207  13.613   7.050
 8445POPC   C4A65430  39.212  13.593   7.350
 8445POPC   C1B65431  39.177  13.371   6.450
 8445POPC   C2B65432  39.178  13.381   6.750
 8445POPC   C3B65433  39.173  13.411   7.050
 8445POPC   C4B65434  39.139  13.337   7.350
 8446POPC   NC365435  22.202  43.070   5.550
 8446POPC   PO465436  22.199  43.105   5.850
 8446POPC   GL165437  22.174  43.099   6.150
 8446POPC   GL265438  22.141  42.990   6.150
 8446POPC   C1A65439  22.147  43.142   6.450
 8446POPC   D2A65440  22.113  43.158   6.750
 8446POPC   C3A65441  22.158  43.130   7.050
 8446POPC   C4A65442  22.202  43.159   7.350
 8446POPC   C1B65443  22.082  42.853   6.450
 8446POPC   C2B65444  22.062  42.861   6.750
 8446POPC   C3B65445  22.045  42.876   7.050
 8446POPC   C4B65446  22.070  42.939   7.350
 8447POPC   NC365447   2.739  29.955   5.550
 8447POPC   PO465448   2.802  29.931   5.850
 8447POPC   GL165449   2.810  29.935   6.150
 8447POPC   GL265450   2.803  29.850   6.150
 8447POPC   C1A65451   2.797  29.951   6.450
 8447POPC   D2A65452   2.794  29.926   6.750
 8447POPC   C3A65453   2.750  29.970   7.050
 8447POPC   C4A65454   2.752  29.964   7.350
 8447POPC   C1B65455   2.951  29.681   6.450
 8447POPC   C2B65456   2.861  29.696   6.750
 8447POPC   C3B65457   2.948  29.729   7.050
 8447POPC   C4B65458   2.884  29.693   7.350
 8448POPC   NC365459  38.479  43.848   5.550
 8448POPC   PO465460  38.480  43.879   5.850
 8448POPC   GL165461  38.484  43.891   6.150
 8448POPC   GL265462  38.521  44.026   6.150
 8448POPC   C1A65463  38.452  43.895   6.450
 8448POPC   D2A65464  38.447  43.912   6.750
 8448POPC   C3A65465  38.468  43.837   7.050
 8448POPC   C4A65466  38.493  43.923   7.350
 8448POPC   C1B65467  38.562  44.094   6.450
 8448POPC   C2B65468  38.552  44.109   6.750
 8448POPC   C3B65469  38.508  44.142   7.050
 8448POPC   C4B65470  38.562  44.124   7.350
 8449POPC   NC365471  27.636  35.369   5.550
 8449POPC   PO465472  27.615  35.336   5.850
 8449POPC   GL165473  27.574  35.321   6.150
 8449POPC   GL265474  27.606  35.277   6.150
 8449POPC   C1A65475  27.641  35.329   6.450
 8449POPC   D2A65476  27.591  35.305   6.750
 8449POPC   C3A65477  27.613  35.318   7.050
 8449POPC   C4A65478  27.618  35.367   7.350
 8449POPC   C1B65479  27.553  35.073   6.450
 8449POPC   C2B65480  27.564  35.116   6.750
 8449POPC   C3B65481  27.527  35.145   7.050
 8449POPC   C4B65482  27.600  35.153   7.350
 8450POPC   NC365483  19.021  20.621   5.550
 8450POPC   PO465484  19.013  20.629   5.850
 8450POPC   GL165485  19.079  20.659   6.150
 8450POPC   GL265486  18.996  20.523   6.150
 8450POPC   C1A65487  19.022  20.650   6.450
 8450POPC   D2A65488  19.014  20.587   6.750
 8450POPC   C3A65489  19.081  20.644   7.050
 8450POPC   C4A65490  19.090  20.630   7.350
 8450POPC   C1B65491  18.869  20.453   6.450
 8450POPC   C2B65492  18.884  20.485   6.750
 8450POPC   C3B65493  18.812  20.544   7.050
 8450POPC   C4B65494  18.825  20.494   7.350
 8451POPC   NC365495  23.729  12.866   5.550
 8451POPC   PO465496  23.723  12.866   5.850
 8451POPC   GL165497  23.706  12.896   6.150
 8451POPC   GL265498  23.677  12.999   6.150
 8451POPC   C1A65499  23.714  12.823   6.450
 8451POPC   D2A65500  23.731  12.809   6.750
 8451POPC   C3A65501  23.695  12.868   7.050
 8451POPC   C4A65502  23.696  12.859   7.350
 8451POPC   C1B65503  23.659  13.084   6.450
 8451POPC   C2B65504  23.744  13.097   6.750
 8451POPC   C3B65505  23.700  13.082   7.050
 8451POPC   C4B65506  23.721  13.137   7.350
 8452POPC   NC365507  34.585  33.803   5.550
 8452POPC   PO465508  34.575  33.754   5.850
 8452POPC   GL165509  34.587  33.762   6.150
 8452POPC   GL265510  34.655  33.713   6.150
 8452POPC   C1A65511  34.549  33.802   6.450
 8452POPC   D2A65512  34.527  33.817   6.750
 8452POPC   C3A65513  34.621  33.848   7.050
 8452POPC   C4A65514  34.585  33.834   7.350
 8452POPC   C1B65515  34.698  33.522   6.450
 8452POPC   C2B65516  34.644  33.599   6.750
 8452POPC   C3B65517  34.666  33.611   7.050
 8452POPC   C4B65518  34.691  33.527   7.350
 8453POPC   NC365519  26.786  24.459   5.550
 8453POPC   PO465520  26.835  24.498   5.850
 8453POPC   GL165521  26.847  24.480   6.150
 8453POPC   GL265522  26.787  24.574   6.150
 8453POPC   C1A65523  26.796  24.536   6.450
 8453POPC   D2A65524  26.830  24.459   6.750
 8453POPC   C3A65525  26.852  24.494   7.050
 8453POPC   C4A65526  26.855  24.480   7.350
 8453POPC   C1B65527  26.797  24.689   6.450
 8453POPC   C2B65528  26.804  24.774   6.750
 8453POPC   C3B65529  26.835  24.690   7.050
 8453POPC   C4B65530  26.779  24.754   7.350
 8454POPC   NC365531  29.891   6.693   5.550
 8454POPC   PO465532  29.878   6.687   5.850
 8454POPC   GL165533  29.902   6.612   6.150
 8454POPC   GL265534  29.895   6.480   6.150
 8454POPC   C1A65535  29.901   6.642   6.450
 8454POPC   D2A65536  29.926   6.645   6.750
 8454POPC   C3A65537  29.909   6.694   7.050
 8454POPC   C4A65538  29.951   6.641   7.350
 8454POPC   C1B65539  29.966   6.412   6.450
 8454POPC   C2B65540  30.018   6.446   6.750
 8454POPC   C3B65541  29.957   6.430   7.050
 8454POPC   C4B65542  29.923   6.369   7.350
 8455POPC   NC365543   5.120  31.519   5.550
 8455POPC   PO465544   5.074  31.486   5.850
 8455POPC   GL165545   5.049  31.520   6.150
 8455POPC   GL265546   5.021  31.630   6.150
 8455POPC   C1A65547   5.045  31.497   6.450
 8455POPC   D2A65548   5.108  31.507   6.750
 8455POPC   C3A65549   5.063  31.494   7.050
 8455POPC   C4A65550   5.120  31.442   7.350
 8455POPC   C1B65551   4.989  31.711   6.450
 8455POPC   C2B65552   4.993  31.764   6.750
 8455POPC   C3B65553   5.074  31.697   7.050
 8455POPC   C4B65554   5.016  31.675   7.350
 8456POPC   NC365555   9.014  35.394   5.550
 8456POPC   PO465556   9.000  35.363   5.850
 8456POPC   GL165557   8.975  35.329   6.150
 8456POPC   GL265558   8.877  35.445   6.150
 8456POPC   C1A65559   8.957  35.332   6.450
 8456POPC   D2A65560   9.002  35.336   6.750
 8456POPC   C3A65561   9.000  35.332   7.050
 8456POPC   C4A65562   8.941  35.306   7.350
 8456POPC   C1B65563   8.743  35.539   6.450
 8456POPC   C2B65564   8.794  35.520   6.750
 8456POPC   C3B65565   8.824  35.475   7.050
 8456POPC   C4B65566   8.811  35.507   7.350
 8457POPC   NC365567  36.911  36.871   5.550
 8457POPC   PO465568  36.947  36.895   5.850
 8457POPC   GL165569  36.907  36.859   6.150
 8457POPC   GL265570  36.822  36.788   6.150
 8457POPC   C1A65571  36.868  36.928   6.450
 8457POPC   D2A65572  36.888  36.871   6.750
 8457POPC   C3A65573  36.940  36.938   7.050
 8457POPC   C4A65574  36.896  36.944   7.350
 8457POPC   C1B65575  36.761  36.727   6.450
 8457POPC   C2B65576  36.763  36.689   6.750
 8457POPC   C3B65577  36.775  36.701   7.050
 8457POPC   C4B65578  36.802  36.668   7.350
 8458POPC   NC365579  11.299   2.812   5.550
 8458POPC   PO465580  11.273   2.814   5.850
 8458POPC   GL165581  11.343   2.787   6.150
 8458POPC   GL265582  11.403   2.766   6.150
 8458POPC   C1A65583  11.258   2.776   6.450
 8458POPC   D2A65584  11.346   2.745   6.750
 8458POPC   C3A65585  11.311   2.773   7.050
 8458POPC   C4A65586  11.329   2.793   7.350
 8458POPC   C1B65587  11.512   2.696   6.450
 8458POPC   C2B65588  11.517   2.745   6.750
 8458POPC   C3B65589  11.542   2.695   7.050
 8458POPC   C4B65590  11.585   2.758   7.350
 8459POPC   NC365591  35.335   9.701   5.550
 8459POPC   PO465592  35.326   9.769   5.850
 8459POPC   GL165593  35.324   9.720   6.150
 8459POPC   GL265594  35.502   9.689   6.150
 8459POPC   C1A65595  35.331   9.753   6.450
 8459POPC   D2A65596  35.307   9.749   6.750
 8459POPC   C3A65597  35.303   9.724   7.050
 8459POPC   C4A65598  35.316   9.722   7.350
 8459POPC   C1B65599  35.575   9.596   6.450
 8459POPC   C2B65600  35.603   9.667   6.750
 8459POPC   C3B65601  35.565   9.625   7.050
 8459POPC   C4B65602  35.572   9.584   7.350
 8460POPC   NC365603  17.553  28.362   5.550
 8460POPC   PO465604  17.542  28.356   5.850
 8460POPC   GL165605  17.534  28.369   6.150
 8460POPC   GL265606  17.576  28.253   6.150
 8460POPC   C1A65607  17.526  28.416   6.450
 8460POPC   D2A65608  17.468  28.341   6.750
 8460POPC   C3A65609  17.519  28.365   7.050
 8460POPC   C4A65610  17.460  28.416   7.350
 8460POPC   C1B65611  17.583  28.120   6.450
 8460POPC   C2B65612  17.610  28.107   6.750
 8460POPC   C3B65613  17.586  28.091   7.050
 8460POPC   C4B65614  17.592  28.155   7.350
 8461POPC   NC365615  38.462   5.850   5.550
 8461POPC   PO465616  38.437   5.834   5.850
 8461POPC   GL165617  38.420   5.862   6.150
 8461POPC   GL265618  38.374   5.903   6.150
 8461POPC   C1A65619  38.498   5.839   6.450
 8461POPC   D2A65620  38.488   5.876   6.750
 8461POPC   C3A65621  38.424   5.906   7.050
 8461POPC   C4A65622  38.463   5.822   7.350
 8461POPC   C1B65623  38.197   5.901   6.450
 8461POPC   C2B65624  38.253   5.944   6.750
 8461POPC   C3B65625  38.247   5.893   7.050
 8461POPC   C4B65626  38.166   5.901   7.350
 8462POPC   NC365627  32.220  32.996   5.550
 8462POPC   PO465628  32.240  33.060   5.850
 8462POPC   GL165629  32.246  32.999   6.150
 8462POPC   GL265630  32.397  33.116   6.150
 8462POPC   C1A65631  32.240  32.974   6.450
 8462POPC   D2A65632  32.241  32.986   6.750
 8462POPC   C3A65633  32.207  33.003   7.050
 8462POPC   C4A65634  32.292  32.998   7.350
 8462POPC   C1B65635  32.440  33.161   6.450
 8462POPC   C2B65636  32.483  33.138   6.750
 8462POPC   C3B65637  32.511  33.201   7.050
 8462POPC   C4B65638  32.467  33.144   7.350
 8463POPC   NC365639  26.013  31.465   5.550
 8463POPC   PO465640  26.050  31.516   5.850
 8463POPC   GL165641  26.005  31.463   6.150
 8463POPC   GL265642  26.092  31.367   6.150
 8463POPC   C1A65643  26.072  31.462   6.450
 8463POPC   D2A65644  26.002  31.491   6.750
 8463POPC   C3A65645  26.090  31.502   7.050
 8463POPC   C4A65646  26.032  31.439   7.350
 8463POPC   C1B65647  26.140  31.189   6.450
 8463POPC   C2B65648  26.110  31.201   6.750
 8463POPC   C3B65649  26.145  31.236   7.050
 8463POPC   C4B65650  26.079  31.205   7.350
 8464POPC   NC365651   8.952   6.602   5.550
 8464POPC   PO465652   9.010   6.675   5.850
 8464POPC   GL165653   9.022   6.627   6.150
 8464POPC   GL265654   8.975   6.502   6.150
 8464POPC   C1A65655   8.958   6.641   6.450
 8464POPC   D2A65656   8.994   6.632   6.750
 8464POPC   C3A65657   8.938   6.655   7.050
 8464POPC   C4A65658   8.950   6.683   7.350
 8464POPC   C1B65659   8.857   6.418   6.450
 8464POPC   C2B65660   8.853   6.398   6.750
 8464POPC   C3B65661   8.892   6.394   7.050
 8464POPC   C4B65662   8.841   6.417   7.350
 8465POPC   NC365663  22.985  39.192   5.550
 8465POPC   PO465664  22.986  39.246   5.850
 8465POPC   GL165665  22.914  39.259   6.150
 8465POPC   GL265666  22.806  39.254   6.150
 8465POPC   C1A65667  22.980  39.186   6.450
 8465POPC   D2A65668  22.892  39.242   6.750
 8465POPC   C3A65669  22.983  39.254   7.050
 8465POPC   C4A65670  22.976  39.234   7.350
 8465POPC   C1B65671  22.743  39.322   6.450
 8465POPC   C2B65672  22.667  39.307   6.750
 8465POPC   C3B65673  22.745  39.358   7.050
 8465POPC   C4B65674  22.693  39.336   7.350
 8466POPC   NC365675  12.043   8.246   5.550
 8466POPC   PO465676  12.105   8.190   5.850
 8466POPC   GL165677  12.100   8.228   6.150
 8466POPC   GL265678  12.153   8.026   6.150
 8466POPC   C1A65679  12.110   8.202   6.450
 8466POPC   D2A65680  12.088   8.171   6.750
 8466POPC   C3A65681  12.080   8.204   7.050
 8466POPC   C4A65682  12.074   8.221   7.350
 8466POPC   C1B65683  12.101   7.921   6.450
 8466POPC   C2B65684  12.126   7.955   6.750
 8466POPC   C3B65685  12.173   7.940   7.050
 8466POPC   C4B65686  12.112   7.955   7.350
 8467POPC   NC365687  22.183  21.423   5.550
 8467POPC   PO465688  22.134  21.356   5.850
 8467POPC   GL165689  22.194  21.434   6.150
 8467POPC   GL265690  22.077  21.456   6.150
 8467POPC   C1A65691  22.139  21.367   6.450
 8467POPC   D2A65692  22.120  21.374   6.750
 8467POPC   C3A65693  22.120  21.405   7.050
 8467POPC   C4A65694  22.193  21.383   7.350
 8467POPC   C1B65695  21.915  21.511   6.450
 8467POPC   C2B65696  21.974  21.507   6.750
 8467POPC   C3B65697  21.950  21.438   7.050
 8467POPC   C4B65698  21.902  21.446   7.350
 8468POPC   NC365699  34.621  25.300   5.550
 8468POPC   PO465700  34.550  25.258   5.850
 8468POPC   GL165701  34.550  25.270   6.150
 8468POPC   GL265702  34.515  25.339   6.150
 8468POPC   C1A65703  34.552  25.232   6.450
 8468POPC   D2A65704  34.578  25.313   6.750
 8468POPC   C3A65705  34.531  25.230   7.050
 8468POPC   C4A65706  34.617  25.285   7.350
 8468POPC   C1B65707  34.463  25.510   6.450
 8468POPC   C2B65708  34.409  25.500   6.750
 8468POPC   C3B65709  34.466  25.493   7.050
 8468POPC   C4B65710  34.389  25.472   7.350
 8469POPC   NC365711  31.433  33.843   5.550
 8469POPC   PO465712  31.431  33.769   5.850
 8469POPC   GL165713  31.465  33.781   6.150
 8469POPC   GL265714  31.508  33.675   6.150
 8469POPC   C1A65715  31.503  33.844   6.450
 8469POPC   D2A65716  31.462  33.764   6.750
 8469POPC   C3A65717  31.462  33.758   7.050
 8469POPC   C4A65718  31.500  33.781   7.350
 8469POPC   C1B65719  31.645  33.556   6.450
 8469POPC   C2B65720  31.577  33.541   6.750
 8469POPC   C3B65721  31.565  33.595   7.050
 8469POPC   C4B65722  31.593  33.599   7.350
 8470POPC   NC365723  14.418  12.895   5.550
 8470POPC   PO465724  14.392  12.809   5.850
 8470POPC   GL165725  14.415  12.864   6.150
 8470POPC   GL265726  14.388  12.970   6.150
 8470POPC   C1A65727  14.369  12.860   6.450
 8470POPC   D2A65728  14.362  12.819   6.750
 8470POPC   C3A65729  14.428  12.868   7.050
 8470POPC   C4A65730  14.361  12.866   7.350
 8470POPC   C1B65731  14.484  13.073   6.450
 8470POPC   C2B65732  14.433  13.047   6.750
 8470POPC   C3B65733  14.483  13.133   7.050
 8470POPC   C4B65734  14.443  13.065   7.350
 8471POPC   NC365735  26.029  40.053   5.550
 8471POPC   PO465736  26.013  40.056   5.850
 8471POPC   GL165737  26.043  39.998   6.150
 8471POPC   GL265738  26.210  40.040   6.150
 8471POPC   C1A65739  26.001  40.020   6.450
 8471POPC   D2A65740  26.015  39.993   6.750
 8471POPC   C3A65741  26.083  39.990   7.050
 8471POPC   C4A65742  26.086  40.023   7.350
 8471POPC   C1B65743  26.305  40.031   6.450
 8471POPC   C2B65744  26.269  40.051   6.750
 8471POPC   C3B65745  26.295  39.987   7.050
 8471POPC   C4B65746  26.242  40.006   7.350
 8472POPC   NC365747   8.999  29.175   5.550
 8472POPC   PO465748   8.969  29.178   5.850
 8472POPC   GL165749   8.956  29.174   6.150
 8472POPC   GL265750   8.828  29.079   6.150
 8472POPC   C1A65751   8.976  29.096   6.450
 8472POPC   D2A65752   9.017  29.121   6.750
 8472POPC   C3A65753   8.935  29.131   7.050
 8472POPC   C4A65754   8.950  29.150   7.350
 8472POPC   C1B65755   8.774  29.077   6.450
 8472POPC   C2B65756   8.692  29.073   6.750
 8472POPC   C3B65757   8.761  29.080   7.050
 8472POPC   C4B65758   8.682  29.070   7.350
 8473POPC   NC365759  10.565   3.513   5.550
 8473POPC   PO465760  10.543   3.541   5.850
 8473POPC   GL165761  10.544   3.570   6.150
 8473POPC   GL265762  10.363   3.489   6.150
 8473POPC   C1A65763  10.536   3.557   6.450
 8473POPC   D2A65764  10.526   3.532   6.750
 8473POPC   C3A65765  10.507   3.494   7.050
 8473POPC   C4A65766  10.571   3.591   7.350
 8473POPC   C1B65767  10.245   3.578   6.450
 8473POPC   C2B65768  10.316   3.549   6.750
 8473POPC   C3B65769  10.314   3.502   7.050
 8473POPC   C4B65770  10.314   3.501   7.350
 8474POPC   NC365771   3.516  13.582   5.550
 8474POPC   PO465772   3.544  13.660   5.850
 8474POPC   GL165773   3.571  13.651   6.150
 8474POPC   GL265774   3.452  13.592   6.150
 8474POPC   C1A65775   3.588  13.644   6.450
 8474POPC   D2A65776   3.492  13.587   6.750
 8474POPC   C3A65777   3.552  13.676   7.050
 8474POPC   C4A65778   3.583  13.592   7.350
 8474POPC   C1B65779   3.356  13.465   6.450
 8474POPC   C2B65780   3.342  13.443   6.750
 8474POPC   C3B65781   3.323  13.510   7.050
 8474POPC   C4B65782   3.357  13.460   7.350
 8475POPC   NC365783  12.845   8.234   5.550
 8475POPC   PO465784  12.836   8.208   5.850
 8475POPC   GL165785  12.834   8.216   6.150
 8475POPC   GL265786  12.836   8.288   6.150
 8475POPC   C1A65787  12.834   8.162   6.450
 8475POPC   D2A65788  12.894   8.185   6.750
 8475POPC   C3A65789  12.897   8.225   7.050
 8475POPC   C4A65790  12.830   8.156   7.350
 8475POPC   C1B65791  12.831   8.463   6.450
 8475POPC   C2B65792  12.843   8.458   6.750
 8475POPC   C3B65793  12.792   8.436   7.050
 8475POPC   C4B65794  12.773   8.436   7.350
 8476POPC   NC365795  43.136  27.549   5.550
 8476POPC   PO465796  43.134  27.577   5.850
 8476POPC   GL165797  43.068  27.580   6.150
 8476POPC   GL265798  43.249  27.568   6.150
 8476POPC   C1A65799  43.144  27.608   6.450
 8476POPC   D2A65800  43.095  27.642   6.750
 8476POPC   C3A65801  43.090  27.604   7.050
 8476POPC   C4A65802  43.137  27.575   7.350
 8476POPC   C1B65803  43.336  27.524   6.450
 8476POPC   C2B65804  43.354  27.493   6.750
 8476POPC   C3B65805  43.315  27.461   7.050
 8476POPC   C4B65806  43.348  27.512   7.350
 8477POPC   NC365807   9.001  19.081   5.550
 8477POPC   PO465808   8.953  19.080   5.850
 8477POPC   GL165809   8.989  19.021   6.150
 8477POPC   GL265810   8.892  19.166   6.150
 8477POPC   C1A65811   8.947  19.104   6.450
 8477POPC   D2A65812   8.986  19.062   6.750
 8477POPC   C3A65813   8.957  19.028   7.050
 8477POPC   C4A65814   8.930  19.010   7.350
 8477POPC   C1B65815   8.876  19.270   6.450
 8477POPC   C2B65816   8.864  19.265   6.750
 8477POPC   C3B65817   8.909  19.311   7.050
 8477POPC   C4B65818   8.857  19.327   7.350
 8478POPC   NC365819  27.550   5.884   5.550
 8478POPC   PO465820  27.588   5.861   5.850
 8478POPC   GL165821  27.587   5.882   6.150
 8478POPC   GL265822  27.609   5.706   6.150
 8478POPC   C1A65823  27.620   5.915   6.450
 8478POPC   D2A65824  27.593   5.903   6.750
 8478POPC   C3A65825  27.591   5.888   7.050
 8478POPC   C4A65826  27.584   5.845   7.350
 8478POPC   C1B65827  27.654   5.583   6.450
 8478POPC   C2B65828  27.652   5.624   6.750
 8478POPC   C3B65829  27.631   5.657   7.050
 8478POPC   C4B65830  27.612   5.573   7.350
 8479POPC   NC365831   3.521  20.656   5.550
 8479POPC   PO465832   3.496  20.620   5.850
 8479POPC   GL165833   3.523  20.655   6.150
 8479POPC   GL265834   3.499  20.503   6.150
 8479POPC   C1A65835   3.501  20.625   6.450
 8479POPC   D2A65836   3.535  20.562   6.750
 8479POPC   C3A65837   3.511  20.583   7.050
 8479POPC   C4A65838   3.556  20.595   7.350
 8479POPC   C1B65839   3.406  20.482   6.450
 8479POPC   C2B65840   3.353  20.449   6.750
 8479POPC   C3B65841   3.337  20.400   7.050
 8479POPC   C4B65842   3.329  20.417   7.350
 8480POPC   NC365843  12.067  31.451   5.550
 8480POPC   PO465844  12.090  31.451   5.850
 8480POPC   GL165845  12.106  31.460   6.150
 8480POPC   GL265846  12.136  31.343   6.150
 8480POPC   C1A65847  12.040  31.440   6.450
 8480POPC   D2A65848  12.090  31.501   6.750
 8480POPC   C3A65849  12.058  31.477   7.050
 8480POPC   C4A65850  12.089  31.477   7.350
 8480POPC   C1B65851  12.133  31.230   6.450
 8480POPC   C2B65852  12.088  31.181   6.750
 8480POPC   C3B65853  12.138  31.194   7.050
 8480POPC   C4B65854  12.105  31.262   7.350
 8481POPC   NC365855  29.143  12.811   5.550
 8481POPC   PO465856  29.161  12.865   5.850
 8481POPC   GL165857  29.174  12.814   6.150
 8481POPC   GL265858  28.986  12.876   6.150
 8481POPC   C1A65859  29.134  12.894   6.450
 8481POPC   D2A65860  29.111  12.875   6.750
 8481POPC   C3A65861  29.156  12.900   7.050
 8481POPC   C4A65862  29.180  12.838   7.350
 8481POPC   C1B65863  28.870  12.871   6.450
 8481POPC   C2B65864  28.934  12.856   6.750
 8481POPC   C3B65865  28.929  12.838   7.050
 8481POPC   C4B65866  28.930  12.835   7.350
 8482POPC   NC365867  28.333  41.516   5.550
 8482POPC   PO465868  28.321  41.595   5.850
 8482POPC   GL165869  28.381  41.546   6.150
 8482POPC   GL265870  28.266  41.432   6.150
 8482POPC   C1A65871  28.402  41.542   6.450
 8482POPC   D2A65872  28.334  41.528   6.750
 8482POPC   C3A65873  28.356  41.584   7.050
 8482POPC   C4A65874  28.361  41.514   7.350
 8482POPC   C1B65875  28.202  41.321   6.450
 8482POPC   C2B65876  28.262  41.297   6.750
 8482POPC   C3B65877  28.224  41.338   7.050
 8482POPC   C4B65878  28.221  41.380   7.350
 8483POPC   NC365879  16.706   5.918   5.550
 8483POPC   PO465880  16.697   5.898   5.850
 8483POPC   GL165881  16.778   5.889   6.150
 8483POPC   GL265882  16.780   5.990   6.150
 8483POPC   C1A65883  16.727   5.909   6.450
 8483POPC   D2A65884  16.710   5.904   6.750
 8483POPC   C3A65885  16.773   5.832   7.050
 8483POPC   C4A65886  16.709   5.836   7.350
 8483POPC   C1B65887  16.965   6.066   6.450
 8483POPC   C2B65888  16.875   6.046   6.750
 8483POPC   C3B65889  16.962   6.080   7.050
 8483POPC   C4B65890  16.898   6.025   7.350
 8484POPC   NC365891  11.337  43.131   5.550
 8484POPC   PO465892  11.329  43.134   5.850
 8484POPC   GL165893  11.315  43.080   6.150
 8484POPC   GL265894  11.336  43.005   6.150
 8484POPC   C1A65895  11.331  43.139   6.450
 8484POPC   D2A65896  11.310  43.097   6.750
 8484POPC   C3A65897  11.335  43.119   7.050
 8484POPC   C4A65898  11.343  43.121   7.350
 8484POPC   C1B65899  11.373  42.852   6.450
 8484POPC   C2B65900  11.405  42.854   6.750
 8484POPC   C3B65901  11.390  42.925   7.050
 8484POPC   C4B65902  11.456  42.904   7.350
 8485POPC   NC365903  34.601  19.099   5.550
 8485POPC   PO465904  34.622  19.021   5.850
 8485POPC   GL165905  34.528  19.088   6.150
 8485POPC   GL265906  34.670  19.145   6.150
 8485POPC   C1A65907  34.597  19.032   6.450
 8485POPC   D2A65908  34.577  19.107   6.750
 8485POPC   C3A65909  34.540  19.085   7.050
 8485POPC   C4A65910  34.550  19.043   7.350
 8485POPC   C1B65911  34.807  19.128   6.450
 8485POPC   C2B65912  34.774  19.126   6.750
 8485POPC   C3B65913  34.787  19.168   7.050
 8485POPC   C4B65914  34.810  19.103   7.350
 8486POPC   NC365915  26.030   0.412   5.550
 8486POPC   PO465916  26.073   0.424   5.850
 8486POPC   GL165917  26.074   0.456   6.150
 8486POPC   GL265918  26.114   0.562   6.150
 8486POPC   C1A65919  26.074   0.461   6.450
 8486POPC   D2A65920  26.068   0.459   6.750
 8486POPC   C3A65921  26.089   0.406   7.050
 8486POPC   C4A65922  26.065   0.423   7.350
 8486POPC   C1B65923  26.081   0.647   6.450
 8486POPC   C2B65924  26.122   0.646   6.750
 8486POPC   C3B65925  26.067   0.688   7.050
 8486POPC   C4B65926  26.131   0.694   7.350
 8487POPC   NC365927   0.475  36.919   5.550
 8487POPC   PO465928   0.463  36.893   5.850
 8487POPC   GL165929   0.483  36.888   6.150
 8487POPC   GL265930   0.467  37.019   6.150
 8487POPC   C1A65931   0.401  36.878   6.450
 8487POPC   D2A65932   0.392  36.873   6.750
 8487POPC   C3A65933   0.390  36.884   7.050
 8487POPC   C4A65934   0.422  36.917   7.350
 8487POPC   C1B65935   0.462  37.116   6.450
 8487POPC   C2B65936   0.417  37.119   6.750
 8487POPC   C3B65937   0.443  37.118   7.050
 8487POPC   C4B65938   0.419  37.148   7.350
 8488POPC   NC365939  38.407   9.008   5.550
 8488POPC   PO465940  38.441   9.003   5.850
 8488POPC   GL165941  38.435   8.945   6.150
 8488POPC   GL265942  38.371   8.942   6.150
 8488POPC   C1A65943  38.457   8.958   6.450
 8488POPC   D2A65944  38.409   8.956   6.750
 8488POPC   C3A65945  38.504   8.924   7.050
 8488POPC   C4A65946  38.434   8.990   7.350
 8488POPC   C1B65947  38.279   8.890   6.450
 8488POPC   C2B65948  38.217   8.893   6.750
 8488POPC   C3B65949  38.193   8.839   7.050
 8488POPC   C4B65950  38.228   8.860   7.350
 8489POPC   NC365951  12.102  43.112   5.550
 8489POPC   PO465952  12.041  43.117   5.850
 8489POPC   GL165953  12.058  43.113   6.150
 8489POPC   GL265954  12.063  43.223   6.150
 8489POPC   C1A65955  12.048  43.084   6.450
 8489POPC   D2A65956  12.073  43.136   6.750
 8489POPC   C3A65957  12.117  43.096   7.050
 8489POPC   C4A65958  12.026  43.147   7.350
 8489POPC   C1B65959  11.909  43.308   6.450
 8489POPC   C2B65960  11.954  43.364   6.750
 8489POPC   C3B65961  11.943  43.310   7.050
 8489POPC   C4B65962  11.921  43.313   7.350
 8490POPC   NC365963  22.917  20.566   5.550
 8490POPC   PO465964  22.899  20.575   5.850
 8490POPC   GL165965  22.899  20.577   6.150
 8490POPC   GL265966  23.044  20.621   6.150
 8490POPC   C1A65967  22.924  20.627   6.450
 8490POPC   D2A65968  22.924  20.624   6.750
 8490POPC   C3A65969  22.931  20.618   7.050
 8490POPC   C4A65970  22.970  20.633   7.350
 8490POPC   C1B65971  23.206  20.679   6.450
 8490POPC   C2B65972  23.215  20.669   6.750
 8490POPC   C3B65973  23.202  20.615   7.050
 8490POPC   C4B65974  23.151  20.670   7.350
 8491POPC   NC365975  43.892  29.179   5.550
 8491POPC   PO465976  43.877  29.113   5.850
 8491POPC   GL165977  43.882  29.164   6.150
 8491POPC   GL265978  43.771  29.124   6.150
 8491POPC   C1A65979  43.865  29.127   6.450
 8491POPC   D2A65980  43.838  29.097   6.750
 8491POPC   C3A65981  43.839  29.154   7.050
 8491POPC   C4A65982  43.889  29.097   7.350
 8491POPC   C1B65983  43.681  29.178   6.450
 8491POPC   C2B65984  43.606  29.124   6.750
 8491POPC   C3B65985  43.609  29.169   7.050
 8491POPC   C4B65986  43.634  29.124   7.350
 8492POPC   NC365987  29.183   6.671   5.550
 8492POPC   PO465988  29.099   6.658   5.850
 8492POPC   GL165989  29.163   6.677   6.150
 8492POPC   GL265990  29.232   6.727   6.150
 8492POPC   C1A65991  29.123   6.690   6.450
 8492POPC   D2A65992  29.110   6.636   6.750
 8492POPC   C3A65993  29.192   6.655   7.050
 8492POPC   C4A65994  29.140   6.602   7.350
 8492POPC   C1B65995  29.257   6.900   6.450
 8492POPC   C2B65996  29.194   6.906   6.750
 8492POPC   C3B65997  29.177   6.884   7.050
 8492POPC   C4B65998  29.206   6.884   7.350
 8493POPC   NC365999   6.637  27.638   5.550
 8493POPC   PO466000   6.681  27.575   5.850
 8493POPC   GL166001   6.611  27.601   6.150
 8493POPC   GL266002   6.499  27.526   6.150
 8493POPC   C1A66003   6.635  27.576   6.450
 8493POPC   D2A66004   6.627  27.614   6.750
 8493POPC   C3A66005   6.667  27.564   7.050
 8493POPC   C4A66006   6.606  27.543   7.350
 8493POPC   C1B66007   6.427  27.516   6.450
 8493POPC   C2B66008   6.373  27.569   6.750
 8493POPC   C3B66009   6.361  27.534   7.050
 8493POPC   C4B66010   6.415  27.569   7.350
 8494POPC   NC366011  31.469  15.922   5.550
 8494POPC   PO466012  31.507  15.951   5.850
 8494POPC   GL166013  31.496  15.957   6.150
 8494POPC   GL266014  31.586  16.049   6.150
 8494POPC   C1A66015  31.457  15.996   6.450
 8494POPC   D2A66016  31.441  15.984   6.750
 8494POPC   C3A66017  31.510  15.960   7.050
 8494POPC   C4A66018  31.516  15.933   7.350
 8494POPC   C1B66019  31.648  16.120   6.450
 8494POPC   C2B66020  31.654  16.097   6.750
 8494POPC   C3B66021  31.692  16.133   7.050
 8494POPC   C4B66022  31.629  16.109   7.350
 8495POPC   NC366023  26.078   6.629   5.550
 8495POPC   PO466024  26.003   6.603   5.850
 8495POPC   GL166025  26.074   6.686   6.150
 8495POPC   GL266026  26.122   6.586   6.150
 8495POPC   C1A66027  26.075   6.685   6.450
 8495POPC   D2A66028  25.996   6.628   6.750
 8495POPC   C3A66029  26.051   6.679   7.050
 8495POPC   C4A66030  26.030   6.689   7.350
 8495POPC   C1B66031  26.207   6.457   6.450
 8495POPC   C2B66032  26.246   6.452   6.750
 8495POPC   C3B66033  26.189   6.534   7.050
 8495POPC   C4B66034  26.210   6.499   7.350
 8496POPC   NC366035  11.278  36.133   5.550
 8496POPC   PO466036  11.343  36.133   5.850
 8496POPC   GL166037  11.348  36.107   6.150
 8496POPC   GL266038  11.403  36.243   6.150
 8496POPC   C1A66039  11.276  36.117   6.450
 8496POPC   D2A66040  11.300  36.095   6.750
 8496POPC   C3A66041  11.323  36.163   7.050
 8496POPC   C4A66042  11.278  36.120   7.350
 8496POPC   C1B66043  11.415  36.387   6.450
 8496POPC   C2B66044  11.454  36.313   6.750
 8496POPC   C3B66045  11.389  36.386   7.050
 8496POPC   C4B66046  11.461  36.325   7.350
 8497POPC   NC366047   1.254   5.069   5.550
 8497POPC   PO466048   1.217   5.096   5.850
 8497POPC   GL166049   1.171   5.126   6.150
 8497POPC   GL266050   1.155   5.019   6.150
 8497POPC   C1A66051   1.166   5.114   6.450
 8497POPC   D2A66052   1.217   5.133   6.750
 8497POPC   C3A66053   1.173   5.096   7.050
 8497POPC   C4A66054   1.169   5.078   7.350
 8497POPC   C1B66055   1.051   4.928   6.450
 8497POPC   C2B66056   1.025   4.867   6.750
 8497POPC   C3B66057   1.024   4.846   7.050
 8497POPC   C4B66058   1.060   4.928   7.350
 8498POPC   NC366059  22.212  36.119   5.550
 8498POPC   PO466060  22.186  36.139   5.850
 8498POPC   GL166061  22.176  36.119   6.150
 8498POPC   GL266062  22.239  36.105   6.150
 8498POPC   C1A66063  22.174  36.157   6.450
 8498POPC   D2A66064  22.197  36.088   6.750
 8498POPC   C3A66065  22.198  36.148   7.050
 8498POPC   C4A66066  22.198  36.084   7.350
 8498POPC   C1B66067  22.366  36.172   6.450
 8498POPC   C2B66068  22.417  36.096   6.750
 8498POPC   C3B66069  22.414  36.161   7.050
 8498POPC   C4B66070  22.378  36.195   7.350
 8499POPC   NC366071  13.653  18.255   5.550
 8499POPC   PO466072  13.584  18.276   5.850
 8499POPC   GL166073  13.638  18.304   6.150
 8499POPC   GL266074  13.716  18.370   6.150
 8499POPC   C1A66075  13.635  18.247   6.450
 8499POPC   D2A66076  13.607  18.320   6.750
 8499POPC   C3A66077  13.607  18.259   7.050
 8499POPC   C4A66078  13.628  18.297   7.350
 8499POPC   C1B66079  13.821  18.440   6.450
 8499POPC   C2B66080  13.762  18.442   6.750
 8499POPC   C3B66081  13.789  18.455   7.050
 8499POPC   C4B66082  13.740  18.473   7.350
 8500POPC   NC366083  34.582  31.515   5.550
 8500POPC   PO466084  34.574  31.450   5.850
 8500POPC   GL166085  34.563  31.483   6.150
 8500POPC   GL266086  34.670  31.528   6.150
 8500POPC   C1A66087  34.580  31.439   6.450
 8500POPC   D2A66088  34.612  31.471   6.750
 8500POPC   C3A66089  34.621  31.495   7.050
 8500POPC   C4A66090  34.617  31.513   7.350
 8500POPC   C1B66091  34.804  31.652   6.450
 8500POPC   C2B66092  34.756  31.654   6.750
 8500POPC   C3B66093  34.794  31.605   7.050
 8500POPC   C4B66094  34.752  31.602   7.350
 8501POPC   NC366095   5.881  44.679   5.550
 8501POPC   PO466096   5.872  44.700   5.850
 8501POPC   GL166097   5.896  44.670   6.150
 8501POPC   GL266098   5.957  44.625   6.150
 8501POPC   C1A66099   5.902  44.653   6.450
 8501POPC   D2A66100   5.910  44.642   6.750
 8501POPC   C3A66101   5.914  44.640   7.050
 8501POPC   C4A66102   5.857  44.646   7.350
 8501POPC   C1B66103   6.043  44.495   6.450
 8501POPC   C2B66104   6.017  44.478   6.750
 8501POPC   C3B66105   6.003  44.530   7.050
 8501POPC   C4B66106   6.025  44.529   7.350
 8502POPC   NC366107  25.249  12.090   5.550
 8502POPC   PO466108  25.218  12.029   5.850
 8502POPC   GL166109  25.249  12.123   6.150
 8502POPC   GL266110  25.169  11.961   6.150
 8502POPC   C1A66111  25.277  12.044   6.450
 8502POPC   D2A66112  25.286  12.088   6.750
 8502POPC   C3A66113  25.286  12.114   7.050
 8502POPC   C4A66114  25.312  12.058   7.350
 8502POPC   C1B66115  25.124  11.877   6.450
 8502POPC   C2B66116  25.055  11.868   6.750
 8502POPC   C3B66117  25.041  11.887   7.050
 8502POPC   C4B66118  25.071  11.947   7.350
 8503POPC   NC366119  26.859   4.300   5.550
 8503POPC   PO466120  26.772   4.329   5.850
 8503POPC   GL166121  26.806   4.294   6.150
 8503POPC   GL266122  26.726   4.231   6.150
 8503POPC   C1A66123  26.775   4.310   6.450
 8503POPC   D2A66124  26.825   4.281   6.750
 8503POPC   C3A66125  26.846   4.356   7.050
 8503POPC   C4A66126  26.786   4.360   7.350
 8503POPC   C1B66127  26.677   4.132   6.450
 8503POPC   C2B66128  26.622   4.143   6.750
 8503POPC   C3B66129  26.669   4.137   7.050
 8503POPC   C4B66130  26.705   4.088   7.350
 8504POPC   NC366131   6.695  15.202   5.550
 8504POPC   PO466132   6.605  15.212   5.850
 8504POPC   GL166133   6.680  15.192   6.150
 8504POPC   GL266134   6.627  15.302   6.150
 8504POPC   C1A66135   6.599  15.176   6.450
 8504POPC   D2A66136   6.631  15.193   6.750
 8504POPC   C3A66137   6.640  15.197   7.050
 8504POPC   C4A66138   6.637  15.196   7.350
 8504POPC   C1B66139   6.611  15.441   6.450
 8504POPC   C2B66140   6.591  15.403   6.750
 8504POPC   C3B66141   6.555  15.390   7.050
 8504POPC   C4B66142   6.591  15.409   7.350
 8505POPC   NC366143  30.663  44.629   5.550
 8505POPC   PO466144  30.675  44.644   5.850
 8505POPC   GL166145  30.737  44.644   6.150
 8505POPC   GL266146  30.647  44.519   6.150
 8505POPC   C1A66147  30.649  44.666   6.450
 8505POPC   D2A66148  30.732  44.707   6.750
 8505POPC   C3A66149  30.717  44.668   7.050
 8505POPC   C4A66150  30.722  44.626   7.350
 8505POPC   C1B66151  30.726  44.405   6.450
 8505POPC   C2B66152  30.729  44.380   6.750
 8505POPC   C3B66153  30.661  44.374   7.050
 8505POPC   C4B66154  30.680  44.409   7.350
 8506POPC   NC366155  22.134   0.388   5.550
 8506POPC   PO466156  22.138   0.436   5.850
 8506POPC   GL166157  22.135   0.473   6.150
 8506POPC   GL266158  22.132   0.554   6.150
 8506POPC   C1A66159  22.139   0.402   6.450
 8506POPC   D2A66160  22.205   0.392   6.750
 8506POPC   C3A66161  22.133   0.410   7.050
 8506POPC   C4A66162  22.208   0.447   7.350
 8506POPC   C1B66163  22.005   0.669   6.450
 8506POPC   C2B66164  22.074   0.682   6.750
 8506POPC   C3B66165  22.084   0.712   7.050
 8506POPC   C4B66166  22.026   0.617   7.350
 8507POPC   NC366167  12.059  15.225   5.550
 8507POPC   PO466168  12.118  15.130   5.850
 8507POPC   GL166169  12.078  15.158   6.150
 8507POPC   GL266170  12.116  15.308   6.150
 8507POPC   C1A66171  12.072  15.187   6.450
 8507POPC   D2A66172  12.110  15.147   6.750
 8507POPC   C3A66173  12.070  15.199   7.050
 8507POPC   C4A66174  12.053  15.156   7.350
 8507POPC   C1B66175  12.246  15.399   6.450
 8507POPC   C2B66176  12.204  15.392   6.750
 8507POPC   C3B66177  12.256  15.398   7.050
 8507POPC   C4B66178  12.204  15.339   7.350
 8508POPC   NC366179   6.613  13.614   5.550
 8508POPC   PO466180   6.609  13.604   5.850
 8508POPC   GL166181   6.605  13.624   6.150
 8508POPC   GL266182   6.796  13.592   6.150
 8508POPC   C1A66183   6.677  13.595   6.450
 8508POPC   D2A66184   6.624  13.609   6.750
 8508POPC   C3A66185   6.678  13.668   7.050
 8508POPC   C4A66186   6.689  13.591   7.350
 8508POPC   C1B66187   6.892  13.548   6.450
 8508POPC   C2B66188   6.867  13.618   6.750
 8508POPC   C3B66189   6.847  13.533   7.050
 8508POPC   C4B66190   6.916  13.589   7.350
 8509POPC   NC366191  36.093  36.126   5.550
 8509POPC   PO466192  36.106  36.143   5.850
 8509POPC   GL166193  36.122  36.140   6.150
 8509POPC   GL266194  36.184  36.221   6.150
 8509POPC   C1A66195  36.127  36.082   6.450
 8509POPC   D2A66196  36.078  36.166   6.750
 8509POPC   C3A66197  36.084  36.155   7.050
 8509POPC   C4A66198  36.172  36.081   7.350
 8509POPC   C1B66199  36.318  36.314   6.450
 8509POPC   C2B66200  36.330  36.289   6.750
 8509POPC   C3B66201  36.255  36.361   7.050
 8509POPC   C4B66202  36.326  36.305   7.350
 8510POPC   NC366203  35.394  24.504   5.550
 8510POPC   PO466204  35.349  24.442   5.850
 8510POPC   GL166205  35.305  24.510   6.150
 8510POPC   GL266206  35.423  24.366   6.150
 8510POPC   C1A66207  35.358  24.488   6.450
 8510POPC   D2A66208  35.304  24.493   6.750
 8510POPC   C3A66209  35.387  24.493   7.050
 8510POPC   C4A66210  35.352  24.494   7.350
 8510POPC   C1B66211  35.370  24.235   6.450
 8510POPC   C2B66212  35.410  24.297   6.750
 8510POPC   C3B66213  35.371  24.237   7.050
 8510POPC   C4B66214  35.415  24.222   7.350
 8511POPC   NC366215  25.305  36.948   5.550
 8511POPC   PO466216  25.228  36.933   5.850
 8511POPC   GL166217  25.233  36.934   6.150
 8511POPC   GL266218  25.163  36.867   6.150
 8511POPC   C1A66219  25.255  36.871   6.450
 8511POPC   D2A66220  25.247  36.916   6.750
 8511POPC   C3A66221  25.229  36.926   7.050
 8511POPC   C4A66222  25.253  36.935   7.350
 8511POPC   C1B66223  25.033  36.787   6.450
 8511POPC   C2B66224  24.994  36.803   6.750
 8511POPC   C3B66225  25.019  36.867   7.050
 8511POPC   C4B66226  25.045  36.845   7.350
 8512POPC   NC366227  14.374   7.413   5.550
 8512POPC   PO466228  14.444   7.458   5.850
 8512POPC   GL166229  14.441   7.465   6.150
 8512POPC   GL266230  14.318   7.529   6.150
 8512POPC   C1A66231  14.435   7.426   6.450
 8512POPC   D2A66232  14.400   7.451   6.750
 8512POPC   C3A66233  14.364   7.393   7.050
 8512POPC   C4A66234  14.444   7.420   7.350
 8512POPC   C1B66235  14.319   7.661   6.450
 8512POPC   C2B66236  14.366   7.683   6.750
 8512POPC   C3B66237  14.299   7.628   7.050
 8512POPC   C4B66238  14.303   7.688   7.350
 8513POPC   NC366239  16.704  43.868   5.550
 8513POPC   PO466240  16.727  43.916   5.850
 8513POPC   GL166241  16.765  43.856   6.150
 8513POPC   GL266242  16.652  43.816   6.150
 8513POPC   C1A66243  16.730  43.858   6.450
 8513POPC   D2A66244  16.729  43.882   6.750
 8513POPC   C3A66245  16.775  43.907   7.050
 8513POPC   C4A66246  16.694  43.868   7.350
 8513POPC   C1B66247  16.557  43.784   6.450
 8513POPC   C2B66248  16.531  43.755   6.750
 8513POPC   C3B66249  16.510  43.736   7.050
 8513POPC   C4B66250  16.491  43.697   7.350
 8514POPC   NC366251  26.002  40.751   5.550
 8514POPC   PO466252  26.091  40.791   5.850
 8514POPC   GL166253  26.038  40.759   6.150
 8514POPC   GL266254  25.897  40.725   6.150
 8514POPC   C1A66255  26.065  40.741   6.450
 8514POPC   D2A66256  26.023  40.789   6.750
 8514POPC   C3A66257  26.061  40.792   7.050
 8514POPC   C4A66258  25.995  40.782   7.350
 8514POPC   C1B66259  25.814  40.598   6.450
 8514POPC   C2B66260  25.850  40.661   6.750
 8514POPC   C3B66261  25.844  40.629   7.050
 8514POPC   C4B66262  25.841  40.615   7.350
 8515POPC   NC366263  27.584  43.932   5.550
 8515POPC   PO466264  27.628  43.861   5.850
 8515POPC   GL166265  27.638  43.860   6.150
 8515POPC   GL266266  27.471  43.885   6.150
 8515POPC   C1A66267  27.566  43.933   6.450
 8515POPC   D2A66268  27.605  43.878   6.750
 8515POPC   C3A66269  27.637  43.904   7.050
 8515POPC   C4A66270  27.610  43.927   7.350
 8515POPC   C1B66271  27.387  43.903   6.450
 8515POPC   C2B66272  27.300  43.936   6.750
 8515POPC   C3B66273  27.365  43.944   7.050
 8515POPC   C4B66274  27.346  43.932   7.350
 8516POPC   NC366275  25.243   3.501   5.550
 8516POPC   PO466276  25.260   3.531   5.850
 8516POPC   GL166277  25.270   3.550   6.150
 8516POPC   GL266278  25.266   3.692   6.150
 8516POPC   C1A66279  25.304   3.507   6.450
 8516POPC   D2A66280  25.309   3.566   6.750
 8516POPC   C3A66281  25.242   3.529   7.050
 8516POPC   C4A66282  25.307   3.523   7.350
 8516POPC   C1B66283  25.235   3.819   6.450
 8516POPC   C2B66284  25.185   3.826   6.750
 8516POPC   C3B66285  25.220   3.780   7.050
 8516POPC   C4B66286  25.204   3.734   7.350
 8517POPC   NC366287  32.249  34.546   5.550
 8517POPC   PO466288  32.266  34.579   5.850
 8517POPC   GL166289  32.268  34.555   6.150
 8517POPC   GL266290  32.154  34.503   6.150
 8517POPC   C1A66291  32.215  34.552   6.450
 8517POPC   D2A66292  32.291  34.588   6.750
 8517POPC   C3A66293  32.281  34.529   7.050
 8517POPC   C4A66294  32.249  34.537   7.350
 8517POPC   C1B66295  32.049  34.454   6.450
 8517POPC   C2B66296  32.010  34.417   6.750
 8517POPC   C3B66297  32.064  34.442   7.050
 8517POPC   C4B66298  32.036  34.421   7.350
 8518POPC   NC366299  38.484   2.008   5.550
 8518POPC   PO466300  38.491   2.032   5.850
 8518POPC   GL166301  38.453   2.016   6.150
 8518POPC   GL266302  38.365   1.936   6.150
 8518POPC   C1A66303  38.418   1.993   6.450
 8518POPC   D2A66304  38.469   1.950   6.750
 8518POPC   C3A66305  38.479   1.959   7.050
 8518POPC   C4A66306  38.459   1.993   7.350
 8518POPC   C1B66307  38.199   1.957   6.450
 8518POPC   C2B66308  38.217   1.909   6.750
 8518POPC   C3B66309  38.201   1.939   7.050
 8518POPC   C4B66310  38.178   1.943   7.350
 8519POPC   NC366311  19.053  22.199   5.550
 8519POPC   PO466312  19.089  22.191   5.850
 8519POPC   GL166313  19.083  22.113   6.150
 8519POPC   GL266314  19.005  22.307   6.150
 8519POPC   C1A66315  19.023  22.195   6.450
 8519POPC   D2A66316  19.095  22.205   6.750
 8519POPC   C3A66317  19.061  22.154   7.050
 8519POPC   C4A66318  19.023  22.195   7.350
 8519POPC   C1B66319  18.977  22.439   6.450
 8519POPC   C2B66320  18.993  22.346   6.750
 8519POPC   C3B66321  19.003  22.346   7.050
 8519POPC   C4B66322  18.925  22.414   7.350
 8520POPC   NC366323  28.391  29.968   5.550
 8520POPC   PO466324  28.336  29.940   5.850
 8520POPC   GL166325  28.395  29.918   6.150
 8520POPC   GL266326  28.281  29.882   6.150
 8520POPC   C1A66327  28.342  29.880   6.450
 8520POPC   D2A66328  28.417  29.887   6.750
 8520POPC   C3A66329  28.412  29.922   7.050
 8520POPC   C4A66330  28.331  29.947   7.350
 8520POPC   C1B66331  28.143  29.862   6.450
 8520POPC   C2B66332  28.080  29.950   6.750
 8520POPC   C3B66333  28.076  29.891   7.050
 8520POPC   C4B66334  28.142  29.920   7.350
 8521POPC   NC366335  44.639   1.961   5.550
 8521POPC   PO466336  44.690   1.981   5.850
 8521POPC   GL166337  44.673   2.021   6.150
 8521POPC   GL266338  44.733   1.941   6.150
 8521POPC   C1A66339  44.628   2.008   6.450
 8521POPC   D2A66340  44.687   1.954   6.750
 8521POPC   C3A66341  44.698   1.993   7.050
 8521POPC   C4A66342  44.712   1.977   7.350
 8521POPC   C1B66343  44.858   1.851   6.450
 8521POPC   C2B66344  44.884   1.798   6.750
 8521POPC   C3B66345  44.834   1.808   7.050
 8521POPC   C4B66346  44.912   1.870   7.350
 8522POPC   NC366347  36.855  12.078   5.550
 8522POPC   PO466348  36.918  12.033   5.850
 8522POPC   GL166349  36.856  12.100   6.150
 8522POPC   GL266350  37.015  12.100   6.150
 8522POPC   C1A66351  36.891  12.117   6.450
 8522POPC   D2A66352  36.905  12.114   6.750
 8522POPC   C3A66353  36.862  12.052   7.050
 8522POPC   C4A66354  36.885  12.061   7.350
 8522POPC   C1B66355  37.194  12.126   6.450
 8522POPC   C2B66356  37.150  12.123   6.750
 8522POPC   C3B66357  37.149  12.178   7.050
 8522POPC   C4B66358  37.186  12.133   7.350
 8523POPC   NC366359  22.916  11.344   5.550
 8523POPC   PO466360  22.985  11.329   5.850
 8523POPC   GL166361  22.929  11.335   6.150
 8523POPC   GL266362  22.922  11.225   6.150
 8523POPC   C1A66363  22.973  11.310   6.450
 8523POPC   D2A66364  22.986  11.316   6.750
 8523POPC   C3A66365  22.947  11.254   7.050
 8523POPC   C4A66366  22.963  11.308   7.350
 8523POPC   C1B66367  23.048  11.027   6.450
 8523POPC   C2B66368  23.032  11.023   6.750
 8523POPC   C3B66369  23.028  11.034   7.050
 8523POPC   C4B66370  23.033  11.088   7.350
 8524POPC   NC366371  11.291  22.138   5.550
 8524POPC   PO466372  11.311  22.163   5.850
 8524POPC   GL166373  11.282  22.141   6.150
 8524POPC   GL266374  11.293  22.048   6.150
 8524POPC   C1A66375  11.331  22.142   6.450
 8524POPC   D2A66376  11.267  22.186   6.750
 8524POPC   C3A66377  11.332  22.165   7.050
 8524POPC   C4A66378  11.278  22.186   7.350
 8524POPC   C1B66379  11.339  21.925   6.450
 8524POPC   C2B66380  11.351  21.923   6.750
 8524POPC   C3B66381  11.310  21.946   7.050
 8524POPC   C4B66382  11.300  21.928   7.350
 8525POPC   NC366383  40.769  20.632   5.550
 8525POPC   PO466384  40.779  20.566   5.850
 8525POPC   GL166385  40.763  20.592   6.150
 8525POPC   GL266386  40.650  20.510   6.150
 8525POPC   C1A66387  40.749  20.595   6.450
 8525POPC   D2A66388  40.774  20.638   6.750
 8525POPC   C3A66389  40.756  20.596   7.050
 8525POPC   C4A66390  40.764  20.602   7.350
 8525POPC   C1B66391  40.588  20.530   6.450
 8525POPC   C2B66392  40.571  20.458   6.750
 8525POPC   C3B66393  40.595  20.453   7.050
 8525POPC   C4B66394  40.525  20.542   7.350
 8526POPC   NC366395   7.431  25.994   5.550
 8526POPC   PO466396   7.445  26.052   5.850
 8526POPC   GL166397   7.408  26.085   6.150
 8526POPC   GL266398   7.545  26.072   6.150
 8526POPC   C1A66399   7.404  26.083   6.450
 8526POPC   D2A66400   7.434  26.031   6.750
 8526POPC   C3A66401   7.442  26.065   7.050
 8526POPC   C4A66402   7.413  26.067   7.350
 8526POPC   C1B66403   7.614  26.161   6.450
 8526POPC   C2B66404   7.683  26.206   6.750
 8526POPC   C3B66405   7.632  26.151   7.050
 8526POPC   C4B66406   7.664  26.206   7.350
 8527POPC   NC366407  17.541   1.245   5.550
 8527POPC   PO466408  17.486   1.223   5.850
 8527POPC   GL166409  17.512   1.216   6.150
 8527POPC   GL266410  17.524   1.334   6.150
 8527POPC   C1A66411  17.546   1.177   6.450
 8527POPC   D2A66412  17.533   1.201   6.750
 8527POPC   C3A66413  17.552   1.253   7.050
 8527POPC   C4A66414  17.518   1.201   7.350
 8527POPC   C1B66415  17.512   1.420   6.450
 8527POPC   C2B66416  17.521   1.442   6.750
 8527POPC   C3B66417  17.462   1.487   7.050
 8527POPC   C4B66418  17.517   1.455   7.350
 8528POPC   NC366419  33.789   4.311   5.550
 8528POPC   PO466420  33.755   4.340   5.850
 8528POPC   GL166421  33.809   4.271   6.150
 8528POPC   GL266422  33.833   4.444   6.150
 8528POPC   C1A66423  33.830   4.316   6.450
 8528POPC   D2A66424  33.811   4.358   6.750
 8528POPC   C3A66425  33.769   4.268   7.050
 8528POPC   C4A66426  33.807   4.275   7.350
 8528POPC   C1B66427  33.845   4.556   6.450
 8528POPC   C2B66428  33.802   4.595   6.750
 8528POPC   C3B66429  33.877   4.527   7.050
 8528POPC   C4B66430  33.863   4.559   7.350
 8529POPC   NC366431   7.408  19.799   5.550
 8529POPC   PO466432   7.421  19.823   5.850
 8529POPC   GL166433   7.391  19.843   6.150
 8529POPC   GL266434   7.403  19.967   6.150
 8529POPC   C1A66435   7.395  19.791   6.450
 8529POPC   D2A66436   7.422  19.868   6.750
 8529POPC   C3A66437   7.411  19.844   7.050
 8529POPC   C4A66438   7.407  19.873   7.350
 8529POPC   C1B66439   7.345  20.024   6.450
 8529POPC   C2B66440   7.343  20.037   6.750
 8529POPC   C3B66441   7.347  20.035   7.050
 8529POPC   C4B66442   7.331  20.115   7.350
 8530POPC   NC366443  22.963   2.017   5.550
 8530POPC   PO466444  22.964   2.001   5.850
 8530POPC   GL166445  22.986   2.027   6.150
 8530POPC   GL266446  22.785   1.964   6.150
 8530POPC   C1A66447  22.978   2.035   6.450
 8530POPC   D2A66448  22.959   2.031   6.750
 8530POPC   C3A66449  22.908   2.020   7.050
 8530POPC   C4A66450  22.927   2.014   7.350
 8530POPC   C1B66451  22.672   1.948   6.450
 8530POPC   C2B66452  22.675   1.920   6.750
 8530POPC   C3B66453  22.688   1.934   7.050
 8530POPC   C4B66454  22.669   1.932   7.350
 8531POPC   NC366455   7.419  39.231   5.550
 8531POPC   PO466456   7.379  39.273   5.850
 8531POPC   GL166457   7.434  39.240   6.150
 8531POPC   GL266458   7.515  39.133   6.150
 8531POPC   C1A66459   7.399  39.242   6.450
 8531POPC   D2A66460   7.389  39.209   6.750
 8531POPC   C3A66461   7.468  39.214   7.050
 8531POPC   C4A66462   7.396  39.281   7.350
 8531POPC   C1B66463   7.621  39.124   6.450
 8531POPC   C2B66464   7.651  39.054   6.750
 8531POPC   C3B66465   7.593  39.113   7.050
 8531POPC   C4B66466   7.611  39.136   7.350
 8532POPC   NC366467   1.202  42.354   5.550
 8532POPC   PO466468   1.167  42.289   5.850
 8532POPC   GL166469   1.229  42.372   6.150
 8532POPC   GL266470   1.143  42.421   6.150
 8532POPC   C1A66471   1.191  42.334   6.450
 8532POPC   D2A66472   1.255  42.329   6.750
 8532POPC   C3A66473   1.167  42.303   7.050
 8532POPC   C4A66474   1.203  42.322   7.350
 8532POPC   C1B66475   1.128  42.608   6.450
 8532POPC   C2B66476   1.119  42.583   6.750
 8532POPC   C3B66477   1.081  42.564   7.050
 8532POPC   C4B66478   1.072  42.605   7.350
 8533POPC   NC366479   3.564  36.869   5.550
 8533POPC   PO466480   3.502  36.866   5.850
 8533POPC   GL166481   3.502  36.861   6.150
 8533POPC   GL266482   3.491  36.754   6.150
 8533POPC   C1A66483   3.492  36.919   6.450
 8533POPC   D2A66484   3.541  36.876   6.750
 8533POPC   C3A66485   3.580  36.864   7.050
 8533POPC   C4A66486   3.585  36.915   7.350
 8533POPC   C1B66487   3.356  36.672   6.450
 8533POPC   C2B66488   3.397  36.723   6.750
 8533POPC   C3B66489   3.382  36.679   7.050
 8533POPC   C4B66490   3.415  36.735   7.350
 8534POPC   NC366491  25.287   1.951   5.550
 8534POPC   PO466492  25.306   1.961   5.850
 8534POPC   GL166493  25.279   1.979   6.150
 8534POPC   GL266494  25.332   1.833   6.150
 8534POPC   C1A66495  25.282   2.007   6.450
 8534POPC   D2A66496  25.272   2.029   6.750
 8534POPC   C3A66497  25.219   1.997   7.050
 8534POPC   C4A66498  25.247   2.000   7.350
 8534POPC   C1B66499  25.338   1.791   6.450
 8534POPC   C2B66500  25.423   1.794   6.750
 8534POPC   C3B66501  25.401   1.746   7.050
 8534POPC   C4B66502  25.346   1.720   7.350
 8535POPC   NC366503  17.501   0.395   5.550
 8535POPC   PO466504  17.552   0.460   5.850
 8535POPC   GL166505  17.513   0.484   6.150
 8535POPC   GL266506  17.478   0.355   6.150
 8535POPC   C1A66507  17.554   0.441   6.450
 8535POPC   D2A66508  17.502   0.458   6.750
 8535POPC   C3A66509  17.480   0.460   7.050
 8535POPC   C4A66510  17.532   0.425   7.350
 8535POPC   C1B66511  17.361   0.218   6.450
 8535POPC   C2B66512  17.420   0.184   6.750
 8535POPC   C3B66513  17.400   0.183   7.050
 8535POPC   C4B66514  17.432   0.214   7.350
 8536POPC   NC366515  38.460  18.316   5.550
 8536POPC   PO466516  38.426  18.239   5.850
 8536POPC   GL166517  38.417  18.317   6.150
 8536POPC   GL266518  38.367  18.355   6.150
 8536POPC   C1A66519  38.491  18.283   6.450
 8536POPC   D2A66520  38.457  18.250   6.750
 8536POPC   C3A66521  38.495  18.292   7.050
 8536POPC   C4A66522  38.436  18.289   7.350
 8536POPC   C1B66523  38.293  18.483   6.450
 8536POPC   C2B66524  38.252  18.471   6.750
 8536POPC   C3B66525  38.287  18.509   7.050
 8536POPC   C4B66526  38.321  18.482   7.350
 8537POPC   NC366527  36.110  33.019   5.550
 8537POPC   PO466528  36.162  32.997   5.850
 8537POPC   GL166529  36.147  33.005   6.150
 8537POPC   GL266530  36.280  33.007   6.150
 8537POPC   C1A66531  36.164  33.072   6.450
 8537POPC   D2A66532  36.115  33.070   6.750
 8537POPC   C3A66533  36.171  33.011   7.050
 8537POPC   C4A66534  36.109  32.985   7.350
 8537POPC   C1B66535  36.362  33.090   6.450
 8537POPC   C2B66536  36.322  33.079   6.750
 8537POPC   C3B66537  36.393  33.053   7.050
 8537POPC   C4B66538  36.342  33.038   7.350
 8538POPC   NC366539  41.563   5.867   5.550
 8538POPC   PO466540  41.586   5.893   5.850
 8538POPC   GL166541  41.590   5.843   6.150
 8538POPC   GL266542  41.483   5.775   6.150
 8538POPC   C1A66543  41.517   5.885   6.450
 8538POPC   D2A66544  41.591   5.844   6.750
 8538POPC   C3A66545  41.545   5.862   7.050
 8538POPC   C4A66546  41.510   5.853   7.350
 8538POPC   C1B66547  41.535   5.602   6.450
 8538POPC   C2B66548  41.496   5.596   6.750
 8538POPC   C3B66549  41.456   5.678   7.050
 8538POPC   C4B66550  41.531   5.587   7.350
 8539POPC   NC366551  29.119  10.515   5.550
 8539POPC   PO466552  29.166  10.522   5.850
 8539POPC   GL166553  29.128  10.558   6.150
 8539POPC   GL266554  29.229  10.453   6.150
 8539POPC   C1A66555  29.185  10.543   6.450
 8539POPC   D2A66556  29.158  10.529   6.750
 8539POPC   C3A66557  29.128  10.528   7.050
 8539POPC   C4A66558  29.121  10.565   7.350
 8539POPC   C1B66559  29.414  10.419   6.450
 8539POPC   C2B66560  29.348  10.478   6.750
 8539POPC   C3B66561  29.415  10.448   7.050
 8539POPC   C4B66562  29.422  10.411   7.350
 8540POPC   NC366563  19.880  39.186   5.550
 8540POPC   PO466564  19.814  39.278   5.850
 8540POPC   GL166565  19.834  39.206   6.150
 8540POPC   GL266566  19.825  39.080   6.150
 8540POPC   C1A66567  19.840  39.220   6.450
 8540POPC   D2A66568  19.834  39.258   6.750
 8540POPC   C3A66569  19.813  39.279   7.050
 8540POPC   C4A66570  19.811  39.184   7.350
 8540POPC   C1B66571  19.792  39.020   6.450
 8540POPC   C2B66572  19.822  38.988   6.750
 8540POPC   C3B66573  19.791  39.004   7.050
 8540POPC   C4B66574  19.772  39.013   7.350
 8541POPC   NC366575  43.065   8.991   5.550
 8541POPC   PO466576  43.129   8.923   5.850
 8541POPC   GL166577  43.152   9.016   6.150
 8541POPC   GL266578  43.260   8.892   6.150
 8541POPC   C1A66579  43.067   9.000   6.450
 8541POPC   D2A66580  43.143   9.017   6.750
 8541POPC   C3A66581  43.130   8.976   7.050
 8541POPC   C4A66582  43.113   8.967   7.350
 8541POPC   C1B66583  43.303   8.895   6.450
 8541POPC   C2B66584  43.391   8.896   6.750
 8541POPC   C3B66585  43.365   8.938   7.050
 8541POPC   C4B66586  43.388   8.901   7.350
 8542POPC   NC366587  26.007  39.237   5.550
 8542POPC   PO466588  26.069  39.266   5.850
 8542POPC   GL166589  26.034  39.262   6.150
 8542POPC   GL266590  26.044  39.374   6.150
 8542POPC   C1A66591  25.995  39.195   6.450
 8542POPC   D2A66592  26.002  39.196   6.750
 8542POPC   C3A66593  26.027  39.265   7.050
 8542POPC   C4A66594  26.047  39.243   7.350
 8542POPC   C1B66595  25.954  39.446   6.450
 8542POPC   C2B66596  25.978  39.459   6.750
 8542POPC   C3B66597  25.955  39.440   7.050
 8542POPC   C4B66598  25.963  39.451   7.350
 8543POPC   NC366599  43.072   6.622   5.550
 8543POPC   PO466600  43.158   6.631   5.850
 8543POPC   GL166601  43.107   6.637   6.150
 8543POPC   GL266602  43.068   6.537   6.150
 8543POPC   C1A66603  43.073   6.691   6.450
 8543POPC   D2A66604  43.068   6.598   6.750
 8543POPC   C3A66605  43.123   6.645   7.050
 8543POPC   C4A66606  43.111   6.618   7.350
 8543POPC   C1B66607  42.939   6.463   6.450
 8543POPC   C2B66608  42.973   6.432   6.750
 8543POPC   C3B66609  43.008   6.459   7.050
 8543POPC   C4B66610  42.968   6.414   7.350
 8544POPC   NC366611  36.161   9.712   5.550
 8544POPC   PO466612  36.128   9.773   5.850
 8544POPC   GL166613  36.108   9.704   6.150
 8544POPC   GL266614  36.082   9.821   6.150
 8544POPC   C1A66615  36.127   9.701   6.450
 8544POPC   D2A66616  36.112   9.725   6.750
 8544POPC   C3A66617  36.129   9.779   7.050
 8544POPC   C4A66618  36.102   9.713   7.350
 8544POPC   C1B66619  35.961   9.930   6.450
 8544POPC   C2B66620  35.931   9.964   6.750
 8544POPC   C3B66621  36.013   9.908   7.050
 8544POPC   C4B66622  35.971   9.969   7.350
 8545POPC   NC366623   5.135  18.281   5.550
 8545POPC   PO466624   5.081  18.264   5.850
 8545POPC   GL166625   5.134  18.326   6.150
 8545POPC   GL266626   5.132  18.143   6.150
 8545POPC   C1A66627   5.093  18.247   6.450
 8545POPC   D2A66628   5.088  18.276   6.750
 8545POPC   C3A66629   5.097  18.322   7.050
 8545POPC   C4A66630   5.067  18.264   7.350
 8545POPC   C1B66631   5.101  18.015   6.450
 8545POPC   C2B66632   5.039  18.008   6.750
 8545POPC   C3B66633   5.088  18.021   7.050
 8545POPC   C4B66634   5.082  17.996   7.350
 8546POPC   NC366635  25.255  12.828   5.550
 8546POPC   PO466636  25.282  12.847   5.850
 8546POPC   GL166637  25.227  12.826   6.150
 8546POPC   GL266638  25.417  12.919   6.150
 8546POPC   C1A66639  25.303  12.893   6.450
 8546POPC   D2A66640  25.220  12.819   6.750
 8546POPC   C3A66641  25.276  12.852   7.050
 8546POPC   C4A66642  25.236  12.882   7.350
 8546POPC   C1B66643  25.454  12.944   6.450
 8546POPC   C2B66644  25.537  12.974   6.750
 8546POPC   C3B66645  25.541  12.961   7.050
 8546POPC   C4B66646  25.501  12.970   7.350
 8547POPC   NC366647  36.156  16.695   5.550
 8547POPC   PO466648  36.109  16.700   5.850
 8547POPC   GL166649  36.083  16.730   6.150
 8547POPC   GL266650  36.084  16.899   6.150
 8547POPC   C1A66651  36.097  16.702   6.450
 8547POPC   D2A66652  36.093  16.778   6.750
 8547POPC   C3A66653  36.160  16.740   7.050
 8547POPC   C4A66654  36.145  16.750   7.350
 8547POPC   C1B66655  36.089  17.007   6.450
 8547POPC   C2B66656  36.091  16.992   6.750
 8547POPC   C3B66657  36.089  16.955   7.050
 8547POPC   C4B66658  36.084  17.010   7.350
 8548POPC   NC366659  18.238  41.565   5.550
 8548POPC   PO466660  18.315  41.565   5.850
 8548POPC   GL166661  18.260  41.511   6.150
 8548POPC   GL266662  18.338  41.436   6.150
 8548POPC   C1A66663  18.306  41.567   6.450
 8548POPC   D2A66664  18.260  41.570   6.750
 8548POPC   C3A66665  18.270  41.559   7.050
 8548POPC   C4A66666  18.325  41.553   7.350
 8548POPC   C1B66667  18.358  41.295   6.450
 8548POPC   C2B66668  18.330  41.283   6.750
 8548POPC   C3B66669  18.378  41.356   7.050
 8548POPC   C4B66670  18.413  41.297   7.350
 8549POPC   NC366671  32.202   0.393   5.550
 8549POPC   PO466672  32.215   0.450   5.850
 8549POPC   GL166673  32.274   0.478   6.150
 8549POPC   GL266674  32.254   0.537   6.150
 8549POPC   C1A66675  32.256   0.433   6.450
 8549POPC   D2A66676  32.207   0.447   6.750
 8549POPC   C3A66677  32.210   0.453   7.050
 8549POPC   C4A66678  32.205   0.409   7.350
 8549POPC   C1B66679  32.146   0.696   6.450
 8549POPC   C2B66680  32.147   0.702   6.750
 8549POPC   C3B66681  32.185   0.693   7.050
 8549POPC   C4B66682  32.193   0.663   7.350
 8550POPC   NC366683   1.171  26.821   5.550
 8550POPC   PO466684   1.168  26.771   5.850
 8550POPC   GL166685   1.216  26.770   6.150
 8550POPC   GL266686   1.381  26.827   6.150
 8550POPC   C1A66687   1.263  26.864   6.450
 8550POPC   D2A66688   1.182  26.792   6.750
 8550POPC   C3A66689   1.251  26.770   7.050
 8550POPC   C4A66690   1.254  26.838   7.350
 8550POPC   C1B66691   1.463  26.826   6.450
 8550POPC   C2B66692   1.498  26.763   6.750
 8550POPC   C3B66693   1.479  26.781   7.050
 8550POPC   C4B66694   1.502  26.804   7.350
 8551POPC   NC366695  38.426  44.642   5.550
 8551POPC   PO466696  38.421  44.639   5.850
 8551POPC   GL166697  38.418  44.690   6.150
 8551POPC   GL266698  38.559  44.629   6.150
 8551POPC   C1A66699  38.433  44.616   6.450
 8551POPC   D2A66700  38.504  44.658   6.750
 8551POPC   C3A66701  38.463  44.643   7.050
 8551POPC   C4A66702  38.465  44.692   7.350
 8551POPC   C1B66703  38.641  44.481   6.450
 8551POPC   C2B66704  38.701  44.479   6.750
 8551POPC   C3B66705  38.662  44.549   7.050
 8551POPC   C4B66706  38.681  44.544   7.350
 8552POPC   NC366707  24.466  37.729   5.550
 8552POPC   PO466708  24.460  37.667   5.850
 8552POPC   GL166709  24.538  37.705   6.150
 8552POPC   GL266710  24.532  37.825   6.150
 8552POPC   C1A66711  24.488  37.704   6.450
 8552POPC   D2A66712  24.442  37.692   6.750
 8552POPC   C3A66713  24.533  37.658   7.050
 8552POPC   C4A66714  24.505  37.700   7.350
 8552POPC   C1B66715  24.493  37.898   6.450
 8552POPC   C2B66716  24.580  37.918   6.750
 8552POPC   C3B66717  24.529  37.911   7.050
 8552POPC   C4B66718  24.515  37.941   7.350
 8553POPC   NC366719  29.893  12.823   5.550
 8553POPC   PO466720  29.940  12.810   5.850
 8553POPC   GL166721  29.965  12.840   6.150
 8553POPC   GL266722  29.769  12.754   6.150
 8553POPC   C1A66723  29.965  12.832   6.450
 8553POPC   D2A66724  29.916  12.891   6.750
 8553POPC   C3A66725  29.963  12.895   7.050
 8553POPC   C4A66726  29.942  12.862   7.350
 8553POPC   C1B66727  29.758  12.671   6.450
 8553POPC   C2B66728  29.751  12.730   6.750
 8553POPC   C3B66729  29.758  12.689   7.050
 8553POPC   C4B66730  29.738  12.687   7.350
 8554POPC   NC366731  43.846   0.405   5.550
 8554POPC   PO466732  43.845   0.488   5.850
 8554POPC   GL166733  43.930   0.439   6.150
 8554POPC   GL266734  43.919   0.297   6.150
 8554POPC   C1A66735  43.880   0.416   6.450
 8554POPC   D2A66736  43.865   0.454   6.750
 8554POPC   C3A66737  43.847   0.476   7.050
 8554POPC   C4A66738  43.866   0.461   7.350
 8554POPC   C1B66739  43.838   0.159   6.450
 8554POPC   C2B66740  43.902   0.202   6.750
 8554POPC   C3B66741  43.829   0.148   7.050
 8554POPC   C4B66742  43.914   0.171   7.350
 8555POPC   NC366743  38.474  29.146   5.550
 8555POPC   PO466744  38.481  29.124   5.850
 8555POPC   GL166745  38.412  29.185   6.150
 8555POPC   GL266746  38.449  29.231   6.150
 8555POPC   C1A66747  38.425  29.167   6.450
 8555POPC   D2A66748  38.429  29.126   6.750
 8555POPC   C3A66749  38.439  29.157   7.050
 8555POPC   C4A66750  38.498  29.183   7.350
 8555POPC   C1B66751  38.541  29.437   6.450
 8555POPC   C2B66752  38.533  29.432   6.750
 8555POPC   C3B66753  38.488  29.365   7.050
 8555POPC   C4B66754  38.507  29.346   7.350
 8556POPC   NC366755  32.298  19.853   5.550
 8556POPC   PO466756  32.244  19.812   5.850
 8556POPC   GL166757  32.253  19.789   6.150
 8556POPC   GL266758  32.255  19.953   6.150
 8556POPC   C1A66759  32.231  19.873   6.450
 8556POPC   D2A66760  32.222  19.809   6.750
 8556POPC   C3A66761  32.226  19.856   7.050
 8556POPC   C4A66762  32.282  19.850   7.350
 8556POPC   C1B66763  32.312  20.104   6.450
 8556POPC   C2B66764  32.342  20.039   6.750
 8556POPC   C3B66765  32.338  20.064   7.050
 8556POPC   C4B66766  32.322  20.057   7.350
 8557POPC   NC366767  23.745  29.891   5.550
 8557POPC   PO466768  23.670  29.890   5.850
 8557POPC   GL166769  23.681  29.939   6.150
 8557POPC   GL266770  23.645  29.751   6.150
 8557POPC   C1A66771  23.713  29.920   6.450
 8557POPC   D2A66772  23.739  29.935   6.750
 8557POPC   C3A66773  23.716  29.892   7.050
 8557POPC   C4A66774  23.717  29.904   7.350
 8557POPC   C1B66775  23.692  29.680   6.450
 8557POPC   C2B66776  23.679  29.719   6.750
 8557POPC   C3B66777  23.702  29.627   7.050
 8557POPC   C4B66778  23.646  29.709   7.350
 8558POPC   NC366779   8.976   1.169   5.550
 8558POPC   PO466780   8.973   1.182   5.850
 8558POPC   GL166781   8.950   1.235   6.150
 8558POPC   GL266782   8.824   1.217   6.150
 8558POPC   C1A66783   8.932   1.205   6.450
 8558POPC   D2A66784   8.968   1.215   6.750
 8558POPC   C3A66785   8.995   1.211   7.050
 8558POPC   C4A66786   8.936   1.225   7.350
 8558POPC   C1B66787   8.742   1.345   6.450
 8558POPC   C2B66788   8.769   1.315   6.750
 8558POPC   C3B66789   8.742   1.274   7.050
 8558POPC   C4B66790   8.705   1.355   7.350
 8559POPC   NC366791  29.909   5.103   5.550
 8559POPC   PO466792  29.947   5.089   5.850
 8559POPC   GL166793  29.898   5.121   6.150
 8559POPC   GL266794  29.964   5.253   6.150
 8559POPC   C1A66795  29.908   5.140   6.450
 8559POPC   D2A66796  29.960   5.137   6.750
 8559POPC   C3A66797  29.910   5.136   7.050
 8559POPC   C4A66798  29.917   5.100   7.350
 8559POPC   C1B66799  29.986   5.341   6.450
 8559POPC   C2B66800  30.010   5.290   6.750
 8559POPC   C3B66801  29.991   5.369   7.050
 8559POPC   C4B66802  30.008   5.323   7.350
 8560POPC   NC366803   8.172  18.270   5.550
 8560POPC   PO466804   8.201  18.282   5.850
 8560POPC   GL166805   8.193  18.315   6.150
 8560POPC   GL266806   8.198  18.389   6.150
 8560POPC   C1A66807   8.180  18.246   6.450
 8560POPC   D2A66808   8.203  18.248   6.750
 8560POPC   C3A66809   8.155  18.265   7.050
 8560POPC   C4A66810   8.221  18.317   7.350
 8560POPC   C1B66811   8.311  18.552   6.450
 8560POPC   C2B66812   8.281  18.555   6.750
 8560POPC   C3B66813   8.254  18.489   7.050
 8560POPC   C4B66814   8.319  18.562   7.350
 8561POPC   NC366815  36.145  36.937   5.550
 8561POPC   PO466816  36.174  36.951   5.850
 8561POPC   GL166817  36.149  36.939   6.150
 8561POPC   GL266818  36.254  36.794   6.150
 8561POPC   C1A66819  36.117  36.889   6.450
 8561POPC   D2A66820  36.126  36.856   6.750
 8561POPC   C3A66821  36.177  36.854   7.050
 8561POPC   C4A66822  36.131  36.913   7.350
 8561POPC   C1B66823  36.285  36.683   6.450
 8561POPC   C2B66824  36.349  36.699   6.750
 8561POPC   C3B66825  36.300  36.707   7.050
 8561POPC   C4B66826  36.344  36.781   7.350
 8562POPC   NC366827   4.337  39.967   5.550
 8562POPC   PO466828   4.332  39.972   5.850
 8562POPC   GL166829   4.349  40.009   6.150
 8562POPC   GL266830   4.448  39.931   6.150
 8562POPC   C1A66831   4.367  39.973   6.450
 8562POPC   D2A66832   4.366  40.022   6.750
 8562POPC   C3A66833   4.315  39.991   7.050
 8562POPC   C4A66834   4.328  40.021   7.350
 8562POPC   C1B66835   4.543  39.944   6.450
 8562POPC   C2B66836   4.501  39.860   6.750
 8562POPC   C3B66837   4.545  39.883   7.050
 8562POPC   C4B66838   4.556  39.896   7.350
 8563POPC   NC366839   8.225   0.461   5.550
 8563POPC   PO466840   8.225   0.427   5.850
 8563POPC   GL166841   8.228   0.457   6.150
 8563POPC   GL266842   8.178   0.500   6.150
 8563POPC   C1A66843   8.162   0.396   6.450
 8563POPC   D2A66844   8.197   0.421   6.750
 8563POPC   C3A66845   8.167   0.414   7.050
 8563POPC   C4A66846   8.238   0.417   7.350
 8563POPC   C1B66847   8.023   0.624   6.450
 8563POPC   C2B66848   8.101   0.616   6.750
 8563POPC   C3B66849   8.114   0.603   7.050
 8563POPC   C4B66850   8.102   0.663   7.350
 8564POPC   NC366851  12.875  19.856   5.550
 8564POPC   PO466852  12.865  19.883   5.850
 8564POPC   GL166853  12.843  19.786   6.150
 8564POPC   GL266854  12.855  19.947   6.150
 8564POPC   C1A66855  12.875  19.840   6.450
 8564POPC   D2A66856  12.865  19.875   6.750
 8564POPC   C3A66857  12.856  19.863   7.050
 8564POPC   C4A66858  12.833  19.831   7.350
 8564POPC   C1B66859  12.757  20.074   6.450
 8564POPC   C2B66860  12.842  20.062   6.750
 8564POPC   C3B66861  12.785  20.051   7.050
 8564POPC   C4B66862  12.746  20.098   7.350
 8565POPC   NC366863  11.259  20.630   5.550
 8565POPC   PO466864  11.284  20.607   5.850
 8565POPC   GL166865  11.279  20.627   6.150
 8565POPC   GL266866  11.279  20.436   6.150
 8565POPC   C1A66867  11.294  20.584   6.450
 8565POPC   D2A66868  11.314  20.578   6.750
 8565POPC   C3A66869  11.287  20.646   7.050
 8565POPC   C4A66870  11.340  20.638   7.350
 8565POPC   C1B66871  11.224  20.361   6.450
 8565POPC   C2B66872  11.298  20.353   6.750
 8565POPC   C3B66873  11.281  20.328   7.050
 8565POPC   C4B66874  11.258  20.336   7.350
 8566POPC   NC366875  25.312  20.609   5.550
 8566POPC   PO466876  25.216  20.583   5.850
 8566POPC   GL166877  25.241  20.612   6.150
 8566POPC   GL266878  25.420  20.672   6.150
 8566POPC   C1A66879  25.267  20.651   6.450
 8566POPC   D2A66880  25.255  20.595   6.750
 8566POPC   C3A66881  25.274  20.647   7.050
 8566POPC   C4A66882  25.269  20.577   7.350
 8566POPC   C1B66883  25.475  20.691   6.450
 8566POPC   C2B66884  25.433  20.781   6.750
 8566POPC   C3B66885  25.533  20.748   7.050
 8566POPC   C4B66886  25.482  20.770   7.350
 8567POPC   NC366887  15.995  40.736   5.550
 8567POPC   PO466888  15.967  40.810   5.850
 8567POPC   GL166889  15.970  40.802   6.150
 8567POPC   GL266890  15.822  40.646   6.150
 8567POPC   C1A66891  15.988  40.800   6.450
 8567POPC   D2A66892  15.993  40.769   6.750
 8567POPC   C3A66893  15.990  40.831   7.050
 8567POPC   C4A66894  15.988  40.758   7.350
 8567POPC   C1B66895  15.787  40.578   6.450
 8567POPC   C2B66896  15.768  40.636   6.750
 8567POPC   C3B66897  15.807  40.618   7.050
 8567POPC   C4B66898  15.810  40.595   7.350
 8568POPC   NC366899   0.393   5.126   5.550
 8568POPC   PO466900   0.443   5.079   5.850
 8568POPC   GL166901   0.488   5.078   6.150
 8568POPC   GL266902   0.380   4.954   6.150
 8568POPC   C1A66903   0.466   5.074   6.450
 8568POPC   D2A66904   0.442   5.081   6.750
 8568POPC   C3A66905   0.465   5.109   7.050
 8568POPC   C4A66906   0.465   5.087   7.350
 8568POPC   C1B66907   0.279   4.890   6.450
 8568POPC   C2B66908   0.265   4.905   6.750
 8568POPC   C3B66909   0.319   4.888   7.050
 8568POPC   C4B66910   0.249   4.911   7.350
 8569POPC   NC366911   1.978  36.166   5.550
 8569POPC   PO466912   1.962  36.139   5.850
 8569POPC   GL166913   2.014  36.151   6.150
 8569POPC   GL266914   1.947  36.049   6.150
 8569POPC   C1A66915   2.031  36.105   6.450
 8569POPC   D2A66916   1.975  36.096   6.750
 8569POPC   C3A66917   1.991  36.167   7.050
 8569POPC   C4A66918   2.011  36.080   7.350
 8569POPC   C1B66919   1.924  35.870   6.450
 8569POPC   C2B66920   2.000  35.863   6.750
 8569POPC   C3B66921   1.935  35.867   7.050
 8569POPC   C4B66922   1.935  35.882   7.350
 8570POPC   NC366923  39.266   0.392   5.550
 8570POPC   PO466924  39.252   0.403   5.850
 8570POPC   GL166925  39.230   0.421   6.150
 8570POPC   GL266926  39.310   0.360   6.150
 8570POPC   C1A66927  39.245   0.477   6.450
 8570POPC   D2A66928  39.233   0.431   6.750
 8570POPC   C3A66929  39.237   0.428   7.050
 8570POPC   C4A66930  39.257   0.464   7.350
 8570POPC   C1B66931  39.436   0.257   6.450
 8570POPC   C2B66932  39.409   0.258   6.750
 8570POPC   C3B66933  39.468   0.294   7.050
 8570POPC   C4B66934  39.427   0.249   7.350
 8571POPC   NC366935  40.035  26.086   5.550
 8571POPC   PO466936  40.025  26.073   5.850
 8571POPC   GL166937  39.994  26.082   6.150
 8571POPC   GL266938  39.927  26.040   6.150
 8571POPC   C1A66939  40.039  26.052   6.450
 8571POPC   D2A66940  40.018  26.017   6.750
 8571POPC   C3A66941  40.015  26.064   7.050
 8571POPC   C4A66942  39.975  26.003   7.350
 8571POPC   C1B66943  39.718  26.049   6.450
 8571POPC   C2B66944  39.782  25.993   6.750
 8571POPC   C3B66945  39.801  26.023   7.050
 8571POPC   C4B66946  39.761  26.039   7.350
 8572POPC   NC366947   3.554   7.381   5.550
 8572POPC   PO466948   3.510   7.411   5.850
 8572POPC   GL166949   3.551   7.399   6.150
 8572POPC   GL266950   3.620   7.411   6.150
 8572POPC   C1A66951   3.554   7.388   6.450
 8572POPC   D2A66952   3.496   7.390   6.750
 8572POPC   C3A66953   3.535   7.384   7.050
 8572POPC   C4A66954   3.502   7.417   7.350
 8572POPC   C1B66955   3.767   7.469   6.450
 8572POPC   C2B66956   3.776   7.458   6.750
 8572POPC   C3B66957   3.802   7.498   7.050
 8572POPC   C4B66958   3.746   7.535   7.350
 8573POPC   NC366959  20.639   2.724   5.550
 8573POPC   PO466960  20.569   2.793   5.850
 8573POPC   GL166961  20.630   2.785   6.150
 8573POPC   GL266962  20.656   2.673   6.150
 8573POPC   C1A66963  20.588   2.797   6.450
 8573POPC   D2A66964  20.596   2.760   6.750
 8573POPC   C3A66965  20.577   2.814   7.050
 8573POPC   C4A66966  20.610   2.733   7.350
 8573POPC   C1B66967  20.732   2.521   6.450
 8573POPC   C2B66968  20.724   2.565   6.750
 8573POPC   C3B66969  20.676   2.551   7.050
 8573POPC   C4B66970  20.716   2.558   7.350
 8574POPC   NC366971   5.124  32.225   5.550
 8574POPC   PO466972   5.134  32.273   5.850
 8574POPC   GL166973   5.052  32.298   6.150
 8574POPC   GL266974   5.078  32.106   6.150
 8574POPC   C1A66975   5.137  32.221   6.450
 8574POPC   D2A66976   5.057  32.228   6.750
 8574POPC   C3A66977   5.127  32.274   7.050
 8574POPC   C4A66978   5.129  32.279   7.350
 8574POPC   C1B66979   5.014  32.004   6.450
 8574POPC   C2B66980   5.012  32.042   6.750
 8574POPC   C3B66981   4.991  32.042   7.050
 8574POPC   C4B66982   4.996  32.031   7.350
 8575POPC   NC366983   3.546  42.320   5.550
 8575POPC   PO466984   3.550  42.368   5.850
 8575POPC   GL166985   3.573  42.321   6.150
 8575POPC   GL266986   3.610  42.383   6.150
 8575POPC   C1A66987   3.568  42.347   6.450
 8575POPC   D2A66988   3.584  42.366   6.750
 8575POPC   C3A66989   3.499  42.355   7.050
 8575POPC   C4A66990   3.516  42.355   7.350
 8575POPC   C1B66991   3.679  42.485   6.450
 8575POPC   C2B66992   3.675  42.478   6.750
 8575POPC   C3B66993   3.678  42.516   7.050
 8575POPC   C4B66994   3.725  42.557   7.350
 8576POPC   NC366995   1.944  26.015   5.550
 8576POPC   PO466996   2.028  25.997   5.850
 8576POPC   GL166997   1.962  26.017   6.150
 8576POPC   GL266998   1.923  26.100   6.150
 8576POPC   C1A66999   1.989  26.006   6.450
 8576POPC   D2A67000   1.956  26.036   6.750
 8576POPC   C3A67001   1.950  26.032   7.050
 8576POPC   C4A67002   1.951  26.051   7.350
 8576POPC   C1B67003   1.777  26.170   6.450
 8576POPC   C2B67004   1.812  26.196   6.750
 8576POPC   C3B67005   1.759  26.109   7.050
 8576POPC   C4B67006   1.787  26.183   7.350
 8577POPC   NC367007  19.028   2.006   5.550
 8577POPC   PO467008  19.088   1.957   5.850
 8577POPC   GL167009  19.044   1.946   6.150
 8577POPC   GL267010  19.031   1.898   6.150
 8577POPC   C1A67011  19.041   1.990   6.450
 8577POPC   D2A67012  19.069   2.005   6.750
 8577POPC   C3A67013  19.047   1.973   7.050
 8577POPC   C4A67014  19.086   1.982   7.350
 8577POPC   C1B67015  19.095   1.760   6.450
 8577POPC   C2B67016  19.132   1.732   6.750
 8577POPC   C3B67017  19.120   1.756   7.050
 8577POPC   C4B67018  19.055   1.698   7.350
 8578POPC   NC367019   4.366  21.361   5.550
 8578POPC   PO467020   4.313  21.355   5.850
 8578POPC   GL167021   4.293  21.423   6.150
 8578POPC   GL267022   4.345  21.507   6.150
 8578POPC   C1A67023   4.300  21.343   6.450
 8578POPC   D2A67024   4.360  21.374   6.750
 8578POPC   C3A67025   4.313  21.413   7.050
 8578POPC   C4A67026   4.336  21.398   7.350
 8578POPC   C1B67027   4.393  21.664   6.450
 8578POPC   C2B67028   4.358  21.609   6.750
 8578POPC   C3B67029   4.402  21.578   7.050
 8578POPC   C4B67030   4.426  21.602   7.350
 8579POPC   NC367031  40.786  14.388   5.550
 8579POPC   PO467032  40.736  14.361   5.850
 8579POPC   GL167033  40.744  14.366   6.150
 8579POPC   GL267034  40.679  14.367   6.150
 8579POPC   C1A67035  40.815  14.368   6.450
 8579POPC   D2A67036  40.735  14.437   6.750
 8579POPC   C3A67037  40.811  14.398   7.050
 8579POPC   C4A67038  40.761  14.440   7.350
 8579POPC   C1B67039  40.537  14.349   6.450
 8579POPC   C2B67040  40.569  14.341   6.750
 8579POPC   C3B67041  40.532  14.402   7.050
 8579POPC   C4B67042  40.545  14.403   7.350
 8580POPC   NC367043  40.737  33.771   5.550
 8580POPC   PO467044  40.827  33.768   5.850
 8580POPC   GL167045  40.778  33.764   6.150
 8580POPC   GL267046  40.697  33.876   6.150
 8580POPC   C1A67047  40.785  33.786   6.450
 8580POPC   D2A67048  40.772  33.787   6.750
 8580POPC   C3A67049  40.765  33.756   7.050
 8580POPC   C4A67050  40.782  33.842   7.350
 8580POPC   C1B67051  40.591  33.951   6.450
 8580POPC   C2B67052  40.587  33.943   6.750
 8580POPC   C3B67053  40.644  33.987   7.050
 8580POPC   C4B67054  40.643  33.994   7.350
 8581POPC   NC367055   9.003  25.262   5.550
 8581POPC   PO467056   9.015  25.269   5.850
 8581POPC   GL167057   8.931  25.265   6.150
 8581POPC   GL267058   8.885  25.194   6.150
 8581POPC   C1A67059   8.946  25.291   6.450
 8581POPC   D2A67060   8.952  25.305   6.750
 8581POPC   C3A67061   8.987  25.224   7.050
 8581POPC   C4A67062   8.959  25.259   7.350
 8581POPC   C1B67063   8.800  25.100   6.450
 8581POPC   C2B67064   8.840  25.071   6.750
 8581POPC   C3B67065   8.809  25.033   7.050
 8581POPC   C4B67066   8.878  25.069   7.350
 8582POPC   NC367067  25.278  25.310   5.550
 8582POPC   PO467068  25.218  25.249   5.850
 8582POPC   GL167069  25.277  25.296   6.150
 8582POPC   GL267070  25.384  25.144   6.150
 8582POPC   C1A67071  25.270  25.226   6.450
 8582POPC   D2A67072  25.305  25.245   6.750
 8582POPC   C3A67073  25.236  25.277   7.050
 8582POPC   C4A67074  25.248  25.259   7.350
 8582POPC   C1B67075  25.486  25.082   6.450
 8582POPC   C2B67076  25.424  25.100   6.750
 8582POPC   C3B67077  25.474  25.119   7.050
 8582POPC   C4B67078  25.484  25.069   7.350
 8583POPC   NC367079  43.847  12.048   5.550
 8583POPC   PO467080  43.845  12.101   5.850
 8583POPC   GL167081  43.843  12.074   6.150
 8583POPC   GL267082  43.885  12.217   6.150
 8583POPC   C1A67083  43.919  12.058   6.450
 8583POPC   D2A67084  43.894  12.124   6.750
 8583POPC   C3A67085  43.914  12.084   7.050
 8583POPC   C4A67086  43.852  12.026   7.350
 8583POPC   C1B67087  43.786  12.338   6.450
 8583POPC   C2B67088  43.843  12.365   6.750
 8583POPC   C3B67089  43.818  12.366   7.050
 8583POPC   C4B67090  43.807  12.296   7.350
 8584POPC   NC367091  17.518   8.218   5.550
 8584POPC   PO467092  17.484   8.152   5.850
 8584POPC   GL167093  17.529   8.240   6.150
 8584POPC   GL267094  17.458   8.087   6.150
 8584POPC   C1A67095  17.462   8.236   6.450
 8584POPC   D2A67096  17.515   8.224   6.750
 8584POPC   C3A67097  17.536   8.169   7.050
 8584POPC   C4A67098  17.541   8.220   7.350
 8584POPC   C1B67099  17.442   7.972   6.450
 8584POPC   C2B67100  17.375   7.980   6.750
 8584POPC   C3B67101  17.402   7.955   7.050
 8584POPC   C4B67102  17.443   7.980   7.350
 8585POPC   NC367103  35.335  16.779   5.550
 8585POPC   PO467104  35.390  16.765   5.850
 8585POPC   GL167105  35.337  16.705   6.150
 8585POPC   GL267106  35.324  16.850   6.150
 8585POPC   C1A67107  35.338  16.709   6.450
 8585POPC   D2A67108  35.381  16.689   6.750
 8585POPC   C3A67109  35.357  16.689   7.050
 8585POPC   C4A67110  35.345  16.699   7.350
 8585POPC   C1B67111  35.231  16.995   6.450
 8585POPC   C2B67112  35.312  16.974   6.750
 8585POPC   C3B67113  35.283  16.984   7.050
 8585POPC   C4B67114  35.244  16.936   7.350
 8586POPC   NC367115  23.730   8.199   5.550
 8586POPC   PO467116  23.720   8.245   5.850
 8586POPC   GL167117  23.751   8.203   6.150
 8586POPC   GL267118  23.580   8.224   6.150
 8586POPC   C1A67119  23.762   8.159   6.450
 8586POPC   D2A67120  23.719   8.148   6.750
 8586POPC   C3A67121  23.759   8.198   7.050
 8586POPC   C4A67122  23.674   8.241   7.350
 8586POPC   C1B67123  23.458   8.280   6.450
 8586POPC   C2B67124  23.512   8.321   6.750
 8586POPC   C3B67125  23.534   8.347   7.050
 8586POPC   C4B67126  23.540   8.365   7.350
 8587POPC   NC367127  22.159  13.663   5.550
 8587POPC   PO467128  22.172  13.644   5.850
 8587POPC   GL167129  22.137  13.610   6.150
 8587POPC   GL267130  22.062  13.544   6.150
 8587POPC   C1A67131  22.177  13.675   6.450
 8587POPC   D2A67132  22.112  13.601   6.750
 8587POPC   C3A67133  22.114  13.624   7.050
 8587POPC   C4A67134  22.155  13.661   7.350
 8587POPC   C1B67135  22.030  13.432   6.450
 8587POPC   C2B67136  22.054  13.463   6.750
 8587POPC   C3B67137  22.041  13.381   7.050
 8587POPC   C4B67138  22.003  13.441   7.350
 8588POPC   NC367139  28.368   0.470   5.550
 8588POPC   PO467140  28.381   0.402   5.850
 8588POPC   GL167141  28.333   0.456   6.150
 8588POPC   GL267142  28.449   0.316   6.150
 8588POPC   C1A67143  28.415   0.429   6.450
 8588POPC   D2A67144  28.402   0.473   6.750
 8588POPC   C3A67145  28.400   0.394   7.050
 8588POPC   C4A67146  28.410   0.461   7.350
 8588POPC   C1B67147  28.461   0.157   6.450
 8588POPC   C2B67148  28.432   0.184   6.750
 8588POPC   C3B67149  28.459   0.213   7.050
 8588POPC   C4B67150  28.395   0.176   7.350
 8589POPC   NC367151  19.092  26.774   5.550
 8589POPC   PO467152  19.045  26.860   5.850
 8589POPC   GL167153  19.028  26.798   6.150
 8589POPC   GL267154  18.979  26.897   6.150
 8589POPC   C1A67155  19.039  26.856   6.450
 8589POPC   D2A67156  19.094  26.769   6.750
 8589POPC   C3A67157  19.065  26.838   7.050
 8589POPC   C4A67158  19.062  26.777   7.350
 8589POPC   C1B67159  18.783  26.894   6.450
 8589POPC   C2B67160  18.795  26.889   6.750
 8589POPC   C3B67161  18.799  26.882   7.050
 8589POPC   C4B67162  18.822  26.884   7.350
 8590POPC   NC367163   8.940  42.346   5.550
 8590POPC   PO467164   8.925  42.341   5.850
 8590POPC   GL167165   9.011  42.308   6.150
 8590POPC   GL267166   9.007  42.439   6.150
 8590POPC   C1A67167   8.940  42.377   6.450
 8590POPC   D2A67168   8.930  42.376   6.750
 8590POPC   C3A67169   8.940  42.297   7.050
 8590POPC   C4A67170   8.963  42.300   7.350
 8590POPC   C1B67171   9.036  42.541   6.450
 8590POPC   C2B67172   9.080  42.586   6.750
 8590POPC   C3B67173   9.060  42.564   7.050
 8590POPC   C4B67174   9.078  42.602   7.350
 8591POPC   NC367175  27.544  12.091   5.550
 8591POPC   PO467176  27.604  12.056   5.850
 8591POPC   GL167177  27.579  12.077   6.150
 8591POPC   GL267178  27.604  12.246   6.150
 8591POPC   C1A67179  27.596  12.073   6.450
 8591POPC   D2A67180  27.575  12.103   6.750
 8591POPC   C3A67181  27.574  12.032   7.050
 8591POPC   C4A67182  27.550  12.040   7.350
 8591POPC   C1B67183  27.601  12.320   6.450
 8591POPC   C2B67184  27.606  12.303   6.750
 8591POPC   C3B67185  27.642  12.336   7.050
 8591POPC   C4B67186  27.546  12.323   7.350
 8592POPC   NC367187  25.223   1.258   5.550
 8592POPC   PO467188  25.315   1.230   5.850
 8592POPC   GL167189  25.216   1.246   6.150
 8592POPC   GL267190  25.402   1.150   6.150
 8592POPC   C1A67191  25.313   1.250   6.450
 8592POPC   D2A67192  25.227   1.186   6.750
 8592POPC   C3A67193  25.234   1.189   7.050
 8592POPC   C4A67194  25.271   1.189   7.350
 8592POPC   C1B67195  25.498   1.145   6.450
 8592POPC   C2B67196  25.547   1.138   6.750
 8592POPC   C3B67197  25.547   1.173   7.050
 8592POPC   C4B67198  25.467   1.157   7.350
 8593POPC   NC367199  24.454  44.701   5.550
 8593POPC   PO467200  24.441  44.710   5.850
 8593POPC   GL167201  24.483  44.634   6.150
 8593POPC   GL267202  24.395  44.668   6.150
 8593POPC   C1A67203  24.534  44.621   6.450
 8593POPC   D2A67204  24.470  44.662   6.750
 8593POPC   C3A67205  24.469  44.630   7.050
 8593POPC   C4A67206  24.498  44.640   7.350
 8593POPC   C1B67207  24.285  44.583   6.450
 8593POPC   C2B67208  24.289  44.630   6.750
 8593POPC   C3B67209  24.237  44.624   7.050
 8593POPC   C4B67210  24.198  44.639   7.350
 8594POPC   NC367211   9.712  18.256   5.550
 8594POPC   PO467212   9.758  18.255   5.850
 8594POPC   GL167213   9.740  18.269   6.150
 8594POPC   GL267214   9.681  18.213   6.150
 8594POPC   C1A67215   9.763  18.275   6.450
 8594POPC   D2A67216   9.770  18.301   6.750
 8594POPC   C3A67217   9.734  18.325   7.050
 8594POPC   C4A67218   9.741  18.247   7.350
 8594POPC   C1B67219   9.621  18.139   6.450
 8594POPC   C2B67220   9.579  18.073   6.750
 8594POPC   C3B67221   9.604  18.075   7.050
 8594POPC   C4B67222   9.582  18.139   7.350
 8595POPC   NC367223  42.364  22.163   5.550
 8595POPC   PO467224  42.303  22.151   5.850
 8595POPC   GL167225  42.316  22.184   6.150
 8595POPC   GL267226  42.337  22.328   6.150
 8595POPC   C1A67227  42.331  22.150   6.450
 8595POPC   D2A67228  42.318  22.164   6.750
 8595POPC   C3A67229  42.293  22.132   7.050
 8595POPC   C4A67230  42.342  22.156   7.350
 8595POPC   C1B67231  42.372  22.372   6.450
 8595POPC   C2B67232  42.360  22.399   6.750
 8595POPC   C3B67233  42.319  22.383   7.050
 8595POPC   C4B67234  42.298  22.458   7.350
 8596POPC   NC367235   8.226   4.309   5.550
 8596POPC   PO467236   8.179   4.338   5.850
 8596POPC   GL167237   8.241   4.322   6.150
 8596POPC   GL267238   8.144   4.197   6.150
 8596POPC   C1A67239   8.159   4.318   6.450
 8596POPC   D2A67240   8.230   4.322   6.750
 8596POPC   C3A67241   8.164   4.308   7.050
 8596POPC   C4A67242   8.158   4.324   7.350
 8596POPC   C1B67243   8.037   4.100   6.450
 8596POPC   C2B67244   8.044   4.127   6.750
 8596POPC   C3B67245   8.002   4.108   7.050
 8596POPC   C4B67246   8.048   4.109   7.350
 8597POPC   NC367247   6.687  22.192   5.550
 8597POPC   PO467248   6.669  22.169   5.850
 8597POPC   GL167249   6.675  22.126   6.150
 8597POPC   GL267250   6.524  22.195   6.150
 8597POPC   C1A67251   6.614  22.139   6.450
 8597POPC   D2A67252   6.603  22.206   6.750
 8597POPC   C3A67253   6.676  22.130   7.050
 8597POPC   C4A67254   6.685  22.185   7.350
 8597POPC   C1B67255   6.386  22.217   6.450
 8597POPC   C2B67256   6.396  22.238   6.750
 8597POPC   C3B67257   6.447  22.175   7.050
 8597POPC   C4B67258   6.351  22.171   7.350
 8598POPC   NC367259  19.816  35.382   5.550
 8598POPC   PO467260  19.860  35.312   5.850
 8598POPC   GL167261  19.809  35.351   6.150
 8598POPC   GL267262  19.713  35.295   6.150
 8598POPC   C1A67263  19.843  35.370   6.450
 8598POPC   D2A67264  19.883  35.318   6.750
 8598POPC   C3A67265  19.793  35.380   7.050
 8598POPC   C4A67266  19.829  35.309   7.350
 8598POPC   C1B67267  19.602  35.218   6.450
 8598POPC   C2B67268  19.561  35.232   6.750
 8598POPC   C3B67269  19.585  35.293   7.050
 8598POPC   C4B67270  19.586  35.299   7.350
 8599POPC   NC367271   8.205  43.926   5.550
 8599POPC   PO467272   8.155  43.910   5.850
 8599POPC   GL167273   8.170  43.925   6.150
 8599POPC   GL267274   8.105  43.870   6.150
 8599POPC   C1A67275   8.191  43.859   6.450
 8599POPC   D2A67276   8.186  43.892   6.750
 8599POPC   C3A67277   8.149  43.844   7.050
 8599POPC   C4A67278   8.188  43.935   7.350
 8599POPC   C1B67279   8.007  43.771   6.450
 8599POPC   C2B67280   7.964  43.824   6.750
 8599POPC   C3B67281   7.998  43.808   7.050
 8599POPC   C4B67282   7.985  43.779   7.350
 8600POPC   NC367283  26.021  33.845   5.550
 8600POPC   PO467284  26.036  33.802   5.850
 8600POPC   GL167285  26.021  33.811   6.150
 8600POPC   GL267286  26.176  33.820   6.150
 8600POPC   C1A67287  26.089  33.813   6.450
 8600POPC   D2A67288  26.024  33.771   6.750
 8600POPC   C3A67289  26.090  33.801   7.050
 8600POPC   C4A67290  26.033  33.803   7.350
 8600POPC   C1B67291  26.257  33.860   6.450
 8600POPC   C2B67292  26.338  33.805   6.750
 8600POPC   C3B67293  26.329  33.794   7.050
 8600POPC   C4B67294  26.248  33.823   7.350
 8601POPC   NC367295  19.816  40.771   5.550
 8601POPC   PO467296  19.786  40.734   5.850
 8601POPC   GL167297  19.857  40.764   6.150
 8601POPC   GL267298  19.736  40.918   6.150
 8601POPC   C1A67299  19.808  40.829   6.450
 8601POPC   D2A67300  19.834  40.739   6.750
 8601POPC   C3A67301  19.873  40.795   7.050
 8601POPC   C4A67302  19.841  40.825   7.350
 8601POPC   C1B67303  19.684  40.968   6.450
 8601POPC   C2B67304  19.637  40.957   6.750
 8601POPC   C3B67305  19.702  40.982   7.050
 8601POPC   C4B67306  19.662  40.981   7.350
 8602POPC   NC367307  37.629  24.479   5.550
 8602POPC   PO467308  37.687  24.481   5.850
 8602POPC   GL167309  37.666  24.442   6.150
 8602POPC   GL267310  37.513  24.475   6.150
 8602POPC   C1A67311  37.703  24.479   6.450
 8602POPC   D2A67312  37.671  24.499   6.750
 8602POPC   C3A67313  37.725  24.443   7.050
 8602POPC   C4A67314  37.705  24.511   7.350
 8602POPC   C1B67315  37.454  24.526   6.450
 8602POPC   C2B67316  37.444  24.462   6.750
 8602POPC   C3B67317  37.451  24.453   7.050
 8602POPC   C4B67318  37.427  24.461   7.350
 8603POPC   NC367319  29.124   9.744   5.550
 8603POPC   PO467320  29.163   9.791   5.850
 8603POPC   GL167321  29.136   9.731   6.150
 8603POPC   GL267322  29.193   9.585   6.150
 8603POPC   C1A67323  29.152   9.736   6.450
 8603POPC   D2A67324  29.109   9.747   6.750
 8603POPC   C3A67325  29.147   9.704   7.050
 8603POPC   C4A67326  29.158   9.786   7.350
 8603POPC   C1B67327  29.237   9.486   6.450
 8603POPC   C2B67328  29.259   9.478   6.750
 8603POPC   C3B67329  29.244   9.558   7.050
 8603POPC   C4B67330  29.290   9.558   7.350
 8604POPC   NC367331  39.195  35.359   5.550
 8604POPC   PO467332  39.280  35.340   5.850
 8604POPC   GL167333  39.204  35.330   6.150
 8604POPC   GL267334  39.297  35.315   6.150
 8604POPC   C1A67335  39.254  35.379   6.450
 8604POPC   D2A67336  39.243  35.336   6.750
 8604POPC   C3A67337  39.191  35.383   7.050
 8604POPC   C4A67338  39.274  35.354   7.350
 8604POPC   C1B67339  39.431  35.290   6.450
 8604POPC   C2B67340  39.452  35.265   6.750
 8604POPC   C3B67341  39.432  35.209   7.050
 8604POPC   C4B67342  39.477  35.296   7.350
 8605POPC   NC367343  18.253  25.237   5.550
 8605POPC   PO467344  18.235  25.280   5.850
 8605POPC   GL167345  18.297  25.266   6.150
 8605POPC   GL267346  18.363  25.183   6.150
 8605POPC   C1A67347  18.263  25.222   6.450
 8605POPC   D2A67348  18.268  25.272   6.750
 8605POPC   C3A67349  18.306  25.242   7.050
 8605POPC   C4A67350  18.328  25.245   7.350
 8605POPC   C1B67351  18.379  25.044   6.450
 8605POPC   C2B67352  18.375  24.987   6.750
 8605POPC   C3B67353  18.323  25.045   7.050
 8605POPC   C4B67354  18.321  25.024   7.350
 8606POPC   NC367355  26.784  39.248   5.550
 8606POPC   PO467356  26.783  39.254   5.850
 8606POPC   GL167357  26.780  39.185   6.150
 8606POPC   GL267358  26.914  39.300   6.150
 8606POPC   C1A67359  26.814  39.186   6.450
 8606POPC   D2A67360  26.861  39.209   6.750
 8606POPC   C3A67361  26.840  39.252   7.050
 8606POPC   C4A67362  26.856  39.253   7.350
 8606POPC   C1B67363  26.905  39.474   6.450
 8606POPC   C2B67364  26.906  39.504   6.750
 8606POPC   C3B67365  26.935  39.464   7.050
 8606POPC   C4B67366  26.880  39.483   7.350
 8607POPC   NC367367   8.200  40.767   5.550
 8607POPC   PO467368   8.246  40.806   5.850
 8607POPC   GL167369   8.168  40.817   6.150
 8607POPC   GL267370   8.313  40.680   6.150
 8607POPC   C1A67371   8.152  40.743   6.450
 8607POPC   D2A67372   8.231  40.776   6.750
 8607POPC   C3A67373   8.240  40.829   7.050
 8607POPC   C4A67374   8.148  40.819   7.350
 8607POPC   C1B67375   8.403  40.646   6.450
 8607POPC   C2B67376   8.334  40.594   6.750
 8607POPC   C3B67377   8.426  40.628   7.050
 8607POPC   C4B67378   8.348  40.654   7.350
 8608POPC   NC367379  36.910  32.217   5.550
 8608POPC   PO467380  36.893  32.220   5.850
 8608POPC   GL167381  36.925  32.285   6.150
 8608POPC   GL267382  37.001  32.297   6.150
 8608POPC   C1A67383  36.878  32.230   6.450
 8608POPC   D2A67384  36.906  32.265   6.750
 8608POPC   C3A67385  36.855  32.272   7.050
 8608POPC   C4A67386  36.917  32.218   7.350
 8608POPC   C1B67387  37.159  32.294   6.450
 8608POPC   C2B67388  37.159  32.297   6.750
 8608POPC   C3B67389  37.172  32.305   7.050
 8608POPC   C4B67390  37.103  32.245   7.350
 8609POPC   NC367391   9.789  40.734   5.550
 8609POPC   PO467392   9.739  40.773   5.850
 8609POPC   GL167393   9.754  40.795   6.150
 8609POPC   GL267394   9.716  40.842   6.150
 8609POPC   C1A67395   9.701  40.758   6.450
 8609POPC   D2A67396   9.747  40.782   6.750
 8609POPC   C3A67397   9.700  40.776   7.050
 8609POPC   C4A67398   9.754  40.818   7.350
 8609POPC   C1B67399   9.550  41.020   6.450
 8609POPC   C2B67400   9.577  40.973   6.750
 8609POPC   C3B67401   9.633  40.948   7.050
 8609POPC   C4B67402   9.571  41.013   7.350
 8610POPC   NC367403   9.752  17.466   5.550
 8610POPC   PO467404   9.797  17.500   5.850
 8610POPC   GL167405   9.709  17.537   6.150
 8610POPC   GL267406   9.881  17.409   6.150
 8610POPC   C1A67407   9.795  17.540   6.450
 8610POPC   D2A67408   9.742  17.489   6.750
 8610POPC   C3A67409   9.723  17.458   7.050
 8610POPC   C4A67410   9.780  17.524   7.350
 8610POPC   C1B67411   9.937  17.357   6.450
 8610POPC   C2B67412   9.920  17.359   6.750
 8610POPC   C3B67413   9.912  17.342   7.050
 8610POPC   C4B67414   9.932  17.370   7.350
 8611POPC   NC367415  11.308   5.893   5.550
 8611POPC   PO467416  11.251   5.833   5.850
 8611POPC   GL167417  11.309   5.857   6.150
 8611POPC   GL267418  11.241   6.028   6.150
 8611POPC   C1A67419  11.285   5.819   6.450
 8611POPC   D2A67420  11.337   5.862   6.750
 8611POPC   C3A67421  11.346   5.822   7.050
 8611POPC   C4A67422  11.278   5.865   7.350
 8611POPC   C1B67423  11.232   6.080   6.450
 8611POPC   C2B67424  11.237   6.096   6.750
 8611POPC   C3B67425  11.279   6.118   7.050
 8611POPC   C4B67426  11.270   6.137   7.350
 8612POPC   NC367427  39.215   1.168   5.550
 8612POPC   PO467428  39.183   1.262   5.850
 8612POPC   GL167429  39.267   1.233   6.150
 8612POPC   GL267430  39.163   1.085   6.150
 8612POPC   C1A67431  39.274   1.255   6.450
 8612POPC   D2A67432  39.220   1.232   6.750
 8612POPC   C3A67433  39.239   1.211   7.050
 8612POPC   C4A67434  39.196   1.189   7.350
 8612POPC   C1B67435  39.191   0.931   6.450
 8612POPC   C2B67436  39.181   0.999   6.750
 8612POPC   C3B67437  39.133   1.018   7.050
 8612POPC   C4B67438  39.149   0.958   7.350
 8613POPC   NC367439  22.896  22.175   5.550
 8613POPC   PO467440  22.988  22.147   5.850
 8613POPC   GL167441  22.954  22.184   6.150
 8613POPC   GL267442  22.885  22.326   6.150
 8613POPC   C1A67443  22.910  22.154   6.450
 8613POPC   D2A67444  22.966  22.207   6.750
 8613POPC   C3A67445  22.921  22.149   7.050
 8613POPC   C4A67446  22.893  22.160   7.350
 8613POPC   C1B67447  22.831  22.395   6.450
 8613POPC   C2B67448  22.896  22.439   6.750
 8613POPC   C3B67449  22.819  22.389   7.050
 8613POPC   C4B67450  22.889  22.360   7.350
 8614POPC   NC367451  21.344  26.844   5.550
 8614POPC   PO467452  21.366  26.788   5.850
 8614POPC   GL167453  21.376  26.821   6.150
 8614POPC   GL267454  21.471  26.721   6.150
 8614POPC   C1A67455  21.384  26.773   6.450
 8614POPC   D2A67456  21.353  26.794   6.750
 8614POPC   C3A67457  21.361  26.788   7.050
 8614POPC   C4A67458  21.428  26.774   7.350
 8614POPC   C1B67459  21.540  26.585   6.450
 8614POPC   C2B67460  21.492  26.612   6.750
 8614POPC   C3B67461  21.519  26.601   7.050
 8614POPC   C4B67462  21.481  26.582   7.350
 8615POPC   NC367463  29.934   8.936   5.550
 8615POPC   PO467464  29.944   8.988   5.850
 8615POPC   GL167465  29.964   9.015   6.150
 8615POPC   GL267466  29.856   8.884   6.150
 8615POPC   C1A67467  29.915   9.018   6.450
 8615POPC   D2A67468  29.896   8.936   6.750
 8615POPC   C3A67469  29.877   8.962   7.050
 8615POPC   C4A67470  29.923   9.015   7.350
 8615POPC   C1B67471  29.724   8.834   6.450
 8615POPC   C2B67472  29.675   8.856   6.750
 8615POPC   C3B67473  29.722   8.874   7.050
 8615POPC   C4B67474  29.704   8.826   7.350
 8616POPC   NC367475  38.427   9.710   5.550
 8616POPC   PO467476  38.437   9.767   5.850
 8616POPC   GL167477  38.491   9.702   6.150
 8616POPC   GL267478  38.580   9.820   6.150
 8616POPC   C1A67479  38.431   9.699   6.450
 8616POPC   D2A67480  38.480   9.768   6.750
 8616POPC   C3A67481  38.505   9.742   7.050
 8616POPC   C4A67482  38.446   9.709   7.350
 8616POPC   C1B67483  38.643   9.925   6.450
 8616POPC   C2B67484  38.606   9.917   6.750
 8616POPC   C3B67485  38.690   9.897   7.050
 8616POPC   C4B67486  38.606   9.860   7.350
 8617POPC   NC367487   9.735   7.436   5.550
 8617POPC   PO467488   9.750   7.452   5.850
 8617POPC   GL167489   9.704   7.465   6.150
 8617POPC   GL267490   9.687   7.479   6.150
 8617POPC   C1A67491   9.785   7.408   6.450
 8617POPC   D2A67492   9.726   7.375   6.750
 8617POPC   C3A67493   9.767   7.461   7.050
 8617POPC   C4A67494   9.729   7.460   7.350
 8617POPC   C1B67495   9.588   7.579   6.450
 8617POPC   C2B67496   9.559   7.595   6.750
 8617POPC   C3B67497   9.581   7.598   7.050
 8617POPC   C4B67498   9.564   7.647   7.350
 8618POPC   NC367499  27.582  15.225   5.550
 8618POPC   PO467500  27.628  15.165   5.850
 8618POPC   GL167501  27.559  15.145   6.150
 8618POPC   GL267502  27.441  15.216   6.150
 8618POPC   C1A67503  27.630  15.185   6.450
 8618POPC   D2A67504  27.626  15.222   6.750
 8618POPC   C3A67505  27.588  15.186   7.050
 8618POPC   C4A67506  27.547  15.185   7.350
 8618POPC   C1B67507  27.321  15.300   6.450
 8618POPC   C2B67508  27.344  15.320   6.750
 8618POPC   C3B67509  27.344  15.268   7.050
 8618POPC   C4B67510  27.362  15.244   7.350
 8619POPC   NC367511  15.179  35.369   5.550
 8619POPC   PO467512  15.212  35.371   5.850
 8619POPC   GL167513  15.154  35.326   6.150
 8619POPC   GL267514  15.060  35.401   6.150
 8619POPC   C1A67515  15.144  35.315   6.450
 8619POPC   D2A67516  15.163  35.379   6.750
 8619POPC   C3A67517  15.200  35.312   7.050
 8619POPC   C4A67518  15.187  35.393   7.350
 8619POPC   C1B67519  14.960  35.371   6.450
 8619POPC   C2B67520  14.893  35.421   6.750
 8619POPC   C3B67521  14.917  35.420   7.050
 8619POPC   C4B67522  14.896  35.400   7.350
 8620POPC   NC367523  39.272  17.493   5.550
 8620POPC   PO467524  39.223  17.544   5.850
 8620POPC   GL167525  39.253  17.550   6.150
 8620POPC   GL267526  39.385  17.488   6.150
 8620POPC   C1A67527  39.192  17.520   6.450
 8620POPC   D2A67528  39.279  17.474   6.750
 8620POPC   C3A67529  39.250  17.503   7.050
 8620POPC   C4A67530  39.192  17.483   7.350
 8620POPC   C1B67531  39.502  17.486   6.450
 8620POPC   C2B67532  39.514  17.450   6.750
 8620POPC   C3B67533  39.435  17.411   7.050
 8620POPC   C4B67534  39.437  17.496   7.350
 8621POPC   NC367535  33.782  44.646   5.550
 8621POPC   PO467536  33.788  44.625   5.850
 8621POPC   GL167537  33.824  44.670   6.150
 8621POPC   GL267538  33.706  44.563   6.150
 8621POPC   C1A67539  33.821  44.706   6.450
 8621POPC   D2A67540  33.759  44.661   6.750
 8621POPC   C3A67541  33.841  44.703   7.050
 8621POPC   C4A67542  33.818  44.614   7.350
 8621POPC   C1B67543  33.716  44.452   6.450
 8621POPC   C2B67544  33.693  44.455   6.750
 8621POPC   C3B67545  33.666  44.455   7.050
 8621POPC   C4B67546  33.752  44.481   7.350
 8622POPC   NC367547  36.920  38.501   5.550
 8622POPC   PO467548  36.902  38.410   5.850
 8622POPC   GL167549  36.905  38.478   6.150
 8622POPC   GL267550  36.755  38.442   6.150
 8622POPC   C1A67551  36.880  38.453   6.450
 8622POPC   D2A67552  36.924  38.433   6.750
 8622POPC   C3A67553  36.871  38.479   7.050
 8622POPC   C4A67554  36.953  38.470   7.350
 8622POPC   C1B67555  36.698  38.400   6.450
 8622POPC   C2B67556  36.679  38.444   6.750
 8622POPC   C3B67557  36.644  38.426   7.050
 8622POPC   C4B67558  36.654  38.461   7.350
 8623POPC   NC367559  41.577  22.937   5.550
 8623POPC   PO467560  41.512  22.930   5.850
 8623POPC   GL167561  41.568  22.898   6.150
 8623POPC   GL267562  41.658  23.070   6.150
 8623POPC   C1A67563  41.522  22.917   6.450
 8623POPC   D2A67564  41.605  22.928   6.750
 8623POPC   C3A67565  41.576  22.971   7.050
 8623POPC   C4A67566  41.589  22.898   7.350
 8623POPC   C1B67567  41.710  23.155   6.450
 8623POPC   C2B67568  41.647  23.152   6.750
 8623POPC   C3B67569  41.665  23.129   7.050
 8623POPC   C4B67570  41.703  23.196   7.350
 8624POPC   NC367571   1.169   9.766   5.550
 8624POPC   PO467572   1.262   9.779   5.850
 8624POPC   GL167573   1.202   9.713   6.150
 8624POPC   GL267574   1.152   9.639   6.150
 8624POPC   C1A67575   1.246   9.770   6.450
 8624POPC   D2A67576   1.216   9.793   6.750
 8624POPC   C3A67577   1.207   9.762   7.050
 8624POPC   C4A67578   1.195   9.750   7.350
 8624POPC   C1B67579   0.976   9.631   6.450
 8624POPC   C2B67580   1.038   9.661   6.750
 8624POPC   C3B67581   1.009   9.639   7.050
 8624POPC   C4B67582   0.980   9.649   7.350
 8625POPC   NC367583  25.299  42.302   5.550
 8625POPC   PO467584  25.308  42.370   5.850
 8625POPC   GL167585  25.312  42.296   6.150
 8625POPC   GL267586  25.319  42.481   6.150
 8625POPC   C1A67587  25.310  42.306   6.450
 8625POPC   D2A67588  25.308  42.360   6.750
 8625POPC   C3A67589  25.315  42.301   7.050
 8625POPC   C4A67590  25.276  42.313   7.350
 8625POPC   C1B67591  25.327  42.545   6.450
 8625POPC   C2B67592  25.267  42.602   6.750
 8625POPC   C3B67593  25.317  42.554   7.050
 8625POPC   C4B67594  25.271  42.626   7.350
 8626POPC   NC367595   8.972   8.953   5.550
 8626POPC   PO467596   9.008   8.989   5.850
 8626POPC   GL167597   8.943   8.976   6.150
 8626POPC   GL267598   9.074   9.087   6.150
 8626POPC   C1A67599   8.938   8.971   6.450
 8626POPC   D2A67600   8.990   8.963   6.750
 8626POPC   C3A67601   8.979   8.938   7.050
 8626POPC   C4A67602   9.015   9.001   7.350
 8626POPC   C1B67603   9.127   9.166   6.450
 8626POPC   C2B67604   9.111   9.201   6.750
 8626POPC   C3B67605   9.056   9.237   7.050
 8626POPC   C4B67606   9.048   9.190   7.350
 8627POPC   NC367607  21.417  37.651   5.550
 8627POPC   PO467608  21.340  37.693   5.850
 8627POPC   GL167609  21.344  37.698   6.150
 8627POPC   GL267610  21.429  37.574   6.150
 8627POPC   C1A67611  21.432  37.639   6.450
 8627POPC   D2A67612  21.387  37.670   6.750
 8627POPC   C3A67613  21.416  37.650   7.050
 8627POPC   C4A67614  21.337  37.723   7.350
 8627POPC   C1B67615  21.481  37.435   6.450
 8627POPC   C2B67616  21.533  37.416   6.750
 8627POPC   C3B67617  21.482  37.426   7.050
 8627POPC   C4B67618  21.493  37.486   7.350
 8628POPC   NC367619  27.555  25.222   5.550
 8628POPC   PO467620  27.600  25.265   5.850
 8628POPC   GL167621  27.561  25.280   6.150
 8628POPC   GL267622  27.712  25.315   6.150
 8628POPC   C1A67623  27.580  25.227   6.450
 8628POPC   D2A67624  27.630  25.271   6.750
 8628POPC   C3A67625  27.610  25.220   7.050
 8628POPC   C4A67626  27.601  25.272   7.350
 8628POPC   C1B67627  27.763  25.403   6.450
 8628POPC   C2B67628  27.847  25.428   6.750
 8628POPC   C3B67629  27.816  25.404   7.050
 8628POPC   C4B67630  27.768  25.418   7.350
 8629POPC   NC367631  30.724  17.511   5.550
 8629POPC   PO467632  30.694  17.551   5.850
 8629POPC   GL167633  30.701  17.512   6.150
 8629POPC   GL267634  30.850  17.573   6.150
 8629POPC   C1A67635  30.683  17.525   6.450
 8629POPC   D2A67636  30.736  17.530   6.750
 8629POPC   C3A67637  30.742  17.461   7.050
 8629POPC   C4A67638  30.733  17.465   7.350
 8629POPC   C1B67639  30.899  17.638   6.450
 8629POPC   C2B67640  30.909  17.573   6.750
 8629POPC   C3B67641  30.935  17.574   7.050
 8629POPC   C4B67642  30.950  17.556   7.350
 8630POPC   NC367643   7.441  15.918   5.550
 8630POPC   PO467644   7.380  15.955   5.850
 8630POPC   GL167645   7.408  15.963   6.150
 8630POPC   GL267646   7.402  15.850   6.150
 8630POPC   C1A67647   7.371  15.953   6.450
 8630POPC   D2A67648   7.419  15.957   6.750
 8630POPC   C3A67649   7.468  15.974   7.050
 8630POPC   C4A67650   7.447  15.976   7.350
 8630POPC   C1B67651   7.305  15.693   6.450
 8630POPC   C2B67652   7.323  15.745   6.750
 8630POPC   C3B67653   7.376  15.733   7.050
 8630POPC   C4B67654   7.333  15.734   7.350
 8631POPC   NC367655  28.364   4.281   5.550
 8631POPC   PO467656  28.372   4.301   5.850
 8631POPC   GL167657  28.373   4.279   6.150
 8631POPC   GL267658  28.340   4.219   6.150
 8631POPC   C1A67659  28.404   4.354   6.450
 8631POPC   D2A67660  28.370   4.338   6.750
 8631POPC   C3A67661  28.370   4.318   7.050
 8631POPC   C4A67662  28.386   4.329   7.350
 8631POPC   C1B67663  28.277   4.108   6.450
 8631POPC   C2B67664  28.226   4.147   6.750
 8631POPC   C3B67665  28.198   4.110   7.050
 8631POPC   C4B67666  28.229   4.077   7.350
 8632POPC   NC367667  23.710   1.223   5.550
 8632POPC   PO467668  23.759   1.191   5.850
 8632POPC   GL167669  23.749   1.187   6.150
 8632POPC   GL267670  23.566   1.123   6.150
 8632POPC   C1A67671  23.754   1.257   6.450
 8632POPC   D2A67672  23.689   1.177   6.750
 8632POPC   C3A67673  23.666   1.234   7.050
 8632POPC   C4A67674  23.710   1.166   7.350
 8632POPC   C1B67675  23.455   1.161   6.450
 8632POPC   C2B67676  23.502   1.099   6.750
 8632POPC   C3B67677  23.446   1.142   7.050
 8632POPC   C4B67678  23.512   1.092   7.350
 8633POPC   NC367679  36.111  28.386   5.550
 8633POPC   PO467680  36.109  28.418   5.850
 8633POPC   GL167681  36.087  28.343   6.150
 8633POPC   GL267682  35.975  28.377   6.150
 8633POPC   C1A67683  36.111  28.331   6.450
 8633POPC   D2A67684  36.114  28.401   6.750
 8633POPC   C3A67685  36.098  28.396   7.050
 8633POPC   C4A67686  36.162  28.407   7.350
 8633POPC   C1B67687  35.903  28.366   6.450
 8633POPC   C2B67688  35.872  28.358   6.750
 8633POPC   C3B67689  35.891  28.320   7.050
 8633POPC   C4B67690  35.924  28.366   7.350
 8634POPC   NC367691  14.361  15.184   5.550
 8634POPC   PO467692  14.370  15.224   5.850
 8634POPC   GL167693  14.398  15.189   6.150
 8634POPC   GL267694  14.292  15.227   6.150
 8634POPC   C1A67695  14.355  15.227   6.450
 8634POPC   D2A67696  14.409  15.196   6.750
 8634POPC   C3A67697  14.378  15.219   7.050
 8634POPC   C4A67698  14.365  15.179   7.350
 8634POPC   C1B67699  14.177  15.312   6.450
 8634POPC   C2B67700  14.223  15.365   6.750
 8634POPC   C3B67701  14.200  15.281   7.050
 8634POPC   C4B67702  14.247  15.278   7.350
 8635POPC   NC367703  33.018  36.900   5.550
 8635POPC   PO467704  33.038  36.859   5.850
 8635POPC   GL167705  33.070  36.924   6.150
 8635POPC   GL267706  32.909  36.785   6.150
 8635POPC   C1A67707  33.010  36.945   6.450
 8635POPC   D2A67708  33.048  36.893   6.750
 8635POPC   C3A67709  33.067  36.948   7.050
 8635POPC   C4A67710  32.976  36.863   7.350
 8635POPC   C1B67711  32.879  36.717   6.450
 8635POPC   C2B67712  32.909  36.686   6.750
 8635POPC   C3B67713  32.921  36.672   7.050
 8635POPC   C4B67714  32.903  36.662   7.350
 8636POPC   NC367715  21.353  43.068   5.550
 8636POPC   PO467716  21.342  43.141   5.850
 8636POPC   GL167717  21.416  43.118   6.150
 8636POPC   GL267718  21.284  43.012   6.150
 8636POPC   C1A67719  21.415  43.114   6.450
 8636POPC   D2A67720  21.422  43.139   6.750
 8636POPC   C3A67721  21.376  43.156   7.050
 8636POPC   C4A67722  21.399  43.124   7.350
 8636POPC   C1B67723  21.283  42.913   6.450
 8636POPC   C2B67724  21.271  42.838   6.750
 8636POPC   C3B67725  21.253  42.867   7.050
 8636POPC   C4B67726  21.244  42.867   7.350
 8637POPC   NC367727   8.241  15.227   5.550
 8637POPC   PO467728   8.168  15.167   5.850
 8637POPC   GL167729   8.227  15.147   6.150
 8637POPC   GL267730   8.083  15.204   6.150
 8637POPC   C1A67731   8.200  15.160   6.450
 8637POPC   D2A67732   8.202  15.155   6.750
 8637POPC   C3A67733   8.190  15.169   7.050
 8637POPC   C4A67734   8.195  15.189   7.350
 8637POPC   C1B67735   7.961  15.312   6.450
 8637POPC   C2B67736   7.968  15.300   6.750
 8637POPC   C3B67737   7.991  15.268   7.050
 8637POPC   C4B67738   8.004  15.248   7.350
 8638POPC   NC367739  32.275  27.642   5.550
 8638POPC   PO467740  32.280  27.553   5.850
 8638POPC   GL167741  32.281  27.604   6.150
 8638POPC   GL267742  32.311  27.446   6.150
 8638POPC   C1A67743  32.227  27.641   6.450
 8638POPC   D2A67744  32.227  27.641   6.750
 8638POPC   C3A67745  32.290  27.618   7.050
 8638POPC   C4A67746  32.218  27.614   7.350
 8638POPC   C1B67747  32.367  27.422   6.450
 8638POPC   C2B67748  32.421  27.387   6.750
 8638POPC   C3B67749  32.368  27.404   7.050
 8638POPC   C4B67750  32.361  27.375   7.350
 8639POPC   NC367751  21.395  17.527   5.550
 8639POPC   PO467752  21.410  17.554   5.850
 8639POPC   GL167753  21.406  17.549   6.150
 8639POPC   GL267754  21.359  17.419   6.150
 8639POPC   C1A67755  21.394  17.495   6.450
 8639POPC   D2A67756  21.346  17.500   6.750
 8639POPC   C3A67757  21.392  17.470   7.050
 8639POPC   C4A67758  21.359  17.557   7.350
 8639POPC   C1B67759  21.346  17.289   6.450
 8639POPC   C2B67760  21.403  17.214   6.750
 8639POPC   C3B67761  21.386  17.306   7.050
 8639POPC   C4B67762  21.386  17.262   7.350
 8640POPC   NC367763   2.731  33.013   5.550
 8640POPC   PO467764   2.728  33.067   5.850
 8640POPC   GL167765   2.741  33.031   6.150
 8640POPC   GL267766   2.837  33.196   6.150
 8640POPC   C1A67767   2.739  33.057   6.450
 8640POPC   D2A67768   2.716  33.026   6.750
 8640POPC   C3A67769   2.771  32.988   7.050
 8640POPC   C4A67770   2.764  32.999   7.350
 8640POPC   C1B67771   2.841  33.237   6.450
 8640POPC   C2B67772   2.777  33.293   6.750
 8640POPC   C3B67773   2.773  33.249   7.050
 8640POPC   C4B67774   2.797  33.268   7.350
 8641POPC   NC367775  31.503  21.404   5.550
 8641POPC   PO467776  31.459  21.390   5.850
 8641POPC   GL167777  31.506  21.346   6.150
 8641POPC   GL267778  31.506  21.243   6.150
 8641POPC   C1A67779  31.440  21.414   6.450
 8641POPC   D2A67780  31.489  21.413   6.750
 8641POPC   C3A67781  31.502  21.351   7.050
 8641POPC   C4A67782  31.497  21.359   7.350
 8641POPC   C1B67783  31.609  21.197   6.450
 8641POPC   C2B67784  31.577  21.152   6.750
 8641POPC   C3B67785  31.606  21.160   7.050
 8641POPC   C4B67786  31.533  21.157   7.350
 8642POPC   NC367787  11.349  38.421   5.550
 8642POPC   PO467788  11.274  38.479   5.850
 8642POPC   GL167789  11.278  38.459   6.150
 8642POPC   GL267790  11.237  38.346   6.150
 8642POPC   C1A67791  11.300  38.477   6.450
 8642POPC   D2A67792  11.274  38.478   6.750
 8642POPC   C3A67793  11.315  38.443   7.050
 8642POPC   C4A67794  11.341  38.425   7.350
 8642POPC   C1B67795  11.177  38.293   6.450
 8642POPC   C2B67796  11.105  38.288   6.750
 8642POPC   C3B67797  11.157  38.293   7.050
 8642POPC   C4B67798  11.123  38.258   7.350
 8643POPC   NC367799   2.791  38.434   5.550
 8643POPC   PO467800   2.758  38.428   5.850
 8643POPC   GL167801   2.814  38.493   6.150
 8643POPC   GL267802   2.738  38.599   6.150
 8643POPC   C1A67803   2.782  38.446   6.450
 8643POPC   D2A67804   2.804  38.421   6.750
 8643POPC   C3A67805   2.720  38.439   7.050
 8643POPC   C4A67806   2.813  38.434   7.350
 8643POPC   C1B67807   2.721  38.740   6.450
 8643POPC   C2B67808   2.729  38.713   6.750
 8643POPC   C3B67809   2.735  38.727   7.050
 8643POPC   C4B67810   2.747  38.710   7.350
 8644POPC   NC367811  36.160  43.159   5.550
 8644POPC   PO467812  36.103  43.139   5.850
 8644POPC   GL167813  36.148  43.121   6.150
 8644POPC   GL267814  36.126  43.248   6.150
 8644POPC   C1A67815  36.165  43.099   6.450
 8644POPC   D2A67816  36.175  43.122   6.750
 8644POPC   C3A67817  36.166  43.082   7.050
 8644POPC   C4A67818  36.130  43.110   7.350
 8644POPC   C1B67819  36.166  43.309   6.450
 8644POPC   C2B67820  36.166  43.331   6.750
 8644POPC   C3B67821  36.215  43.305   7.050
 8644POPC   C4B67822  36.188  43.300   7.350
 8645POPC   NC367823  19.859   7.459   5.550
 8645POPC   PO467824  19.797   7.432   5.850
 8645POPC   GL167825  19.842   7.406   6.150
 8645POPC   GL267826  19.848   7.565   6.150
 8645POPC   C1A67827  19.826   7.373   6.450
 8645POPC   D2A67828  19.791   7.372   6.750
 8645POPC   C3A67829  19.863   7.467   7.050
 8645POPC   C4A67830  19.844   7.462   7.350
 8645POPC   C1B67831  19.762   7.636   6.450
 8645POPC   C2B67832  19.819   7.617   6.750
 8645POPC   C3B67833  19.750   7.659   7.050
 8645POPC   C4B67834  19.743   7.715   7.350
 8646POPC   NC367835  36.877   5.820   5.550
 8646POPC   PO467836  36.899   5.895   5.850
 8646POPC   GL167837  36.878   5.899   6.150
 8646POPC   GL267838  36.881   5.754   6.150
 8646POPC   C1A67839  36.921   5.911   6.450
 8646POPC   D2A67840  36.912   5.821   6.750
 8646POPC   C3A67841  36.893   5.881   7.050
 8646POPC   C4A67842  36.917   5.907   7.350
 8646POPC   C1B67843  36.920   5.591   6.450
 8646POPC   C2B67844  36.940   5.581   6.750
 8646POPC   C3B67845  36.861   5.627   7.050
 8646POPC   C4B67846  36.945   5.578   7.350
 8647POPC   NC367847   8.154  39.269   5.550
 8647POPC   PO467848   8.218  39.249   5.850
 8647POPC   GL167849   8.201  39.271   6.150
 8647POPC   GL267850   8.270  39.123   6.150
 8647POPC   C1A67851   8.148  39.225   6.450
 8647POPC   D2A67852   8.211  39.228   6.750
 8647POPC   C3A67853   8.187  39.230   7.050
 8647POPC   C4A67854   8.227  39.278   7.350
 8647POPC   C1B67855   8.357  39.032   6.450
 8647POPC   C2B67856   8.300  39.057   6.750
 8647POPC   C3B67857   8.309  39.011   7.050
 8647POPC   C4B67858   8.322  39.021   7.350
 8648POPC   NC367859  19.056  11.259   5.550
 8648POPC   PO467860  19.105  11.278   5.850
 8648POPC   GL167861  19.058  11.295   6.150
 8648POPC   GL267862  19.048  11.166   6.150
 8648POPC   C1A67863  19.023  11.310   6.450
 8648POPC   D2A67864  19.071  11.309   6.750
 8648POPC   C3A67865  19.106  11.298   7.050
 8648POPC   C4A67866  19.032  11.309   7.350
 8648POPC   C1B67867  18.951  11.092   6.450
 8648POPC   C2B67868  18.938  11.065   6.750
 8648POPC   C3B67869  18.963  11.032   7.050
 8648POPC   C4B67870  18.924  11.072   7.350
 8649POPC   NC367871  20.605  15.151   5.550
 8649POPC   PO467872  20.632  15.213   5.850
 8649POPC   GL167873  20.617  15.175   6.150
 8649POPC   GL267874  20.610  15.290   6.150
 8649POPC   C1A67875  20.646  15.149   6.450
 8649POPC   D2A67876  20.615  15.136   6.750
 8649POPC   C3A67877  20.625  15.143   7.050
 8649POPC   C4A67878  20.625  15.154   7.350
 8649POPC   C1B67879  20.719  15.430   6.450
 8649POPC   C2B67880  20.681  15.438   6.750
 8649POPC   C3B67881  20.655  15.421   7.050
 8649POPC   C4B67882  20.711  15.379   7.350
 8650POPC   NC367883  14.371   6.652   5.550
 8650POPC   PO467884  14.435   6.648   5.850
 8650POPC   GL167885  14.414   6.631   6.150
 8650POPC   GL267886  14.416   6.817   6.150
 8650POPC   C1A67887  14.358   6.606   6.450
 8650POPC   D2A67888  14.381   6.643   6.750
 8650POPC   C3A67889  14.408   6.685   7.050
 8650POPC   C4A67890  14.380   6.621   7.350
 8650POPC   C1B67891  14.427   6.850   6.450
 8650POPC   C2B67892  14.400   6.914   6.750
 8650POPC   C3B67893  14.410   6.886   7.050
 8650POPC   C4B67894  14.423   6.858   7.350
 8651POPC   NC367895   3.542  33.801   5.550
 8651POPC   PO467896   3.527  33.782   5.850
 8651POPC   GL167897   3.536  33.827   6.150
 8651POPC   GL267898   3.614  33.689   6.150
 8651POPC   C1A67899   3.516  33.779   6.450
 8651POPC   D2A67900   3.579  33.805   6.750
 8651POPC   C3A67901   3.580  33.835   7.050
 8651POPC   C4A67902   3.540  33.785   7.350
 8651POPC   C1B67903   3.665  33.602   6.450
 8651POPC   C2B67904   3.723  33.580   6.750
 8651POPC   C3B67905   3.679  33.539   7.050
 8651POPC   C4B67906   3.645  33.623   7.350
 8652POPC   NC367907   0.423   8.958   5.550
 8652POPC   PO467908   0.391   8.938   5.850
 8652POPC   GL167909   0.457   9.022   6.150
 8652POPC   GL267910   0.582   8.940   6.150
 8652POPC   C1A67911   0.403   8.974   6.450
 8652POPC   D2A67912   0.447   8.963   6.750
 8652POPC   C3A67913   0.481   9.002   7.050
 8652POPC   C4A67914   0.407   8.972   7.350
 8652POPC   C1B67915   0.675   8.875   6.450
 8652POPC   C2B67916   0.639   8.871   6.750
 8652POPC   C3B67917   0.701   8.826   7.050
 8652POPC   C4B67918   0.696   8.808   7.350
 8653POPC   NC367919  11.257  17.501   5.550
 8653POPC   PO467920  11.274  17.530   5.850
 8653POPC   GL167921  11.324  17.502   6.150
 8653POPC   GL267922  11.434  17.528   6.150
 8653POPC   C1A67923  11.284  17.516   6.450
 8653POPC   D2A67924  11.308  17.551   6.750
 8653POPC   C3A67925  11.314  17.552   7.050
 8653POPC   C4A67926  11.254  17.521   7.350
 8653POPC   C1B67927  11.464  17.664   6.450
 8653POPC   C2B67928  11.554  17.684   6.750
 8653POPC   C3B67929  11.533  17.603   7.050
 8653POPC   C4B67930  11.505  17.592   7.350
 8654POPC   NC367931  19.067  24.512   5.550
 8654POPC   PO467932  19.062  24.488   5.850
 8654POPC   GL167933  19.085  24.486   6.150
 8654POPC   GL267934  19.191  24.425   6.150
 8654POPC   C1A67935  19.037  24.503   6.450
 8654POPC   D2A67936  19.080  24.460   6.750
 8654POPC   C3A67937  19.028  24.490   7.050
 8654POPC   C4A67938  19.107  24.443   7.350
 8654POPC   C1B67939  19.268  24.417   6.450
 8654POPC   C2B67940  19.313  24.436   6.750
 8654POPC   C3B67941  19.271  24.463   7.050
 8654POPC   C4B67942  19.345  24.438   7.350
 8655POPC   NC367943  12.089   6.610   5.550
 8655POPC   PO467944  12.105   6.642   5.850
 8655POPC   GL167945  12.116   6.659   6.150
 8655POPC   GL267946  11.997   6.767   6.150
 8655POPC   C1A67947  12.103   6.642   6.450
 8655POPC   D2A67948  12.116   6.654   6.750
 8655POPC   C3A67949  12.031   6.690   7.050
 8655POPC   C4A67950  12.080   6.668   7.350
 8655POPC   C1B67951  11.921   6.863   6.450
 8655POPC   C2B67952  11.939   6.832   6.750
 8655POPC   C3B67953  11.869   6.825   7.050
 8655POPC   C4B67954  11.899   6.793   7.350
 8656POPC   NC367955   9.703   8.940   5.550
 8656POPC   PO467956   9.753   8.944   5.850
 8656POPC   GL167957   9.767   9.008   6.150
 8656POPC   GL267958   9.626   9.070   6.150
 8656POPC   C1A67959   9.770   8.976   6.450
 8656POPC   D2A67960   9.731   8.964   6.750
 8656POPC   C3A67961   9.737   8.940   7.050
 8656POPC   C4A67962   9.798   8.992   7.350
 8656POPC   C1B67963   9.581   9.139   6.450
 8656POPC   C2B67964   9.538   9.172   6.750
 8656POPC   C3B67965   9.605   9.186   7.050
 8656POPC   C4B67966   9.551   9.152   7.350
 8657POPC   NC367967   3.591   4.288   5.550
 8657POPC   PO467968   3.551   4.339   5.850
 8657POPC   GL167969   3.509   4.315   6.150
 8657POPC   GL267970   3.502   4.206   6.150
 8657POPC   C1A67971   3.548   4.309   6.450
 8657POPC   D2A67972   3.522   4.275   6.750
 8657POPC   C3A67973   3.583   4.284   7.050
 8657POPC   C4A67974   3.565   4.366   7.350
 8657POPC   C1B67975   3.528   4.049   6.450
 8657POPC   C2B67976   3.554   4.072   6.750
 8657POPC   C3B67977   3.504   4.025   7.050
 8657POPC   C4B67978   3.557   4.057   7.350
 8658POPC   NC367979  32.228  12.843   5.550
 8658POPC   PO467980  32.215  12.804   5.850
 8658POPC   GL167981  32.270  12.881   6.150
 8658POPC   GL267982  32.302  12.806   6.150
 8658POPC   C1A67983  32.204  12.855   6.450
 8658POPC   D2A67984  32.266  12.823   6.750
 8658POPC   C3A67985  32.201  12.839   7.050
 8658POPC   C4A67986  32.232  12.845   7.350
 8658POPC   C1B67987  32.410  12.644   6.450
 8658POPC   C2B67988  32.408  12.717   6.750
 8658POPC   C3B67989  32.431  12.660   7.050
 8658POPC   C4B67990  32.430  12.648   7.350
 8659POPC   NC367991  29.114   0.456   5.550
 8659POPC   PO467992  29.178   0.456   5.850
 8659POPC   GL167993  29.101   0.409   6.150
 8659POPC   GL267994  28.996   0.380   6.150
 8659POPC   C1A67995  29.188   0.485   6.450
 8659POPC   D2A67996  29.169   0.416   6.750
 8659POPC   C3A67997  29.105   0.391   7.050
 8659POPC   C4A67998  29.152   0.422   7.350
 8659POPC   C1B67999  28.918   0.331   6.450
 8659POPC   C2B68000  28.949   0.318   6.750
 8659POPC   C3B68001  28.927   0.354   7.050
 8659POPC   C4B68002  28.918   0.350   7.350
 8660POPC   NC368003  36.950   3.495   5.550
 8660POPC   PO468004  36.927   3.500   5.850
 8660POPC   GL168005  36.940   3.570   6.150
 8660POPC   GL268006  36.967   3.663   6.150
 8660POPC   C1A68007  36.943   3.583   6.450
 8660POPC   D2A68008  36.895   3.502   6.750
 8660POPC   C3A68009  36.945   3.516   7.050
 8660POPC   C4A68010  36.901   3.569   7.350
 8660POPC   C1B68011  37.101   3.647   6.450
 8660POPC   C2B68012  37.059   3.729   6.750
 8660POPC   C3B68013  37.059   3.658   7.050
 8660POPC   C4B68014  37.075   3.732   7.350
 8661POPC   NC368015  35.319  34.543   5.550
 8661POPC   PO468016  35.311  34.551   5.850
 8661POPC   GL168017  35.351  34.529   6.150
 8661POPC   GL268018  35.290  34.495   6.150
 8661POPC   C1A68019  35.342  34.550   6.450
 8661POPC   D2A68020  35.334  34.602   6.750
 8661POPC   C3A68021  35.336  34.591   7.050
 8661POPC   C4A68022  35.375  34.572   7.350
 8661POPC   C1B68023  35.223  34.319   6.450
 8661POPC   C2B68024  35.215  34.351   6.750
 8661POPC   C3B68025  35.256  34.383   7.050
 8661POPC   C4B68026  35.229  34.375   7.350
 8662POPC   NC368027  40.789  21.429   5.550
 8662POPC   PO468028  40.824  21.412   5.850
 8662POPC   GL168029  40.788  21.434   6.150
 8662POPC   GL268030  40.835  21.464   6.150
 8662POPC   C1A68031  40.773  21.408   6.450
 8662POPC   D2A68032  40.783  21.342   6.750
 8662POPC   C3A68033  40.813  21.349   7.050
 8662POPC   C4A68034  40.758  21.341   7.350
 8662POPC   C1B68035  40.765  21.652   6.450
 8662POPC   C2B68036  40.827  21.603   6.750
 8662POPC   C3B68037  40.762  21.673   7.050
 8662POPC   C4B68038  40.831  21.685   7.350
 8663POPC   NC368039   1.948  25.259   5.550
 8663POPC   PO468040   1.973  25.252   5.850
 8663POPC   GL168041   2.022  25.218   6.150
 8663POPC   GL268042   1.953  25.397   6.150
 8663POPC   C1A68043   2.014  25.265   6.450
 8663POPC   D2A68044   1.998  25.251   6.750
 8663POPC   C3A68045   1.964  25.240   7.050
 8663POPC   C4A68046   2.030  25.284   7.350
 8663POPC   C1B68047   1.895  25.542   6.450
 8663POPC   C2B68048   1.855  25.470   6.750
 8663POPC   C3B68049   1.921  25.524   7.050
 8663POPC   C4B68050   1.910  25.475   7.350
 8664POPC   NC368051  36.881  14.418   5.550
 8664POPC   PO468052  36.948  14.388   5.850
 8664POPC   GL168053  36.937  14.428   6.150
 8664POPC   GL268054  36.805  14.494   6.150
 8664POPC   C1A68055  36.858  14.440   6.450
 8664POPC   D2A68056  36.886  14.369   6.750
 8664POPC   C3A68057  36.910  14.396   7.050
 8664POPC   C4A68058  36.858  14.361   7.350
 8664POPC   C1B68059  36.828  14.669   6.450
 8664POPC   C2B68060  36.809  14.597   6.750
 8664POPC   C3B68061  36.847  14.665   7.050
 8664POPC   C4B68062  36.810  14.631   7.350
 8665POPC   NC368063  26.801  10.532   5.550
 8665POPC   PO468064  26.813  10.528   5.850
 8665POPC   GL168065  26.804  10.553   6.150
 8665POPC   GL268066  26.775  10.627   6.150
 8665POPC   C1A68067  26.811  10.498   6.450
 8665POPC   D2A68068  26.843  10.481   6.750
 8665POPC   C3A68069  26.801  10.548   7.050
 8665POPC   C4A68070  26.800  10.484   7.350
 8665POPC   C1B68071  26.734  10.746   6.450
 8665POPC   C2B68072  26.734  10.813   6.750
 8665POPC   C3B68073  26.769  10.752   7.050
 8665POPC   C4B68074  26.796  10.815   7.350
 8666POPC   NC368075   7.408   5.048   5.550
 8666POPC   PO468076   7.372   5.077   5.850
 8666POPC   GL168077   7.403   5.132   6.150
 8666POPC   GL268078   7.503   5.113   6.150
 8666POPC   C1A68079   7.374   5.103   6.450
 8666POPC   D2A68080   7.427   5.096   6.750
 8666POPC   C3A68081   7.463   5.072   7.050
 8666POPC   C4A68082   7.453   5.052   7.350
 8666POPC   C1B68083   7.594   5.223   6.450
 8666POPC   C2B68084   7.667   5.231   6.750
 8666POPC   C3B68085   7.668   5.222   7.050
 8666POPC   C4B68086   7.618   5.201   7.350
 8667POPC   NC368087  10.520   5.127   5.550
 8667POPC   PO468088  10.533   5.090   5.850
 8667POPC   GL168089  10.517   5.106   6.150
 8667POPC   GL268090  10.536   5.245   6.150
 8667POPC   C1A68091  10.482   5.069   6.450
 8667POPC   D2A68092  10.519   5.088   6.750
 8667POPC   C3A68093  10.479   5.063   7.050
 8667POPC   C4A68094  10.485   5.128   7.350
 8667POPC   C1B68095  10.628   5.385   6.450
 8667POPC   C2B68096  10.564   5.295   6.750
 8667POPC   C3B68097  10.584   5.357   7.050
 8667POPC   C4B68098  10.538   5.352   7.350
 8668POPC   NC368099  19.044  12.051   5.550
 8668POPC   PO468100  19.022  12.052   5.850
 8668POPC   GL168101  19.043  12.027   6.150
 8668POPC   GL268102  19.152  12.058   6.150
 8668POPC   C1A68103  19.010  12.110   6.450
 8668POPC   D2A68104  19.082  12.056   6.750
 8668POPC   C3A68105  19.053  12.120   7.050
 8668POPC   C4A68106  19.025  12.039   7.350
 8668POPC   C1B68107  19.293  11.960   6.450
 8668POPC   C2B68108  19.292  12.041   6.750
 8668POPC   C3B68109  19.249  11.978   7.050
 8668POPC   C4B68110  19.301  11.972   7.350
 8669POPC   NC368111  26.057  19.013   5.550
 8669POPC   PO468112  26.017  19.050   5.850
 8669POPC   GL168113  26.006  19.026   6.150
 8669POPC   GL268114  26.045  18.960   6.150
 8669POPC   C1A68115  26.020  19.083   6.450
 8669POPC   D2A68116  26.091  19.035   6.750
 8669POPC   C3A68117  26.025  19.019   7.050
 8669POPC   C4A68118  26.068  19.085   7.350
 8669POPC   C1B68119  25.985  18.860   6.450
 8669POPC   C2B68120  25.973  18.803   6.750
 8669POPC   C3B68121  25.999  18.793   7.050
 8669POPC   C4B68122  25.960  18.785   7.350
 8670POPC   NC368123  30.694  13.612   5.550
 8670POPC   PO468124  30.732  13.599   5.850
 8670POPC   GL168125  30.690  13.597   6.150
 8670POPC   GL268126  30.767  13.581   6.150
 8670POPC   C1A68127  30.741  13.619   6.450
 8670POPC   D2A68128  30.735  13.675   6.750
 8670POPC   C3A68129  30.745  13.588   7.050
 8670POPC   C4A68130  30.746  13.590   7.350
 8670POPC   C1B68131  30.860  13.532   6.450
 8670POPC   C2B68132  30.889  13.506   6.750
 8670POPC   C3B68133  30.881  13.457   7.050
 8670POPC   C4B68134  30.923  13.455   7.350
 8671POPC   NC368135  19.032  39.220   5.550
 8671POPC   PO468136  19.014  39.272   5.850
 8671POPC   GL168137  19.069  39.229   6.150
 8671POPC   GL268138  19.008  39.400   6.150
 8671POPC   C1A68139  19.013  39.273   6.450
 8671POPC   D2A68140  19.026  39.279   6.750
 8671POPC   C3A68141  19.093  39.269   7.050
 8671POPC   C4A68142  19.021  39.280   7.350
 8671POPC   C1B68143  19.052  39.448   6.450
 8671POPC   C2B68144  19.012  39.483   6.750
 8671POPC   C3B68145  18.990  39.516   7.050
 8671POPC   C4B68146  18.991  39.459   7.350
 8672POPC   NC368147  30.742  25.993   5.550
 8672POPC   PO468148  30.731  26.087   5.850
 8672POPC   GL168149  30.666  26.020   6.150
 8672POPC   GL268150  30.652  25.907   6.150
 8672POPC   C1A68151  30.703  26.034   6.450
 8672POPC   D2A68152  30.662  26.050   6.750
 8672POPC   C3A68153  30.691  26.041   7.050
 8672POPC   C4A68154  30.716  26.013   7.350
 8672POPC   C1B68155  30.564  25.876   6.450
 8672POPC   C2B68156  30.530  25.836   6.750
 8672POPC   C3B68157  30.511  25.850   7.050
 8672POPC   C4B68158  30.582  25.852   7.350
 8673POPC   NC368159  33.058  26.072   5.550
 8673POPC   PO468160  33.005  26.073   5.850
 8673POPC   GL168161  33.037  26.089   6.150
 8673POPC   GL268162  32.974  26.143   6.150
 8673POPC   C1A68163  32.979  26.010   6.450
 8673POPC   D2A68164  33.011  26.030   6.750
 8673POPC   C3A68165  33.036  26.035   7.050
 8673POPC   C4A68166  33.055  26.075   7.350
 8673POPC   C1B68167  32.921  26.331   6.450
 8673POPC   C2B68168  32.972  26.327   6.750
 8673POPC   C3B68169  32.926  26.256   7.050
 8673POPC   C4B68170  32.971  26.295   7.350
 8674POPC   NC368171  26.791   2.744   5.550
 8674POPC   PO468172  26.797   2.756   5.850
 8674POPC   GL168173  26.799   2.783   6.150
 8674POPC   GL268174  26.943   2.800   6.150
 8674POPC   C1A68175  26.835   2.731   6.450
 8674POPC   D2A68176  26.812   2.739   6.750
 8674POPC   C3A68177  26.843   2.768   7.050
 8674POPC   C4A68178  26.787   2.775   7.350
 8674POPC   C1B68179  27.053   2.785   6.450
 8674POPC   C2B68180  27.037   2.753   6.750
 8674POPC   C3B68181  27.020   2.796   7.050
 8674POPC   C4B68182  27.088   2.714   7.350
 8675POPC   NC368183   3.532  22.171   5.550
 8675POPC   PO468184   3.532  22.193   5.850
 8675POPC   GL168185   3.539  22.200   6.150
 8675POPC   GL268186   3.422  22.147   6.150
 8675POPC   C1A68187   3.519  22.142   6.450
 8675POPC   D2A68188   3.557  22.182   6.750
 8675POPC   C3A68189   3.574  22.179   7.050
 8675POPC   C4A68190   3.545  22.164   7.350
 8675POPC   C1B68191   3.340  22.110   6.450
 8675POPC   C2B68192   3.300  22.097   6.750
 8675POPC   C3B68193   3.331  22.046   7.050
 8675POPC   C4B68194   3.334  22.049   7.350
 8676POPC   NC368195  10.497  26.072   5.550
 8676POPC   PO468196  10.504  26.005   5.850
 8676POPC   GL168197  10.550  26.038   6.150
 8676POPC   GL268198  10.571  25.939   6.150
 8676POPC   C1A68199  10.538  26.025   6.450
 8676POPC   D2A68200  10.523  26.036   6.750
 8676POPC   C3A68201  10.511  26.077   7.050
 8676POPC   C4A68202  10.568  26.031   7.350
 8676POPC   C1B68203  10.638  25.841   6.450
 8676POPC   C2B68204  10.699  25.844   6.750
 8676POPC   C3B68205  10.616  25.848   7.050
 8676POPC   C4B68206  10.701  25.785   7.350
 8677POPC   NC368207  29.119  38.452   5.550
 8677POPC   PO468208  29.157  38.496   5.850
 8677POPC   GL168209  29.137  38.495   6.150
 8677POPC   GL268210  29.200  38.609   6.150
 8677POPC   C1A68211  29.161  38.502   6.450
 8677POPC   D2A68212  29.119  38.415   6.750
 8677POPC   C3A68213  29.135  38.450   7.050
 8677POPC   C4A68214  29.136  38.454   7.350
 8677POPC   C1B68215  29.126  38.664   6.450
 8677POPC   C2B68216  29.141  38.676   6.750
 8677POPC   C3B68217  29.168  38.742   7.050
 8677POPC   C4B68218  29.131  38.662   7.350
 8678POPC   NC368219  40.789  18.269   5.550
 8678POPC   PO468220  40.818  18.283   5.850
 8678POPC   GL168221  40.751  18.253   6.150
 8678POPC   GL268222  40.754  18.115   6.150
 8678POPC   C1A68223  40.768  18.284   6.450
 8678POPC   D2A68224  40.752  18.320   6.750
 8678POPC   C3A68225  40.819  18.260   7.050
 8678POPC   C4A68226  40.759  18.280   7.350
 8678POPC   C1B68227  40.673  18.025   6.450
 8678POPC   C2B68228  40.677  18.081   6.750
 8678POPC   C3B68229  40.723  18.043   7.050
 8678POPC   C4B68230  40.673  18.050   7.350
 8679POPC   NC368231  18.313  38.410   5.550
 8679POPC   PO468232  18.331  38.432   5.850
 8679POPC   GL168233  18.246  38.447   6.150
 8679POPC   GL268234  18.423  38.362   6.150
 8679POPC   C1A68235  18.330  38.407   6.450
 8679POPC   D2A68236  18.284  38.435   6.750
 8679POPC   C3A68237  18.278  38.502   7.050
 8679POPC   C4A68238  18.265  38.490   7.350
 8679POPC   C1B68239  18.481  38.358   6.450
 8679POPC   C2B68240  18.539  38.312   6.750
 8679POPC   C3B68241  18.532  38.365   7.050
 8679POPC   C4B68242  18.458  38.328   7.350
 8680POPC   NC368243  40.792  28.364   5.550
 8680POPC   PO468244  40.786  28.328   5.850
 8680POPC   GL168245  40.757  28.397   6.150
 8680POPC   GL268246  40.669  28.378   6.150
 8680POPC   C1A68247  40.739  28.395   6.450
 8680POPC   D2A68248  40.739  28.391   6.750
 8680POPC   C3A68249  40.760  28.361   7.050
 8680POPC   C4A68250  40.774  28.403   7.350
 8680POPC   C1B68251  40.504  28.280   6.450
 8680POPC   C2B68252  40.504  28.303   6.750
 8680POPC   C3B68253  40.531  28.290   7.050
 8680POPC   C4B68254  40.545  28.316   7.350
 8681POPC   NC368255  37.721   5.121   5.550
 8681POPC   PO468256  37.640   5.065   5.850
 8681POPC   GL168257  37.639   5.058   6.150
 8681POPC   GL268258  37.714   5.012   6.150
 8681POPC   C1A68259  37.663   5.046   6.450
 8681POPC   D2A68260  37.682   5.083   6.750
 8681POPC   C3A68261  37.726   5.139   7.050
 8681POPC   C4A68262  37.696   5.051   7.350
 8681POPC   C1B68263  37.680   4.893   6.450
 8681POPC   C2B68264  37.713   4.845   6.750
 8681POPC   C3B68265  37.670   4.878   7.050
 8681POPC   C4B68266  37.681   4.805   7.350
 8682POPC   NC368267   5.908   2.005   5.550
 8682POPC   PO468268   5.824   2.039   5.850
 8682POPC   GL168269   5.893   1.951   6.150
 8682POPC   GL268270   5.755   2.039   6.150
 8682POPC   C1A68271   5.829   1.985   6.450
 8682POPC   D2A68272   5.835   2.001   6.750
 8682POPC   C3A68273   5.893   1.945   7.050
 8682POPC   C4A68274   5.843   1.978   7.350
 8682POPC   C1B68275   5.654   2.077   6.450
 8682POPC   C2B68276   5.658   2.084   6.750
 8682POPC   C3B68277   5.683   2.137   7.050
 8682POPC   C4B68278   5.682   2.119   7.350
 8683POPC   NC368279  14.433   1.199   5.550
 8683POPC   PO468280  14.409   1.196   5.850
 8683POPC   GL168281  14.388   1.244   6.150
 8683POPC   GL268282  14.267   1.289   6.150
 8683POPC   C1A68283  14.366   1.176   6.450
 8683POPC   D2A68284  14.368   1.204   6.750
 8683POPC   C3A68285  14.450   1.219   7.050
 8683POPC   C4A68286  14.413   1.171   7.350
 8683POPC   C1B68287  14.186   1.315   6.450
 8683POPC   C2B68288  14.143   1.340   6.750
 8683POPC   C3B68289  14.150   1.297   7.050
 8683POPC   C4B68290  14.131   1.284   7.350
 8684POPC   NC368291  24.528   4.305   5.550
 8684POPC   PO468292  24.493   4.333   5.850
 8684POPC   GL168293  24.464   4.306   6.150
 8684POPC   GL268294  24.607   4.296   6.150
 8684POPC   C1A68295  24.535   4.308   6.450
 8684POPC   D2A68296  24.499   4.328   6.750
 8684POPC   C3A68297  24.476   4.306   7.050
 8684POPC   C4A68298  24.458   4.268   7.350
 8684POPC   C1B68299  24.732   4.271   6.450
 8684POPC   C2B68300  24.785   4.258   6.750
 8684POPC   C3B68301  24.708   4.336   7.050
 8684POPC   C4B68302  24.763   4.251   7.350
 8685POPC   NC368303  32.246  11.343   5.550
 8685POPC   PO468304  32.242  11.302   5.850
 8685POPC   GL168305  32.210  11.336   6.150
 8685POPC   GL268306  32.313  11.435   6.150
 8685POPC   C1A68307  32.297  11.289   6.450
 8685POPC   D2A68308  32.203  11.327   6.750
 8685POPC   C3A68309  32.231  11.316   7.050
 8685POPC   C4A68310  32.246  11.285   7.350
 8685POPC   C1B68311  32.402  11.490   6.450
 8685POPC   C2B68312  32.403  11.535   6.750
 8685POPC   C3B68313  32.419  11.537   7.050
 8685POPC   C4B68314  32.442  11.489   7.350
 8686POPC   NC368315  43.844   5.872   5.550
 8686POPC   PO468316  43.896   5.899   5.850
 8686POPC   GL168317  43.915   5.847   6.150
 8686POPC   GL268318  43.779   5.827   6.150
 8686POPC   C1A68319  43.895   5.915   6.450
 8686POPC   D2A68320  43.894   5.905   6.750
 8686POPC   C3A68321  43.911   5.853   7.050
 8686POPC   C4A68322  43.933   5.853   7.350
 8686POPC   C1B68323  43.659   5.834   6.450
 8686POPC   C2B68324  43.661   5.873   6.750
 8686POPC   C3B68325  43.652   5.877   7.050
 8686POPC   C4B68326  43.661   5.782   7.350
 8687POPC   NC368327  23.688   1.963   5.550
 8687POPC   PO468328  23.701   2.021   5.850
 8687POPC   GL168329  23.669   2.038   6.150
 8687POPC   GL268330  23.789   1.905   6.150
 8687POPC   C1A68331  23.684   1.944   6.450
 8687POPC   D2A68332  23.720   1.991   6.750
 8687POPC   C3A68333  23.726   1.974   7.050
 8687POPC   C4A68334  23.665   2.039   7.350
 8687POPC   C1B68335  23.932   1.900   6.450
 8687POPC   C2B68336  23.985   1.882   6.750
 8687POPC   C3B68337  23.981   1.936   7.050
 8687POPC   C4B68338  23.909   1.921   7.350
 8688POPC   NC368339  15.985   4.289   5.550
 8688POPC   PO468340  15.974   4.316   5.850
 8688POPC   GL168341  15.963   4.346   6.150
 8688POPC   GL268342  16.062   4.187   6.150
 8688POPC   C1A68343  15.988   4.346   6.450
 8688POPC   D2A68344  15.921   4.282   6.750
 8688POPC   C3A68345  15.974   4.319   7.050
 8688POPC   C4A68346  15.991   4.347   7.350
 8688POPC   C1B68347  16.097   4.089   6.450
 8688POPC   C2B68348  16.093   4.112   6.750
 8688POPC   C3B68349  16.124   4.162   7.050
 8688POPC   C4B68350  16.069   4.102   7.350
 8689POPC   NC368351  36.866  43.154   5.550
 8689POPC   PO468352  36.857  43.081   5.850
 8689POPC   GL168353  36.898  43.114   6.150
 8689POPC   GL268354  36.867  42.990   6.150
 8689POPC   C1A68355  36.903  43.145   6.450
 8689POPC   D2A68356  36.870  43.089   6.750
 8689POPC   C3A68357  36.931  43.079   7.050
 8689POPC   C4A68358  36.940  43.103   7.350
 8689POPC   C1B68359  36.711  42.887   6.450
 8689POPC   C2B68360  36.742  42.880   6.750
 8689POPC   C3B68361  36.702  42.952   7.050
 8689POPC   C4B68362  36.760  42.900   7.350
 8690POPC   NC368363  43.101  33.834   5.550
 8690POPC   PO468364  43.094  33.792   5.850
 8690POPC   GL168365  43.153  33.818   6.150
 8690POPC   GL268366  42.959  33.815   6.150
 8690POPC   C1A68367  43.137  33.797   6.450
 8690POPC   D2A68368  43.125  33.774   6.750
 8690POPC   C3A68369  43.108  33.764   7.050
 8690POPC   C4A68370  43.098  33.839   7.350
 8690POPC   C1B68371  42.877  33.845   6.450
 8690POPC   C2B68372  42.911  33.859   6.750
 8690POPC   C3B68373  42.886  33.875   7.050
 8690POPC   C4B68374  42.840  33.912   7.350
 8691POPC   NC368375  42.363   4.299   5.550
 8691POPC   PO468376  42.368   4.363   5.850
 8691POPC   GL168377  42.319   4.363   6.150
 8691POPC   GL268378  42.439   4.452   6.150
 8691POPC   C1A68379  42.381   4.354   6.450
 8691POPC   D2A68380  42.294   4.350   6.750
 8691POPC   C3A68381  42.299   4.279   7.050
 8691POPC   C4A68382  42.368   4.364   7.350
 8691POPC   C1B68383  42.481   4.466   6.450
 8691POPC   C2B68384  42.486   4.538   6.750
 8691POPC   C3B68385  42.464   4.459   7.050
 8691POPC   C4B68386  42.514   4.498   7.350
 8692POPC   NC368387  32.207  23.690   5.550
 8692POPC   PO468388  32.228  23.710   5.850
 8692POPC   GL168389  32.204  23.684   6.150
 8692POPC   GL268390  32.240  23.582   6.150
 8692POPC   C1A68391  32.254  23.668   6.450
 8692POPC   D2A68392  32.258  23.748   6.750
 8692POPC   C3A68393  32.201  23.692   7.050
 8692POPC   C4A68394  32.298  23.703   7.350
 8692POPC   C1B68395  32.193  23.455   6.450
 8692POPC   C2B68396  32.244  23.431   6.750
 8692POPC   C3B68397  32.246  23.507   7.050
 8692POPC   C4B68398  32.210  23.497   7.350
 8693POPC   NC368399  28.369   1.211   5.550
 8693POPC   PO468400  28.360   1.244   5.850
 8693POPC   GL168401  28.361   1.226   6.150
 8693POPC   GL268402  28.261   1.176   6.150
 8693POPC   C1A68403  28.394   1.207   6.450
 8693POPC   D2A68404  28.359   1.240   6.750
 8693POPC   C3A68405  28.412   1.188   7.050
 8693POPC   C4A68406  28.414   1.185   7.350
 8693POPC   C1B68407  28.116   1.251   6.450
 8693POPC   C2B68408  28.132   1.261   6.750
 8693POPC   C3B68409  28.155   1.251   7.050
 8693POPC   C4B68410  28.122   1.269   7.350
 8694POPC   NC368411  10.572   1.263   5.550
 8694POPC   PO468412  10.504   1.230   5.850
 8694POPC   GL168413  10.542   1.242   6.150
 8694POPC   GL268414  10.602   1.250   6.150
 8694POPC   C1A68415  10.510   1.217   6.450
 8694POPC   D2A68416  10.488   1.170   6.750
 8694POPC   C3A68417  10.573   1.206   7.050
 8694POPC   C4A68418  10.511   1.166   7.350
 8694POPC   C1B68419  10.681   1.429   6.450
 8694POPC   C2B68420  10.707   1.367   6.750
 8694POPC   C3B68421  10.709   1.337   7.050
 8694POPC   C4B68422  10.676   1.408   7.350
 8695POPC   NC368423  40.818   5.861   5.550
 8695POPC   PO468424  40.787   5.828   5.850
 8695POPC   GL168425  40.795   5.875   6.150
 8695POPC   GL268426  40.651   5.913   6.150
 8695POPC   C1A68427  40.810   5.869   6.450
 8695POPC   D2A68428  40.737   5.853   6.750
 8695POPC   C3A68429  40.780   5.824   7.050
 8695POPC   C4A68430  40.773   5.904   7.350
 8695POPC   C1B68431  40.516   5.948   6.450
 8695POPC   C2B68432  40.567   5.868   6.750
 8695POPC   C3B68433  40.551   5.948   7.050
 8695POPC   C4B68434  40.554   5.923   7.350
 8696POPC   NC368435  38.410  17.471   5.550
 8696POPC   PO468436  38.499  17.481   5.850
 8696POPC   GL168437  38.455  17.522   6.150
 8696POPC   GL268438  38.388  17.585   6.150
 8696POPC   C1A68439  38.430  17.505   6.450
 8696POPC   D2A68440  38.410  17.528   6.750
 8696POPC   C3A68441  38.465  17.518   7.050
 8696POPC   C4A68442  38.440  17.512   7.350
 8696POPC   C1B68443  38.186  17.593   6.450
 8696POPC   C2B68444  38.194  17.633   6.750
 8696POPC   C3B68445  38.250  17.594   7.050
 8696POPC   C4B68446  38.182  17.606   7.350
 8697POPC   NC368447  35.388   3.584   5.550
 8697POPC   PO468448  35.398   3.560   5.850
 8697POPC   GL168449  35.322   3.514   6.150
 8697POPC   GL268450  35.188   3.541   6.150
 8697POPC   C1A68451  35.390   3.562   6.450
 8697POPC   D2A68452  35.332   3.591   6.750
 8697POPC   C3A68453  35.331   3.574   7.050
 8697POPC   C4A68454  35.379   3.549   7.350
 8697POPC   C1B68455  35.132   3.583   6.450
 8697POPC   C2B68456  35.079   3.637   6.750
 8697POPC   C3B68457  35.083   3.645   7.050
 8697POPC   C4B68458  35.093   3.615   7.350
 8698POPC   NC368459   1.977   9.016   5.550
 8698POPC   PO468460   1.947   9.009   5.850
 8698POPC   GL168461   1.982   8.949   6.150
 8698POPC   GL268462   1.902   8.909   6.150
 8698POPC   C1A68463   1.971   8.990   6.450
 8698POPC   D2A68464   1.988   8.979   6.750
 8698POPC   C3A68465   1.971   8.957   7.050
 8698POPC   C4A68466   1.991   8.963   7.350
 8698POPC   C1B68467   1.803   8.858   6.450
 8698POPC   C2B68468   1.783   8.862   6.750
 8698POPC   C3B68469   1.782   8.803   7.050
 8698POPC   C4B68470   1.808   8.843   7.350
 8699POPC   NC368471  19.015  29.129   5.550
 8699POPC   PO468472  19.015  29.165   5.850
 8699POPC   GL168473  19.060  29.174   6.150
 8699POPC   GL268474  19.107  29.082   6.150
 8699POPC   C1A68475  19.106  29.156   6.450
 8699POPC   D2A68476  19.093  29.096   6.750
 8699POPC   C3A68477  19.093  29.114   7.050
 8699POPC   C4A68478  19.049  29.139   7.350
 8699POPC   C1B68479  19.262  29.003   6.450
 8699POPC   C2B68480  19.222  29.006   6.750
 8699POPC   C3B68481  19.227  28.965   7.050
 8699POPC   C4B68482  19.260  29.010   7.350
 8700POPC   NC368483  43.891   4.312   5.550
 8700POPC   PO468484  43.916   4.360   5.850
 8700POPC   GL168485  43.864   4.352   6.150
 8700POPC   GL268486  44.020   4.272   6.150
 8700POPC   C1A68487  43.889   4.294   6.450
 8700POPC   D2A68488  43.844   4.364   6.750
 8700POPC   C3A68489  43.935   4.311   7.050
 8700POPC   C4A68490  43.881   4.296   7.350
 8700POPC   C1B68491  44.150   4.259   6.450
 8700POPC   C2B68492  44.145   4.289   6.750
 8700POPC   C3B68493  44.147   4.264   7.050
 8700POPC   C4B68494  44.125   4.274   7.350
 8701POPC   NC368495   1.964  26.821   5.550
 8701POPC   PO468496   1.947  26.803   5.850
 8701POPC   GL168497   2.016  26.861   6.150
 8701POPC   GL268498   1.884  26.873   6.150
 8701POPC   C1A68499   2.010  26.818   6.450
 8701POPC   D2A68500   1.967  26.830   6.750
 8701POPC   C3A68501   1.947  26.839   7.050
 8701POPC   C4A68502   1.963  26.781   7.350
 8701POPC   C1B68503   1.842  26.946   6.450
 8701POPC   C2B68504   1.791  26.968   6.750
 8701POPC   C3B68505   1.767  26.964   7.050
 8701POPC   C4B68506   1.775  26.949   7.350
 8702POPC   NC368507  28.334  37.724   5.550
 8702POPC   PO468508  28.386  37.716   5.850
 8702POPC   GL168509  28.372  37.708   6.150
 8702POPC   GL268510  28.542  37.714   6.150
 8702POPC   C1A68511  28.369  37.704   6.450
 8702POPC   D2A68512  28.373  37.723   6.750
 8702POPC   C3A68513  28.417  37.683   7.050
 8702POPC   C4A68514  28.392  37.644   7.350
 8702POPC   C1B68515  28.586  37.727   6.450
 8702POPC   C2B68516  28.638  37.746   6.750
 8702POPC   C3B68517  28.570  37.725   7.050
 8702POPC   C4B68518  28.631  37.718   7.350
 8703POPC   NC368519  30.716   9.766   5.550
 8703POPC   PO468520  30.744   9.698   5.850
 8703POPC   GL168521  30.696   9.792   6.150
 8703POPC   GL268522  30.570   9.787   6.150
 8703POPC   C1A68523  30.684   9.726   6.450
 8703POPC   D2A68524  30.663   9.784   6.750
 8703POPC   C3A68525  30.695   9.780   7.050
 8703POPC   C4A68526  30.647   9.764   7.350
 8703POPC   C1B68527  30.413   9.695   6.450
 8703POPC   C2B68528  30.439   9.775   6.750
 8703POPC   C3B68529  30.447   9.743   7.050
 8703POPC   C4B68530  30.400   9.716   7.350
 8704POPC   NC368531  33.844  22.964   5.550
 8704POPC   PO468532  33.768  22.949   5.850
 8704POPC   GL168533  33.791  22.911   6.150
 8704POPC   GL268534  33.939  22.882   6.150
 8704POPC   C1A68535  33.816  22.967   6.450
 8704POPC   D2A68536  33.755  22.923   6.750
 8704POPC   C3A68537  33.812  22.928   7.050
 8704POPC   C4A68538  33.837  22.901   7.350
 8704POPC   C1B68539  34.000  22.961   6.450
 8704POPC   C2B68540  34.089  22.948   6.750
 8704POPC   C3B68541  33.999  22.964   7.050
 8704POPC   C4B68542  34.042  22.966   7.350
 8705POPC   NC368543  17.464  35.312   5.550
 8705POPC   PO468544  17.557  35.311   5.850
 8705POPC   GL168545  17.480  35.322   6.150
 8705POPC   GL268546  17.380  35.387   6.150
 8705POPC   C1A68547  17.501  35.349   6.450
 8705POPC   D2A68548  17.541  35.354   6.750
 8705POPC   C3A68549  17.494  35.387   7.050
 8705POPC   C4A68550  17.546  35.359   7.350
 8705POPC   C1B68551  17.273  35.448   6.450
 8705POPC   C2B68552  17.261  35.463   6.750
 8705POPC   C3B68553  17.220  35.470   7.050
 8705POPC   C4B68554  17.288  35.459   7.350
 8706POPC   NC368555  37.686  27.585   5.550
 8706POPC   PO468556  37.712  27.625   5.850
 8706POPC   GL168557  37.695  27.581   6.150
 8706POPC   GL268558  37.652  27.508   6.150
 8706POPC   C1A68559  37.657  27.567   6.450
 8706POPC   D2A68560  37.724  27.554   6.750
 8706POPC   C3A68561  37.721  27.572   7.050
 8706POPC   C4A68562  37.658  27.569   7.350
 8706POPC   C1B68563  37.550  27.392   6.450
 8706POPC   C2B68564  37.526  27.349   6.750
 8706POPC   C3B68565  37.564  27.377   7.050
 8706POPC   C4B68566  37.548  27.352   7.350
 8707POPC   NC368567  32.235  31.520   5.550
 8707POPC   PO468568  32.238  31.430   5.850
 8707POPC   GL168569  32.273  31.437   6.150
 8707POPC   GL268570  32.178  31.428   6.150
 8707POPC   C1A68571  32.260  31.449   6.450
 8707POPC   D2A68572  32.239  31.463   6.750
 8707POPC   C3A68573  32.276  31.448   7.050
 8707POPC   C4A68574  32.206  31.481   7.350
 8707POPC   C1B68575  31.999  31.362   6.450
 8707POPC   C2B68576  32.045  31.367   6.750
 8707POPC   C3B68577  32.070  31.299   7.050
 8707POPC   C4B68578  32.026  31.367   7.350
 8708POPC   NC368579   5.853  33.063   5.550
 8708POPC   PO468580   5.876  33.064   5.850
 8708POPC   GL168581   5.862  33.025   6.150
 8708POPC   GL268582   5.844  32.891   6.150
 8708POPC   C1A68583   5.849  33.071   6.450
 8708POPC   D2A68584   5.919  33.026   6.750
 8708POPC   C3A68585   5.836  33.006   7.050
 8708POPC   C4A68586   5.858  33.065   7.350
 8708POPC   C1B68587   5.684  32.852   6.450
 8708POPC   C2B68588   5.711  32.840   6.750
 8708POPC   C3B68589   5.758  32.782   7.050
 8708POPC   C4B68590   5.749  32.815   7.350
 8709POPC   NC368591  22.210  24.518   5.550
 8709POPC   PO468592  22.206  24.479   5.850
 8709POPC   GL168593  22.172  24.450   6.150
 8709POPC   GL268594  22.236  24.605   6.150
 8709POPC   C1A68595  22.209  24.477   6.450
 8709POPC   D2A68596  22.157  24.505   6.750
 8709POPC   C3A68597  22.162  24.446   7.050
 8709POPC   C4A68598  22.161  24.461   7.350
 8709POPC   C1B68599  22.203  24.683   6.450
 8709POPC   C2B68600  22.281  24.748   6.750
 8709POPC   C3B68601  22.261  24.687   7.050
 8709POPC   C4B68602  22.243  24.752   7.350
 8710POPC   NC368603  43.926   5.054   5.550
 8710POPC   PO468604  43.856   5.137   5.850
 8710POPC   GL168605  43.916   5.115   6.150
 8710POPC   GL268606  43.762   5.060   6.150
 8710POPC   C1A68607  43.893   5.048   6.450
 8710POPC   D2A68608  43.880   5.129   6.750
 8710POPC   C3A68609  43.841   5.140   7.050
 8710POPC   C4A68610  43.837   5.117   7.350
 8710POPC   C1B68611  43.593   5.077   6.450
 8710POPC   C2B68612  43.606   5.057   6.750
 8710POPC   C3B68613  43.596   5.134   7.050
 8710POPC   C4B68614  43.663   5.073   7.350
 8711POPC   NC368615  18.252  13.652   5.550
 8711POPC   PO468616  18.242  13.640   5.850
 8711POPC   GL168617  18.290  13.662   6.150
 8711POPC   GL268618  18.401  13.664   6.150
 8711POPC   C1A68619  18.252  13.627   6.450
 8711POPC   D2A68620  18.242  13.648   6.750
 8711POPC   C3A68621  18.276  13.596   7.050
 8711POPC   C4A68622  18.252  13.645   7.350
 8711POPC   C1B68623  18.481  13.763   6.450
 8711POPC   C2B68624  18.502  13.759   6.750
 8711POPC   C3B68625  18.533  13.706   7.050
 8711POPC   C4B68626  18.476  13.728   7.350
 8712POPC   NC368627  36.119  11.325   5.550
 8712POPC   PO468628  36.131  11.274   5.850
 8712POPC   GL168629  36.172  11.264   6.150
 8712POPC   GL268630  36.024  11.237   6.150
 8712POPC   C1A68631  36.152  11.291   6.450
 8712POPC   D2A68632  36.127  11.298   6.750
 8712POPC   C3A68633  36.123  11.288   7.050
 8712POPC   C4A68634  36.096  11.303   7.350
 8712POPC   C1B68635  35.882  11.189   6.450
 8712POPC   C2B68636  35.907  11.204   6.750
 8712POPC   C3B68637  35.947  11.200   7.050
 8712POPC   C4B68638  35.907  11.241   7.350
 8713POPC   NC368639  26.854  33.826   5.550
 8713POPC   PO468640  26.777  33.794   5.850
 8713POPC   GL168641  26.865  33.848   6.150
 8713POPC   GL268642  26.883  33.767   6.150
 8713POPC   C1A68643  26.798  33.844   6.450
 8713POPC   D2A68644  26.844  33.805   6.750
 8713POPC   C3A68645  26.768  33.782   7.050
 8713POPC   C4A68646  26.815  33.794   7.350
 8713POPC   C1B68647  26.978  33.698   6.450
 8713POPC   C2B68648  27.066  33.683   6.750
 8713POPC   C3B68649  27.014  33.614   7.050
 8713POPC   C4B68650  27.008  33.605   7.350
 8714POPC   NC368651  38.447   3.587   5.550
 8714POPC   PO468652  38.416   3.578   5.850
 8714POPC   GL168653  38.463   3.492   6.150
 8714POPC   GL268654  38.538   3.638   6.150
 8714POPC   C1A68655  38.439   3.570   6.450
 8714POPC   D2A68656  38.406   3.496   6.750
 8714POPC   C3A68657  38.428   3.531   7.050
 8714POPC   C4A68658  38.461   3.541   7.350
 8714POPC   C1B68659  38.717   3.686   6.450
 8714POPC   C2B68660  38.668   3.632   6.750
 8714POPC   C3B68661  38.649   3.696   7.050
 8714POPC   C4B68662  38.706   3.635   7.350
 8715POPC   NC368663  27.551   7.458   5.550
 8715POPC   PO468664  27.579   7.436   5.850
 8715POPC   GL168665  27.563   7.413   6.150
 8715POPC   GL268666  27.612   7.548   6.150
 8715POPC   C1A68667  27.624   7.466   6.450
 8715POPC   D2A68668  27.554   7.455   6.750
 8715POPC   C3A68669  27.565   7.390   7.050
 8715POPC   C4A68670  27.630   7.469   7.350
 8715POPC   C1B68671  27.705   7.658   6.450
 8715POPC   C2B68672  27.672   7.649   6.750
 8715POPC   C3B68673  27.681   7.662   7.050
 8715POPC   C4B68674  27.729   7.697   7.350
 8716POPC   NC368675  36.104  15.189   5.550
 8716POPC   PO468676  36.104  15.146   5.850
 8716POPC   GL168677  36.171  15.154   6.150
 8716POPC   GL268678  36.243  15.127   6.150
 8716POPC   C1A68679  36.127  15.215   6.450
 8716POPC   D2A68680  36.097  15.213   6.750
 8716POPC   C3A68681  36.140  15.189   7.050
 8716POPC   C4A68682  36.137  15.145   7.350
 8716POPC   C1B68683  36.371  15.088   6.450
 8716POPC   C2B68684  36.413  15.119   6.750
 8716POPC   C3B68685  36.391  15.096   7.050
 8716POPC   C4B68686  36.325  15.065   7.350
 8717POPC   NC368687  12.813  22.982   5.550
 8717POPC   PO468688  12.851  22.930   5.850
 8717POPC   GL168689  12.850  22.910   6.150
 8717POPC   GL268690  12.818  22.810   6.150
 8717POPC   C1A68691  12.811  22.986   6.450
 8717POPC   D2A68692  12.830  22.912   6.750
 8717POPC   C3A68693  12.849  22.913   7.050
 8717POPC   C4A68694  12.885  22.896   7.350
 8717POPC   C1B68695  12.855  22.728   6.450
 8717POPC   C2B68696  12.803  22.666   6.750
 8717POPC   C3B68697  12.827  22.642   7.050
 8717POPC   C4B68698  12.874  22.724   7.350
 8718POPC   NC368699  35.328  26.054   5.550
 8718POPC   PO468700  35.336  26.070   5.850
 8718POPC   GL168701  35.377  26.066   6.150
 8718POPC   GL268702  35.231  26.054   6.150
 8718POPC   C1A68703  35.334  25.995   6.450
 8718POPC   D2A68704  35.358  26.005   6.750
 8718POPC   C3A68705  35.324  26.035   7.050
 8718POPC   C4A68706  35.395  25.999   7.350
 8718POPC   C1B68707  35.093  26.028   6.450
 8718POPC   C2B68708  35.069  26.039   6.750
 8718POPC   C3B68709  35.101  26.040   7.050
 8718POPC   C4B68710  35.112  26.040   7.350
 8719POPC   NC368711   3.521  15.188   5.550
 8719POPC   PO468712   3.561  15.214   5.850
 8719POPC   GL168713   3.577  15.223   6.150
 8719POPC   GL268714   3.677  15.182   6.150
 8719POPC   C1A68715   3.511  15.204   6.450
 8719POPC   D2A68716   3.532  15.167   6.750
 8719POPC   C3A68717   3.527  15.143   7.050
 8719POPC   C4A68718   3.514  15.132   7.350
 8719POPC   C1B68719   3.728  15.082   6.450
 8719POPC   C2B68720   3.818  15.073   6.750
 8719POPC   C3B68721   3.736  15.106   7.050
 8719POPC   C4B68722   3.801  15.054   7.350
 8720POPC   NC368723  21.429  22.181   5.550
 8720POPC   PO468724  21.435  22.167   5.850
 8720POPC   GL168725  21.419  22.139   6.150
 8720POPC   GL268726  21.496  22.253   6.150
 8720POPC   C1A68727  21.393  22.198   6.450
 8720POPC   D2A68728  21.347  22.156   6.750
 8720POPC   C3A68729  21.344  22.139   7.050
 8720POPC   C4A68730  21.397  22.203   7.350
 8720POPC   C1B68731  21.591  22.242   6.450
 8720POPC   C2B68732  21.642  22.331   6.750
 8720POPC   C3B68733  21.599  22.322   7.050
 8720POPC   C4B68734  21.575  22.255   7.350
 8721POPC   NC368735   0.466  37.633   5.550
 8721POPC   PO468736   0.392  37.636   5.850
 8721POPC   GL168737   0.468  37.653   6.150
 8721POPC   GL268738   0.380  37.819   6.150
 8721POPC   C1A68739   0.433  37.677   6.450
 8721POPC   D2A68740   0.390  37.724   6.750
 8721POPC   C3A68741   0.472  37.717   7.050
 8721POPC   C4A68742   0.392  37.679   7.350
 8721POPC   C1B68743   0.370  37.942   6.450
 8721POPC   C2B68744   0.387  37.891   6.750
 8721POPC   C3B68745   0.345  37.969   7.050
 8721POPC   C4B68746   0.369  37.876   7.350
 8722POPC   NC368747  29.135  35.373   5.550
 8722POPC   PO468748  29.110  35.315   5.850
 8722POPC   GL168749  29.153  35.377   6.150
 8722POPC   GL268750  29.103  35.204   6.150
 8722POPC   C1A68751  29.165  35.330   6.450
 8722POPC   D2A68752  29.121  35.363   6.750
 8722POPC   C3A68753  29.163  35.317   7.050
 8722POPC   C4A68754  29.136  35.309   7.350
 8722POPC   C1B68755  29.054  35.101   6.450
 8722POPC   C2B68756  29.046  35.154   6.750
 8722POPC   C3B68757  29.064  35.117   7.050
 8722POPC   C4B68758  29.101  35.104   7.350
 8723POPC   NC368759   4.284  28.376   5.550
 8723POPC   PO468760   4.300  28.354   5.850
 8723POPC   GL168761   4.339  28.397   6.150
 8723POPC   GL268762   4.257  28.489   6.150
 8723POPC   C1A68763   4.270  28.394   6.450
 8723POPC   D2A68764   4.345  28.358   6.750
 8723POPC   C3A68765   4.275  28.358   7.050
 8723POPC   C4A68766   4.303  28.409   7.350
 8723POPC   C1B68767   4.135  28.579   6.450
 8723POPC   C2B68768   4.112  28.555   6.750
 8723POPC   C3B68769   4.116  28.566   7.050
 8723POPC   C4B68770   4.141  28.566   7.350
 8724POPC   NC368771  40.785  11.340   5.550
 8724POPC   PO468772  40.809  11.251   5.850
 8724POPC   GL168773  40.803  11.276   6.150
 8724POPC   GL268774  40.838  11.466   6.150
 8724POPC   C1A68775  40.828  11.253   6.450
 8724POPC   D2A68776  40.767  11.301   6.750
 8724POPC   C3A68777  40.822  11.298   7.050
 8724POPC   C4A68778  40.775  11.282   7.350
 8724POPC   C1B68779  40.793  11.597   6.450
 8724POPC   C2B68780  40.821  11.573   6.750
 8724POPC   C3B68781  40.756  11.590   7.050
 8724POPC   C4B68782  40.854  11.515   7.350
 8725POPC   NC368783  39.279  22.903   5.550
 8725POPC   PO468784  39.226  22.963   5.850
 8725POPC   GL168785  39.198  22.897   6.150
 8725POPC   GL268786  39.311  22.833   6.150
 8725POPC   C1A68787  39.281  22.948   6.450
 8725POPC   D2A68788  39.272  22.951   6.750
 8725POPC   C3A68789  39.251  22.906   7.050
 8725POPC   C4A68790  39.183  22.940   7.350
 8725POPC   C1B68791  39.341  22.693   6.450
 8725POPC   C2B68792  39.390  22.729   6.750
 8725POPC   C3B68793  39.325  22.713   7.050
 8725POPC   C4B68794  39.346  22.750   7.350
 8726POPC   NC368795   6.624  21.430   5.550
 8726POPC   PO468796   6.680  21.349   5.850
 8726POPC   GL168797   6.648  21.361   6.150
 8726POPC   GL268798   6.627  21.230   6.150
 8726POPC   C1A68799   6.597  21.354   6.450
 8726POPC   D2A68800   6.687  21.352   6.750
 8726POPC   C3A68801   6.651  21.353   7.050
 8726POPC   C4A68802   6.660  21.363   7.350
 8726POPC   C1B68803   6.616  21.148   6.450
 8726POPC   C2B68804   6.620  21.096   6.750
 8726POPC   C3B68805   6.601  21.152   7.050
 8726POPC   C4B68806   6.626  21.175   7.350
 8727POPC   NC368807  22.167  14.438   5.550
 8727POPC   PO468808  22.161  14.439   5.850
 8727POPC   GL168809  22.156  14.436   6.150
 8727POPC   GL268810  22.070  14.428   6.150
 8727POPC   C1A68811  22.130  14.358   6.450
 8727POPC   D2A68812  22.208  14.444   6.750
 8727POPC   C3A68813  22.192  14.402   7.050
 8727POPC   C4A68814  22.136  14.439   7.350
 8727POPC   C1B68815  21.897  14.438   6.450
 8727POPC   C2B68816  21.896  14.426   6.750
 8727POPC   C3B68817  21.903  14.392   7.050
 8727POPC   C4B68818  21.901  14.387   7.350
 8728POPC   NC368819  11.268  29.953   5.550
 8728POPC   PO468820  11.261  29.961   5.850
 8728POPC   GL168821  11.288  29.901   6.150
 8728POPC   GL268822  11.387  29.946   6.150
 8728POPC   C1A68823  11.337  29.890   6.450
 8728POPC   D2A68824  11.333  29.881   6.750
 8728POPC   C3A68825  11.302  29.915   7.050
 8728POPC   C4A68826  11.320  29.929   7.350
 8728POPC   C1B68827  11.499  29.891   6.450
 8728POPC   C2B68828  11.552  29.833   6.750
 8728POPC   C3B68829  11.503  29.932   7.050
 8728POPC   C4B68830  11.552  29.917   7.350
 8729POPC   NC368831  21.382  24.516   5.550
 8729POPC   PO468832  21.361  24.459   5.850
 8729POPC   GL168833  21.428  24.527   6.150
 8729POPC   GL268834  21.549  24.545   6.150
 8729POPC   C1A68835  21.355  24.482   6.450
 8729POPC   D2A68836  21.394  24.512   6.750
 8729POPC   C3A68837  21.365  24.492   7.050
 8729POPC   C4A68838  21.343  24.506   7.350
 8729POPC   C1B68839  21.585  24.547   6.450
 8729POPC   C2B68840  21.616  24.537   6.750
 8729POPC   C3B68841  21.604  24.603   7.050
 8729POPC   C4B68842  21.576  24.593   7.350
 8730POPC   NC368843   6.639  33.037   5.550
 8730POPC   PO468844   6.611  33.016   5.850
 8730POPC   GL168845   6.599  33.010   6.150
 8730POPC   GL268846   6.586  33.138   6.150
 8730POPC   C1A68847   6.653  33.037   6.450
 8730POPC   D2A68848   6.686  32.975   6.750
 8730POPC   C3A68849   6.632  32.978   7.050
 8730POPC   C4A68850   6.655  32.987   7.350
 8730POPC   C1B68851   6.638  33.286   6.450
 8730POPC   C2B68852   6.549  33.251   6.750
 8730POPC   C3B68853   6.595  33.296   7.050
 8730POPC   C4B68854   6.551  33.269   7.350
 8731POPC   NC368855   5.891  29.116   5.550
 8731POPC   PO468856   5.837  29.140   5.850
 8731POPC   GL168857   5.835  29.155   6.150
 8731POPC   GL268858   5.927  29.266   6.150
 8731POPC   C1A68859   5.834  29.150   6.450
 8731POPC   D2A68860   5.848  29.140   6.750
 8731POPC   C3A68861   5.913  29.184   7.050
 8731POPC   C4A68862   5.877  29.165   7.350
 8731POPC   C1B68863   6.050  29.311   6.450
 8731POPC   C2B68864   6.046  29.387   6.750
 8731POPC   C3B68865   6.032  29.328   7.050
 8731POPC   C4B68866   5.971  29.361   7.350
 8732POPC   NC368867  19.872  29.115   5.550
 8732POPC   PO468868  19.809  29.142   5.850
 8732POPC   GL168869  19.874  29.139   6.150
 8732POPC   GL268870  19.918  29.051   6.150
 8732POPC   C1A68871  19.857  29.161   6.450
 8732POPC   D2A68872  19.857  29.100   6.750
 8732POPC   C3A68873  19.843  29.095   7.050
 8732POPC   C4A68874  19.804  29.126   7.350
 8732POPC   C1B68875  20.026  28.946   6.450
 8732POPC   C2B68876  20.033  28.973   6.750
 8732POPC   C3B68877  20.022  28.982   7.050
 8732POPC   C4B68878  20.016  28.966   7.350
 8733POPC   NC368879  20.615  26.060   5.550
 8733POPC   PO468880  20.638  26.075   5.850
 8733POPC   GL168881  20.568  26.043   6.150
 8733POPC   GL268882  20.747  26.062   6.150
 8733POPC   C1A68883  20.574  26.006   6.450
 8733POPC   D2A68884  20.580  26.072   6.750
 8733POPC   C3A68885  20.563  26.088   7.050
 8733POPC   C4A68886  20.634  26.035   7.350
 8733POPC   C1B68887  20.882  26.082   6.450
 8733POPC   C2B68888  20.889  26.058   6.750
 8733POPC   C3B68889  20.869  26.052   7.050
 8733POPC   C4B68890  20.901  26.018   7.350
 8734POPC   NC368891  13.608  23.723   5.550
 8734POPC   PO468892  13.588  23.709   5.850
 8734POPC   GL168893  13.607  23.691   6.150
 8734POPC   GL268894  13.734  23.639   6.150
 8734POPC   C1A68895  13.580  23.692   6.450
 8734POPC   D2A68896  13.602  23.738   6.750
 8734POPC   C3A68897  13.630  23.689   7.050
 8734POPC   C4A68898  13.616  23.694   7.350
 8734POPC   C1B68899  13.813  23.524   6.450
 8734POPC   C2B68900  13.784  23.568   6.750
 8734POPC   C3B68901  13.807  23.578   7.050
 8734POPC   C4B68902  13.824  23.546   7.350
 8735POPC   NC368903  17.543  40.735   5.550
 8735POPC   PO468904  17.492  40.796   5.850
 8735POPC   GL168905  17.502  40.781   6.150
 8735POPC   GL268906  17.585  40.670   6.150
 8735POPC   C1A68907  17.484  40.820   6.450
 8735POPC   D2A68908  17.513  40.803   6.750
 8735POPC   C3A68909  17.555  40.741   7.050
 8735POPC   C4A68910  17.541  40.756   7.350
 8735POPC   C1B68911  17.607  40.516   6.450
 8735POPC   C2B68912  17.558  40.587   6.750
 8735POPC   C3B68913  17.529  40.493   7.050
 8735POPC   C4B68914  17.522  40.588   7.350
 8736POPC   NC368915  30.675  29.154   5.550
 8736POPC   PO468916  30.707  29.097   5.850
 8736POPC   GL168917  30.723  29.133   6.150
 8736POPC   GL268918  30.580  29.062   6.150
 8736POPC   C1A68919  30.709  29.154   6.450
 8736POPC   D2A68920  30.664  29.119   6.750
 8736POPC   C3A68921  30.738  29.143   7.050
 8736POPC   C4A68922  30.675  29.160   7.350
 8736POPC   C1B68923  30.446  29.041   6.450
 8736POPC   C2B68924  30.484  29.056   6.750
 8736POPC   C3B68925  30.471  29.023   7.050
 8736POPC   C4B68926  30.519  28.971   7.350
 8737POPC   NC368927  41.510  19.789   5.550
 8737POPC   PO468928  41.589  19.856   5.850
 8737POPC   GL168929  41.510  19.843   6.150
 8737POPC   GL268930  41.479  19.782   6.150
 8737POPC   C1A68931  41.512  19.838   6.450
 8737POPC   D2A68932  41.530  19.862   6.750
 8737POPC   C3A68933  41.548  19.875   7.050
 8737POPC   C4A68934  41.597  19.841   7.350
 8737POPC   C1B68935  41.359  19.703   6.450
 8737POPC   C2B68936  41.321  19.689   6.750
 8737POPC   C3B68937  41.311  19.724   7.050
 8737POPC   C4B68938  41.360  19.733   7.350
 8738POPC   NC368939   2.752  15.957   5.550
 8738POPC   PO468940   2.724  15.958   5.850
 8738POPC   GL168941   2.773  15.991   6.150
 8738POPC   GL268942   2.910  15.929   6.150
 8738POPC   C1A68943   2.743  15.918   6.450
 8738POPC   D2A68944   2.813  15.954   6.750
 8738POPC   C3A68945   2.729  15.951   7.050
 8738POPC   C4A68946   2.719  16.003   7.350
 8738POPC   C1B68947   3.029  15.933   6.450
 8738POPC   C2B68948   3.055  15.921   6.750
 8738POPC   C3B68949   3.015  15.942   7.050
 8738POPC   C4B68950   3.021  15.938   7.350
 8739POPC   NC368951   7.377  44.622   5.550
 8739POPC   PO468952   7.423  44.709   5.850
 8739POPC   GL168953   7.391  44.643   6.150
 8739POPC   GL268954   7.413  44.797   6.150
 8739POPC   C1A68955   7.434  44.676   6.450
 8739POPC   D2A68956   7.407  44.669   6.750
 8739POPC   C3A68957   7.384  44.633   7.050
 8739POPC   C4A68958   7.452  44.682   7.350
 8739POPC   C1B68959   7.325  44.923   6.450
 8739POPC   C2B68960   7.368  44.939   6.750
 8739POPC   C3B68961   7.348  44.864   7.050
 8739POPC   C4B68962   7.380  44.941   7.350
 8740POPC   NC368963  28.401   3.559   5.550
 8740POPC   PO468964  28.378   3.531   5.850
 8740POPC   GL168965  28.394   3.536   6.150
 8740POPC   GL268966  28.199   3.528   6.150
 8740POPC   C1A68967  28.333   3.576   6.450
 8740POPC   D2A68968  28.386   3.535   6.750
 8740POPC   C3A68969  28.370   3.516   7.050
 8740POPC   C4A68970  28.328   3.496   7.350
 8740POPC   C1B68971  28.164   3.570   6.450
 8740POPC   C2B68972  28.126   3.609   6.750
 8740POPC   C3B68973  28.141   3.569   7.050
 8740POPC   C4B68974  28.089   3.621   7.350
 8741POPC   NC368975  10.548  41.595   5.550
 8741POPC   PO468976  10.555  41.588   5.850
 8741POPC   GL168977  10.508  41.539   6.150
 8741POPC   GL268978  10.391  41.540   6.150
 8741POPC   C1A68979  10.525  41.586   6.450
 8741POPC   D2A68980  10.546  41.596   6.750
 8741POPC   C3A68981  10.505  41.544   7.050
 8741POPC   C4A68982  10.525  41.526   7.350
 8741POPC   C1B68983  10.254  41.483   6.450
 8741POPC   C2B68984  10.272  41.484   6.750
 8741POPC   C3B68985  10.272  41.530   7.050
 8741POPC   C4B68986  10.305  41.556   7.350
 8742POPC   NC368987  32.240  44.703   5.550
 8742POPC   PO468988  32.260  44.691   5.850
 8742POPC   GL168989  32.222  44.677   6.150
 8742POPC   GL268990  32.279  44.762   6.150
 8742POPC   C1A68991  32.209  44.666   6.450
 8742POPC   D2A68992  32.210  44.619   6.750
 8742POPC   C3A68993  32.284  44.666   7.050
 8742POPC   C4A68994  32.297  44.615   7.350
 8742POPC   C1B68995  32.449  44.856   6.450
 8742POPC   C2B68996  32.436  44.899   6.750
 8742POPC   C3B68997  32.428  44.824   7.050
 8742POPC   C4B68998  32.359  44.814   7.350
 8743POPC   NC368999   6.607  41.568   5.550
 8743POPC   PO469000   6.681  41.511   5.850
 8743POPC   GL169001   6.645  41.528   6.150
 8743POPC   GL269002   6.731  41.649   6.150
 8743POPC   C1A69003   6.678  41.584   6.450
 8743POPC   D2A69004   6.596  41.543   6.750
 8743POPC   C3A69005   6.628  41.607   7.050
 8743POPC   C4A69006   6.646  41.518   7.350
 8743POPC   C1B69007   6.857  41.756   6.450
 8743POPC   C2B69008   6.827  41.773   6.750
 8743POPC   C3B69009   6.833  41.698   7.050
 8743POPC   C4B69010   6.844  41.726   7.350
 8744POPC   NC369011   5.055  26.013   5.550
 8744POPC   PO469012   5.129  26.036   5.850
 8744POPC   GL169013   5.114  26.084   6.150
 8744POPC   GL269014   5.032  26.138   6.150
 8744POPC   C1A69015   5.047  26.056   6.450
 8744POPC   D2A69016   5.071  26.091   6.750
 8744POPC   C3A69017   5.110  26.007   7.050
 8744POPC   C4A69018   5.066  26.063   7.350
 8744POPC   C1B69019   4.854  26.214   6.450
 8744POPC   C2B69020   4.842  26.120   6.750
 8744POPC   C3B69021   4.842  26.164   7.050
 8744POPC   C4B69022   4.865  26.124   7.350
 8745POPC   NC369023   9.787  30.709   5.550
 8745POPC   PO469024   9.749  30.652   5.850
 8745POPC   GL169025   9.758  30.713   6.150
 8745POPC   GL269026   9.682  30.585   6.150
 8745POPC   C1A69027   9.751  30.662   6.450
 8745POPC   D2A69028   9.792  30.701   6.750
 8745POPC   C3A69029   9.792  30.737   7.050
 8745POPC   C4A69030   9.728  30.670   7.350
 8745POPC   C1B69031   9.656  30.504   6.450
 8745POPC   C2B69032   9.602  30.502   6.750
 8745POPC   C3B69033   9.619  30.450   7.050
 8745POPC   C4B69034   9.609  30.515   7.350
 8746POPC   NC369035  38.440  12.097   5.550
 8746POPC   PO469036  38.441  12.058   5.850
 8746POPC   GL169037  38.487  12.052   6.150
 8746POPC   GL269038  38.515  11.993   6.150
 8746POPC   C1A69039  38.421  12.038   6.450
 8746POPC   D2A69040  38.504  12.115   6.750
 8746POPC   C3A69041  38.464  12.037   7.050
 8746POPC   C4A69042  38.456  12.044   7.350
 8746POPC   C1B69043  38.504  11.814   6.450
 8746POPC   C2B69044  38.507  11.881   6.750
 8746POPC   C3B69045  38.474  11.796   7.050
 8746POPC   C4B69046  38.557  11.834   7.350
 8747POPC   NC369047   4.346   2.743   5.550
 8747POPC   PO469048   4.294   2.733   5.850
 8747POPC   GL169049   4.270   2.814   6.150
 8747POPC   GL269050   4.248   2.657   6.150
 8747POPC   C1A69051   4.367   2.742   6.450
 8747POPC   D2A69052   4.306   2.793   6.750
 8747POPC   C3A69053   4.325   2.718   7.050
 8747POPC   C4A69054   4.340   2.758   7.350
 8747POPC   C1B69055   4.098   2.630   6.450
 8747POPC   C2B69056   4.141   2.609   6.750
 8747POPC   C3B69057   4.150   2.543   7.050
 8747POPC   C4B69058   4.181   2.586   7.350
 8748POPC   NC369059  14.432   4.345   5.550
 8748POPC   PO469060  14.420   4.270   5.850
 8748POPC   GL169061  14.374   4.335   6.150
 8748POPC   GL269062  14.452   4.399   6.150
 8748POPC   C1A69063  14.415   4.350   6.450
 8748POPC   D2A69064  14.435   4.276   6.750
 8748POPC   C3A69065  14.418   4.348   7.050
 8748POPC   C4A69066  14.354   4.271   7.350
 8748POPC   C1B69067  14.544   4.585   6.450
 8748POPC   C2B69068  14.452   4.581   6.750
 8748POPC   C3B69069  14.468   4.568   7.050
 8748POPC   C4B69070  14.527   4.565   7.350
 8749POPC   NC369071  39.961  19.056   5.550
 8749POPC   PO469072  39.992  19.046   5.850
 8749POPC   GL169073  40.034  19.076   6.150
 8749POPC   GL269074  40.157  19.027   6.150
 8749POPC   C1A69075  39.958  19.082   6.450
 8749POPC   D2A69076  39.969  19.086   6.750
 8749POPC   C3A69077  40.002  19.056   7.050
 8749POPC   C4A69078  40.053  19.065   7.350
 8749POPC   C1B69079  40.190  18.943   6.450
 8749POPC   C2B69080  40.202  18.897   6.750
 8749POPC   C3B69081  40.204  18.886   7.050
 8749POPC   C4B69082  40.163  18.875   7.350
 8750POPC   NC369083  16.740  26.075   5.550
 8750POPC   PO469084  16.728  26.034   5.850
 8750POPC   GL169085  16.764  26.058   6.150
 8750POPC   GL269086  16.836  26.066   6.150
 8750POPC   C1A69087  16.691  26.058   6.450
 8750POPC   D2A69088  16.753  25.995   6.750
 8750POPC   C3A69089  16.737  26.078   7.050
 8750POPC   C4A69090  16.729  26.048   7.350
 8750POPC   C1B69091  16.951  26.107   6.450
 8750POPC   C2B69092  17.013  26.080   6.750
 8750POPC   C3B69093  16.950  26.059   7.050
 8750POPC   C4B69094  16.956  26.105   7.350
 8751POPC   NC369095  39.958  11.329   5.550
 8751POPC   PO469096  40.034  11.339   5.850
 8751POPC   GL169097  40.044  11.277   6.150
 8751POPC   GL269098  39.908  11.166   6.150
 8751POPC   C1A69099  40.023  11.283   6.450
 8751POPC   D2A69100  40.005  11.313   6.750
 8751POPC   C3A69101  39.958  11.291   7.050
 8751POPC   C4A69102  40.052  11.261   7.350
 8751POPC   C1B69103  39.831  11.136   6.450
 8751POPC   C2B69104  39.854  11.124   6.750
 8751POPC   C3B69105  39.819  11.116   7.050
 8751POPC   C4B69106  39.810  11.108   7.350
 8752POPC   NC369107  34.616  15.906   5.550
 8752POPC   PO469108  34.608  15.907   5.850
 8752POPC   GL169109  34.562  15.928   6.150
 8752POPC   GL269110  34.513  16.102   6.150
 8752POPC   C1A69111  34.620  15.979   6.450
 8752POPC   D2A69112  34.565  15.967   6.750
 8752POPC   C3A69113  34.590  15.957   7.050
 8752POPC   C4A69114  34.570  15.986   7.350
 8752POPC   C1B69115  34.501  16.213   6.450
 8752POPC   C2B69116  34.500  16.172   6.750
 8752POPC   C3B69117  34.480  16.212   7.050
 8752POPC   C4B69118  34.490  16.243   7.350
 8753POPC   NC369119  21.428  44.613   5.550
 8753POPC   PO469120  21.424  44.684   5.850
 8753POPC   GL169121  21.369  44.626   6.150
 8753POPC   GL269122  21.332  44.532   6.150
 8753POPC   C1A69123  21.402  44.663   6.450
 8753POPC   D2A69124  21.384  44.647   6.750
 8753POPC   C3A69125  21.391  44.682   7.050
 8753POPC   C4A69126  21.413  44.625   7.350
 8753POPC   C1B69127  21.380  44.392   6.450
 8753POPC   C2B69128  21.319  44.457   6.750
 8753POPC   C3B69129  21.391  44.387   7.050
 8753POPC   C4B69130  21.380  44.455   7.350
 8754POPC   NC369131  19.011  31.506   5.550
 8754POPC   PO469132  19.057  31.501   5.850
 8754POPC   GL169133  19.040  31.463   6.150
 8754POPC   GL269134  18.974  31.606   6.150
 8754POPC   C1A69135  19.030  31.429   6.450
 8754POPC   D2A69136  19.030  31.460   6.750
 8754POPC   C3A69137  19.040  31.519   7.050
 8754POPC   C4A69138  19.058  31.519   7.350
 8754POPC   C1B69139  18.891  31.677   6.450
 8754POPC   C2B69140  18.955  31.720   6.750
 8754POPC   C3B69141  18.951  31.725   7.050
 8754POPC   C4B69142  18.917  31.706   7.350
 8755POPC   NC369143  18.320  29.969   5.550
 8755POPC   PO469144  18.237  29.912   5.850
 8755POPC   GL169145  18.326  29.946   6.150
 8755POPC   GL269146  18.407  29.875   6.150
 8755POPC   C1A69147  18.267  29.883   6.450
 8755POPC   D2A69148  18.245  29.871   6.750
 8755POPC   C3A69149  18.301  29.932   7.050
 8755POPC   C4A69150  18.282  29.940   7.350
 8755POPC   C1B69151  18.505  29.759   6.450
 8755POPC   C2B69152  18.508  29.729   6.750
 8755POPC   C3B69153  18.433  29.804   7.050
 8755POPC   C4B69154  18.438  29.729   7.350
 8756POPC   NC369155  43.847  42.300   5.550
 8756POPC   PO469156  43.894  42.290   5.850
 8756POPC   GL169157  43.880  42.360   6.150
 8756POPC   GL269158  43.801  42.255   6.150
 8756POPC   C1A69159  43.904  42.330   6.450
 8756POPC   D2A69160  43.925  42.303   6.750
 8756POPC   C3A69161  43.892  42.336   7.050
 8756POPC   C4A69162  43.865  42.360   7.350
 8756POPC   C1B69163  43.685  42.240   6.450
 8756POPC   C2B69164  43.703  42.219   6.750
 8756POPC   C3B69165  43.655  42.193   7.050
 8756POPC   C4B69166  43.640  42.248   7.350
 8757POPC   NC369167   5.119  30.717   5.550
 8757POPC   PO469168   5.096  30.714   5.850
 8757POPC   GL169169   5.126  30.714   6.150
 8757POPC   GL269170   5.212  30.787   6.150
 8757POPC   C1A69171   5.142  30.676   6.450
 8757POPC   D2A69172   5.066  30.714   6.750
 8757POPC   C3A69173   5.084  30.674   7.050
 8757POPC   C4A69174   5.109  30.723   7.350
 8757POPC   C1B69175   5.288  30.812   6.450
 8757POPC   C2B69176   5.292  30.789   6.750
 8757POPC   C3B69177   5.319  30.853   7.050
 8757POPC   C4B69178   5.321  30.817   7.350
 8758POPC   NC369179  39.995  12.837   5.550
 8758POPC   PO469180  40.044  12.891   5.850
 8758POPC   GL169181  40.021  12.897   6.150
 8758POPC   GL269182  39.928  12.709   6.150
 8758POPC   C1A69183  40.004  12.877   6.450
 8758POPC   D2A69184  40.027  12.806   6.750
 8758POPC   C3A69185  39.974  12.811   7.050
 8758POPC   C4A69186  39.958  12.812   7.350
 8758POPC   C1B69187  39.929  12.592   6.450
 8758POPC   C2B69188  39.947  12.597   6.750
 8758POPC   C3B69189  39.926  12.645   7.050
 8758POPC   C4B69190  39.864  12.604   7.350
 8759POPC   NC369191  36.911  36.095   5.550
 8759POPC   PO469192  36.924  36.147   5.850
 8759POPC   GL169193  36.862  36.149   6.150
 8759POPC   GL269194  37.022  36.213   6.150
 8759POPC   C1A69195  36.894  36.151   6.450
 8759POPC   D2A69196  36.878  36.091   6.750
 8759POPC   C3A69197  36.937  36.080   7.050
 8759POPC   C4A69198  36.909  36.144   7.350
 8759POPC   C1B69199  37.102  36.234   6.450
 8759POPC   C2B69200  37.138  36.246   6.750
 8759POPC   C3B69201  37.109  36.195   7.050
 8759POPC   C4B69202  37.095  36.286   7.350
 8760POPC   NC369203  15.908  42.346   5.550
 8760POPC   PO469204  15.932  42.354   5.850
 8760POPC   GL169205  15.945  42.350   6.150
 8760POPC   GL269206  16.009  42.478   6.150
 8760POPC   C1A69207  15.960  42.322   6.450
 8760POPC   D2A69208  15.949  42.364   6.750
 8760POPC   C3A69209  15.976  42.334   7.050
 8760POPC   C4A69210  15.945  42.350   7.350
 8760POPC   C1B69211  16.118  42.563   6.450
 8760POPC   C2B69212  16.060  42.508   6.750
 8760POPC   C3B69213  16.092  42.546   7.050
 8760POPC   C4B69214  16.077  42.536   7.350
 8761POPC   NC369215  15.958  36.166   5.550
 8761POPC   PO469216  16.000  36.130   5.850
 8761POPC   GL169217  15.919  36.129   6.150
 8761POPC   GL269218  15.999  36.066   6.150
 8761POPC   C1A69219  15.990  36.158   6.450
 8761POPC   D2A69220  15.952  36.147   6.750
 8761POPC   C3A69221  15.981  36.165   7.050
 8761POPC   C4A69222  15.997  36.174   7.350
 8761POPC   C1B69223  16.123  35.936   6.450
 8761POPC   C2B69224  16.107  35.941   6.750
 8761POPC   C3B69225  16.098  35.934   7.050
 8761POPC   C4B69226  16.090  35.893   7.350
 8762POPC   NC369227  36.121   4.330   5.550
 8762POPC   PO469228  36.093   4.312   5.850
 8762POPC   GL169229  36.093   4.325   6.150
 8762POPC   GL269230  36.052   4.391   6.150
 8762POPC   C1A69231  36.092   4.316   6.450
 8762POPC   D2A69232  36.116   4.329   6.750
 8762POPC   C3A69233  36.150   4.286   7.050
 8762POPC   C4A69234  36.102   4.304   7.350
 8762POPC   C1B69235  35.928   4.393   6.450
 8762POPC   C2B69236  35.852   4.374   6.750
 8762POPC   C3B69237  35.883   4.420   7.050
 8762POPC   C4B69238  35.883   4.443   7.350
 8763POPC   NC369239   5.917  31.425   5.550
 8763POPC   PO469240   5.831  31.475   5.850
 8763POPC   GL169241   5.827  31.478   6.150
 8763POPC   GL269242   6.022  31.492   6.150
 8763POPC   C1A69243   5.846  31.522   6.450
 8763POPC   D2A69244   5.882  31.491   6.750
 8763POPC   C3A69245   5.838  31.509   7.050
 8763POPC   C4A69246   5.897  31.434   7.350
 8763POPC   C1B69247   6.113  31.559   6.450
 8763POPC   C2B69248   6.129  31.577   6.750
 8763POPC   C3B69249   6.088  31.588   7.050
 8763POPC   C4B69250   6.051  31.599   7.350
 8764POPC   NC369251  26.068  11.305   5.550
 8764POPC   PO469252  25.999  11.315   5.850
 8764POPC   GL169253  26.028  11.274   6.150
 8764POPC   GL269254  26.043  11.440   6.150
 8764POPC   C1A69255  26.008  11.323   6.450
 8764POPC   D2A69256  26.035  11.300   6.750
 8764POPC   C3A69257  26.010  11.288   7.050
 8764POPC   C4A69258  26.070  11.256   7.350
 8764POPC   C1B69259  26.035  11.509   6.450
 8764POPC   C2B69260  26.080  11.584   6.750
 8764POPC   C3B69261  26.027  11.585   7.050
 8764POPC   C4B69262  26.014  11.574   7.350
 8765POPC   NC369263  39.213  33.047   5.550
 8765POPC   PO469264  39.277  33.040   5.850
 8765POPC   GL169265  39.275  33.036   6.150
 8765POPC   GL269266  39.074  32.968   6.150
 8765POPC   C1A69267  39.233  33.070   6.450
 8765POPC   D2A69268  39.236  33.010   6.750
 8765POPC   C3A69269  39.206  33.038   7.050
 8765POPC   C4A69270  39.198  33.053   7.350
 8765POPC   C1B69271  39.048  32.918   6.450
 8765POPC   C2B69272  39.049  32.889   6.750
 8765POPC   C3B69273  39.026  32.946   7.050
 8765POPC   C4B69274  38.985  32.910   7.350
 8766POPC   NC369275  36.918  19.042   5.550
 8766POPC   PO469276  36.922  19.010   5.850
 8766POPC   GL169277  36.903  19.093   6.150
 8766POPC   GL269278  37.011  19.048   6.150
 8766POPC   C1A69279  36.910  19.049   6.450
 8766POPC   D2A69280  36.871  19.043   6.750
 8766POPC   C3A69281  36.939  19.024   7.050
 8766POPC   C4A69282  36.887  19.106   7.350
 8766POPC   C1B69283  37.149  19.035   6.450
 8766POPC   C2B69284  37.115  19.045   6.750
 8766POPC   C3B69285  37.118  19.015   7.050
 8766POPC   C4B69286  37.106  19.052   7.350
 8767POPC   NC369287  22.128  34.576   5.550
 8767POPC   PO469288  22.141  34.611   5.850
 8767POPC   GL169289  22.177  34.598   6.150
 8767POPC   GL269290  22.033  34.554   6.150
 8767POPC   C1A69291  22.117  34.573   6.450
 8767POPC   D2A69292  22.157  34.607   6.750
 8767POPC   C3A69293  22.152  34.604   7.050
 8767POPC   C4A69294  22.159  34.624   7.350
 8767POPC   C1B69295  21.900  34.549   6.450
 8767POPC   C2B69296  21.930  34.499   6.750
 8767POPC   C3B69297  21.884  34.562   7.050
 8767POPC   C4B69298  21.958  34.531   7.350
 8768POPC   NC369299   4.366  35.324   5.550
 8768POPC   PO469300   4.314  35.379   5.850
 8768POPC   GL169301   4.272  35.397   6.150
 8768POPC   GL269302   4.281  35.433   6.150
 8768POPC   C1A69303   4.336  35.340   6.450
 8768POPC   D2A69304   4.356  35.343   6.750
 8768POPC   C3A69305   4.290  35.336   7.050
 8768POPC   C4A69306   4.345  35.392   7.350
 8768POPC   C1B69307   4.214  35.607   6.450
 8768POPC   C2B69308   4.187  35.559   6.750
 8768POPC   C3B69309   4.230  35.542   7.050
 8768POPC   C4B69310   4.217  35.573   7.350
 8769POPC   NC369311  15.924  41.527   5.550
 8769POPC   PO469312  15.950  41.577   5.850
 8769POPC   GL169313  15.993  41.554   6.150
 8769POPC   GL269314  15.908  41.689   6.150
 8769POPC   C1A69315  15.984  41.568   6.450
 8769POPC   D2A69316  15.966  41.526   6.750
 8769POPC   C3A69317  15.961  41.593   7.050
 8769POPC   C4A69318  15.939  41.530   7.350
 8769POPC   C1B69319  15.924  41.847   6.450
 8769POPC   C2B69320  15.964  41.772   6.750
 8769POPC   C3B69321  15.942  41.771   7.050
 8769POPC   C4B69322  15.995  41.818   7.350
 8770POPC   NC369323  40.831  34.533   5.550
 8770POPC   PO469324  40.831  34.534   5.850
 8770POPC   GL169325  40.778  34.556   6.150
 8770POPC   GL269326  40.726  34.704   6.150
 8770POPC   C1A69327  40.825  34.592   6.450
 8770POPC   D2A69328  40.749  34.616   6.750
 8770POPC   C3A69329  40.798  34.538   7.050
 8770POPC   C4A69330  40.823  34.529   7.350
 8770POPC   C1B69331  40.723  34.775   6.450
 8770POPC   C2B69332  40.695  34.768   6.750
 8770POPC   C3B69333  40.676  34.774   7.050
 8770POPC   C4B69334  40.687  34.821   7.350
 8771POPC   NC369335  35.387  33.781   5.550
 8771POPC   PO469336  35.366  33.804   5.850
 8771POPC   GL169337  35.343  33.818   6.150
 8771POPC   GL269338  35.459  33.862   6.150
 8771POPC   C1A69339  35.312  33.814   6.450
 8771POPC   D2A69340  35.307  33.770   6.750
 8771POPC   C3A69341  35.333  33.775   7.050
 8771POPC   C4A69342  35.330  33.828   7.350
 8771POPC   C1B69343  35.566  33.933   6.450
 8771POPC   C2B69344  35.615  33.909   6.750
 8771POPC   C3B69345  35.520  33.910   7.050
 8771POPC   C4B69346  35.612  33.961   7.350
 8772POPC   NC369347  43.874   9.012   5.550
 8772POPC   PO469348  43.854   8.975   5.850
 8772POPC   GL169349  43.875   8.931   6.150
 8772POPC   GL269350  43.870   9.133   6.150
 8772POPC   C1A69351  43.928   8.927   6.450
 8772POPC   D2A69352  43.848   9.009   6.750
 8772POPC   C3A69353  43.877   8.987   7.050
 8772POPC   C4A69354  43.882   9.008   7.350
 8772POPC   C1B69355  43.937   9.209   6.450
 8772POPC   C2B69356  43.851   9.248   6.750
 8772POPC   C3B69357  43.848   9.239   7.050
 8772POPC   C4B69358  43.905   9.265   7.350
 8773POPC   NC369359  35.326  31.442   5.550
 8773POPC   PO469360  35.390  31.522   5.850
 8773POPC   GL169361  35.367  31.466   6.150
 8773POPC   GL269362  35.407  31.582   6.150
 8773POPC   C1A69363  35.377  31.478   6.450
 8773POPC   D2A69364  35.338  31.448   6.750
 8773POPC   C3A69365  35.345  31.480   7.050
 8773POPC   C4A69366  35.309  31.491   7.350
 8773POPC   C1B69367  35.366  31.671   6.450
 8773POPC   C2B69368  35.362  31.686   6.750
 8773POPC   C3B69369  35.458  31.727   7.050
 8773POPC   C4B69370  35.404  31.693   7.350
 8774POPC   NC369371  34.560  29.113   5.550
 8774POPC   PO469372  34.574  29.184   5.850
 8774POPC   GL169373  34.603  29.186   6.150
 8774POPC   GL269374  34.661  29.284   6.150
 8774POPC   C1A69375  34.585  29.174   6.450
 8774POPC   D2A69376  34.559  29.100   6.750
 8774POPC   C3A69377  34.541  29.097   7.050
 8774POPC   C4A69378  34.601  29.148   7.350
 8774POPC   C1B69379  34.726  29.337   6.450
 8774POPC   C2B69380  34.754  29.383   6.750
 8774POPC   C3B69381  34.738  29.398   7.050
 8774POPC   C4B69382  34.751  29.376   7.350
 8775POPC   NC369383  17.512  29.180   5.550
 8775POPC   PO469384  17.529  29.108   5.850
 8775POPC   GL169385  17.477  29.121   6.150
 8775POPC   GL269386  17.517  29.036   6.150
 8775POPC   C1A69387  17.555  29.183   6.450
 8775POPC   D2A69388  17.539  29.182   6.750
 8775POPC   C3A69389  17.495  29.170   7.050
 8775POPC   C4A69390  17.460  29.180   7.350
 8775POPC   C1B69391  17.518  28.868   6.450
 8775POPC   C2B69392  17.590  28.934   6.750
 8775POPC   C3B69393  17.551  28.927   7.050
 8775POPC   C4B69394  17.531  28.865   7.350
 8776POPC   NC369395  26.015  42.312   5.550
 8776POPC   PO469396  26.044  42.305   5.850
 8776POPC   GL169397  26.068  42.384   6.150
 8776POPC   GL269398  25.937  42.364   6.150
 8776POPC   C1A69399  26.012  42.327   6.450
 8776POPC   D2A69400  26.019  42.335   6.750
 8776POPC   C3A69401  26.067  42.331   7.050
 8776POPC   C4A69402  26.053  42.377   7.350
 8776POPC   C1B69403  25.771  42.400   6.450
 8776POPC   C2B69404  25.767  42.435   6.750
 8776POPC   C3B69405  25.776  42.441   7.050
 8776POPC   C4B69406  25.779  42.426   7.350
 8777POPC   NC369407  33.768  37.680   5.550
 8777POPC   PO469408  33.839  37.646   5.850
 8777POPC   GL169409  33.755  37.675   6.150
 8777POPC   GL269410  33.892  37.606   6.150
 8777POPC   C1A69411  33.815  37.688   6.450
 8777POPC   D2A69412  33.838  37.672   6.750
 8777POPC   C3A69413  33.839  37.672   7.050
 8777POPC   C4A69414  33.752  37.714   7.350
 8777POPC   C1B69415  33.963  37.557   6.450
 8777POPC   C2B69416  33.985  37.509   6.750
 8777POPC   C3B69417  34.045  37.504   7.050
 8777POPC   C4B69418  34.006  37.504   7.350
 8778POPC   NC369419  19.067  40.025   5.550
 8778POPC   PO469420  19.096  40.055   5.850
 8778POPC   GL169421  19.101  39.964   6.150
 8778POPC   GL269422  19.175  39.988   6.150
 8778POPC   C1A69423  19.086  39.997   6.450
 8778POPC   D2A69424  19.087  39.986   6.750
 8778POPC   C3A69425  19.071  40.018   7.050
 8778POPC   C4A69426  19.083  39.967   7.350
 8778POPC   C1B69427  19.307  39.842   6.450
 8778POPC   C2B69428  19.289  39.841   6.750
 8778POPC   C3B69429  19.288  39.873   7.050
 8778POPC   C4B69430  19.253  39.844   7.350
 8779POPC   NC369431  20.608  21.349   5.550
 8779POPC   PO469432  20.593  21.409   5.850
 8779POPC   GL169433  20.652  21.403   6.150
 8779POPC   GL269434  20.539  21.291   6.150
 8779POPC   C1A69435  20.638  21.423   6.450
 8779POPC   D2A69436  20.604  21.408   6.750
 8779POPC   C3A69437  20.646  21.352   7.050
 8779POPC   C4A69438  20.613  21.397   7.350
 8779POPC   C1B69439  20.466  21.200   6.450
 8779POPC   C2B69440  20.485  21.182   6.750
 8779POPC   C3B69441  20.464  21.194   7.050
 8779POPC   C4B69442  20.479  21.181   7.350
 8780POPC   NC369443  19.088   5.853   5.550
 8780POPC   PO469444  19.045   5.905   5.850
 8780POPC   GL169445  19.109   5.909   6.150
 8780POPC   GL269446  18.945   5.804   6.150
 8780POPC   C1A69447  19.071   5.895   6.450
 8780POPC   D2A69448  19.063   5.842   6.750
 8780POPC   C3A69449  19.092   5.858   7.050
 8780POPC   C4A69450  19.019   5.903   7.350
 8780POPC   C1B69451  18.811   5.768   6.450
 8780POPC   C2B69452  18.782   5.790   6.750
 8780POPC   C3B69453  18.832   5.773   7.050
 8780POPC   C4B69454  18.769   5.768   7.350
 8781POPC   NC369455  17.499   7.433   5.550
 8781POPC   PO469456  17.534   7.422   5.850
 8781POPC   GL169457  17.514   7.436   6.150
 8781POPC   GL269458  17.464   7.499   6.150
 8781POPC   C1A69459  17.524   7.382   6.450
 8781POPC   D2A69460  17.489   7.423   6.750
 8781POPC   C3A69461  17.534   7.408   7.050
 8781POPC   C4A69462  17.464   7.416   7.350
 8781POPC   C1B69463  17.392   7.613   6.450
 8781POPC   C2B69464  17.434   7.691   6.750
 8781POPC   C3B69465  17.442   7.632   7.050
 8781POPC   C4B69466  17.441   7.681   7.350
 8782POPC   NC369467  31.455  43.075   5.550
 8782POPC   PO469468  31.492  43.115   5.850
 8782POPC   GL169469  31.516  43.078   6.150
 8782POPC   GL269470  31.579  42.984   6.150
 8782POPC   C1A69471  31.499  43.073   6.450
 8782POPC   D2A69472  31.509  43.066   6.750
 8782POPC   C3A69473  31.432  43.115   7.050
 8782POPC   C4A69474  31.442  43.127   7.350
 8782POPC   C1B69475  31.671  42.926   6.450
 8782POPC   C2B69476  31.649  42.897   6.750
 8782POPC   C3B69477  31.589  42.888   7.050
 8782POPC   C4B69478  31.656  42.967   7.350
 8783POPC   NC369479  15.983   1.204   5.550
 8783POPC   PO469480  15.906   1.192   5.850
 8783POPC   GL169481  15.983   1.227   6.150
 8783POPC   GL269482  16.090   1.177   6.150
 8783POPC   C1A69483  15.999   1.226   6.450
 8783POPC   D2A69484  15.933   1.259   6.750
 8783POPC   C3A69485  15.975   1.185   7.050
 8783POPC   C4A69486  15.924   1.216   7.350
 8783POPC   C1B69487  16.149   1.074   6.450
 8783POPC   C2B69488  16.127   1.037   6.750
 8783POPC   C3B69489  16.147   1.102   7.050
 8783POPC   C4B69490  16.191   1.051   7.350
 8784POPC   NC369491  12.089  23.759   5.550
 8784POPC   PO469492  12.037  23.664   5.850
 8784POPC   GL169493  12.074  23.764   6.150
 8784POPC   GL269494  12.163  23.590   6.150
 8784POPC   C1A69495  12.097  23.719   6.450
 8784POPC   D2A69496  12.029  23.676   6.750
 8784POPC   C3A69497  12.096  23.710   7.050
 8784POPC   C4A69498  12.116  23.761   7.350
 8784POPC   C1B69499  12.237  23.543   6.450
 8784POPC   C2B69500  12.228  23.544   6.750
 8784POPC   C3B69501  12.182  23.491   7.050
 8784POPC   C4B69502  12.235  23.514   7.350
 8785POPC   NC369503   1.967   1.190   5.550
 8785POPC   PO469504   1.953   1.194   5.850
 8785POPC   GL169505   1.993   1.236   6.150
 8785POPC   GL269506   1.960   1.149   6.150
 8785POPC   C1A69507   2.023   1.209   6.450
 8785POPC   D2A69508   2.016   1.171   6.750
 8785POPC   C3A69509   2.037   1.255   7.050
 8785POPC   C4A69510   2.007   1.254   7.350
 8785POPC   C1B69511   1.897   0.974   6.450
 8785POPC   C2B69512   1.870   0.998   6.750
 8785POPC   C3B69513   1.840   1.022   7.050
 8785POPC   C4B69514   1.862   1.005   7.350
 8786POPC   NC369515  29.945  25.997   5.550
 8786POPC   PO469516  29.907  26.035   5.850
 8786POPC   GL169517  29.888  26.081   6.150
 8786POPC   GL269518  29.877  26.122   6.150
 8786POPC   C1A69519  29.883  26.072   6.450
 8786POPC   D2A69520  29.914  26.019   6.750
 8786POPC   C3A69521  29.921  26.082   7.050
 8786POPC   C4A69522  29.968  26.074   7.350
 8786POPC   C1B69523  29.725  26.235   6.450
 8786POPC   C2B69524  29.734  26.203   6.750
 8786POPC   C3B69525  29.790  26.201   7.050
 8786POPC   C4B69526  29.719  26.200   7.350
 8787POPC   NC369527  24.476  12.121   5.550
 8787POPC   PO469528  24.443  12.034   5.850
 8787POPC   GL169529  24.503  12.055   6.150
 8787POPC   GL269530  24.539  12.017   6.150
 8787POPC   C1A69531  24.461  12.125   6.450
 8787POPC   D2A69532  24.513  12.066   6.750
 8787POPC   C3A69533  24.537  12.046   7.050
 8787POPC   C4A69534  24.532  12.100   7.350
 8787POPC   C1B69535  24.638  11.910   6.450
 8787POPC   C2B69536  24.624  11.908   6.750
 8787POPC   C3B69537  24.589  11.860   7.050
 8787POPC   C4B69538  24.644  11.879   7.350
 8788POPC   NC369539  39.243  24.517   5.550
 8788POPC   PO469540  39.188  24.513   5.850
 8788POPC   GL169541  39.250  24.458   6.150
 8788POPC   GL269542  39.378  24.555   6.150
 8788POPC   C1A69543  39.218  24.480   6.450
 8788POPC   D2A69544  39.249  24.477   6.750
 8788POPC   C3A69545  39.216  24.474   7.050
 8788POPC   C4A69546  39.181  24.493   7.350
 8788POPC   C1B69547  39.462  24.591   6.450
 8788POPC   C2B69548  39.471  24.547   6.750
 8788POPC   C3B69549  39.464  24.592   7.050
 8788POPC   C4B69550  39.493  24.559   7.350
 8789POPC   NC369551  24.453  42.331   5.550
 8789POPC   PO469552  24.458  42.366   5.850
 8789POPC   GL169553  24.493  42.340   6.150
 8789POPC   GL269554  24.583  42.212   6.150
 8789POPC   C1A69555  24.525  42.325   6.450
 8789POPC   D2A69556  24.474  42.363   6.750
 8789POPC   C3A69557  24.501  42.312   7.050
 8789POPC   C4A69558  24.480  42.336   7.350
 8789POPC   C1B69559  24.677  42.199   6.450
 8789POPC   C2B69560  24.688  42.188   6.750
 8789POPC   C3B69561  24.642  42.224   7.050
 8789POPC   C4B69562  24.680  42.192   7.350
 8790POPC   NC369563  41.580  27.573   5.550
 8790POPC   PO469564  41.575  27.596   5.850
 8790POPC   GL169565  41.535  27.547   6.150
 8790POPC   GL269566  41.643  27.504   6.150
 8790POPC   C1A69567  41.514  27.633   6.450
 8790POPC   D2A69568  41.608  27.638   6.750
 8790POPC   C3A69569  41.602  27.587   7.050
 8790POPC   C4A69570  41.514  27.632   7.350
 8790POPC   C1B69571  41.769  27.502   6.450
 8790POPC   C2B69572  41.827  27.546   6.750
 8790POPC   C3B69573  41.744  27.464   7.050
 8790POPC   C4B69574  41.783  27.498   7.350
 8791POPC   NC369575  23.756  43.076   5.550
 8791POPC   PO469576  23.720  43.089   5.850
 8791POPC   GL169577  23.706  43.078   6.150
 8791POPC   GL269578  23.775  43.055   6.150
 8791POPC   C1A69579  23.673  43.112   6.450
 8791POPC   D2A69580  23.665  43.146   6.750
 8791POPC   C3A69581  23.750  43.154   7.050
 8791POPC   C4A69582  23.694  43.087   7.350
 8791POPC   C1B69583  23.935  42.949   6.450
 8791POPC   C2B69584  23.930  42.909   6.750
 8791POPC   C3B69585  23.948  43.000   7.050
 8791POPC   C4B69586  23.911  43.002   7.350
 8792POPC   NC369587  17.557  25.257   5.550
 8792POPC   PO469588  17.498  25.315   5.850
 8792POPC   GL169589  17.555  25.286   6.150
 8792POPC   GL269590  17.535  25.388   6.150
 8792POPC   C1A69591  17.477  25.238   6.450
 8792POPC   D2A69592  17.533  25.286   6.750
 8792POPC   C3A69593  17.549  25.228   7.050
 8792POPC   C4A69594  17.509  25.277   7.350
 8792POPC   C1B69595  17.427  25.508   6.450
 8792POPC   C2B69596  17.484  25.470   6.750
 8792POPC   C3B69597  17.516  25.468   7.050
 8792POPC   C4B69598  17.507  25.525   7.350
 8793POPC   NC369599  15.176  11.343   5.550
 8793POPC   PO469600  15.145  11.298   5.850
 8793POPC   GL169601  15.181  11.261   6.150
 8793POPC   GL269602  15.150  11.422   6.150
 8793POPC   C1A69603  15.166  11.279   6.450
 8793POPC   D2A69604  15.229  11.348   6.750
 8793POPC   C3A69605  15.184  11.283   7.050
 8793POPC   C4A69606  15.149  11.325   7.350
 8793POPC   C1B69607  15.166  11.586   6.450
 8793POPC   C2B69608  15.140  11.560   6.750
 8793POPC   C3B69609  15.198  11.538   7.050
 8793POPC   C4B69610  15.131  11.564   7.350
 8794POPC   NC369611  12.049  19.040   5.550
 8794POPC   PO469612  12.101  19.031   5.850
 8794POPC   GL169613  12.083  19.046   6.150
 8794POPC   GL269614  11.983  19.132   6.150
 8794POPC   C1A69615  12.104  19.029   6.450
 8794POPC   D2A69616  12.036  19.070   6.750
 8794POPC   C3A69617  12.116  19.098   7.050
 8794POPC   C4A69618  12.093  19.046   7.350
 8794POPC   C1B69619  11.978  19.225   6.450
 8794POPC   C2B69620  11.979  19.260   6.750
 8794POPC   C3B69621  11.976  19.241   7.050
 8794POPC   C4B69622  11.966  19.293   7.350
 8795POPC   NC369623  35.397  41.584   5.550
 8795POPC   PO469624  35.321  41.587   5.850
 8795POPC   GL169625  35.321  41.590   6.150
 8795POPC   GL269626  35.323  41.637   6.150
 8795POPC   C1A69627  35.393  41.517   6.450
 8795POPC   D2A69628  35.372  41.579   6.750
 8795POPC   C3A69629  35.341  41.565   7.050
 8795POPC   C4A69630  35.306  41.576   7.350
 8795POPC   C1B69631  35.275  41.817   6.450
 8795POPC   C2B69632  35.244  41.761   6.750
 8795POPC   C3B69633  35.298  41.795   7.050
 8795POPC   C4B69634  35.259  41.783   7.350
 8796POPC   NC369635  44.627  15.982   5.550
 8796POPC   PO469636  44.667  15.925   5.850
 8796POPC   GL169637  44.636  15.909   6.150
 8796POPC   GL269638  44.574  15.899   6.150
 8796POPC   C1A69639  44.622  15.973   6.450
 8796POPC   D2A69640  44.706  15.912   6.750
 8796POPC   C3A69641  44.639  15.998   7.050
 8796POPC   C4A69642  44.633  15.938   7.350
 8796POPC   C1B69643  44.465  15.803   6.450
 8796POPC   C2B69644  44.491  15.774   6.750
 8796POPC   C3B69645  44.444  15.737   7.050
 8796POPC   C4B69646  44.447  15.804   7.350
 8797POPC   NC369647  17.495  19.794   5.550
 8797POPC   PO469648  17.458  19.856   5.850
 8797POPC   GL169649  17.499  19.808   6.150
 8797POPC   GL269650  17.386  19.814   6.150
 8797POPC   C1A69651  17.542  19.843   6.450
 8797POPC   D2A69652  17.508  19.883   6.750
 8797POPC   C3A69653  17.465  19.797   7.050
 8797POPC   C4A69654  17.528  19.796   7.350
 8797POPC   C1B69655  17.326  19.687   6.450
 8797POPC   C2B69656  17.307  19.656   6.750
 8797POPC   C3B69657  17.345  19.724   7.050
 8797POPC   C4B69658  17.313  19.699   7.350
 8798POPC   NC369659  14.444  19.050   5.550
 8798POPC   PO469660  14.443  19.046   5.850
 8798POPC   GL169661  14.441  19.033   6.150
 8798POPC   GL269662  14.470  18.978   6.150
 8798POPC   C1A69663  14.440  19.099   6.450
 8798POPC   D2A69664  14.380  19.037   6.750
 8798POPC   C3A69665  14.377  19.060   7.050
 8798POPC   C4A69666  14.408  19.062   7.350
 8798POPC   C1B69667  14.597  18.920   6.450
 8798POPC   C2B69668  14.577  18.911   6.750
 8798POPC   C3B69669  14.572  18.896   7.050
 8798POPC   C4B69670  14.541  18.848   7.350
 8799POPC   NC369671  14.438  12.033   5.550
 8799POPC   PO469672  14.411  12.032   5.850
 8799POPC   GL169673  14.391  12.054   6.150
 8799POPC   GL269674  14.483  12.103   6.150
 8799POPC   C1A69675  14.406  12.101   6.450
 8799POPC   D2A69676  14.425  12.073   6.750
 8799POPC   C3A69677  14.371  12.051   7.050
 8799POPC   C4A69678  14.389  12.059   7.350
 8799POPC   C1B69679  14.624  12.144   6.450
 8799POPC   C2B69680  14.671  12.155   6.750
 8799POPC   C3B69681  14.664  12.171   7.050
 8799POPC   C4B69682  14.642  12.116   7.350
 8800POPC   NC369683  22.151  26.808   5.550
 8800POPC   PO469684  22.173  26.863   5.850
 8800POPC   GL169685  22.138  26.840   6.150
 8800POPC   GL269686  22.322  26.814   6.150
 8800POPC   C1A69687  22.167  26.849   6.450
 8800POPC   D2A69688  22.188  26.840   6.750
 8800POPC   C3A69689  22.203  26.811   7.050
 8800POPC   C4A69690  22.113  26.809   7.350
 8800POPC   C1B69691  22.442  26.743   6.450
 8800POPC   C2B69692  22.448  26.725   6.750
 8800POPC   C3B69693  22.394  26.761   7.050
 8800POPC   C4B69694  22.439  26.710   7.350
 8801POPC   NC369695  36.131  12.875   5.550
 8801POPC   PO469696  36.105  12.902   5.850
 8801POPC   GL169697  36.170  12.878   6.150
 8801POPC   GL269698  36.222  12.883   6.150
 8801POPC   C1A69699  36.081  12.896   6.450
 8801POPC   D2A69700  36.148  12.847   6.750
 8801POPC   C3A69701  36.103  12.833   7.050
 8801POPC   C4A69702  36.118  12.845   7.350
 8801POPC   C1B69703  36.381  12.898   6.450
 8801POPC   C2B69704  36.341  12.869   6.750
 8801POPC   C3B69705  36.359  12.888   7.050
 8801POPC   C4B69706  36.372  12.954   7.350
 8802POPC   NC369707  18.240  43.921   5.550
 8802POPC   PO469708  18.266  43.882   5.850
 8802POPC   GL169709  18.243  43.846   6.150
 8802POPC   GL269710  18.292  44.056   6.150
 8802POPC   C1A69711  18.322  43.893   6.450
 8802POPC   D2A69712  18.320  43.886   6.750
 8802POPC   C3A69713  18.285  43.872   7.050
 8802POPC   C4A69714  18.310  43.932   7.350
 8802POPC   C1B69715  18.282  44.179   6.450
 8802POPC   C2B69716  18.239  44.158   6.750
 8802POPC   C3B69717  18.315  44.106   7.050
 8802POPC   C4B69718  18.277  44.130   7.350
 8803POPC   NC369719  36.084   2.027   5.550
 8803POPC   PO469720  36.117   2.035   5.850
 8803POPC   GL169721  36.100   1.990   6.150
 8803POPC   GL269722  36.107   2.106   6.150
 8803POPC   C1A69723  36.093   1.995   6.450
 8803POPC   D2A69724  36.157   1.986   6.750
 8803POPC   C3A69725  36.123   2.025   7.050
 8803POPC   C4A69726  36.078   1.979   7.350
 8803POPC   C1B69727  36.120   2.236   6.450
 8803POPC   C2B69728  36.100   2.260   6.750
 8803POPC   C3B69729  36.071   2.208   7.050
 8803POPC   C4B69730  36.117   2.230   7.350
 8804POPC   NC369731  33.791  18.265   5.550
 8804POPC   PO469732  33.822  18.280   5.850
 8804POPC   GL169733  33.769  18.289   6.150
 8804POPC   GL269734  33.876  18.439   6.150
 8804POPC   C1A69735  33.773  18.241   6.450
 8804POPC   D2A69736  33.828  18.282   6.750
 8804POPC   C3A69737  33.798  18.298   7.050
 8804POPC   C4A69738  33.814  18.277   7.350
 8804POPC   C1B69739  33.834  18.565   6.450
 8804POPC   C2B69740  33.846  18.572   6.750
 8804POPC   C3B69741  33.907  18.559   7.050
 8804POPC   C4B69742  33.866  18.481   7.350
 8805POPC   NC369743   8.208  16.756   5.550
 8805POPC   PO469744   8.195  16.752   5.850
 8805POPC   GL169745   8.221  16.749   6.150
 8805POPC   GL269746   8.125  16.676   6.150
 8805POPC   C1A69747   8.224  16.730   6.450
 8805POPC   D2A69748   8.151  16.712   6.750
 8805POPC   C3A69749   8.192  16.687   7.050
 8805POPC   C4A69750   8.190  16.708   7.350
 8805POPC   C1B69751   7.997  16.534   6.450
 8805POPC   C2B69752   8.019  16.519   6.750
 8805POPC   C3B69753   8.049  16.589   7.050
 8805POPC   C4B69754   8.082  16.574   7.350
 8806POPC   NC369755  18.267  16.749   5.550
 8806POPC   PO469756  18.305  16.758   5.850
 8806POPC   GL169757  18.285  16.740   6.150
 8806POPC   GL269758  18.149  16.843   6.150
 8806POPC   C1A69759  18.292  16.684   6.450
 8806POPC   D2A69760  18.300  16.747   6.750
 8806POPC   C3A69761  18.286  16.724   7.050
 8806POPC   C4A69762  18.319  16.719   7.350
 8806POPC   C1B69763  18.071  16.903   6.450
 8806POPC   C2B69764  18.041  16.884   6.750
 8806POPC   C3B69765  18.056  16.869   7.050
 8806POPC   C4B69766  18.079  16.834   7.350
 8807POPC   NC369767   9.794  19.818   5.550
 8807POPC   PO469768   9.743  19.823   5.850
 8807POPC   GL169769   9.724  19.857   6.150
 8807POPC   GL269770   9.860  19.880   6.150
 8807POPC   C1A69771   9.720  19.822   6.450
 8807POPC   D2A69772   9.703  19.785   6.750
 8807POPC   C3A69773   9.707  19.830   7.050
 8807POPC   C4A69774   9.746  19.840   7.350
 8807POPC   C1B69775   9.913  19.981   6.450
 8807POPC   C2B69776   9.969  20.007   6.750
 8807POPC   C3B69777   9.928  19.930   7.050
 8807POPC   C4B69778   9.977  19.997   7.350
 8808POPC   NC369779  19.027   8.163   5.550
 8808POPC   PO469780  19.092   8.185   5.850
 8808POPC   GL169781  19.053   8.230   6.150
 8808POPC   GL269782  19.026   8.042   6.150
 8808POPC   C1A69783  19.063   8.221   6.450
 8808POPC   D2A69784  19.047   8.182   6.750
 8808POPC   C3A69785  19.036   8.170   7.050
 8808POPC   C4A69786  19.051   8.184   7.350
 8808POPC   C1B69787  18.999   7.997   6.450
 8808POPC   C2B69788  19.002   7.979   6.750
 8808POPC   C3B69789  18.954   7.976   7.050
 8808POPC   C4B69790  19.002   7.986   7.350
 8809POPC   NC369791  18.253  12.098   5.550
 8809POPC   PO469792  18.288  12.077   5.850
 8809POPC   GL169793  18.265  12.093   6.150
 8809POPC   GL269794  18.141  12.115   6.150
 8809POPC   C1A69795  18.295  12.125   6.450
 8809POPC   D2A69796  18.251  12.110   6.750
 8809POPC   C3A69797  18.286  12.064   7.050
 8809POPC   C4A69798  18.264  12.049   7.350
 8809POPC   C1B69799  18.069  12.081   6.450
 8809POPC   C2B69800  18.051  12.100   6.750
 8809POPC   C3B69801  18.047  12.115   7.050
 8809POPC   C4B69802  18.050  12.031   7.350
 8810POPC   NC369803  38.461  38.485   5.550
 8810POPC   PO469804  38.462  38.409   5.850
 8810POPC   GL169805  38.419  38.495   6.150
 8810POPC   GL269806  38.443  38.367   6.150
 8810POPC   C1A69807  38.497  38.412   6.450
 8810POPC   D2A69808  38.453  38.477   6.750
 8810POPC   C3A69809  38.494  38.486   7.050
 8810POPC   C4A69810  38.447  38.476   7.350
 8810POPC   C1B69811  38.378  38.165   6.450
 8810POPC   C2B69812  38.451  38.189   6.750
 8810POPC   C3B69813  38.437  38.159   7.050
 8810POPC   C4B69814  38.460  38.196   7.350
 8811POPC   NC369815  19.868  33.816   5.550
 8811POPC   PO469816  19.834  33.752   5.850
 8811POPC   GL169817  19.847  33.766   6.150
 8811POPC   GL269818  19.736  33.753   6.150
 8811POPC   C1A69819  19.878  33.817   6.450
 8811POPC   D2A69820  19.829  33.831   6.750
 8811POPC   C3A69821  19.810  33.804   7.050
 8811POPC   C4A69822  19.881  33.834   7.350
 8811POPC   C1B69823  19.575  33.683   6.450
 8811POPC   C2B69824  19.645  33.677   6.750
 8811POPC   C3B69825  19.582  33.724   7.050
 8811POPC   C4B69826  19.647  33.728   7.350
 8812POPC   NC369827  29.884  43.150   5.550
 8812POPC   PO469828  29.884  43.088   5.850
 8812POPC   GL169829  29.946  43.120   6.150
 8812POPC   GL269830  30.027  43.243   6.150
 8812POPC   C1A69831  29.877  43.076   6.450
 8812POPC   D2A69832  29.966  43.136   6.750
 8812POPC   C3A69833  29.954  43.128   7.050
 8812POPC   C4A69834  29.928  43.091   7.350
 8812POPC   C1B69835  30.103  43.278   6.450
 8812POPC   C2B69836  30.105  43.332   6.750
 8812POPC   C3B69837  30.132  43.267   7.050
 8812POPC   C4B69838  30.121  43.317   7.350
 8813POPC   NC369839  43.080  39.184   5.550
 8813POPC   PO469840  43.114  39.263   5.850
 8813POPC   GL169841  43.144  39.262   6.150
 8813POPC   GL269842  43.099  39.368   6.150
 8813POPC   C1A69843  43.078  39.272   6.450
 8813POPC   D2A69844  43.081  39.275   6.750
 8813POPC   C3A69845  43.154  39.190   7.050
 8813POPC   C4A69846  43.087  39.200   7.350
 8813POPC   C1B69847  43.025  39.497   6.450
 8813POPC   C2B69848  42.977  39.401   6.750
 8813POPC   C3B69849  42.957  39.462   7.050
 8813POPC   C4B69850  43.011  39.464   7.350
 8814POPC   NC369851  12.898  25.993   5.550
 8814POPC   PO469852  12.824  26.002   5.850
 8814POPC   GL169853  12.819  26.012   6.150
 8814POPC   GL269854  12.778  26.149   6.150
 8814POPC   C1A69855  12.802  26.003   6.450
 8814POPC   D2A69856  12.802  26.058   6.750
 8814POPC   C3A69857  12.869  26.074   7.050
 8814POPC   C4A69858  12.830  26.036   7.350
 8814POPC   C1B69859  12.729  26.218   6.450
 8814POPC   C2B69860  12.663  26.228   6.750
 8814POPC   C3B69861  12.675  26.243   7.050
 8814POPC   C4B69862  12.726  26.216   7.350
 8815POPC   NC369863   7.430  31.481   5.550
 8815POPC   PO469864   7.383  31.512   5.850
 8815POPC   GL169865   7.371  31.461   6.150
 8815POPC   GL269866   7.363  31.555   6.150
 8815POPC   C1A69867   7.408  31.520   6.450
 8815POPC   D2A69868   7.463  31.463   6.750
 8815POPC   C3A69869   7.469  31.467   7.050
 8815POPC   C4A69870   7.455  31.509   7.350
 8815POPC   C1B69871   7.254  31.727   6.450
 8815POPC   C2B69872   7.319  31.654   6.750
 8815POPC   C3B69873   7.260  31.730   7.050
 8815POPC   C4B69874   7.325  31.691   7.350
 8816POPC   NC369875  25.295  15.165   5.550
 8816POPC   PO469876  25.272  15.146   5.850
 8816POPC   GL169877  25.250  15.225   6.150
 8816POPC   GL269878  25.228  15.307   6.150
 8816POPC   C1A69879  25.268  15.195   6.450
 8816POPC   D2A69880  25.273  15.220   6.750
 8816POPC   C3A69881  25.306  15.216   7.050
 8816POPC   C4A69882  25.235  15.197   7.350
 8816POPC   C1B69883  25.095  15.347   6.450
 8816POPC   C2B69884  25.096  15.363   6.750
 8816POPC   C3B69885  25.102  15.415   7.050
 8816POPC   C4B69886  25.082  15.364   7.350
 8817POPC   NC369887  17.553  39.988   5.550
 8817POPC   PO469888  17.504  40.035   5.850
 8817POPC   GL169889  17.467  40.007   6.150
 8817POPC   GL269890  17.571  40.078   6.150
 8817POPC   C1A69891  17.482  39.967   6.450
 8817POPC   D2A69892  17.476  39.967   6.750
 8817POPC   C3A69893  17.475  40.051   7.050
 8817POPC   C4A69894  17.476  40.055   7.350
 8817POPC   C1B69895  17.522  40.212   6.450
 8817POPC   C2B69896  17.555  40.222   6.750
 8817POPC   C3B69897  17.545  40.228   7.050
 8817POPC   C4B69898  17.602  40.228   7.350
 8818POPC   NC369899  14.358   5.874   5.550
 8818POPC   PO469900  14.440   5.887   5.850
 8818POPC   GL169901  14.358   5.884   6.150
 8818POPC   GL269902  14.400   5.988   6.150
 8818POPC   C1A69903  14.355   5.860   6.450
 8818POPC   D2A69904  14.429   5.912   6.750
 8818POPC   C3A69905  14.366   5.914   7.050
 8818POPC   C4A69906  14.413   5.828   7.350
 8818POPC   C1B69907  14.415   6.157   6.450
 8818POPC   C2B69908  14.347   6.127   6.750
 8818POPC   C3B69909  14.418   6.132   7.050
 8818POPC   C4B69910  14.353   6.091   7.350
 8819POPC   NC369911  41.552  19.023   5.550
 8819POPC   PO469912  41.549  19.065   5.850
 8819POPC   GL169913  41.586  19.014   6.150
 8819POPC   GL269914  41.478  19.073   6.150
 8819POPC   C1A69915  41.560  19.040   6.450
 8819POPC   D2A69916  41.556  19.046   6.750
 8819POPC   C3A69917  41.558  19.014   7.050
 8819POPC   C4A69918  41.592  19.028   7.350
 8819POPC   C1B69919  41.327  19.009   6.450
 8819POPC   C2B69920  41.275  19.020   6.750
 8819POPC   C3B69921  41.354  19.068   7.050
 8819POPC   C4B69922  41.354  19.060   7.350
 8820POPC   NC369923  35.338  12.063   5.550
 8820POPC   PO469924  35.386  12.085   5.850
 8820POPC   GL169925  35.375  12.044   6.150
 8820POPC   GL269926  35.329  11.909   6.150
 8820POPC   C1A69927  35.321  12.086   6.450
 8820POPC   D2A69928  35.360  12.082   6.750
 8820POPC   C3A69929  35.390  12.051   7.050
 8820POPC   C4A69930  35.363  12.048   7.350
 8820POPC   C1B69931  35.324  11.882   6.450
 8820POPC   C2B69932  35.290  11.848   6.750
 8820POPC   C3B69933  35.271  11.800   7.050
 8820POPC   C4B69934  35.261  11.811   7.350
 8821POPC   NC369935  33.752  32.210   5.550
 8821POPC   PO469936  33.776  32.213   5.850
 8821POPC   GL169937  33.832  32.206   6.150
 8821POPC   GL269938  33.658  32.301   6.150
 8821POPC   C1A69939  33.767  32.246   6.450
 8821POPC   D2A69940  33.806  32.212   6.750
 8821POPC   C3A69941  33.769  32.199   7.050
 8821POPC   C4A69942  33.791  32.280   7.350
 8821POPC   C1B69943  33.561  32.398   6.450
 8821POPC   C2B69944  33.594  32.335   6.750
 8821POPC   C3B69945  33.557  32.380   7.050
 8821POPC   C4B69946  33.581  32.411   7.350
 8822POPC   NC369947   1.234  43.119   5.550
 8822POPC   PO469948   1.249  43.146   5.850
 8822POPC   GL169949   1.171  43.144   6.150
 8822POPC   GL269950   1.335  43.209   6.150
 8822POPC   C1A69951   1.224  43.105   6.450
 8822POPC   D2A69952   1.255  43.103   6.750
 8822POPC   C3A69953   1.172  43.145   7.050
 8822POPC   C4A69954   1.217  43.125   7.350
 8822POPC   C1B69955   1.431  43.175   6.450
 8822POPC   C2B69956   1.467  43.167   6.750
 8822POPC   C3B69957   1.418  43.255   7.050
 8822POPC   C4B69958   1.487  43.188   7.350
 8823POPC   NC369959  20.652  34.550   5.550
 8823POPC   PO469960  20.605  34.581   5.850
 8823POPC   GL169961  20.619  34.556   6.150
 8823POPC   GL269962  20.677  34.672   6.150
 8823POPC   C1A69963  20.578  34.596   6.450
 8823POPC   D2A69964  20.568  34.584   6.750
 8823POPC   C3A69965  20.584  34.605   7.050
 8823POPC   C4A69966  20.597  34.583   7.350
 8823POPC   C1B69967  20.686  34.782   6.450
 8823POPC   C2B69968  20.721  34.836   6.750
 8823POPC   C3B69969  20.674  34.848   7.050
 8823POPC   C4B69970  20.679  34.834   7.350
 8824POPC   NC369971  14.374  43.111   5.550
 8824POPC   PO469972  14.354  43.158   5.850
 8824POPC   GL169973  14.415  43.070   6.150
 8824POPC   GL269974  14.522  43.146   6.150
 8824POPC   C1A69975  14.386  43.157   6.450
 8824POPC   D2A69976  14.443  43.157   6.750
 8824POPC   C3A69977  14.445  43.130   7.050
 8824POPC   C4A69978  14.452  43.065   7.350
 8824POPC   C1B69979  14.572  43.254   6.450
 8824POPC   C2B69980  14.638  43.228   6.750
 8824POPC   C3B69981  14.580  43.205   7.050
 8824POPC   C4B69982  14.642  43.218   7.350
 8825POPC   NC369983   8.163  31.507   5.550
 8825POPC   PO469984   8.234  31.471   5.850
 8825POPC   GL169985   8.150  31.479   6.150
 8825POPC   GL269986   8.355  31.387   6.150
 8825POPC   C1A69987   8.166  31.435   6.450
 8825POPC   D2A69988   8.155  31.429   6.750
 8825POPC   C3A69989   8.220  31.482   7.050
 8825POPC   C4A69990   8.163  31.514   7.350
 8825POPC   C1B69991   8.471  31.377   6.450
 8825POPC   C2B69992   8.463  31.356   6.750
 8825POPC   C3B69993   8.462  31.430   7.050
 8825POPC   C4B69994   8.401  31.423   7.350
 8826POPC   NC369995   5.091  17.509   5.550
 8826POPC   PO469996   5.105  17.535   5.850
 8826POPC   GL169997   5.076  17.458   6.150
 8826POPC   GL269998   5.164  17.611   6.150
 8826POPC   C1A69999   5.141  17.506   6.450
 8826POPC   D2A70000   5.134  17.543   6.750
 8826POPC   C3A70001   5.103  17.465   7.050
 8826POPC   C4A70002   5.126  17.502   7.350
 8826POPC   C1B70003   5.287  17.647   6.450
 8826POPC   C2B70004   5.237  17.692   6.750
 8826POPC   C3B70005   5.258  17.680   7.050
 8826POPC   C4B70006   5.283  17.698   7.350
 8827POPC   NC370007  21.341  28.341   5.550
 8827POPC   PO470008  21.410  28.357   5.850
 8827POPC   GL170009  21.379  28.371   6.150
 8827POPC   GL270010  21.358  28.230   6.150
 8827POPC   C1A70011  21.368  28.384   6.450
 8827POPC   D2A70012  21.365  28.393   6.750
 8827POPC   C3A70013  21.355  28.399   7.050
 8827POPC   C4A70014  21.380  28.394   7.350
 8827POPC   C1B70015  21.331  28.145   6.450
 8827POPC   C2B70016  21.331  28.161   6.750
 8827POPC   C3B70017  21.359  28.147   7.050
 8827POPC   C4B70018  21.293  28.133   7.350
 8828POPC   NC370019  40.759  33.071   5.550
 8828POPC   PO470020  40.765  32.999   5.850
 8828POPC   GL170021  40.808  33.048   6.150
 8828POPC   GL270022  40.665  33.036   6.150
 8828POPC   C1A70023  40.775  32.988   6.450
 8828POPC   D2A70024  40.740  33.073   6.750
 8828POPC   C3A70025  40.791  32.985   7.050
 8828POPC   C4A70026  40.741  33.014   7.350
 8828POPC   C1B70027  40.558  33.075   6.450
 8828POPC   C2B70028  40.533  33.081   6.750
 8828POPC   C3B70029  40.521  33.134   7.050
 8828POPC   C4B70030  40.503  33.051   7.350
 8829POPC   NC370031   2.757  34.594   5.550
 8829POPC   PO470032   2.732  34.609   5.850
 8829POPC   GL170033   2.728  34.608   6.150
 8829POPC   GL270034   2.605  34.634   6.150
 8829POPC   C1A70035   2.758  34.567   6.450
 8829POPC   D2A70036   2.730  34.570   6.750
 8829POPC   C3A70037   2.719  34.533   7.050
 8829POPC   C4A70038   2.730  34.596   7.350
 8829POPC   C1B70039   2.570  34.669   6.450
 8829POPC   C2B70040   2.522  34.655   6.750
 8829POPC   C3B70041   2.512  34.732   7.050
 8829POPC   C4B70042   2.494  34.660   7.350
 8830POPC   NC370043   6.625   4.326   5.550
 8830POPC   PO470044   6.617   4.357   5.850
 8830POPC   GL170045   6.622   4.334   6.150
 8830POPC   GL270046   6.702   4.199   6.150
 8830POPC   C1A70047   6.662   4.329   6.450
 8830POPC   D2A70048   6.601   4.276   6.750
 8830POPC   C3A70049   6.618   4.344   7.050
 8830POPC   C4A70050   6.669   4.281   7.350
 8830POPC   C1B70051   6.773   4.090   6.450
 8830POPC   C2B70052   6.848   4.166   6.750
 8830POPC   C3B70053   6.833   4.122   7.050
 8830POPC   C4B70054   6.839   4.122   7.350
 8831POPC   NC370055  15.185   9.788   5.550
 8831POPC   PO470056  15.227   9.786   5.850
 8831POPC   GL170057  15.130   9.760   6.150
 8831POPC   GL270058  15.313   9.716   6.150
 8831POPC   C1A70059  15.216   9.771   6.450
 8831POPC   D2A70060  15.147   9.791   6.750
 8831POPC   C3A70061  15.215   9.787   7.050
 8831POPC   C4A70062  15.198   9.793   7.350
 8831POPC   C1B70063  15.418   9.592   6.450
 8831POPC   C2B70064  15.383   9.621   6.750
 8831POPC   C3B70065  15.350   9.617   7.050
 8831POPC   C4B70066  15.417   9.595   7.350
 8832POPC   NC370067  21.411  10.484   5.550
 8832POPC   PO470068  21.422  10.539   5.850
 8832POPC   GL170069  21.345  10.538   6.150
 8832POPC   GL270070  21.414  10.355   6.150
 8832POPC   C1A70071  21.417  10.552   6.450
 8832POPC   D2A70072  21.421  10.535   6.750
 8832POPC   C3A70073  21.434  10.540   7.050
 8832POPC   C4A70074  21.436  10.523   7.350
 8832POPC   C1B70075  21.392  10.236   6.450
 8832POPC   C2B70076  21.446  10.299   6.750
 8832POPC   C3B70077  21.389  10.228   7.050
 8832POPC   C4B70078  21.401  10.231   7.350
 8833POPC   NC370079  43.098  28.400   5.550
 8833POPC   PO470080  43.065  28.333   5.850
 8833POPC   GL170081  43.061  28.344   6.150
 8833POPC   GL270082  43.233  28.371   6.150
 8833POPC   C1A70083  43.101  28.345   6.450
 8833POPC   D2A70084  43.126  28.374   6.750
 8833POPC   C3A70085  43.089  28.408   7.050
 8833POPC   C4A70086  43.148  28.323   7.350
 8833POPC   C1B70087  43.330  28.325   6.450
 8833POPC   C2B70088  43.400  28.355   6.750
 8833POPC   C3B70089  43.325  28.288   7.050
 8833POPC   C4B70090  43.376  28.338   7.350
 8834POPC   NC370091  32.214   1.166   5.550
 8834POPC   PO470092  32.279   1.180   5.850
 8834POPC   GL170093  32.223   1.239   6.150
 8834POPC   GL270094  32.394   1.198   6.150
 8834POPC   C1A70095  32.210   1.253   6.450
 8834POPC   D2A70096  32.235   1.208   6.750
 8834POPC   C3A70097  32.285   1.193   7.050
 8834POPC   C4A70098  32.212   1.183   7.350
 8834POPC   C1B70099  32.508   1.187   6.450
 8834POPC   C2B70100  32.453   1.189   6.750
 8834POPC   C3B70101  32.538   1.207   7.050
 8834POPC   C4B70102  32.461   1.222   7.350
 8835POPC   NC370103  19.062  15.145   5.550
 8835POPC   PO470104  19.078  15.188   5.850
 8835POPC   GL170105  19.090  15.134   6.150
 8835POPC   GL270106  19.079  15.035   6.150
 8835POPC   C1A70107  19.026  15.169   6.450
 8835POPC   D2A70108  19.046  15.177   6.750
 8835POPC   C3A70109  19.044  15.199   7.050
 8835POPC   C4A70110  19.018  15.183   7.350
 8835POPC   C1B70111  19.046  14.914   6.450
 8835POPC   C2B70112  18.965  14.896   6.750
 8835POPC   C3B70113  19.041  14.974   7.050
 8835POPC   C4B70114  19.000  14.964   7.350
 8836POPC   NC370115  36.896  10.551   5.550
 8836POPC   PO470116  36.912  10.507   5.850
 8836POPC   GL170117  36.866  10.540   6.150
 8836POPC   GL270118  36.888  10.601   6.150
 8836POPC   C1A70119  36.892  10.486   6.450
 8836POPC   D2A70120  36.860  10.478   6.750
 8836POPC   C3A70121  36.924  10.519   7.050
 8836POPC   C4A70122  36.888  10.547   7.350
 8836POPC   C1B70123  36.778  10.724   6.450
 8836POPC   C2B70124  36.846  10.802   6.750
 8836POPC   C3B70125  36.786  10.723   7.050
 8836POPC   C4B70126  36.780  10.797   7.350
 8837POPC   NC370127   3.563   8.244   5.550
 8837POPC   PO470128   3.494   8.169   5.850
 8837POPC   GL170129   3.530   8.214   6.150
 8837POPC   GL270130   3.511   8.113   6.150
 8837POPC   C1A70131   3.584   8.234   6.450
 8837POPC   D2A70132   3.547   8.235   6.750
 8837POPC   C3A70133   3.550   8.201   7.050
 8837POPC   C4A70134   3.591   8.163   7.350
 8837POPC   C1B70135   3.442   7.961   6.450
 8837POPC   C2B70136   3.413   7.912   6.750
 8837POPC   C3B70137   3.473   7.948   7.050
 8837POPC   C4B70138   3.418   7.938   7.350
 8838POPC   NC370139  16.765   5.106   5.550
 8838POPC   PO470140  16.778   5.112   5.850
 8838POPC   GL170141  16.709   5.136   6.150
 8838POPC   GL270142  16.767   4.984   6.150
 8838POPC   C1A70143  16.697   5.069   6.450
 8838POPC   D2A70144  16.692   5.072   6.750
 8838POPC   C3A70145  16.771   5.101   7.050
 8838POPC   C4A70146  16.710   5.089   7.350
 8838POPC   C1B70147  16.747   4.831   6.450
 8838POPC   C2B70148  16.716   4.837   6.750
 8838POPC   C3B70149  16.728   4.871   7.050
 8838POPC   C4B70150  16.755   4.886   7.350
 8839POPC   NC370151  39.238  23.691   5.550
 8839POPC   PO470152  39.218  23.671   5.850
 8839POPC   GL170153  39.245  23.720   6.150
 8839POPC   GL270154  39.338  23.827   6.150
 8839POPC   C1A70155  39.183  23.690   6.450
 8839POPC   D2A70156  39.198  23.747   6.750
 8839POPC   C3A70157  39.184  23.756   7.050
 8839POPC   C4A70158  39.233  23.750   7.350
 8839POPC   C1B70159  39.461  23.866   6.450
 8839POPC   C2B70160  39.384  23.894   6.750
 8839POPC   C3B70161  39.456  23.856   7.050
 8839POPC   C4B70162  39.451  23.872   7.350
 8840POPC   NC370163  19.106  33.824   5.550
 8840POPC   PO470164  19.070  33.794   5.850
 8840POPC   GL170165  19.093  33.757   6.150
 8840POPC   GL270166  19.167  33.744   6.150
 8840POPC   C1A70167  19.056  33.776   6.450
 8840POPC   D2A70168  19.032  33.810   6.750
 8840POPC   C3A70169  19.057  33.786   7.050
 8840POPC   C4A70170  19.043  33.843   7.350
 8840POPC   C1B70171  19.218  33.612   6.450
 8840POPC   C2B70172  19.262  33.625   6.750
 8840POPC   C3B70173  19.238  33.693   7.050
 8840POPC   C4B70174  19.237  33.634   7.350
 8841POPC   NC370175  13.595  43.842   5.550
 8841POPC   PO470176  13.659  43.850   5.850
 8841POPC   GL170177  13.622  43.893   6.150
 8841POPC   GL270178  13.670  43.744   6.150
 8841POPC   C1A70179  13.578  43.882   6.450
 8841POPC   D2A70180  13.606  43.900   6.750
 8841POPC   C3A70181  13.626  43.859   7.050
 8841POPC   C4A70182  13.610  43.905   7.350
 8841POPC   C1B70183  13.807  43.675   6.450
 8841POPC   C2B70184  13.764  43.701   6.750
 8841POPC   C3B70185  13.787  43.649   7.050
 8841POPC   C4B70186  13.761  43.722   7.350
 8842POPC   NC370187  30.696  21.423   5.550
 8842POPC   PO470188  30.733  21.414   5.850
 8842POPC   GL170189  30.698  21.347   6.150
 8842POPC   GL270190  30.753  21.476   6.150
 8842POPC   C1A70191  30.655  21.425   6.450
 8842POPC   D2A70192  30.718  21.370   6.750
 8842POPC   C3A70193  30.672  21.345   7.050
 8842POPC   C4A70194  30.647  21.432   7.350
 8842POPC   C1B70195  30.876  21.575   6.450
 8842POPC   C2B70196  30.840  21.514   6.750
 8842POPC   C3B70197  30.910  21.579   7.050
 8842POPC   C4B70198  30.923  21.565   7.350
 8843POPC   NC370199  19.842  30.670   5.550
 8843POPC   PO470200  19.787  30.724   5.850
 8843POPC   GL170201  19.842  30.699   6.150
 8843POPC   GL270202  19.755  30.760   6.150
 8843POPC   C1A70203  19.876  30.658   6.450
 8843POPC   D2A70204  19.852  30.675   6.750
 8843POPC   C3A70205  19.867  30.697   7.050
 8843POPC   C4A70206  19.856  30.660   7.350
 8843POPC   C1B70207  19.604  30.822   6.450
 8843POPC   C2B70208  19.644  30.789   6.750
 8843POPC   C3B70209  19.577  30.815   7.050
 8843POPC   C4B70210  19.584  30.808   7.350
 8844POPC   NC370211  22.186  23.679   5.550
 8844POPC   PO470212  22.185  23.753   5.850
 8844POPC   GL170213  22.210  23.730   6.150
 8844POPC   GL270214  22.098  23.818   6.150
 8844POPC   C1A70215  22.148  23.684   6.450
 8844POPC   D2A70216  22.172  23.748   6.750
 8844POPC   C3A70217  22.160  23.690   7.050
 8844POPC   C4A70218  22.123  23.752   7.350
 8844POPC   C1B70219  22.099  23.943   6.450
 8844POPC   C2B70220  22.087  23.933   6.750
 8844POPC   C3B70221  22.094  23.994   7.050
 8844POPC   C4B70222  22.120  23.940   7.350
 8845POPC   NC370223  14.385  19.812   5.550
 8845POPC   PO470224  14.412  19.867   5.850
 8845POPC   GL170225  14.429  19.796   6.150
 8845POPC   GL270226  14.536  19.816   6.150
 8845POPC   C1A70227  14.440  19.883   6.450
 8845POPC   D2A70228  14.356  19.864   6.750
 8845POPC   C3A70229  14.361  19.853   7.050
 8845POPC   C4A70230  14.440  19.800   7.350
 8845POPC   C1B70231  14.675  19.778   6.450
 8845POPC   C2B70232  14.616  19.745   6.750
 8845POPC   C3B70233  14.587  19.782   7.050
 8845POPC   C4B70234  14.674  19.742   7.350
 8846POPC   NC370235  39.215  15.200   5.550
 8846POPC   PO470236  39.201  15.168   5.850
 8846POPC   GL170237  39.195  15.191   6.150
 8846POPC   GL270238  39.288  15.282   6.150
 8846POPC   C1A70239  39.243  15.145   6.450
 8846POPC   D2A70240  39.210  15.139   6.750
 8846POPC   C3A70241  39.199  15.139   7.050
 8846POPC   C4A70242  39.232  15.222   7.350
 8846POPC   C1B70243  39.363  15.427   6.450
 8846POPC   C2B70244  39.355  15.340   6.750
 8846POPC   C3B70245  39.345  15.342   7.050
 8846POPC   C4B70246  39.324  15.361   7.350
 8847POPC   NC370247  43.069  43.074   5.550
 8847POPC   PO470248  43.099  43.133   5.850
 8847POPC   GL170249  43.103  43.148   6.150
 8847POPC   GL270250  43.158  43.280   6.150
 8847POPC   C1A70251  43.151  43.066   6.450
 8847POPC   D2A70252  43.067  43.084   6.750
 8847POPC   C3A70253  43.159  43.082   7.050
 8847POPC   C4A70254  43.133  43.141   7.350
 8847POPC   C1B70255  43.193  43.396   6.450
 8847POPC   C2B70256  43.135  43.308   6.750
 8847POPC   C3B70257  43.163  43.369   7.050
 8847POPC   C4B70258  43.152  43.374   7.350
 8848POPC   NC370259  30.699  18.293   5.550
 8848POPC   PO470260  30.715  18.250   5.850
 8848POPC   GL170261  30.665  18.319   6.150
 8848POPC   GL270262  30.722  18.197   6.150
 8848POPC   C1A70263  30.676  18.291   6.450
 8848POPC   D2A70264  30.670  18.257   6.750
 8848POPC   C3A70265  30.681  18.310   7.050
 8848POPC   C4A70266  30.688  18.304   7.350
 8848POPC   C1B70267  30.644  18.012   6.450
 8848POPC   C2B70268  30.672  18.053   6.750
 8848POPC   C3B70269  30.699  18.056   7.050
 8848POPC   C4B70270  30.627  17.994   7.350
 8849POPC   NC370271   0.419  28.403   5.550
 8849POPC   PO470272   0.410  28.330   5.850
 8849POPC   GL170273   0.433  28.363   6.150
 8849POPC   GL270274   0.490  28.459   6.150
 8849POPC   C1A70275   0.464  28.361   6.450
 8849POPC   D2A70276   0.424  28.384   6.750
 8849POPC   C3A70277   0.456  28.327   7.050
 8849POPC   C4A70278   0.472  28.332   7.350
 8849POPC   C1B70279   0.640  28.495   6.450
 8849POPC   C2B70280   0.578  28.574   6.750
 8849POPC   C3B70281   0.623  28.589   7.050
 8849POPC   C4B70282   0.657  28.505   7.350
 8850POPC   NC370283  39.205   9.007   5.550
 8850POPC   PO470284  39.236   8.931   5.850
 8850POPC   GL170285  39.190   8.944   6.150
 8850POPC   GL270286  39.218   9.069   6.150
 8850POPC   C1A70287  39.248   8.942   6.450
 8850POPC   D2A70288  39.221   8.961   6.750
 8850POPC   C3A70289  39.209   9.022   7.050
 8850POPC   C4A70290  39.273   8.927   7.350
 8850POPC   C1B70291  39.221   9.208   6.450
 8850POPC   C2B70292  39.187   9.221   6.750
 8850POPC   C3B70293  39.211   9.226   7.050
 8850POPC   C4B70294  39.203   9.188   7.350
 8851POPC   NC370295  12.866  15.187   5.550
 8851POPC   PO470296  12.821  15.140   5.850
 8851POPC   GL170297  12.849  15.176   6.150
 8851POPC   GL270298  12.735  15.125   6.150
 8851POPC   C1A70299  12.828  15.149   6.450
 8851POPC   D2A70300  12.870  15.143   6.750
 8851POPC   C3A70301  12.867  15.156   7.050
 8851POPC   C4A70302  12.808  15.145   7.350
 8851POPC   C1B70303  12.654  15.050   6.450
 8851POPC   C2B70304  12.648  15.063   6.750
 8851POPC   C3B70305  12.643  15.022   7.050
 8851POPC   C4B70306  12.653  15.044   7.350
 8852POPC   NC370307  31.442  12.829   5.550
 8852POPC   PO470308  31.454  12.833   5.850
 8852POPC   GL170309  31.499  12.891   6.150
 8852POPC   GL270310  31.532  12.948   6.150
 8852POPC   C1A70311  31.469  12.891   6.450
 8852POPC   D2A70312  31.522  12.813   6.750
 8852POPC   C3A70313  31.431  12.821   7.050
 8852POPC   C4A70314  31.448  12.879   7.350
 8852POPC   C1B70315  31.596  13.049   6.450
 8852POPC   C2B70316  31.531  13.072   6.750
 8852POPC   C3B70317  31.606  13.117   7.050
 8852POPC   C4B70318  31.565  13.048   7.350
 8853POPC   NC370319  28.416   2.722   5.550
 8853POPC   PO470320  28.361   2.741   5.850
 8853POPC   GL170321  28.384   2.732   6.150
 8853POPC   GL270322  28.285   2.785   6.150
 8853POPC   C1A70323  28.363   2.758   6.450
 8853POPC   D2A70324  28.341   2.725   6.750
 8853POPC   C3A70325  28.366   2.726   7.050
 8853POPC   C4A70326  28.391   2.795   7.350
 8853POPC   C1B70327  28.112   2.724   6.450
 8853POPC   C2B70328  28.091   2.750   6.750
 8853POPC   C3B70329  28.094   2.669   7.050
 8853POPC   C4B70330  28.093   2.706   7.350
 8854POPC   NC370331  41.512  43.841   5.550
 8854POPC   PO470332  41.533  43.841   5.850
 8854POPC   GL170333  41.515  43.853   6.150
 8854POPC   GL270334  41.483  44.003   6.150
 8854POPC   C1A70335  41.518  43.857   6.450
 8854POPC   D2A70336  41.517  43.876   6.750
 8854POPC   C3A70337  41.565  43.905   7.050
 8854POPC   C4A70338  41.600  43.920   7.350
 8854POPC   C1B70339  41.393  44.067   6.450
 8854POPC   C2B70340  41.331  44.064   6.750
 8854POPC   C3B70341  41.380  44.008   7.050
 8854POPC   C4B70342  41.328  43.997   7.350
 8855POPC   NC370343  30.743  26.831   5.550
 8855POPC   PO470344  30.655  26.832   5.850
 8855POPC   GL170345  30.712  26.829   6.150
 8855POPC   GL270346  30.668  26.925   6.150
 8855POPC   C1A70347  30.659  26.834   6.450
 8855POPC   D2A70348  30.661  26.780   6.750
 8855POPC   C3A70349  30.720  26.801   7.050
 8855POPC   C4A70350  30.688  26.788   7.350
 8855POPC   C1B70351  30.620  27.037   6.450
 8855POPC   C2B70352  30.620  27.020   6.750
 8855POPC   C3B70353  30.562  27.049   7.050
 8855POPC   C4B70354  30.583  27.084   7.350
 8856POPC   NC370355   5.093  35.340   5.550
 8856POPC   PO470356   5.046  35.384   5.850
 8856POPC   GL170357   5.052  35.379   6.150
 8856POPC   GL270358   5.189  35.278   6.150
 8856POPC   C1A70359   5.106  35.390   6.450
 8856POPC   D2A70360   5.120  35.394   6.750
 8856POPC   C3A70361   5.111  35.323   7.050
 8856POPC   C4A70362   5.122  35.335   7.350
 8856POPC   C1B70363   5.252  35.166   6.450
 8856POPC   C2B70364   5.275  35.186   6.750
 8856POPC   C3B70365   5.270  35.121   7.050
 8856POPC   C4B70366   5.241  35.163   7.350
 8857POPC   NC370367  44.628  43.124   5.550
 8857POPC   PO470368  44.662  43.104   5.850
 8857POPC   GL170369  44.641  43.105   6.150
 8857POPC   GL270370  44.591  43.269   6.150
 8857POPC   C1A70371  44.646  43.158   6.450
 8857POPC   D2A70372  44.641  43.136   6.750
 8857POPC   C3A70373  44.651  43.119   7.050
 8857POPC   C4A70374  44.648  43.120   7.350
 8857POPC   C1B70375  44.625  43.335   6.450
 8857POPC   C2B70376  44.628  43.329   6.750
 8857POPC   C3B70377  44.635  43.364   7.050
 8857POPC   C4B70378  44.564  43.314   7.350
 8858POPC   NC370379  16.704  26.827   5.550
 8858POPC   PO470380  16.766  26.825   5.850
 8858POPC   GL170381  16.761  26.816   6.150
 8858POPC   GL270382  16.738  26.969   6.150
 8858POPC   C1A70383  16.714  26.828   6.450
 8858POPC   D2A70384  16.749  26.787   6.750
 8858POPC   C3A70385  16.727  26.831   7.050
 8858POPC   C4A70386  16.760  26.805   7.350
 8858POPC   C1B70387  16.806  27.041   6.450
 8858POPC   C2B70388  16.857  27.026   6.750
 8858POPC   C3B70389  16.850  27.067   7.050
 8858POPC   C4B70390  16.810  27.087   7.350
 8859POPC   NC370391  29.897  12.071   5.550
 8859POPC   PO470392  29.962  12.103   5.850
 8859POPC   GL170393  29.878  12.030   6.150
 8859POPC   GL270394  29.966  11.983   6.150
 8859POPC   C1A70395  29.874  12.051   6.450
 8859POPC   D2A70396  29.953  12.036   6.750
 8859POPC   C3A70397  29.942  12.103   7.050
 8859POPC   C4A70398  29.937  12.041   7.350
 8859POPC   C1B70399  30.063  11.915   6.450
 8859POPC   C2B70400  30.096  11.894   6.750
 8859POPC   C3B70401  30.092  11.859   7.050
 8859POPC   C4B70402  30.032  11.834   7.350
 8860POPC   NC370403  43.158   5.142   5.550
 8860POPC   PO470404  43.071   5.048   5.850
 8860POPC   GL170405  43.132   5.115   6.150
 8860POPC   GL270406  43.023   4.994   6.150
 8860POPC   C1A70407  43.084   5.107   6.450
 8860POPC   D2A70408  43.122   5.058   6.750
 8860POPC   C3A70409  43.144   5.074   7.050
 8860POPC   C4A70410  43.129   5.089   7.350
 8860POPC   C1B70411  42.857   4.933   6.450
 8860POPC   C2B70412  42.862   4.920   6.750
 8860POPC   C3B70413  42.940   5.000   7.050
 8860POPC   C4B70414  42.871   4.947   7.350
 8861POPC   NC370415  43.142  15.996   5.550
 8861POPC   PO470416  43.090  15.933   5.850
 8861POPC   GL170417  43.095  15.931   6.150
 8861POPC   GL270418  43.256  15.922   6.150
 8861POPC   C1A70419  43.121  15.950   6.450
 8861POPC   D2A70420  43.121  15.961   6.750
 8861POPC   C3A70421  43.130  15.906   7.050
 8861POPC   C4A70422  43.078  15.914   7.350
 8861POPC   C1B70423  43.292  15.853   6.450
 8861POPC   C2B70424  43.359  15.768   6.750
 8861POPC   C3B70425  43.329  15.785   7.050
 8861POPC   C4B70426  43.343  15.844   7.350
 8862POPC   NC370427  16.690  39.965   5.550
 8862POPC   PO470428  16.761  39.958   5.850
 8862POPC   GL170429  16.734  40.022   6.150
 8862POPC   GL270430  16.768  39.868   6.150
 8862POPC   C1A70431  16.775  39.960   6.450
 8862POPC   D2A70432  16.781  39.986   6.750
 8862POPC   C3A70433  16.697  40.028   7.050
 8862POPC   C4A70434  16.709  40.001   7.350
 8862POPC   C1B70435  16.859  39.733   6.450
 8862POPC   C2B70436  16.888  39.747   6.750
 8862POPC   C3B70437  16.821  39.741   7.050
 8862POPC   C4B70438  16.859  39.766   7.350
 8863POPC   NC370439  29.894  13.595   5.550
 8863POPC   PO470440  29.903  13.672   5.850
 8863POPC   GL170441  29.910  13.672   6.150
 8863POPC   GL270442  30.037  13.734   6.150
 8863POPC   C1A70443  29.926  13.598   6.450
 8863POPC   D2A70444  29.904  13.647   6.750
 8863POPC   C3A70445  29.961  13.647   7.050
 8863POPC   C4A70446  29.956  13.623   7.350
 8863POPC   C1B70447  30.170  13.761   6.450
 8863POPC   C2B70448  30.121  13.782   6.750
 8863POPC   C3B70449  30.093  13.776   7.050
 8863POPC   C4B70450  30.112  13.707   7.350
 8864POPC   NC370451  32.255  20.647   5.550
 8864POPC   PO470452  32.268  20.584   5.850
 8864POPC   GL170453  32.229  20.657   6.150
 8864POPC   GL270454  32.128  20.656   6.150
 8864POPC   C1A70455  32.267  20.633   6.450
 8864POPC   D2A70456  32.208  20.605   6.750
 8864POPC   C3A70457  32.237  20.623   7.050
 8864POPC   C4A70458  32.282  20.588   7.350
 8864POPC   C1B70459  32.022  20.771   6.450
 8864POPC   C2B70460  32.016  20.772   6.750
 8864POPC   C3B70461  32.016  20.698   7.050
 8864POPC   C4B70462  32.007  20.737   7.350
 8865POPC   NC370463  36.868  33.782   5.550
 8865POPC   PO470464  36.945  33.849   5.850
 8865POPC   GL170465  36.900  33.766   6.150
 8865POPC   GL270466  36.959  33.882   6.150
 8865POPC   C1A70467  36.900  33.768   6.450
 8865POPC   D2A70468  36.928  33.751   6.750
 8865POPC   C3A70469  36.942  33.801   7.050
 8865POPC   C4A70470  36.859  33.805   7.350
 8865POPC   C1B70471  36.957  34.098   6.450
 8865POPC   C2B70472  36.919  34.042   6.750
 8865POPC   C3B70473  36.926  34.027   7.050
 8865POPC   C4B70474  36.979  34.044   7.350
 8866POPC   NC370475  33.827  22.191   5.550
 8866POPC   PO470476  33.764  22.164   5.850
 8866POPC   GL170477  33.752  22.124   6.150
 8866POPC   GL270478  33.813  22.086   6.150
 8866POPC   C1A70479  33.764  22.126   6.450
 8866POPC   D2A70480  33.809  22.198   6.750
 8866POPC   C3A70481  33.763  22.212   7.050
 8866POPC   C4A70482  33.826  22.178   7.350
 8866POPC   C1B70483  33.747  21.944   6.450
 8866POPC   C2B70484  33.813  21.927   6.750
 8866POPC   C3B70485  33.816  21.960   7.050
 8866POPC   C4B70486  33.732  21.905   7.350
 8867POPC   NC370487  42.350  39.184   5.550
 8867POPC   PO470488  42.325  39.237   5.850
 8867POPC   GL170489  42.339  39.263   6.150
 8867POPC   GL270490  42.418  39.256   6.150
 8867POPC   C1A70491  42.372  39.193   6.450
 8867POPC   D2A70492  42.326  39.273   6.750
 8867POPC   C3A70493  42.341  39.255   7.050
 8867POPC   C4A70494  42.361  39.235   7.350
 8867POPC   C1B70495  42.550  39.251   6.450
 8867POPC   C2B70496  42.595  39.321   6.750
 8867POPC   C3B70497  42.547  39.313   7.050
 8867POPC   C4B70498  42.530  39.290   7.350
 8868POPC   NC370499  26.775  12.897   5.550
 8868POPC   PO470500  26.820  12.859   5.850
 8868POPC   GL170501  26.809  12.843   6.150
 8868POPC   GL270502  26.648  12.841   6.150
 8868POPC   C1A70503  26.798  12.826   6.450
 8868POPC   D2A70504  26.820  12.887   6.750
 8868POPC   C3A70505  26.807  12.901   7.050
 8868POPC   C4A70506  26.810  12.883   7.350
 8868POPC   C1B70507  26.541  12.796   6.450
 8868POPC   C2B70508  26.596  12.825   6.750
 8868POPC   C3B70509  26.567  12.853   7.050
 8868POPC   C4B70510  26.568  12.797   7.350
 8869POPC   NC370511   7.405  42.383   5.550
 8869POPC   PO470512   7.418  42.348   5.850
 8869POPC   GL170513   7.396  42.334   6.150
 8869POPC   GL270514   7.290  42.285   6.150
 8869POPC   C1A70515   7.441  42.383   6.450
 8869POPC   D2A70516   7.466  42.297   6.750
 8869POPC   C3A70517   7.420  42.364   7.050
 8869POPC   C4A70518   7.460  42.360   7.350
 8869POPC   C1B70519   7.166  42.299   6.450
 8869POPC   C2B70520   7.171  42.327   6.750
 8869POPC   C3B70521   7.215  42.365   7.050
 8869POPC   C4B70522   7.219  42.366   7.350
 8870POPC   NC370523  23.754  36.090   5.550
 8870POPC   PO470524  23.750  36.158   5.850
 8870POPC   GL170525  23.730  36.151   6.150
 8870POPC   GL270526  23.792  36.236   6.150
 8870POPC   C1A70527  23.730  36.128   6.450
 8870POPC   D2A70528  23.705  36.089   6.750
 8870POPC   C3A70529  23.726  36.086   7.050
 8870POPC   C4A70530  23.760  36.122   7.350
 8870POPC   C1B70531  23.888  36.328   6.450
 8870POPC   C2B70532  23.908  36.255   6.750
 8870POPC   C3B70533  23.923  36.243   7.050
 8870POPC   C4B70534  23.932  36.324   7.350
 8871POPC   NC370535   2.747  21.435   5.550
 8871POPC   PO470536   2.746  21.377   5.850
 8871POPC   GL170537   2.716  21.407   6.150
 8871POPC   GL270538   2.709  21.535   6.150
 8871POPC   C1A70539   2.771  21.395   6.450
 8871POPC   D2A70540   2.763  21.361   6.750
 8871POPC   C3A70541   2.751  21.399   7.050
 8871POPC   C4A70542   2.766  21.383   7.350
 8871POPC   C1B70543   2.625  21.588   6.450
 8871POPC   C2B70544   2.650  21.665   6.750
 8871POPC   C3B70545   2.710  21.610   7.050
 8871POPC   C4B70546   2.662  21.666   7.350
 8872POPC   NC370547  36.936  37.671   5.550
 8872POPC   PO470548  36.894  37.705   5.850
 8872POPC   GL170549  36.877  37.703   6.150
 8872POPC   GL270550  36.840  37.826   6.150
 8872POPC   C1A70551  36.868  37.704   6.450
 8872POPC   D2A70552  36.868  37.679   6.750
 8872POPC   C3A70553  36.856  37.647   7.050
 8872POPC   C4A70554  36.878  37.656   7.350
 8872POPC   C1B70555  36.788  37.858   6.450
 8872POPC   C2B70556  36.800  37.905   6.750
 8872POPC   C3B70557  36.720  37.862   7.050
 8872POPC   C4B70558  36.764  37.836   7.350
 8873POPC   NC370559  25.262  24.463   5.550
 8873POPC   PO470560  25.252  24.480   5.850
 8873POPC   GL170561  25.264  24.469   6.150
 8873POPC   GL270562  25.173  24.397   6.150
 8873POPC   C1A70563  25.274  24.514   6.450
 8873POPC   D2A70564  25.242  24.484   6.750
 8873POPC   C3A70565  25.271  24.534   7.050
 8873POPC   C4A70566  25.220  24.446   7.350
 8873POPC   C1B70567  25.160  24.244   6.450
 8873POPC   C2B70568  25.181  24.319   6.750
 8873POPC   C3B70569  25.082  24.280   7.050
 8873POPC   C4B70570  25.102  24.245   7.350
 8874POPC   NC370571  22.972  13.622   5.550
 8874POPC   PO470572  22.927  13.614   5.850
 8874POPC   GL170573  22.963  13.647   6.150
 8874POPC   GL270574  22.950  13.742   6.150
 8874POPC   C1A70575  22.918  13.586   6.450
 8874POPC   D2A70576  22.936  13.669   6.750
 8874POPC   C3A70577  22.923  13.602   7.050
 8874POPC   C4A70578  22.902  13.609   7.350
 8874POPC   C1B70579  22.990  13.927   6.450
 8874POPC   C2B70580  22.928  13.877   6.750
 8874POPC   C3B70581  22.945  13.883   7.050
 8874POPC   C4B70582  22.936  13.870   7.350
 8875POPC   NC370583  17.475  42.295   5.550
 8875POPC   PO470584  17.538  42.373   5.850
 8875POPC   GL170585  17.503  42.331   6.150
 8875POPC   GL270586  17.394  42.369   6.150
 8875POPC   C1A70587  17.535  42.347   6.450
 8875POPC   D2A70588  17.501  42.356   6.750
 8875POPC   C3A70589  17.523  42.346   7.050
 8875POPC   C4A70590  17.531  42.362   7.350
 8875POPC   C1B70591  17.222  42.360   6.450
 8875POPC   C2B70592  17.216  42.378   6.750
 8875POPC   C3B70593  17.208  42.365   7.050
 8875POPC   C4B70594  17.218  42.385   7.350
 8876POPC   NC370595  43.127   8.153   5.550
 8876POPC   PO470596  43.117   8.199   5.850
 8876POPC   GL170597  43.063   8.220   6.150
 8876POPC   GL270598  43.010   8.269   6.150
 8876POPC   C1A70599  43.069   8.193   6.450
 8876POPC   D2A70600  43.062   8.184   6.750
 8876POPC   C3A70601  43.064   8.176   7.050
 8876POPC   C4A70602  43.067   8.241   7.350
 8876POPC   C1B70603  42.877   8.266   6.450
 8876POPC   C2B70604  42.900   8.221   6.750
 8876POPC   C3B70605  42.836   8.207   7.050
 8876POPC   C4B70606  42.894   8.237   7.350
 8877POPC   NC370607   9.784   4.291   5.550
 8877POPC   PO470608   9.725   4.339   5.850
 8877POPC   GL170609   9.701   4.323   6.150
 8877POPC   GL270610   9.791   4.164   6.150
 8877POPC   C1A70611   9.754   4.331   6.450
 8877POPC   D2A70612   9.732   4.267   6.750
 8877POPC   C3A70613   9.747   4.286   7.050
 8877POPC   C4A70614   9.698   4.327   7.350
 8877POPC   C1B70615   9.875   4.061   6.450
 8877POPC   C2B70616   9.871   4.068   6.750
 8877POPC   C3B70617   9.895   4.124   7.050
 8877POPC   C4B70618   9.873   4.153   7.350
 8878POPC   NC370619  26.777  15.919   5.550
 8878POPC   PO470620  26.839  16.001   5.850
 8878POPC   GL170621  26.846  15.999   6.150
 8878POPC   GL270622  26.698  15.933   6.150
 8878POPC   C1A70623  26.797  15.942   6.450
 8878POPC   D2A70624  26.832  15.921   6.750
 8878POPC   C3A70625  26.775  15.913   7.050
 8878POPC   C4A70626  26.787  15.975   7.350
 8878POPC   C1B70627  26.593  15.773   6.450
 8878POPC   C2B70628  26.602  15.826   6.750
 8878POPC   C3B70629  26.622  15.801   7.050
 8878POPC   C4B70630  26.651  15.782   7.350
 8879POPC   NC370631   0.420  42.341   5.550
 8879POPC   PO470632   0.440  42.344   5.850
 8879POPC   GL170633   0.405  42.289   6.150
 8879POPC   GL270634   0.267  42.300   6.150
 8879POPC   C1A70635   0.463  42.331   6.450
 8879POPC   D2A70636   0.444  42.300   6.750
 8879POPC   C3A70637   0.430  42.358   7.050
 8879POPC   C4A70638   0.411  42.384   7.350
 8879POPC   C1B70639   0.230  42.360   6.450
 8879POPC   C2B70640   0.211  42.306   6.750
 8879POPC   C3B70641   0.195  42.362   7.050
 8879POPC   C4B70642   0.160  42.338   7.350
 8880POPC   NC370643  22.931   6.604   5.550
 8880POPC   PO470644  22.972   6.673   5.850
 8880POPC   GL170645  22.915   6.662   6.150
 8880POPC   GL270646  22.813   6.725   6.150
 8880POPC   C1A70647  22.987   6.677   6.450
 8880POPC   D2A70648  22.938   6.618   6.750
 8880POPC   C3A70649  22.941   6.599   7.050
 8880POPC   C4A70650  22.948   6.666   7.350
 8880POPC   C1B70651  22.721   6.773   6.450
 8880POPC   C2B70652  22.704   6.760   6.750
 8880POPC   C3B70653  22.783   6.770   7.050
 8880POPC   C4B70654  22.745   6.769   7.350
 8881POPC   NC370655  38.465  19.043   5.550
 8881POPC   PO470656  38.486  19.052   5.850
 8881POPC   GL170657  38.462  19.011   6.150
 8881POPC   GL270658  38.356  18.969   6.150
 8881POPC   C1A70659  38.486  19.009   6.450
 8881POPC   D2A70660  38.421  19.071   6.750
 8881POPC   C3A70661  38.461  19.019   7.050
 8881POPC   C4A70662  38.503  19.056   7.350
 8881POPC   C1B70663  38.179  18.952   6.450
 8881POPC   C2B70664  38.222  18.992   6.750
 8881POPC   C3B70665  38.227  18.993   7.050
 8881POPC   C4B70666  38.183  19.006   7.350
 8882POPC   NC370667  28.404  19.106   5.550
 8882POPC   PO470668  28.378  19.065   5.850
 8882POPC   GL170669  28.345  19.023   6.150
 8882POPC   GL270670  28.472  19.154   6.150
 8882POPC   C1A70671  28.362  19.018   6.450
 8882POPC   D2A70672  28.325  19.012   6.750
 8882POPC   C3A70673  28.405  19.024   7.050
 8882POPC   C4A70674  28.387  19.054   7.350
 8882POPC   C1B70675  28.514  19.249   6.450
 8882POPC   C2B70676  28.519  19.247   6.750
 8882POPC   C3B70677  28.488  19.251   7.050
 8882POPC   C4B70678  28.541  19.257   7.350
 8883POPC   NC370679  14.360  36.904   5.550
 8883POPC   PO470680  14.367  36.951   5.850
 8883POPC   GL170681  14.435  36.917   6.150
 8883POPC   GL270682  14.548  36.954   6.150
 8883POPC   C1A70683  14.421  36.928   6.450
 8883POPC   D2A70684  14.411  36.919   6.750
 8883POPC   C3A70685  14.403  36.922   7.050
 8883POPC   C4A70686  14.394  36.888   7.350
 8883POPC   C1B70687  14.618  36.960   6.450
 8883POPC   C2B70688  14.622  36.991   6.750
 8883POPC   C3B70689  14.631  36.921   7.050
 8883POPC   C4B70690  14.613  36.932   7.350
 8884POPC   NC370691  43.847   7.424   5.550
 8884POPC   PO470692  43.912   7.409   5.850
 8884POPC   GL170693  43.869   7.452   6.150
 8884POPC   GL270694  43.841   7.294   6.150
 8884POPC   C1A70695  43.894   7.444   6.450
 8884POPC   D2A70696  43.854   7.436   6.750
 8884POPC   C3A70697  43.887   7.467   7.050
 8884POPC   C4A70698  43.918   7.460   7.350
 8884POPC   C1B70699  43.655   7.210   6.450
 8884POPC   C2B70700  43.719   7.201   6.750
 8884POPC   C3B70701  43.702   7.231   7.050
 8884POPC   C4B70702  43.689   7.266   7.350
 8885POPC   NC370703  34.590  29.927   5.550
 8885POPC   PO470704  34.568  29.934   5.850
 8885POPC   GL170705  34.553  29.958   6.150
 8885POPC   GL270706  34.707  29.869   6.150
 8885POPC   C1A70707  34.543  29.931   6.450
 8885POPC   D2A70708  34.613  29.916   6.750
 8885POPC   C3A70709  34.577  29.918   7.050
 8885POPC   C4A70710  34.536  29.931   7.350
 8885POPC   C1B70711  34.726  29.776   6.450
 8885POPC   C2B70712  34.704  29.711   6.750
 8885POPC   C3B70713  34.746  29.691   7.050
 8885POPC   C4B70714  34.702  29.744   7.350
 8886POPC   NC370715  43.123  40.016   5.550
 8886POPC   PO470716  43.115  39.987   5.850
 8886POPC   GL170717  43.113  40.002   6.150
 8886POPC   GL270718  43.144  39.871   6.150
 8886POPC   C1A70719  43.151  40.023   6.450
 8886POPC   D2A70720  43.145  40.030   6.750
 8886POPC   C3A70721  43.140  40.030   7.050
 8886POPC   C4A70722  43.095  39.998   7.350
 8886POPC   C1B70723  43.185  39.779   6.450
 8886POPC   C2B70724  43.137  39.807   6.750
 8886POPC   C3B70725  43.185  39.779   7.050
 8886POPC   C4B70726  43.161  39.792   7.350
 8887POPC   NC370727  43.098  12.058   5.550
 8887POPC   PO470728  43.144  12.107   5.850
 8887POPC   GL170729  43.125  12.107   6.150
 8887POPC   GL270730  43.168  11.940   6.150
 8887POPC   C1A70731  43.135  12.072   6.450
 8887POPC   D2A70732  43.126  12.074   6.750
 8887POPC   C3A70733  43.080  12.053   7.050
 8887POPC   C4A70734  43.155  12.069   7.350
 8887POPC   C1B70735  43.180  11.860   6.450
 8887POPC   C2B70736  43.179  11.797   6.750
 8887POPC   C3B70737  43.197  11.797   7.050
 8887POPC   C4B70738  43.194  11.866   7.350
 8888POPC   NC370739   2.807  10.526   5.550
 8888POPC   PO470740   2.741  10.519   5.850
 8888POPC   GL170741   2.717  10.543   6.150
 8888POPC   GL270742   2.923  10.497   6.150
 8888POPC   C1A70743   2.794  10.511   6.450
 8888POPC   D2A70744   2.750  10.551   6.750
 8888POPC   C3A70745   2.782  10.475   7.050
 8888POPC   C4A70746   2.765  10.552   7.350
 8888POPC   C1B70747   2.988  10.592   6.450
 8888POPC   C2B70748   2.979  10.570   6.750
 8888POPC   C3B70749   3.024  10.581   7.050
 8888POPC   C4B70750   2.985  10.556   7.350
 8889POPC   NC370751  13.602   3.591   5.550
 8889POPC   PO470752  13.659   3.519   5.850
 8889POPC   GL170753  13.606   3.524   6.150
 8889POPC   GL270754  13.730   3.570   6.150
 8889POPC   C1A70755  13.650   3.506   6.450
 8889POPC   D2A70756  13.608   3.573   6.750
 8889POPC   C3A70757  13.672   3.547   7.050
 8889POPC   C4A70758  13.622   3.562   7.350
 8889POPC   C1B70759  13.889   3.666   6.450
 8889POPC   C2B70760  13.833   3.677   6.750
 8889POPC   C3B70761  13.819   3.672   7.050
 8889POPC   C4B70762  13.889   3.622   7.350
 8890POPC   NC370763  15.170   4.303   5.550
 8890POPC   PO470764  15.134   4.292   5.850
 8890POPC   GL170765  15.223   4.275   6.150
 8890POPC   GL270766  15.085   4.441   6.150
 8890POPC   C1A70767  15.190   4.365   6.450
 8890POPC   D2A70768  15.202   4.332   6.750
 8890POPC   C3A70769  15.215   4.291   7.050
 8890POPC   C4A70770  15.136   4.280   7.350
 8890POPC   C1B70771  15.113   4.537   6.450
 8890POPC   C2B70772  15.025   4.539   6.750
 8890POPC   C3B70773  15.061   4.505   7.050
 8890POPC   C4B70774  15.054   4.500   7.350
 8891POPC   NC370775  44.638  35.337   5.550
 8891POPC   PO470776  44.665  35.326   5.850
 8891POPC   GL170777  44.682  35.313   6.150
 8891POPC   GL270778  44.739  35.276   6.150
 8891POPC   C1A70779  44.711  35.396   6.450
 8891POPC   D2A70780  44.692  35.332   6.750
 8891POPC   C3A70781  44.619  35.398   7.050
 8891POPC   C4A70782  44.704  35.380   7.350
 8891POPC   C1B70783  44.936  35.293   6.450
 8891POPC   C2B70784  44.909  35.225   6.750
 8891POPC   C3B70785  44.887  35.223   7.050
 8891POPC   C4B70786  44.862  35.227   7.350
 8892POPC   NC370787   7.461  39.975   5.550
 8892POPC   PO470788   7.436  39.992   5.850
 8892POPC   GL170789   7.426  39.982   6.150
 8892POPC   GL270790   7.491  40.073   6.150
 8892POPC   C1A70791   7.398  40.007   6.450
 8892POPC   D2A70792   7.448  39.972   6.750
 8892POPC   C3A70793   7.465  39.968   7.050
 8892POPC   C4A70794   7.444  39.992   7.350
 8892POPC   C1B70795   7.604  40.126   6.450
 8892POPC   C2B70796   7.659  40.179   6.750
 8892POPC   C3B70797   7.673  40.124   7.050
 8892POPC   C4B70798   7.598  40.135   7.350
 8893POPC   NC370799   2.014  42.330   5.550
 8893POPC   PO470800   2.002  42.335   5.850
 8893POPC   GL170801   2.033  42.296   6.150
 8893POPC   GL270802   2.057  42.381   6.150
 8893POPC   C1A70803   2.031  42.335   6.450
 8893POPC   D2A70804   1.971  42.357   6.750
 8893POPC   C3A70805   1.972  42.308   7.050
 8893POPC   C4A70806   2.020  42.342   7.350
 8893POPC   C1B70807   2.145  42.568   6.450
 8893POPC   C2B70808   2.167  42.554   6.750
 8893POPC   C3B70809   2.181  42.520   7.050
 8893POPC   C4B70810   2.144  42.515   7.350
 8894POPC   NC370811  18.318  26.807   5.550
 8894POPC   PO470812  18.270  26.771   5.850
 8894POPC   GL170813  18.307  26.865   6.150
 8894POPC   GL270814  18.153  26.887   6.150
 8894POPC   C1A70815  18.255  26.790   6.450
 8894POPC   D2A70816  18.236  26.812   6.750
 8894POPC   C3A70817  18.307  26.837   7.050
 8894POPC   C4A70818  18.243  26.816   7.350
 8894POPC   C1B70819  18.082  26.875   6.450
 8894POPC   C2B70820  18.043  26.912   6.750
 8894POPC   C3B70821  18.067  26.858   7.050
 8894POPC   C4B70822  18.064  26.907   7.350
 8895POPC   NC370823  43.105  23.716   5.550
 8895POPC   PO470824  43.097  23.723   5.850
 8895POPC   GL170825  43.091  23.747   6.150
 8895POPC   GL270826  43.281  23.689   6.150
 8895POPC   C1A70827  43.147  23.756   6.450
 8895POPC   D2A70828  43.128  23.719   6.750
 8895POPC   C3A70829  43.126  23.674   7.050
 8895POPC   C4A70830  43.109  23.746   7.350
 8895POPC   C1B70831  43.388  23.721   6.450
 8895POPC   C2B70832  43.324  23.702   6.750
 8895POPC   C3B70833  43.402  23.647   7.050
 8895POPC   C4B70834  43.383  23.633   7.350
 8896POPC   NC370835   3.512  43.846   5.550
 8896POPC   PO470836   3.580  43.869   5.850
 8896POPC   GL170837   3.563  43.929   6.150
 8896POPC   GL270838   3.549  43.985   6.150
 8896POPC   C1A70839   3.576  43.858   6.450
 8896POPC   D2A70840   3.556  43.936   6.750
 8896POPC   C3A70841   3.573  43.889   7.050
 8896POPC   C4A70842   3.525  43.913   7.350
 8896POPC   C1B70843   3.573  44.101   6.450
 8896POPC   C2B70844   3.567  44.146   6.750
 8896POPC   C3B70845   3.636  44.114   7.050
 8896POPC   C4B70846   3.602  44.157   7.350
 8897POPC   NC370847   2.788  26.836   5.550
 8897POPC   PO470848   2.780  26.832   5.850
 8897POPC   GL170849   2.771  26.783   6.150
 8897POPC   GL270850   2.845  26.855   6.150
 8897POPC   C1A70851   2.812  26.851   6.450
 8897POPC   D2A70852   2.761  26.858   6.750
 8897POPC   C3A70853   2.779  26.820   7.050
 8897POPC   C4A70854   2.800  26.801   7.350
 8897POPC   C1B70855   3.029  26.895   6.450
 8897POPC   C2B70856   3.020  26.862   6.750
 8897POPC   C3B70857   2.975  26.868   7.050
 8897POPC   C4B70858   2.977  26.903   7.350
 8898POPC   NC370859  16.764   9.782   5.550
 8898POPC   PO470860  16.758   9.747   5.850
 8898POPC   GL170861  16.725   9.734   6.150
 8898POPC   GL270862  16.675   9.677   6.150
 8898POPC   C1A70863  16.731   9.771   6.450
 8898POPC   D2A70864  16.684   9.767   6.750
 8898POPC   C3A70865  16.721   9.712   7.050
 8898POPC   C4A70866  16.718   9.724   7.350
 8898POPC   C1B70867  16.586   9.489   6.450
 8898POPC   C2B70868  16.585   9.575   6.750
 8898POPC   C3B70869  16.627   9.545   7.050
 8898POPC   C4B70870  16.613   9.493   7.350
 8899POPC   NC370871  30.700   8.201   5.550
 8899POPC   PO470872  30.727   8.223   5.850
 8899POPC   GL170873  30.655   8.190   6.150
 8899POPC   GL270874  30.551   8.169   6.150
 8899POPC   C1A70875  30.667   8.178   6.450
 8899POPC   D2A70876  30.735   8.222   6.750
 8899POPC   C3A70877  30.713   8.210   7.050
 8899POPC   C4A70878  30.708   8.175   7.350
 8899POPC   C1B70879  30.519   8.086   6.450
 8899POPC   C2B70880  30.495   8.055   6.750
 8899POPC   C3B70881  30.476   8.086   7.050
 8899POPC   C4B70882  30.492   8.041   7.350
 8900POPC   NC370883  22.165  15.188   5.550
 8900POPC   PO470884  22.148  15.200   5.850
 8900POPC   GL170885  22.158  15.133   6.150
 8900POPC   GL270886  22.227  15.120   6.150
 8900POPC   C1A70887  22.172  15.196   6.450
 8900POPC   D2A70888  22.174  15.191   6.750
 8900POPC   C3A70889  22.185  15.197   7.050
 8900POPC   C4A70890  22.141  15.146   7.350
 8900POPC   C1B70891  22.425  15.108   6.450
 8900POPC   C2B70892  22.422  15.093   6.750
 8900POPC   C3B70893  22.434  15.019   7.050
 8900POPC   C4B70894  22.366  15.067   7.350
 8901POPC   NC370895  37.719  17.551   5.550
 8901POPC   PO470896  37.674  17.547   5.850
 8901POPC   GL170897  37.637  17.525   6.150
 8901POPC   GL270898  37.725  17.439   6.150
 8901POPC   C1A70899  37.694  17.463   6.450
 8901POPC   D2A70900  37.706  17.515   6.750
 8901POPC   C3A70901  37.702  17.497   7.050
 8901POPC   C4A70902  37.670  17.521   7.350
 8901POPC   C1B70903  37.889  17.285   6.450
 8901POPC   C2B70904  37.818  17.315   6.750
 8901POPC   C3B70905  37.881  17.298   7.050
 8901POPC   C4B70906  37.822  17.289   7.350
 8902POPC   NC370907  19.050  32.295   5.550
 8902POPC   PO470908  19.084  32.230   5.850
 8902POPC   GL170909  19.087  32.270   6.150
 8902POPC   GL270910  18.995  32.096   6.150
 8902POPC   C1A70911  19.052  32.265   6.450
 8902POPC   D2A70912  19.054  32.297   6.750
 8902POPC   C3A70913  19.017  32.210   7.050
 8902POPC   C4A70914  19.033  32.241   7.350
 8902POPC   C1B70915  18.940  32.011   6.450
 8902POPC   C2B70916  18.995  31.999   6.750
 8902POPC   C3B70917  18.969  32.046   7.050
 8902POPC   C4B70918  18.952  32.029   7.350
 8903POPC   NC370919  12.085  17.518   5.550
 8903POPC   PO470920  12.054  17.524   5.850
 8903POPC   GL170921  12.053  17.532   6.150
 8903POPC   GL270922  11.982  17.451   6.150
 8903POPC   C1A70923  12.092  17.461   6.450
 8903POPC   D2A70924  12.096  17.525   6.750
 8903POPC   C3A70925  12.120  17.517   7.050
 8903POPC   C4A70926  12.060  17.502   7.350
 8903POPC   C1B70927  11.857  17.497   6.450
 8903POPC   C2B70928  11.818  17.478   6.750
 8903POPC   C3B70929  11.830  17.464   7.050
 8903POPC   C4B70930  11.835  17.501   7.350
 8904POPC   NC370931  17.478   5.893   5.550
 8904POPC   PO470932  17.465   5.861   5.850
 8904POPC   GL170933  17.529   5.863   6.150
 8904POPC   GL270934  17.474   5.731   6.150
 8904POPC   C1A70935  17.466   5.894   6.450
 8904POPC   D2A70936  17.491   5.914   6.750
 8904POPC   C3A70937  17.545   5.905   7.050
 8904POPC   C4A70938  17.508   5.902   7.350
 8904POPC   C1B70939  17.440   5.592   6.450
 8904POPC   C2B70940  17.408   5.630   6.750
 8904POPC   C3B70941  17.376   5.653   7.050
 8904POPC   C4B70942  17.447   5.601   7.350
 8905POPC   NC370943  43.888  28.337   5.550
 8905POPC   PO470944  43.878  28.363   5.850
 8905POPC   GL170945  43.908  28.401   6.150
 8905POPC   GL270946  43.962  28.286   6.150
 8905POPC   C1A70947  43.924  28.374   6.450
 8905POPC   D2A70948  43.928  28.400   6.750
 8905POPC   C3A70949  43.890  28.416   7.050
 8905POPC   C4A70950  43.897  28.359   7.350
 8905POPC   C1B70951  44.089  28.205   6.450
 8905POPC   C2B70952  44.097  28.225   6.750
 8905POPC   C3B70953  44.053  28.216   7.050
 8905POPC   C4B70954  44.045  28.204   7.350
 8906POPC   NC370955  44.657  11.327   5.550
 8906POPC   PO470956  44.689  11.336   5.850
 8906POPC   GL170957  44.694  11.254   6.150
 8906POPC   GL270958  44.702  11.157   6.150
 8906POPC   C1A70959  44.621  11.309   6.450
 8906POPC   D2A70960  44.614  11.327   6.750
 8906POPC   C3A70961  44.671  11.298   7.050
 8906POPC   C4A70962  44.637  11.278   7.350
 8906POPC   C1B70963  44.645  11.040   6.450
 8906POPC   C2B70964  44.669  11.014   6.750
 8906POPC   C3B70965  44.704  11.053   7.050
 8906POPC   C4B70966  44.683  11.085   7.350
 8907POPC   NC370967  10.512  17.510   5.550
 8907POPC   PO470968  10.520  17.496   5.850
 8907POPC   GL170969  10.508  17.543   6.150
 8907POPC   GL270970  10.603  17.558   6.150
 8907POPC   C1A70971  10.497  17.552   6.450
 8907POPC   D2A70972  10.493  17.552   6.750
 8907POPC   C3A70973  10.482  17.511   7.050
 8907POPC   C4A70974  10.561  17.551   7.350
 8907POPC   C1B70975  10.735  17.505   6.450
 8907POPC   C2B70976  10.759  17.559   6.750
 8907POPC   C3B70977  10.758  17.538   7.050
 8907POPC   C4B70978  10.756  17.599   7.350
 8908POPC   NC370979   4.292   2.015   5.550
 8908POPC   PO470980   4.298   2.007   5.850
 8908POPC   GL170981   4.364   2.014   6.150
 8908POPC   GL270982   4.250   2.127   6.150
 8908POPC   C1A70983   4.338   1.999   6.450
 8908POPC   D2A70984   4.340   2.005   6.750
 8908POPC   C3A70985   4.348   1.954   7.050
 8908POPC   C4A70986   4.327   1.940   7.350
 8908POPC   C1B70987   4.206   2.272   6.450
 8908POPC   C2B70988   4.244   2.235   6.750
 8908POPC   C3B70989   4.214   2.228   7.050
 8908POPC   C4B70990   4.209   2.242   7.350
 8909POPC   NC370991  10.532  42.373   5.550
 8909POPC   PO470992  10.565  42.375   5.850
 8909POPC   GL170993  10.478  42.383   6.150
 8909POPC   GL270994  10.421  42.256   6.150
 8909POPC   C1A70995  10.501  42.357   6.450
 8909POPC   D2A70996  10.544  42.357   6.750
 8909POPC   C3A70997  10.571  42.354   7.050
 8909POPC   C4A70998  10.537  42.288   7.350
 8909POPC   C1B70999  10.343  42.139   6.450
 8909POPC   C2B71000  10.348  42.128   6.750
 8909POPC   C3B71001  10.323  42.113   7.050
 8909POPC   C4B71002  10.383  42.170   7.350
 8910POPC   NC371003   0.456  25.259   5.550
 8910POPC   PO471004   0.399  25.272   5.850
 8910POPC   GL171005   0.441  25.297   6.150
 8910POPC   GL271006   0.574  25.242   6.150
 8910POPC   C1A71007   0.396  25.239   6.450
 8910POPC   D2A71008   0.434  25.295   6.750
 8910POPC   C3A71009   0.397  25.238   7.050
 8910POPC   C4A71010   0.391  25.259   7.350
 8910POPC   C1B71011   0.666  25.357   6.450
 8910POPC   C2B71012   0.695  25.332   6.750
 8910POPC   C3B71013   0.680  25.332   7.050
 8910POPC   C4B71014   0.703  25.335   7.350
 8911POPC   NC371015  28.357  31.487   5.550
 8911POPC   PO471016  28.409  31.522   5.850
 8911POPC   GL171017  28.376  31.468   6.150
 8911POPC   GL271018  28.275  31.387   6.150
 8911POPC   C1A71019  28.371  31.444   6.450
 8911POPC   D2A71020  28.324  31.508   6.750
 8911POPC   C3A71021  28.401  31.475   7.050
 8911POPC   C4A71022  28.365  31.479   7.350
 8911POPC   C1B71023  28.132  31.379   6.450
 8911POPC   C2B71024  28.107  31.343   6.750
 8911POPC   C3B71025  28.124  31.390   7.050
 8911POPC   C4B71026  28.152  31.383   7.350
 8912POPC   NC371027  19.043  13.669   5.550
 8912POPC   PO471028  19.086  13.591   5.850
 8912POPC   GL171029  19.101  13.616   6.150
 8912POPC   GL271030  18.931  13.576   6.150
 8912POPC   C1A71031  19.040  13.621   6.450
 8912POPC   D2A71032  19.108  13.647   6.750
 8912POPC   C3A71033  19.102  13.662   7.050
 8912POPC   C4A71034  19.045  13.583   7.350
 8912POPC   C1B71035  18.858  13.452   6.450
 8912POPC   C2B71036  18.858  13.514   6.750
 8912POPC   C3B71037  18.885  13.508   7.050
 8912POPC   C4B71038  18.811  13.464   7.350
 8913POPC   NC371039  43.063   5.869   5.550
 8913POPC   PO471040  43.136   5.840   5.850
 8913POPC   GL171041  43.083   5.840   6.150
 8913POPC   GL271042  43.140   5.767   6.150
 8913POPC   C1A71043  43.144   5.834   6.450
 8913POPC   D2A71044  43.079   5.846   6.750
 8913POPC   C3A71045  43.120   5.896   7.050
 8913POPC   C4A71046  43.062   5.825   7.350
 8913POPC   C1B71047  43.150   5.641   6.450
 8913POPC   C2B71048  43.216   5.668   6.750
 8913POPC   C3B71049  43.186   5.581   7.050
 8913POPC   C4B71050  43.128   5.637   7.350
 8914POPC   NC371051   1.995  36.901   5.550
 8914POPC   PO471052   2.034  36.881   5.850
 8914POPC   GL171053   1.943  36.887   6.150
 8914POPC   GL271054   1.976  36.779   6.150
 8914POPC   C1A71055   1.979  36.931   6.450
 8914POPC   D2A71056   2.033  36.951   6.750
 8914POPC   C3A71057   1.989  36.885   7.050
 8914POPC   C4A71058   2.009  36.907   7.350
 8914POPC   C1B71059   2.023  36.676   6.450
 8914POPC   C2B71060   2.010  36.698   6.750
 8914POPC   C3B71061   1.947  36.627   7.050
 8914POPC   C4B71062   1.980  36.675   7.350
 8915POPC   NC371063  24.453  39.255   5.550
 8915POPC   PO471064  24.495  39.275   5.850
 8915POPC   GL171065  24.442  39.220   6.150
 8915POPC   GL271066  24.587  39.161   6.150
 8915POPC   C1A71067  24.468  39.246   6.450
 8915POPC   D2A71068  24.471  39.277   6.750
 8915POPC   C3A71069  24.527  39.234   7.050
 8915POPC   C4A71070  24.460  39.213   7.350
 8915POPC   C1B71071  24.771  39.181   6.450
 8915POPC   C2B71072  24.780  39.188   6.750
 8915POPC   C3B71073  24.745  39.200   7.050
 8915POPC   C4B71074  24.688  39.194   7.350
 8916POPC   NC371075  43.929  13.597   5.550
 8916POPC   PO471076  43.918  13.583   5.850
 8916POPC   GL171077  43.909  13.589   6.150
 8916POPC   GL271078  43.908  13.467   6.150
 8916POPC   C1A71079  43.915  13.596   6.450
 8916POPC   D2A71080  43.906  13.654   6.750
 8916POPC   C3A71081  43.917  13.661   7.050
 8916POPC   C4A71082  43.875  13.600   7.350
 8916POPC   C1B71083  43.919  13.352   6.450
 8916POPC   C2B71084  43.882  13.349   6.750
 8916POPC   C3B71085  43.913  13.381   7.050
 8916POPC   C4B71086  43.921  13.368   7.350
 8917POPC   NC371087  15.174   5.076   5.550
 8917POPC   PO471088  15.136   5.129   5.850
 8917POPC   GL171089  15.167   5.139   6.150
 8917POPC   GL271090  15.296   5.202   6.150
 8917POPC   C1A71091  15.183   5.133   6.450
 8917POPC   D2A71092  15.137   5.082   6.750
 8917POPC   C3A71093  15.215   5.104   7.050
 8917POPC   C4A71094  15.139   5.045   7.350
 8917POPC   C1B71095  15.304   5.256   6.450
 8917POPC   C2B71096  15.381   5.245   6.750
 8917POPC   C3B71097  15.389   5.239   7.050
 8917POPC   C4B71098  15.388   5.228   7.350
 8918POPC   NC371099  33.034   4.334   5.550
 8918POPC   PO471100  32.999   4.351   5.850
 8918POPC   GL171101  33.068   4.364   6.150
 8918POPC   GL271102  32.957   4.371   6.150
 8918POPC   C1A71103  33.033   4.312   6.450
 8918POPC   D2A71104  32.983   4.290   6.750
 8918POPC   C3A71105  33.037   4.326   7.050
 8918POPC   C4A71106  33.039   4.349   7.350
 8918POPC   C1B71107  32.788   4.395   6.450
 8918POPC   C2B71108  32.788   4.473   6.750
 8918POPC   C3B71109  32.832   4.420   7.050
 8918POPC   C4B71110  32.758   4.439   7.350
 8919POPC   NC371111  23.709  41.571   5.550
 8919POPC   PO471112  23.733  41.515   5.850
 8919POPC   GL171113  23.697  41.584   6.150
 8919POPC   GL271114  23.798  41.695   6.150
 8919POPC   C1A71115  23.762  41.599   6.450
 8919POPC   D2A71116  23.747  41.589   6.750
 8919POPC   C3A71117  23.738  41.608   7.050
 8919POPC   C4A71118  23.733  41.521   7.350
 8919POPC   C1B71119  23.754  41.757   6.450
 8919POPC   C2B71120  23.787  41.752   6.750
 8919POPC   C3B71121  23.753  41.768   7.050
 8919POPC   C4B71122  23.769  41.753   7.350
 8920POPC   NC371123  16.682  29.909   5.550
 8920POPC   PO471124  16.740  29.890   5.850
 8920POPC   GL171125  16.740  29.878   6.150
 8920POPC   GL271126  16.837  29.925   6.150
 8920POPC   C1A71127  16.700  29.876   6.450
 8920POPC   D2A71128  16.682  29.958   6.750
 8920POPC   C3A71129  16.724  29.892   7.050
 8920POPC   C4A71130  16.728  29.936   7.350
 8920POPC   C1B71131  16.976  30.056   6.450
 8920POPC   C2B71132  16.949  30.037   6.750
 8920POPC   C3B71133  16.984  30.002   7.050
 8920POPC   C4B71134  16.958  30.060   7.350
 8921POPC   NC371135  24.507  40.770   5.550
 8921POPC   PO471136  24.474  40.737   5.850
 8921POPC   GL171137  24.525  40.778   6.150
 8921POPC   GL271138  24.448  40.858   6.150
 8921POPC   C1A71139  24.472  40.815   6.450
 8921POPC   D2A71140  24.474  40.743   6.750
 8921POPC   C3A71141  24.502  40.741   7.050
 8921POPC   C4A71142  24.528  40.744   7.350
 8921POPC   C1B71143  24.312  40.976   6.450
 8921POPC   C2B71144  24.327  41.005   6.750
 8921POPC   C3B71145  24.310  40.995   7.050
 8921POPC   C4B71146  24.401  41.035   7.350
 8922POPC   NC371147   2.008   3.544   5.550
 8922POPC   PO471148   1.993   3.493   5.850
 8922POPC   GL171149   2.032   3.532   6.150
 8922POPC   GL271150   1.844   3.539   6.150
 8922POPC   C1A71151   1.993   3.582   6.450
 8922POPC   D2A71152   2.037   3.501   6.750
 8922POPC   C3A71153   2.020   3.560   7.050
 8922POPC   C4A71154   2.025   3.551   7.350
 8922POPC   C1B71155   1.725   3.482   6.450
 8922POPC   C2B71156   1.767   3.524   6.750
 8922POPC   C3B71157   1.774   3.471   7.050
 8922POPC   C4B71158   1.744   3.443   7.350
 8923POPC   NC371159   7.384  14.412   5.550
 8923POPC   PO471160   7.425  14.358   5.850
 8923POPC   GL171161   7.449  14.394   6.150
 8923POPC   GL271162   7.256  14.390   6.150
 8923POPC   C1A71163   7.420  14.426   6.450
 8923POPC   D2A71164   7.404  14.376   6.750
 8923POPC   C3A71165   7.393  14.413   7.050
 8923POPC   C4A71166   7.466  14.442   7.350
 8923POPC   C1B71167   7.152  14.472   6.450
 8923POPC   C2B71168   7.128  14.476   6.750
 8923POPC   C3B71169   7.162  14.413   7.050
 8923POPC   C4B71170   7.195  14.460   7.350
 8924POPC   NC371171  35.341  42.339   5.550
 8924POPC   PO471172  35.399  42.325   5.850
 8924POPC   GL171173  35.400  42.378   6.150
 8924POPC   GL271174  35.258  42.196   6.150
 8924POPC   C1A71175  35.327  42.324   6.450
 8924POPC   D2A71176  35.309  42.364   6.750
 8924POPC   C3A71177  35.332  42.307   7.050
 8924POPC   C4A71178  35.339  42.358   7.350
 8924POPC   C1B71179  35.144  42.165   6.450
 8924POPC   C2B71180  35.146  42.156   6.750
 8924POPC   C3B71181  35.198  42.121   7.050
 8924POPC   C4B71182  35.181  42.178   7.350
 8925POPC   NC371183   0.476   9.786   5.550
 8925POPC   PO471184   0.441   9.760   5.850
 8925POPC   GL171185   0.415   9.720   6.150
 8925POPC   GL271186   0.505   9.654   6.150
 8925POPC   C1A71187   0.453   9.785   6.450
 8925POPC   D2A71188   0.423   9.757   6.750
 8925POPC   C3A71189   0.392   9.750   7.050
 8925POPC   C4A71190   0.433   9.774   7.350
 8925POPC   C1B71191   0.550   9.534   6.450
 8925POPC   C2B71192   0.521   9.470   6.750
 8925POPC   C3B71193   0.515   9.487   7.050
 8925POPC   C4B71194   0.557   9.468   7.350
 8926POPC   NC371195  32.264  10.570   5.550
 8926POPC   PO471196  32.205  10.538   5.850
 8926POPC   GL171197  32.282  10.563   6.150
 8926POPC   GL271198  32.158  10.639   6.150
 8926POPC   C1A71199  32.282  10.475   6.450
 8926POPC   D2A71200  32.279  10.475   6.750
 8926POPC   C3A71201  32.232  10.557   7.050
 8926POPC   C4A71202  32.260  10.520   7.350
 8926POPC   C1B71203  32.148  10.735   6.450
 8926POPC   C2B71204  32.137  10.696   6.750
 8926POPC   C3B71205  32.110  10.711   7.050
 8926POPC   C4B71206  32.083  10.690   7.350
 8927POPC   NC371207  25.244  36.101   5.550
 8927POPC   PO471208  25.220  36.099   5.850
 8927POPC   GL171209  25.244  36.138   6.150
 8927POPC   GL271210  25.294  35.973   6.150
 8927POPC   C1A71211  25.279  36.087   6.450
 8927POPC   D2A71212  25.245  36.158   6.750
 8927POPC   C3A71213  25.305  36.159   7.050
 8927POPC   C4A71214  25.273  36.079   7.350
 8927POPC   C1B71215  25.280  35.906   6.450
 8927POPC   C2B71216  25.329  35.915   6.750
 8927POPC   C3B71217  25.335  35.879   7.050
 8927POPC   C4B71218  25.332  35.874   7.350
 8928POPC   NC371219  14.430  10.530   5.550
 8928POPC   PO471220  14.384  10.511   5.850
 8928POPC   GL171221  14.391  10.494   6.150
 8928POPC   GL271222  14.284  10.448   6.150
 8928POPC   C1A71223  14.373  10.506   6.450
 8928POPC   D2A71224  14.441  10.507   6.750
 8928POPC   C3A71225  14.408  10.481   7.050
 8928POPC   C4A71226  14.443  10.570   7.350
 8928POPC   C1B71227  14.149  10.441   6.450
 8928POPC   C2B71228  14.215  10.355   6.750
 8928POPC   C3B71229  14.230  10.417   7.050
 8928POPC   C4B71230  14.226  10.416   7.350
 8929POPC   NC371231  29.175   5.825   5.550
 8929POPC   PO471232  29.096   5.824   5.850
 8929POPC   GL171233  29.144   5.823   6.150
 8929POPC   GL271234  29.177   5.785   6.150
 8929POPC   C1A71235  29.174   5.851   6.450
 8929POPC   D2A71236  29.125   5.858   6.750
 8929POPC   C3A71237  29.189   5.863   7.050
 8929POPC   C4A71238  29.169   5.875   7.350
 8929POPC   C1B71239  29.340   5.681   6.450
 8929POPC   C2B71240  29.264   5.627   6.750
 8929POPC   C3B71241  29.331   5.661   7.050
 8929POPC   C4B71242  29.257   5.660   7.350
 8930POPC   NC371243  36.161  38.481   5.550
 8930POPC   PO471244  36.152  38.461   5.850
 8930POPC   GL171245  36.162  38.424   6.150
 8930POPC   GL271246  36.240  38.353   6.150
 8930POPC   C1A71247  36.122  38.477   6.450
 8930POPC   D2A71248  36.149  38.423   6.750
 8930POPC   C3A71249  36.079  38.492   7.050
 8930POPC   C4A71250  36.137  38.489   7.350
 8930POPC   C1B71251  36.378  38.351   6.450
 8930POPC   C2B71252  36.346  38.357   6.750
 8930POPC   C3B71253  36.354  38.350   7.050
 8930POPC   C4B71254  36.358  38.365   7.350
 8931POPC   NC371255  13.672  31.486   5.550
 8931POPC   PO471256  13.628  31.508   5.850
 8931POPC   GL171257  13.594  31.491   6.150
 8931POPC   GL271258  13.766  31.402   6.150
 8931POPC   C1A71259  13.599  31.498   6.450
 8931POPC   D2A71260  13.669  31.423   6.750
 8931POPC   C3A71261  13.616  31.487   7.050
 8931POPC   C4A71262  13.610  31.494   7.350
 8931POPC   C1B71263  13.889  31.406   6.450
 8931POPC   C2B71264  13.845  31.337   6.750
 8931POPC   C3B71265  13.838  31.360   7.050
 8931POPC   C4B71266  13.888  31.334   7.350
 8932POPC   NC371267  27.596  41.528   5.550
 8932POPC   PO471268  27.564  41.528   5.850
 8932POPC   GL171269  27.588  41.535   6.150
 8932POPC   GL271270  27.439  41.629   6.150
 8932POPC   C1A71271  27.626  41.577   6.450
 8932POPC   D2A71272  27.562  41.560   6.750
 8932POPC   C3A71273  27.556  41.580   7.050
 8932POPC   C4A71274  27.561  41.604   7.350
 8932POPC   C1B71275  27.407  41.672   6.450
 8932POPC   C2B71276  27.330  41.652   6.750
 8932POPC   C3B71277  27.402  41.602   7.050
 8932POPC   C4B71278  27.369  41.610   7.350
 8933POPC   NC371279  21.372  41.597   5.550
 8933POPC   PO471280  21.361  41.540   5.850
 8933POPC   GL171281  21.341  41.586   6.150
 8933POPC   GL271282  21.493  41.486   6.150
 8933POPC   C1A71283  21.428  41.579   6.450
 8933POPC   D2A71284  21.380  41.523   6.750
 8933POPC   C3A71285  21.393  41.586   7.050
 8933POPC   C4A71286  21.354  41.591   7.350
 8933POPC   C1B71287  21.619  41.364   6.450
 8933POPC   C2B71288  21.615  41.355   6.750
 8933POPC   C3B71289  21.576  41.343   7.050
 8933POPC   C4B71290  21.597  41.427   7.350
 8934POPC   NC371291  10.507  43.846   5.550
 8934POPC   PO471292  10.474  43.866   5.850
 8934POPC   GL171293  10.492  43.923   6.150
 8934POPC   GL271294  10.624  43.962   6.150
 8934POPC   C1A71295  10.525  43.931   6.450
 8934POPC   D2A71296  10.514  43.870   6.750
 8934POPC   C3A71297  10.563  43.917   7.050
 8934POPC   C4A71298  10.561  43.906   7.350
 8934POPC   C1B71299  10.741  43.988   6.450
 8934POPC   C2B71300  10.690  44.011   6.750
 8934POPC   C3B71301  10.718  44.027   7.050
 8934POPC   C4B71302  10.739  44.061   7.350
 8935POPC   NC371303  28.417  28.359   5.550
 8935POPC   PO471304  28.389  28.322   5.850
 8935POPC   GL171305  28.367  28.371   6.150
 8935POPC   GL271306  28.300  28.307   6.150
 8935POPC   C1A71307  28.402  28.324   6.450
 8935POPC   D2A71308  28.396  28.382   6.750
 8935POPC   C3A71309  28.413  28.407   7.050
 8935POPC   C4A71310  28.404  28.374   7.350
 8935POPC   C1B71311  28.180  28.279   6.450
 8935POPC   C2B71312  28.113  28.246   6.750
 8935POPC   C3B71313  28.143  28.320   7.050
 8935POPC   C4B71314  28.155  28.238   7.350
 8936POPC   NC371315  20.571   1.229   5.550
 8936POPC   PO471316  20.653   1.225   5.850
 8936POPC   GL171317  20.570   1.262   6.150
 8936POPC   GL271318  20.488   1.240   6.150
 8936POPC   C1A71319  20.603   1.180   6.450
 8936POPC   D2A71320  20.644   1.233   6.750
 8936POPC   C3A71321  20.584   1.219   7.050
 8936POPC   C4A71322  20.565   1.201   7.350
 8936POPC   C1B71323  20.371   1.251   6.450
 8936POPC   C2B71324  20.384   1.255   6.750
 8936POPC   C3B71325  20.312   1.230   7.050
 8936POPC   C4B71326  20.369   1.253   7.350
 8937POPC   NC371327   4.318  19.800   5.550
 8937POPC   PO471328   4.315  19.842   5.850
 8937POPC   GL171329   4.337  19.820   6.150
 8937POPC   GL271330   4.238  19.736   6.150
 8937POPC   C1A71331   4.327  19.850   6.450
 8937POPC   D2A71332   4.319  19.824   6.750
 8937POPC   C3A71333   4.271  19.847   7.050
 8937POPC   C4A71334   4.351  19.787   7.350
 8937POPC   C1B71335   4.222  19.639   6.450
 8937POPC   C2B71336   4.257  19.582   6.750
 8937POPC   C3B71337   4.232  19.563   7.050
 8937POPC   C4B71338   4.257  19.608   7.350
 8938POPC   NC371339  39.233  33.781   5.550
 8938POPC   PO471340  39.195  33.821   5.850
 8938POPC   GL171341  39.194  33.768   6.150
 8938POPC   GL271342  39.268  33.868   6.150
 8938POPC   C1A71343  39.211  33.800   6.450
 8938POPC   D2A71344  39.216  33.765   6.750
 8938POPC   C3A71345  39.261  33.782   7.050
 8938POPC   C4A71346  39.193  33.759   7.350
 8938POPC   C1B71347  39.350  34.031   6.450
 8938POPC   C2B71348  39.341  33.993   6.750
 8938POPC   C3B71349  39.364  34.011   7.050
 8938POPC   C4B71350  39.412  33.978   7.350
 8939POPC   NC371351  11.270  13.646   5.550
 8939POPC   PO471352  11.261  13.614   5.850
 8939POPC   GL171353  11.349  13.677   6.150
 8939POPC   GL271354  11.242  13.578   6.150
 8939POPC   C1A71355  11.262  13.646   6.450
 8939POPC   D2A71356  11.304  13.593   6.750
 8939POPC   C3A71357  11.253  13.643   7.050
 8939POPC   C4A71358  11.312  13.652   7.350
 8939POPC   C1B71359  11.111  13.475   6.450
 8939POPC   C2B71360  11.118  13.474   6.750
 8939POPC   C3B71361  11.050  13.451   7.050
 8939POPC   C4B71362  11.093  13.541   7.350
 8940POPC   NC371363   9.727  15.927   5.550
 8940POPC   PO471364   9.744  15.937   5.850
 8940POPC   GL171365   9.703  15.928   6.150
 8940POPC   GL271366   9.593  15.949   6.150
 8940POPC   C1A71367   9.783  15.995   6.450
 8940POPC   D2A71368   9.733  15.941   6.750
 8940POPC   C3A71369   9.772  15.955   7.050
 8940POPC   C4A71370   9.794  15.916   7.350
 8940POPC   C1B71371   9.536  15.902   6.450
 8940POPC   C2B71372   9.513  15.884   6.750
 8940POPC   C3B71373   9.510  15.862   7.050
 8940POPC   C4B71374   9.498  15.882   7.350
 8941POPC   NC371375  24.505  34.554   5.550
 8941POPC   PO471376  24.530  34.587   5.850
 8941POPC   GL171377  24.530  34.562   6.150
 8941POPC   GL271378  24.419  34.687   6.150
 8941POPC   C1A71379  24.514  34.566   6.450
 8941POPC   D2A71380  24.484  34.623   6.750
 8941POPC   C3A71381  24.461  34.578   7.050
 8941POPC   C4A71382  24.462  34.562   7.350
 8941POPC   C1B71383  24.295  34.711   6.450
 8941POPC   C2B71384  24.345  34.777   6.750
 8941POPC   C3B71385  24.296  34.701   7.050
 8941POPC   C4B71386  24.264  34.692   7.350
 8942POPC   NC371387  38.503  12.822   5.550
 8942POPC   PO471388  38.457  12.863   5.850
 8942POPC   GL171389  38.412  12.839   6.150
 8942POPC   GL271390  38.544  12.841   6.150
 8942POPC   C1A71391  38.435  12.891   6.450
 8942POPC   D2A71392  38.436  12.895   6.750
 8942POPC   C3A71393  38.455  12.857   7.050
 8942POPC   C4A71394  38.489  12.821   7.350
 8942POPC   C1B71395  38.724  12.920   6.450
 8942POPC   C2B71396  38.673  12.914   6.750
 8942POPC   C3B71397  38.691  12.909   7.050
 8942POPC   C4B71398  38.664  12.940   7.350
 8943POPC   NC371399  11.279   1.988   5.550
 8943POPC   PO471400  11.343   1.981   5.850
 8943POPC   GL171401  11.323   2.009   6.150
 8943POPC   GL271402  11.165   1.991   6.150
 8943POPC   C1A71403  11.325   1.964   6.450
 8943POPC   D2A71404  11.251   1.988   6.750
 8943POPC   C3A71405  11.348   1.981   7.050
 8943POPC   C4A71406  11.264   1.957   7.350
 8943POPC   C1B71407  11.085   2.041   6.450
 8943POPC   C2B71408  11.039   2.075   6.750
 8943POPC   C3B71409  11.015   2.003   7.050
 8943POPC   C4B71410  11.016   2.040   7.350
 8944POPC   NC371411  22.965   1.216   5.550
 8944POPC   PO471412  22.945   1.165   5.850
 8944POPC   GL171413  22.922   1.261   6.150
 8944POPC   GL271414  22.828   1.216   6.150
 8944POPC   C1A71415  22.942   1.212   6.450
 8944POPC   D2A71416  22.924   1.207   6.750
 8944POPC   C3A71417  22.918   1.186   7.050
 8944POPC   C4A71418  22.956   1.213   7.350
 8944POPC   C1B71419  22.741   1.308   6.450
 8944POPC   C2B71420  22.656   1.322   6.750
 8944POPC   C3B71421  22.693   1.270   7.050
 8944POPC   C4B71422  22.729   1.255   7.350
 8945POPC   NC371423   2.032  43.090   5.550
 8945POPC   PO471424   2.024  43.095   5.850
 8945POPC   GL171425   1.965  43.133   6.150
 8945POPC   GL271426   2.060  43.143   6.150
 8945POPC   C1A71427   1.956  43.064   6.450
 8945POPC   D2A71428   1.995  43.151   6.750
 8945POPC   C3A71429   2.016  43.141   7.050
 8945POPC   C4A71430   2.005  43.130   7.350
 8945POPC   C1B71431   2.171  43.249   6.450
 8945POPC   C2B71432   2.182  43.227   6.750
 8945POPC   C3B71433   2.203  43.263   7.050
 8945POPC   C4B71434   2.170  43.204   7.350
 8946POPC   NC371435  41.514  29.159   5.550
 8946POPC   PO471436  41.592  29.122   5.850
 8946POPC   GL171437  41.551  29.183   6.150
 8946POPC   GL271438  41.646  29.088   6.150
 8946POPC   C1A71439  41.562  29.172   6.450
 8946POPC   D2A71440  41.573  29.168   6.750
 8946POPC   C3A71441  41.549  29.123   7.050
 8946POPC   C4A71442  41.511  29.100   7.350
 8946POPC   C1B71443  41.773  29.076   6.450
 8946POPC   C2B71444  41.760  29.077   6.750
 8946POPC   C3B71445  41.837  29.041   7.050
 8946POPC   C4B71446  41.815  29.039   7.350
 8947POPC   NC371447  39.237  44.695   5.550
 8947POPC   PO471448  39.217  44.663   5.850
 8947POPC   GL171449  39.197  44.670   6.150
 8947POPC   GL271450  39.113  44.705   6.150
 8947POPC   C1A71451  39.191  44.697   6.450
 8947POPC   D2A71452  39.249  44.696   6.750
 8947POPC   C3A71453  39.236  44.658   7.050
 8947POPC   C4A71454  39.194  44.656   7.350
 8947POPC   C1B71455  39.031  44.781   6.450
 8947POPC   C2B71456  39.019  44.738   6.750
 8947POPC   C3B71457  38.995  44.807   7.050
 8947POPC   C4B71458  39.036  44.830   7.350
 8948POPC   NC371459   4.282   8.155   5.550
 8948POPC   PO471460   4.330   8.217   5.850
 8948POPC   GL171461   4.332   8.202   6.150
 8948POPC   GL271462   4.349   8.277   6.150
 8948POPC   C1A71463   4.271   8.216   6.450
 8948POPC   D2A71464   4.273   8.235   6.750
 8948POPC   C3A71465   4.308   8.148   7.050
 8948POPC   C4A71466   4.353   8.235   7.350
 8948POPC   C1B71467   4.322   8.459   6.450
 8948POPC   C2B71468   4.328   8.490   6.750
 8948POPC   C3B71469   4.353   8.405   7.050
 8948POPC   C4B71470   4.275   8.472   7.350
 8949POPC   NC371471  23.710  40.802   5.550
 8949POPC   PO471472  23.714  40.800   5.850
 8949POPC   GL171473  23.714  40.798   6.150
 8949POPC   GL271474  23.827  40.832   6.150
 8949POPC   C1A71475  23.732  40.832   6.450
 8949POPC   D2A71476  23.740  40.748   6.750
 8949POPC   C3A71477  23.763  40.754   7.050
 8949POPC   C4A71478  23.707  40.785   7.350
 8949POPC   C1B71479  23.964  40.809   6.450
 8949POPC   C2B71480  23.967  40.788   6.750
 8949POPC   C3B71481  23.926  40.811   7.050
 8949POPC   C4B71482  23.962  40.734   7.350
 8950POPC   NC371483   2.797  26.082   5.550
 8950POPC   PO471484   2.784  26.023   5.850
 8950POPC   GL171485   2.794  26.049   6.150
 8950POPC   GL271486   2.609  25.962   6.150
 8950POPC   C1A71487   2.807  26.063   6.450
 8950POPC   D2A71488   2.735  26.078   6.750
 8950POPC   C3A71489   2.729  26.073   7.050
 8950POPC   C4A71490   2.716  25.998   7.350
 8950POPC   C1B71491   2.516  25.933   6.450
 8950POPC   C2B71492   2.536  25.985   6.750
 8950POPC   C3B71493   2.478  25.983   7.050
 8950POPC   C4B71494   2.552  25.964   7.350
 8951POPC   NC371495   3.559  32.240   5.550
 8951POPC   PO471496   3.579  32.239   5.850
 8951POPC   GL171497   3.512  32.201   6.150
 8951POPC   GL271498   3.559  32.098   6.150
 8951POPC   C1A71499   3.532  32.219   6.450
 8951POPC   D2A71500   3.493  32.203   6.750
 8951POPC   C3A71501   3.570  32.298   7.050
 8951POPC   C4A71502   3.591  32.295   7.350
 8951POPC   C1B71503   3.565  32.012   6.450
 8951POPC   C2B71504   3.561  31.988   6.750
 8951POPC   C3B71505   3.606  31.984   7.050
 8951POPC   C4B71506   3.594  31.958   7.350
 8952POPC   NC371507   6.650  42.300   5.550
 8952POPC   PO471508   6.650  42.303   5.850
 8952POPC   GL171509   6.682  42.321   6.150
 8952POPC   GL271510   6.779  42.246   6.150
 8952POPC   C1A71511   6.680  42.372   6.450
 8952POPC   D2A71512   6.612  42.380   6.750
 8952POPC   C3A71513   6.644  42.325   7.050
 8952POPC   C4A71514   6.662  42.315   7.350
 8952POPC   C1B71515   6.924  42.263   6.450
 8952POPC   C2B71516   6.839  42.232   6.750
 8952POPC   C3B71517   6.873  42.231   7.050
 8952POPC   C4B71518   6.841  42.296   7.350
 8953POPC   NC371519  22.204  39.967   5.550
 8953POPC   PO471520  22.119  40.024   5.850
 8953POPC   GL171521  22.175  40.042   6.150
 8953POPC   GL271522  22.312  40.063   6.150
 8953POPC   C1A71523  22.161  40.017   6.450
 8953POPC   D2A71524  22.175  40.010   6.750
 8953POPC   C3A71525  22.158  39.961   7.050
 8953POPC   C4A71526  22.125  39.971   7.350
 8953POPC   C1B71527  22.450  40.080   6.450
 8953POPC   C2B71528  22.409  40.021   6.750
 8953POPC   C3B71529  22.394  40.077   7.050
 8953POPC   C4B71530  22.427  40.111   7.350
 8954POPC   NC371531   0.418  39.214   5.550
 8954POPC   PO471532   0.470  39.257   5.850
 8954POPC   GL171533   0.400  39.210   6.150
 8954POPC   GL271534   0.512  39.250   6.150
 8954POPC   C1A71535   0.464  39.276   6.450
 8954POPC   D2A71536   0.484  39.244   6.750
 8954POPC   C3A71537   0.397  39.199   7.050
 8954POPC   C4A71538   0.430  39.200   7.350
 8954POPC   C1B71539   0.644  39.308   6.450
 8954POPC   C2B71540   0.708  39.321   6.750
 8954POPC   C3B71541   0.680  39.373   7.050
 8954POPC   C4B71542   0.682  39.354   7.350
 8955POPC   NC371543  12.809  36.923   5.550
 8955POPC   PO471544  12.882  36.864   5.850
 8955POPC   GL171545  12.872  36.871   6.150
 8955POPC   GL271546  12.931  36.810   6.150
 8955POPC   C1A71547  12.824  36.953   6.450
 8955POPC   D2A71548  12.821  36.930   6.750
 8955POPC   C3A71549  12.889  36.946   7.050
 8955POPC   C4A71550  12.883  36.898   7.350
 8955POPC   C1B71551  12.944  36.674   6.450
 8955POPC   C2B71552  12.931  36.659   6.750
 8955POPC   C3B71553  12.946  36.635   7.050
 8955POPC   C4B71554  12.881  36.709   7.350
 8956POPC   NC371555  43.907  22.185   5.550
 8956POPC   PO471556  43.871  22.171   5.850
 8956POPC   GL171557  43.843  22.163   6.150
 8956POPC   GL271558  43.787  22.295   6.150
 8956POPC   C1A71559  43.924  22.117   6.450
 8956POPC   D2A71560  43.849  22.125   6.750
 8956POPC   C3A71561  43.883  22.159   7.050
 8956POPC   C4A71562  43.865  22.199   7.350
 8956POPC   C1B71563  43.655  22.306   6.450
 8956POPC   C2B71564  43.725  22.352   6.750
 8956POPC   C3B71565  43.715  22.322   7.050
 8956POPC   C4B71566  43.728  22.342   7.350
 8957POPC   NC371567  18.289  34.566   5.550
 8957POPC   PO471568  18.258  34.593   5.850
 8957POPC   GL171569  18.278  34.564   6.150
 8957POPC   GL271570  18.281  34.708   6.150
 8957POPC   C1A71571  18.256  34.577   6.450
 8957POPC   D2A71572  18.296  34.573   6.750
 8957POPC   C3A71573  18.328  34.567   7.050
 8957POPC   C4A71574  18.327  34.540   7.350
 8957POPC   C1B71575  18.286  34.854   6.450
 8957POPC   C2B71576  18.327  34.813   6.750
 8957POPC   C3B71577  18.324  34.850   7.050
 8957POPC   C4B71578  18.313  34.783   7.350
 8958POPC   NC371579  19.817   9.708   5.550
 8958POPC   PO471580  19.838   9.729   5.850
 8958POPC   GL171581  19.788   9.719   6.150
 8958POPC   GL271582  19.863   9.817   6.150
 8958POPC   C1A71583  19.787   9.765   6.450
 8958POPC   D2A71584  19.814   9.768   6.750
 8958POPC   C3A71585  19.877   9.751   7.050
 8958POPC   C4A71586  19.864   9.795   7.350
 8958POPC   C1B71587  19.927   9.941   6.450
 8958POPC   C2B71588  19.986  10.007   6.750
 8958POPC   C3B71589  19.973  10.010   7.050
 8958POPC   C4B71590  19.952   9.924   7.350
 8959POPC   NC371591   8.163  14.395   5.550
 8959POPC   PO471592   8.154  14.437   5.850
 8959POPC   GL171593   8.208  14.396   6.150
 8959POPC   GL271594   8.061  14.431   6.150
 8959POPC   C1A71595   8.172  14.446   6.450
 8959POPC   D2A71596   8.229  14.383   6.750
 8959POPC   C3A71597   8.177  14.447   7.050
 8959POPC   C4A71598   8.242  14.443   7.350
 8959POPC   C1B71599   7.977  14.469   6.450
 8959POPC   C2B71600   7.984  14.437   6.750
 8959POPC   C3B71601   7.934  14.479   7.050
 8959POPC   C4B71602   7.915  14.478   7.350
 8960POPC   NC371603  12.851  21.344   5.550
 8960POPC   PO471604  12.884  21.342   5.850
 8960POPC   GL171605  12.856  21.402   6.150
 8960POPC   GL271606  12.683  21.419   6.150
 8960POPC   C1A71607  12.880  21.337   6.450
 8960POPC   D2A71608  12.895  21.391   6.750
 8960POPC   C3A71609  12.810  21.415   7.050
 8960POPC   C4A71610  12.828  21.370   7.350
 8960POPC   C1B71611  12.647  21.424   6.450
 8960POPC   C2B71612  12.590  21.475   6.750
 8960POPC   C3B71613  12.609  21.418   7.050
 8960POPC   C4B71614  12.569  21.464   7.350
 8961POPC   NC371615  36.167  18.279   5.550
 8961POPC   PO471616  36.162  18.254   5.850
 8961POPC   GL171617  36.140  18.258   6.150
 8961POPC   GL271618  36.109  18.165   6.150
 8961POPC   C1A71619  36.117  18.258   6.450
 8961POPC   D2A71620  36.147  18.239   6.750
 8961POPC   C3A71621  36.101  18.277   7.050
 8961POPC   C4A71622  36.132  18.274   7.350
 8961POPC   C1B71623  36.101  18.017   6.450
 8961POPC   C2B71624  36.084  18.013   6.750
 8961POPC   C3B71625  36.033  18.006   7.050
 8961POPC   C4B71626  36.104  18.070   7.350
 8962POPC   NC371627  15.909  37.709   5.550
 8962POPC   PO471628  15.925  37.676   5.850
 8962POPC   GL171629  15.998  37.712   6.150
 8962POPC   GL271630  16.031  37.679   6.150
 8962POPC   C1A71631  15.962  37.635   6.450
 8962POPC   D2A71632  15.994  37.683   6.750
 8962POPC   C3A71633  15.928  37.727   7.050
 8962POPC   C4A71634  15.961  37.712   7.350
 8962POPC   C1B71635  16.212  37.597   6.450
 8962POPC   C2B71636  16.154  37.597   6.750
 8962POPC   C3B71637  16.141  37.576   7.050
 8962POPC   C4B71638  16.215  37.608   7.350
 8963POPC   NC371639  36.094  30.673   5.550
 8963POPC   PO471640  36.152  30.678   5.850
 8963POPC   GL171641  36.090  30.692   6.150
 8963POPC   GL271642  36.016  30.689   6.150
 8963POPC   C1A71643  36.094  30.665   6.450
 8963POPC   D2A71644  36.089  30.692   6.750
 8963POPC   C3A71645  36.123  30.717   7.050
 8963POPC   C4A71646  36.144  30.673   7.350
 8963POPC   C1B71647  35.926  30.623   6.450
 8963POPC   C2B71648  35.859  30.658   6.750
 8963POPC   C3B71649  35.839  30.624   7.050
 8963POPC   C4B71650  35.892  30.697   7.350
 8964POPC   NC371651  19.796  32.278   5.550
 8964POPC   PO471652  19.828  32.246   5.850
 8964POPC   GL171653  19.863  32.206   6.150
 8964POPC   GL271654  19.813  32.358   6.150
 8964POPC   C1A71655  19.849  32.224   6.450
 8964POPC   D2A71656  19.850  32.256   6.750
 8964POPC   C3A71657  19.824  32.273   7.050
 8964POPC   C4A71658  19.875  32.277   7.350
 8964POPC   C1B71659  19.788  32.520   6.450
 8964POPC   C2B71660  19.785  32.471   6.750
 8964POPC   C3B71661  19.757  32.515   7.050
 8964POPC   C4B71662  19.706  32.471   7.350
 8965POPC   NC371663   7.391  32.998   5.550
 8965POPC   PO471664   7.437  33.007   5.850
 8965POPC   GL171665   7.382  32.988   6.150
 8965POPC   GL271666   7.459  33.071   6.150
 8965POPC   C1A71667   7.440  33.072   6.450
 8965POPC   D2A71668   7.425  32.983   6.750
 8965POPC   C3A71669   7.391  32.979   7.050
 8965POPC   C4A71670   7.462  33.012   7.350
 8965POPC   C1B71671   7.618  33.241   6.450
 8965POPC   C2B71672   7.556  33.261   6.750
 8965POPC   C3B71673   7.582  33.241   7.050
 8965POPC   C4B71674   7.627  33.244   7.350
 8966POPC   NC371675   0.417  39.984   5.550
 8966POPC   PO471676   0.398  40.018   5.850
 8966POPC   GL171677   0.488  39.977   6.150
 8966POPC   GL271678   0.297  39.989   6.150
 8966POPC   C1A71679   0.482  40.004   6.450
 8966POPC   D2A71680   0.399  40.015   6.750
 8966POPC   C3A71681   0.401  40.029   7.050
 8966POPC   C4A71682   0.427  39.972   7.350
 8966POPC   C1B71683   0.202  39.949   6.450
 8966POPC   C2B71684   0.232  39.891   6.750
 8966POPC   C3B71685   0.201  39.902   7.050
 8966POPC   C4B71686   0.197  39.885   7.350
 8967POPC   NC371687  29.958  38.468   5.550
 8967POPC   PO471688  29.926  38.486   5.850
 8967POPC   GL171689  29.917  38.428   6.150
 8967POPC   GL271690  29.977  38.595   6.150
 8967POPC   C1A71691  29.947  38.428   6.450
 8967POPC   D2A71692  29.950  38.505   6.750
 8967POPC   C3A71693  29.919  38.438   7.050
 8967POPC   C4A71694  29.918  38.475   7.350
 8967POPC   C1B71695  30.054  38.650   6.450
 8967POPC   C2B71696  30.048  38.666   6.750
 8967POPC   C3B71697  30.049  38.619   7.050
 8967POPC   C4B71698  30.089  38.681   7.350
 8968POPC   NC371699  43.088  25.246   5.550
 8968POPC   PO471700  43.127  25.240   5.850
 8968POPC   GL171701  43.106  25.299   6.150
 8968POPC   GL271702  43.051  25.355   6.150
 8968POPC   C1A71703  43.149  25.271   6.450
 8968POPC   D2A71704  43.130  25.239   6.750
 8968POPC   C3A71705  43.127  25.293   7.050
 8968POPC   C4A71706  43.097  25.247   7.350
 8968POPC   C1B71707  42.896  25.393   6.450
 8968POPC   C2B71708  42.897  25.450   6.750
 8968POPC   C3B71709  42.917  25.460   7.050
 8968POPC   C4B71710  42.882  25.384   7.350
 8969POPC   NC371711  15.176   2.005   5.550
 8969POPC   PO471712  15.184   1.977   5.850
 8969POPC   GL171713  15.195   1.975   6.150
 8969POPC   GL271714  15.297   2.062   6.150
 8969POPC   C1A71715  15.169   2.007   6.450
 8969POPC   D2A71716  15.211   1.995   6.750
 8969POPC   C3A71717  15.165   1.997   7.050
 8969POPC   C4A71718  15.205   1.964   7.350
 8969POPC   C1B71719  15.455   2.014   6.450
 8969POPC   C2B71720  15.383   2.033   6.750
 8969POPC   C3B71721  15.417   2.021   7.050
 8969POPC   C4B71722  15.459   2.039   7.350
 8970POPC   NC371723  33.781   0.430   5.550
 8970POPC   PO471724  33.815   0.420   5.850
 8970POPC   GL171725  33.773   0.422   6.150
 8970POPC   GL271726  33.954   0.426   6.150
 8970POPC   C1A71727  33.831   0.462   6.450
 8970POPC   D2A71728  33.831   0.397   6.750
 8970POPC   C3A71729  33.808   0.456   7.050
 8970POPC   C4A71730  33.813   0.440   7.350
 8970POPC   C1B71731  33.994   0.500   6.450
 8970POPC   C2B71732  34.089   0.522   6.750
 8970POPC   C3B71733  34.044   0.460   7.050
 8970POPC   C4B71734  34.038   0.516   7.350
 8971POPC   NC371735   2.771  35.397   5.550
 8971POPC   PO471736   2.716  35.323   5.850
 8971POPC   GL171737   2.770  35.395   6.150
 8971POPC   GL271738   2.640  35.291   6.150
 8971POPC   C1A71739   2.799  35.325   6.450
 8971POPC   D2A71740   2.779  35.401   6.750
 8971POPC   C3A71741   2.809  35.396   7.050
 8971POPC   C4A71742   2.759  35.316   7.350
 8971POPC   C1B71743   2.642  35.141   6.450
 8971POPC   C2B71744   2.637  35.213   6.750
 8971POPC   C3B71745   2.605  35.176   7.050
 8971POPC   C4B71746   2.565  35.199   7.350
 8972POPC   NC371747  15.935   9.007   5.550
 8972POPC   PO471748  15.972   8.951   5.850
 8972POPC   GL171749  15.944   8.992   6.150
 8972POPC   GL271750  16.006   9.067   6.150
 8972POPC   C1A71751  15.996   8.928   6.450
 8972POPC   D2A71752  15.989   8.980   6.750
 8972POPC   C3A71753  15.920   9.006   7.050
 8972POPC   C4A71754  15.980   8.928   7.350
 8972POPC   C1B71755  16.096   9.204   6.450
 8972POPC   C2B71756  16.114   9.191   6.750
 8972POPC   C3B71757  16.070   9.202   7.050
 8972POPC   C4B71758  16.075   9.170   7.350
 8973POPC   NC371759  15.999  12.867   5.550
 8973POPC   PO471760  15.981  12.868   5.850
 8973POPC   GL171761  16.002  12.854   6.150
 8973POPC   GL271762  15.793  12.824   6.150
 8973POPC   C1A71763  15.956  12.833   6.450
 8973POPC   D2A71764  15.930  12.804   6.750
 8973POPC   C3A71765  15.916  12.805   7.050
 8973POPC   C4A71766  15.938  12.873   7.350
 8973POPC   C1B71767  15.726  12.861   6.450
 8973POPC   C2B71768  15.715  12.883   6.750
 8973POPC   C3B71769  15.685  12.864   7.050
 8973POPC   C4B71770  15.682  12.877   7.350
 8974POPC   NC371771  20.603  42.321   5.550
 8974POPC   PO471772  20.626  42.360   5.850
 8974POPC   GL171773  20.563  42.371   6.150
 8974POPC   GL271774  20.517  42.438   6.150
 8974POPC   C1A71775  20.575  42.303   6.450
 8974POPC   D2A71776  20.561  42.326   6.750
 8974POPC   C3A71777  20.654  42.345   7.050
 8974POPC   C4A71778  20.575  42.323   7.350
 8974POPC   C1B71779  20.408  42.472   6.450
 8974POPC   C2B71780  20.405  42.475   6.750
 8974POPC   C3B71781  20.467  42.476   7.050
 8974POPC   C4B71782  20.386  42.520   7.350
 8975POPC   NC371783  25.222   5.129   5.550
 8975POPC   PO471784  25.233   5.047   5.850
 8975POPC   GL171785  25.265   5.063   6.150
 8975POPC   GL271786  25.345   5.020   6.150
 8975POPC   C1A71787  25.252   5.124   6.450
 8975POPC   D2A71788  25.234   5.105   6.750
 8975POPC   C3A71789  25.301   5.112   7.050
 8975POPC   C4A71790  25.304   5.138   7.350
 8975POPC   C1B71791  25.476   5.019   6.450
 8975POPC   C2B71792  25.501   5.035   6.750
 8975POPC   C3B71793  25.522   4.960   7.050
 8975POPC   C4B71794  25.538   5.031   7.350
 8976POPC   NC371795  10.508   0.474   5.550
 8976POPC   PO471796  10.483   0.436   5.850
 8976POPC   GL171797  10.552   0.455   6.150
 8976POPC   GL271798  10.669   0.431   6.150
 8976POPC   C1A71799  10.525   0.462   6.450
 8976POPC   D2A71800  10.511   0.418   6.750
 8976POPC   C3A71801  10.489   0.406   7.050
 8976POPC   C4A71802  10.507   0.458   7.350
 8976POPC   C1B71803  10.701   0.317   6.450
 8976POPC   C2B71804  10.776   0.329   6.750
 8976POPC   C3B71805  10.753   0.322   7.050
 8976POPC   C4B71806  10.781   0.363   7.350
 8977POPC   NC371807  33.061   6.597   5.550
 8977POPC   PO471808  32.988   6.672   5.850
 8977POPC   GL171809  33.064   6.605   6.150
 8977POPC   GL271810  33.158   6.599   6.150
 8977POPC   C1A71811  33.072   6.646   6.450
 8977POPC   D2A71812  33.009   6.676   6.750
 8977POPC   C3A71813  32.998   6.664   7.050
 8977POPC   C4A71814  33.051   6.633   7.350
 8977POPC   C1B71815  33.200   6.482   6.450
 8977POPC   C2B71816  33.220   6.528   6.750
 8977POPC   C3B71817  33.267   6.542   7.050
 8977POPC   C4B71818  33.264   6.565   7.350
 8978POPC   NC371819  36.130   3.539   5.550
 8978POPC   PO471820  36.110   3.557   5.850
 8978POPC   GL171821  36.171   3.494   6.150
 8978POPC   GL271822  36.273   3.498   6.150
 8978POPC   C1A71823  36.142   3.516   6.450
 8978POPC   D2A71824  36.157   3.547   6.750
 8978POPC   C3A71825  36.158   3.516   7.050
 8978POPC   C4A71826  36.174   3.584   7.350
 8978POPC   C1B71827  36.410   3.466   6.450
 8978POPC   C2B71828  36.382   3.499   6.750
 8978POPC   C3B71829  36.379   3.519   7.050
 8978POPC   C4B71830  36.323   3.517   7.350
 8979POPC   NC371831  15.922  27.548   5.550
 8979POPC   PO471832  15.999  27.615   5.850
 8979POPC   GL171833  15.957  27.600   6.150
 8979POPC   GL271834  15.899  27.440   6.150
 8979POPC   C1A71835  15.989  27.608   6.450
 8979POPC   D2A71836  15.919  27.617   6.750
 8979POPC   C3A71837  15.999  27.556   7.050
 8979POPC   C4A71838  15.917  27.582   7.350
 8979POPC   C1B71839  15.906  27.321   6.450
 8979POPC   C2B71840  15.872  27.393   6.750
 8979POPC   C3B71841  15.860  27.313   7.050
 8979POPC   C4B71842  15.940  27.366   7.350
 8980POPC   NC371843  41.522  14.418   5.550
 8980POPC   PO471844  41.600  14.433   5.850
 8980POPC   GL171845  41.593  14.399   6.150
 8980POPC   GL271846  41.483  14.515   6.150
 8980POPC   C1A71847  41.592  14.423   6.450
 8980POPC   D2A71848  41.524  14.400   6.750
 8980POPC   C3A71849  41.605  14.453   7.050
 8980POPC   C4A71850  41.575  14.434   7.350
 8980POPC   C1B71851  41.419  14.557   6.450
 8980POPC   C2B71852  41.426  14.586   6.750
 8980POPC   C3B71853  41.447  14.604   7.050
 8980POPC   C4B71854  41.402  14.592   7.350
 8981POPC   NC371855   3.536   6.689   5.550
 8981POPC   PO471856   3.573   6.653   5.850
 8981POPC   GL171857   3.538   6.666   6.150
 8981POPC   GL271858   3.469   6.643   6.150
 8981POPC   C1A71859   3.556   6.632   6.450
 8981POPC   D2A71860   3.530   6.608   6.750
 8981POPC   C3A71861   3.506   6.632   7.050
 8981POPC   C4A71862   3.534   6.614   7.350
 8981POPC   C1B71863   3.318   6.569   6.450
 8981POPC   C2B71864   3.292   6.582   6.750
 8981POPC   C3B71865   3.315   6.595   7.050
 8981POPC   C4B71866   3.323   6.580   7.350
 8982POPC   NC371867  33.050  15.229   5.550
 8982POPC   PO471868  33.066  15.193   5.850
 8982POPC   GL171869  33.064  15.177   6.150
 8982POPC   GL271870  32.864  15.203   6.150
 8982POPC   C1A71871  33.047  15.158   6.450
 8982POPC   D2A71872  32.998  15.139   6.750
 8982POPC   C3A71873  33.008  15.151   7.050
 8982POPC   C4A71874  33.034  15.228   7.350
 8982POPC   C1B71875  32.779  15.265   6.450
 8982POPC   C2B71876  32.796  15.250   6.750
 8982POPC   C3B71877  32.806  15.254   7.050
 8982POPC   C4B71878  32.836  15.280   7.350
 8983POPC   NC371879  37.726  21.389   5.550
 8983POPC   PO471880  37.683  21.370   5.850
 8983POPC   GL171881  37.695  21.415   6.150
 8983POPC   GL271882  37.804  21.429   6.150
 8983POPC   C1A71883  37.704  21.431   6.450
 8983POPC   D2A71884  37.682  21.365   6.750
 8983POPC   C3A71885  37.632  21.395   7.050
 8983POPC   C4A71886  37.695  21.409   7.350
 8983POPC   C1B71887  37.857  21.495   6.450
 8983POPC   C2B71888  37.940  21.466   6.750
 8983POPC   C3B71889  37.855  21.500   7.050
 8983POPC   C4B71890  37.925  21.481   7.350
 8984POPC   NC371891  33.066  37.694   5.550
 8984POPC   PO471892  33.037  37.717   5.850
 8984POPC   GL171893  33.066  37.681   6.150
 8984POPC   GL271894  32.983  37.607   6.150
 8984POPC   C1A71895  32.982  37.656   6.450
 8984POPC   D2A71896  32.985  37.722   6.750
 8984POPC   C3A71897  33.053  37.727   7.050
 8984POPC   C4A71898  32.994  37.679   7.350
 8984POPC   C1B71899  32.829  37.514   6.450
 8984POPC   C2B71900  32.807  37.517   6.750
 8984POPC   C3B71901  32.852  37.473   7.050
 8984POPC   C4B71902  32.868  37.490   7.350
 8985POPC   NC371903   5.906  22.903   5.550
 8985POPC   PO471904   5.906  22.941   5.850
 8985POPC   GL171905   5.829  22.902   6.150
 8985POPC   GL271906   5.931  23.004   6.150
 8985POPC   C1A71907   5.828  22.978   6.450
 8985POPC   D2A71908   5.870  22.967   6.750
 8985POPC   C3A71909   5.855  22.891   7.050
 8985POPC   C4A71910   5.907  22.906   7.350
 8985POPC   C1B71911   5.970  23.120   6.450
 8985POPC   C2B71912   5.973  23.170   6.750
 8985POPC   C3B71913   6.030  23.115   7.050
 8985POPC   C4B71914   5.972  23.192   7.350
 8986POPC   NC371915   4.321  44.640   5.550
 8986POPC   PO471916   4.347  44.681   5.850
 8986POPC   GL171917   4.278  44.702   6.150
 8986POPC   GL271918   4.340  44.494   6.150
 8986POPC   C1A71919   4.323  44.663   6.450
 8986POPC   D2A71920   4.314  44.697   6.750
 8986POPC   C3A71921   4.277  44.696   7.050
 8986POPC   C4A71922   4.280  44.689   7.350
 8986POPC   C1B71923   4.335  44.385   6.450
 8986POPC   C2B71924   4.342  44.452   6.750
 8986POPC   C3B71925   4.302  44.401   7.050
 8986POPC   C4B71926   4.280  44.391   7.350
 8987POPC   NC371927  20.597   8.238   5.550
 8987POPC   PO471928  20.591   8.194   5.850
 8987POPC   GL171929  20.631   8.189   6.150
 8987POPC   GL271930  20.487   8.235   6.150
 8987POPC   C1A71931  20.579   8.156   6.450
 8987POPC   D2A71932  20.641   8.234   6.750
 8987POPC   C3A71933  20.587   8.187   7.050
 8987POPC   C4A71934  20.562   8.230   7.350
 8987POPC   C1B71935  20.377   8.307   6.450
 8987POPC   C2B71936  20.374   8.272   6.750
 8987POPC   C3B71937  20.371   8.284   7.050
 8987POPC   C4B71938  20.388   8.305   7.350
 8988POPC   NC371939  31.440  19.858   5.550
 8988POPC   PO471940  31.433  19.818   5.850
 8988POPC   GL171941  31.516  19.877   6.150
 8988POPC   GL271942  31.477  19.664   6.150
 8988POPC   C1A71943  31.426  19.791   6.450
 8988POPC   D2A71944  31.457  19.854   6.750
 8988POPC   C3A71945  31.471  19.828   7.050
 8988POPC   C4A71946  31.440  19.881   7.350
 8988POPC   C1B71947  31.402  19.611   6.450
 8988POPC   C2B71948  31.401  19.611   6.750
 8988POPC   C3B71949  31.428  19.582   7.050
 8988POPC   C4B71950  31.416  19.637   7.350
 8989POPC   NC371951  39.990   6.682   5.550
 8989POPC   PO471952  40.051   6.627   5.850
 8989POPC   GL171953  40.006   6.688   6.150
 8989POPC   GL271954  40.054   6.744   6.150
 8989POPC   C1A71955  39.967   6.608   6.450
 8989POPC   D2A71956  39.981   6.603   6.750
 8989POPC   C3A71957  39.987   6.646   7.050
 8989POPC   C4A71958  39.961   6.609   7.350
 8989POPC   C1B71959  40.194   6.796   6.450
 8989POPC   C2B71960  40.223   6.838   6.750
 8989POPC   C3B71961  40.195   6.850   7.050
 8989POPC   C4B71962  40.201   6.834   7.350
 8990POPC   NC371963  25.265  37.649   5.550
 8990POPC   PO471964  25.296  37.709   5.850
 8990POPC   GL171965  25.269  37.716   6.150
 8990POPC   GL271966  25.412  37.681   6.150
 8990POPC   C1A71967  25.222  37.630   6.450
 8990POPC   D2A71968  25.244  37.668   6.750
 8990POPC   C3A71969  25.257  37.653   7.050
 8990POPC   C4A71970  25.241  37.666   7.350
 8990POPC   C1B71971  25.489  37.715   6.450
 8990POPC   C2B71972  25.511  37.675   6.750
 8990POPC   C3B71973  25.478  37.706   7.050
 8990POPC   C4B71974  25.490  37.694   7.350
 8991POPC   NC371975  29.892  10.520   5.550
 8991POPC   PO471976  29.893  10.479   5.850
 8991POPC   GL171977  29.936  10.506   6.150
 8991POPC   GL271978  30.080  10.560   6.150
 8991POPC   C1A71979  29.951  10.504   6.450
 8991POPC   D2A71980  29.908  10.535   6.750
 8991POPC   C3A71981  29.946  10.507   7.050
 8991POPC   C4A71982  29.928  10.494   7.350
 8991POPC   C1B71983  30.148  10.545   6.450
 8991POPC   C2B71984  30.190  10.464   6.750
 8991POPC   C3B71985  30.197  10.468   7.050
 8991POPC   C4B71986  30.135  10.519   7.350
 8992POPC   NC371987  26.857   0.438   5.550
 8992POPC   PO471988  26.854   0.426   5.850
 8992POPC   GL171989  26.815   0.428   6.150
 8992POPC   GL271990  26.788   0.560   6.150
 8992POPC   C1A71991  26.808   0.483   6.450
 8992POPC   D2A71992  26.776   0.441   6.750
 8992POPC   C3A71993  26.785   0.427   7.050
 8992POPC   C4A71994  26.777   0.399   7.350
 8992POPC   C1B71995  26.818   0.658   6.450
 8992POPC   C2B71996  26.796   0.687   6.750
 8992POPC   C3B71997  26.840   0.684   7.050
 8992POPC   C4B71998  26.809   0.640   7.350
 8993POPC   NC371999  13.655  35.314   5.550
 8993POPC   PO472000  13.667  35.369   5.850
 8993POPC   GL172001  13.646  35.352   6.150
 8993POPC   GL272002  13.671  35.198   6.150
 8993POPC   C1A72003  13.604  35.375   6.450
 8993POPC   D2A72004  13.630  35.351   6.750
 8993POPC   C3A72005  13.601  35.323   7.050
 8993POPC   C4A72006  13.593  35.335   7.350
 8993POPC   C1B72007  13.766  35.131   6.450
 8993POPC   C2B72008  13.714  35.167   6.750
 8993POPC   C3B72009  13.690  35.110   7.050
 8993POPC   C4B72010  13.739  35.092   7.350
 8994POPC   NC372011  18.298  36.854   5.550
 8994POPC   PO472012  18.278  36.901   5.850
 8994POPC   GL172013  18.276  36.922   6.150
 8994POPC   GL272014  18.418  36.813   6.150
 8994POPC   C1A72015  18.304  36.904   6.450
 8994POPC   D2A72016  18.291  36.901   6.750
 8994POPC   C3A72017  18.234  36.874   7.050
 8994POPC   C4A72018  18.306  36.938   7.350
 8994POPC   C1B72019  18.494  36.745   6.450
 8994POPC   C2B72020  18.469  36.710   6.750
 8994POPC   C3B72021  18.461  36.751   7.050
 8994POPC   C4B72022  18.460  36.734   7.350
 8995POPC   NC372023  26.017  10.514   5.550
 8995POPC   PO472024  26.062  10.478   5.850
 8995POPC   GL172025  26.066  10.564   6.150
 8995POPC   GL272026  25.935  10.411   6.150
 8995POPC   C1A72027  26.000  10.522   6.450
 8995POPC   D2A72028  26.018  10.488   6.750
 8995POPC   C3A72029  26.001  10.529   7.050
 8995POPC   C4A72030  26.028  10.545   7.350
 8995POPC   C1B72031  25.888  10.367   6.450
 8995POPC   C2B72032  25.882  10.328   6.750
 8995POPC   C3B72033  25.861  10.346   7.050
 8995POPC   C4B72034  25.840  10.361   7.350
 8996POPC   NC372035  42.302  28.334   5.550
 8996POPC   PO472036  42.346  28.322   5.850
 8996POPC   GL172037  42.368  28.375   6.150
 8996POPC   GL272038  42.288  28.467   6.150
 8996POPC   C1A72039  42.351  28.332   6.450
 8996POPC   D2A72040  42.323  28.396   6.750
 8996POPC   C3A72041  42.342  28.394   7.050
 8996POPC   C4A72042  42.381  28.334   7.350
 8996POPC   C1B72043  42.198  28.598   6.450
 8996POPC   C2B72044  42.135  28.541   6.750
 8996POPC   C3B72045  42.136  28.544   7.050
 8996POPC   C4B72046  42.205  28.609   7.350
 8997POPC   NC372047   2.757  37.665   5.550
 8997POPC   PO472048   2.785  37.685   5.850
 8997POPC   GL172049   2.781  37.658   6.150
 8997POPC   GL272050   2.884  37.724   6.150
 8997POPC   C1A72051   2.810  37.697   6.450
 8997POPC   D2A72052   2.775  37.684   6.750
 8997POPC   C3A72053   2.720  37.674   7.050
 8997POPC   C4A72054   2.719  37.676   7.350
 8997POPC   C1B72055   3.004  37.824   6.450
 8997POPC   C2B72056   2.954  37.796   6.750
 8997POPC   C3B72057   3.019  37.828   7.050
 8997POPC   C4B72058   2.992  37.789   7.350
 8998POPC   NC372059  19.037  36.889   5.550
 8998POPC   PO472060  19.026  36.915   5.850
 8998POPC   GL172061  19.052  36.859   6.150
 8998POPC   GL272062  19.113  36.851   6.150
 8998POPC   C1A72063  19.096  36.898   6.450
 8998POPC   D2A72064  19.045  36.857   6.750
 8998POPC   C3A72065  19.067  36.868   7.050
 8998POPC   C4A72066  19.042  36.908   7.350
 8998POPC   C1B72067  19.288  36.758   6.450
 8998POPC   C2B72068  19.280  36.698   6.750
 8998POPC   C3B72069  19.204  36.688   7.050
 8998POPC   C4B72070  19.202  36.785   7.350
 8999POPC   NC372071  43.935  29.877   5.550
 8999POPC   PO472072  43.847  29.876   5.850
 8999POPC   GL172073  43.909  29.891   6.150
 8999POPC   GL272074  43.993  29.949   6.150
 8999POPC   C1A72075  43.870  29.879   6.450
 8999POPC   D2A72076  43.885  29.903   6.750
 8999POPC   C3A72077  43.868  29.895   7.050
 8999POPC   C4A72078  43.893  29.950   7.350
 8999POPC   C1B72079  44.070  30.039   6.450
 8999POPC   C2B72080  44.109  30.040   6.750
 8999POPC   C3B72081  44.079  30.069   7.050
 8999POPC   C4B72082  44.081  29.987   7.350
 9000POPC   NC372083   1.225  29.905   5.550
 9000POPC   PO472084   1.218  29.894   5.850
 9000POPC   GL172085   1.217  29.891   6.150
 9000POPC   GL272086   1.108  29.875   6.150
 9000POPC   C1A72087   1.204  29.926   6.450
 9000POPC   D2A72088   1.166  29.934   6.750
 9000POPC   C3A72089   1.238  29.963   7.050
 9000POPC   C4A72090   1.227  29.936   7.350
 9000POPC   C1B72091   0.999  29.732   6.450
 9000POPC   C2B72092   1.020  29.794   6.750
 9000POPC   C3B72093   1.020  29.790   7.050
 9000POPC   C4B72094   0.991  29.747   7.350
 9001POPC   NC372095  10.485  22.136   5.550
 9001POPC   PO472096  10.488  22.202   5.850
 9001POPC   GL172097  10.516  22.173   6.150
 9001POPC   GL272098  10.413  22.136   6.150
 9001POPC   C1A72099  10.518  22.139   6.450
 9001POPC   D2A72100  10.527  22.165   6.750
 9001POPC   C3A72101  10.491  22.207   7.050
 9001POPC   C4A72102  10.491  22.131   7.350
 9001POPC   C1B72103  10.319  22.013   6.450
 9001POPC   C2B72104  10.353  22.015   6.750
 9001POPC   C3B72105  10.262  22.037   7.050
 9001POPC   C4B72106  10.352  22.000   7.350
 9002POPC   NC372107   3.566  43.118   5.550
 9002POPC   PO472108   3.496  43.069   5.850
 9002POPC   GL172109   3.584  43.160   6.150
 9002POPC   GL272110   3.418  43.002   6.150
 9002POPC   C1A72111   3.507  43.128   6.450
 9002POPC   D2A72112   3.577  43.158   6.750
 9002POPC   C3A72113   3.575  43.119   7.050
 9002POPC   C4A72114   3.585  43.112   7.350
 9002POPC   C1B72115   3.337  42.897   6.450
 9002POPC   C2B72116   3.310  42.897   6.750
 9002POPC   C3B72117   3.409  42.895   7.050
 9002POPC   C4B72118   3.354  42.929   7.350
 9003POPC   NC372119  31.515  22.901   5.550
 9003POPC   PO472120  31.438  22.983   5.850
 9003POPC   GL172121  31.492  22.958   6.150
 9003POPC   GL272122  31.440  22.795   6.150
 9003POPC   C1A72123  31.521  22.933   6.450
 9003POPC   D2A72124  31.472  22.980   6.750
 9003POPC   C3A72125  31.471  22.889   7.050
 9003POPC   C4A72126  31.466  22.926   7.350
 9003POPC   C1B72127  31.280  22.773   6.450
 9003POPC   C2B72128  31.349  22.749   6.750
 9003POPC   C3B72129  31.324  22.723   7.050
 9003POPC   C4B72130  31.292  22.764   7.350
 9004POPC   NC372131   2.738  20.658   5.550
 9004POPC   PO472132   2.744  20.617   5.850
 9004POPC   GL172133   2.759  20.566   6.150
 9004POPC   GL272134   2.654  20.557   6.150
 9004POPC   C1A72135   2.723  20.599   6.450
 9004POPC   D2A72136   2.735  20.629   6.750
 9004POPC   C3A72137   2.753  20.654   7.050
 9004POPC   C4A72138   2.814  20.624   7.350
 9004POPC   C1B72139   2.550  20.414   6.450
 9004POPC   C2B72140   2.626  20.451   6.750
 9004POPC   C3B72141   2.584  20.385   7.050
 9004POPC   C4B72142   2.631  20.450   7.350
 9005POPC   NC372143  23.692   3.586   5.550
 9005POPC   PO472144  23.683   3.551   5.850
 9005POPC   GL172145  23.721   3.535   6.150
 9005POPC   GL272146  23.776   3.655   6.150
 9005POPC   C1A72147  23.669   3.522   6.450
 9005POPC   D2A72148  23.742   3.568   6.750
 9005POPC   C3A72149  23.740   3.581   7.050
 9005POPC   C4A72150  23.695   3.551   7.350
 9005POPC   C1B72151  23.927   3.721   6.450
 9005POPC   C2B72152  23.904   3.765   6.750
 9005POPC   C3B72153  23.849   3.706   7.050
 9005POPC   C4B72154  23.852   3.721   7.350
 9006POPC   NC372155   2.813  44.696   5.550
 9006POPC   PO472156   2.716  44.636   5.850
 9006POPC   GL172157   2.719  44.636   6.150
 9006POPC   GL272158   2.923  44.712   6.150
 9006POPC   C1A72159   2.798  44.654   6.450
 9006POPC   D2A72160   2.792  44.670   6.750
 9006POPC   C3A72161   2.771  44.673   7.050
 9006POPC   C4A72162   2.796  44.612   7.350
 9006POPC   C1B72163   2.980  44.675   6.450
 9006POPC   C2B72164   3.038  44.678   6.750
 9006POPC   C3B72165   3.055  44.667   7.050
 9006POPC   C4B72166   3.012  44.687   7.350
 9007POPC   NC372167  40.831  17.529   5.550
 9007POPC   PO472168  40.800  17.546   5.850
 9007POPC   GL172169  40.736  17.541   6.150
 9007POPC   GL272170  40.726  17.614   6.150
 9007POPC   C1A72171  40.791  17.464   6.450
 9007POPC   D2A72172  40.791  17.463   6.750
 9007POPC   C3A72173  40.761  17.550   7.050
 9007POPC   C4A72174  40.752  17.485   7.350
 9007POPC   C1B72175  40.705  17.699   6.450
 9007POPC   C2B72176  40.712  17.750   6.750
 9007POPC   C3B72177  40.621  17.685   7.050
 9007POPC   C4B72178  40.668  17.743   7.350
 9008POPC   NC372179  36.080   1.171   5.550
 9008POPC   PO472180  36.138   1.211   5.850
 9008POPC   GL172181  36.145   1.219   6.150
 9008POPC   GL272182  36.294   1.182   6.150
 9008POPC   C1A72183  36.150   1.165   6.450
 9008POPC   D2A72184  36.165   1.188   6.750
 9008POPC   C3A72185  36.136   1.179   7.050
 9008POPC   C4A72186  36.161   1.183   7.350
 9008POPC   C1B72187  36.405   1.160   6.450
 9008POPC   C2B72188  36.376   1.192   6.750
 9008POPC   C3B72189  36.333   1.210   7.050
 9008POPC   C4B72190  36.351   1.141   7.350
 9009POPC   NC372191  34.578   5.857   5.550
 9009POPC   PO472192  34.621   5.899   5.850
 9009POPC   GL172193  34.623   5.863   6.150
 9009POPC   GL272194  34.500   5.772   6.150
 9009POPC   C1A72195  34.532   5.892   6.450
 9009POPC   D2A72196  34.566   5.882   6.750
 9009POPC   C3A72197  34.589   5.912   7.050
 9009POPC   C4A72198  34.603   5.821   7.350
 9009POPC   C1B72199  34.432   5.646   6.450
 9009POPC   C2B72200  34.494   5.612   6.750
 9009POPC   C3B72201  34.505   5.606   7.050
 9009POPC   C4B72202  34.486   5.615   7.350
 9010POPC   NC372203   9.737  36.857   5.550
 9010POPC   PO472204   9.705  36.861   5.850
 9010POPC   GL172205   9.756  36.891   6.150
 9010POPC   GL272206   9.672  36.750   6.150
 9010POPC   C1A72207   9.769  36.912   6.450
 9010POPC   D2A72208   9.757  36.879   6.750
 9010POPC   C3A72209   9.724  36.885   7.050
 9010POPC   C4A72210   9.775  36.877   7.350
 9010POPC   C1B72211   9.654  36.662   6.450
 9010POPC   C2B72212   9.661  36.669   6.750
 9010POPC   C3B72213   9.671  36.708   7.050
 9010POPC   C4B72214   9.606  36.661   7.350
 9011POPC   NC372215   1.217  22.158   5.550
 9011POPC   PO472216   1.256  22.174   5.850
 9011POPC   GL172217   1.243  22.184   6.150
 9011POPC   GL272218   1.092  22.098   6.150
 9011POPC   C1A72219   1.260  22.114   6.450
 9011POPC   D2A72220   1.167  22.133   6.750
 9011POPC   C3A72221   1.230  22.200   7.050
 9011POPC   C4A72222   1.165  22.122   7.350
 9011POPC   C1B72223   1.084  21.965   6.450
 9011POPC   C2B72224   1.054  22.007   6.750
 9011POPC   C3B72225   1.068  22.011   7.050
 9011POPC   C4B72226   1.083  21.994   7.350
 9012POPC   NC372227  16.742  17.482   5.550
 9012POPC   PO472228  16.776  17.493   5.850
 9012POPC   GL172229  16.716  17.539   6.150
 9012POPC   GL272230  16.613  17.448   6.150
 9012POPC   C1A72231  16.777  17.501   6.450
 9012POPC   D2A72232  16.722  17.484   6.750
 9012POPC   C3A72233  16.769  17.497   7.050
 9012POPC   C4A72234  16.690  17.552   7.350
 9012POPC   C1B72235  16.527  17.415   6.450
 9012POPC   C2B72236  16.466  17.418   6.750
 9012POPC   C3B72237  16.487  17.354   7.050
 9012POPC   C4B72238  16.465  17.429   7.350
 9013POPC   NC372239  39.965  37.699   5.550
 9013POPC   PO472240  40.044  37.693   5.850
 9013POPC   GL172241  40.003  37.676   6.150
 9013POPC   GL272242  39.869  37.631   6.150
 9013POPC   C1A72243  40.022  37.723   6.450
 9013POPC   D2A72244  39.996  37.709   6.750
 9013POPC   C3A72245  40.033  37.722   7.050
 9013POPC   C4A72246  40.044  37.712   7.350
 9013POPC   C1B72247  39.770  37.646   6.450
 9013POPC   C2B72248  39.738  37.664   6.750
 9013POPC   C3B72249  39.774  37.668   7.050
 9013POPC   C4B72250  39.749  37.704   7.350
 9014POPC   NC372251  26.835  16.754   5.550
 9014POPC   PO472252  26.843  16.760   5.850
 9014POPC   GL172253  26.791  16.698   6.150
 9014POPC   GL272254  26.710  16.822   6.150
 9014POPC   C1A72255  26.794  16.707   6.450
 9014POPC   D2A72256  26.821  16.725   6.750
 9014POPC   C3A72257  26.816  16.692   7.050
 9014POPC   C4A72258  26.768  16.763   7.350
 9014POPC   C1B72259  26.599  16.850   6.450
 9014POPC   C2B72260  26.583  16.819   6.750
 9014POPC   C3B72261  26.611  16.840   7.050
 9014POPC   C4B72262  26.568  16.900   7.350
 9015POPC   NC372263  29.881  26.831   5.550
 9015POPC   PO472264  29.923  26.812   5.850
 9015POPC   GL172265  29.946  26.830   6.150
 9015POPC   GL272266  30.013  26.903   6.150
 9015POPC   C1A72267  29.873  26.836   6.450
 9015POPC   D2A72268  29.934  26.831   6.750
 9015POPC   C3A72269  29.952  26.784   7.050
 9015POPC   C4A72270  29.969  26.840   7.350
 9015POPC   C1B72271  30.183  26.920   6.450
 9015POPC   C2B72272  30.111  26.891   6.750
 9015POPC   C3B72273  30.168  26.895   7.050
 9015POPC   C4B72274  30.128  26.869   7.350
 9016POPC   NC372275   6.687   8.953   5.550
 9016POPC   PO472276   6.684   8.944   5.850
 9016POPC   GL172277   6.618   8.930   6.150
 9016POPC   GL272278   6.673   9.128   6.150
 9016POPC   C1A72279   6.614   8.932   6.450
 9016POPC   D2A72280   6.601   8.974   6.750
 9016POPC   C3A72281   6.601   8.928   7.050
 9016POPC   C4A72282   6.673   8.980   7.350
 9016POPC   C1B72283   6.617   9.217   6.450
 9016POPC   C2B72284   6.677   9.245   6.750
 9016POPC   C3B72285   6.601   9.214   7.050
 9016POPC   C4B72286   6.651   9.195   7.350
 9017POPC   NC372287   3.530  25.264   5.550
 9017POPC   PO472288   3.524  25.228   5.850
 9017POPC   GL172289   3.525  25.217   6.150
 9017POPC   GL272290   3.541  25.119   6.150
 9017POPC   C1A72291   3.583  25.223   6.450
 9017POPC   D2A72292   3.543  25.234   6.750
 9017POPC   C3A72293   3.562  25.288   7.050
 9017POPC   C4A72294   3.532  25.220   7.350
 9017POPC   C1B72295   3.551  25.026   6.450
 9017POPC   C2B72296   3.518  24.969   6.750
 9017POPC   C3B72297   3.553  25.015   7.050
 9017POPC   C4B72298   3.515  25.041   7.350
 9018POPC   NC372299   1.997  13.631   5.550
 9018POPC   PO472300   2.005  13.580   5.850
 9018POPC   GL172301   1.958  13.654   6.150
 9018POPC   GL272302   1.947  13.775   6.150
 9018POPC   C1A72303   1.972  13.630   6.450
 9018POPC   D2A72304   1.964  13.671   6.750
 9018POPC   C3A72305   1.956  13.668   7.050
 9018POPC   C4A72306   1.979  13.645   7.350
 9018POPC   C1B72307   1.889  13.821   6.450
 9018POPC   C2B72308   1.891  13.822   6.750
 9018POPC   C3B72309   1.878  13.816   7.050
 9018POPC   C4B72310   1.892  13.899   7.350
 9019POPC   NC372311  23.701   9.699   5.550
 9019POPC   PO472312  23.678   9.736   5.850
 9019POPC   GL172313  23.707   9.709   6.150
 9019POPC   GL272314  23.566   9.763   6.150
 9019POPC   C1A72315  23.733   9.720   6.450
 9019POPC   D2A72316  23.737   9.736   6.750
 9019POPC   C3A72317  23.746   9.768   7.050
 9019POPC   C4A72318  23.714   9.752   7.350
 9019POPC   C1B72319  23.487   9.895   6.450
 9019POPC   C2B72320  23.500   9.883   6.750
 9019POPC   C3B72321  23.488   9.844   7.050
 9019POPC   C4B72322  23.496   9.851   7.350
 9020POPC   NC372323  43.064  26.808   5.550
 9020POPC   PO472324  43.092  26.844   5.850
 9020POPC   GL172325  43.064  26.855   6.150
 9020POPC   GL272326  43.007  26.736   6.150
 9020POPC   C1A72327  43.089  26.769   6.450
 9020POPC   D2A72328  43.126  26.832   6.750
 9020POPC   C3A72329  43.062  26.839   7.050
 9020POPC   C4A72330  43.127  26.833   7.350
 9020POPC   C1B72331  42.867  26.726   6.450
 9020POPC   C2B72332  42.861  26.676   6.750
 9020POPC   C3B72333  42.843  26.688   7.050
 9020POPC   C4B72334  42.854  26.711   7.350
 9021POPC   NC372335   6.679  44.672   5.550
 9021POPC   PO472336   6.603  44.703   5.850
 9021POPC   GL172337   6.619  44.633   6.150
 9021POPC   GL272338   6.527  44.658   6.150
 9021POPC   C1A72339   6.658  44.641   6.450
 9021POPC   D2A72340   6.655  44.658   6.750
 9021POPC   C3A72341   6.662  44.705   7.050
 9021POPC   C4A72342   6.641  44.693   7.350
 9021POPC   C1B72343   6.411  44.713   6.450
 9021POPC   C2B72344   6.346  44.630   6.750
 9021POPC   C3B72345   6.403  44.695   7.050
 9021POPC   C4B72346   6.383  44.704   7.350
 9022POPC   NC372347  22.113  25.257   5.550
 9022POPC   PO472348  22.185  25.241   5.850
 9022POPC   GL172349  22.195  25.244   6.150
 9022POPC   GL272350  22.235  25.217   6.150
 9022POPC   C1A72351  22.143  25.259   6.450
 9022POPC   D2A72352  22.189  25.233   6.750
 9022POPC   C3A72353  22.158  25.295   7.050
 9022POPC   C4A72354  22.205  25.259   7.350
 9022POPC   C1B72355  22.308  25.100   6.450
 9022POPC   C2B72356  22.295  25.069   6.750
 9022POPC   C3B72357  22.288  25.102   7.050
 9022POPC   C4B72358  22.298  25.076   7.350
 9023POPC   NC372359  12.849  32.993   5.550
 9023POPC   PO472360  12.885  32.978   5.850
 9023POPC   GL172361  12.814  33.070   6.150
 9023POPC   GL272362  12.926  33.121   6.150
 9023POPC   C1A72363  12.861  33.074   6.450
 9023POPC   D2A72364  12.848  33.032   6.750
 9023POPC   C3A72365  12.837  33.013   7.050
 9023POPC   C4A72366  12.857  33.027   7.350
 9023POPC   C1B72367  13.049  33.145   6.450
 9023POPC   C2B72368  13.087  33.184   6.750
 9023POPC   C3B72369  13.056  33.172   7.050
 9023POPC   C4B72370  13.098  33.167   7.350
 9024POPC   NC372371   9.779  31.458   5.550
 9024POPC   PO472372   9.762  31.459   5.850
 9024POPC   GL172373   9.719  31.461   6.150
 9024POPC   GL272374   9.874  31.333   6.150
 9024POPC   C1A72375   9.760  31.517   6.450
 9024POPC   D2A72376   9.754  31.506   6.750
 9024POPC   C3A72377   9.755  31.431   7.050
 9024POPC   C4A72378   9.729  31.428   7.350
 9024POPC   C1B72379   9.903  31.241   6.450
 9024POPC   C2B72380   9.940  31.255   6.750
 9024POPC   C3B72381   9.926  31.258   7.050
 9024POPC   C4B72382   9.865  31.246   7.350
 9025POPC   NC372383  29.898  20.597   5.550
 9025POPC   PO472384  29.873  20.660   5.850
 9025POPC   GL172385  29.873  20.629   6.150
 9025POPC   GL272386  29.941  20.471   6.150
 9025POPC   C1A72387  29.873  20.564   6.450
 9025POPC   D2A72388  29.877  20.584   6.750
 9025POPC   C3A72389  29.919  20.659   7.050
 9025POPC   C4A72390  29.960  20.570   7.350
 9025POPC   C1B72391  29.891  20.395   6.450
 9025POPC   C2B72392  29.911  20.403   6.750
 9025POPC   C3B72393  29.939  20.368   7.050
 9025POPC   C4B72394  29.978  20.379   7.350
 9026POPC   NC372395  15.205  36.896   5.550
 9026POPC   PO472396  15.163  36.887   5.850
 9026POPC   GL172397  15.173  36.942   6.150
 9026POPC   GL272398  15.250  36.996   6.150
 9026POPC   C1A72399  15.213  36.943   6.450
 9026POPC   D2A72400  15.156  36.859   6.750
 9026POPC   C3A72401  15.146  36.921   7.050
 9026POPC   C4A72402  15.166  36.948   7.350
 9026POPC   C1B72403  15.346  37.099   6.450
 9026POPC   C2B72404  15.296  37.126   6.750
 9026POPC   C3B72405  15.329  37.087   7.050
 9026POPC   C4B72406  15.329  37.106   7.350
 9027POPC   NC372407  15.948  28.352   5.550
 9027POPC   PO472408  15.930  28.386   5.850
 9027POPC   GL172409  15.987  28.378   6.150
 9027POPC   GL272410  15.893  28.421   6.150
 9027POPC   C1A72411  15.996  28.363   6.450
 9027POPC   D2A72412  15.970  28.326   6.750
 9027POPC   C3A72413  15.921  28.395   7.050
 9027POPC   C4A72414  15.977  28.416   7.350
 9027POPC   C1B72415  15.723  28.517   6.450
 9027POPC   C2B72416  15.771  28.501   6.750
 9027POPC   C3B72417  15.784  28.478   7.050
 9027POPC   C4B72418  15.802  28.518   7.350
 9028POPC   NC372419  35.337   5.919   5.550
 9028POPC   PO472420  35.352   5.908   5.850
 9028POPC   GL172421  35.358   5.906   6.150
 9028POPC   GL272422  35.472   5.903   6.150
 9028POPC   C1A72423  35.329   5.842   6.450
 9028POPC   D2A72424  35.372   5.906   6.750
 9028POPC   C3A72425  35.330   5.882   7.050
 9028POPC   C4A72426  35.317   5.853   7.350
 9028POPC   C1B72427  35.526   6.069   6.450
 9028POPC   C2B72428  35.520   5.983   6.750
 9028POPC   C3B72429  35.588   5.997   7.050
 9028POPC   C4B72430  35.549   6.073   7.350
 9029POPC   NC372431  12.100  44.616   5.550
 9029POPC   PO472432  12.039  44.642   5.850
 9029POPC   GL172433  12.105  44.623   6.150
 9029POPC   GL272434  12.220  44.664   6.150
 9029POPC   C1A72435  12.047  44.626   6.450
 9029POPC   D2A72436  12.117  44.676   6.750
 9029POPC   C3A72437  12.122  44.688   7.050
 9029POPC   C4A72438  12.095  44.612   7.350
 9029POPC   C1B72439  12.334  44.638   6.450
 9029POPC   C2B72440  12.332  44.705   6.750
 9029POPC   C3B72441  12.278  44.627   7.050
 9029POPC   C4B72442  12.332  44.626   7.350
 9030POPC   NC372443  11.278  15.229   5.550
 9030POPC   PO472444  11.321  15.211   5.850
 9030POPC   GL172445  11.291  15.165   6.150
 9030POPC   GL272446  11.266  15.329   6.150
 9030POPC   C1A72447  11.302  15.227   6.450
 9030POPC   D2A72448  11.306  15.189   6.750
 9030POPC   C3A72449  11.305  15.157   7.050
 9030POPC   C4A72450  11.295  15.153   7.350
 9030POPC   C1B72451  11.305  15.444   6.450
 9030POPC   C2B72452  11.300  15.407   6.750
 9030POPC   C3B72453  11.331  15.465   7.050
 9030POPC   C4B72454  11.334  15.386   7.350
 9031POPC   NC372455  12.115  42.369   5.550
 9031POPC   PO472456  12.037  42.353   5.850
 9031POPC   GL172457  12.062  42.328   6.150
 9031POPC   GL272458  12.147  42.417   6.150
 9031POPC   C1A72459  12.084  42.361   6.450
 9031POPC   D2A72460  12.097  42.291   6.750
 9031POPC   C3A72461  12.041  42.362   7.050
 9031POPC   C4A72462  12.113  42.374   7.350
 9031POPC   C1B72463  12.196  42.553   6.450
 9031POPC   C2B72464  12.244  42.523   6.750
 9031POPC   C3B72465  12.193  42.566   7.050
 9031POPC   C4B72466  12.172  42.590   7.350
 9032POPC   NC372467  30.658  34.579   5.550
 9032POPC   PO472468  30.725  34.603   5.850
 9032POPC   GL172469  30.680  34.622   6.150
 9032POPC   GL272470  30.607  34.475   6.150
 9032POPC   C1A72471  30.692  34.613   6.450
 9032POPC   D2A72472  30.714  34.600   6.750
 9032POPC   C3A72473  30.662  34.606   7.050
 9032POPC   C4A72474  30.714  34.596   7.350
 9032POPC   C1B72475  30.482  34.406   6.450
 9032POPC   C2B72476  30.555  34.375   6.750
 9032POPC   C3B72477  30.482  34.434   7.050
 9032POPC   C4B72478  30.529  34.431   7.350
 9033POPC   NC372479  25.275  38.482   5.550
 9033POPC   PO472480  25.269  38.424   5.850
 9033POPC   GL172481  25.275  38.416   6.150
 9033POPC   GL272482  25.361  38.446   6.150
 9033POPC   C1A72483  25.288  38.495   6.450
 9033POPC   D2A72484  25.309  38.418   6.750
 9033POPC   C3A72485  25.315  38.456   7.050
 9033POPC   C4A72486  25.263  38.443   7.350
 9033POPC   C1B72487  25.476  38.449   6.450
 9033POPC   C2B72488  25.483  38.401   6.750
 9033POPC   C3B72489  25.522  38.422   7.050
 9033POPC   C4B72490  25.555  38.412   7.350
 9034POPC   NC372491   9.784  25.993   5.550
 9034POPC   PO472492   9.755  26.040   5.850
 9034POPC   GL172493   9.758  26.052   6.150
 9034POPC   GL272494   9.823  26.022   6.150
 9034POPC   C1A72495   9.724  25.999   6.450
 9034POPC   D2A72496   9.788  26.073   6.750
 9034POPC   C3A72497   9.700  26.074   7.050
 9034POPC   C4A72498   9.705  26.024   7.350
 9034POPC   C1B72499   9.977  25.993   6.450
 9034POPC   C2B72500   9.993  26.000   6.750
 9034POPC   C3B72501  10.047  25.987   7.050
 9034POPC   C4B72502   9.970  25.987   7.350
 9035POPC   NC372503  35.395  43.071   5.550
 9035POPC   PO472504  35.339  43.148   5.850
 9035POPC   GL172505  35.366  43.143   6.150
 9035POPC   GL272506  35.261  43.107   6.150
 9035POPC   C1A72507  35.394  43.081   6.450
 9035POPC   D2A72508  35.328  43.093   6.750
 9035POPC   C3A72509  35.307  43.115   7.050
 9035POPC   C4A72510  35.375  43.106   7.350
 9035POPC   C1B72511  35.069  43.186   6.450
 9035POPC   C2B72512  35.071  43.231   6.750
 9035POPC   C3B72513  35.090  43.133   7.050
 9035POPC   C4B72514  35.158  43.152   7.350
 9036POPC   NC372515  14.361  21.351   5.550
 9036POPC   PO472516  14.435  21.409   5.850
 9036POPC   GL172517  14.380  21.351   6.150
 9036POPC   GL272518  14.479  21.393   6.150
 9036POPC   C1A72519  14.427  21.421   6.450
 9036POPC   D2A72520  14.419  21.424   6.750
 9036POPC   C3A72521  14.419  21.406   7.050
 9036POPC   C4A72522  14.452  21.381   7.350
 9036POPC   C1B72523  14.690  21.338   6.450
 9036POPC   C2B72524  14.679  21.373   6.750
 9036POPC   C3B72525  14.600  21.354   7.050
 9036POPC   C4B72526  14.678  21.337   7.350
 9037POPC   NC372527  37.643   8.939   5.550
 9037POPC   PO472528  37.727   8.975   5.850
 9037POPC   GL172529  37.705   8.967   6.150
 9037POPC   GL272530  37.826   8.929   6.150
 9037POPC   C1A72531  37.660   8.997   6.450
 9037POPC   D2A72532  37.665   8.964   6.750
 9037POPC   C3A72533  37.668   9.012   7.050
 9037POPC   C4A72534  37.658   9.008   7.350
 9037POPC   C1B72535  37.953   8.861   6.450
 9037POPC   C2B72536  37.961   8.908   6.750
 9037POPC   C3B72537  37.947   8.957   7.050
 9037POPC   C4B72538  37.880   8.873   7.350
 9038POPC   NC372539  40.037  28.327   5.550
 9038POPC   PO472540  40.042  28.391   5.850
 9038POPC   GL172541  40.018  28.342   6.150
 9038POPC   GL272542  39.931  28.341   6.150
 9038POPC   C1A72543  40.036  28.394   6.450
 9038POPC   D2A72544  39.965  28.394   6.750
 9038POPC   C3A72545  40.015  28.368   7.050
 9038POPC   C4A72546  40.021  28.382   7.350
 9038POPC   C1B72547  39.786  28.255   6.450
 9038POPC   C2B72548  39.765  28.231   6.750
 9038POPC   C3B72549  39.791  28.254   7.050
 9038POPC   C4B72550  39.749  28.224   7.350
 9039POPC   NC372551   5.848  12.115   5.550
 9039POPC   PO472552   5.857  12.109   5.850
 9039POPC   GL172553   5.869  12.033   6.150
 9039POPC   GL272554   5.719  12.129   6.150
 9039POPC   C1A72555   5.876  12.048   6.450
 9039POPC   D2A72556   5.833  12.104   6.750
 9039POPC   C3A72557   5.838  12.119   7.050
 9039POPC   C4A72558   5.851  12.092   7.350
 9039POPC   C1B72559   5.642  12.135   6.450
 9039POPC   C2B72560   5.606  12.104   6.750
 9039POPC   C3B72561   5.643  12.063   7.050
 9039POPC   C4B72562   5.574  12.141   7.350
 9040POPC   NC372563   6.687  37.726   5.550
 9040POPC   PO472564   6.678  37.642   5.850
 9040POPC   GL172565   6.603  37.702   6.150
 9040POPC   GL272566   6.628  37.778   6.150
 9040POPC   C1A72567   6.657  37.728   6.450
 9040POPC   D2A72568   6.657  37.688   6.750
 9040POPC   C3A72569   6.606  37.641   7.050
 9040POPC   C4A72570   6.657  37.669   7.350
 9040POPC   C1B72571   6.545  37.874   6.450
 9040POPC   C2B72572   6.548  37.954   6.750
 9040POPC   C3B72573   6.570  37.885   7.050
 9040POPC   C4B72574   6.554  37.971   7.350
 9041POPC   NC372575  25.248  22.916   5.550
 9041POPC   PO472576  25.218  22.968   5.850
 9041POPC   GL172577  25.254  22.890   6.150
 9041POPC   GL272578  25.294  22.794   6.150
 9041POPC   C1A72579  25.312  22.971   6.450
 9041POPC   D2A72580  25.221  22.912   6.750
 9041POPC   C3A72581  25.280  22.953   7.050
 9041POPC   C4A72582  25.228  22.890   7.350
 9041POPC   C1B72583  25.197  22.713   6.450
 9041POPC   C2B72584  25.216  22.702   6.750
 9041POPC   C3B72585  25.221  22.680   7.050
 9041POPC   C4B72586  25.201  22.690   7.350
 9042POPC   NC372587  19.093   4.338   5.550
 9042POPC   PO472588  19.076   4.312   5.850
 9042POPC   GL172589  19.103   4.367   6.150
 9042POPC   GL272590  19.142   4.315   6.150
 9042POPC   C1A72591  19.050   4.268   6.450
 9042POPC   D2A72592  19.059   4.301   6.750
 9042POPC   C3A72593  19.032   4.275   7.050
 9042POPC   C4A72594  19.031   4.279   7.350
 9042POPC   C1B72595  19.307   4.352   6.450
 9042POPC   C2B72596  19.292   4.388   6.750
 9042POPC   C3B72597  19.292   4.417   7.050
 9042POPC   C4B72598  19.314   4.356   7.350
 9043POPC   NC372599  37.701  25.298   5.550
 9043POPC   PO472600  37.667  25.303   5.850
 9043POPC   GL172601  37.676  25.300   6.150
 9043POPC   GL272602  37.594  25.247   6.150
 9043POPC   C1A72603  37.694  25.256   6.450
 9043POPC   D2A72604  37.723  25.231   6.750
 9043POPC   C3A72605  37.654  25.230   7.050
 9043POPC   C4A72606  37.652  25.275   7.350
 9043POPC   C1B72607  37.441  25.267   6.450
 9043POPC   C2B72608  37.449  25.252   6.750
 9043POPC   C3B72609  37.432  25.241   7.050
 9043POPC   C4B72610  37.420  25.303   7.350
 9044POPC   NC372611  29.940  15.980   5.550
 9044POPC   PO472612  29.894  16.003   5.850
 9044POPC   GL172613  29.965  15.989   6.150
 9044POPC   GL272614  29.858  15.839   6.150
 9044POPC   C1A72615  29.965  15.968   6.450
 9044POPC   D2A72616  29.964  15.930   6.750
 9044POPC   C3A72617  29.884  15.986   7.050
 9044POPC   C4A72618  29.927  15.921   7.350
 9044POPC   C1B72619  29.741  15.765   6.450
 9044POPC   C2B72620  29.828  15.769   6.750
 9044POPC   C3B72621  29.783  15.783   7.050
 9044POPC   C4B72622  29.817  15.707   7.350
 9045POPC   NC372623  30.654  27.593   5.550
 9045POPC   PO472624  30.713  27.609   5.850
 9045POPC   GL172625  30.679  27.555   6.150
 9045POPC   GL272626  30.793  27.714   6.150
 9045POPC   C1A72627  30.728  27.587   6.450
 9045POPC   D2A72628  30.701  27.545   6.750
 9045POPC   C3A72629  30.653  27.573   7.050
 9045POPC   C4A72630  30.678  27.623   7.350
 9045POPC   C1B72631  30.835  27.791   6.450
 9045POPC   C2B72632  30.844  27.726   6.750
 9045POPC   C3B72633  30.905  27.722   7.050
 9045POPC   C4B72634  30.861  27.762   7.350
 9046POPC   NC372635   5.851  29.956   5.550
 9046POPC   PO472636   5.879  29.966   5.850
 9046POPC   GL172637   5.889  29.878   6.150
 9046POPC   GL272638   5.942  29.909   6.150
 9046POPC   C1A72639   5.825  29.951   6.450
 9046POPC   D2A72640   5.912  29.915   6.750
 9046POPC   C3A72641   5.878  29.894   7.050
 9046POPC   C4A72642   5.849  29.952   7.350
 9046POPC   C1B72643   6.046  29.849   6.450
 9046POPC   C2B72644   6.118  29.756   6.750
 9046POPC   C3B72645   6.117  29.831   7.050
 9046POPC   C4B72646   6.091  29.846   7.350
 9047POPC   NC372647  43.067  16.726   5.550
 9047POPC   PO472648  43.159  16.733   5.850
 9047POPC   GL172649  43.128  16.758   6.150
 9047POPC   GL272650  42.989  16.805   6.150
 9047POPC   C1A72651  43.082  16.736   6.450
 9047POPC   D2A72652  43.067  16.734   6.750
 9047POPC   C3A72653  43.120  16.694   7.050
 9047POPC   C4A72654  43.112  16.772   7.350
 9047POPC   C1B72655  42.897  16.768   6.450
 9047POPC   C2B72656  42.889  16.785   6.750
 9047POPC   C3B72657  42.898  16.778   7.050
 9047POPC   C4B72658  42.911  16.752   7.350
 9048POPC   NC372659  10.571   8.197   5.550
 9048POPC   PO472660  10.545   8.187   5.850
 9048POPC   GL172661  10.552   8.173   6.150
 9048POPC   GL272662  10.460   8.228   6.150
 9048POPC   C1A72663  10.482   8.167   6.450
 9048POPC   D2A72664  10.537   8.229   6.750
 9048POPC   C3A72665  10.481   8.227   7.050
 9048POPC   C4A72666  10.516   8.223   7.350
 9048POPC   C1B72667  10.289   8.291   6.450
 9048POPC   C2B72668  10.294   8.348   6.750
 9048POPC   C3B72669  10.286   8.367   7.050
 9048POPC   C4B72670  10.297   8.354   7.350
 9049POPC   NC372671  12.807  17.465   5.550
 9049POPC   PO472672  12.890  17.474   5.850
 9049POPC   GL172673  12.819  17.533   6.150
 9049POPC   GL272674  12.737  17.579   6.150
 9049POPC   C1A72675  12.824  17.519   6.450
 9049POPC   D2A72676  12.836  17.485   6.750
 9049POPC   C3A72677  12.882  17.463   7.050
 9049POPC   C4A72678  12.854  17.504   7.350
 9049POPC   C1B72679  12.705  17.634   6.450
 9049POPC   C2B72680  12.641  17.613   6.750
 9049POPC   C3B72681  12.657  17.667   7.050
 9049POPC   C4B72682  12.616  17.629   7.350
 9050POPC   NC372683   9.711  29.969   5.550
 9050POPC   PO472684   9.726  29.898   5.850
 9050POPC   GL172685   9.745  29.931   6.150
 9050POPC   GL272686   9.881  29.972   6.150
 9050POPC   C1A72687   9.736  29.908   6.450
 9050POPC   D2A72688   9.732  29.913   6.750
 9050POPC   C3A72689   9.708  29.901   7.050
 9050POPC   C4A72690   9.766  29.956   7.350
 9050POPC   C1B72691   9.989  30.087   6.450
 9050POPC   C2B72692   9.953  30.071   6.750
 9050POPC   C3B72693  10.002  30.063   7.050
 9050POPC   C4B72694   9.925  30.029   7.350
 9051POPC   NC372695   5.125  19.103   5.550
 9051POPC   PO472696   5.108  19.102   5.850
 9051POPC   GL172697   5.129  19.073   6.150
 9051POPC   GL272698   5.220  19.196   6.150
 9051POPC   C1A72699   5.114  19.087   6.450
 9051POPC   D2A72700   5.093  19.038   6.750
 9051POPC   C3A72701   5.085  19.085   7.050
 9051POPC   C4A72702   5.140  19.044   7.350
 9051POPC   C1B72703   5.204  19.291   6.450
 9051POPC   C2B72704   5.271  19.298   6.750
 9051POPC   C3B72705   5.258  19.208   7.050
 9051POPC   C4B72706   5.300  19.228   7.350
 9052POPC   NC372707  44.649  31.483   5.550
 9052POPC   PO472708  44.701  31.449   5.850
 9052POPC   GL172709  44.684  31.435   6.150
 9052POPC   GL272710  44.685  31.399   6.150
 9052POPC   C1A72711  44.614  31.470   6.450
 9052POPC   D2A72712  44.616  31.449   6.750
 9052POPC   C3A72713  44.634  31.505   7.050
 9052POPC   C4A72714  44.681  31.522   7.350
 9052POPC   C1B72715  44.633  31.227   6.450
 9052POPC   C2B72716  44.586  31.178   6.750
 9052POPC   C3B72717  44.589  31.250   7.050
 9052POPC   C4B72718  44.597  31.188   7.350
 9053POPC   NC372719  22.906  32.277   5.550
 9053POPC   PO472720  22.943  32.250   5.850
 9053POPC   GL172721  22.977  32.244   6.150
 9053POPC   GL272722  22.799  32.221   6.150
 9053POPC   C1A72723  22.930  32.252   6.450
 9053POPC   D2A72724  22.984  32.254   6.750
 9053POPC   C3A72725  22.962  32.268   7.050
 9053POPC   C4A72726  22.966  32.201   7.350
 9053POPC   C1B72727  22.699  32.190   6.450
 9053POPC   C2B72728  22.720  32.192   6.750
 9053POPC   C3B72729  22.713  32.228   7.050
 9053POPC   C4B72730  22.715  32.234   7.350
 9054POPC   NC372731  36.885  12.806   5.550
 9054POPC   PO472732  36.946  12.900   5.850
 9054POPC   GL172733  36.880  12.882   6.150
 9054POPC   GL272734  36.923  12.969   6.150
 9054POPC   C1A72735  36.931  12.865   6.450
 9054POPC   D2A72736  36.882  12.868   6.750
 9054POPC   C3A72737  36.908  12.873   7.050
 9054POPC   C4A72738  36.916  12.837   7.350
 9054POPC   C1B72739  36.910  13.063   6.450
 9054POPC   C2B72740  36.850  13.094   6.750
 9054POPC   C3B72741  36.890  13.099   7.050
 9054POPC   C4B72742  36.864  13.101   7.350
 9055POPC   NC372743   8.236  12.114   5.550
 9055POPC   PO472744   8.211  12.116   5.850
 9055POPC   GL172745   8.204  12.082   6.150
 9055POPC   GL272746   8.153  12.207   6.150
 9055POPC   C1A72747   8.243  12.030   6.450
 9055POPC   D2A72748   8.199  12.058   6.750
 9055POPC   C3A72749   8.192  12.088   7.050
 9055POPC   C4A72750   8.184  12.050   7.350
 9055POPC   C1B72751   8.176  12.287   6.450
 9055POPC   C2B72752   8.168  12.362   6.750
 9055POPC   C3B72753   8.168  12.353   7.050
 9055POPC   C4B72754   8.187  12.283   7.350
 9056POPC   NC372755  29.140  33.841   5.550
 9056POPC   PO472756  29.160  33.842   5.850
 9056POPC   GL172757  29.186  33.760   6.150
 9056POPC   GL272758  29.200  33.644   6.150
 9056POPC   C1A72759  29.105  33.755   6.450
 9056POPC   D2A72760  29.131  33.821   6.750
 9056POPC   C3A72761  29.169  33.818   7.050
 9056POPC   C4A72762  29.153  33.820   7.350
 9056POPC   C1B72763  29.111  33.524   6.450
 9056POPC   C2B72764  29.195  33.516   6.750
 9056POPC   C3B72765  29.122  33.535   7.050
 9056POPC   C4B72766  29.176  33.553   7.350
 9057POPC   NC372767   5.078  33.043   5.550
 9057POPC   PO472768   5.059  33.037   5.850
 9057POPC   GL172769   5.074  33.025   6.150
 9057POPC   GL272770   5.178  33.104   6.150
 9057POPC   C1A72771   5.059  33.044   6.450
 9057POPC   D2A72772   5.077  33.022   6.750
 9057POPC   C3A72773   5.048  33.068   7.050
 9057POPC   C4A72774   5.124  32.977   7.350
 9057POPC   C1B72775   5.258  33.187   6.450
 9057POPC   C2B72776   5.279  33.206   6.750
 9057POPC   C3B72777   5.230  33.216   7.050
 9057POPC   C4B72778   5.307  33.227   7.350
 9058POPC   NC372779  15.178  12.061   5.550
 9058POPC   PO472780  15.201  12.056   5.850
 9058POPC   GL172781  15.191  12.070   6.150
 9058POPC   GL272782  15.075  12.146   6.150
 9058POPC   C1A72783  15.208  12.094   6.450
 9058POPC   D2A72784  15.220  12.055   6.750
 9058POPC   C3A72785  15.171  12.058   7.050
 9058POPC   C4A72786  15.213  12.085   7.350
 9058POPC   C1B72787  14.986  12.225   6.450
 9058POPC   C2B72788  15.033  12.275   6.750
 9058POPC   C3B72789  15.053  12.301   7.050
 9058POPC   C4B72790  15.066  12.261   7.350
 9059POPC   NC372791  14.453  20.596   5.550
 9059POPC   PO472792  14.370  20.625   5.850
 9059POPC   GL172793  14.396  20.636   6.150
 9059POPC   GL272794  14.274  20.592   6.150
 9059POPC   C1A72795  14.447  20.598   6.450
 9059POPC   D2A72796  14.398  20.564   6.750
 9059POPC   C3A72797  14.378  20.632   7.050
 9059POPC   C4A72798  14.403  20.605   7.350
 9059POPC   C1B72799  14.177  20.492   6.450
 9059POPC   C2B72800  14.138  20.460   6.750
 9059POPC   C3B72801  14.195  20.530   7.050
 9059POPC   C4B72802  14.202  20.505   7.350
 9060POPC   NC372803  15.205  42.382   5.550
 9060POPC   PO472804  15.189  42.296   5.850
 9060POPC   GL172805  15.194  42.350   6.150
 9060POPC   GL272806  15.096  42.255   6.150
 9060POPC   C1A72807  15.156  42.356   6.450
 9060POPC   D2A72808  15.187  42.289   6.750
 9060POPC   C3A72809  15.141  42.367   7.050
 9060POPC   C4A72810  15.190  42.317   7.350
 9060POPC   C1B72811  15.048  42.174   6.450
 9060POPC   C2B72812  14.994  42.083   6.750
 9060POPC   C3B72813  15.086  42.160   7.050
 9060POPC   C4B72814  15.004  42.159   7.350
 9061POPC   NC372815   4.291  22.157   5.550
 9061POPC   PO472816   4.273  22.155   5.850
 9061POPC   GL172817   4.328  22.199   6.150
 9061POPC   GL272818   4.242  22.072   6.150
 9061POPC   C1A72819   4.362  22.122   6.450
 9061POPC   D2A72820   4.358  22.139   6.750
 9061POPC   C3A72821   4.306  22.114   7.050
 9061POPC   C4A72822   4.289  22.181   7.350
 9061POPC   C1B72823   4.131  22.087   6.450
 9061POPC   C2B72824   4.051  22.078   6.750
 9061POPC   C3B72825   4.056  22.105   7.050
 9061POPC   C4B72826   4.054  22.052   7.350
 9062POPC   NC372827  42.300  44.639   5.550
 9062POPC   PO472828  42.333  44.616   5.850
 9062POPC   GL172829  42.291  44.666   6.150
 9062POPC   GL272830  42.272  44.746   6.150
 9062POPC   C1A72831  42.343  44.683   6.450
 9062POPC   D2A72832  42.306  44.659   6.750
 9062POPC   C3A72833  42.287  44.621   7.050
 9062POPC   C4A72834  42.336  44.634   7.350
 9062POPC   C1B72835  42.221  44.860   6.450
 9062POPC   C2B72836  42.204  44.897   6.750
 9062POPC   C3B72837  42.134  44.839   7.050
 9062POPC   C4B72838  42.141  44.852   7.350
 9063POPC   NC372839  23.750  36.914   5.550
 9063POPC   PO472840  23.754  36.932   5.850
 9063POPC   GL172841  23.672  36.950   6.150
 9063POPC   GL272842  23.798  36.841   6.150
 9063POPC   C1A72843  23.705  36.898   6.450
 9063POPC   D2A72844  23.748  36.867   6.750
 9063POPC   C3A72845  23.696  36.870   7.050
 9063POPC   C4A72846  23.678  36.892   7.350
 9063POPC   C1B72847  23.912  36.727   6.450
 9063POPC   C2B72848  23.872  36.765   6.750
 9063POPC   C3B72849  23.897  36.786   7.050
 9063POPC   C4B72850  23.953  36.736   7.350
 9064POPC   NC372851  15.907  19.048   5.550
 9064POPC   PO472852  15.922  19.057   5.850
 9064POPC   GL172853  15.923  19.026   6.150
 9064POPC   GL272854  15.880  19.151   6.150
 9064POPC   C1A72855  16.002  19.083   6.450
 9064POPC   D2A72856  16.003  19.059   6.750
 9064POPC   C3A72857  15.917  19.060   7.050
 9064POPC   C4A72858  15.999  19.032   7.350
 9064POPC   C1B72859  15.695  19.227   6.450
 9064POPC   C2B72860  15.752  19.204   6.750
 9064POPC   C3B72861  15.777  19.149   7.050
 9064POPC   C4B72862  15.701  19.229   7.350
 9065POPC   NC372863  30.696  36.078   5.550
 9065POPC   PO472864  30.742  36.132   5.850
 9065POPC   GL172865  30.725  36.130   6.150
 9065POPC   GL272866  30.543  36.075   6.150
 9065POPC   C1A72867  30.730  36.104   6.450
 9065POPC   D2A72868  30.653  36.147   6.750
 9065POPC   C3A72869  30.672  36.100   7.050
 9065POPC   C4A72870  30.667  36.103   7.350
 9065POPC   C1B72871  30.462  36.076   6.450
 9065POPC   C2B72872  30.429  36.082   6.750
 9065POPC   C3B72873  30.423  36.132   7.050
 9065POPC   C4B72874  30.439  36.154   7.350
 9066POPC   NC372875   9.020  21.436   5.550
 9066POPC   PO472876   8.978  21.389   5.850
 9066POPC   GL172877   8.951  21.414   6.150
 9066POPC   GL272878   8.932  21.241   6.150
 9066POPC   C1A72879   9.017  21.348   6.450
 9066POPC   D2A72880   8.981  21.353   6.750
 9066POPC   C3A72881   8.953  21.361   7.050
 9066POPC   C4A72882   8.926  21.432   7.350
 9066POPC   C1B72883   8.884  21.125   6.450
 9066POPC   C2B72884   8.859  21.117   6.750
 9066POPC   C3B72885   8.871  21.185   7.050
 9066POPC   C4B72886   8.839  21.183   7.350
 9067POPC   NC372887   5.100  33.777   5.550
 9067POPC   PO472888   5.081  33.834   5.850
 9067POPC   GL172889   5.047  33.845   6.150
 9067POPC   GL272890   5.179  33.729   6.150
 9067POPC   C1A72891   5.100  33.828   6.450
 9067POPC   D2A72892   5.073  33.806   6.750
 9067POPC   C3A72893   5.116  33.799   7.050
 9067POPC   C4A72894   5.112  33.837   7.350
 9067POPC   C1B72895   5.215  33.567   6.450
 9067POPC   C2B72896   5.235  33.546   6.750
 9067POPC   C3B72897   5.235  33.607   7.050
 9067POPC   C4B72898   5.228  33.580   7.350
 9068POPC   NC372899  42.380   1.972   5.550
 9068POPC   PO472900  42.369   2.006   5.850
 9068POPC   GL172901  42.302   2.037   6.150
 9068POPC   GL272902  42.399   1.886   6.150
 9068POPC   C1A72903  42.288   2.036   6.450
 9068POPC   D2A72904  42.372   1.959   6.750
 9068POPC   C3A72905  42.333   2.022   7.050
 9068POPC   C4A72906  42.300   2.006   7.350
 9068POPC   C1B72907  42.445   1.706   6.450
 9068POPC   C2B72908  42.378   1.710   6.750
 9068POPC   C3B72909  42.448   1.781   7.050
 9068POPC   C4B72910  42.395   1.755   7.350
 9069POPC   NC372911  22.951  24.453   5.550
 9069POPC   PO472912  22.920  24.456   5.850
 9069POPC   GL172913  22.949  24.465   6.150
 9069POPC   GL272914  22.870  24.611   6.150
 9069POPC   C1A72915  22.916  24.532   6.450
 9069POPC   D2A72916  22.923  24.535   6.750
 9069POPC   C3A72917  22.973  24.502   7.050
 9069POPC   C4A72918  22.968  24.462   7.350
 9069POPC   C1B72919  22.849  24.713   6.450
 9069POPC   C2B72920  22.788  24.742   6.750
 9069POPC   C3B72921  22.857  24.701   7.050
 9069POPC   C4B72922  22.822  24.739   7.350
 9070POPC   NC372923  15.910  15.216   5.550
 9070POPC   PO472924  15.977  15.150   5.850
 9070POPC   GL172925  15.934  15.139   6.150
 9070POPC   GL272926  15.876  15.056   6.150
 9070POPC   C1A72927  16.003  15.156   6.450
 9070POPC   D2A72928  15.943  15.195   6.750
 9070POPC   C3A72929  15.967  15.179   7.050
 9070POPC   C4A72930  15.978  15.132   7.350
 9070POPC   C1B72931  15.842  14.955   6.450
 9070POPC   C2B72932  15.759  15.020   6.750
 9070POPC   C3B72933  15.839  14.955   7.050
 9070POPC   C4B72934  15.811  14.979   7.350
 9071POPC   NC372935  21.403   2.726   5.550
 9071POPC   PO472936  21.380   2.739   5.850
 9071POPC   GL172937  21.411   2.728   6.150
 9071POPC   GL272938  21.407   2.911   6.150
 9071POPC   C1A72939  21.367   2.741   6.450
 9071POPC   D2A72940  21.355   2.802   6.750
 9071POPC   C3A72941  21.376   2.741   7.050
 9071POPC   C4A72942  21.382   2.727   7.350
 9071POPC   C1B72943  21.401   3.044   6.450
 9071POPC   C2B72944  21.409   3.004   6.750
 9071POPC   C3B72945  21.384   3.056   7.050
 9071POPC   C4B72946  21.455   3.016   7.350
 9072POPC   NC372947  43.117  34.546   5.550
 9072POPC   PO472948  43.105  34.598   5.850
 9072POPC   GL172949  43.088  34.617   6.150
 9072POPC   GL272950  43.220  34.544   6.150
 9072POPC   C1A72951  43.090  34.567   6.450
 9072POPC   D2A72952  43.084  34.597   6.750
 9072POPC   C3A72953  43.154  34.570   7.050
 9072POPC   C4A72954  43.074  34.599   7.350
 9072POPC   C1B72955  43.359  34.484   6.450
 9072POPC   C2B72956  43.366  34.514   6.750
 9072POPC   C3B72957  43.298  34.508   7.050
 9072POPC   C4B72958  43.365  34.438   7.350
 9073POPC   NC372959  37.651  44.686   5.550
 9073POPC   PO472960  37.633  44.634   5.850
 9073POPC   GL172961  37.715  44.709   6.150
 9073POPC   GL272962  37.614  44.725   6.150
 9073POPC   C1A72963  37.665  44.671   6.450
 9073POPC   D2A72964  37.665  44.623   6.750
 9073POPC   C3A72965  37.662  44.704   7.050
 9073POPC   C4A72966  37.726  44.694   7.350
 9073POPC   C1B72967  37.470  44.789   6.450
 9073POPC   C2B72968  37.524  44.763   6.750
 9073POPC   C3B72969  37.446  44.793   7.050
 9073POPC   C4B72970  37.495  44.827   7.350
 9074POPC   NC372971   2.800  31.466   5.550
 9074POPC   PO472972   2.761  31.473   5.850
 9074POPC   GL172973   2.779  31.509   6.150
 9074POPC   GL272974   2.647  31.344   6.150
 9074POPC   C1A72975   2.733  31.521   6.450
 9074POPC   D2A72976   2.741  31.506   6.750
 9074POPC   C3A72977   2.788  31.433   7.050
 9074POPC   C4A72978   2.750  31.479   7.350
 9074POPC   C1B72979   2.557  31.260   6.450
 9074POPC   C2B72980   2.641  31.245   6.750
 9074POPC   C3B72981   2.606  31.296   7.050
 9074POPC   C4B72982   2.563  31.326   7.350
 9075POPC   NC372983   5.865   4.282   5.550
 9075POPC   PO472984   5.859   4.358   5.850
 9075POPC   GL172985   5.845   4.354   6.150
 9075POPC   GL272986   6.010   4.283   6.150
 9075POPC   C1A72987   5.897   4.298   6.450
 9075POPC   D2A72988   5.835   4.364   6.750
 9075POPC   C3A72989   5.863   4.359   7.050
 9075POPC   C4A72990   5.880   4.358   7.350
 9075POPC   C1B72991   6.098   4.351   6.450
 9075POPC   C2B72992   6.090   4.388   6.750
 9075POPC   C3B72993   6.103   4.307   7.050
 9075POPC   C4B72994   6.137   4.330   7.350
 9076POPC   NC372995   9.744  19.030   5.550
 9076POPC   PO472996   9.716  19.066   5.850
 9076POPC   GL172997   9.744  19.103   6.150
 9076POPC   GL272998   9.638  19.022   6.150
 9076POPC   C1A72999   9.746  19.099   6.450
 9076POPC   D2A73000   9.794  19.060   6.750
 9076POPC   C3A73001   9.767  19.082   7.050
 9076POPC   C4A73002   9.776  19.058   7.350
 9076POPC   C1B73003   9.474  18.979   6.450
 9076POPC   C2B73004   9.545  18.985   6.750
 9076POPC   C3B73005   9.533  18.985   7.050
 9076POPC   C4B73006   9.482  18.999   7.350
 9077POPC   NC373007  27.543  31.424   5.550
 9077POPC   PO473008  27.639  31.508   5.850
 9077POPC   GL173009  27.551  31.435   6.150
 9077POPC   GL273010  27.598  31.561   6.150
 9077POPC   C1A73011  27.605  31.492   6.450
 9077POPC   D2A73012  27.603  31.438   6.750
 9077POPC   C3A73013  27.591  31.448   7.050
 9077POPC   C4A73014  27.609  31.435   7.350
 9077POPC   C1B73015  27.667  31.741   6.450
 9077POPC   C2B73016  27.583  31.763   6.750
 9077POPC   C3B73017  27.623  31.745   7.050
 9077POPC   C4B73018  27.617  31.672   7.350
 9078POPC   NC373019   8.940   0.409   5.550
 9078POPC   PO473020   8.962   0.391   5.850
 9078POPC   GL173021   8.935   0.483   6.150
 9078POPC   GL273022   9.070   0.482   6.150
 9078POPC   C1A73023   8.937   0.437   6.450
 9078POPC   D2A73024   9.014   0.405   6.750
 9078POPC   C3A73025   9.009   0.396   7.050
 9078POPC   C4A73026   8.987   0.470   7.350
 9078POPC   C1B73027   9.156   0.535   6.450
 9078POPC   C2B73028   9.215   0.578   6.750
 9078POPC   C3B73029   9.182   0.578   7.050
 9078POPC   C4B73030   9.188   0.547   7.350
 9079POPC   NC373031   7.374  32.263   5.550
 9079POPC   PO473032   7.394  32.286   5.850
 9079POPC   GL173033   7.375  32.219   6.150
 9079POPC   GL273034   7.495  32.162   6.150
 9079POPC   C1A73035   7.406  32.229   6.450
 9079POPC   D2A73036   7.407  32.293   6.750
 9079POPC   C3A73037   7.421  32.245   7.050
 9079POPC   C4A73038   7.416  32.288   7.350
 9079POPC   C1B73039   7.484  31.974   6.450
 9079POPC   C2B73040   7.522  32.037   6.750
 9079POPC   C3B73041   7.502  32.004   7.050
 9079POPC   C4B73042   7.546  31.982   7.350
 9080POPC   NC373043  13.614  22.986   5.550
 9080POPC   PO473044  13.632  22.966   5.850
 9080POPC   GL173045  13.609  22.896   6.150
 9080POPC   GL273046  13.496  22.985   6.150
 9080POPC   C1A73047  13.600  22.960   6.450
 9080POPC   D2A73048  13.654  22.948   6.750
 9080POPC   C3A73049  13.621  22.921   7.050
 9080POPC   C4A73050  13.645  22.974   7.350
 9080POPC   C1B73051  13.370  23.046   6.450
 9080POPC   C2B73052  13.426  22.994   6.750
 9080POPC   C3B73053  13.419  23.020   7.050
 9080POPC   C4B73054  13.346  22.972   7.350
 9081POPC   NC373055  27.572  21.424   5.550
 9081POPC   PO473056  27.628  21.360   5.850
 9081POPC   GL173057  27.637  21.367   6.150
 9081POPC   GL273058  27.584  21.227   6.150
 9081POPC   C1A73059  27.544  21.396   6.450
 9081POPC   D2A73060  27.629  21.385   6.750
 9081POPC   C3A73061  27.612  21.429   7.050
 9081POPC   C4A73062  27.588  21.361   7.350
 9081POPC   C1B73063  27.589  21.102   6.450
 9081POPC   C2B73064  27.620  21.139   6.750
 9081POPC   C3B73065  27.656  21.148   7.050
 9081POPC   C4B73066  27.617  21.147   7.350
 9082POPC   NC373067  20.625  38.467   5.550
 9082POPC   PO473068  20.562  38.432   5.850
 9082POPC   GL173069  20.618  38.420   6.150
 9082POPC   GL273070  20.747  38.448   6.150
 9082POPC   C1A73071  20.599  38.484   6.450
 9082POPC   D2A73072  20.574  38.421   6.750
 9082POPC   C3A73073  20.573  38.464   7.050
 9082POPC   C4A73074  20.608  38.494   7.350
 9082POPC   C1B73075  20.819  38.518   6.450
 9082POPC   C2B73076  20.820  38.505   6.750
 9082POPC   C3B73077  20.827  38.429   7.050
 9082POPC   C4B73078  20.839  38.489   7.350
 9083POPC   NC373079  26.067  43.918   5.550
 9083POPC   PO473080  26.059  43.862   5.850
 9083POPC   GL173081  26.054  43.842   6.150
 9083POPC   GL273082  25.967  43.855   6.150
 9083POPC   C1A73083  26.083  43.929   6.450
 9083POPC   D2A73084  26.049  43.903   6.750
 9083POPC   C3A73085  26.038  43.871   7.050
 9083POPC   C4A73086  26.090  43.934   7.350
 9083POPC   C1B73087  25.832  43.700   6.450
 9083POPC   C2B73088  25.825  43.701   6.750
 9083POPC   C3B73089  25.810  43.759   7.050
 9083POPC   C4B73090  25.877  43.752   7.350
 9084POPC   NC373091  38.427  29.874   5.550
 9084POPC   PO473092  38.427  29.966   5.850
 9084POPC   GL173093  38.463  29.900   6.150
 9084POPC   GL273094  38.440  30.049   6.150
 9084POPC   C1A73095  38.441  29.911   6.450
 9084POPC   D2A73096  38.493  29.943   6.750
 9084POPC   C3A73097  38.438  29.873   7.050
 9084POPC   C4A73098  38.464  29.924   7.350
 9084POPC   C1B73099  38.392  30.159   6.450
 9084POPC   C2B73100  38.326  30.105   6.750
 9084POPC   C3B73101  38.315  30.163   7.050
 9084POPC   C4B73102  38.368  30.173   7.350
 9085POPC   NC373103  41.556  30.696   5.550
 9085POPC   PO473104  41.582  30.703   5.850
 9085POPC   GL173105  41.585  30.694   6.150
 9085POPC   GL273106  41.611  30.841   6.150
 9085POPC   C1A73107  41.513  30.738   6.450
 9085POPC   D2A73108  41.517  30.688   6.750
 9085POPC   C3A73109  41.595  30.743   7.050
 9085POPC   C4A73110  41.558  30.697   7.350
 9085POPC   C1B73111  41.663  30.917   6.450
 9085POPC   C2B73112  41.672  30.914   6.750
 9085POPC   C3B73113  41.613  30.936   7.050
 9085POPC   C4B73114  41.650  30.979   7.350
 9086POPC   NC373115  19.082  17.545   5.550
 9086POPC   PO473116  19.080  17.534   5.850
 9086POPC   GL173117  19.107  17.519   6.150
 9086POPC   GL273118  19.059  17.426   6.150
 9086POPC   C1A73119  19.082  17.534   6.450
 9086POPC   D2A73120  19.043  17.505   6.750
 9086POPC   C3A73121  19.009  17.467   7.050
 9086POPC   C4A73122  19.033  17.550   7.350
 9086POPC   C1B73123  19.132  17.264   6.450
 9086POPC   C2B73124  19.116  17.318   6.750
 9086POPC   C3B73125  19.120  17.228   7.050
 9086POPC   C4B73126  19.171  17.241   7.350
 9087POPC   NC373127  40.024  29.174   5.550
 9087POPC   PO473128  39.966  29.103   5.850
 9087POPC   GL173129  40.021  29.115   6.150
 9087POPC   GL273130  40.135  29.274   6.150
 9087POPC   C1A73131  39.959  29.113   6.450
 9087POPC   D2A73132  39.998  29.148   6.750
 9087POPC   C3A73133  40.042  29.121   7.050
 9087POPC   C4A73134  40.028  29.151   7.350
 9087POPC   C1B73135  40.225  29.272   6.450
 9087POPC   C2B73136  40.210  29.285   6.750
 9087POPC   C3B73137  40.162  29.277   7.050
 9087POPC   C4B73138  40.212  29.269   7.350
 9088POPC   NC373139  25.240  33.803   5.550
 9088POPC   PO473140  25.277  33.828   5.850
 9088POPC   GL173141  25.226  33.777   6.150
 9088POPC   GL273142  25.336  33.715   6.150
 9088POPC   C1A73143  25.285  33.815   6.450
 9088POPC   D2A73144  25.250  33.804   6.750
 9088POPC   C3A73145  25.239  33.772   7.050
 9088POPC   C4A73146  25.290  33.841   7.350
 9088POPC   C1B73147  25.452  33.672   6.450
 9088POPC   C2B73148  25.499  33.674   6.750
 9088POPC   C3B73149  25.465  33.681   7.050
 9088POPC   C4B73150  25.532  33.652   7.350
 9089POPC   NC373151  22.974  29.156   5.550
 9089POPC   PO473152  22.932  29.096   5.850
 9089POPC   GL173153  22.961  29.117   6.150
 9089POPC   GL273154  22.857  29.133   6.150
 9089POPC   C1A73155  22.969  29.149   6.450
 9089POPC   D2A73156  22.984  29.159   6.750
 9089POPC   C3A73157  22.971  29.145   7.050
 9089POPC   C4A73158  22.910  29.155   7.350
 9089POPC   C1B73159  22.674  29.105   6.450
 9089POPC   C2B73160  22.709  29.100   6.750
 9089POPC   C3B73161  22.661  29.038   7.050
 9089POPC   C4B73162  22.731  29.070   7.350
 9090POPC   NC373163  30.699  10.540   5.550
 9090POPC   PO473164  30.650  10.531   5.850
 9090POPC   GL173165  30.681  10.489   6.150
 9090POPC   GL273166  30.620  10.591   6.150
 9090POPC   C1A73167  30.724  10.547   6.450
 9090POPC   D2A73168  30.737  10.541   6.750
 9090POPC   C3A73169  30.739  10.546   7.050
 9090POPC   C4A73170  30.729  10.497   7.350
 9090POPC   C1B73171  30.606  10.719   6.450
 9090POPC   C2B73172  30.578  10.768   6.750
 9090POPC   C3B73173  30.623  10.748   7.050
 9090POPC   C4B73174  30.557  10.715   7.350
 9091POPC   NC373175   3.582   5.130   5.550
 9091POPC   PO473176   3.537   5.110   5.850
 9091POPC   GL173177   3.514   5.094   6.150
 9091POPC   GL273178   3.458   5.116   6.150
 9091POPC   C1A73179   3.495   5.130   6.450
 9091POPC   D2A73180   3.543   5.138   6.750
 9091POPC   C3A73181   3.541   5.043   7.050
 9091POPC   C4A73182   3.519   5.069   7.350
 9091POPC   C1B73183   3.279   5.150   6.450
 9091POPC   C2B73184   3.299   5.151   6.750
 9091POPC   C3B73185   3.313   5.170   7.050
 9091POPC   C4B73186   3.341   5.107   7.350
 9092POPC   NC373187  12.109  21.399   5.550
 9092POPC   PO473188  12.121  21.336   5.850
 9092POPC   GL173189  12.117  21.385   6.150
 9092POPC   GL273190  12.005  21.293   6.150
 9092POPC   C1A73191  12.056  21.416   6.450
 9092POPC   D2A73192  12.063  21.353   6.750
 9092POPC   C3A73193  12.047  21.387   7.050
 9092POPC   C4A73194  12.073  21.388   7.350
 9092POPC   C1B73195  12.033  21.097   6.450
 9092POPC   C2B73196  12.051  21.170   6.750
 9092POPC   C3B73197  12.048  21.106   7.050
 9092POPC   C4B73198  12.053  21.109   7.350
 9093POPC   NC373199  19.818  11.338   5.550
 9093POPC   PO473200  19.813  11.342   5.850
 9093POPC   GL173201  19.797  11.273   6.150
 9093POPC   GL273202  19.959  11.433   6.150
 9093POPC   C1A73203  19.794  11.250   6.450
 9093POPC   D2A73204  19.881  11.287   6.750
 9093POPC   C3A73205  19.814  11.296   7.050
 9093POPC   C4A73206  19.849  11.333   7.350
 9093POPC   C1B73207  20.054  11.460   6.450
 9093POPC   C2B73208  19.995  11.493   6.750
 9093POPC   C3B73209  19.978  11.487   7.050
 9093POPC   C4B73210  20.038  11.465   7.350
 9094POPC   NC373211  35.306   5.107   5.550
 9094POPC   PO473212  35.331   5.045   5.850
 9094POPC   GL173213  35.386   5.114   6.150
 9094POPC   GL273214  35.430   5.207   6.150
 9094POPC   C1A73215  35.332   5.077   6.450
 9094POPC   D2A73216  35.343   5.075   6.750
 9094POPC   C3A73217  35.320   5.056   7.050
 9094POPC   C4A73218  35.330   5.090   7.350
 9094POPC   C1B73219  35.533   5.265   6.450
 9094POPC   C2B73220  35.523   5.250   6.750
 9094POPC   C3B73221  35.558   5.306   7.050
 9094POPC   C4B73222  35.567   5.292   7.350
 9095POPC   NC373223  15.910   1.994   5.550
 9095POPC   PO473224  15.996   1.940   5.850
 9095POPC   GL173225  16.004   1.984   6.150
 9095POPC   GL273226  16.046   2.054   6.150
 9095POPC   C1A73227  15.927   1.958   6.450
 9095POPC   D2A73228  15.989   1.964   6.750
 9095POPC   C3A73229  15.949   2.013   7.050
 9095POPC   C4A73230  15.997   1.956   7.350
 9095POPC   C1B73231  16.104   2.149   6.450
 9095POPC   C2B73232  16.115   2.156   6.750
 9095POPC   C3B73233  16.141   2.189   7.050
 9095POPC   C4B73234  16.104   2.231   7.350
 9096POPC   NC373235   6.622  24.453   5.550
 9096POPC   PO473236   6.607  24.505   5.850
 9096POPC   GL173237   6.693  24.515   6.150
 9096POPC   GL273238   6.741  24.495   6.150
 9096POPC   C1A73239   6.643  24.445   6.450
 9096POPC   D2A73240   6.605  24.505   6.750
 9096POPC   C3A73241   6.687  24.526   7.050
 9096POPC   C4A73242   6.608  24.507   7.350
 9096POPC   C1B73243   6.914  24.608   6.450
 9096POPC   C2B73244   6.923  24.532   6.750
 9096POPC   C3B73245   6.884  24.585   7.050
 9096POPC   C4B73246   6.868  24.585   7.350
 9097POPC   NC373247  10.569  14.401   5.550
 9097POPC   PO473248  10.483  14.424   5.850
 9097POPC   GL173249  10.511  14.406   6.150
 9097POPC   GL273250  10.476  14.301   6.150
 9097POPC   C1A73251  10.511  14.443   6.450
 9097POPC   D2A73252  10.533  14.447   6.750
 9097POPC   C3A73253  10.569  14.433   7.050
 9097POPC   C4A73254  10.491  14.399   7.350
 9097POPC   C1B73255  10.412  14.139   6.450
 9097POPC   C2B73256  10.424  14.204   6.750
 9097POPC   C3B73257  10.414  14.215   7.050
 9097POPC   C4B73258  10.424  14.211   7.350
 9098POPC   NC373259  31.434  43.865   5.550
 9098POPC   PO473260  31.453  43.898   5.850
 9098POPC   GL173261  31.480  43.885   6.150
 9098POPC   GL273262  31.450  44.009   6.150
 9098POPC   C1A73263  31.467  43.877   6.450
 9098POPC   D2A73264  31.493  43.857   6.750
 9098POPC   C3A73265  31.438  43.847   7.050
 9098POPC   C4A73266  31.480  43.887   7.350
 9098POPC   C1B73267  31.409  44.164   6.450
 9098POPC   C2B73268  31.392  44.178   6.750
 9098POPC   C3B73269  31.375  44.097   7.050
 9098POPC   C4B73270  31.451  44.149   7.350
 9099POPC   NC373271   1.180  34.625   5.550
 9099POPC   PO473272   1.213  34.611   5.850
 9099POPC   GL173273   1.247  34.531   6.150
 9099POPC   GL273274   1.175  34.709   6.150
 9099POPC   C1A73275   1.239  34.613   6.450
 9099POPC   D2A73276   1.213  34.594   6.750
 9099POPC   C3A73277   1.229  34.599   7.050
 9099POPC   C4A73278   1.185  34.607   7.350
 9099POPC   C1B73279   1.087  34.741   6.450
 9099POPC   C2B73280   1.081  34.765   6.750
 9099POPC   C3B73281   1.117  34.790   7.050
 9099POPC   C4B73282   1.082  34.813   7.350
 9100POPC   NC373283  14.376  13.645   5.550
 9100POPC   PO473284  14.396  13.646   5.850
 9100POPC   GL173285  14.428  13.671   6.150
 9100POPC   GL273286  14.445  13.703   6.150
 9100POPC   C1A73287  14.440  13.585   6.450
 9100POPC   D2A73288  14.402  13.665   6.750
 9100POPC   C3A73289  14.410  13.667   7.050
 9100POPC   C4A73290  14.407  13.646   7.350
 9100POPC   C1B73291  14.408  13.873   6.450
 9100POPC   C2B73292  14.428  13.915   6.750
 9100POPC   C3B73293  14.425  13.905   7.050
 9100POPC   C4B73294  14.482  13.844   7.350
 9101POPC   NC373295   4.308   9.766   5.550
 9101POPC   PO473296   4.295   9.713   5.850
 9101POPC   GL173297   4.337   9.728   6.150
 9101POPC   GL273298   4.259   9.638   6.150
 9101POPC   C1A73299   4.342   9.797   6.450
 9101POPC   D2A73300   4.280   9.706   6.750
 9101POPC   C3A73301   4.306   9.698   7.050
 9101POPC   C4A73302   4.277   9.790   7.350
 9101POPC   C1B73303   4.167   9.506   6.450
 9101POPC   C2B73304   4.173   9.535   6.750
 9101POPC   C3B73305   4.193   9.499   7.050
 9101POPC   C4B73306   4.232   9.501   7.350
 9102POPC   NC373307  26.019   8.967   5.550
 9102POPC   PO473308  26.043   8.932   5.850
 9102POPC   GL173309  26.001   9.003   6.150
 9102POPC   GL273310  25.974   9.016   6.150
 9102POPC   C1A73311  26.012   8.979   6.450
 9102POPC   D2A73312  26.081   8.947   6.750
 9102POPC   C3A73313  26.084   8.992   7.050
 9102POPC   C4A73314  26.016   8.949   7.350
 9102POPC   C1B73315  25.775   9.104   6.450
 9102POPC   C2B73316  25.777   9.089   6.750
 9102POPC   C3B73317  25.856   9.103   7.050
 9102POPC   C4B73318  25.827   9.103   7.350
 9103POPC   NC373319  15.179   0.483   5.550
 9103POPC   PO473320  15.224   0.454   5.850
 9103POPC   GL173321  15.206   0.391   6.150
 9103POPC   GL273322  15.255   0.355   6.150
 9103POPC   C1A73323  15.146   0.416   6.450
 9103POPC   D2A73324  15.167   0.423   6.750
 9103POPC   C3A73325  15.205   0.462   7.050
 9103POPC   C4A73326  15.228   0.461   7.350
 9103POPC   C1B73327  15.232   0.161   6.450
 9103POPC   C2B73328  15.210   0.217   6.750
 9103POPC   C3B73329  15.255   0.182   7.050
 9103POPC   C4B73330  15.206   0.224   7.350
 9104POPC   NC373331  34.603   0.390   5.550
 9104POPC   PO473332  34.615   0.420   5.850
 9104POPC   GL173333  34.572   0.419   6.150
 9104POPC   GL273334  34.709   0.338   6.150
 9104POPC   C1A73335  34.580   0.487   6.450
 9104POPC   D2A73336  34.621   0.477   6.750
 9104POPC   C3A73337  34.600   0.488   7.050
 9104POPC   C4A73338  34.552   0.388   7.350
 9104POPC   C1B73339  34.771   0.349   6.450
 9104POPC   C2B73340  34.762   0.277   6.750
 9104POPC   C3B73341  34.804   0.359   7.050
 9104POPC   C4B73342  34.822   0.323   7.350
 9105POPC   NC373343  15.952  26.846   5.550
 9105POPC   PO473344  15.968  26.793   5.850
 9105POPC   GL173345  15.961  26.816   6.150
 9105POPC   GL273346  15.871  26.662   6.150
 9105POPC   C1A73347  15.932  26.825   6.450
 9105POPC   D2A73348  15.922  26.848   6.750
 9105POPC   C3A73349  15.965  26.832   7.050
 9105POPC   C4A73350  16.001  26.794   7.350
 9105POPC   C1B73351  15.809  26.633   6.450
 9105POPC   C2B73352  15.798  26.559   6.750
 9105POPC   C3B73353  15.885  26.594   7.050
 9105POPC   C4B73354  15.893  26.613   7.350
 9106POPC   NC373355  43.866   1.247   5.550
 9106POPC   PO473356  43.923   1.190   5.850
 9106POPC   GL173357  43.885   1.258   6.150
 9106POPC   GL273358  44.026   1.300   6.150
 9106POPC   C1A73359  43.895   1.231   6.450
 9106POPC   D2A73360  43.858   1.200   6.750
 9106POPC   C3A73361  43.933   1.244   7.050
 9106POPC   C4A73362  43.915   1.167   7.350
 9106POPC   C1B73363  44.069   1.339   6.450
 9106POPC   C2B73364  44.152   1.354   6.750
 9106POPC   C3B73365  44.107   1.344   7.050
 9106POPC   C4B73366  44.080   1.362   7.350
 9107POPC   NC373367   2.034  14.369   5.550
 9107POPC   PO473368   2.024  14.445   5.850
 9107POPC   GL173369   1.950  14.356   6.150
 9107POPC   GL273370   2.047  14.305   6.150
 9107POPC   C1A73371   1.965  14.426   6.450
 9107POPC   D2A73372   2.000  14.429   6.750
 9107POPC   C3A73373   1.945  14.410   7.050
 9107POPC   C4A73374   2.030  14.422   7.350
 9107POPC   C1B73375   2.161  14.210   6.450
 9107POPC   C2B73376   2.120  14.239   6.750
 9107POPC   C3B73377   2.108  14.166   7.050
 9107POPC   C4B73378   2.139  14.161   7.350
 9108POPC   NC373379  19.859   6.669   5.550
 9108POPC   PO473380  19.801   6.668   5.850
 9108POPC   GL173381  19.842   6.668   6.150
 9108POPC   GL273382  19.686   6.668   6.150
 9108POPC   C1A73383  19.838   6.674   6.450
 9108POPC   D2A73384  19.831   6.627   6.750
 9108POPC   C3A73385  19.859   6.669   7.050
 9108POPC   C4A73386  19.837   6.599   7.350
 9108POPC   C1B73387  19.565   6.813   6.450
 9108POPC   C2B73388  19.663   6.756   6.750
 9108POPC   C3B73389  19.634   6.751   7.050
 9108POPC   C4B73390  19.656   6.804   7.350
 9109POPC   NC373391  19.831  25.266   5.550
 9109POPC   PO473392  19.876  25.244   5.850
 9109POPC   GL173393  19.817  25.225   6.150
 9109POPC   GL273394  19.971  25.252   6.150
 9109POPC   C1A73395  19.805  25.291   6.450
 9109POPC   D2A73396  19.884  25.311   6.750
 9109POPC   C3A73397  19.805  25.312   7.050
 9109POPC   C4A73398  19.835  25.256   7.350
 9109POPC   C1B73399  20.068  25.249   6.450
 9109POPC   C2B73400  20.071  25.242   6.750
 9109POPC   C3B73401  20.065  25.210   7.050
 9109POPC   C4B73402  20.071  25.240   7.350
 9110POPC   NC373403  42.340  32.206   5.550
 9110POPC   PO473404  42.297  32.279   5.850
 9110POPC   GL173405  42.294  32.287   6.150
 9110POPC   GL273406  42.385  32.400   6.150
 9110POPC   C1A73407  42.345  32.209   6.450
 9110POPC   D2A73408  42.367  32.288   6.750
 9110POPC   C3A73409  42.372  32.211   7.050
 9110POPC   C4A73410  42.336  32.259   7.350
 9110POPC   C1B73411  42.391  32.515   6.450
 9110POPC   C2B73412  42.362  32.543   6.750
 9110POPC   C3B73413  42.316  32.494   7.050
 9110POPC   C4B73414  42.392  32.499   7.350
 9111POPC   NC373415   9.786  35.334   5.550
 9111POPC   PO473416   9.764  35.355   5.850
 9111POPC   GL173417   9.746  35.353   6.150
 9111POPC   GL273418   9.715  35.474   6.150
 9111POPC   C1A73419   9.753  35.305   6.450
 9111POPC   D2A73420   9.724  35.348   6.750
 9111POPC   C3A73421   9.766  35.356   7.050
 9111POPC   C4A73422   9.742  35.330   7.350
 9111POPC   C1B73423   9.728  35.592   6.450
 9111POPC   C2B73424   9.719  35.638   6.750
 9111POPC   C3B73425   9.713  35.631   7.050
 9111POPC   C4B73426   9.745  35.575   7.350
 9112POPC   NC373427  29.117  13.633   5.550
 9112POPC   PO473428  29.137  13.635   5.850
 9112POPC   GL173429  29.165  13.634   6.150
 9112POPC   GL273430  28.989  13.588   6.150
 9112POPC   C1A73431  29.159  13.616   6.450
 9112POPC   D2A73432  29.132  13.582   6.750
 9112POPC   C3A73433  29.110  13.672   7.050
 9112POPC   C4A73434  29.186  13.584   7.350
 9112POPC   C1B73435  28.869  13.567   6.450
 9112POPC   C2B73436  28.917  13.568   6.750
 9112POPC   C3B73437  28.864  13.541   7.050
 9112POPC   C4B73438  28.923  13.625   7.350
 9113POPC   NC373439  23.711   7.407   5.550
 9113POPC   PO473440  23.728   7.405   5.850
 9113POPC   GL173441  23.731   7.378   6.150
 9113POPC   GL273442  23.857   7.472   6.150
 9113POPC   C1A73443  23.695   7.428   6.450
 9113POPC   D2A73444  23.719   7.464   6.750
 9113POPC   C3A73445  23.722   7.453   7.050
 9113POPC   C4A73446  23.715   7.454   7.350
 9113POPC   C1B73447  23.971   7.456   6.450
 9113POPC   C2B73448  23.964   7.473   6.750
 9113POPC   C3B73449  24.011   7.398   7.050
 9113POPC   C4B73450  23.959   7.464   7.350
 9114POPC   NC373451  43.859  30.744   5.550
 9114POPC   PO473452  43.884  30.725   5.850
 9114POPC   GL173453  43.866  30.690   6.150
 9114POPC   GL273454  44.039  30.709   6.150
 9114POPC   C1A73455  43.930  30.690   6.450
 9114POPC   D2A73456  43.934  30.683   6.750
 9114POPC   C3A73457  43.908  30.667   7.050
 9114POPC   C4A73458  43.857  30.703   7.350
 9114POPC   C1B73459  44.121  30.811   6.450
 9114POPC   C2B73460  44.121  30.750   6.750
 9114POPC   C3B73461  44.144  30.826   7.050
 9114POPC   C4B73462  44.073  30.828   7.350
 9115POPC   NC373463  32.274  33.817   5.550
 9115POPC   PO473464  32.240  33.769   5.850
 9115POPC   GL173465  32.261  33.848   6.150
 9115POPC   GL273466  32.109  33.724   6.150
 9115POPC   C1A73467  32.295  33.839   6.450
 9115POPC   D2A73468  32.234  33.769   6.750
 9115POPC   C3A73469  32.249  33.817   7.050
 9115POPC   C4A73470  32.232  33.831   7.350
 9115POPC   C1B73471  31.975  33.710   6.450
 9115POPC   C2B73472  31.982  33.724   6.750
 9115POPC   C3B73473  32.015  33.726   7.050
 9115POPC   C4B73474  31.975  33.651   7.350
 9116POPC   NC373475  19.059  44.615   5.550
 9116POPC   PO473476  19.090  44.647   5.850
 9116POPC   GL173477  19.058  44.699   6.150
 9116POPC   GL273478  19.006  44.558   6.150
 9116POPC   C1A73479  19.042  44.676   6.450
 9116POPC   D2A73480  19.090  44.644   6.750
 9116POPC   C3A73481  19.038  44.704   7.050
 9116POPC   C4A73482  19.060  44.676   7.350
 9116POPC   C1B73483  18.875  44.489   6.450
 9116POPC   C2B73484  18.922  44.470   6.750
 9116POPC   C3B73485  18.832  44.510   7.050
 9116POPC   C4B73486  18.837  44.490   7.350
 9117POPC   NC373487   6.677   2.747   5.550
 9117POPC   PO473488   6.664   2.738   5.850
 9117POPC   GL173489   6.686   2.799   6.150
 9117POPC   GL273490   6.645   2.616   6.150
 9117POPC   C1A73491   6.609   2.765   6.450
 9117POPC   D2A73492   6.628   2.718   6.750
 9117POPC   C3A73493   6.694   2.756   7.050
 9117POPC   C4A73494   6.684   2.755   7.350
 9117POPC   C1B73495   6.691   2.558   6.450
 9117POPC   C2B73496   6.733   2.524   6.750
 9117POPC   C3B73497   6.724   2.489   7.050
 9117POPC   C4B73498   6.686   2.501   7.350
 9118POPC   NC373499   8.203  29.132   5.550
 9118POPC   PO473500   8.210  29.176   5.850
 9118POPC   GL173501   8.176  29.177   6.150
 9118POPC   GL273502   8.292  29.225   6.150
 9118POPC   C1A73503   8.220  29.164   6.450
 9118POPC   D2A73504   8.165  29.181   6.750
 9118POPC   C3A73505   8.162  29.117   7.050
 9118POPC   C4A73506   8.156  29.182   7.350
 9118POPC   C1B73507   8.392  29.305   6.450
 9118POPC   C2B73508   8.376  29.295   6.750
 9118POPC   C3B73509   8.417  29.270   7.050
 9118POPC   C4B73510   8.446  29.302   7.350
 9119POPC   NC373511  41.587  23.716   5.550
 9119POPC   PO473512  41.575  23.762   5.850
 9119POPC   GL173513  41.512  23.669   6.150
 9119POPC   GL273514  41.472  23.618   6.150
 9119POPC   C1A73515  41.554  23.674   6.450
 9119POPC   D2A73516  41.592  23.739   6.750
 9119POPC   C3A73517  41.597  23.677   7.050
 9119POPC   C4A73518  41.532  23.763   7.350
 9119POPC   C1B73519  41.461  23.486   6.450
 9119POPC   C2B73520  41.470  23.473   6.750
 9119POPC   C3B73521  41.495  23.507   7.050
 9119POPC   C4B73522  41.520  23.512   7.350
 9120POPC   NC373523  37.704  33.038   5.550
 9120POPC   PO473524  37.729  32.974   5.850
 9120POPC   GL173525  37.653  33.009   6.150
 9120POPC   GL273526  37.559  33.006   6.150
 9120POPC   C1A73527  37.657  32.996   6.450
 9120POPC   D2A73528  37.709  33.001   6.750
 9120POPC   C3A73529  37.660  33.072   7.050
 9120POPC   C4A73530  37.690  33.004   7.350
 9120POPC   C1B73531  37.434  32.884   6.450
 9120POPC   C2B73532  37.453  32.879   6.750
 9120POPC   C3B73533  37.500  32.886   7.050
 9120POPC   C4B73534  37.436  32.865   7.350
 9121POPC   NC373535  42.299  33.006   5.550
 9121POPC   PO473536  42.310  33.046   5.850
 9121POPC   GL173537  42.323  33.072   6.150
 9121POPC   GL273538  42.285  32.950   6.150
 9121POPC   C1A73539  42.332  32.986   6.450
 9121POPC   D2A73540  42.289  33.025   6.750
 9121POPC   C3A73541  42.353  32.983   7.050
 9121POPC   C4A73542  42.362  33.020   7.350
 9121POPC   C1B73543  42.231  32.823   6.450
 9121POPC   C2B73544  42.213  32.834   6.750
 9121POPC   C3B73545  42.220  32.844   7.050
 9121POPC   C4B73546  42.253  32.855   7.350
 9122POPC   NC373547  19.831  40.028   5.550
 9122POPC   PO473548  19.817  40.045   5.850
 9122POPC   GL173549  19.868  39.980   6.150
 9122POPC   GL273550  19.900  40.064   6.150
 9122POPC   C1A73551  19.838  40.034   6.450
 9122POPC   D2A73552  19.818  40.015   6.750
 9122POPC   C3A73553  19.836  40.002   7.050
 9122POPC   C4A73554  19.804  39.959   7.350
 9122POPC   C1B73555  20.072  40.207   6.450
 9122POPC   C2B73556  20.014  40.179   6.750
 9122POPC   C3B73557  20.058  40.158   7.050
 9122POPC   C4B73558  20.061  40.184   7.350
 9123POPC   NC373559  25.258   8.965   5.550
 9123POPC   PO473560  25.243   8.997   5.850
 9123POPC   GL173561  25.227   8.941   6.150
 9123POPC   GL273562  25.410   8.987   6.150
 9123POPC   C1A73563  25.258   8.936   6.450
 9123POPC   D2A73564  25.225   8.946   6.750
 9123POPC   C3A73565  25.227   9.009   7.050
 9123POPC   C4A73566  25.229   8.973   7.350
 9123POPC   C1B73567  25.524   8.934   6.450
 9123POPC   C2B73568  25.553   9.026   6.750
 9123POPC   C3B73569  25.551   9.000   7.050
 9123POPC   C4B73570  25.496   8.933   7.350
 9124POPC   NC373571  37.707  15.992   5.550
 9124POPC   PO473572  37.712  16.005   5.850
 9124POPC   GL173573  37.718  15.940   6.150
 9124POPC   GL273574  37.604  15.934   6.150
 9124POPC   C1A73575  37.686  15.981   6.450
 9124POPC   D2A73576  37.649  15.984   6.750
 9124POPC   C3A73577  37.684  15.958   7.050
 9124POPC   C4A73578  37.709  15.922   7.350
 9124POPC   C1B73579  37.475  15.955   6.450
 9124POPC   C2B73580  37.421  15.917   6.750
 9124POPC   C3B73581  37.463  15.901   7.050
 9124POPC   C4B73582  37.411  15.994   7.350
 9125POPC   NC373583  15.991   9.730   5.550
 9125POPC   PO473584  15.958   9.713   5.850
 9125POPC   GL173585  15.993   9.707   6.150
 9125POPC   GL273586  15.981   9.843   6.150
 9125POPC   C1A73587  15.994   9.766   6.450
 9125POPC   D2A73588  15.978   9.783   6.750
 9125POPC   C3A73589  15.962   9.726   7.050
 9125POPC   C4A73590  15.962   9.755   7.350
 9125POPC   C1B73591  15.995   9.954   6.450
 9125POPC   C2B73592  15.960   9.974   6.750
 9125POPC   C3B73593  15.930  10.007   7.050
 9125POPC   C4B73594  15.931   9.965   7.350
 9126POPC   NC373595   2.799  40.822   5.550
 9126POPC   PO473596   2.717  40.787   5.850
 9126POPC   GL173597   2.786  40.782   6.150
 9126POPC   GL273598   2.660  40.766   6.150
 9126POPC   C1A73599   2.805  40.789   6.450
 9126POPC   D2A73600   2.804  40.806   6.750
 9126POPC   C3A73601   2.753  40.810   7.050
 9126POPC   C4A73602   2.770  40.760   7.350
 9126POPC   C1B73603   2.492  40.749   6.450
 9126POPC   C2B73604   2.476  40.718   6.750
 9126POPC   C3B73605   2.570  40.774   7.050
 9126POPC   C4B73606   2.564  40.758   7.350
 9127POPC   NC373607   1.261  12.047   5.550
 9127POPC   PO473608   1.180  12.045   5.850
 9127POPC   GL173609   1.222  12.072   6.150
 9127POPC   GL273610   1.211  12.171   6.150
 9127POPC   C1A73611   1.169  12.041   6.450
 9127POPC   D2A73612   1.172  12.082   6.750
 9127POPC   C3A73613   1.215  12.057   7.050
 9127POPC   C4A73614   1.239  12.038   7.350
 9127POPC   C1B73615   1.188  12.291   6.450
 9127POPC   C2B73616   1.125  12.272   6.750
 9127POPC   C3B73617   1.174  12.335   7.050
 9127POPC   C4B73618   1.115  12.287   7.350
 9128POPC   NC373619  27.601  20.603   5.550
 9128POPC   PO473620  27.560  20.617   5.850
 9128POPC   GL173621  27.589  20.621   6.150
 9128POPC   GL273622  27.561  20.498   6.150
 9128POPC   C1A73623  27.601  20.644   6.450
 9128POPC   D2A73624  27.621  20.592   6.750
 9128POPC   C3A73625  27.623  20.562   7.050
 9128POPC   C4A73626  27.595  20.615   7.350
 9128POPC   C1B73627  27.607  20.388   6.450
 9128POPC   C2B73628  27.563  20.315   6.750
 9128POPC   C3B73629  27.643  20.400   7.050
 9128POPC   C4B73630  27.557  20.355   7.350
 9129POPC   NC373631  39.278   5.062   5.550
 9129POPC   PO473632  39.232   5.060   5.850
 9129POPC   GL173633  39.279   5.077   6.150
 9129POPC   GL273634  39.197   5.227   6.150
 9129POPC   C1A73635  39.193   5.065   6.450
 9129POPC   D2A73636  39.198   5.089   6.750
 9129POPC   C3A73637  39.195   5.113   7.050
 9129POPC   C4A73638  39.210   5.094   7.350
 9129POPC   C1B73639  39.252   5.374   6.450
 9129POPC   C2B73640  39.246   5.385   6.750
 9129POPC   C3B73641  39.274   5.304   7.050
 9129POPC   C4B73642  39.263   5.369   7.350
 9130POPC   NC373643  25.268  40.801   5.550
 9130POPC   PO473644  25.249  40.739   5.850
 9130POPC   GL173645  25.274  40.824   6.150
 9130POPC   GL273646  25.137  40.793   6.150
 9130POPC   C1A73647  25.292  40.768   6.450
 9130POPC   D2A73648  25.261  40.767   6.750
 9130POPC   C3A73649  25.230  40.823   7.050
 9130POPC   C4A73650  25.278  40.782   7.350
 9130POPC   C1B73651  24.982  40.844   6.450
 9130POPC   C2B73652  25.004  40.885   6.750
 9130POPC   C3B73653  25.011  40.839   7.050
 9130POPC   C4B73654  24.974  40.826   7.350
 9131POPC   NC373655  40.773   9.752   5.550
 9131POPC   PO473656  40.753   9.752   5.850
 9131POPC   GL173657  40.740   9.784   6.150
 9131POPC   GL273658  40.669   9.893   6.150
 9131POPC   C1A73659  40.807   9.773   6.450
 9131POPC   D2A73660  40.769   9.752   6.750
 9131POPC   C3A73661  40.827   9.733   7.050
 9131POPC   C4A73662  40.793   9.792   7.350
 9131POPC   C1B73663  40.625   9.897   6.450
 9131POPC   C2B73664  40.655   9.970   6.750
 9131POPC   C3B73665  40.617   9.916   7.050
 9131POPC   C4B73666  40.580   9.986   7.350
 9132POPC   NC373667   4.273  17.481   5.550
 9132POPC   PO473668   4.326  17.547   5.850
 9132POPC   GL173669   4.268  17.543   6.150
 9132POPC   GL273670   4.307  17.382   6.150
 9132POPC   C1A73671   4.301  17.528   6.450
 9132POPC   D2A73672   4.271  17.498   6.750
 9132POPC   C3A73673   4.363  17.512   7.050
 9132POPC   C4A73674   4.307  17.547   7.350
 9132POPC   C1B73675   4.318  17.226   6.450
 9132POPC   C2B73676   4.357  17.219   6.750
 9132POPC   C3B73677   4.337  17.253   7.050
 9132POPC   C4B73678   4.292  17.268   7.350
 9133POPC   NC373679  25.222  22.145   5.550
 9133POPC   PO473680  25.280  22.117   5.850
 9133POPC   GL173681  25.295  22.136   6.150
 9133POPC   GL273682  25.314  22.042   6.150
 9133POPC   C1A73683  25.312  22.124   6.450
 9133POPC   D2A73684  25.264  22.210   6.750
 9133POPC   C3A73685  25.227  22.151   7.050
 9133POPC   C4A73686  25.264  22.178   7.350
 9133POPC   C1B73687  25.344  21.922   6.450
 9133POPC   C2B73688  25.311  21.929   6.750
 9133POPC   C3B73689  25.391  21.956   7.050
 9133POPC   C4B73690  25.370  21.977   7.350
 9134POPC   NC373691   8.230  20.571   5.550
 9134POPC   PO473692   8.207  20.649   5.850
 9134POPC   GL173693   8.238  20.649   6.150
 9134POPC   GL273694   8.075  20.619   6.150
 9134POPC   C1A73695   8.190  20.628   6.450
 9134POPC   D2A73696   8.209  20.586   6.750
 9134POPC   C3A73697   8.208  20.583   7.050
 9134POPC   C4A73698   8.228  20.629   7.350
 9134POPC   C1B73699   7.958  20.643   6.450
 9134POPC   C2B73700   7.961  20.654   6.750
 9134POPC   C3B73701   7.996  20.653   7.050
 9134POPC   C4B73702   7.994  20.583   7.350
 9135POPC   NC373703  29.143  26.774   5.550
 9135POPC   PO473704  29.113  26.770   5.850
 9135POPC   GL173705  29.170  26.813   6.150
 9135POPC   GL273706  29.117  26.906   6.150
 9135POPC   C1A73707  29.167  26.812   6.450
 9135POPC   D2A73708  29.163  26.820   6.750
 9135POPC   C3A73709  29.108  26.836   7.050
 9135POPC   C4A73710  29.192  26.794   7.350
 9135POPC   C1B73711  28.985  27.023   6.450
 9135POPC   C2B73712  29.045  27.047   6.750
 9135POPC   C3B73713  29.051  26.999   7.050
 9135POPC   C4B73714  28.986  26.978   7.350
 9136POPC   NC373715  14.436  23.756   5.550
 9136POPC   PO473716  14.426  23.744   5.850
 9136POPC   GL173717  14.381  23.715   6.150
 9136POPC   GL273718  14.546  23.719   6.150
 9136POPC   C1A73719  14.448  23.724   6.450
 9136POPC   D2A73720  14.372  23.755   6.750
 9136POPC   C3A73721  14.428  23.683   7.050
 9136POPC   C4A73722  14.420  23.668   7.350
 9136POPC   C1B73723  14.601  23.674   6.450
 9136POPC   C2B73724  14.669  23.679   6.750
 9136POPC   C3B73725  14.661  23.671   7.050
 9136POPC   C4B73726  14.602  23.696   7.350
 9137POPC   NC373727  21.408   7.436   5.550
 9137POPC   PO473728  21.425   7.406   5.850
 9137POPC   GL173729  21.402   7.397   6.150
 9137POPC   GL273730  21.538   7.516   6.150
 9137POPC   C1A73731  21.400   7.377   6.450
 9137POPC   D2A73732  21.365   7.399   6.750
 9137POPC   C3A73733  21.360   7.470   7.050
 9137POPC   C4A73734  21.341   7.444   7.350
 9137POPC   C1B73735  21.596   7.524   6.450
 9137POPC   C2B73736  21.581   7.576   6.750
 9137POPC   C3B73737  21.554   7.538   7.050
 9137POPC   C4B73738  21.628   7.589   7.350
 9138POPC   NC373739  42.361   7.455   5.550
 9138POPC   PO473740  42.368   7.418   5.850
 9138POPC   GL173741  42.341   7.397   6.150
 9138POPC   GL273742  42.452   7.420   6.150
 9138POPC   C1A73743  42.354   7.407   6.450
 9138POPC   D2A73744  42.301   7.462   6.750
 9138POPC   C3A73745  42.344   7.421   7.050
 9138POPC   C4A73746  42.331   7.434   7.350
 9138POPC   C1B73747  42.601   7.413   6.450
 9138POPC   C2B73748  42.572   7.340   6.750
 9138POPC   C3B73749  42.590   7.372   7.050
 9138POPC   C4B73750  42.539   7.388   7.350
 9139POPC   NC373751  38.409  26.013   5.550
 9139POPC   PO473752  38.497  26.049   5.850
 9139POPC   GL173753  38.412  26.028   6.150
 9139POPC   GL273754  38.438  25.913   6.150
 9139POPC   C1A73755  38.474  26.020   6.450
 9139POPC   D2A73756  38.458  26.024   6.750
 9139POPC   C3A73757  38.494  26.064   7.050
 9139POPC   C4A73758  38.465  26.065   7.350
 9139POPC   C1B73759  38.511  25.769   6.450
 9139POPC   C2B73760  38.472  25.760   6.750
 9139POPC   C3B73761  38.448  25.788   7.050
 9139POPC   C4B73762  38.513  25.832   7.350
 9140POPC   NC373763  15.211  26.038   5.550
 9140POPC   PO473764  15.214  26.024   5.850
 9140POPC   GL173765  15.168  26.072   6.150
 9140POPC   GL273766  15.068  25.945   6.150
 9140POPC   C1A73767  15.226  26.037   6.450
 9140POPC   D2A73768  15.197  26.033   6.750
 9140POPC   C3A73769  15.171  26.041   7.050
 9140POPC   C4A73770  15.163  26.065   7.350
 9140POPC   C1B73771  14.938  25.869   6.450
 9140POPC   C2B73772  14.945  25.885   6.750
 9140POPC   C3B73773  14.999  25.944   7.050
 9140POPC   C4B73774  14.975  25.885   7.350
 9141POPC   NC373775  20.590   7.455   5.550
 9141POPC   PO473776  20.649   7.451   5.850
 9141POPC   GL173777  20.591   7.443   6.150
 9141POPC   GL273778  20.680   7.483   6.150
 9141POPC   C1A73779  20.649   7.458   6.450
 9141POPC   D2A73780  20.563   7.421   6.750
 9141POPC   C3A73781  20.606   7.413   7.050
 9141POPC   C4A73782  20.592   7.428   7.350
 9141POPC   C1B73783  20.766   7.587   6.450
 9141POPC   C2B73784  20.838   7.545   6.750
 9141POPC   C3B73785  20.780   7.582   7.050
 9141POPC   C4B73786  20.787   7.573   7.350
 9142POPC   NC373787  39.240  30.690   5.550
 9142POPC   PO473788  39.250  30.679   5.850
 9142POPC   GL173789  39.195  30.722   6.150
 9142POPC   GL273790  39.393  30.740   6.150
 9142POPC   C1A73791  39.191  30.669   6.450
 9142POPC   D2A73792  39.266  30.657   6.750
 9142POPC   C3A73793  39.198  30.734   7.050
 9142POPC   C4A73794  39.215  30.708   7.350
 9142POPC   C1B73795  39.481  30.749   6.450
 9142POPC   C2B73796  39.440  30.766   6.750
 9142POPC   C3B73797  39.469  30.776   7.050
 9142POPC   C4B73798  39.513  30.801   7.350
 9143POPC   NC373799  38.421  15.191   5.550
 9143POPC   PO473800  38.432  15.137   5.850
 9143POPC   GL173801  38.485  15.226   6.150
 9143POPC   GL273802  38.554  15.085   6.150
 9143POPC   C1A73803  38.462  15.215   6.450
 9143POPC   D2A73804  38.497  15.178   6.750
 9143POPC   C3A73805  38.488  15.204   7.050
 9143POPC   C4A73806  38.486  15.204   7.350
 9143POPC   C1B73807  38.652  15.057   6.450
 9143POPC   C2B73808  38.614  15.081   6.750
 9143POPC   C3B73809  38.663  15.039   7.050
 9143POPC   C4B73810  38.696  15.037   7.350
 9144POPC   NC373811  12.820   2.727   5.550
 9144POPC   PO473812  12.896   2.717   5.850
 9144POPC   GL173813  12.901   2.716   6.150
 9144POPC   GL273814  12.996   2.814   6.150
 9144POPC   C1A73815  12.843   2.788   6.450
 9144POPC   D2A73816  12.821   2.754   6.750
 9144POPC   C3A73817  12.899   2.770   7.050
 9144POPC   C4A73818  12.818   2.804   7.350
 9144POPC   C1B73819  13.081   2.756   6.450
 9144POPC   C2B73820  13.139   2.770   6.750
 9144POPC   C3B73821  13.091   2.829   7.050
 9144POPC   C4B73822  13.095   2.768   7.350
 9145POPC   NC373823  16.750   2.021   5.550
 9145POPC   PO473824  16.736   1.998   5.850
 9145POPC   GL173825  16.774   2.012   6.150
 9145POPC   GL273826  16.711   2.076   6.150
 9145POPC   C1A73827  16.704   2.026   6.450
 9145POPC   D2A73828  16.758   1.941   6.750
 9145POPC   C3A73829  16.703   2.032   7.050
 9145POPC   C4A73830  16.707   2.014   7.350
 9145POPC   C1B73831  16.807   2.262   6.450
 9145POPC   C2B73832  16.746   2.219   6.750
 9145POPC   C3B73833  16.786   2.213   7.050
 9145POPC   C4B73834  16.727   2.276   7.350
 9146POPC   NC373835  11.287  19.828   5.550
 9146POPC   PO473836  11.326  19.807   5.850
 9146POPC   GL173837  11.348  19.857   6.150
 9146POPC   GL273838  11.456  19.838   6.150
 9146POPC   C1A73839  11.338  19.791   6.450
 9146POPC   D2A73840  11.307  19.880   6.750
 9146POPC   C3A73841  11.337  19.848   7.050
 9146POPC   C4A73842  11.349  19.880   7.350
 9146POPC   C1B73843  11.526  19.810   6.450
 9146POPC   C2B73844  11.538  19.823   6.750
 9146POPC   C3B73845  11.594  19.765   7.050
 9146POPC   C4B73846  11.497  19.817   7.350
 9147POPC   NC373847  27.600  16.751   5.550
 9147POPC   PO473848  27.608  16.721   5.850
 9147POPC   GL173849  27.615  16.729   6.150
 9147POPC   GL273850  27.474  16.737   6.150
 9147POPC   C1A73851  27.598  16.704   6.450
 9147POPC   D2A73852  27.622  16.700   6.750
 9147POPC   C3A73853  27.560  16.729   7.050
 9147POPC   C4A73854  27.627  16.684   7.350
 9147POPC   C1B73855  27.315  16.816   6.450
 9147POPC   C2B73856  27.298  16.807   6.750
 9147POPC   C3B73857  27.331  16.810   7.050
 9147POPC   C4B73858  27.364  16.722   7.350
 9148POPC   NC373859   9.759  41.575   5.550
 9148POPC   PO473860   9.790  41.517   5.850
 9148POPC   GL173861   9.780  41.559   6.150
 9148POPC   GL273862   9.739  41.706   6.150
 9148POPC   C1A73863   9.781  41.605   6.450
 9148POPC   D2A73864   9.769  41.553   6.750
 9148POPC   C3A73865   9.740  41.518   7.050
 9148POPC   C4A73866   9.731  41.597   7.350
 9148POPC   C1B73867   9.815  41.802   6.450
 9148POPC   C2B73868   9.778  41.815   6.750
 9148POPC   C3B73869   9.767  41.757   7.050
 9148POPC   C4B73870   9.830  41.788   7.350
 9149POPC   NC373871  26.025   3.503   5.550
 9149POPC   PO473872  26.048   3.515   5.850
 9149POPC   GL173873  26.085   3.533   6.150
 9149POPC   GL273874  26.084   3.379   6.150
 9149POPC   C1A73875  25.995   3.591   6.450
 9149POPC   D2A73876  26.008   3.493   6.750
 9149POPC   C3A73877  26.081   3.535   7.050
 9149POPC   C4A73878  26.022   3.558   7.350
 9149POPC   C1B73879  26.029   3.341   6.450
 9149POPC   C2B73880  26.122   3.271   6.750
 9149POPC   C3B73881  26.112   3.315   7.050
 9149POPC   C4B73882  26.122   3.278   7.350
 9150POPC   NC373883  15.150   8.180   5.550
 9150POPC   PO473884  15.210   8.161   5.850
 9150POPC   GL173885  15.196   8.209   6.150
 9150POPC   GL273886  15.195   8.118   6.150
 9150POPC   C1A73887  15.157   8.188   6.450
 9150POPC   D2A73888  15.202   8.211   6.750
 9150POPC   C3A73889  15.224   8.185   7.050
 9150POPC   C4A73890  15.213   8.244   7.350
 9150POPC   C1B73891  15.135   7.935   6.450
 9150POPC   C2B73892  15.212   7.989   6.750
 9150POPC   C3B73893  15.166   7.956   7.050
 9150POPC   C4B73894  15.133   7.967   7.350
 9151POPC   NC373895  24.441  22.138   5.550
 9151POPC   PO473896  24.467  22.191   5.850
 9151POPC   GL173897  24.523  22.200   6.150
 9151POPC   GL273898  24.412  22.069   6.150
 9151POPC   C1A73899  24.451  22.134   6.450
 9151POPC   D2A73900  24.490  22.211   6.750
 9151POPC   C3A73901  24.468  22.140   7.050
 9151POPC   C4A73902  24.463  22.201   7.350
 9151POPC   C1B73903  24.332  21.993   6.450
 9151POPC   C2B73904  24.368  21.974   6.750
 9151POPC   C3B73905  24.339  21.986   7.050
 9151POPC   C4B73906  24.368  21.989   7.350
 9152POPC   NC373907  22.182  38.448   5.550
 9152POPC   PO473908  22.129  38.494   5.850
 9152POPC   GL173909  22.163  38.412   6.150
 9152POPC   GL273910  22.049  38.438   6.150
 9152POPC   C1A73911  22.146  38.472   6.450
 9152POPC   D2A73912  22.194  38.465   6.750
 9152POPC   C3A73913  22.123  38.495   7.050
 9152POPC   C4A73914  22.183  38.469   7.350
 9152POPC   C1B73915  21.896  38.351   6.450
 9152POPC   C2B73916  21.968  38.384   6.750
 9152POPC   C3B73917  21.948  38.312   7.050
 9152POPC   C4B73918  21.903  38.337   7.350
 9153POPC   NC373919   5.884   5.881   5.550
 9153POPC   PO473920   5.833   5.830   5.850
 9153POPC   GL173921   5.881   5.842   6.150
 9153POPC   GL273922   5.928   5.960   6.150
 9153POPC   C1A73923   5.907   5.918   6.450
 9153POPC   D2A73924   5.917   5.891   6.750
 9153POPC   C3A73925   5.826   5.901   7.050
 9153POPC   C4A73926   5.834   5.894   7.350
 9153POPC   C1B73927   6.050   6.097   6.450
 9153POPC   C2B73928   6.005   6.037   6.750
 9153POPC   C3B73929   6.081   6.085   7.050
 9153POPC   C4B73930   6.040   6.082   7.350
 9154POPC   NC373931  20.595  26.855   5.550
 9154POPC   PO473932  20.658  26.840   5.850
 9154POPC   GL173933  20.621  26.827   6.150
 9154POPC   GL273934  20.671  26.936   6.150
 9154POPC   C1A73935  20.660  26.848   6.450
 9154POPC   D2A73936  20.601  26.865   6.750
 9154POPC   C3A73937  20.657  26.799   7.050
 9154POPC   C4A73938  20.655  26.779   7.350
 9154POPC   C1B73939  20.742  27.004   6.450
 9154POPC   C2B73940  20.717  26.988   6.750
 9154POPC   C3B73941  20.718  27.022   7.050
 9154POPC   C4B73942  20.738  26.992   7.350
 9155POPC   NC373943   8.983  13.588   5.550
 9155POPC   PO473944   8.983  13.599   5.850
 9155POPC   GL173945   8.924  13.606   6.150
 9155POPC   GL273946   9.081  13.752   6.150
 9155POPC   C1A73947   8.989  13.676   6.450
 9155POPC   D2A73948   8.945  13.612   6.750
 9155POPC   C3A73949   8.966  13.591   7.050
 9155POPC   C4A73950   8.994  13.668   7.350
 9155POPC   C1B73951   9.125  13.848   6.450
 9155POPC   C2B73952   9.131  13.778   6.750
 9155POPC   C3B73953   9.109  13.766   7.050
 9155POPC   C4B73954   9.137  13.769   7.350
 9156POPC   NC373955   1.237   3.580   5.550
 9156POPC   PO473956   1.192   3.579   5.850
 9156POPC   GL173957   1.170   3.568   6.150
 9156POPC   GL273958   1.167   3.701   6.150
 9156POPC   C1A73959   1.186   3.537   6.450
 9156POPC   D2A73960   1.197   3.530   6.750
 9156POPC   C3A73961   1.178   3.505   7.050
 9156POPC   C4A73962   1.179   3.581   7.350
 9156POPC   C1B73963   1.219   3.827   6.450
 9156POPC   C2B73964   1.168   3.745   6.750
 9156POPC   C3B73965   1.220   3.780   7.050
 9156POPC   C4B73966   1.195   3.792   7.350
 9157POPC   NC373967   8.217  26.836   5.550
 9157POPC   PO473968   8.198  26.812   5.850
 9157POPC   GL173969   8.201  26.825   6.150
 9157POPC   GL273970   8.321  26.882   6.150
 9157POPC   C1A73971   8.152  26.791   6.450
 9157POPC   D2A73972   8.187  26.783   6.750
 9157POPC   C3A73973   8.184  26.784   7.050
 9157POPC   C4A73974   8.227  26.815   7.350
 9157POPC   C1B73975   8.401  26.887   6.450
 9157POPC   C2B73976   8.468  26.960   6.750
 9157POPC   C3B73977   8.374  26.892   7.050
 9157POPC   C4B73978   8.443  26.899   7.350
 9158POPC   NC373979  36.911  42.368   5.550
 9158POPC   PO473980  36.854  42.287   5.850
 9158POPC   GL173981  36.910  42.374   6.150
 9158POPC   GL273982  36.836  42.223   6.150
 9158POPC   C1A73983  36.909  42.305   6.450
 9158POPC   D2A73984  36.937  42.323   6.750
 9158POPC   C3A73985  36.915  42.321   7.050
 9158POPC   C4A73986  36.879  42.372   7.350
 9158POPC   C1B73987  36.749  42.173   6.450
 9158POPC   C2B73988  36.797  42.113   6.750
 9158POPC   C3B73989  36.754  42.099   7.050
 9158POPC   C4B73990  36.735  42.148   7.350
 9159POPC   NC373991  39.199  19.055   5.550
 9159POPC   PO473992  39.203  19.058   5.850
 9159POPC   GL173993  39.239  19.107   6.150
 9159POPC   GL273994  39.319  19.083   6.150
 9159POPC   C1A73995  39.208  19.078   6.450
 9159POPC   D2A73996  39.253  19.057   6.750
 9159POPC   C3A73997  39.184  19.108   7.050
 9159POPC   C4A73998  39.272  19.023   7.350
 9159POPC   C1B73999  39.412  19.213   6.450
 9159POPC   C2B74000  39.459  19.170   6.750
 9159POPC   C3B74001  39.465  19.174   7.050
 9159POPC   C4B74002  39.424  19.253   7.350
 9160POPC   NC374003  40.756   6.607   5.550
 9160POPC   PO474004  40.739   6.618   5.850
 9160POPC   GL174005  40.787   6.693   6.150
 9160POPC   GL274006  40.688   6.493   6.150
 9160POPC   C1A74007  40.733   6.608   6.450
 9160POPC   D2A74008  40.745   6.665   6.750
 9160POPC   C3A74009  40.739   6.643   7.050
 9160POPC   C4A74010  40.783   6.600   7.350
 9160POPC   C1B74011  40.623   6.430   6.450
 9160POPC   C2B74012  40.691   6.455   6.750
 9160POPC   C3B74013  40.641   6.450   7.050
 9160POPC   C4B74014  40.658   6.465   7.350
 9161POPC   NC374015   3.516   9.708   5.550
 9161POPC   PO474016   3.571   9.713   5.850
 9161POPC   GL174017   3.591   9.754   6.150
 9161POPC   GL274018   3.619   9.636   6.150
 9161POPC   C1A74019   3.545   9.710   6.450
 9161POPC   D2A74020   3.567   9.727   6.750
 9161POPC   C3A74021   3.520   9.710   7.050
 9161POPC   C4A74022   3.549   9.756   7.350
 9161POPC   C1B74023   3.721   9.627   6.450
 9161POPC   C2B74024   3.713   9.569   6.750
 9161POPC   C3B74025   3.706   9.654   7.050
 9161POPC   C4B74026   3.704   9.580   7.350
 9162POPC   NC374027  22.917   5.848   5.550
 9162POPC   PO474028  22.959   5.893   5.850
 9162POPC   GL174029  22.927   5.897   6.150
 9162POPC   GL274030  22.979   5.782   6.150
 9162POPC   C1A74031  22.951   5.831   6.450
 9162POPC   D2A74032  22.974   5.831   6.750
 9162POPC   C3A74033  22.928   5.837   7.050
 9162POPC   C4A74034  22.967   5.867   7.350
 9162POPC   C1B74035  22.943   5.645   6.450
 9162POPC   C2B74036  22.878   5.661   6.750
 9162POPC   C3B74037  22.971   5.593   7.050
 9162POPC   C4B74038  22.961   5.589   7.350
 9163POPC   NC374039  40.036  27.574   5.550
 9163POPC   PO474040  40.031  27.630   5.850
 9163POPC   GL174041  40.010  27.600   6.150
 9163POPC   GL274042  40.112  27.632   6.150
 9163POPC   C1A74043  40.048  27.550   6.450
 9163POPC   D2A74044  40.041  27.553   6.750
 9163POPC   C3A74045  40.050  27.621   7.050
 9163POPC   C4A74046  39.983  27.579   7.350
 9163POPC   C1B74047  40.189  27.747   6.450
 9163POPC   C2B74048  40.154  27.719   6.750
 9163POPC   C3B74049  40.159  27.753   7.050
 9163POPC   C4B74050  40.185  27.719   7.350
 9164POPC   NC374051   0.411  38.470   5.550
 9164POPC   PO474052   0.453  38.451   5.850
 9164POPC   GL174053   0.473  38.430   6.150
 9164POPC   GL274054   0.380  38.588   6.150
 9164POPC   C1A74055   0.417  38.501   6.450
 9164POPC   D2A74056   0.413  38.477   6.750
 9164POPC   C3A74057   0.478  38.456   7.050
 9164POPC   C4A74058   0.431  38.452   7.350
 9164POPC   C1B74059   0.256  38.650   6.450
 9164POPC   C2B74060   0.284  38.624   6.750
 9164POPC   C3B74061   0.239  38.613   7.050
 9164POPC   C4B74062   0.293  38.645   7.350
 9165POPC   NC374063   1.197  11.345   5.550
 9165POPC   PO474064   1.191  11.263   5.850
 9165POPC   GL174065   1.170  11.275   6.150
 9165POPC   GL274066   1.249  11.193   6.150
 9165POPC   C1A74067   1.256  11.259   6.450
 9165POPC   D2A74068   1.242  11.269   6.750
 9165POPC   C3A74069   1.256  11.299   7.050
 9165POPC   C4A74070   1.217  11.313   7.350
 9165POPC   C1B74071   1.238  11.022   6.450
 9165POPC   C2B74072   1.192  11.006   6.750
 9165POPC   C3B74073   1.228  11.055   7.050
 9165POPC   C4B74074   1.189  11.067   7.350
 9166POPC   NC374075   3.567  21.388   5.550
 9166POPC   PO474076   3.516  21.363   5.850
 9166POPC   GL174077   3.583  21.364   6.150
 9166POPC   GL274078   3.685  21.410   6.150
 9166POPC   C1A74079   3.542  21.417   6.450
 9166POPC   D2A74080   3.532  21.423   6.750
 9166POPC   C3A74081   3.518  21.394   7.050
 9166POPC   C4A74082   3.561  21.361   7.350
 9166POPC   C1B74083   3.778  21.427   6.450
 9166POPC   C2B74084   3.802  21.426   6.750
 9166POPC   C3B74085   3.807  21.438   7.050
 9166POPC   C4B74086   3.803  21.475   7.350
 9167POPC   NC374087  41.599   7.418   5.550
 9167POPC   PO474088  41.549   7.439   5.850
 9167POPC   GL174089  41.532   7.449   6.150
 9167POPC   GL274090  41.458   7.559   6.150
 9167POPC   C1A74091  41.522   7.469   6.450
 9167POPC   D2A74092  41.524   7.387   6.750
 9167POPC   C3A74093  41.607   7.394   7.050
 9167POPC   C4A74094  41.594   7.451   7.350
 9167POPC   C1B74095  41.379   7.656   6.450
 9167POPC   C2B74096  41.457   7.633   6.750
 9167POPC   C3B74097  41.449   7.643   7.050
 9167POPC   C4B74098  41.462   7.597   7.350
 9168POPC   NC374099  36.103   5.895   5.550
 9168POPC   PO474100  36.160   5.878   5.850
 9168POPC   GL174101  36.125   5.827   6.150
 9168POPC   GL274102  36.056   5.922   6.150
 9168POPC   C1A74103  36.131   5.822   6.450
 9168POPC   D2A74104  36.112   5.856   6.750
 9168POPC   C3A74105  36.124   5.822   7.050
 9168POPC   C4A74106  36.131   5.828   7.350
 9168POPC   C1B74107  35.985   6.112   6.450
 9168POPC   C2B74108  35.975   6.064   6.750
 9168POPC   C3B74109  36.011   6.090   7.050
 9168POPC   C4B74110  35.999   6.110   7.350
 9169POPC   NC374111  31.435  30.712   5.550
 9169POPC   PO474112  31.451  30.701   5.850
 9169POPC   GL174113  31.458  30.744   6.150
 9169POPC   GL274114  31.598  30.653   6.150
 9169POPC   C1A74115  31.462  30.698   6.450
 9169POPC   D2A74116  31.435  30.716   6.750
 9169POPC   C3A74117  31.439  30.708   7.050
 9169POPC   C4A74118  31.430  30.693   7.350
 9169POPC   C1B74119  31.677  30.536   6.450
 9169POPC   C2B74120  31.673  30.517   6.750
 9169POPC   C3B74121  31.667  30.501   7.050
 9169POPC   C4B74122  31.638  30.506   7.350
 9170POPC   NC374123  21.336  42.336   5.550
 9170POPC   PO474124  21.337  42.380   5.850
 9170POPC   GL174125  21.363  42.291   6.150
 9170POPC   GL274126  21.425  42.245   6.150
 9170POPC   C1A74127  21.399  42.331   6.450
 9170POPC   D2A74128  21.426  42.345   6.750
 9170POPC   C3A74129  21.418  42.302   7.050
 9170POPC   C4A74130  21.363  42.309   7.350
 9170POPC   C1B74131  21.521  42.103   6.450
 9170POPC   C2B74132  21.456  42.074   6.750
 9170POPC   C3B74133  21.519  42.073   7.050
 9170POPC   C4B74134  21.498  42.145   7.350
 9171POPC   NC374135  30.692  32.257   5.550
 9171POPC   PO474136  30.710  32.250   5.850
 9171POPC   GL174137  30.666  32.284   6.150
 9171POPC   GL274138  30.782  32.138   6.150
 9171POPC   C1A74139  30.705  32.283   6.450
 9171POPC   D2A74140  30.663  32.233   6.750
 9171POPC   C3A74141  30.678  32.232   7.050
 9171POPC   C4A74142  30.744  32.237   7.350
 9171POPC   C1B74143  30.911  32.062   6.450
 9171POPC   C2B74144  30.904  32.085   6.750
 9171POPC   C3B74145  30.896  32.046   7.050
 9171POPC   C4B74146  30.856  32.109   7.350
 9172POPC   NC374147  41.583  12.043   5.550
 9172POPC   PO474148  41.599  12.085   5.850
 9172POPC   GL174149  41.511  12.113   6.150
 9172POPC   GL274150  41.637  11.997   6.150
 9172POPC   C1A74151  41.520  12.114   6.450
 9172POPC   D2A74152  41.551  12.111   6.750
 9172POPC   C3A74153  41.570  12.057   7.050
 9172POPC   C4A74154  41.558  12.064   7.350
 9172POPC   C1B74155  41.778  12.001   6.450
 9172POPC   C2B74156  41.766  11.977   6.750
 9172POPC   C3B74157  41.828  12.027   7.050
 9172POPC   C4B74158  41.792  12.006   7.350
 9173POPC   NC374159  44.682   8.960   5.550
 9173POPC   PO474160  44.680   8.972   5.850
 9173POPC   GL174161  44.667   9.007   6.150
 9173POPC   GL274162  44.728   8.991   6.150
 9173POPC   C1A74163  44.628   8.988   6.450
 9173POPC   D2A74164  44.614   8.972   6.750
 9173POPC   C3A74165  44.623   8.941   7.050
 9173POPC   C4A74166  44.705   8.953   7.350
 9173POPC   C1B74167  44.910   9.056   6.450
 9173POPC   C2B74168  44.900   9.047   6.750
 9173POPC   C3B74169  44.833   9.057   7.050
 9173POPC   C4B74170  44.903   9.138   7.350
 9174POPC   NC374171  43.146  17.514   5.550
 9174POPC   PO474172  43.113  17.509   5.850
 9174POPC   GL174173  43.123  17.467   6.150
 9174POPC   GL274174  43.152  17.357   6.150
 9174POPC   C1A74175  43.129  17.551   6.450
 9174POPC   D2A74176  43.080  17.461   6.750
 9174POPC   C3A74177  43.139  17.472   7.050
 9174POPC   C4A74178  43.074  17.512   7.350
 9174POPC   C1B74179  43.225  17.247   6.450
 9174POPC   C2B74180  43.192  17.309   6.750
 9174POPC   C3B74181  43.206  17.228   7.050
 9174POPC   C4B74182  43.196  17.231   7.350
 9175POPC   NC374183  12.805   7.386   5.550
 9175POPC   PO474184  12.891   7.447   5.850
 9175POPC   GL174185  12.883   7.414   6.150
 9175POPC   GL274186  12.877   7.573   6.150
 9175POPC   C1A74187  12.860   7.395   6.450
 9175POPC   D2A74188  12.849   7.371   6.750
 9175POPC   C3A74189  12.823   7.459   7.050
 9175POPC   C4A74190  12.851   7.451   7.350
 9175POPC   C1B74191  12.972   7.650   6.450
 9175POPC   C2B74192  12.955   7.638   6.750
 9175POPC   C3B74193  12.957   7.666   7.050
 9175POPC   C4B74194  12.893   7.689   7.350
 9176POPC   NC374195  22.953  25.261   5.550
 9176POPC   PO474196  22.986  25.285   5.850
 9176POPC   GL174197  22.941  25.223   6.150
 9176POPC   GL274198  22.999  25.334   6.150
 9176POPC   C1A74199  22.926  25.280   6.450
 9176POPC   D2A74200  22.962  25.221   6.750
 9176POPC   C3A74201  22.984  25.296   7.050
 9176POPC   C4A74202  22.925  25.309   7.350
 9176POPC   C1B74203  23.154  25.450   6.450
 9176POPC   C2B74204  23.082  25.494   6.750
 9176POPC   C3B74205  23.154  25.492   7.050
 9176POPC   C4B74206  23.125  25.436   7.350
 9177POPC   NC374207   5.864  33.780   5.550
 9177POPC   PO474208   5.886  33.763   5.850
 9177POPC   GL174209   5.897  33.798   6.150
 9177POPC   GL274210   5.948  33.905   6.150
 9177POPC   C1A74211   5.913  33.809   6.450
 9177POPC   D2A74212   5.847  33.828   6.750
 9177POPC   C3A74213   5.850  33.761   7.050
 9177POPC   C4A74214   5.918  33.764   7.350
 9177POPC   C1B74215   5.998  34.047   6.450
 9177POPC   C2B74216   6.012  33.981   6.750
 9177POPC   C3B74217   6.015  34.072   7.050
 9177POPC   C4B74218   5.966  34.023   7.350
 9178POPC   NC374219  22.961  23.754   5.550
 9178POPC   PO474220  22.912  23.748   5.850
 9178POPC   GL174221  22.985  23.705   6.150
 9178POPC   GL274222  22.773  23.690   6.150
 9178POPC   C1A74223  22.911  23.752   6.450
 9178POPC   D2A74224  22.930  23.701   6.750
 9178POPC   C3A74225  22.946  23.706   7.050
 9178POPC   C4A74226  22.942  23.708   7.350
 9178POPC   C1B74227  22.651  23.665   6.450
 9178POPC   C2B74228  22.694  23.711   6.750
 9178POPC   C3B74229  22.711  23.715   7.050
 9178POPC   C4B74230  22.673  23.671   7.350
 9179POPC   NC374231  33.052  12.076   5.550
 9179POPC   PO474232  33.018  12.085   5.850
 9179POPC   GL174233  33.016  12.114   6.150
 9179POPC   GL274234  32.890  12.156   6.150
 9179POPC   C1A74235  32.989  12.085   6.450
 9179POPC   D2A74236  33.071  12.058   6.750
 9179POPC   C3A74237  33.002  12.079   7.050
 9179POPC   C4A74238  33.033  12.048   7.350
 9179POPC   C1B74239  32.789  12.164   6.450
 9179POPC   C2B74240  32.817  12.097   6.750
 9179POPC   C3B74241  32.796  12.148   7.050
 9179POPC   C4B74242  32.741  12.113   7.350
 9180POPC   NC374243  43.918  32.992   5.550
 9180POPC   PO474244  43.869  33.043   5.850
 9180POPC   GL174245  43.874  33.017   6.150
 9180POPC   GL274246  43.934  32.916   6.150
 9180POPC   C1A74247  43.840  32.998   6.450
 9180POPC   D2A74248  43.839  33.007   6.750
 9180POPC   C3A74249  43.926  33.023   7.050
 9180POPC   C4A74250  43.856  33.071   7.350
 9180POPC   C1B74251  43.970  32.756   6.450
 9180POPC   C2B74252  44.041  32.787   6.750
 9180POPC   C3B74253  43.993  32.760   7.050
 9180POPC   C4B74254  43.960  32.851   7.350
 9181POPC   NC374255  37.687  37.679   5.550
 9181POPC   PO474256  37.713  37.711   5.850
 9181POPC   GL174257  37.682  37.657   6.150
 9181POPC   GL274258  37.745  37.762   6.150
 9181POPC   C1A74259  37.642  37.640   6.450
 9181POPC   D2A74260  37.645  37.644   6.750
 9181POPC   C3A74261  37.691  37.691   7.050
 9181POPC   C4A74262  37.635  37.659   7.350
 9181POPC   C1B74263  37.724  37.916   6.450
 9181POPC   C2B74264  37.790  37.943   6.750
 9181POPC   C3B74265  37.741  37.933   7.050
 9181POPC   C4B74266  37.792  37.967   7.350
 9182POPC   NC374267  41.553  44.655   5.550
 9182POPC   PO474268  41.563  44.692   5.850
 9182POPC   GL174269  41.540  44.691   6.150
 9182POPC   GL274270  41.684  44.547   6.150
 9182POPC   C1A74271  41.572  44.639   6.450
 9182POPC   D2A74272  41.598  44.710   6.750
 9182POPC   C3A74273  41.548  44.707   7.050
 9182POPC   C4A74274  41.538  44.680   7.350
 9182POPC   C1B74275  41.774  44.547   6.450
 9182POPC   C2B74276  41.720  44.482   6.750
 9182POPC   C3B74277  41.786  44.487   7.050
 9182POPC   C4B74278  41.743  44.485   7.350
 9183POPC   NC374279  42.351   3.588   5.550
 9183POPC   PO474280  42.323   3.585   5.850
 9183POPC   GL174281  42.320   3.575   6.150
 9183POPC   GL274282  42.430   3.507   6.150
 9183POPC   C1A74283  42.377   3.572   6.450
 9183POPC   D2A74284  42.384   3.514   6.750
 9183POPC   C3A74285  42.326   3.539   7.050
 9183POPC   C4A74286  42.309   3.570   7.350
 9183POPC   C1B74287  42.561   3.381   6.450
 9183POPC   C2B74288  42.549   3.350   6.750
 9183POPC   C3B74289  42.501   3.390   7.050
 9183POPC   C4B74290  42.580   3.416   7.350
 9184POPC   NC374291  43.935   8.233   5.550
 9184POPC   PO474292  43.893   8.236   5.850
 9184POPC   GL174293  43.902   8.208   6.150
 9184POPC   GL274294  43.968   8.188   6.150
 9184POPC   C1A74295  43.923   8.199   6.450
 9184POPC   D2A74296  43.876   8.161   6.750
 9184POPC   C3A74297  43.928   8.229   7.050
 9184POPC   C4A74298  43.848   8.234   7.350
 9184POPC   C1B74299  44.105   8.238   6.450
 9184POPC   C2B74300  44.105   8.200   6.750
 9184POPC   C3B74301  44.186   8.156   7.050
 9184POPC   C4B74302  44.155   8.167   7.350
 9185POPC   NC374303   7.412   9.786   5.550
 9185POPC   PO474304   7.457   9.782   5.850
 9185POPC   GL174305   7.437   9.778   6.150
 9185POPC   GL274306   7.448   9.582   6.150
 9185POPC   C1A74307   7.467   9.723   6.450
 9185POPC   D2A74308   7.460   9.789   6.750
 9185POPC   C3A74309   7.435   9.723   7.050
 9185POPC   C4A74310   7.463   9.765   7.350
 9185POPC   C1B74311   7.439   9.546   6.450
 9185POPC   C2B74312   7.410   9.524   6.750
 9185POPC   C3B74313   7.457   9.456   7.050
 9185POPC   C4B74314   7.434   9.481   7.350
 9186POPC   NC374315  17.475  10.520   5.550
 9186POPC   PO474316  17.496  10.478   5.850
 9186POPC   GL174317  17.515  10.518   6.150
 9186POPC   GL274318  17.468  10.563   6.150
 9186POPC   C1A74319  17.482  10.512   6.450
 9186POPC   D2A74320  17.523  10.549   6.750
 9186POPC   C3A74321  17.522  10.513   7.050
 9186POPC   C4A74322  17.551  10.507   7.350
 9186POPC   C1B74323  17.361  10.749   6.450
 9186POPC   C2B74324  17.301  10.709   6.750
 9186POPC   C3B74325  17.291  10.738   7.050
 9186POPC   C4B74326  17.293  10.697   7.350
 9187POPC   NC374327   0.422   7.459   5.550
 9187POPC   PO474328   0.447   7.467   5.850
 9187POPC   GL174329   0.480   7.424   6.150
 9187POPC   GL274330   0.454   7.539   6.150
 9187POPC   C1A74331   0.419   7.422   6.450
 9187POPC   D2A74332   0.487   7.401   6.750
 9187POPC   C3A74333   0.467   7.392   7.050
 9187POPC   C4A74334   0.462   7.436   7.350
 9187POPC   C1B74335   0.531   7.686   6.450
 9187POPC   C2B74336   0.512   7.608   6.750
 9187POPC   C3B74337   0.569   7.644   7.050
 9187POPC   C4B74338   0.547   7.695   7.350
 9188POPC   NC374339  33.839  25.314   5.550
 9188POPC   PO474340  33.769  25.285   5.850
 9188POPC   GL174341  33.812  25.290   6.150
 9188POPC   GL274342  33.922  25.295   6.150
 9188POPC   C1A74343  33.752  25.299   6.450
 9188POPC   D2A74344  33.839  25.221   6.750
 9188POPC   C3A74345  33.837  25.260   7.050
 9188POPC   C4A74346  33.790  25.224   7.350
 9188POPC   C1B74347  34.082  25.267   6.450
 9188POPC   C2B74348  34.064  25.345   6.750
 9188POPC   C3B74349  34.045  25.311   7.050
 9188POPC   C4B74350  34.070  25.310   7.350
 9189POPC   NC374351  38.431  11.296   5.550
 9189POPC   PO474352  38.446  11.347   5.850
 9189POPC   GL174353  38.477  11.323   6.150
 9189POPC   GL274354  38.576  11.343   6.150
 9189POPC   C1A74355  38.466  11.347   6.450
 9189POPC   D2A74356  38.408  11.298   6.750
 9189POPC   C3A74357  38.446  11.321   7.050
 9189POPC   C4A74358  38.502  11.314   7.350
 9189POPC   C1B74359  38.661  11.347   6.450
 9189POPC   C2B74360  38.726  11.293   6.750
 9189POPC   C3B74361  38.656  11.336   7.050
 9189POPC   C4B74362  38.662  11.292   7.350
 9190POPC   NC374363   2.730  43.858   5.550
 9190POPC   PO474364   2.811  43.859   5.850
 9190POPC   GL174365   2.779  43.935   6.150
 9190POPC   GL274366   2.707  43.797   6.150
 9190POPC   C1A74367   2.793  43.875   6.450
 9190POPC   D2A74368   2.812  43.854   6.750
 9190POPC   C3A74369   2.788  43.843   7.050
 9190POPC   C4A74370   2.728  43.861   7.350
 9190POPC   C1B74371   2.543  43.724   6.450
 9190POPC   C2B74372   2.580  43.721   6.750
 9190POPC   C3B74373   2.564  43.741   7.050
 9190POPC   C4B74374   2.528  43.795   7.350
 9191POPC   NC374375  16.713  28.408   5.550
 9191POPC   PO474376  16.761  28.376   5.850
 9191POPC   GL174377  16.707  28.352   6.150
 9191POPC   GL274378  16.801  28.316   6.150
 9191POPC   C1A74379  16.695  28.383   6.450
 9191POPC   D2A74380  16.696  28.388   6.750
 9191POPC   C3A74381  16.688  28.339   7.050
 9191POPC   C4A74382  16.734  28.370   7.350
 9191POPC   C1B74383  16.969  28.289   6.450
 9191POPC   C2B74384  16.952  28.287   6.750
 9191POPC   C3B74385  16.986  28.277   7.050
 9191POPC   C4B74386  17.014  28.288   7.350
 9192POPC   NC374387   4.340  27.639   5.550
 9192POPC   PO474388   4.276  27.620   5.850
 9192POPC   GL174389   4.273  27.590   6.150
 9192POPC   GL274390   4.440  27.623   6.150
 9192POPC   C1A74391   4.355  27.630   6.450
 9192POPC   D2A74392   4.304  27.637   6.750
 9192POPC   C3A74393   4.351  27.578   7.050
 9192POPC   C4A74394   4.331  27.579   7.350
 9192POPC   C1B74395   4.537  27.756   6.450
 9192POPC   C2B74396   4.492  27.720   6.750
 9192POPC   C3B74397   4.553  27.703   7.050
 9192POPC   C4B74398   4.481  27.741   7.350
 9193POPC   NC374399  25.274  21.413   5.550
 9193POPC   PO474400  25.216  21.345   5.850
 9193POPC   GL174401  25.231  21.434   6.150
 9193POPC   GL274402  25.149  21.288   6.150
 9193POPC   C1A74403  25.233  21.378   6.450
 9193POPC   D2A74404  25.306  21.340   6.750
 9193POPC   C3A74405  25.218  21.426   7.050
 9193POPC   C4A74406  25.289  21.409   7.350
 9193POPC   C1B74407  25.063  21.285   6.450
 9193POPC   C2B74408  25.004  21.256   6.750
 9193POPC   C3B74409  25.060  21.222   7.050
 9193POPC   C4B74410  25.080  21.216   7.350
 9194POPC   NC374411  27.615  14.385   5.550
 9194POPC   PO474412  27.614  14.443   5.850
 9194POPC   GL174413  27.562  14.360   6.150
 9194POPC   GL274414  27.515  14.312   6.150
 9194POPC   C1A74415  27.600  14.381   6.450
 9194POPC   D2A74416  27.586  14.449   6.750
 9194POPC   C3A74417  27.597  14.376   7.050
 9194POPC   C4A74418  27.587  14.386   7.350
 9194POPC   C1B74419  27.456  14.167   6.450
 9194POPC   C2B74420  27.482  14.165   6.750
 9194POPC   C3B74421  27.480  14.211   7.050
 9194POPC   C4B74422  27.408  14.158   7.350
 9195POPC   NC374423  38.443  30.698   5.550
 9195POPC   PO474424  38.437  30.684   5.850
 9195POPC   GL174425  38.499  30.650   6.150
 9195POPC   GL274426  38.368  30.648   6.150
 9195POPC   C1A74427  38.455  30.726   6.450
 9195POPC   D2A74428  38.443  30.740   6.750
 9195POPC   C3A74429  38.419  30.715   7.050
 9195POPC   C4A74430  38.452  30.671   7.350
 9195POPC   C1B74431  38.269  30.548   6.450
 9195POPC   C2B74432  38.240  30.613   6.750
 9195POPC   C3B74433  38.196  30.600   7.050
 9195POPC   C4B74434  38.247  30.617   7.350
 9196POPC   NC374435  36.163  10.536   5.550
 9196POPC   PO474436  36.078  10.510   5.850
 9196POPC   GL174437  36.119  10.572   6.150
 9196POPC   GL274438  36.138  10.393   6.150
 9196POPC   C1A74439  36.094  10.555   6.450
 9196POPC   D2A74440  36.159  10.520   6.750
 9196POPC   C3A74441  36.170  10.536   7.050
 9196POPC   C4A74442  36.149  10.567   7.350
 9196POPC   C1B74443  36.199  10.261   6.450
 9196POPC   C2B74444  36.185  10.254   6.750
 9196POPC   C3B74445  36.179  10.252   7.050
 9196POPC   C4B74446  36.152  10.270   7.350
 9197POPC   NC374447  11.318  41.547   5.550
 9197POPC   PO474448  11.310  41.530   5.850
 9197POPC   GL174449  11.264  41.516   6.150
 9197POPC   GL274450  11.146  41.568   6.150
 9197POPC   C1A74451  11.317  41.592   6.450
 9197POPC   D2A74452  11.275  41.526   6.750
 9197POPC   C3A74453  11.274  41.520   7.050
 9197POPC   C4A74454  11.342  41.604   7.350
 9197POPC   C1B74455  11.056  41.598   6.450
 9197POPC   C2B74456  11.024  41.627   6.750
 9197POPC   C3B74457  11.024  41.604   7.050
 9197POPC   C4B74458  11.054  41.590   7.350
 9198POPC   NC374459  43.868  32.237   5.550
 9198POPC   PO474460  43.901  32.294   5.850
 9198POPC   GL174461  43.913  32.217   6.150
 9198POPC   GL274462  44.023  32.282   6.150
 9198POPC   C1A74463  43.916  32.267   6.450
 9198POPC   D2A74464  43.930  32.274   6.750
 9198POPC   C3A74465  43.921  32.254   7.050
 9198POPC   C4A74466  43.909  32.248   7.350
 9198POPC   C1B74467  44.068  32.362   6.450
 9198POPC   C2B74468  44.120  32.407   6.750
 9198POPC   C3B74469  44.087  32.407   7.050
 9198POPC   C4B74470  44.080  32.358   7.350
 9199POPC   NC374471  16.684   7.422   5.550
 9199POPC   PO474472  16.766   7.442   5.850
 9199POPC   GL174473  16.697   7.390   6.150
 9199POPC   GL274474  16.789   7.335   6.150
 9199POPC   C1A74475  16.780   7.415   6.450
 9199POPC   D2A74476  16.753   7.464   6.750
 9199POPC   C3A74477  16.780   7.407   7.050
 9199POPC   C4A74478  16.698   7.390   7.350
 9199POPC   C1B74479  16.891   7.232   6.450
 9199POPC   C2B74480  16.809   7.239   6.750
 9199POPC   C3B74481  16.837   7.241   7.050
 9199POPC   C4B74482  16.829   7.215   7.350
 9200POPC   NC374483  34.548   8.976   5.550
 9200POPC   PO474484  34.594   8.972   5.850
 9200POPC   GL174485  34.569   8.969   6.150
 9200POPC   GL274486  34.446   9.036   6.150
 9200POPC   C1A74487  34.563   9.008   6.450
 9200POPC   D2A74488  34.587   9.017   6.750
 9200POPC   C3A74489  34.599   8.924   7.050
 9200POPC   C4A74490  34.605   8.972   7.350
 9200POPC   C1B74491  34.339   9.027   6.450
 9200POPC   C2B74492  34.374   9.006   6.750
 9200POPC   C3B74493  34.342   9.072   7.050
 9200POPC   C4B74494  34.362   9.067   7.350
 9201POPC   NC374495  44.678  44.685   5.550
 9201POPC   PO474496  44.628  44.617   5.850
 9201POPC   GL174497  44.696  44.666   6.150
 9201POPC   GL274498  44.641  44.823   6.150
 9201POPC   C1A74499  44.685  44.659   6.450
 9201POPC   D2A74500  44.619  44.616   6.750
 9201POPC   C3A74501  44.674  44.658   7.050
 9201POPC   C4A74502  44.689  44.649   7.350
 9201POPC   C1B74503  44.748  44.909   6.450
 9201POPC   C2B74504  44.763  44.863   6.750
 9201POPC   C3B74505  44.724  44.928   7.050
 9201POPC   C4B74506  44.696  44.913   7.350
 9202POPC   NC374507  36.867   8.987   5.550
 9202POPC   PO474508  36.946   8.986   5.850
 9202POPC   GL174509  36.901   8.939   6.150
 9202POPC   GL274510  36.754   8.965   6.150
 9202POPC   C1A74511  36.943   8.968   6.450
 9202POPC   D2A74512  36.857   9.005   6.750
 9202POPC   C3A74513  36.909   8.990   7.050
 9202POPC   C4A74514  36.901   8.991   7.350
 9202POPC   C1B74515  36.687   9.018   6.450
 9202POPC   C2B74516  36.644   8.999   6.750
 9202POPC   C3B74517  36.656   8.987   7.050
 9202POPC   C4B74518  36.610   9.040   7.350
 9203POPC   NC374519  43.154  41.533   5.550
 9203POPC   PO474520  43.115  41.570   5.850
 9203POPC   GL174521  43.145  41.536   6.150
 9203POPC   GL274522  43.202  41.570   6.150
 9203POPC   C1A74523  43.143  41.543   6.450
 9203POPC   D2A74524  43.126  41.543   6.750
 9203POPC   C3A74525  43.062  41.559   7.050
 9203POPC   C4A74526  43.090  41.535   7.350
 9203POPC   C1B74527  43.350  41.584   6.450
 9203POPC   C2B74528  43.404  41.527   6.750
 9203POPC   C3B74529  43.341  41.600   7.050
 9203POPC   C4B74530  43.395  41.582   7.350
 9204POPC   NC374531  10.526  15.210   5.550
 9204POPC   PO474532  10.512  15.205   5.850
 9204POPC   GL174533  10.486  15.220   6.150
 9204POPC   GL274534  10.644  15.235   6.150
 9204POPC   C1A74535  10.547  15.189   6.450
 9204POPC   D2A74536  10.515  15.146   6.750
 9204POPC   C3A74537  10.478  15.199   7.050
 9204POPC   C4A74538  10.562  15.198   7.350
 9204POPC   C1B74539  10.689  15.368   6.450
 9204POPC   C2B74540  10.713  15.323   6.750
 9204POPC   C3B74541  10.723  15.319   7.050
 9204POPC   C4B74542  10.722  15.361   7.350
 9205POPC   NC374543  33.756   9.017   5.550
 9205POPC   PO474544  33.838   8.993   5.850
 9205POPC   GL174545  33.753   8.961   6.150
 9205POPC   GL274546  33.705   9.078   6.150
 9205POPC   C1A74547  33.797   9.013   6.450
 9205POPC   D2A74548  33.783   8.958   6.750
 9205POPC   C3A74549  33.765   8.932   7.050
 9205POPC   C4A74550  33.821   8.984   7.350
 9205POPC   C1B74551  33.634   9.194   6.450
 9205POPC   C2B74552  33.594   9.115   6.750
 9205POPC   C3B74553  33.596   9.155   7.050
 9205POPC   C4B74554  33.583   9.145   7.350
 9206POPC   NC374555  28.407  22.192   5.550
 9206POPC   PO474556  28.412  22.143   5.850
 9206POPC   GL174557  28.328  22.128   6.150
 9206POPC   GL274558  28.401  22.085   6.150
 9206POPC   C1A74559  28.339  22.139   6.450
 9206POPC   D2A74560  28.403  22.135   6.750
 9206POPC   C3A74561  28.366  22.119   7.050
 9206POPC   C4A74562  28.330  22.134   7.350
 9206POPC   C1B74563  28.336  21.892   6.450
 9206POPC   C2B74564  28.368  21.933   6.750
 9206POPC   C3B74565  28.392  21.886   7.050
 9206POPC   C4B74566  28.386  21.865   7.350
 9207POPC   NC374567  21.353   1.167   5.550
 9207POPC   PO474568  21.395   1.215   5.850
 9207POPC   GL174569  21.433   1.227   6.150
 9207POPC   GL274570  21.526   1.261   6.150
 9207POPC   C1A74571  21.377   1.167   6.450
 9207POPC   D2A74572  21.401   1.205   6.750
 9207POPC   C3A74573  21.384   1.201   7.050
 9207POPC   C4A74574  21.428   1.204   7.350
 9207POPC   C1B74575  21.600   1.291   6.450
 9207POPC   C2B74576  21.603   1.318   6.750
 9207POPC   C3B74577  21.570   1.296   7.050
 9207POPC   C4B74578  21.603   1.292   7.350
 9208POPC   NC374579   1.988  27.604   5.550
 9208POPC   PO474580   1.993  27.588   5.850
 9208POPC   GL174581   2.028  27.571   6.150
 9208POPC   GL274582   2.075  27.566   6.150
 9208POPC   C1A74583   1.941  27.616   6.450
 9208POPC   D2A74584   1.984  27.636   6.750
 9208POPC   C3A74585   2.019  27.575   7.050
 9208POPC   C4A74586   1.960  27.602   7.350
 9208POPC   C1B74587   2.188  27.471   6.450
 9208POPC   C2B74588   2.236  27.472   6.750
 9208POPC   C3B74589   2.215  27.479   7.050
 9208POPC   C4B74590   2.164  27.479   7.350
 9209POPC   NC374591  37.663  16.741   5.550
 9209POPC   PO474592  37.689  16.749   5.850
 9209POPC   GL174593  37.636  16.777   6.150
 9209POPC   GL274594  37.599  16.800   6.150
 9209POPC   C1A74595  37.651  16.724   6.450
 9209POPC   D2A74596  37.667  16.779   6.750
 9209POPC   C3A74597  37.655  16.718   7.050
 9209POPC   C4A74598  37.632  16.703   7.350
 9209POPC   C1B74599  37.429  16.829   6.450
 9209POPC   C2B74600  37.481  16.846   6.750
 9209POPC   C3B74601  37.482  16.811   7.050
 9209POPC   C4B74602  37.453  16.775   7.350
 9210POPC   NC374603  26.806  22.901   5.550
 9210POPC   PO474604  26.818  22.893   5.850
 9210POPC   GL174605  26.849  22.928   6.150
 9210POPC   GL274606  26.927  22.874   6.150
 9210POPC   C1A74607  26.810  22.891   6.450
 9210POPC   D2A74608  26.834  22.968   6.750
 9210POPC   C3A74609  26.821  22.948   7.050
 9210POPC   C4A74610  26.827  22.906   7.350
 9210POPC   C1B74611  27.002  22.791   6.450
 9210POPC   C2B74612  27.004  22.805   6.750
 9210POPC   C3B74613  27.060  22.826   7.050
 9210POPC   C4B74614  27.054  22.825   7.350
 9211POPC   NC374615  38.407  36.173   5.550
 9211POPC   PO474616  38.476  36.176   5.850
 9211POPC   GL174617  38.476  36.141   6.150
 9211POPC   GL274618  38.597  36.231   6.150
 9211POPC   C1A74619  38.420  36.118   6.450
 9211POPC   D2A74620  38.457  36.172   6.750
 9211POPC   C3A74621  38.489  36.099   7.050
 9211POPC   C4A74622  38.454  36.155   7.350
 9211POPC   C1B74623  38.664  36.340   6.450
 9211POPC   C2B74624  38.613  36.309   6.750
 9211POPC   C3B74625  38.610  36.333   7.050
 9211POPC   C4B74626  38.671  36.266   7.350
 9212POPC   NC374627  40.050   3.539   5.550
 9212POPC   PO474628  40.001   3.590   5.850
 9212POPC   GL174629  40.023   3.586   6.150
 9212POPC   GL274630  39.900   3.489   6.150
 9212POPC   C1A74631  40.022   3.562   6.450
 9212POPC   D2A74632  40.008   3.500   6.750
 9212POPC   C3A74633  39.978   3.575   7.050
 9212POPC   C4A74634  40.024   3.543   7.350
 9212POPC   C1B74635  39.772   3.447   6.450
 9212POPC   C2B74636  39.762   3.471   6.750
 9212POPC   C3B74637  39.752   3.429   7.050
 9212POPC   C4B74638  39.740   3.487   7.350
 9213POPC   NC374639  29.906  39.982   5.550
 9213POPC   PO474640  29.970  39.977   5.850
 9213POPC   GL174641  29.918  40.023   6.150
 9213POPC   GL274642  30.014  39.883   6.150
 9213POPC   C1A74643  29.933  40.037   6.450
 9213POPC   D2A74644  29.893  40.015   6.750
 9213POPC   C3A74645  29.902  40.027   7.050
 9213POPC   C4A74646  29.886  40.003   7.350
 9213POPC   C1B74647  30.002  39.827   6.450
 9213POPC   C2B74648  30.006  39.755   6.750
 9213POPC   C3B74649  30.063  39.784   7.050
 9213POPC   C4B74650  30.093  39.809   7.350
 9214POPC   NC374651  38.445  22.950   5.550
 9214POPC   PO474652  38.408  22.964   5.850
 9214POPC   GL174653  38.425  22.917   6.150
 9214POPC   GL274654  38.371  22.870   6.150
 9214POPC   C1A74655  38.469  22.936   6.450
 9214POPC   D2A74656  38.455  22.922   6.750
 9214POPC   C3A74657  38.409  22.964   7.050
 9214POPC   C4A74658  38.462  22.938   7.350
 9214POPC   C1B74659  38.390  22.709   6.450
 9214POPC   C2B74660  38.313  22.725   6.750
 9214POPC   C3B74661  38.304  22.711   7.050
 9214POPC   C4B74662  38.308  22.760   7.350
 9215POPC   NC374663  42.315  21.355   5.550
 9215POPC   PO474664  42.292  21.415   5.850
 9215POPC   GL174665  42.311  21.339   6.150
 9215POPC   GL274666  42.332  21.238   6.150
 9215POPC   C1A74667  42.328  21.362   6.450
 9215POPC   D2A74668  42.367  21.361   6.750
 9215POPC   C3A74669  42.329  21.353   7.050
 9215POPC   C4A74670  42.313  21.352   7.350
 9215POPC   C1B74671  42.327  21.140   6.450
 9215POPC   C2B74672  42.290  21.120   6.750
 9215POPC   C3B74673  42.249  21.163   7.050
 9215POPC   C4B74674  42.278  21.130   7.350
 9216POPC   NC374675   6.599  11.338   5.550
 9216POPC   PO474676   6.648  11.300   5.850
 9216POPC   GL174677   6.659  11.324   6.150
 9216POPC   GL274678   6.538  11.276   6.150
 9216POPC   C1A74679   6.692  11.293   6.450
 9216POPC   D2A74680   6.606  11.288   6.750
 9216POPC   C3A74681   6.605  11.275   7.050
 9216POPC   C4A74682   6.647  11.302   7.350
 9216POPC   C1B74683   6.379  11.170   6.450
 9216POPC   C2B74684   6.402  11.246   6.750
 9216POPC   C3B74685   6.420  11.244   7.050
 9216POPC   C4B74686   6.406  11.212   7.350
 9217POPC   NC374687  40.745  19.834   5.550
 9217POPC   PO474688  40.820  19.820   5.850
 9217POPC   GL174689  40.743  19.875   6.150
 9217POPC   GL274690  40.792  19.740   6.150
 9217POPC   C1A74691  40.777  19.862   6.450
 9217POPC   D2A74692  40.791  19.802   6.750
 9217POPC   C3A74693  40.818  19.877   7.050
 9217POPC   C4A74694  40.826  19.816   7.350
 9217POPC   C1B74695  40.862  19.618   6.450
 9217POPC   C2B74696  40.850  19.590   6.750
 9217POPC   C3B74697  40.840  19.559   7.050
 9217POPC   C4B74698  40.854  19.613   7.350
 9218POPC   NC374699  40.781   1.261   5.550
 9218POPC   PO474700  40.803   1.215   5.850
 9218POPC   GL174701  40.745   1.234   6.150
 9218POPC   GL274702  40.706   1.244   6.150
 9218POPC   C1A74703  40.759   1.183   6.450
 9218POPC   D2A74704  40.822   1.181   6.750
 9218POPC   C3A74705  40.789   1.168   7.050
 9218POPC   C4A74706  40.797   1.220   7.350
 9218POPC   C1B74707  40.548   1.332   6.450
 9218POPC   C2B74708  40.580   1.299   6.750
 9218POPC   C3B74709  40.508   1.302   7.050
 9218POPC   C4B74710  40.551   1.334   7.350
 9219POPC   NC374711  39.234  36.143   5.550
 9219POPC   PO474712  39.182  36.137   5.850
 9219POPC   GL174713  39.184  36.131   6.150
 9219POPC   GL274714  39.292  36.210   6.150
 9219POPC   C1A74715  39.211  36.148   6.450
 9219POPC   D2A74716  39.205  36.125   6.750
 9219POPC   C3A74717  39.251  36.150   7.050
 9219POPC   C4A74718  39.273  36.134   7.350
 9219POPC   C1B74719  39.290  36.379   6.450
 9219POPC   C2B74720  39.244  36.419   6.750
 9219POPC   C3B74721  39.338  36.341   7.050
 9219POPC   C4B74722  39.253  36.341   7.350
 9220POPC   NC374723  22.138  12.062   5.550
 9220POPC   PO474724  22.117  12.113   5.850
 9220POPC   GL174725  22.117  12.027   6.150
 9220POPC   GL274726  22.164  11.967   6.150
 9220POPC   C1A74727  22.198  12.112   6.450
 9220POPC   D2A74728  22.175  12.045   6.750
 9220POPC   C3A74729  22.179  12.124   7.050
 9220POPC   C4A74730  22.120  12.113   7.350
 9220POPC   C1B74731  22.161  11.805   6.450
 9220POPC   C2B74732  22.184  11.867   6.750
 9220POPC   C3B74733  22.128  11.858   7.050
 9220POPC   C4B74734  22.147  11.851   7.350
 9221POPC   NC374735  31.508  29.879   5.550
 9221POPC   PO474736  31.505  29.940   5.850
 9221POPC   GL174737  31.514  29.953   6.150
 9221POPC   GL274738  31.426  29.798   6.150
 9221POPC   C1A74739  31.488  29.884   6.450
 9221POPC   D2A74740  31.432  29.889   6.750
 9221POPC   C3A74741  31.435  29.909   7.050
 9221POPC   C4A74742  31.519  29.919   7.350
 9221POPC   C1B74743  31.502  29.663   6.450
 9221POPC   C2B74744  31.455  29.694   6.750
 9221POPC   C3B74745  31.504  29.631   7.050
 9221POPC   C4B74746  31.416  29.701   7.350
 9222POPC   NC374747  12.103  28.350   5.550
 9222POPC   PO474748  12.097  28.412   5.850
 9222POPC   GL174749  12.122  28.406   6.150
 9222POPC   GL274750  12.027  28.451   6.150
 9222POPC   C1A74751  12.074  28.412   6.450
 9222POPC   D2A74752  12.110  28.355   6.750
 9222POPC   C3A74753  12.113  28.394   7.050
 9222POPC   C4A74754  12.093  28.352   7.350
 9222POPC   C1B74755  11.920  28.591   6.450
 9222POPC   C2B74756  11.920  28.519   6.750
 9222POPC   C3B74757  11.876  28.552   7.050
 9222POPC   C4B74758  11.923  28.577   7.350
 9223POPC   NC374759  16.743  18.306   5.550
 9223POPC   PO474760  16.693  18.258   5.850
 9223POPC   GL174761  16.780  18.242   6.150
 9223POPC   GL274762  16.795  18.148   6.150
 9223POPC   C1A74763  16.735  18.296   6.450
 9223POPC   D2A74764  16.705  18.243   6.750
 9223POPC   C3A74765  16.756  18.313   7.050
 9223POPC   C4A74766  16.746  18.307   7.350
 9223POPC   C1B74767  16.858  18.096   6.450
 9223POPC   C2B74768  16.863  18.057   6.750
 9223POPC   C3B74769  16.943  18.117   7.050
 9223POPC   C4B74770  16.945  18.123   7.350
 9224POPC   NC374771  19.862  18.331   5.550
 9224POPC   PO474772  19.831  18.283   5.850
 9224POPC   GL174773  19.838  18.324   6.150
 9224POPC   GL274774  19.921  18.156   6.150
 9224POPC   C1A74775  19.865  18.326   6.450
 9224POPC   D2A74776  19.811  18.254   6.750
 9224POPC   C3A74777  19.865  18.238   7.050
 9224POPC   C4A74778  19.836  18.288   7.350
 9224POPC   C1B74779  19.911  18.041   6.450
 9224POPC   C2B74780  19.976  18.090   6.750
 9224POPC   C3B74781  19.920  18.041   7.050
 9224POPC   C4B74782  19.983  18.101   7.350
 9225POPC   NC374783  18.239   8.222   5.550
 9225POPC   PO474784  18.235   8.242   5.850
 9225POPC   GL174785  18.297   8.149   6.150
 9225POPC   GL274786  18.159   8.242   6.150
 9225POPC   C1A74787  18.234   8.243   6.450
 9225POPC   D2A74788  18.298   8.157   6.750
 9225POPC   C3A74789  18.242   8.245   7.050
 9225POPC   C4A74790  18.251   8.239   7.350
 9225POPC   C1B74791  18.058   8.243   6.450
 9225POPC   C2B74792  18.062   8.298   6.750
 9225POPC   C3B74793  18.041   8.238   7.050
 9225POPC   C4B74794  18.064   8.314   7.350
 9226POPC   NC374795   7.468   0.414   5.550
 9226POPC   PO474796   7.406   0.484   5.850
 9226POPC   GL174797   7.375   0.432   6.150
 9226POPC   GL274798   7.405   0.530   6.150
 9226POPC   C1A74799   7.389   0.438   6.450
 9226POPC   D2A74800   7.416   0.483   6.750
 9226POPC   C3A74801   7.441   0.479   7.050
 9226POPC   C4A74802   7.469   0.399   7.350
 9226POPC   C1B74803   7.298   0.658   6.450
 9226POPC   C2B74804   7.276   0.633   6.750
 9226POPC   C3B74805   7.272   0.607   7.050
 9226POPC   C4B74806   7.318   0.652   7.350
 9227POPC   NC374807   1.261  41.548   5.550
 9227POPC   PO474808   1.183  41.524   5.850
 9227POPC   GL174809   1.241  41.537   6.150
 9227POPC   GL274810   1.105  41.615   6.150
 9227POPC   C1A74811   1.214  41.577   6.450
 9227POPC   D2A74812   1.211  41.516   6.750
 9227POPC   C3A74813   1.164  41.521   7.050
 9227POPC   C4A74814   1.189  41.528   7.350
 9227POPC   C1B74815   1.087  41.751   6.450
 9227POPC   C2B74816   1.071  41.749   6.750
 9227POPC   C3B74817   1.094  41.731   7.050
 9227POPC   C4B74818   1.091  41.715   7.350
 9228POPC   NC374819  26.864  43.114   5.550
 9228POPC   PO474820  26.852  43.158   5.850
 9228POPC   GL174821  26.812  43.080   6.150
 9228POPC   GL274822  26.940  43.049   6.150
 9228POPC   C1A74823  26.831  43.075   6.450
 9228POPC   D2A74824  26.833  43.116   6.750
 9228POPC   C3A74825  26.840  43.120   7.050
 9228POPC   C4A74826  26.863  43.148   7.350
 9228POPC   C1B74827  26.930  42.894   6.450
 9228POPC   C2B74828  26.960  42.892   6.750
 9228POPC   C3B74829  26.922  42.921   7.050
 9228POPC   C4B74830  26.920  42.922   7.350
 9229POPC   NC374831  35.361  37.651   5.550
 9229POPC   PO474832  35.336  37.642   5.850
 9229POPC   GL174833  35.315  37.686   6.150
 9229POPC   GL274834  35.474  37.667   6.150
 9229POPC   C1A74835  35.362  37.672   6.450
 9229POPC   D2A74836  35.397  37.726   6.750
 9229POPC   C3A74837  35.311  37.658   7.050
 9229POPC   C4A74838  35.363  37.719   7.350
 9229POPC   C1B74839  35.634  37.736   6.450
 9229POPC   C2B74840  35.607  37.661   6.750
 9229POPC   C3B74841  35.591  37.693   7.050
 9229POPC   C4B74842  35.638  37.750   7.350
 9230POPC   NC374843  31.486  33.044   5.550
 9230POPC   PO474844  31.513  32.996   5.850
 9230POPC   GL174845  31.433  33.038   6.150
 9230POPC   GL274846  31.435  32.911   6.150
 9230POPC   C1A74847  31.489  33.025   6.450
 9230POPC   D2A74848  31.459  33.042   6.750
 9230POPC   C3A74849  31.428  33.040   7.050
 9230POPC   C4A74850  31.442  33.010   7.350
 9230POPC   C1B74851  31.264  32.875   6.450
 9230POPC   C2B74852  31.291  32.793   6.750
 9230POPC   C3B74853  31.345  32.864   7.050
 9230POPC   C4B74854  31.322  32.796   7.350
 9231POPC   NC374855   4.273   4.301   5.550
 9231POPC   PO474856   4.320   4.315   5.850
 9231POPC   GL174857   4.331   4.309   6.150
 9231POPC   GL274858   4.378   4.461   6.150
 9231POPC   C1A74859   4.364   4.305   6.450
 9231POPC   D2A74860   4.273   4.359   6.750
 9231POPC   C3A74861   4.324   4.317   7.050
 9231POPC   C4A74862   4.286   4.277   7.350
 9231POPC   C1B74863   4.439   4.584   6.450
 9231POPC   C2B74864   4.456   4.579   6.750
 9231POPC   C3B74865   4.426   4.569   7.050
 9231POPC   C4B74866   4.400   4.542   7.350
 9232POPC   NC374867  30.711   2.036   5.550
 9232POPC   PO474868  30.648   1.981   5.850
 9232POPC   GL174869  30.744   1.973   6.150
 9232POPC   GL274870  30.771   1.893   6.150
 9232POPC   C1A74871  30.710   1.987   6.450
 9232POPC   D2A74872  30.713   1.984   6.750
 9232POPC   C3A74873  30.653   1.967   7.050
 9232POPC   C4A74874  30.672   1.958   7.350
 9232POPC   C1B74875  30.779   1.758   6.450
 9232POPC   C2B74876  30.731   1.708   6.750
 9232POPC   C3B74877  30.742   1.759   7.050
 9232POPC   C4B74878  30.784   1.734   7.350
 9233POPC   NC374879   2.800  22.116   5.550
 9233POPC   PO474880   2.758  22.183   5.850
 9233POPC   GL174881   2.798  22.209   6.150
 9233POPC   GL274882   2.609  22.186   6.150
 9233POPC   C1A74883   2.726  22.180   6.450
 9233POPC   D2A74884   2.802  22.146   6.750
 9233POPC   C3A74885   2.726  22.169   7.050
 9233POPC   C4A74886   2.781  22.120   7.350
 9233POPC   C1B74887   2.489  22.130   6.450
 9233POPC   C2B74888   2.492  22.157   6.750
 9233POPC   C3B74889   2.468  22.157   7.050
 9233POPC   C4B74890   2.561  22.162   7.350
 9234POPC   NC374891  43.848  37.631   5.550
 9234POPC   PO474892  43.853  37.703   5.850
 9234POPC   GL174893  43.872  37.696   6.150
 9234POPC   GL274894  43.764  37.741   6.150
 9234POPC   C1A74895  43.903  37.696   6.450
 9234POPC   D2A74896  43.920  37.696   6.750
 9234POPC   C3A74897  43.838  37.664   7.050
 9234POPC   C4A74898  43.871  37.663   7.350
 9234POPC   C1B74899  43.652  37.795   6.450
 9234POPC   C2B74900  43.646  37.782   6.750
 9234POPC   C3B74901  43.637  37.824   7.050
 9234POPC   C4B74902  43.665  37.844   7.350
 9235POPC   NC374903   7.391  23.675   5.550
 9235POPC   PO474904   7.446  23.698   5.850
 9235POPC   GL174905   7.411  23.696   6.150
 9235POPC   GL274906   7.396  23.787   6.150
 9235POPC   C1A74907   7.428  23.697   6.450
 9235POPC   D2A74908   7.381  23.754   6.750
 9235POPC   C3A74909   7.385  23.667   7.050
 9235POPC   C4A74910   7.436  23.753   7.350
 9235POPC   C1B74911   7.326  23.947   6.450
 9235POPC   C2B74912   7.327  23.961   6.750
 9235POPC   C3B74913   7.336  23.926   7.050
 9235POPC   C4B74914   7.297  23.955   7.350
 9236POPC   NC374915   4.361  22.931   5.550
 9236POPC   PO474916   4.299  22.942   5.850
 9236POPC   GL174917   4.282  22.893   6.150
 9236POPC   GL274918   4.189  22.990   6.150
 9236POPC   C1A74919   4.324  22.963   6.450
 9236POPC   D2A74920   4.332  22.968   6.750
 9236POPC   C3A74921   4.312  22.909   7.050
 9236POPC   C4A74922   4.297  22.955   7.350
 9236POPC   C1B74923   4.101  23.071   6.450
 9236POPC   C2B74924   4.062  23.059   6.750
 9236POPC   C3B74925   4.083  23.042   7.050
 9236POPC   C4B74926   4.061  23.024   7.350
 9237POPC   NC374927  11.261  34.581   5.550
 9237POPC   PO474928  11.290  34.552   5.850
 9237POPC   GL174929  11.281  34.539   6.150
 9237POPC   GL274930  11.169  34.496   6.150
 9237POPC   C1A74931  11.250  34.556   6.450
 9237POPC   D2A74932  11.274  34.582   6.750
 9237POPC   C3A74933  11.307  34.626   7.050
 9237POPC   C4A74934  11.273  34.526   7.350
 9237POPC   C1B74935  11.130  34.388   6.450
 9237POPC   C2B74936  11.139  34.446   6.750
 9237POPC   C3B74937  11.084  34.403   7.050
 9237POPC   C4B74938  11.085  34.386   7.350
 9238POPC   NC374939   8.240  10.484   5.550
 9238POPC   PO474940   8.177  10.556   5.850
 9238POPC   GL174941   8.188  10.524   6.150
 9238POPC   GL274942   8.054  10.415   6.150
 9238POPC   C1A74943   8.240  10.485   6.450
 9238POPC   D2A74944   8.221  10.504   6.750
 9238POPC   C3A74945   8.165  10.537   7.050
 9238POPC   C4A74946   8.222  10.547   7.350
 9238POPC   C1B74947   8.042  10.372   6.450
 9238POPC   C2B74948   8.027  10.355   6.750
 9238POPC   C3B74949   8.034  10.392   7.050
 9238POPC   C4B74950   7.971  10.405   7.350
 9239POPC   NC374951  22.961  19.810   5.550
 9239POPC   PO474952  22.978  19.867   5.850
 9239POPC   GL174953  22.924  19.829   6.150
 9239POPC   GL274954  23.025  19.775   6.150
 9239POPC   C1A74955  22.916  19.801   6.450
 9239POPC   D2A74956  22.935  19.843   6.750
 9239POPC   C3A74957  22.906  19.797   7.050
 9239POPC   C4A74958  22.898  19.796   7.350
 9239POPC   C1B74959  23.123  19.633   6.450
 9239POPC   C2B74960  23.067  19.665   6.750
 9239POPC   C3B74961  23.065  19.589   7.050
 9239POPC   C4B74962  23.031  19.617   7.350
 9240POPC   NC374963  36.149   8.165   5.550
 9240POPC   PO474964  36.166   8.160   5.850
 9240POPC   GL174965  36.106   8.200   6.150
 9240POPC   GL274966  36.053   8.111   6.150
 9240POPC   C1A74967  36.109   8.244   6.450
 9240POPC   D2A74968  36.148   8.167   6.750
 9240POPC   C3A74969  36.141   8.171   7.050
 9240POPC   C4A74970  36.161   8.158   7.350
 9240POPC   C1B74971  35.872   8.112   6.450
 9240POPC   C2B74972  35.877   8.100   6.750
 9240POPC   C3B74973  35.953   8.070   7.050
 9240POPC   C4B74974  35.952   8.050   7.350
 9241POPC   NC374975  39.958   7.427   5.550
 9241POPC   PO474976  39.980   7.392   5.850
 9241POPC   GL174977  40.052   7.424   6.150
 9241POPC   GL274978  40.001   7.515   6.150
 9241POPC   C1A74979  39.999   7.455   6.450
 9241POPC   D2A74980  40.020   7.371   6.750
 9241POPC   C3A74981  40.028   7.391   7.050
 9241POPC   C4A74982  40.038   7.437   7.350
 9241POPC   C1B74983  39.860   7.666   6.450
 9241POPC   C2B74984  39.942   7.599   6.750
 9241POPC   C3B74985  39.887   7.624   7.050
 9241POPC   C4B74986  39.873   7.685   7.350
 9242POPC   NC374987  39.992  36.168   5.550
 9242POPC   PO474988  40.013  36.122   5.850
 9242POPC   GL174989  39.977  36.163   6.150
 9242POPC   GL274990  40.167  36.194   6.150
 9242POPC   C1A74991  40.028  36.110   6.450
 9242POPC   D2A74992  39.988  36.127   6.750
 9242POPC   C3A74993  39.977  36.148   7.050
 9242POPC   C4A74994  39.974  36.156   7.350
 9242POPC   C1B74995  40.275  36.124   6.450
 9242POPC   C2B74996  40.227  36.153   6.750
 9242POPC   C3B74997  40.211  36.181   7.050
 9242POPC   C4B74998  40.288  36.198   7.350
 9243POPC   NC374999   4.300   1.221   5.550
 9243POPC   PO475000   4.312   1.219   5.850
 9243POPC   GL175001   4.271   1.213   6.150
 9243POPC   GL275002   4.286   1.382   6.150
 9243POPC   C1A75003   4.306   1.196   6.450
 9243POPC   D2A75004   4.303   1.183   6.750
 9243POPC   C3A75005   4.288   1.172   7.050
 9243POPC   C4A75006   4.295   1.238   7.350
 9243POPC   C1B75007   4.300   1.479   6.450
 9243POPC   C2B75008   4.338   1.493   6.750
 9243POPC   C3B75009   4.302   1.483   7.050
 9243POPC   C4B75010   4.312   1.510   7.350
 9244POPC   NC375011   8.232   5.850   5.550
 9244POPC   PO475012   8.158   5.840   5.850
 9244POPC   GL175013   8.245   5.900   6.150
 9244POPC   GL275014   8.199   6.024   6.150
 9244POPC   C1A75015   8.222   5.895   6.450
 9244POPC   D2A75016   8.212   5.890   6.750
 9244POPC   C3A75017   8.149   5.828   7.050
 9244POPC   C4A75018   8.155   5.912   7.350
 9244POPC   C1B75019   8.206   6.123   6.450
 9244POPC   C2B75020   8.177   6.118   6.750
 9244POPC   C3B75021   8.151   6.071   7.050
 9244POPC   C4B75022   8.237   6.072   7.350
 9245POPC   NC375023  43.122  40.760   5.550
 9245POPC   PO475024  43.112  40.763   5.850
 9245POPC   GL175025  43.123  40.758   6.150
 9245POPC   GL275026  43.022  40.669   6.150
 9245POPC   C1A75027  43.121  40.819   6.450
 9245POPC   D2A75028  43.118  40.741   6.750
 9245POPC   C3A75029  43.070  40.790   7.050
 9245POPC   C4A75030  43.110  40.767   7.350
 9245POPC   C1B75031  43.016  40.546   6.450
 9245POPC   C2B75032  43.010  40.625   6.750
 9245POPC   C3B75033  42.930  40.542   7.050
 9245POPC   C4B75034  42.937  40.609   7.350
 9246POPC   NC375035   5.098  15.171   5.550
 9246POPC   PO475036   5.107  15.197   5.850
 9246POPC   GL175037   5.125  15.196   6.150
 9246POPC   GL275038   5.131  15.074   6.150
 9246POPC   C1A75039   5.110  15.161   6.450
 9246POPC   D2A75040   5.045  15.132   6.750
 9246POPC   C3A75041   5.092  15.185   7.050
 9246POPC   C4A75042   5.089  15.213   7.350
 9246POPC   C1B75043   5.091  14.951   6.450
 9246POPC   C2B75044   5.175  14.905   6.750
 9246POPC   C3B75045   5.085  14.965   7.050
 9246POPC   C4B75046   5.106  14.904   7.350
 9247POPC   NC375047  28.344   8.152   5.550
 9247POPC   PO475048  28.348   8.198   5.850
 9247POPC   GL175049  28.417   8.211   6.150
 9247POPC   GL275050  28.261   8.183   6.150
 9247POPC   C1A75051  28.419   8.245   6.450
 9247POPC   D2A75052  28.385   8.174   6.750
 9247POPC   C3A75053  28.355   8.216   7.050
 9247POPC   C4A75054  28.410   8.217   7.350
 9247POPC   C1B75055  28.126   8.237   6.450
 9247POPC   C2B75056  28.097   8.191   6.750
 9247POPC   C3B75057  28.106   8.219   7.050
 9247POPC   C4B75058  28.084   8.237   7.350
 9248POPC   NC375059   6.679  20.611   5.550
 9248POPC   PO475060   6.633  20.606   5.850
 9248POPC   GL175061   6.656  20.597   6.150
 9248POPC   GL275062   6.733  20.695   6.150
 9248POPC   C1A75063   6.664  20.590   6.450
 9248POPC   D2A75064   6.596  20.600   6.750
 9248POPC   C3A75065   6.664  20.595   7.050
 9248POPC   C4A75066   6.632  20.599   7.350
 9248POPC   C1B75067   6.716  20.835   6.450
 9248POPC   C2B75068   6.767  20.890   6.750
 9248POPC   C3B75069   6.766  20.896   7.050
 9248POPC   C4B75070   6.714  20.847   7.350
 9249POPC   NC375071  36.103  25.245   5.550
 9249POPC   PO475072  36.118  25.313   5.850
 9249POPC   GL175073  36.084  25.263   6.150
 9249POPC   GL275074  36.232  25.186   6.150
 9249POPC   C1A75075  36.157  25.259   6.450
 9249POPC   D2A75076  36.109  25.242   6.750
 9249POPC   C3A75077  36.121  25.216   7.050
 9249POPC   C4A75078  36.131  25.283   7.350
 9249POPC   C1B75079  36.276  25.061   6.450
 9249POPC   C2B75080  36.289  25.081   6.750
 9249POPC   C3B75081  36.325  25.134   7.050
 9249POPC   C4B75082  36.355  25.050   7.350
 9250POPC   NC375083  11.287  23.668   5.550
 9250POPC   PO475084  11.298  23.715   5.850
 9250POPC   GL175085  11.323  23.694   6.150
 9250POPC   GL275086  11.418  23.719   6.150
 9250POPC   C1A75087  11.295  23.693   6.450
 9250POPC   D2A75088  11.330  23.698   6.750
 9250POPC   C3A75089  11.348  23.724   7.050
 9250POPC   C4A75090  11.341  23.682   7.350
 9250POPC   C1B75091  11.516  23.818   6.450
 9250POPC   C2B75092  11.571  23.816   6.750
 9250POPC   C3B75093  11.556  23.790   7.050
 9250POPC   C4B75094  11.557  23.829   7.350
 9251POPC   NC375095   3.546   1.964   5.550
 9251POPC   PO475096   3.525   1.989   5.850
 9251POPC   GL175097   3.493   1.983   6.150
 9251POPC   GL275098   3.436   2.019   6.150
 9251POPC   C1A75099   3.585   2.020   6.450
 9251POPC   D2A75100   3.575   1.974   6.750
 9251POPC   C3A75101   3.493   1.979   7.050
 9251POPC   C4A75102   3.503   1.978   7.350
 9251POPC   C1B75103   3.341   2.009   6.450
 9251POPC   C2B75104   3.319   2.031   6.750
 9251POPC   C3B75105   3.289   2.023   7.050
 9251POPC   C4B75106   3.281   2.042   7.350
 9252POPC   NC375107  35.318  15.137   5.550
 9252POPC   PO475108  35.359  15.182   5.850
 9252POPC   GL175109  35.328  15.163   6.150
 9252POPC   GL275110  35.330  15.343   6.150
 9252POPC   C1A75111  35.336  15.208   6.450
 9252POPC   D2A75112  35.325  15.224   6.750
 9252POPC   C3A75113  35.319  15.153   7.050
 9252POPC   C4A75114  35.380  15.208   7.350
 9252POPC   C1B75115  35.316  15.399   6.450
 9252POPC   C2B75116  35.360  15.467   6.750
 9252POPC   C3B75117  35.285  15.449   7.050
 9252POPC   C4B75118  35.316  15.439   7.350
 9253POPC   NC375119   8.218  32.224   5.550
 9253POPC   PO475120   8.198  32.257   5.850
 9253POPC   GL175121   8.159  32.242   6.150
 9253POPC   GL275122   8.334  32.343   6.150
 9253POPC   C1A75123   8.160  32.222   6.450
 9253POPC   D2A75124   8.213  32.249   6.750
 9253POPC   C3A75125   8.155  32.297   7.050
 9253POPC   C4A75126   8.203  32.228   7.350
 9253POPC   C1B75127   8.428  32.370   6.450
 9253POPC   C2B75128   8.441  32.349   6.750
 9253POPC   C3B75129   8.399  32.391   7.050
 9253POPC   C4B75130   8.411  32.349   7.350
 9254POPC   NC375131  32.273  17.505   5.550
 9254POPC   PO475132  32.268  17.506   5.850
 9254POPC   GL175133  32.265  17.515   6.150
 9254POPC   GL275134  32.214  17.423   6.150
 9254POPC   C1A75135  32.234  17.544   6.450
 9254POPC   D2A75136  32.202  17.499   6.750
 9254POPC   C3A75137  32.269  17.552   7.050
 9254POPC   C4A75138  32.254  17.550   7.350
 9254POPC   C1B75139  32.108  17.321   6.450
 9254POPC   C2B75140  32.107  17.330   6.750
 9254POPC   C3B75141  32.113  17.308   7.050
 9254POPC   C4B75142  32.113  17.325   7.350
 9255POPC   NC375143  17.517  26.019   5.550
 9255POPC   PO475144  17.544  26.074   5.850
 9255POPC   GL175145  17.545  26.010   6.150
 9255POPC   GL275146  17.359  26.040   6.150
 9255POPC   C1A75147  17.551  26.030   6.450
 9255POPC   D2A75148  17.502  26.010   6.750
 9255POPC   C3A75149  17.557  26.062   7.050
 9255POPC   C4A75150  17.530  26.055   7.350
 9255POPC   C1B75151  17.277  26.005   6.450
 9255POPC   C2B75152  17.220  26.032   6.750
 9255POPC   C3B75153  17.283  26.015   7.050
 9255POPC   C4B75154  17.232  25.948   7.350
 9256POPC   NC375155  35.328  28.327   5.550
 9256POPC   PO475156  35.321  28.336   5.850
 9256POPC   GL175157  35.360  28.340   6.150
 9256POPC   GL275158  35.208  28.345   6.150
 9256POPC   C1A75159  35.304  28.367   6.450
 9256POPC   D2A75160  35.327  28.319   6.750
 9256POPC   C3A75161  35.342  28.383   7.050
 9256POPC   C4A75162  35.378  28.362   7.350
 9256POPC   C1B75163  35.066  28.341   6.450
 9256POPC   C2B75164  35.064  28.326   6.750
 9256POPC   C3B75165  35.132  28.311   7.050
 9256POPC   C4B75166  35.068  28.305   7.350
 9257POPC   NC375167  14.360  22.960   5.550
 9257POPC   PO475168  14.354  22.963   5.850
 9257POPC   GL175169  14.402  22.891   6.150
 9257POPC   GL275170  14.415  23.077   6.150
 9257POPC   C1A75171  14.372  22.891   6.450
 9257POPC   D2A75172  14.392  22.921   6.750
 9257POPC   C3A75173  14.406  22.987   7.050
 9257POPC   C4A75174  14.376  22.970   7.350
 9257POPC   C1B75175  14.326  23.160   6.450
 9257POPC   C2B75176  14.352  23.171   6.750
 9257POPC   C3B75177  14.378  23.202   7.050
 9257POPC   C4B75178  14.302  23.174   7.350
 9258POPC   NC375179  19.882  19.813   5.550
 9258POPC   PO475180  19.883  19.856   5.850
 9258POPC   GL175181  19.824  19.796   6.150
 9258POPC   GL275182  19.996  19.837   6.150
 9258POPC   C1A75183  19.861  19.802   6.450
 9258POPC   D2A75184  19.884  19.882   6.750
 9258POPC   C3A75185  19.810  19.834   7.050
 9258POPC   C4A75186  19.814  19.874   7.350
 9258POPC   C1B75187  20.095  19.748   6.450
 9258POPC   C2B75188  20.052  19.768   6.750
 9258POPC   C3B75189  20.113  19.756   7.050
 9258POPC   C4B75190  20.091  19.797   7.350
 9259POPC   NC375191   8.977  43.908   5.550
 9259POPC   PO475192   8.987  43.837   5.850
 9259POPC   GL175193   9.006  43.914   6.150
 9259POPC   GL275194   9.091  43.792   6.150
 9259POPC   C1A75195   8.993  43.922   6.450
 9259POPC   D2A75196   8.972  43.900   6.750
 9259POPC   C3A75197   8.954  43.850   7.050
 9259POPC   C4A75198   8.946  43.906   7.350
 9259POPC   C1B75199   9.147  43.727   6.450
 9259POPC   C2B75200   9.105  43.678   6.750
 9259POPC   C3B75201   9.152  43.660   7.050
 9259POPC   C4B75202   9.130  43.663   7.350
 9260POPC   NC375203  32.978  34.612   5.550
 9260POPC   PO475204  33.043  34.584   5.850
 9260POPC   GL175205  33.033  34.566   6.150
 9260POPC   GL275206  33.148  34.584   6.150
 9260POPC   C1A75207  33.023  34.556   6.450
 9260POPC   D2A75208  33.008  34.571   6.750
 9260POPC   C3A75209  33.047  34.570   7.050
 9260POPC   C4A75210  33.049  34.568   7.350
 9260POPC   C1B75211  33.301  34.653   6.450
 9260POPC   C2B75212  33.292  34.626   6.750
 9260POPC   C3B75213  33.214  34.650   7.050
 9260POPC   C4B75214  33.290  34.697   7.350
 9261POPC   NC375215  40.824  19.014   5.550
 9261POPC   PO475216  40.803  19.107   5.850
 9261POPC   GL175217  40.775  19.062   6.150
 9261POPC   GL275218  40.919  18.952   6.150
 9261POPC   C1A75219  40.739  19.094   6.450
 9261POPC   D2A75220  40.791  19.066   6.750
 9261POPC   C3A75221  40.766  19.051   7.050
 9261POPC   C4A75222  40.744  19.103   7.350
 9261POPC   C1B75223  41.022  18.936   6.450
 9261POPC   C2B75224  41.002  18.948   6.750
 9261POPC   C3B75225  41.003  18.924   7.050
 9261POPC   C4B75226  41.027  18.943   7.350
 9262POPC   NC375227  13.637   5.051   5.550
 9262POPC   PO475228  13.588   5.124   5.850
 9262POPC   GL175229  13.612   5.112   6.150
 9262POPC   GL275230  13.513   5.050   6.150
 9262POPC   C1A75231  13.650   5.132   6.450
 9262POPC   D2A75232  13.630   5.103   6.750
 9262POPC   C3A75233  13.647   5.099   7.050
 9262POPC   C4A75234  13.659   5.081   7.350
 9262POPC   C1B75235  13.366   5.034   6.450
 9262POPC   C2B75236  13.434   5.051   6.750
 9262POPC   C3B75237  13.349   4.972   7.050
 9262POPC   C4B75238  13.423   5.023   7.350
 9263POPC   NC375239  26.025  24.498   5.550
 9263POPC   PO475240  25.998  24.512   5.850
 9263POPC   GL175241  26.033  24.449   6.150
 9263POPC   GL275242  26.110  24.610   6.150
 9263POPC   C1A75243  26.000  24.524   6.450
 9263POPC   D2A75244  25.999  24.471   6.750
 9263POPC   C3A75245  26.090  24.478   7.050
 9263POPC   C4A75246  26.085  24.486   7.350
 9263POPC   C1B75247  26.163  24.674   6.450
 9263POPC   C2B75248  26.158  24.693   6.750
 9263POPC   C3B75249  26.119  24.717   7.050
 9263POPC   C4B75250  26.168  24.680   7.350
 9264POPC   NC375251  30.660  20.612   5.550
 9264POPC   PO475252  30.716  20.596   5.850
 9264POPC   GL175253  30.710  20.617   6.150
 9264POPC   GL275254  30.698  20.712   6.150
 9264POPC   C1A75255  30.718  20.575   6.450
 9264POPC   D2A75256  30.743  20.598   6.750
 9264POPC   C3A75257  30.714  20.630   7.050
 9264POPC   C4A75258  30.711  20.567   7.350
 9264POPC   C1B75259  30.649  20.830   6.450
 9264POPC   C2B75260  30.622  20.824   6.750
 9264POPC   C3B75261  30.640  20.842   7.050
 9264POPC   C4B75262  30.638  20.834   7.350
 9265POPC   NC375263  12.083  36.861   5.550
 9265POPC   PO475264  12.085  36.855   5.850
 9265POPC   GL175265  12.076  36.861   6.150
 9265POPC   GL275266  12.047  36.829   6.150
 9265POPC   C1A75267  12.083  36.858   6.450
 9265POPC   D2A75268  12.082  36.882   6.750
 9265POPC   C3A75269  12.061  36.901   7.050
 9265POPC   C4A75270  12.118  36.942   7.350
 9265POPC   C1B75271  12.068  36.609   6.450
 9265POPC   C2B75272  12.071  36.689   6.750
 9265POPC   C3B75273  12.147  36.640   7.050
 9265POPC   C4B75274  12.134  36.689   7.350
 9266POPC   NC375275  11.307  14.384   5.550
 9266POPC   PO475276  11.312  14.409   5.850
 9266POPC   GL175277  11.321  14.397   6.150
 9266POPC   GL275278  11.345  14.329   6.150
 9266POPC   C1A75279  11.291  14.444   6.450
 9266POPC   D2A75280  11.287  14.421   6.750
 9266POPC   C3A75281  11.349  14.379   7.050
 9266POPC   C4A75282  11.337  14.379   7.350
 9266POPC   C1B75283  11.446  14.207   6.450
 9266POPC   C2B75284  11.414  14.194   6.750
 9266POPC   C3B75285  11.491  14.248   7.050
 9266POPC   C4B75286  11.462  14.226   7.350
 9267POPC   NC375287  36.108  41.607   5.550
 9267POPC   PO475288  36.129  41.558   5.850
 9267POPC   GL175289  36.132  41.580   6.150
 9267POPC   GL275290  36.041  41.661   6.150
 9267POPC   C1A75291  36.161  41.514   6.450
 9267POPC   D2A75292  36.087  41.534   6.750
 9267POPC   C3A75293  36.114  41.588   7.050
 9267POPC   C4A75294  36.169  41.517   7.350
 9267POPC   C1B75295  35.906  41.686   6.450
 9267POPC   C2B75296  35.898  41.694   6.750
 9267POPC   C3B75297  35.970  41.702   7.050
 9267POPC   C4B75298  35.909  41.709   7.350
 9268POPC   NC375299   1.975  29.889   5.550
 9268POPC   PO475300   2.014  29.883   5.850
 9268POPC   GL175301   2.023  29.896   6.150
 9268POPC   GL275302   2.100  29.880   6.150
 9268POPC   C1A75303   2.004  29.901   6.450
 9268POPC   D2A75304   1.993  29.950   6.750
 9268POPC   C3A75305   1.948  29.900   7.050
 9268POPC   C4A75306   1.949  29.874   7.350
 9268POPC   C1B75307   2.228  29.873   6.450
 9268POPC   C2B75308   2.265  29.908   6.750
 9268POPC   C3B75309   2.256  29.897   7.050
 9268POPC   C4B75310   2.276  29.877   7.350
 9269POPC   NC375311  20.657  13.648   5.550
 9269POPC   PO475312  20.653  13.643   5.850
 9269POPC   GL175313  20.619  13.604   6.150
 9269POPC   GL275314  20.597  13.784   6.150
 9269POPC   C1A75315  20.641  13.630   6.450
 9269POPC   D2A75316  20.577  13.625   6.750
 9269POPC   C3A75317  20.643  13.630   7.050
 9269POPC   C4A75318  20.653  13.636   7.350
 9269POPC   C1B75319  20.545  13.879   6.450
 9269POPC   C2B75320  20.523  13.819   6.750
 9269POPC   C3B75321  20.453  13.817   7.050
 9269POPC   C4B75322  20.451  13.822   7.350
 9270POPC   NC375323   9.737  33.836   5.550
 9270POPC   PO475324   9.703  33.826   5.850
 9270POPC   GL175325   9.721  33.803   6.150
 9270POPC   GL275326   9.753  33.635   6.150
 9270POPC   C1A75327   9.739  33.837   6.450
 9270POPC   D2A75328   9.719  33.794   6.750
 9270POPC   C3A75329   9.766  33.756   7.050
 9270POPC   C4A75330   9.738  33.832   7.350
 9270POPC   C1B75331   9.718  33.542   6.450
 9270POPC   C2B75332   9.700  33.548   6.750
 9270POPC   C3B75333   9.751  33.548   7.050
 9270POPC   C4B75334   9.697  33.554   7.350
 9271POPC   NC375335   2.740  22.897   5.550
 9271POPC   PO475336   2.742  22.911   5.850
 9271POPC   GL175337   2.803  22.891   6.150
 9271POPC   GL275338   2.654  22.868   6.150
 9271POPC   C1A75339   2.760  22.899   6.450
 9271POPC   D2A75340   2.718  22.961   6.750
 9271POPC   C3A75341   2.815  22.894   7.050
 9271POPC   C4A75342   2.717  22.933   7.350
 9271POPC   C1B75343   2.664  22.764   6.450
 9271POPC   C2B75344   2.590  22.720   6.750
 9271POPC   C3B75345   2.656  22.755   7.050
 9271POPC   C4B75346   2.609  22.729   7.350
 9272POPC   NC375347  19.847   3.523   5.550
 9272POPC   PO475348  19.881   3.564   5.850
 9272POPC   GL175349  19.827   3.535   6.150
 9272POPC   GL275350  19.932   3.588   6.150
 9272POPC   C1A75351  19.876   3.540   6.450
 9272POPC   D2A75352  19.804   3.506   6.750
 9272POPC   C3A75353  19.791   3.497   7.050
 9272POPC   C4A75354  19.866   3.552   7.350
 9272POPC   C1B75355  20.078   3.661   6.450
 9272POPC   C2B75356  20.086   3.615   6.750
 9272POPC   C3B75357  20.113   3.596   7.050
 9272POPC   C4B75358  20.091   3.564   7.350
 9273POPC   NC375359  25.284  31.474   5.550
 9273POPC   PO475360  25.294  31.450   5.850
 9273POPC   GL175361  25.264  31.504   6.150
 9273POPC   GL275362  25.278  31.354   6.150
 9273POPC   C1A75363  25.249  31.430   6.450
 9273POPC   D2A75364  25.308  31.423   6.750
 9273POPC   C3A75365  25.225  31.445   7.050
 9273POPC   C4A75366  25.271  31.484   7.350
 9273POPC   C1B75367  25.346  31.184   6.450
 9273POPC   C2B75368  25.297  31.216   6.750
 9273POPC   C3B75369  25.294  31.211   7.050
 9273POPC   C4B75370  25.276  31.208   7.350
 9274POPC   NC375371  42.327  22.900   5.550
 9274POPC   PO475372  42.365  22.951   5.850
 9274POPC   GL175373  42.339  22.937   6.150
 9274POPC   GL275374  42.254  23.026   6.150
 9274POPC   C1A75375  42.335  22.938   6.450
 9274POPC   D2A75376  42.298  22.986   6.750
 9274POPC   C3A75377  42.379  22.956   7.050
 9274POPC   C4A75378  42.347  22.943   7.350
 9274POPC   C1B75379  42.221  23.180   6.450
 9274POPC   C2B75380  42.223  23.206   6.750
 9274POPC   C3B75381  42.178  23.120   7.050
 9274POPC   C4B75382  42.179  23.150   7.350
 9275POPC   NC375383  30.706  11.277   5.550
 9275POPC   PO475384  30.726  11.274   5.850
 9275POPC   GL175385  30.689  11.326   6.150
 9275POPC   GL275386  30.659  11.450   6.150
 9275POPC   C1A75387  30.661  11.274   6.450
 9275POPC   D2A75388  30.648  11.305   6.750
 9275POPC   C3A75389  30.663  11.252   7.050
 9275POPC   C4A75390  30.690  11.320   7.350
 9275POPC   C1B75391  30.579  11.482   6.450
 9275POPC   C2B75392  30.593  11.554   6.750
 9275POPC   C3B75393  30.629  11.484   7.050
 9275POPC   C4B75394  30.599  11.542   7.350
 9276POPC   NC375395  39.271   4.285   5.550
 9276POPC   PO475396  39.208   4.361   5.850
 9276POPC   GL175397  39.193   4.311   6.150
 9276POPC   GL275398  39.220   4.443   6.150
 9276POPC   C1A75399  39.268   4.354   6.450
 9276POPC   D2A75400  39.219   4.292   6.750
 9276POPC   C3A75401  39.264   4.355   7.050
 9276POPC   C4A75402  39.241   4.363   7.350
 9276POPC   C1B75403  39.153   4.593   6.450
 9276POPC   C2B75404  39.184   4.533   6.750
 9276POPC   C3B75405  39.190   4.520   7.050
 9276POPC   C4B75406  39.144   4.563   7.350
 9277POPC   NC375407  35.319  12.884   5.550
 9277POPC   PO475408  35.331  12.813   5.850
 9277POPC   GL175409  35.378  12.833   6.150
 9277POPC   GL275410  35.190  12.848   6.150
 9277POPC   C1A75411  35.315  12.861   6.450
 9277POPC   D2A75412  35.339  12.810   6.750
 9277POPC   C3A75413  35.374  12.822   7.050
 9277POPC   C4A75414  35.311  12.826   7.350
 9277POPC   C1B75415  35.081  12.867   6.450
 9277POPC   C2B75416  35.107  12.798   6.750
 9277POPC   C3B75417  35.133  12.854   7.050
 9277POPC   C4B75418  35.056  12.856   7.350
 9278POPC   NC375419  37.683  30.727   5.550
 9278POPC   PO475420  37.678  30.700   5.850
 9278POPC   GL175421  37.705  30.733   6.150
 9278POPC   GL275422  37.785  30.847   6.150
 9278POPC   C1A75423  37.657  30.695   6.450
 9278POPC   D2A75424  37.660  30.688   6.750
 9278POPC   C3A75425  37.647  30.681   7.050
 9278POPC   C4A75426  37.679  30.673   7.350
 9278POPC   C1B75427  37.850  30.901   6.450
 9278POPC   C2B75428  37.844  30.864   6.750
 9278POPC   C3B75429  37.841  30.946   7.050
 9278POPC   C4B75430  37.766  30.923   7.350
 9279POPC   NC375431  37.709  19.053   5.550
 9279POPC   PO475432  37.655  19.024   5.850
 9279POPC   GL175433  37.685  19.081   6.150
 9279POPC   GL275434  37.732  19.166   6.150
 9279POPC   C1A75435  37.708  19.012   6.450
 9279POPC   D2A75436  37.701  19.082   6.750
 9279POPC   C3A75437  37.671  19.055   7.050
 9279POPC   C4A75438  37.655  19.054   7.350
 9279POPC   C1B75439  37.709  19.259   6.450
 9279POPC   C2B75440  37.739  19.332   6.750
 9279POPC   C3B75441  37.755  19.294   7.050
 9279POPC   C4B75442  37.711  19.327   7.350
 9280POPC   NC375443  22.971  26.844   5.550
 9280POPC   PO475444  22.957  26.862   5.850
 9280POPC   GL175445  22.965  26.772   6.150
 9280POPC   GL275446  22.879  26.889   6.150
 9280POPC   C1A75447  22.925  26.852   6.450
 9280POPC   D2A75448  22.911  26.769   6.750
 9280POPC   C3A75449  22.948  26.858   7.050
 9280POPC   C4A75450  22.912  26.785   7.350
 9280POPC   C1B75451  22.830  27.047   6.450
 9280POPC   C2B75452  22.799  26.983   6.750
 9280POPC   C3B75453  22.803  26.975   7.050
 9280POPC   C4B75454  22.834  26.994   7.350
 9281POPC   NC375455  34.540   6.633   5.550
 9281POPC   PO475456  34.570   6.687   5.850
 9281POPC   GL175457  34.531   6.643   6.150
 9281POPC   GL275458  34.721   6.673   6.150
 9281POPC   C1A75459  34.604   6.683   6.450
 9281POPC   D2A75460  34.558   6.651   6.750
 9281POPC   C3A75461  34.532   6.608   7.050
 9281POPC   C4A75462  34.571   6.638   7.350
 9281POPC   C1B75463  34.843   6.729   6.450
 9281POPC   C2B75464  34.815   6.655   6.750
 9281POPC   C3B75465  34.818   6.657   7.050
 9281POPC   C4B75466  34.844   6.730   7.350
 9282POPC   NC375467  14.379  15.953   5.550
 9282POPC   PO475468  14.442  15.926   5.850
 9282POPC   GL175469  14.393  15.970   6.150
 9282POPC   GL275470  14.516  15.899   6.150
 9282POPC   C1A75471  14.383  15.914   6.450
 9282POPC   D2A75472  14.355  15.994   6.750
 9282POPC   C3A75473  14.365  15.912   7.050
 9282POPC   C4A75474  14.427  15.940   7.350
 9282POPC   C1B75475  14.673  15.892   6.450
 9282POPC   C2B75476  14.643  15.854   6.750
 9282POPC   C3B75477  14.629  15.824   7.050
 9282POPC   C4B75478  14.655  15.895   7.350
 9283POPC   NC375479  36.144  21.427   5.550
 9283POPC   PO475480  36.079  21.392   5.850
 9283POPC   GL175481  36.078  21.372   6.150
 9283POPC   GL275482  35.981  21.353   6.150
 9283POPC   C1A75483  36.093  21.337   6.450
 9283POPC   D2A75484  36.174  21.382   6.750
 9283POPC   C3A75485  36.132  21.357   7.050
 9283POPC   C4A75486  36.106  21.341   7.350
 9283POPC   C1B75487  35.868  21.255   6.450
 9283POPC   C2B75488  35.849  21.324   6.750
 9283POPC   C3B75489  35.934  21.326   7.050
 9283POPC   C4B75490  35.938  21.297   7.350
 9284POPC   NC375491  40.776   3.507   5.550
 9284POPC   PO475492  40.777   3.501   5.850
 9284POPC   GL175493  40.796   3.551   6.150
 9284POPC   GL275494  40.874   3.631   6.150
 9284POPC   C1A75495  40.776   3.501   6.450
 9284POPC   D2A75496  40.752   3.539   6.750
 9284POPC   C3A75497  40.776   3.492   7.050
 9284POPC   C4A75498  40.809   3.548   7.350
 9284POPC   C1B75499  40.972   3.647   6.450
 9284POPC   C2B75500  40.985   3.689   6.750
 9284POPC   C3B75501  41.041   3.656   7.050
 9284POPC   C4B75502  40.998   3.684   7.350
 9285POPC   NC375503  24.497   1.966   5.550
 9285POPC   PO475504  24.521   2.030   5.850
 9285POPC   GL175505  24.527   1.984   6.150
 9285POPC   GL275506  24.428   1.880   6.150
 9285POPC   C1A75507  24.453   1.978   6.450
 9285POPC   D2A75508  24.500   2.020   6.750
 9285POPC   C3A75509  24.451   1.980   7.050
 9285POPC   C4A75510  24.531   1.984   7.350
 9285POPC   C1B75511  24.331   1.832   6.450
 9285POPC   C2B75512  24.305   1.870   6.750
 9285POPC   C3B75513  24.271   1.813   7.050
 9285POPC   C4B75514  24.263   1.851   7.350
 9286POPC   NC375515   6.683  12.803   5.550
 9286POPC   PO475516   6.598  12.824   5.850
 9286POPC   GL175517   6.598  12.836   6.150
 9286POPC   GL275518   6.782  12.825   6.150
 9286POPC   C1A75519   6.647  12.899   6.450
 9286POPC   D2A75520   6.602  12.883   6.750
 9286POPC   C3A75521   6.595  12.876   7.050
 9286POPC   C4A75522   6.684  12.836   7.350
 9286POPC   C1B75523   6.851  12.811   6.450
 9286POPC   C2B75524   6.878  12.759   6.750
 9286POPC   C3B75525   6.924  12.773   7.050
 9286POPC   C4B75526   6.859  12.802   7.350
 9287POPC   NC375527  25.249  10.535   5.550
 9287POPC   PO475528  25.224  10.571   5.850
 9287POPC   GL175529  25.235  10.535   6.150
 9287POPC   GL275530  25.100  10.491   6.150
 9287POPC   C1A75531  25.309  10.476   6.450
 9287POPC   D2A75532  25.307  10.531   6.750
 9287POPC   C3A75533  25.243  10.550   7.050
 9287POPC   C4A75534  25.234  10.486   7.350
 9287POPC   C1B75535  25.053  10.487   6.450
 9287POPC   C2B75536  25.063  10.510   6.750
 9287POPC   C3B75537  24.978  10.452   7.050
 9287POPC   C4B75538  25.020  10.460   7.350
 9288POPC   NC375539  10.533   6.663   5.550
 9288POPC   PO475540  10.568   6.675   5.850
 9288POPC   GL175541  10.510   6.633   6.150
 9288POPC   GL275542  10.387   6.613   6.150
 9288POPC   C1A75543  10.556   6.682   6.450
 9288POPC   D2A75544  10.554   6.601   6.750
 9288POPC   C3A75545  10.525   6.635   7.050
 9288POPC   C4A75546  10.539   6.623   7.350
 9288POPC   C1B75547  10.314   6.547   6.450
 9288POPC   C2B75548  10.264   6.514   6.750
 9288POPC   C3B75549  10.318   6.514   7.050
 9288POPC   C4B75550  10.335   6.586   7.350
 9289POPC   NC375551   1.171  36.950   5.550
 9289POPC   PO475552   1.198  36.900   5.850
 9289POPC   GL175553   1.230  36.874   6.150
 9289POPC   GL275554   1.159  37.054   6.150
 9289POPC   C1A75555   1.233  36.943   6.450
 9289POPC   D2A75556   1.249  36.918   6.750
 9289POPC   C3A75557   1.245  36.877   7.050
 9289POPC   C4A75558   1.219  36.863   7.350
 9289POPC   C1B75559   1.164  37.138   6.450
 9289POPC   C2B75560   1.217  37.127   6.750
 9289POPC   C3B75561   1.200  37.141   7.050
 9289POPC   C4B75562   1.194  37.142   7.350
 9290POPC   NC375563  19.024   7.451   5.550
 9290POPC   PO475564  19.077   7.425   5.850
 9290POPC   GL175565  19.087   7.455   6.150
 9290POPC   GL275566  19.144   7.442   6.150
 9290POPC   C1A75567  19.041   7.390   6.450
 9290POPC   D2A75568  19.022   7.386   6.750
 9290POPC   C3A75569  19.104   7.432   7.050
 9290POPC   C4A75570  19.058   7.454   7.350
 9290POPC   C1B75571  19.314   7.423   6.450
 9290POPC   C2B75572  19.357   7.424   6.750
 9290POPC   C3B75573  19.316   7.379   7.050
 9290POPC   C4B75574  19.312   7.433   7.350
 9291POPC   NC375575  36.111  29.174   5.550
 9291POPC   PO475576  36.096  29.140   5.850
 9291POPC   GL175577  36.168  29.155   6.150
 9291POPC   GL275578  36.156  29.047   6.150
 9291POPC   C1A75579  36.120  29.143   6.450
 9291POPC   D2A75580  36.104  29.167   6.750
 9291POPC   C3A75581  36.169  29.134   7.050
 9291POPC   C4A75582  36.166  29.181   7.350
 9291POPC   C1B75583  36.176  28.867   6.450
 9291POPC   C2B75584  36.145  28.874   6.750
 9291POPC   C3B75585  36.210  28.883   7.050
 9291POPC   C4B75586  36.145  28.873   7.350
 9292POPC   NC375587  12.829  44.657   5.550
 9292POPC   PO475588  12.852  44.711   5.850
 9292POPC   GL175589  12.803  44.704   6.150
 9292POPC   GL275590  12.771  44.642   6.150
 9292POPC   C1A75591  12.832  44.644   6.450
 9292POPC   D2A75592  12.889  44.681   6.750
 9292POPC   C3A75593  12.869  44.621   7.050
 9292POPC   C4A75594  12.832  44.669   7.350
 9292POPC   C1B75595  12.640  44.626   6.450
 9292POPC   C2B75596  12.563  44.709   6.750
 9292POPC   C3B75597  12.570  44.627   7.050
 9292POPC   C4B75598  12.638  44.637   7.350
 9293POPC   NC375599  39.185  28.377   5.550
 9293POPC   PO475600  39.209  28.332   5.850
 9293POPC   GL175601  39.216  28.340   6.150
 9293POPC   GL275602  39.109  28.267   6.150
 9293POPC   C1A75603  39.194  28.342   6.450
 9293POPC   D2A75604  39.185  28.352   6.750
 9293POPC   C3A75605  39.208  28.325   7.050
 9293POPC   C4A75606  39.205  28.342   7.350
 9293POPC   C1B75607  39.028  28.277   6.450
 9293POPC   C2B75608  38.978  28.277   6.750
 9293POPC   C3B75609  38.999  28.268   7.050
 9293POPC   C4B75610  39.015  28.238   7.350
 9294POPC   NC375611  12.804  20.660   5.550
 9294POPC   PO475612  12.868  20.640   5.850
 9294POPC   GL175613  12.853  20.571   6.150
 9294POPC   GL275614  12.827  20.483   6.150
 9294POPC   C1A75615  12.893  20.564   6.450
 9294POPC   D2A75616  12.877  20.596   6.750
 9294POPC   C3A75617  12.826  20.600   7.050
 9294POPC   C4A75618  12.858  20.563   7.350
 9294POPC   C1B75619  12.773  20.417   6.450
 9294POPC   C2B75620  12.753  20.373   6.750
 9294POPC   C3B75621  12.733  20.397   7.050
 9294POPC   C4B75622  12.706  20.338   7.350
 9295POPC   NC375623  40.053   5.883   5.550
 9295POPC   PO475624  40.017   5.885   5.850
 9295POPC   GL175625  39.983   5.879   6.150
 9295POPC   GL275626  40.075   6.006   6.150
 9295POPC   C1A75627  40.008   5.854   6.450
 9295POPC   D2A75628  39.970   5.824   6.750
 9295POPC   C3A75629  40.039   5.885   7.050
 9295POPC   C4A75630  39.987   5.894   7.350
 9295POPC   C1B75631  40.106   6.088   6.450
 9295POPC   C2B75632  40.061   6.064   6.750
 9295POPC   C3B75633  40.056   6.143   7.050
 9295POPC   C4B75634  40.098   6.094   7.350
 9296POPC   NC375635   8.214   9.716   5.550
 9296POPC   PO475636   8.152   9.718   5.850
 9296POPC   GL175637   8.245   9.789   6.150
 9296POPC   GL275638   8.232   9.672   6.150
 9296POPC   C1A75639   8.224   9.777   6.450
 9296POPC   D2A75640   8.170   9.730   6.750
 9296POPC   C3A75641   8.200   9.739   7.050
 9296POPC   C4A75642   8.208   9.765   7.350
 9296POPC   C1B75643   8.227   9.488   6.450
 9296POPC   C2B75644   8.260   9.540   6.750
 9296POPC   C3B75645   8.205   9.493   7.050
 9296POPC   C4B75646   8.224   9.501   7.350
 9297POPC   NC375647   4.362  36.175   5.550
 9297POPC   PO475648   4.309  36.119   5.850
 9297POPC   GL175649   4.326  36.080   6.150
 9297POPC   GL275650   4.404  36.175   6.150
 9297POPC   C1A75651   4.284  36.100   6.450
 9297POPC   D2A75652   4.336  36.085   6.750
 9297POPC   C3A75653   4.270  36.089   7.050
 9297POPC   C4A75654   4.306  36.124   7.350
 9297POPC   C1B75655   4.535  36.131   6.450
 9297POPC   C2B75656   4.536  36.114   6.750
 9297POPC   C3B75657   4.558  36.177   7.050
 9297POPC   C4B75658   4.557  36.202   7.350
 9298POPC   NC375659  19.820  26.807   5.550
 9298POPC   PO475660  19.815  26.800   5.850
 9298POPC   GL175661  19.813  26.793   6.150
 9298POPC   GL275662  19.838  26.958   6.150
 9298POPC   C1A75663  19.785  26.849   6.450
 9298POPC   D2A75664  19.787  26.775   6.750
 9298POPC   C3A75665  19.827  26.820   7.050
 9298POPC   C4A75666  19.815  26.809   7.350
 9298POPC   C1B75667  19.801  27.092   6.450
 9298POPC   C2B75668  19.732  27.051   6.750
 9298POPC   C3B75669  19.797  27.044   7.050
 9298POPC   C4B75670  19.732  27.089   7.350
 9299POPC   NC375671  39.220  38.496   5.550
 9299POPC   PO475672  39.217  38.450   5.850
 9299POPC   GL175673  39.221  38.440   6.150
 9299POPC   GL275674  39.240  38.316   6.150
 9299POPC   C1A75675  39.229  38.418   6.450
 9299POPC   D2A75676  39.226  38.434   6.750
 9299POPC   C3A75677  39.218  38.456   7.050
 9299POPC   C4A75678  39.258  38.480   7.350
 9299POPC   C1B75679  39.227  38.202   6.450
 9299POPC   C2B75680  39.201  38.190   6.750
 9299POPC   C3B75681  39.196  38.182   7.050
 9299POPC   C4B75682  39.198  38.192   7.350
 9300POPC   NC375683  41.566  26.059   5.550
 9300POPC   PO475684  41.583  26.048   5.850
 9300POPC   GL175685  41.567  26.018   6.150
 9300POPC   GL275686  41.527  26.170   6.150
 9300POPC   C1A75687  41.526  26.060   6.450
 9300POPC   D2A75688  41.580  26.060   6.750
 9300POPC   C3A75689  41.601  26.008   7.050
 9300POPC   C4A75690  41.524  26.033   7.350
 9300POPC   C1B75691  41.502  26.314   6.450
 9300POPC   C2B75692  41.532  26.324   6.750
 9300POPC   C3B75693  41.528  26.254   7.050
 9300POPC   C4B75694  41.499  26.309   7.350
 9301POPC   NC375695   5.098  39.971   5.550
 9301POPC   PO475696   5.059  40.055   5.850
 9301POPC   GL175697   5.117  40.030   6.150
 9301POPC   GL275698   5.168  39.857   6.150
 9301POPC   C1A75699   5.069  40.030   6.450
 9301POPC   D2A75700   5.058  39.975   6.750
 9301POPC   C3A75701   5.107  39.978   7.050
 9301POPC   C4A75702   5.077  40.005   7.350
 9301POPC   C1B75703   5.225  39.759   6.450
 9301POPC   C2B75704   5.209  39.783   6.750
 9301POPC   C3B75705   5.191  39.831   7.050
 9301POPC   C4B75706   5.215  39.760   7.350
 9302POPC   NC375707  40.046  29.961   5.550
 9302POPC   PO475708  40.043  29.938   5.850
 9302POPC   GL175709  40.048  29.920   6.150
 9302POPC   GL275710  39.898  29.882   6.150
 9302POPC   C1A75711  40.055  29.955   6.450
 9302POPC   D2A75712  39.992  29.872   6.750
 9302POPC   C3A75713  39.985  29.953   7.050
 9302POPC   C4A75714  39.977  29.925   7.350
 9302POPC   C1B75715  39.713  29.844   6.450
 9302POPC   C2B75716  39.714  29.892   6.750
 9302POPC   C3B75717  39.728  29.927   7.050
 9302POPC   C4B75718  39.765  29.898   7.350
 9303POPC   NC375719  26.053  21.364   5.550
 9303POPC   PO475720  26.042  21.339   5.850
 9303POPC   GL175721  26.028  21.359   6.150
 9303POPC   GL275722  25.947  21.302   6.150
 9303POPC   C1A75723  26.009  21.376   6.450
 9303POPC   D2A75724  26.063  21.372   6.750
 9303POPC   C3A75725  26.064  21.372   7.050
 9303POPC   C4A75726  26.057  21.435   7.350
 9303POPC   C1B75727  25.866  21.222   6.450
 9303POPC   C2B75728  25.892  21.254   6.750
 9303POPC   C3B75729  25.885  21.274   7.050
 9303POPC   C4B75730  25.817  21.202   7.350
 9304POPC   NC375731  22.938  12.070   5.550
 9304POPC   PO475732  22.918  12.100   5.850
 9304POPC   GL175733  22.976  12.053   6.150
 9304POPC   GL275734  23.013  12.054   6.150
 9304POPC   C1A75735  22.895  12.114   6.450
 9304POPC   D2A75736  22.943  12.071   6.750
 9304POPC   C3A75737  22.902  12.061   7.050
 9304POPC   C4A75738  22.960  12.055   7.350
 9304POPC   C1B75739  23.191  12.101   6.450
 9304POPC   C2B75740  23.151  12.030   6.750
 9304POPC   C3B75741  23.211  12.085   7.050
 9304POPC   C4B75742  23.214  12.091   7.350
 9305POPC   NC375743  27.565  44.707   5.550
 9305POPC   PO475744  27.574  44.702   5.850
 9305POPC   GL175745  27.587  44.616   6.150
 9305POPC   GL275746  27.501  44.693   6.150
 9305POPC   C1A75747  27.560  44.656   6.450
 9305POPC   D2A75748  27.620  44.694   6.750
 9305POPC   C3A75749  27.563  44.652   7.050
 9305POPC   C4A75750  27.558  44.642   7.350
 9305POPC   C1B75751  27.364  44.795   6.450
 9305POPC   C2B75752  27.333  44.762   6.750
 9305POPC   C3B75753  27.364  44.815   7.050
 9305POPC   C4B75754  27.400  44.792   7.350
 9306POPC   NC375755  12.091  16.772   5.550
 9306POPC   PO475756  12.065  16.773   5.850
 9306POPC   GL175757  12.122  16.682   6.150
 9306POPC   GL275758  12.178  16.790   6.150
 9306POPC   C1A75759  12.054  16.750   6.450
 9306POPC   D2A75760  12.058  16.728   6.750
 9306POPC   C3A75761  12.059  16.763   7.050
 9306POPC   C4A75762  12.070  16.722   7.350
 9306POPC   C1B75763  12.325  16.764   6.450
 9306POPC   C2B75764  12.281  16.801   6.750
 9306POPC   C3B75765  12.276  16.802   7.050
 9306POPC   C4B75766  12.279  16.798   7.350
 9307POPC   NC375767  29.112   1.219   5.550
 9307POPC   PO475768  29.111   1.219   5.850
 9307POPC   GL175769  29.160   1.234   6.150
 9307POPC   GL275770  29.132   1.062   6.150
 9307POPC   C1A75771  29.128   1.197   6.450
 9307POPC   D2A75772  29.155   1.232   6.750
 9307POPC   C3A75773  29.114   1.234   7.050
 9307POPC   C4A75774  29.155   1.173   7.350
 9307POPC   C1B75775  29.186   0.989   6.450
 9307POPC   C2B75776  29.114   0.979   6.750
 9307POPC   C3B75777  29.155   0.968   7.050
 9307POPC   C4B75778  29.098   0.974   7.350
 9308POPC   NC375779  37.706  32.223   5.550
 9308POPC   PO475780  37.662  32.231   5.850
 9308POPC   GL175781  37.639  32.253   6.150
 9308POPC   GL275782  37.580  32.222   6.150
 9308POPC   C1A75783  37.636  32.253   6.450
 9308POPC   D2A75784  37.647  32.243   6.750
 9308POPC   C3A75785  37.709  32.228   7.050
 9308POPC   C4A75786  37.636  32.232   7.350
 9308POPC   C1B75787  37.446  32.198   6.450
 9308POPC   C2B75788  37.476  32.242   6.750
 9308POPC   C3B75789  37.383  32.196   7.050
 9308POPC   C4B75790  37.421  32.197   7.350
 9309POPC   NC375791  36.129  19.090   5.550
 9309POPC   PO475792  36.157  19.024   5.850
 9309POPC   GL175793  36.118  19.060   6.150
 9309POPC   GL275794  36.049  19.166   6.150
 9309POPC   C1A75795  36.173  19.086   6.450
 9309POPC   D2A75796  36.136  19.088   6.750
 9309POPC   C3A75797  36.146  19.061   7.050
 9309POPC   C4A75798  36.134  19.060   7.350
 9309POPC   C1B75799  36.011  19.288   6.450
 9309POPC   C2B75800  35.967  19.259   6.750
 9309POPC   C3B75801  35.982  19.298   7.050
 9309POPC   C4B75802  35.958  19.232   7.350
 9310POPC   NC375803  36.080  35.391   5.550
 9310POPC   PO475804  36.172  35.308   5.850
 9310POPC   GL175805  36.156  35.312   6.150
 9310POPC   GL275806  36.003  35.407   6.150
 9310POPC   C1A75807  36.156  35.333   6.450
 9310POPC   D2A75808  36.116  35.384   6.750
 9310POPC   C3A75809  36.158  35.398   7.050
 9310POPC   C4A75810  36.108  35.359   7.350
 9310POPC   C1B75811  35.927  35.487   6.450
 9310POPC   C2B75812  35.859  35.430   6.750
 9310POPC   C3B75813  35.941  35.460   7.050
 9310POPC   C4B75814  35.910  35.491   7.350
 9311POPC   NC375815  27.621   4.319   5.550
 9311POPC   PO475816  27.556   4.339   5.850
 9311POPC   GL175817  27.605   4.290   6.150
 9311POPC   GL275818  27.636   4.397   6.150
 9311POPC   C1A75819  27.618   4.340   6.450
 9311POPC   D2A75820  27.571   4.269   6.750
 9311POPC   C3A75821  27.622   4.285   7.050
 9311POPC   C4A75822  27.548   4.279   7.350
 9311POPC   C1B75823  27.677   4.590   6.450
 9311POPC   C2B75824  27.700   4.509   6.750
 9311POPC   C3B75825  27.703   4.550   7.050
 9311POPC   C4B75826  27.673   4.503   7.350
 9312POPC   NC375827  29.102  33.071   5.550
 9312POPC   PO475828  29.162  32.998   5.850
 9312POPC   GL175829  29.159  33.056   6.150
 9312POPC   GL275830  29.137  32.944   6.150
 9312POPC   C1A75831  29.154  33.066   6.450
 9312POPC   D2A75832  29.133  33.046   6.750
 9312POPC   C3A75833  29.161  33.035   7.050
 9312POPC   C4A75834  29.100  33.014   7.350
 9312POPC   C1B75835  29.175  32.772   6.450
 9312POPC   C2B75836  29.143  32.787   6.750
 9312POPC   C3B75837  29.181  32.781   7.050
 9312POPC   C4B75838  29.138  32.755   7.350
 9313POPC   NC375839  42.317  27.601   5.550
 9313POPC   PO475840  42.362  27.574   5.850
 9313POPC   GL175841  42.350  27.583   6.150
 9313POPC   GL275842  42.301  27.698   6.150
 9313POPC   C1A75843  42.366  27.582   6.450
 9313POPC   D2A75844  42.339  27.578   6.750
 9313POPC   C3A75845  42.378  27.589   7.050
 9313POPC   C4A75846  42.292  27.548   7.350
 9313POPC   C1B75847  42.206  27.783   6.450
 9313POPC   C2B75848  42.302  27.782   6.750
 9313POPC   C3B75849  42.267  27.837   7.050
 9313POPC   C4B75850  42.298  27.796   7.350
 9314POPC   NC375851  29.921   9.795   5.550
 9314POPC   PO475852  29.944   9.709   5.850
 9314POPC   GL175853  29.898   9.707   6.150
 9314POPC   GL275854  29.840   9.741   6.150
 9314POPC   C1A75855  29.917   9.750   6.450
 9314POPC   D2A75856  29.957   9.745   6.750
 9314POPC   C3A75857  29.884   9.784   7.050
 9314POPC   C4A75858  29.928   9.701   7.350
 9314POPC   C1B75859  29.622   9.727   6.450
 9314POPC   C2B75860  29.679   9.765   6.750
 9314POPC   C3B75861  29.645   9.733   7.050
 9314POPC   C4B75862  29.710   9.760   7.350
 9315POPC   NC375863  19.829  21.377   5.550
 9315POPC   PO475864  19.852  21.383   5.850
 9315POPC   GL175865  19.884  21.433   6.150
 9315POPC   GL275866  19.817  21.300   6.150
 9315POPC   C1A75867  19.787  21.355   6.450
 9315POPC   D2A75868  19.875  21.367   6.750
 9315POPC   C3A75869  19.794  21.345   7.050
 9315POPC   C4A75870  19.816  21.402   7.350
 9315POPC   C1B75871  19.872  21.144   6.450
 9315POPC   C2B75872  19.845  21.152   6.750
 9315POPC   C3B75873  19.894  21.170   7.050
 9315POPC   C4B75874  19.839  21.118   7.350
 9316POPC   NC375875  11.257  25.274   5.550
 9316POPC   PO475876  11.295  25.302   5.850
 9316POPC   GL175877  11.305  25.297   6.150
 9316POPC   GL275878  11.224  25.230   6.150
 9316POPC   C1A75879  11.344  25.254   6.450
 9316POPC   D2A75880  11.330  25.239   6.750
 9316POPC   C3A75881  11.303  25.270   7.050
 9316POPC   C4A75882  11.268  25.300   7.350
 9316POPC   C1B75883  11.136  25.140   6.450
 9316POPC   C2B75884  11.162  25.105   6.750
 9316POPC   C3B75885  11.097  25.104   7.050
 9316POPC   C4B75886  11.136  25.079   7.350
 9317POPC   NC375887  29.903  30.659   5.550
 9317POPC   PO475888  29.957  30.691   5.850
 9317POPC   GL175889  29.935  30.694   6.150
 9317POPC   GL275890  29.889  30.773   6.150
 9317POPC   C1A75891  29.872  30.687   6.450
 9317POPC   D2A75892  29.906  30.722   6.750
 9317POPC   C3A75893  29.901  30.714   7.050
 9317POPC   C4A75894  29.911  30.659   7.350
 9317POPC   C1B75895  29.855  30.870   6.450
 9317POPC   C2B75896  29.825  30.955   6.750
 9317POPC   C3B75897  29.835  30.920   7.050
 9317POPC   C4B75898  29.826  30.907   7.350
 9318POPC   NC375899  18.272   7.431   5.550
 9318POPC   PO475900  18.262   7.410   5.850
 9318POPC   GL175901  18.239   7.428   6.150
 9318POPC   GL275902  18.415   7.398   6.150
 9318POPC   C1A75903  18.310   7.390   6.450
 9318POPC   D2A75904  18.251   7.419   6.750
 9318POPC   C3A75905  18.314   7.458   7.050
 9318POPC   C4A75906  18.261   7.431   7.350
 9318POPC   C1B75907  18.536   7.280   6.450
 9318POPC   C2B75908  18.503   7.276   6.750
 9318POPC   C3B75909  18.541   7.322   7.050
 9318POPC   C4B75910  18.516   7.279   7.350
 9319POPC   NC375911   8.181  13.625   5.550
 9319POPC   PO475912   8.196  13.659   5.850
 9319POPC   GL175913   8.185  13.657   6.150
 9319POPC   GL275914   8.358  13.723   6.150
 9319POPC   C1A75915   8.234  13.626   6.450
 9319POPC   D2A75916   8.215  13.672   6.750
 9319POPC   C3A75917   8.177  13.660   7.050
 9319POPC   C4A75918   8.202  13.582   7.350
 9319POPC   C1B75919   8.416  13.722   6.450
 9319POPC   C2B75920   8.389  13.731   6.750
 9319POPC   C3B75921   8.467  13.746   7.050
 9319POPC   C4B75922   8.437  13.686   7.350
 9320POPC   NC375923  10.497  36.161   5.550
 9320POPC   PO475924  10.489  36.113   5.850
 9320POPC   GL175925  10.495  36.166   6.150
 9320POPC   GL275926  10.393  36.146   6.150
 9320POPC   C1A75927  10.481  36.156   6.450
 9320POPC   D2A75928  10.519  36.167   6.750
 9320POPC   C3A75929  10.501  36.127   7.050
 9320POPC   C4A75930  10.566  36.163   7.350
 9320POPC   C1B75931  10.258  36.031   6.450
 9320POPC   C2B75932  10.326  36.077   6.750
 9320POPC   C3B75933  10.278  36.073   7.050
 9320POPC   C4B75934  10.328  36.061   7.350
 9321POPC   NC375935   9.756   1.169   5.550
 9321POPC   PO475936   9.746   1.255   5.850
 9321POPC   GL175937   9.789   1.212   6.150
 9321POPC   GL275938   9.733   1.067   6.150
 9321POPC   C1A75939   9.736   1.198   6.450
 9321POPC   D2A75940   9.772   1.173   6.750
 9321POPC   C3A75941   9.757   1.225   7.050
 9321POPC   C4A75942   9.794   1.176   7.350
 9321POPC   C1B75943   9.744   1.011   6.450
 9321POPC   C2B75944   9.757   0.936   6.750
 9321POPC   C3B75945   9.757   0.957   7.050
 9321POPC   C4B75946   9.740   0.978   7.350
 9322POPC   NC375947  42.359  42.368   5.550
 9322POPC   PO475948  42.350  42.344   5.850
 9322POPC   GL175949  42.346  42.360   6.150
 9322POPC   GL275950  42.446  42.258   6.150
 9322POPC   C1A75951  42.299  42.326   6.450
 9322POPC   D2A75952  42.350  42.288   6.750
 9322POPC   C3A75953  42.292  42.336   7.050
 9322POPC   C4A75954  42.294  42.366   7.350
 9322POPC   C1B75955  42.545  42.220   6.450
 9322POPC   C2B75956  42.553  42.200   6.750
 9322POPC   C3B75957  42.615  42.281   7.050
 9322POPC   C4B75958  42.532  42.275   7.350
 9323POPC   NC375959   6.659   5.095   5.550
 9323POPC   PO475960   6.597   5.087   5.850
 9323POPC   GL175961   6.690   5.066   6.150
 9323POPC   GL275962   6.485   5.063   6.150
 9323POPC   C1A75963   6.643   5.096   6.450
 9323POPC   D2A75964   6.653   5.137   6.750
 9323POPC   C3A75965   6.617   5.073   7.050
 9323POPC   C4A75966   6.623   5.092   7.350
 9323POPC   C1B75967   6.422   5.139   6.450
 9323POPC   C2B75968   6.394   5.117   6.750
 9323POPC   C3B75969   6.432   5.081   7.050
 9323POPC   C4B75970   6.437   5.107   7.350
 9324POPC   NC375971  19.035  16.723   5.550
 9324POPC   PO475972  19.091  16.731   5.850
 9324POPC   GL175973  19.041  16.740   6.150
 9324POPC   GL275974  18.941  16.817   6.150
 9324POPC   C1A75975  19.086  16.703   6.450
 9324POPC   D2A75976  19.076  16.757   6.750
 9324POPC   C3A75977  19.048  16.700   7.050
 9324POPC   C4A75978  19.021  16.726   7.350
 9324POPC   C1B75979  18.878  16.902   6.450
 9324POPC   C2B75980  18.926  16.941   6.750
 9324POPC   C3B75981  18.925  16.950   7.050
 9324POPC   C4B75982  18.880  16.932   7.350
 9325POPC   NC375983   8.239  24.525   5.550
 9325POPC   PO475984   8.194  24.508   5.850
 9325POPC   GL175985   8.209  24.512   6.150
 9325POPC   GL275986   8.104  24.596   6.150
 9325POPC   C1A75987   8.212  24.464   6.450
 9325POPC   D2A75988   8.166  24.489   6.750
 9325POPC   C3A75989   8.241  24.535   7.050
 9325POPC   C4A75990   8.148  24.534   7.350
 9325POPC   C1B75991   8.077  24.680   6.450
 9325POPC   C2B75992   8.032  24.715   6.750
 9325POPC   C3B75993   8.062  24.708   7.050
 9325POPC   C4B75994   8.055  24.669   7.350
 9326POPC   NC375995  21.378  18.277   5.550
 9326POPC   PO475996  21.425  18.241   5.850
 9326POPC   GL175997  21.393  18.300   6.150
 9326POPC   GL275998  21.552  18.272   6.150
 9326POPC   C1A75999  21.392  18.280   6.450
 9326POPC   D2A76000  21.377  18.314   6.750
 9326POPC   C3A76001  21.423  18.320   7.050
 9326POPC   C4A76002  21.340  18.249   7.350
 9326POPC   C1B76003  21.612  18.328   6.450
 9326POPC   C2B76004  21.665  18.329   6.750
 9326POPC   C3B76005  21.596  18.389   7.050
 9326POPC   C4B76006  21.594  18.316   7.350
 9327POPC   NC376007  19.811  12.069   5.550
 9327POPC   PO476008  19.795  12.115   5.850
 9327POPC   GL176009  19.864  12.055   6.150
 9327POPC   GL276010  19.817  12.140   6.150
 9327POPC   C1A76011  19.871  12.066   6.450
 9327POPC   D2A76012  19.847  12.110   6.750
 9327POPC   C3A76013  19.808  12.071   7.050
 9327POPC   C4A76014  19.857  12.037   7.350
 9327POPC   C1B76015  19.691  12.328   6.450
 9327POPC   C2B76016  19.683  12.270   6.750
 9327POPC   C3B76017  19.680  12.304   7.050
 9327POPC   C4B76018  19.692  12.246   7.350
 9328POPC   NC376019  30.712  43.843   5.550
 9328POPC   PO476020  30.708  43.930   5.850
 9328POPC   GL176021  30.700  43.838   6.150
 9328POPC   GL276022  30.566  43.872   6.150
 9328POPC   C1A76023  30.693  43.888   6.450
 9328POPC   D2A76024  30.656  43.857   6.750
 9328POPC   C3A76025  30.717  43.876   7.050
 9328POPC   C4A76026  30.664  43.867   7.350
 9328POPC   C1B76027  30.420  43.933   6.450
 9328POPC   C2B76028  30.406  43.975   6.750
 9328POPC   C3B76029  30.456  43.944   7.050
 9328POPC   C4B76030  30.445  43.972   7.350
 9329POPC   NC376031  21.379  21.415   5.550
 9329POPC   PO476032  21.369  21.340   5.850
 9329POPC   GL176033  21.342  21.386   6.150
 9329POPC   GL276034  21.543  21.426   6.150
 9329POPC   C1A76035  21.429  21.430   6.450
 9329POPC   D2A76036  21.356  21.368   6.750
 9329POPC   C3A76037  21.346  21.373   7.050
 9329POPC   C4A76038  21.365  21.400   7.350
 9329POPC   C1B76039  21.642  21.453   6.450
 9329POPC   C2B76040  21.672  21.413   6.750
 9329POPC   C3B76041  21.654  21.423   7.050
 9329POPC   C4B76042  21.641  21.440   7.350
 9330POPC   NC376043   1.248  24.468   5.550
 9330POPC   PO476044   1.249  24.525   5.850
 9330POPC   GL176045   1.237  24.526   6.150
 9330POPC   GL276046   1.302  24.575   6.150
 9330POPC   C1A76047   1.189  24.469   6.450
 9330POPC   D2A76048   1.216  24.512   6.750
 9330POPC   C3A76049   1.221  24.520   7.050
 9330POPC   C4A76050   1.200  24.514   7.350
 9330POPC   C1B76051   1.438  24.604   6.450
 9330POPC   C2B76052   1.419  24.630   6.750
 9330POPC   C3B76053   1.438  24.618   7.050
 9330POPC   C4B76054   1.459  24.618   7.350
 9331POPC   NC376055  28.413  26.003   5.550
 9331POPC   PO476056  28.331  26.018   5.850
 9331POPC   GL176057  28.344  26.065   6.150
 9331POPC   GL276058  28.340  25.930   6.150
 9331POPC   C1A76059  28.333  26.060   6.450
 9331POPC   D2A76060  28.380  26.026   6.750
 9331POPC   C3A76061  28.401  26.051   7.050
 9331POPC   C4A76062  28.404  26.091   7.350
 9331POPC   C1B76063  28.410  25.806   6.450
 9331POPC   C2B76064  28.374  25.764   6.750
 9331POPC   C3B76065  28.404  25.834   7.050
 9331POPC   C4B76066  28.336  25.834   7.350
 9332POPC   NC376067  29.155  44.707   5.550
 9332POPC   PO476068  29.179  44.622   5.850
 9332POPC   GL176069  29.110  44.695   6.150
 9332POPC   GL276070  29.113  44.593   6.150
 9332POPC   C1A76071  29.191  44.625   6.450
 9332POPC   D2A76072  29.129  44.644   6.750
 9332POPC   C3A76073  29.109  44.706   7.050
 9332POPC   C4A76074  29.161  44.646   7.350
 9332POPC   C1B76075  29.077  44.390   6.450
 9332POPC   C2B76076  29.042  44.443   6.750
 9332POPC   C3B76077  29.062  44.404   7.050
 9332POPC   C4B76078  29.048  44.430   7.350
 9333POPC   NC376079  22.136  33.845   5.550
 9333POPC   PO476080  22.125  33.829   5.850
 9333POPC   GL176081  22.179  33.769   6.150
 9333POPC   GL276082  22.128  33.890   6.150
 9333POPC   C1A76083  22.126  33.811   6.450
 9333POPC   D2A76084  22.187  33.828   6.750
 9333POPC   C3A76085  22.208  33.818   7.050
 9333POPC   C4A76086  22.136  33.845   7.350
 9333POPC   C1B76087  22.207  34.061   6.450
 9333POPC   C2B76088  22.123  34.047   6.750
 9333POPC   C3B76089  22.185  34.021   7.050
 9333POPC   C4B76090  22.206  34.038   7.350
 9334POPC   NC376091   2.770  29.113   5.550
 9334POPC   PO476092   2.798  29.115   5.850
 9334POPC   GL176093   2.722  29.185   6.150
 9334POPC   GL276094   2.681  29.084   6.150
 9334POPC   C1A76095   2.744  29.172   6.450
 9334POPC   D2A76096   2.745  29.151   6.750
 9334POPC   C3A76097   2.775  29.142   7.050
 9334POPC   C4A76098   2.757  29.104   7.350
 9334POPC   C1B76099   2.559  28.985   6.450
 9334POPC   C2B76100   2.593  29.013   6.750
 9334POPC   C3B76101   2.565  29.034   7.050
 9334POPC   C4B76102   2.500  29.075   7.350
 9335POPC   NC376103  41.520  28.346   5.550
 9335POPC   PO476104  41.556  28.409   5.850
 9335POPC   GL176105  41.568  28.388   6.150
 9335POPC   GL276106  41.403  28.284   6.150
 9335POPC   C1A76107  41.569  28.369   6.450
 9335POPC   D2A76108  41.583  28.401   6.750
 9335POPC   C3A76109  41.516  28.337   7.050
 9335POPC   C4A76110  41.545  28.333   7.350
 9335POPC   C1B76111  41.291  28.256   6.450
 9335POPC   C2B76112  41.314  28.253   6.750
 9335POPC   C3B76113  41.290  28.222   7.050
 9335POPC   C4B76114  41.292  28.298   7.350
 9336POPC   NC376115  37.689   5.864   5.550
 9336POPC   PO476116  37.696   5.918   5.850
 9336POPC   GL176117  37.631   5.833   6.150
 9336POPC   GL276118  37.816   5.907   6.150
 9336POPC   C1A76119  37.661   5.823   6.450
 9336POPC   D2A76120  37.640   5.892   6.750
 9336POPC   C3A76121  37.662   5.908   7.050
 9336POPC   C4A76122  37.712   5.848   7.350
 9336POPC   C1B76123  37.898   5.814   6.450
 9336POPC   C2B76124  37.908   5.839   6.750
 9336POPC   C3B76125  37.941   5.838   7.050
 9336POPC   C4B76126  37.942   5.892   7.350
 9337POPC   NC376127  14.399  18.325   5.550
 9337POPC   PO476128  14.441  18.271   5.850
 9337POPC   GL176129  14.374  18.276   6.150
 9337POPC   GL276130  14.374  18.134   6.150
 9337POPC   C1A76131  14.420  18.306   6.450
 9337POPC   D2A76132  14.424  18.332   6.750
 9337POPC   C3A76133  14.402  18.238   7.050
 9337POPC   C4A76134  14.370  18.314   7.350
 9337POPC   C1B76135  14.316  18.111   6.450
 9337POPC   C2B76136  14.271  18.084   6.750
 9337POPC   C3B76137  14.310  18.106   7.050
 9337POPC   C4B76138  14.277  18.082   7.350
 9338POPC   NC376139  32.978   0.444   5.550
 9338POPC   PO476140  32.975   0.488   5.850
 9338POPC   GL176141  32.991   0.410   6.150
 9338POPC   GL276142  33.091   0.488   6.150
 9338POPC   C1A76143  33.030   0.436   6.450
 9338POPC   D2A76144  33.005   0.461   6.750
 9338POPC   C3A76145  32.976   0.446   7.050
 9338POPC   C4A76146  33.034   0.458   7.350
 9338POPC   C1B76147  33.224   0.587   6.450
 9338POPC   C2B76148  33.207   0.649   6.750
 9338POPC   C3B76149  33.180   0.574   7.050
 9338POPC   C4B76150  33.163   0.650   7.350
 9339POPC   NC376151  41.596   4.278   5.550
 9339POPC   PO476152  41.607   4.363   5.850
 9339POPC   GL176153  41.590   4.281   6.150
 9339POPC   GL276154  41.722   4.316   6.150
 9339POPC   C1A76155  41.602   4.347   6.450
 9339POPC   D2A76156  41.555   4.355   6.750
 9339POPC   C3A76157  41.549   4.289   7.050
 9339POPC   C4A76158  41.600   4.352   7.350
 9339POPC   C1B76159  41.761   4.369   6.450
 9339POPC   C2B76160  41.775   4.419   6.750
 9339POPC   C3B76161  41.801   4.405   7.050
 9339POPC   C4B76162  41.782   4.335   7.350
 9340POPC   NC376163   7.380   9.000   5.550
 9340POPC   PO476164   7.379   8.930   5.850
 9340POPC   GL176165   7.404   8.967   6.150
 9340POPC   GL276166   7.414   8.827   6.150
 9340POPC   C1A76167   7.379   8.990   6.450
 9340POPC   D2A76168   7.463   9.012   6.750
 9340POPC   C3A76169   7.382   8.925   7.050
 9340POPC   C4A76170   7.458   8.946   7.350
 9340POPC   C1B76171   7.468   8.706   6.450
 9340POPC   C2B76172   7.530   8.689   6.750
 9340POPC   C3B76173   7.458   8.774   7.050
 9340POPC   C4B76174   7.505   8.774   7.350
 9341POPC   NC376175  34.606  21.397   5.550
 9341POPC   PO476176  34.534  21.425   5.850
 9341POPC   GL176177  34.596  21.394   6.150
 9341POPC   GL276178  34.537  21.534   6.150
 9341POPC   C1A76179  34.538  21.406   6.450
 9341POPC   D2A76180  34.556  21.368   6.750
 9341POPC   C3A76181  34.582  21.393   7.050
 9341POPC   C4A76182  34.624  21.418   7.350
 9341POPC   C1B76183  34.639  21.590   6.450
 9341POPC   C2B76184  34.635  21.676   6.750
 9341POPC   C3B76185  34.602  21.680   7.050
 9341POPC   C4B76186  34.546  21.652   7.350
 9342POPC   NC376187  11.328   8.214   5.550
 9342POPC   PO476188  11.328   8.199   5.850
 9342POPC   GL176189  11.292   8.215   6.150
 9342POPC   GL276190  11.466   8.258   6.150
 9342POPC   C1A76191  11.280   8.205   6.450
 9342POPC   D2A76192  11.293   8.224   6.750
 9342POPC   C3A76193  11.270   8.154   7.050
 9342POPC   C4A76194  11.283   8.149   7.350
 9342POPC   C1B76195  11.531   8.246   6.450
 9342POPC   C2B76196  11.555   8.279   6.750
 9342POPC   C3B76197  11.550   8.325   7.050
 9342POPC   C4B76198  11.500   8.324   7.350
 9343POPC   NC376199  44.655  22.977   5.550
 9343POPC   PO476200  44.689  22.919   5.850
 9343POPC   GL176201  44.647  22.971   6.150
 9343POPC   GL276202  44.726  22.853   6.150
 9343POPC   C1A76203  44.621  22.966   6.450
 9343POPC   D2A76204  44.635  22.914   6.750
 9343POPC   C3A76205  44.616  22.895   7.050
 9343POPC   C4A76206  44.712  22.932   7.350
 9343POPC   C1B76207  44.825  22.774   6.450
 9343POPC   C2B76208  44.883  22.774   6.750
 9343POPC   C3B76209  44.841  22.777   7.050
 9343POPC   C4B76210  44.825  22.806   7.350
 9344POPC   NC376211   3.515   9.001   5.550
 9344POPC   PO476212   3.538   8.977   5.850
 9344POPC   GL176213   3.589   8.989   6.150
 9344POPC   GL276214   3.567   9.107   6.150
 9344POPC   C1A76215   3.494   8.990   6.450
 9344POPC   D2A76216   3.588   8.927   6.750
 9344POPC   C3A76217   3.499   8.993   7.050
 9344POPC   C4A76218   3.574   8.971   7.350
 9344POPC   C1B76219   3.645   9.235   6.450
 9344POPC   C2B76220   3.600   9.171   6.750
 9344POPC   C3B76221   3.613   9.188   7.050
 9344POPC   C4B76222   3.632   9.196   7.350
 9345POPC   NC376223  24.452  14.416   5.550
 9345POPC   PO476224  24.491  14.446   5.850
 9345POPC   GL176225  24.477  14.372   6.150
 9345POPC   GL276226  24.465  14.471   6.150
 9345POPC   C1A76227  24.440  14.375   6.450
 9345POPC   D2A76228  24.527  14.408   6.750
 9345POPC   C3A76229  24.443  14.415   7.050
 9345POPC   C4A76230  24.487  14.355   7.350
 9345POPC   C1B76231  24.340  14.662   6.450
 9345POPC   C2B76232  24.396  14.643   6.750
 9345POPC   C3B76233  24.348  14.584   7.050
 9345POPC   C4B76234  24.336  14.619   7.350
 9346POPC   NC376235  22.967  34.579   5.550
 9346POPC   PO476236  22.916  34.574   5.850
 9346POPC   GL176237  22.901  34.577   6.150
 9346POPC   GL276238  23.035  34.482   6.150
 9346POPC   C1A76239  22.899  34.601   6.450
 9346POPC   D2A76240  22.932  34.564   6.750
 9346POPC   C3A76241  22.918  34.529   7.050
 9346POPC   C4A76242  22.889  34.588   7.350
 9346POPC   C1B76243  23.164  34.429   6.450
 9346POPC   C2B76244  23.139  34.464   6.750
 9346POPC   C3B76245  23.138  34.416   7.050
 9346POPC   C4B76246  23.100  34.402   7.350
 9347POPC   NC376247  24.503  10.542   5.550
 9347POPC   PO476248  24.459  10.528   5.850
 9347POPC   GL176249  24.511  10.544   6.150
 9347POPC   GL276250  24.426  10.372   6.150
 9347POPC   C1A76251  24.452  10.547   6.450
 9347POPC   D2A76252  24.516  10.559   6.750
 9347POPC   C3A76253  24.513  10.501   7.050
 9347POPC   C4A76254  24.530  10.540   7.350
 9347POPC   C1B76255  24.414  10.276   6.450
 9347POPC   C2B76256  24.461  10.241   6.750
 9347POPC   C3B76257  24.448  10.315   7.050
 9347POPC   C4B76258  24.451  10.331   7.350
 9348POPC   NC376259  20.642  27.605   5.550
 9348POPC   PO476260  20.579  27.614   5.850
 9348POPC   GL176261  20.613  27.543   6.150
 9348POPC   GL276262  20.518  27.633   6.150
 9348POPC   C1A76263  20.611  27.616   6.450
 9348POPC   D2A76264  20.581  27.595   6.750
 9348POPC   C3A76265  20.579  27.637   7.050
 9348POPC   C4A76266  20.592  27.584   7.350
 9348POPC   C1B76267  20.451  27.776   6.450
 9348POPC   C2B76268  20.406  27.764   6.750
 9348POPC   C3B76269  20.380  27.744   7.050
 9348POPC   C4B76270  20.439  27.753   7.350
 9349POPC   NC376271  23.711   0.436   5.550
 9349POPC   PO476272  23.712   0.439   5.850
 9349POPC   GL176273  23.702   0.437   6.150
 9349POPC   GL276274  23.562   0.424   6.150
 9349POPC   C1A76275  23.751   0.477   6.450
 9349POPC   D2A76276  23.762   0.413   6.750
 9349POPC   C3A76277  23.688   0.434   7.050
 9349POPC   C4A76278  23.699   0.434   7.350
 9349POPC   C1B76279  23.486   0.398   6.450
 9349POPC   C2B76280  23.494   0.385   6.750
 9349POPC   C3B76281  23.444   0.407   7.050
 9349POPC   C4B76282  23.460   0.431   7.350
 9350POPC   NC376283  22.167   3.514   5.550
 9350POPC   PO476284  22.191   3.497   5.850
 9350POPC   GL176285  22.209   3.546   6.150
 9350POPC   GL276286  22.072   3.478   6.150
 9350POPC   C1A76287  22.206   3.558   6.450
 9350POPC   D2A76288  22.201   3.541   6.750
 9350POPC   C3A76289  22.170   3.547   7.050
 9350POPC   C4A76290  22.193   3.496   7.350
 9350POPC   C1B76291  22.045   3.337   6.450
 9350POPC   C2B76292  22.034   3.338   6.750
 9350POPC   C3B76293  22.068   3.275   7.050
 9350POPC   C4B76294  22.042   3.372   7.350
 9351POPC   NC376295  14.383  41.590   5.550
 9351POPC   PO476296  14.356  41.588   5.850
 9351POPC   GL176297  14.446  41.580   6.150
 9351POPC   GL276298  14.352  41.711   6.150
 9351POPC   C1A76299  14.400  41.561   6.450
 9351POPC   D2A76300  14.450  41.577   6.750
 9351POPC   C3A76301  14.447  41.597   7.050
 9351POPC   C4A76302  14.424  41.565   7.350
 9351POPC   C1B76303  14.340  41.819   6.450
 9351POPC   C2B76304  14.322  41.810   6.750
 9351POPC   C3B76305  14.377  41.757   7.050
 9351POPC   C4B76306  14.302  41.838   7.350
 9352POPC   NC376307   5.911   3.525   5.550
 9352POPC   PO476308   5.824   3.551   5.850
 9352POPC   GL176309   5.830   3.582   6.150
 9352POPC   GL276310   5.765   3.678   6.150
 9352POPC   C1A76311   5.866   3.548   6.450
 9352POPC   D2A76312   5.859   3.587   6.750
 9352POPC   C3A76313   5.822   3.582   7.050
 9352POPC   C4A76314   5.901   3.517   7.350
 9352POPC   C1B76315   5.756   3.742   6.450
 9352POPC   C2B76316   5.739   3.703   6.750
 9352POPC   C3B76317   5.717   3.701   7.050
 9352POPC   C4B76318   5.727   3.776   7.350
 9353POPC   NC376319  20.645   8.979   5.550
 9353POPC   PO476320  20.569   8.949   5.850
 9353POPC   GL176321  20.596   9.017   6.150
 9353POPC   GL276322  20.519   9.052   6.150
 9353POPC   C1A76323  20.584   8.938   6.450
 9353POPC   D2A76324  20.640   8.965   6.750
 9353POPC   C3A76325  20.584   8.968   7.050
 9353POPC   C4A76326  20.573   8.927   7.350
 9353POPC   C1B76327  20.418   9.019   6.450
 9353POPC   C2B76328  20.338   9.086   6.750
 9353POPC   C3B76329  20.412   9.069   7.050
 9353POPC   C4B76330  20.402   9.067   7.350
 9354POPC   NC376331  29.940  24.470   5.550
 9354POPC   PO476332  29.943  24.489   5.850
 9354POPC   GL176333  29.919  24.465   6.150
 9354POPC   GL276334  29.953  24.566   6.150
 9354POPC   C1A76335  29.941  24.528   6.450
 9354POPC   D2A76336  29.890  24.454   6.750
 9354POPC   C3A76337  29.885  24.539   7.050
 9354POPC   C4A76338  29.958  24.470   7.350
 9354POPC   C1B76339  30.007  24.681   6.450
 9354POPC   C2B76340  30.028  24.710   6.750
 9354POPC   C3B76341  30.070  24.672   7.050
 9354POPC   C4B76342  29.977  24.680   7.350
 9355POPC   NC376343   5.105  44.621   5.550
 9355POPC   PO476344   5.129  44.637   5.850
 9355POPC   GL176345   5.075  44.614   6.150
 9355POPC   GL276346   5.015  44.662   6.150
 9355POPC   C1A76347   5.048  44.624   6.450
 9355POPC   D2A76348   5.068  44.671   6.750
 9355POPC   C3A76349   5.103  44.694   7.050
 9355POPC   C4A76350   5.142  44.683   7.350
 9355POPC   C1B76351   4.891  44.767   6.450
 9355POPC   C2B76352   4.866  44.795   6.750
 9355POPC   C3B76353   4.906  44.788   7.050
 9355POPC   C4B76354   4.882  44.735   7.350
 9356POPC   NC376355  21.425   8.938   5.550
 9356POPC   PO476356  21.337   8.979   5.850
 9356POPC   GL176357  21.356   8.989   6.150
 9356POPC   GL276358  21.375   8.842   6.150
 9356POPC   C1A76359  21.422   8.989   6.450
 9356POPC   D2A76360  21.343   8.961   6.750
 9356POPC   C3A76361  21.354   8.985   7.050
 9356POPC   C4A76362  21.354   8.998   7.350
 9356POPC   C1B76363  21.408   8.745   6.450
 9356POPC   C2B76364  21.404   8.719   6.750
 9356POPC   C3B76365  21.452   8.700   7.050
 9356POPC   C4B76366  21.405   8.680   7.350
 9357POPC   NC376367  35.336  40.772   5.550
 9357POPC   PO476368  35.379  40.785   5.850
 9357POPC   GL176369  35.390  40.739   6.150
 9357POPC   GL276370  35.249  40.825   6.150
 9357POPC   C1A76371  35.372  40.832   6.450
 9357POPC   D2A76372  35.371  40.763   6.750
 9357POPC   C3A76373  35.307  40.754   7.050
 9357POPC   C4A76374  35.340  40.756   7.350
 9357POPC   C1B76375  35.109  40.909   6.450
 9357POPC   C2B76376  35.172  40.895   6.750
 9357POPC   C3B76377  35.117  40.946   7.050
 9357POPC   C4B76378  35.106  40.980   7.350
 9358POPC   NC376379  14.378  31.449   5.550
 9358POPC   PO476380  14.424  31.483   5.850
 9358POPC   GL176381  14.402  31.477   6.150
 9358POPC   GL276382  14.466  31.564   6.150
 9358POPC   C1A76383  14.403  31.456   6.450
 9358POPC   D2A76384  14.401  31.519   6.750
 9358POPC   C3A76385  14.399  31.432   7.050
 9358POPC   C4A76386  14.354  31.515   7.350
 9358POPC   C1B76387  14.646  31.571   6.450
 9358POPC   C2B76388  14.619  31.552   6.750
 9358POPC   C3B76389  14.581  31.572   7.050
 9358POPC   C4B76390  14.645  31.553   7.350
 9359POPC   NC376391  29.889  33.796   5.550
 9359POPC   PO476392  29.925  33.842   5.850
 9359POPC   GL176393  29.916  33.768   6.150
 9359POPC   GL276394  30.014  33.687   6.150
 9359POPC   C1A76395  29.968  33.808   6.450
 9359POPC   D2A76396  29.903  33.786   6.750
 9359POPC   C3A76397  29.932  33.825   7.050
 9359POPC   C4A76398  29.878  33.777   7.350
 9359POPC   C1B76399  30.086  33.568   6.450
 9359POPC   C2B76400  30.114  33.624   6.750
 9359POPC   C3B76401  30.062  33.653   7.050
 9359POPC   C4B76402  30.096  33.644   7.350
 9360POPC   NC376403  19.848  43.152   5.550
 9360POPC   PO476404  19.833  43.124   5.850
 9360POPC   GL176405  19.854  43.134   6.150
 9360POPC   GL276406  19.921  43.087   6.150
 9360POPC   C1A76407  19.878  43.110   6.450
 9360POPC   D2A76408  19.833  43.094   6.750
 9360POPC   C3A76409  19.860  43.087   7.050
 9360POPC   C4A76410  19.812  43.072   7.350
 9360POPC   C1B76411  20.053  42.994   6.450
 9360POPC   C2B76412  20.019  43.001   6.750
 9360POPC   C3B76413  20.062  43.028   7.050
 9360POPC   C4B76414  20.057  43.000   7.350
 9361POPC   NC376415  25.277  32.211   5.550
 9361POPC   PO476416  25.262  32.276   5.850
 9361POPC   GL176417  25.315  32.293   6.150
 9361POPC   GL276418  25.300  32.166   6.150
 9361POPC   C1A76419  25.252  32.285   6.450
 9361POPC   D2A76420  25.285  32.267   6.750
 9361POPC   C3A76421  25.273  32.294   7.050
 9361POPC   C4A76422  25.291  32.215   7.350
 9361POPC   C1B76423  25.381  31.998   6.450
 9361POPC   C2B76424  25.392  32.013   6.750
 9361POPC   C3B76425  25.328  32.003   7.050
 9361POPC   C4B76426  25.358  31.967   7.350
 9362POPC   NC376427  19.028  10.528   5.550
 9362POPC   PO476428  19.029  10.477   5.850
 9362POPC   GL176429  19.103  10.542   6.150
 9362POPC   GL276430  19.209  10.446   6.150
 9362POPC   C1A76431  19.088  10.484   6.450
 9362POPC   D2A76432  19.069  10.532   6.750
 9362POPC   C3A76433  19.062  10.475   7.050
 9362POPC   C4A76434  19.082  10.560   7.350
 9362POPC   C1B76435  19.258  10.436   6.450
 9362POPC   C2B76436  19.294  10.498   6.750
 9362POPC   C3B76437  19.297  10.445   7.050
 9362POPC   C4B76438  19.342  10.459   7.350
 9363POPC   NC376439  19.882  28.333   5.550
 9363POPC   PO476440  19.877  28.357   5.850
 9363POPC   GL176441  19.842  28.370   6.150
 9363POPC   GL276442  19.825  28.262   6.150
 9363POPC   C1A76443  19.820  28.322   6.450
 9363POPC   D2A76444  19.794  28.382   6.750
 9363POPC   C3A76445  19.833  28.382   7.050
 9363POPC   C4A76446  19.820  28.354   7.350
 9363POPC   C1B76447  19.813  28.097   6.450
 9363POPC   C2B76448  19.864  28.139   6.750
 9363POPC   C3B76449  19.863  28.103   7.050
 9363POPC   C4B76450  19.886  28.149   7.350
 9364POPC   NC376451  38.494  10.545   5.550
 9364POPC   PO476452  38.502  10.499   5.850
 9364POPC   GL176453  38.420  10.515   6.150
 9364POPC   GL276454  38.496  10.391   6.150
 9364POPC   C1A76455  38.489  10.519   6.450
 9364POPC   D2A76456  38.469  10.504   6.750
 9364POPC   C3A76457  38.444  10.516   7.050
 9364POPC   C4A76458  38.467  10.525   7.350
 9364POPC   C1B76459  38.530  10.285   6.450
 9364POPC   C2B76460  38.482  10.325   6.750
 9364POPC   C3B76461  38.491  10.288   7.050
 9364POPC   C4B76462  38.463  10.265   7.350
 9365POPC   NC376463  16.766  16.760   5.550
 9365POPC   PO476464  16.690  16.757   5.850
 9365POPC   GL176465  16.719  16.744   6.150
 9365POPC   GL276466  16.681  16.844   6.150
 9365POPC   C1A76467  16.763  16.773   6.450
 9365POPC   D2A76468  16.749  16.688   6.750
 9365POPC   C3A76469  16.711  16.776   7.050
 9365POPC   C4A76470  16.694  16.723   7.350
 9365POPC   C1B76471  16.517  16.886   6.450
 9365POPC   C2B76472  16.528  16.942   6.750
 9365POPC   C3B76473  16.548  16.895   7.050
 9365POPC   C4B76474  16.582  16.909   7.350
 9366POPC   NC376475   4.309  36.902   5.550
 9366POPC   PO476476   4.299  36.883   5.850
 9366POPC   GL176477   4.313  36.859   6.150
 9366POPC   GL276478   4.223  36.958   6.150
 9366POPC   C1A76479   4.269  36.938   6.450
 9366POPC   D2A76480   4.335  36.918   6.750
 9366POPC   C3A76481   4.363  36.898   7.050
 9366POPC   C4A76482   4.275  36.883   7.350
 9366POPC   C1B76483   4.042  37.005   6.450
 9366POPC   C2B76484   4.069  36.950   6.750
 9366POPC   C3B76485   4.075  36.973   7.050
 9366POPC   C4B76486   4.070  37.020   7.350
 9367POPC   NC376487   1.973   6.597   5.550
 9367POPC   PO476488   2.026   6.685   5.850
 9367POPC   GL176489   2.031   6.610   6.150
 9367POPC   GL276490   2.022   6.538   6.150
 9367POPC   C1A76491   1.946   6.596   6.450
 9367POPC   D2A76492   1.964   6.631   6.750
 9367POPC   C3A76493   1.983   6.647   7.050
 9367POPC   C4A76494   1.990   6.623   7.350
 9367POPC   C1B76495   2.054   6.387   6.450
 9367POPC   C2B76496   2.046   6.368   6.750
 9367POPC   C3B76497   2.121   6.376   7.050
 9367POPC   C4B76498   2.120   6.459   7.350
 9368POPC   NC376499  40.013  33.006   5.550
 9368POPC   PO476500  40.047  33.015   5.850
 9368POPC   GL176501  40.038  33.006   6.150
 9368POPC   GL276502  40.081  33.135   6.150
 9368POPC   C1A76503  39.976  33.034   6.450
 9368POPC   D2A76504  39.990  33.054   6.750
 9368POPC   C3A76505  40.056  33.037   7.050
 9368POPC   C4A76506  39.959  33.028   7.350
 9368POPC   C1B76507  40.252  33.169   6.450
 9368POPC   C2B76508  40.191  33.203   6.750
 9368POPC   C3B76509  40.181  33.130   7.050
 9368POPC   C4B76510  40.231  33.175   7.350
 9369POPC   NC376511   9.707  14.387   5.550
 9369POPC   PO476512   9.702  14.374   5.850
 9369POPC   GL176513   9.721  14.420   6.150
 9369POPC   GL276514   9.663  14.544   6.150
 9369POPC   C1A76515   9.749  14.435   6.450
 9369POPC   D2A76516   9.783  14.395   6.750
 9369POPC   C3A76517   9.731  14.427   7.050
 9369POPC   C4A76518   9.721  14.446   7.350
 9369POPC   C1B76519   9.603  14.663   6.450
 9369POPC   C2B76520   9.652  14.604   6.750
 9369POPC   C3B76521   9.589  14.642   7.050
 9369POPC   C4B76522   9.656  14.665   7.350
 9370POPC   NC376523   5.888   9.776   5.550
 9370POPC   PO476524   5.891   9.720   5.850
 9370POPC   GL176525   5.836   9.747   6.150
 9370POPC   GL276526   5.732   9.644   6.150
 9370POPC   C1A76527   5.881   9.797   6.450
 9370POPC   D2A76528   5.864   9.706   6.750
 9370POPC   C3A76529   5.864   9.761   7.050
 9370POPC   C4A76530   5.833   9.776   7.350
 9370POPC   C1B76531   5.690   9.620   6.450
 9370POPC   C2B76532   5.611   9.607   6.750
 9370POPC   C3B76533   5.681   9.669   7.050
 9370POPC   C4B76534   5.678   9.607   7.350
 9371POPC   NC376535   9.766  32.269   5.550
 9371POPC   PO476536   9.782  32.269   5.850
 9371POPC   GL176537   9.743  32.297   6.150
 9371POPC   GL276538   9.800  32.326   6.150
 9371POPC   C1A76539   9.726  32.253   6.450
 9371POPC   D2A76540   9.721  32.239   6.750
 9371POPC   C3A76541   9.787  32.240   7.050
 9371POPC   C4A76542   9.735  32.270   7.350
 9371POPC   C1B76543   9.817  32.451   6.450
 9371POPC   C2B76544   9.847  32.475   6.750
 9371POPC   C3B76545   9.875  32.468   7.050
 9371POPC   C4B76546   9.850  32.499   7.350
 9372POPC   NC376547  42.379  33.758   5.550
 9372POPC   PO476548  42.368  33.763   5.850
 9372POPC   GL176549  42.296  33.833   6.150
 9372POPC   GL276550  42.297  33.679   6.150
 9372POPC   C1A76551  42.306  33.797   6.450
 9372POPC   D2A76552  42.333  33.767   6.750
 9372POPC   C3A76553  42.380  33.781   7.050
 9372POPC   C4A76554  42.318  33.837   7.350
 9372POPC   C1B76555  42.313  33.539   6.450
 9372POPC   C2B76556  42.354  33.522   6.750
 9372POPC   C3B76557  42.360  33.574   7.050
 9372POPC   C4B76558  42.365  33.585   7.350
 9373POPC   NC376559  20.587  40.009   5.550
 9373POPC   PO476560  20.586  40.016   5.850
 9373POPC   GL176561  20.620  39.961   6.150
 9373POPC   GL276562  20.765  39.926   6.150
 9373POPC   C1A76563  20.636  40.035   6.450
 9373POPC   D2A76564  20.615  39.975   6.750
 9373POPC   C3A76565  20.583  39.967   7.050
 9373POPC   C4A76566  20.608  40.025   7.350
 9373POPC   C1B76567  20.849  39.848   6.450
 9373POPC   C2B76568  20.815  39.921   6.750
 9373POPC   C3B76569  20.794  39.898   7.050
 9373POPC   C4B76570  20.870  39.921   7.350
 9374POPC   NC376571  29.932  23.707   5.550
 9374POPC   PO476572  29.902  23.684   5.850
 9374POPC   GL176573  29.874  23.690   6.150
 9374POPC   GL276574  29.860  23.590   6.150
 9374POPC   C1A76575  29.881  23.695   6.450
 9374POPC   D2A76576  29.903  23.689   6.750
 9374POPC   C3A76577  29.961  23.757   7.050
 9374POPC   C4A76578  29.970  23.680   7.350
 9374POPC   C1B76579  29.708  23.547   6.450
 9374POPC   C2B76580  29.717  23.567   6.750
 9374POPC   C3B76581  29.700  23.571   7.050
 9374POPC   C4B76582  29.683  23.579   7.350
 9375POPC   NC376583  40.795  26.864   5.550
 9375POPC   PO476584  40.756  26.821   5.850
 9375POPC   GL176585  40.766  26.835   6.150
 9375POPC   GL276586  40.905  26.794   6.150
 9375POPC   C1A76587  40.785  26.799   6.450
 9375POPC   D2A76588  40.823  26.789   6.750
 9375POPC   C3A76589  40.830  26.839   7.050
 9375POPC   C4A76590  40.802  26.860   7.350
 9375POPC   C1B76591  40.986  26.662   6.450
 9375POPC   C2B76592  40.994  26.638   6.750
 9375POPC   C3B76593  40.969  26.678   7.050
 9375POPC   C4B76594  40.992  26.656   7.350
 9376POPC   NC376595  29.873  29.924   5.550
 9376POPC   PO476596  29.960  29.921   5.850
 9376POPC   GL176597  29.962  29.922   6.150
 9376POPC   GL276598  30.009  29.876   6.150
 9376POPC   C1A76599  29.911  29.900   6.450
 9376POPC   D2A76600  29.903  29.901   6.750
 9376POPC   C3A76601  29.872  29.873   7.050
 9376POPC   C4A76602  29.927  29.883   7.350
 9376POPC   C1B76603  30.165  29.881   6.450
 9376POPC   C2B76604  30.129  29.900   6.750
 9376POPC   C3B76605  30.150  29.831   7.050
 9376POPC   C4B76606  30.128  29.871   7.350
 9377POPC   NC376607   8.194   3.541   5.550
 9377POPC   PO476608   8.166   3.505   5.850
 9377POPC   GL176609   8.177   3.525   6.150
 9377POPC   GL276610   8.033   3.545   6.150
 9377POPC   C1A76611   8.155   3.503   6.450
 9377POPC   D2A76612   8.234   3.523   6.750
 9377POPC   C3A76613   8.235   3.517   7.050
 9377POPC   C4A76614   8.147   3.552   7.350
 9377POPC   C1B76615   7.904   3.601   6.450
 9377POPC   C2B76616   7.948   3.616   6.750
 9377POPC   C3B76617   7.932   3.546   7.050
 9377POPC   C4B76618   7.970   3.560   7.350
 9378POPC   NC376619   5.871  22.159   5.550
 9378POPC   PO476620   5.859  22.169   5.850
 9378POPC   GL176621   5.826  22.195   6.150
 9378POPC   GL276622   5.742  22.189   6.150
 9378POPC   C1A76623   5.916  22.130   6.450
 9378POPC   D2A76624   5.881  22.122   6.750
 9378POPC   C3A76625   5.823  22.161   7.050
 9378POPC   C4A76626   5.851  22.117   7.350
 9378POPC   C1B76627   5.684  22.305   6.450
 9378POPC   C2B76628   5.622  22.289   6.750
 9378POPC   C3B76629   5.617  22.300   7.050
 9378POPC   C4B76630   5.656  22.281   7.350
 9379POPC   NC376631  31.428   4.314   5.550
 9379POPC   PO476632  31.498   4.277   5.850
 9379POPC   GL176633  31.462   4.354   6.150
 9379POPC   GL276634  31.464   4.437   6.150
 9379POPC   C1A76635  31.520   4.292   6.450
 9379POPC   D2A76636  31.483   4.330   6.750
 9379POPC   C3A76637  31.463   4.281   7.050
 9379POPC   C4A76638  31.504   4.346   7.350
 9379POPC   C1B76639  31.371   4.577   6.450
 9379POPC   C2B76640  31.318   4.560   6.750
 9379POPC   C3B76641  31.348   4.549   7.050
 9379POPC   C4B76642  31.371   4.514   7.350
 9380POPC   NC376643  36.891   5.134   5.550
 9380POPC   PO476644  36.937   5.073   5.850
 9380POPC   GL176645  36.879   5.123   6.150
 9380POPC   GL276646  36.981   5.130   6.150
 9380POPC   C1A76647  36.931   5.133   6.450
 9380POPC   D2A76648  36.908   5.137   6.750
 9380POPC   C3A76649  36.916   5.123   7.050
 9380POPC   C4A76650  36.886   5.122   7.350
 9380POPC   C1B76651  37.113   5.150   6.450
 9380POPC   C2B76652  37.143   5.124   6.750
 9380POPC   C3B76653  37.195   5.168   7.050
 9380POPC   C4B76654  37.101   5.133   7.350
 9381POPC   NC376655  12.861  13.578   5.550
 9381POPC   PO476656  12.802  13.619   5.850
 9381POPC   GL176657  12.828  13.639   6.150
 9381POPC   GL276658  12.806  13.460   6.150
 9381POPC   C1A76659  12.850  13.618   6.450
 9381POPC   D2A76660  12.868  13.642   6.750
 9381POPC   C3A76661  12.833  13.639   7.050
 9381POPC   C4A76662  12.891  13.661   7.350
 9381POPC   C1B76663  12.881  13.426   6.450
 9381POPC   C2B76664  12.875  13.348   6.750
 9381POPC   C3B76665  12.850  13.417   7.050
 9381POPC   C4B76666  12.818  13.410   7.350
 9382POPC   NC376667  33.058  35.378   5.550
 9382POPC   PO476668  33.056  35.364   5.850
 9382POPC   GL176669  32.980  35.373   6.150
 9382POPC   GL276670  33.184  35.340   6.150
 9382POPC   C1A76671  33.017  35.358   6.450
 9382POPC   D2A76672  33.052  35.387   6.750
 9382POPC   C3A76673  32.994  35.336   7.050
 9382POPC   C4A76674  33.065  35.345   7.350
 9382POPC   C1B76675  33.237  35.371   6.450
 9382POPC   C2B76676  33.224  35.449   6.750
 9382POPC   C3B76677  33.255  35.402   7.050
 9382POPC   C4B76678  33.248  35.402   7.350
 9383POPC   NC376679   6.671   3.515   5.550
 9383POPC   PO476680   6.608   3.515   5.850
 9383POPC   GL176681   6.649   3.496   6.150
 9383POPC   GL276682   6.733   3.477   6.150
 9383POPC   C1A76683   6.654   3.590   6.450
 9383POPC   D2A76684   6.650   3.497   6.750
 9383POPC   C3A76685   6.604   3.556   7.050
 9383POPC   C4A76686   6.669   3.565   7.350
 9383POPC   C1B76687   6.921   3.414   6.450
 9383POPC   C2B76688   6.846   3.457   6.750
 9383POPC   C3B76689   6.847   3.476   7.050
 9383POPC   C4B76690   6.873   3.423   7.350
 9384POPC   NC376691   7.440  24.495   5.550
 9384POPC   PO476692   7.463  24.518   5.850
 9384POPC   GL176693   7.441  24.459   6.150
 9384POPC   GL276694   7.404  24.393   6.150
 9384POPC   C1A76695   7.386  24.475   6.450
 9384POPC   D2A76696   7.392  24.526   6.750
 9384POPC   C3A76697   7.393  24.478   7.050
 9384POPC   C4A76698   7.399  24.471   7.350
 9384POPC   C1B76699   7.347  24.261   6.450
 9384POPC   C2B76700   7.338  24.248   6.750
 9384POPC   C3B76701   7.356  24.249   7.050
 9384POPC   C4B76702   7.334  24.239   7.350
 9385POPC   NC376703  22.980  22.900   5.550
 9385POPC   PO476704  22.917  22.982   5.850
 9385POPC   GL176705  22.960  22.927   6.150
 9385POPC   GL276706  22.853  23.050   6.150
 9385POPC   C1A76707  22.913  22.955   6.450
 9385POPC   D2A76708  22.903  22.896   6.750
 9385POPC   C3A76709  22.973  22.937   7.050
 9385POPC   C4A76710  22.982  22.983   7.350
 9385POPC   C1B76711  22.738  23.077   6.450
 9385POPC   C2B76712  22.744  23.104   6.750
 9385POPC   C3B76713  22.682  23.112   7.050
 9385POPC   C4B76714  22.724  23.051   7.350
 9386POPC   NC376715   0.466  14.423   5.550
 9386POPC   PO476716   0.431  14.377   5.850
 9386POPC   GL176717   0.418  14.417   6.150
 9386POPC   GL276718   0.517  14.284   6.150
 9386POPC   C1A76719   0.420  14.358   6.450
 9386POPC   D2A76720   0.416  14.442   6.750
 9386POPC   C3A76721   0.423  14.386   7.050
 9386POPC   C4A76722   0.395  14.379   7.350
 9386POPC   C1B76723   0.534  14.189   6.450
 9386POPC   C2B76724   0.498  14.148   6.750
 9386POPC   C3B76725   0.477  14.198   7.050
 9386POPC   C4B76726   0.453  14.188   7.350
 9387POPC   NC376727  26.057  30.658   5.550
 9387POPC   PO476728  26.062  30.667   5.850
 9387POPC   GL176729  26.090  30.726   6.150
 9387POPC   GL276730  26.029  30.812   6.150
 9387POPC   C1A76731  26.079  30.745   6.450
 9387POPC   D2A76732  25.992  30.655   6.750
 9387POPC   C3A76733  26.070  30.653   7.050
 9387POPC   C4A76734  26.062  30.715   7.350
 9387POPC   C1B76735  25.954  30.942   6.450
 9387POPC   C2B76736  26.042  30.990   6.750
 9387POPC   C3B76737  25.957  30.931   7.050
 9387POPC   C4B76738  25.991  30.907   7.350
 9388POPC   NC376739  38.458   4.316   5.550
 9388POPC   PO476740  38.473   4.270   5.850
 9388POPC   GL176741  38.459   4.344   6.150
 9388POPC   GL276742  38.535   4.234   6.150
 9388POPC   C1A76743  38.443   4.311   6.450
 9388POPC   D2A76744  38.416   4.349   6.750
 9388POPC   C3A76745  38.497   4.305   7.050
 9388POPC   C4A76746  38.437   4.317   7.350
 9388POPC   C1B76747  38.535   4.080   6.450
 9388POPC   C2B76748  38.594   4.087   6.750
 9388POPC   C3B76749  38.587   4.063   7.050
 9388POPC   C4B76750  38.552   4.136   7.350
 9389POPC   NC376751   5.070  43.933   5.550
 9389POPC   PO476752   5.109  43.864   5.850
 9389POPC   GL176753   5.053  43.881   6.150
 9389POPC   GL276754   5.073  43.810   6.150
 9389POPC   C1A76755   5.141  43.913   6.450
 9389POPC   D2A76756   5.063  43.904   6.750
 9389POPC   C3A76757   5.121  43.882   7.050
 9389POPC   C4A76758   5.114  43.848   7.350
 9389POPC   C1B76759   5.092  43.605   6.450
 9389POPC   C2B76760   5.105  43.668   6.750
 9389POPC   C3B76761   5.039  43.664   7.050
 9389POPC   C4B76762   5.061  43.655   7.350
 9390POPC   NC376763  15.167  12.899   5.550
 9390POPC   PO476764  15.131  12.846   5.850
 9390POPC   GL176765  15.199  12.819   6.150
 9390POPC   GL276766  15.049  12.880   6.150
 9390POPC   C1A76767  15.205  12.880   6.450
 9390POPC   D2A76768  15.206  12.900   6.750
 9390POPC   C3A76769  15.133  12.858   7.050
 9390POPC   C4A76770  15.167  12.832   7.350
 9390POPC   C1B76771  14.887  12.857   6.450
 9390POPC   C2B76772  14.897  12.845   6.750
 9390POPC   C3B76773  14.902  12.906   7.050
 9390POPC   C4B76774  14.975  12.923   7.350
 9391POPC   NC376775  36.094  31.465   5.550
 9391POPC   PO476776  36.174  31.478   5.850
 9391POPC   GL176777  36.111  31.435   6.150
 9391POPC   GL276778  36.153  31.356   6.150
 9391POPC   C1A76779  36.124  31.456   6.450
 9391POPC   D2A76780  36.171  31.454   6.750
 9391POPC   C3A76781  36.120  31.506   7.050
 9391POPC   C4A76782  36.099  31.441   7.350
 9391POPC   C1B76783  36.187  31.286   6.450
 9391POPC   C2B76784  36.236  31.253   6.750
 9391POPC   C3B76785  36.207  31.269   7.050
 9391POPC   C4B76786  36.246  31.211   7.350
 9392POPC   NC376787  38.493  37.656   5.550
 9392POPC   PO476788  38.427  37.648   5.850
 9392POPC   GL176789  38.443  37.694   6.150
 9392POPC   GL276790  38.579  37.653   6.150
 9392POPC   C1A76791  38.498  37.701   6.450
 9392POPC   D2A76792  38.472  37.687   6.750
 9392POPC   C3A76793  38.427  37.685   7.050
 9392POPC   C4A76794  38.427  37.674   7.350
 9392POPC   C1B76795  38.706  37.737   6.450
 9392POPC   C2B76796  38.727  37.702   6.750
 9392POPC   C3B76797  38.657  37.741   7.050
 9392POPC   C4B76798  38.690  37.723   7.350
 9393POPC   NC376799  21.356  29.181   5.550
 9393POPC   PO476800  21.365  29.120   5.850
 9393POPC   GL176801  21.404  29.104   6.150
 9393POPC   GL276802  21.265  29.043   6.150
 9393POPC   C1A76803  21.338  29.104   6.450
 9393POPC   D2A76804  21.401  29.107   6.750
 9393POPC   C3A76805  21.416  29.194   7.050
 9393POPC   C4A76806  21.352  29.153   7.350
 9393POPC   C1B76807  21.184  29.037   6.450
 9393POPC   C2B76808  21.126  29.009   6.750
 9393POPC   C3B76809  21.157  29.025   7.050
 9393POPC   C4B76810  21.136  29.045   7.350
 9394POPC   NC376811  15.200  14.362   5.550
 9394POPC   PO476812  15.176  14.364   5.850
 9394POPC   GL176813  15.226  14.355   6.150
 9394POPC   GL276814  15.309  14.450   6.150
 9394POPC   C1A76815  15.161  14.378   6.450
 9394POPC   D2A76816  15.224  14.366   6.750
 9394POPC   C3A76817  15.203  14.379   7.050
 9394POPC   C4A76818  15.212  14.356   7.350
 9394POPC   C1B76819  15.322  14.537   6.450
 9394POPC   C2B76820  15.379  14.535   6.750
 9394POPC   C3B76821  15.319  14.553   7.050
 9394POPC   C4B76822  15.313  14.545   7.350
 9395POPC   NC376823   9.760  22.925   5.550
 9395POPC   PO476824   9.766  22.893   5.850
 9395POPC   GL176825   9.729  22.921   6.150
 9395POPC   GL276826   9.877  23.019   6.150
 9395POPC   C1A76827   9.727  22.934   6.450
 9395POPC   D2A76828   9.786  22.928   6.750
 9395POPC   C3A76829   9.787  22.939   7.050
 9395POPC   C4A76830   9.701  22.985   7.350
 9395POPC   C1B76831   9.882  23.097   6.450
 9395POPC   C2B76832   9.958  23.145   6.750
 9395POPC   C3B76833   9.892  23.151   7.050
 9395POPC   C4B76834   9.953  23.134   7.350
 9396POPC   NC376835  12.054  32.990   5.550
 9396POPC   PO476836  12.058  33.009   5.850
 9396POPC   GL176837  12.118  33.039   6.150
 9396POPC   GL276838  12.127  32.911   6.150
 9396POPC   C1A76839  12.122  33.055   6.450
 9396POPC   D2A76840  12.082  33.009   6.750
 9396POPC   C3A76841  12.063  33.072   7.050
 9396POPC   C4A76842  12.050  32.983   7.350
 9396POPC   C1B76843  12.157  32.762   6.450
 9396POPC   C2B76844  12.126  32.795   6.750
 9396POPC   C3B76845  12.180  32.792   7.050
 9396POPC   C4B76846  12.094  32.786   7.350
 9397POPC   NC376847   1.205   6.636   5.550
 9397POPC   PO476848   1.260   6.660   5.850
 9397POPC   GL176849   1.181   6.615   6.150
 9397POPC   GL276850   1.077   6.698   6.150
 9397POPC   C1A76851   1.263   6.686   6.450
 9397POPC   D2A76852   1.258   6.669   6.750
 9397POPC   C3A76853   1.231   6.620   7.050
 9397POPC   C4A76854   1.244   6.605   7.350
 9397POPC   C1B76855   1.000   6.757   6.450
 9397POPC   C2B76856   0.994   6.775   6.750
 9397POPC   C3B76857   1.015   6.714   7.050
 9397POPC   C4B76858   1.015   6.717   7.350
 9398POPC   NC376859  40.006  32.265   5.550
 9398POPC   PO476860  40.034  32.240   5.850
 9398POPC   GL176861  40.021  32.224   6.150
 9398POPC   GL276862  39.995  32.109   6.150
 9398POPC   C1A76863  39.963  32.229   6.450
 9398POPC   D2A76864  39.965  32.253   6.750
 9398POPC   C3A76865  39.965  32.284   7.050
 9398POPC   C4A76866  39.968  32.246   7.350
 9398POPC   C1B76867  39.942  32.033   6.450
 9398POPC   C2B76868  39.923  32.015   6.750
 9398POPC   C3B76869  39.937  32.017   7.050
 9398POPC   C4B76870  39.880  32.021   7.350
 9399POPC   NC376871  24.442  19.822   5.550
 9399POPC   PO476872  24.481  19.882   5.850
 9399POPC   GL176873  24.450  19.867   6.150
 9399POPC   GL276874  24.489  19.921   6.150
 9399POPC   C1A76875  24.526  19.840   6.450
 9399POPC   D2A76876  24.518  19.858   6.750
 9399POPC   C3A76877  24.526  19.883   7.050
 9399POPC   C4A76878  24.490  19.844   7.350
 9399POPC   C1B76879  24.423  20.074   6.450
 9399POPC   C2B76880  24.479  20.107   6.750
 9399POPC   C3B76881  24.407  20.042   7.050
 9399POPC   C4B76882  24.463  20.056   7.350
 9400POPC   NC376883   3.509  29.954   5.550
 9400POPC   PO476884   3.569  29.884   5.850
 9400POPC   GL176885   3.583  29.962   6.150
 9400POPC   GL276886   3.617  29.974   6.150
 9400POPC   C1A76887   3.526  29.931   6.450
 9400POPC   D2A76888   3.551  29.946   6.750
 9400POPC   C3A76889   3.539  29.917   7.050
 9400POPC   C4A76890   3.551  29.967   7.350
 9400POPC   C1B76891   3.796  30.032   6.450
 9400POPC   C2B76892   3.775  30.049   6.750
 9400POPC   C3B76893   3.738  30.028   7.050
 9400POPC   C4B76894   3.717  30.082   7.350
 9401POPC   NC376895   1.180  12.844   5.550
 9401POPC   PO476896   1.170  12.899   5.850
 9401POPC   GL176897   1.211  12.822   6.150
 9401POPC   GL276898   1.110  12.861   6.150
 9401POPC   C1A76899   1.244  12.891   6.450
 9401POPC   D2A76900   1.219  12.869   6.750
 9401POPC   C3A76901   1.194  12.846   7.050
 9401POPC   C4A76902   1.262  12.824   7.350
 9401POPC   C1B76903   0.944  12.854   6.450
 9401POPC   C2B76904   0.920  12.909   6.750
 9401POPC   C3B76905   0.987  12.830   7.050
 9401POPC   C4B76906   0.933  12.864   7.350
 9402POPC   NC376907   5.832  15.919   5.550
 9402POPC   PO476908   5.824  15.921   5.850
 9402POPC   GL176909   5.861  15.995   6.150
 9402POPC   GL276910   5.989  16.006   6.150
 9402POPC   C1A76911   5.906  15.992   6.450
 9402POPC   D2A76912   5.842  15.944   6.750
 9402POPC   C3A76913   5.906  15.999   7.050
 9402POPC   C4A76914   5.907  15.973   7.350
 9402POPC   C1B76915   6.114  16.111   6.450
 9402POPC   C2B76916   6.043  16.065   6.750
 9402POPC   C3B76917   6.111  16.070   7.050
 9402POPC   C4B76918   6.069  16.070   7.350
 9403POPC   NC376919  19.848  37.642   5.550
 9403POPC   PO476920  19.873  37.714   5.850
 9403POPC   GL176921  19.800  37.685   6.150
 9403POPC   GL276922  19.726  37.801   6.150
 9403POPC   C1A76923  19.795  37.631   6.450
 9403POPC   D2A76924  19.866  37.676   6.750
 9403POPC   C3A76925  19.842  37.656   7.050
 9403POPC   C4A76926  19.837  37.655   7.350
 9403POPC   C1B76927  19.645  37.845   6.450
 9403POPC   C2B76928  19.654  37.841   6.750
 9403POPC   C3B76929  19.653  37.838   7.050
 9403POPC   C4B76930  19.660  37.901   7.350
 9404POPC   NC376931  39.243   8.219   5.550
 9404POPC   PO476932  39.267   8.196   5.850
 9404POPC   GL176933  39.203   8.191   6.150
 9404POPC   GL276934  39.120   8.205   6.150
 9404POPC   C1A76935  39.203   8.221   6.450
 9404POPC   D2A76936  39.206   8.152   6.750
 9404POPC   C3A76937  39.240   8.175   7.050
 9404POPC   C4A76938  39.202   8.208   7.350
 9404POPC   C1B76939  39.018   8.274   6.450
 9404POPC   C2B76940  38.981   8.229   6.750
 9404POPC   C3B76941  39.017   8.229   7.050
 9404POPC   C4B76942  38.961   8.224   7.350
 9405POPC   NC376943  36.126  32.226   5.550
 9405POPC   PO476944  36.084  32.231   5.850
 9405POPC   GL176945  36.078  32.270   6.150
 9405POPC   GL276946  36.033  32.130   6.150
 9405POPC   C1A76947  36.168  32.265   6.450
 9405POPC   D2A76948  36.095  32.265   6.750
 9405POPC   C3A76949  36.089  32.253   7.050
 9405POPC   C4A76950  36.118  32.246   7.350
 9405POPC   C1B76951  35.973  32.143   6.450
 9405POPC   C2B76952  35.916  32.126   6.750
 9405POPC   C3B76953  35.900  32.114   7.050
 9405POPC   C4B76954  35.918  32.093   7.350
 9406POPC   NC376955  41.589   1.233   5.550
 9406POPC   PO476956  41.543   1.212   5.850
 9406POPC   GL176957  41.605   1.188   6.150
 9406POPC   GL276958  41.577   1.381   6.150
 9406POPC   C1A76959  41.585   1.210   6.450
 9406POPC   D2A76960  41.537   1.249   6.750
 9406POPC   C3A76961  41.581   1.231   7.050
 9406POPC   C4A76962  41.598   1.235   7.350
 9406POPC   C1B76963  41.632   1.425   6.450
 9406POPC   C2B76964  41.618   1.408   6.750
 9406POPC   C3B76965  41.588   1.494   7.050
 9406POPC   C4B76966  41.651   1.438   7.350
 9407POPC   NC376967  36.916  29.912   5.550
 9407POPC   PO476968  36.857  29.927   5.850
 9407POPC   GL176969  36.951  29.949   6.150
 9407POPC   GL276970  36.797  29.970   6.150
 9407POPC   C1A76971  36.942  29.917   6.450
 9407POPC   D2A76972  36.869  29.954   6.750
 9407POPC   C3A76973  36.864  29.930   7.050
 9407POPC   C4A76974  36.923  29.928   7.350
 9407POPC   C1B76975  36.689  29.984   6.450
 9407POPC   C2B76976  36.623  30.003   6.750
 9407POPC   C3B76977  36.664  29.951   7.050
 9407POPC   C4B76978  36.673  29.953   7.350
 9408POPC   NC376979  39.223   2.025   5.550
 9408POPC   PO476980  39.183   1.976   5.850
 9408POPC   GL176981  39.258   1.954   6.150
 9408POPC   GL276982  39.135   1.990   6.150
 9408POPC   C1A76983  39.218   2.039   6.450
 9408POPC   D2A76984  39.201   1.942   6.750
 9408POPC   C3A76985  39.193   2.026   7.050
 9408POPC   C4A76986  39.206   2.018   7.350
 9408POPC   C1B76987  38.966   1.864   6.450
 9408POPC   C2B76988  39.023   1.887   6.750
 9408POPC   C3B76989  39.024   1.887   7.050
 9408POPC   C4B76990  39.001   1.890   7.350
 9409POPC   NC376991  12.071  24.496   5.550
 9409POPC   PO476992  12.064  24.466   5.850
 9409POPC   GL176993  12.105  24.489   6.150
 9409POPC   GL276994  12.170  24.521   6.150
 9409POPC   C1A76995  12.036  24.510   6.450
 9409POPC   D2A76996  12.083  24.480   6.750
 9409POPC   C3A76997  12.116  24.483   7.050
 9409POPC   C4A76998  12.106  24.471   7.350
 9409POPC   C1B76999  12.362  24.516   6.450
 9409POPC   C2B77000  12.351  24.567   6.750
 9409POPC   C3B77001  12.325  24.532   7.050
 9409POPC   C4B77002  12.274  24.562   7.350
 9410POPC   NC377003  28.379  16.694   5.550
 9410POPC   PO477004  28.395  16.711   5.850
 9410POPC   GL177005  28.337  16.762   6.150
 9410POPC   GL277006  28.259  16.847   6.150
 9410POPC   C1A77007  28.379  16.746   6.450
 9410POPC   D2A77008  28.341  16.778   6.750
 9410POPC   C3A77009  28.347  16.710   7.050
 9410POPC   C4A77010  28.404  16.732   7.350
 9410POPC   C1B77011  28.137  16.903   6.450
 9410POPC   C2B77012  28.214  16.934   6.750
 9410POPC   C3B77013  28.190  16.914   7.050
 9410POPC   C4B77014  28.134  16.858   7.350
 9411POPC   NC377015  34.539  26.046   5.550
 9411POPC   PO477016  34.551  26.034   5.850
 9411POPC   GL177017  34.554  26.076   6.150
 9411POPC   GL277018  34.410  26.056   6.150
 9411POPC   C1A77019  34.589  26.033   6.450
 9411POPC   D2A77020  34.591  26.048   6.750
 9411POPC   C3A77021  34.570  26.088   7.050
 9411POPC   C4A77022  34.622  26.075   7.350
 9411POPC   C1B77023  34.368  26.105   6.450
 9411POPC   C2B77024  34.322  26.103   6.750
 9411POPC   C3B77025  34.307  26.030   7.050
 9411POPC   C4B77026  34.325  26.052   7.350
 9412POPC   NC377027  43.133  22.943   5.550
 9412POPC   PO477028  43.083  22.921   5.850
 9412POPC   GL177029  43.114  22.975   6.150
 9412POPC   GL277030  43.167  22.859   6.150
 9412POPC   C1A77031  43.117  22.982   6.450
 9412POPC   D2A77032  43.077  22.950   6.750
 9412POPC   C3A77033  43.063  22.897   7.050
 9412POPC   C4A77034  43.143  22.914   7.350
 9412POPC   C1B77035  43.124  22.680   6.450
 9412POPC   C2B77036  43.186  22.680   6.750
 9412POPC   C3B77037  43.160  22.687   7.050
 9412POPC   C4B77038  43.154  22.735   7.350
 9413POPC   NC377039  23.749   6.662   5.550
 9413POPC   PO477040  23.731   6.638   5.850
 9413POPC   GL177041  23.703   6.615   6.150
 9413POPC   GL277042  23.626   6.609   6.150
 9413POPC   C1A77043  23.734   6.603   6.450
 9413POPC   D2A77044  23.714   6.617   6.750
 9413POPC   C3A77045  23.698   6.633   7.050
 9413POPC   C4A77046  23.673   6.629   7.350
 9413POPC   C1B77047  23.496   6.614   6.450
 9413POPC   C2B77048  23.434   6.619   6.750
 9413POPC   C3B77049  23.456   6.694   7.050
 9413POPC   C4B77050  23.494   6.678   7.350
 9414POPC   NC377051  37.696  29.924   5.550
 9414POPC   PO477052  37.639  29.913   5.850
 9414POPC   GL177053  37.702  29.951   6.150
 9414POPC   GL277054  37.705  30.066   6.150
 9414POPC   C1A77055  37.661  29.957   6.450
 9414POPC   D2A77056  37.644  29.922   6.750
 9414POPC   C3A77057  37.651  29.895   7.050
 9414POPC   C4A77058  37.656  29.894   7.350
 9414POPC   C1B77059  37.797  30.140   6.450
 9414POPC   C2B77060  37.802  30.162   6.750
 9414POPC   C3B77061  37.823  30.191   7.050
 9414POPC   C4B77062  37.784  30.154   7.350
 9415POPC   NC377063  26.835  18.302   5.550
 9415POPC   PO477064  26.810  18.328   5.850
 9415POPC   GL177065  26.842  18.279   6.150
 9415POPC   GL277066  26.974  18.215   6.150
 9415POPC   C1A77067  26.815  18.275   6.450
 9415POPC   D2A77068  26.851  18.286   6.750
 9415POPC   C3A77069  26.776  18.243   7.050
 9415POPC   C4A77070  26.834  18.285   7.350
 9415POPC   C1B77071  27.046  18.186   6.450
 9415POPC   C2B77072  27.030  18.159   6.750
 9415POPC   C3B77073  27.082  18.189   7.050
 9415POPC   C4B77074  27.041  18.179   7.350
 9416POPC   NC377075   0.397   1.205   5.550
 9416POPC   PO477076   0.440   1.258   5.850
 9416POPC   GL177077   0.474   1.256   6.150
 9416POPC   GL277078   0.375   1.269   6.150
 9416POPC   C1A77079   0.478   1.190   6.450
 9416POPC   D2A77080   0.388   1.235   6.750
 9416POPC   C3A77081   0.474   1.214   7.050
 9416POPC   C4A77082   0.450   1.226   7.350
 9416POPC   C1B77083   0.223   1.357   6.450
 9416POPC   C2B77084   0.262   1.330   6.750
 9416POPC   C3B77085   0.255   1.390   7.050
 9416POPC   C4B77086   0.254   1.337   7.350
 9417POPC   NC377087  17.528   2.774   5.550
 9417POPC   PO477088  17.528   2.719   5.850
 9417POPC   GL177089  17.524   2.794   6.150
 9417POPC   GL277090  17.558   2.890   6.150
 9417POPC   C1A77091  17.529   2.761   6.450
 9417POPC   D2A77092  17.554   2.794   6.750
 9417POPC   C3A77093  17.471   2.750   7.050
 9417POPC   C4A77094  17.520   2.805   7.350
 9417POPC   C1B77095  17.576   3.037   6.450
 9417POPC   C2B77096  17.551   3.021   6.750
 9417POPC   C3B77097  17.540   3.026   7.050
 9417POPC   C4B77098  17.592   2.994   7.350
 9418POPC   NC377099  12.887  42.319   5.550
 9418POPC   PO477100  12.823  42.375   5.850
 9418POPC   GL177101  12.820  42.339   6.150
 9418POPC   GL277102  12.932  42.258   6.150
 9418POPC   C1A77103  12.868  42.304   6.450
 9418POPC   D2A77104  12.887  42.321   6.750
 9418POPC   C3A77105  12.854  42.377   7.050
 9418POPC   C4A77106  12.823  42.324   7.350
 9418POPC   C1B77107  12.995  42.128   6.450
 9418POPC   C2B77108  12.977  42.117   6.750
 9418POPC   C3B77109  12.988  42.168   7.050
 9418POPC   C4B77110  13.035  42.163   7.350
 9419POPC   NC377111  27.551  39.280   5.550
 9419POPC   PO477112  27.610  39.255   5.850
 9419POPC   GL177113  27.569  39.186   6.150
 9419POPC   GL277114  27.669  39.119   6.150
 9419POPC   C1A77115  27.558  39.197   6.450
 9419POPC   D2A77116  27.580  39.195   6.750
 9419POPC   C3A77117  27.571  39.233   7.050
 9419POPC   C4A77118  27.546  39.238   7.350
 9419POPC   C1B77119  27.768  39.036   6.450
 9419POPC   C2B77120  27.767  39.052   6.750
 9419POPC   C3B77121  27.787  39.033   7.050
 9419POPC   C4B77122  27.748  39.062   7.350
 9420POPC   NC377123   0.425   5.893   5.550
 9420POPC   PO477124   0.428   5.867   5.850
 9420POPC   GL177125   0.406   5.905   6.150
 9420POPC   GL277126   0.348   5.756   6.150
 9420POPC   C1A77127   0.407   5.866   6.450
 9420POPC   D2A77128   0.416   5.898   6.750
 9420POPC   C3A77129   0.419   5.828   7.050
 9420POPC   C4A77130   0.429   5.909   7.350
 9420POPC   C1B77131   0.264   5.689   6.450
 9420POPC   C2B77132   0.296   5.660   6.750
 9420POPC   C3B77133   0.262   5.665   7.050
 9420POPC   C4B77134   0.285   5.647   7.350
 9421POPC   NC377135   1.246  37.714   5.550
 9421POPC   PO477136   1.258  37.700   5.850
 9421POPC   GL177137   1.236  37.687   6.150
 9421POPC   GL277138   1.301  37.747   6.150
 9421POPC   C1A77139   1.199  37.647   6.450
 9421POPC   D2A77140   1.205  37.692   6.750
 9421POPC   C3A77141   1.244  37.650   7.050
 9421POPC   C4A77142   1.198  37.711   7.350
 9421POPC   C1B77143   1.318  37.843   6.450
 9421POPC   C2B77144   1.372  37.874   6.750
 9421POPC   C3B77145   1.364  37.914   7.050
 9421POPC   C4B77146   1.311  37.902   7.350
 9422POPC   NC377147   5.845  37.688   5.550
 9422POPC   PO477148   5.910  37.646   5.850
 9422POPC   GL177149   5.856  37.631   6.150
 9422POPC   GL277150   5.827  37.583   6.150
 9422POPC   C1A77151   5.893  37.656   6.450
 9422POPC   D2A77152   5.902  37.725   6.750
 9422POPC   C3A77153   5.880  37.653   7.050
 9422POPC   C4A77154   5.917  37.641   7.350
 9422POPC   C1B77155   5.679  37.524   6.450
 9422POPC   C2B77156   5.650  37.453   6.750
 9422POPC   C3B77157   5.647  37.503   7.050
 9422POPC   C4B77158   5.727  37.533   7.350
 9423POPC   NC377159  36.921  20.583   5.550
 9423POPC   PO477160  36.877  20.598   5.850
 9423POPC   GL177161  36.921  20.570   6.150
 9423POPC   GL277162  36.785  20.700   6.150
 9423POPC   C1A77163  36.862  20.617   6.450
 9423POPC   D2A77164  36.922  20.621   6.750
 9423POPC   C3A77165  36.868  20.594   7.050
 9423POPC   C4A77166  36.943  20.633   7.350
 9423POPC   C1B77167  36.775  20.763   6.450
 9423POPC   C2B77168  36.746  20.826   6.750
 9423POPC   C3B77169  36.763  20.819   7.050
 9423POPC   C4B77170  36.710  20.846   7.350
 9424POPC   NC377171  19.824  26.030   5.550
 9424POPC   PO477172  19.832  26.044   5.850
 9424POPC   GL177173  19.853  26.090   6.150
 9424POPC   GL277174  19.689  26.119   6.150
 9424POPC   C1A77175  19.860  26.019   6.450
 9424POPC   D2A77176  19.819  25.992   6.750
 9424POPC   C3A77177  19.845  26.063   7.050
 9424POPC   C4A77178  19.821  26.019   7.350
 9424POPC   C1B77179  19.596  26.193   6.450
 9424POPC   C2B77180  19.632  26.150   6.750
 9424POPC   C3B77181  19.620  26.130   7.050
 9424POPC   C4B77182  19.577  26.157   7.350
 9425POPC   NC377183  20.591  36.152   5.550
 9425POPC   PO477184  20.614  36.173   5.850
 9425POPC   GL177185  20.650  36.119   6.150
 9425POPC   GL277186  20.561  36.206   6.150
 9425POPC   C1A77187  20.652  36.161   6.450
 9425POPC   D2A77188  20.590  36.177   6.750
 9425POPC   C3A77189  20.591  36.108   7.050
 9425POPC   C4A77190  20.605  36.167   7.350
 9425POPC   C1B77191  20.367  36.316   6.450
 9425POPC   C2B77192  20.425  36.300   6.750
 9425POPC   C3B77193  20.402  36.325   7.050
 9425POPC   C4B77194  20.389  36.291   7.350
 9426POPC   NC377195  22.950   0.480   5.550
 9426POPC   PO477196  22.977   0.421   5.850
 9426POPC   GL177197  22.983   0.457   6.150
 9426POPC   GL277198  22.851   0.399   6.150
 9426POPC   C1A77199  22.972   0.448   6.450
 9426POPC   D2A77200  22.904   0.431   6.750
 9426POPC   C3A77201  22.931   0.472   7.050
 9426POPC   C4A77202  22.908   0.452   7.350
 9426POPC   C1B77203  22.782   0.326   6.450
 9426POPC   C2B77204  22.719   0.327   6.750
 9426POPC   C3B77205  22.692   0.301   7.050
 9426POPC   C4B77206  22.712   0.253   7.350
 9427POPC   NC377207  44.709   8.239   5.550
 9427POPC   PO477208  44.615   8.151   5.850
 9427POPC   GL177209  44.636   8.194   6.150
 9427POPC   GL277210  44.551   8.298   6.150
 9427POPC   C1A77211  44.648   8.192   6.450
 9427POPC   D2A77212  44.640   8.245   6.750
 9427POPC   C3A77213  44.663   8.197   7.050
 9427POPC   C4A77214  44.665   8.182   7.350
 9427POPC   C1B77215  44.486   8.370   6.450
 9427POPC   C2B77216  44.543   8.423   6.750
 9427POPC   C3B77217  44.510   8.433   7.050
 9427POPC   C4B77218  44.542   8.411   7.350
 9428POPC   NC377219  33.794   9.718   5.550
 9428POPC   PO477220  33.789   9.784   5.850
 9428POPC   GL177221  33.814   9.795   6.150
 9428POPC   GL277222  33.753   9.634   6.150
 9428POPC   C1A77223  33.838   9.765   6.450
 9428POPC   D2A77224  33.814   9.773   6.750
 9428POPC   C3A77225  33.766   9.750   7.050
 9428POPC   C4A77226  33.809   9.778   7.350
 9428POPC   C1B77227  33.737   9.532   6.450
 9428POPC   C2B77228  33.821   9.532   6.750
 9428POPC   C3B77229  33.763   9.544   7.050
 9428POPC   C4B77230  33.737   9.534   7.350
 9429POPC   NC377231   7.383  33.803   5.550
 9429POPC   PO477232   7.458  33.815   5.850
 9429POPC   GL177233   7.428  33.804   6.150
 9429POPC   GL277234   7.458  33.645   6.150
 9429POPC   C1A77235   7.414  33.759   6.450
 9429POPC   D2A77236   7.383  33.842   6.750
 9429POPC   C3A77237   7.399  33.776   7.050
 9429POPC   C4A77238   7.454  33.815   7.350
 9429POPC   C1B77239   7.576  33.587   6.450
 9429POPC   C2B77240   7.584  33.571   6.750
 9429POPC   C3B77241   7.517  33.623   7.050
 9429POPC   C4B77242   7.532  33.565   7.350
 9430POPC   NC377243   1.261   1.193   5.550
 9430POPC   PO477244   1.252   1.167   5.850
 9430POPC   GL177245   1.210   1.190   6.150
 9430POPC   GL277246   1.327   1.290   6.150
 9430POPC   C1A77247   1.239   1.263   6.450
 9430POPC   D2A77248   1.213   1.166   6.750
 9430POPC   C3A77249   1.242   1.240   7.050
 9430POPC   C4A77250   1.185   1.183   7.350
 9430POPC   C1B77251   1.473   1.352   6.450
 9430POPC   C2B77252   1.455   1.373   6.750
 9430POPC   C3B77253   1.430   1.363   7.050
 9430POPC   C4B77254   1.380   1.384   7.350
 9431POPC   NC377255  22.977  36.866   5.550
 9431POPC   PO477256  22.941  36.902   5.850
 9431POPC   GL177257  22.975  36.931   6.150
 9431POPC   GL277258  23.057  36.827   6.150
 9431POPC   C1A77259  22.914  36.901   6.450
 9431POPC   D2A77260  22.939  36.875   6.750
 9431POPC   C3A77261  22.910  36.947   7.050
 9431POPC   C4A77262  22.923  36.904   7.350
 9431POPC   C1B77263  23.135  36.861   6.450
 9431POPC   C2B77264  23.163  36.863   6.750
 9431POPC   C3B77265  23.164  36.849   7.050
 9431POPC   C4B77266  23.127  36.808   7.350
 9432POPC   NC377267   5.910  24.510   5.550
 9432POPC   PO477268   5.819  24.520   5.850
 9432POPC   GL177269   5.846  24.526   6.150
 9432POPC   GL277270   5.783  24.441   6.150
 9432POPC   C1A77271   5.915  24.454   6.450
 9432POPC   D2A77272   5.826  24.508   6.750
 9432POPC   C3A77273   5.890  24.498   7.050
 9432POPC   C4A77274   5.848  24.481   7.350
 9432POPC   C1B77275   5.648  24.390   6.450
 9432POPC   C2B77276   5.623  24.340   6.750
 9432POPC   C3B77277   5.653  24.336   7.050
 9432POPC   C4B77278   5.627  24.353   7.350
 9433POPC   NC377279  24.467  29.940   5.550
 9433POPC   PO477280  24.507  29.915   5.850
 9433POPC   GL177281  24.512  29.892   6.150
 9433POPC   GL277282  24.407  30.078   6.150
 9433POPC   C1A77283  24.510  29.955   6.450
 9433POPC   D2A77284  24.472  29.901   6.750
 9433POPC   C3A77285  24.506  29.874   7.050
 9433POPC   C4A77286  24.477  29.970   7.350
 9433POPC   C1B77287  24.416  30.207   6.450
 9433POPC   C2B77288  24.448  30.188   6.750
 9433POPC   C3B77289  24.423  30.138   7.050
 9433POPC   C4B77290  24.421  30.191   7.350
 9434POPC   NC377291  44.696  40.793   5.550
 9434POPC   PO477292  44.657  40.769   5.850
 9434POPC   GL177293  44.624  40.786   6.150
 9434POPC   GL277294  44.589  40.665   6.150
 9434POPC   C1A77295  44.639  40.738   6.450
 9434POPC   D2A77296  44.662  40.787   6.750
 9434POPC   C3A77297  44.702  40.832   7.050
 9434POPC   C4A77298  44.660  40.790   7.350
 9434POPC   C1B77299  44.597  40.510   6.450
 9434POPC   C2B77300  44.595  40.569   6.750
 9434POPC   C3B77301  44.574  40.517   7.050
 9434POPC   C4B77302  44.577  40.522   7.350
 9435POPC   NC377303  11.261  36.924   5.550
 9435POPC   PO477304  11.291  36.902   5.850
 9435POPC   GL177305  11.304  36.857   6.150
 9435POPC   GL277306  11.419  36.789   6.150
 9435POPC   C1A77307  11.339  36.926   6.450
 9435POPC   D2A77308  11.257  36.867   6.750
 9435POPC   C3A77309  11.280  36.856   7.050
 9435POPC   C4A77310  11.326  36.901   7.350
 9435POPC   C1B77311  11.476  36.666   6.450
 9435POPC   C2B77312  11.511  36.679   6.750
 9435POPC   C3B77313  11.511  36.677   7.050
 9435POPC   C4B77314  11.424  36.739   7.350
 9436POPC   NC377315  39.276  22.147   5.550
 9436POPC   PO477316  39.202  22.145   5.850
 9436POPC   GL177317  39.272  22.195   6.150
 9436POPC   GL277318  39.234  22.270   6.150
 9436POPC   C1A77319  39.206  22.208   6.450
 9436POPC   D2A77320  39.189  22.203   6.750
 9436POPC   C3A77321  39.224  22.166   7.050
 9436POPC   C4A77322  39.226  22.209   7.350
 9436POPC   C1B77323  39.362  22.355   6.450
 9436POPC   C2B77324  39.316  22.413   6.750
 9436POPC   C3B77325  39.323  22.360   7.050
 9436POPC   C4B77326  39.349  22.441   7.350
 9437POPC   NC377327   7.440  35.397   5.550
 9437POPC   PO477328   7.442  35.374   5.850
 9437POPC   GL177329   7.390  35.360   6.150
 9437POPC   GL277330   7.275  35.297   6.150
 9437POPC   C1A77331   7.391  35.370   6.450
 9437POPC   D2A77332   7.374  35.318   6.750
 9437POPC   C3A77333   7.450  35.310   7.050
 9437POPC   C4A77334   7.410  35.360   7.350
 9437POPC   C1B77335   7.158  35.287   6.450
 9437POPC   C2B77336   7.151  35.245   6.750
 9437POPC   C3B77337   7.203  35.221   7.050
 9437POPC   C4B77338   7.204  35.234   7.350
 9438POPC   NC377339   8.164  38.422   5.550
 9438POPC   PO477340   8.240  38.452   5.850
 9438POPC   GL177341   8.195  38.495   6.150
 9438POPC   GL277342   8.192  38.605   6.150
 9438POPC   C1A77343   8.187  38.448   6.450
 9438POPC   D2A77344   8.198  38.460   6.750
 9438POPC   C3A77345   8.192  38.411   7.050
 9438POPC   C4A77346   8.203  38.460   7.350
 9438POPC   C1B77347   8.244  38.723   6.450
 9438POPC   C2B77348   8.296  38.642   6.750
 9438POPC   C3B77349   8.335  38.646   7.050
 9438POPC   C4B77350   8.247  38.674   7.350
 9439POPC   NC377351   4.321   5.062   5.550
 9439POPC   PO477352   4.311   5.110   5.850
 9439POPC   GL177353   4.321   5.101   6.150
 9439POPC   GL277354   4.348   4.924   6.150
 9439POPC   C1A77355   4.319   5.095   6.450
 9439POPC   D2A77356   4.339   5.072   6.750
 9439POPC   C3A77357   4.363   5.070   7.050
 9439POPC   C4A77358   4.306   5.115   7.350
 9439POPC   C1B77359   4.361   4.828   6.450
 9439POPC   C2B77360   4.305   4.877   6.750
 9439POPC   C3B77361   4.273   4.807   7.050
 9439POPC   C4B77362   4.320   4.850   7.350
 9440POPC   NC377363  16.748  44.621   5.550
 9440POPC   PO477364  16.745  44.705   5.850
 9440POPC   GL177365  16.778  44.702   6.150
 9440POPC   GL277366  16.635  44.544   6.150
 9440POPC   C1A77367  16.719  44.669   6.450
 9440POPC   D2A77368  16.711  44.635   6.750
 9440POPC   C3A77369  16.777  44.620   7.050
 9440POPC   C4A77370  16.723  44.613   7.350
 9440POPC   C1B77371  16.559  44.492   6.450
 9440POPC   C2B77372  16.597  44.482   6.750
 9440POPC   C3B77373  16.545  44.511   7.050
 9440POPC   C4B77374  16.540  44.465   7.350
 9441POPC   NC377375   2.769  43.139   5.550
 9441POPC   PO477376   2.754  43.082   5.850
 9441POPC   GL177377   2.777  43.126   6.150
 9441POPC   GL277378   2.640  43.177   6.150
 9441POPC   C1A77379   2.796  43.079   6.450
 9441POPC   D2A77380   2.797  43.090   6.750
 9441POPC   C3A77381   2.780  43.160   7.050
 9441POPC   C4A77382   2.741  43.124   7.350
 9441POPC   C1B77383   2.564  43.331   6.450
 9441POPC   C2B77384   2.554  43.338   6.750
 9441POPC   C3B77385   2.636  43.312   7.050
 9441POPC   C4B77386   2.606  43.298   7.350
 9442POPC   NC377387   8.187   8.191   5.550
 9442POPC   PO477388   8.165   8.240   5.850
 9442POPC   GL177389   8.245   8.165   6.150
 9442POPC   GL277390   8.241   8.078   6.150
 9442POPC   C1A77391   8.188   8.183   6.450
 9442POPC   D2A77392   8.168   8.215   6.750
 9442POPC   C3A77393   8.186   8.155   7.050
 9442POPC   C4A77394   8.181   8.187   7.350
 9442POPC   C1B77395   8.381   7.992   6.450
 9442POPC   C2B77396   8.409   7.991   6.750
 9442POPC   C3B77397   8.368   7.974   7.050
 9442POPC   C4B77398   8.358   7.979   7.350
 9443POPC   NC377399   4.278  33.010   5.550
 9443POPC   PO477400   4.274  33.033   5.850
 9443POPC   GL177401   4.280  32.995   6.150
 9443POPC   GL277402   4.162  33.082   6.150
 9443POPC   C1A77403   4.313  33.017   6.450
 9443POPC   D2A77404   4.328  32.976   6.750
 9443POPC   C3A77405   4.285  32.975   7.050
 9443POPC   C4A77406   4.322  33.039   7.350
 9443POPC   C1B77407   4.086  33.040   6.450
 9443POPC   C2B77408   4.041  33.000   6.750
 9443POPC   C3B77409   4.053  33.084   7.050
 9443POPC   C4B77410   4.107  33.033   7.350
 9444POPC   NC377411   4.347  12.104   5.550
 9444POPC   PO477412   4.360  12.065   5.850
 9444POPC   GL177413   4.331  12.077   6.150
 9444POPC   GL277414   4.254  11.973   6.150
 9444POPC   C1A77415   4.286  12.074   6.450
 9444POPC   D2A77416   4.353  12.046   6.750
 9444POPC   C3A77417   4.301  12.033   7.050
 9444POPC   C4A77418   4.341  12.102   7.350
 9444POPC   C1B77419   4.050  12.004   6.450
 9444POPC   C2B77420   4.075  12.003   6.750
 9444POPC   C3B77421   4.071  11.942   7.050
 9444POPC   C4B77422   4.088  11.941   7.350
 9445POPC   NC377423  44.701  29.939   5.550
 9445POPC   PO477424  44.666  29.896   5.850
 9445POPC   GL177425  44.625  29.946   6.150
 9445POPC   GL277426  44.555  29.993   6.150
 9445POPC   C1A77427  44.658  29.953   6.450
 9445POPC   D2A77428  44.656  29.964   6.750
 9445POPC   C3A77429  44.674  29.883   7.050
 9445POPC   C4A77430  44.620  29.946   7.350
 9445POPC   C1B77431  44.542  30.084   6.450
 9445POPC   C2B77432  44.529  30.164   6.750
 9445POPC   C3B77433  44.532  30.152   7.050
 9445POPC   C4B77434  44.491  30.076   7.350
 9446POPC   NC377435  33.038  14.441   5.550
 9446POPC   PO477436  33.071  14.380   5.850
 9446POPC   GL177437  33.028  14.370   6.150
 9446POPC   GL277438  33.125  14.385   6.150
 9446POPC   C1A77439  33.035  14.435   6.450
 9446POPC   D2A77440  32.982  14.449   6.750
 9446POPC   C3A77441  33.002  14.449   7.050
 9446POPC   C4A77442  33.023  14.354   7.350
 9446POPC   C1B77443  33.225  14.323   6.450
 9446POPC   C2B77444  33.214  14.279   6.750
 9446POPC   C3B77445  33.236  14.284   7.050
 9446POPC   C4B77446  33.247  14.261   7.350
 9447POPC   NC377447  36.104  27.634   5.550
 9447POPC   PO477448  36.172  27.580   5.850
 9447POPC   GL177449  36.078  27.614   6.150
 9447POPC   GL277450  36.184  27.477   6.150
 9447POPC   C1A77451  36.166  27.617   6.450
 9447POPC   D2A77452  36.145  27.598   6.750
 9447POPC   C3A77453  36.094  27.584   7.050
 9447POPC   C4A77454  36.124  27.623   7.350
 9447POPC   C1B77455  36.280  27.360   6.450
 9447POPC   C2B77456  36.273  27.396   6.750
 9447POPC   C3B77457  36.279  27.352   7.050
 9447POPC   C4B77458  36.250  27.415   7.350
 9448POPC   NC377459  25.218  44.684   5.550
 9448POPC   PO477460  25.230  44.629   5.850
 9448POPC   GL177461  25.303  44.655   6.150
 9448POPC   GL277462  25.148  44.536   6.150
 9448POPC   C1A77463  25.306  44.617   6.450
 9448POPC   D2A77464  25.263  44.660   6.750
 9448POPC   C3A77465  25.268  44.673   7.050
 9448POPC   C4A77466  25.284  44.699   7.350
 9448POPC   C1B77467  25.148  44.517   6.450
 9448POPC   C2B77468  25.141  44.450   6.750
 9448POPC   C3B77469  25.113  44.496   7.050
 9448POPC   C4B77470  25.145  44.477   7.350
 9449POPC   NC377471  10.543  36.870   5.550
 9449POPC   PO477472  10.482  36.945   5.850
 9449POPC   GL177473  10.511  36.910   6.150
 9449POPC   GL277474  10.592  36.820   6.150
 9449POPC   C1A77475  10.529  36.860   6.450
 9449POPC   D2A77476  10.565  36.940   6.750
 9449POPC   C3A77477  10.539  36.909   7.050
 9449POPC   C4A77478  10.556  36.903   7.350
 9449POPC   C1B77479  10.712  36.758   6.450
 9449POPC   C2B77480  10.668  36.788   6.750
 9449POPC   C3B77481  10.686  36.777   7.050
 9449POPC   C4B77482  10.754  36.780   7.350
 9450POPC   NC377483  11.253  18.317   5.550
 9450POPC   PO477484  11.268  18.267   5.850
 9450POPC   GL177485  11.264  18.279   6.150
 9450POPC   GL277486  11.326  18.130   6.150
 9450POPC   C1A77487  11.293  18.309   6.450
 9450POPC   D2A77488  11.326  18.321   6.750
 9450POPC   C3A77489  11.298  18.328   7.050
 9450POPC   C4A77490  11.315  18.252   7.350
 9450POPC   C1B77491  11.314  17.989   6.450
 9450POPC   C2B77492  11.358  18.062   6.750
 9450POPC   C3B77493  11.323  18.075   7.050
 9450POPC   C4B77494  11.353  18.074   7.350
 9451POPC   NC377495  35.347  17.536   5.550
 9451POPC   PO477496  35.365  17.464   5.850
 9451POPC   GL177497  35.321  17.472   6.150
 9451POPC   GL277498  35.419  17.623   6.150
 9451POPC   C1A77499  35.347  17.505   6.450
 9451POPC   D2A77500  35.309  17.464   6.750
 9451POPC   C3A77501  35.345  17.472   7.050
 9451POPC   C4A77502  35.397  17.529   7.350
 9451POPC   C1B77503  35.495  17.676   6.450
 9451POPC   C2B77504  35.527  17.664   6.750
 9451POPC   C3B77505  35.557  17.639   7.050
 9451POPC   C4B77506  35.574  17.662   7.350
 9452POPC   NC377507  22.154   8.171   5.550
 9452POPC   PO477508  22.157   8.219   5.850
 9452POPC   GL177509  22.179   8.148   6.150
 9452POPC   GL277510  22.103   8.064   6.150
 9452POPC   C1A77511  22.199   8.156   6.450
 9452POPC   D2A77512  22.180   8.241   6.750
 9452POPC   C3A77513  22.150   8.156   7.050
 9452POPC   C4A77514  22.136   8.152   7.350
 9452POPC   C1B77515  21.929   7.994   6.450
 9452POPC   C2B77516  21.968   8.072   6.750
 9452POPC   C3B77517  21.951   7.996   7.050
 9452POPC   C4B77518  21.951   8.057   7.350
 9453POPC   NC377519  40.764  12.046   5.550
 9453POPC   PO477520  40.778  12.034   5.850
 9453POPC   GL177521  40.794  12.037   6.150
 9453POPC   GL277522  40.642  11.982   6.150
 9453POPC   C1A77523  40.828  12.097   6.450
 9453POPC   D2A77524  40.827  12.051   6.750
 9453POPC   C3A77525  40.810  12.076   7.050
 9453POPC   C4A77526  40.736  12.060   7.350
 9453POPC   C1B77527  40.641  11.936   6.450
 9453POPC   C2B77528  40.571  11.868   6.750
 9453POPC   C3B77529  40.636  11.886   7.050
 9453POPC   C4B77530  40.551  11.920   7.350
 9454POPC   NC377531  12.121   4.295   5.550
 9454POPC   PO477532  12.052   4.276   5.850
 9454POPC   GL177533  12.089   4.307   6.150
 9454POPC   GL277534  12.017   4.199   6.150
 9454POPC   C1A77535  12.109   4.366   6.450
 9454POPC   D2A77536  12.113   4.349   6.750
 9454POPC   C3A77537  12.043   4.331   7.050
 9454POPC   C4A77538  12.041   4.367   7.350
 9454POPC   C1B77539  11.888   4.132   6.450
 9454POPC   C2B77540  11.896   4.094   6.750
 9454POPC   C3B77541  11.937   4.137   7.050
 9454POPC   C4B77542  11.858   4.171   7.350
 9455POPC   NC377543  24.447  24.481   5.550
 9455POPC   PO477544  24.534  24.456   5.850
 9455POPC   GL177545  24.520  24.464   6.150
 9455POPC   GL277546  24.477  24.609   6.150
 9455POPC   C1A77547  24.506  24.468   6.450
 9455POPC   D2A77548  24.514  24.528   6.750
 9455POPC   C3A77549  24.537  24.538   7.050
 9455POPC   C4A77550  24.524  24.494   7.350
 9455POPC   C1B77551  24.590  24.730   6.450
 9455POPC   C2B77552  24.552  24.778   6.750
 9455POPC   C3B77553  24.594  24.693   7.050
 9455POPC   C4B77554  24.573  24.723   7.350
 9456POPC   NC377555  14.444   9.784   5.550
 9456POPC   PO477556  14.442   9.702   5.850
 9456POPC   GL177557  14.412   9.751   6.150
 9456POPC   GL277558  14.321   9.871   6.150
 9456POPC   C1A77559  14.441   9.702   6.450
 9456POPC   D2A77560  14.362   9.772   6.750
 9456POPC   C3A77561  14.389   9.755   7.050
 9456POPC   C4A77562  14.431   9.784   7.350
 9456POPC   C1B77563  14.292   9.979   6.450
 9456POPC   C2B77564  14.327  10.019   6.750
 9456POPC   C3B77565  14.356   9.965   7.050
 9456POPC   C4B77566  14.333   9.946   7.350
 9457POPC   NC377567   8.978  39.192   5.550
 9457POPC   PO477568   8.936  39.253   5.850
 9457POPC   GL177569   8.997  39.257   6.150
 9457POPC   GL277570   9.104  39.261   6.150
 9457POPC   C1A77571   8.948  39.190   6.450
 9457POPC   D2A77572   8.986  39.187   6.750
 9457POPC   C3A77573   8.957  39.208   7.050
 9457POPC   C4A77574   8.964  39.249   7.350
 9457POPC   C1B77575   9.191  39.303   6.450
 9457POPC   C2B77576   9.245  39.335   6.750
 9457POPC   C3B77577   9.205  39.327   7.050
 9457POPC   C4B77578   9.199  39.337   7.350
 9458POPC   NC377579  42.366  16.719   5.550
 9458POPC   PO477580  42.340  16.695   5.850
 9458POPC   GL177581  42.321  16.694   6.150
 9458POPC   GL277582  42.278  16.638   6.150
 9458POPC   C1A77583  42.362  16.722   6.450
 9458POPC   D2A77584  42.375  16.687   6.750
 9458POPC   C3A77585  42.321  16.747   7.050
 9458POPC   C4A77586  42.315  16.711   7.350
 9458POPC   C1B77587  42.260  16.519   6.450
 9458POPC   C2B77588  42.259  16.476   6.750
 9458POPC   C3B77589  42.190  16.481   7.050
 9458POPC   C4B77590  42.253  16.531   7.350
 9459POPC   NC377591  33.762   2.036   5.550
 9459POPC   PO477592  33.797   1.963   5.850
 9459POPC   GL177593  33.780   1.968   6.150
 9459POPC   GL277594  33.939   1.952   6.150
 9459POPC   C1A77595  33.789   2.027   6.450
 9459POPC   D2A77596  33.812   1.969   6.750
 9459POPC   C3A77597  33.764   2.026   7.050
 9459POPC   C4A77598  33.838   1.995   7.350
 9459POPC   C1B77599  34.008   1.775   6.450
 9459POPC   C2B77600  33.971   1.783   6.750
 9459POPC   C3B77601  33.976   1.861   7.050
 9459POPC   C4B77602  33.978   1.827   7.350
 9460POPC   NC377603  33.784  21.414   5.550
 9460POPC   PO477604  33.849  21.430   5.850
 9460POPC   GL177605  33.809  21.423   6.150
 9460POPC   GL277606  33.860  21.313   6.150
 9460POPC   C1A77607  33.757  21.375   6.450
 9460POPC   D2A77608  33.838  21.432   6.750
 9460POPC   C3A77609  33.834  21.421   7.050
 9460POPC   C4A77610  33.774  21.396   7.350
 9460POPC   C1B77611  33.968  21.250   6.450
 9460POPC   C2B77612  34.015  21.221   6.750
 9460POPC   C3B77613  33.971  21.198   7.050
 9460POPC   C4B77614  33.967  21.218   7.350
 9461POPC   NC377615   6.671  34.586   5.550
 9461POPC   PO477616   6.651  34.540   5.850
 9461POPC   GL177617   6.670  34.558   6.150
 9461POPC   GL277618   6.495  34.546   6.150
 9461POPC   C1A77619   6.643  34.569   6.450
 9461POPC   D2A77620   6.664  34.613   6.750
 9461POPC   C3A77621   6.690  34.545   7.050
 9461POPC   C4A77622   6.678  34.622   7.350
 9461POPC   C1B77623   6.431  34.542   6.450
 9461POPC   C2B77624   6.415  34.583   6.750
 9461POPC   C3B77625   6.427  34.527   7.050
 9461POPC   C4B77626   6.406  34.507   7.350
 9462POPC   NC377627  15.909  12.107   5.550
 9462POPC   PO477628  15.917  12.064   5.850
 9462POPC   GL177629  15.970  12.040   6.150
 9462POPC   GL277630  16.089  12.110   6.150
 9462POPC   C1A77631  15.977  12.075   6.450
 9462POPC   D2A77632  15.971  12.101   6.750
 9462POPC   C3A77633  15.915  12.072   7.050
 9462POPC   C4A77634  15.914  12.086   7.350
 9462POPC   C1B77635  16.146  12.147   6.450
 9462POPC   C2B77636  16.228  12.153   6.750
 9462POPC   C3B77637  16.148  12.206   7.050
 9462POPC   C4B77638  16.182  12.135   7.350
 9463POPC   NC377639  22.945  36.135   5.550
 9463POPC   PO477640  22.961  36.085   5.850
 9463POPC   GL177641  22.929  36.152   6.150
 9463POPC   GL277642  23.032  36.074   6.150
 9463POPC   C1A77643  22.895  36.102   6.450
 9463POPC   D2A77644  22.958  36.117   6.750
 9463POPC   C3A77645  22.894  36.132   7.050
 9463POPC   C4A77646  22.892  36.116   7.350
 9463POPC   C1B77647  23.109  36.038   6.450
 9463POPC   C2B77648  23.121  36.038   6.750
 9463POPC   C3B77649  23.115  35.975   7.050
 9463POPC   C4B77650  23.152  35.961   7.350
 9464POPC   NC377651   5.056  22.182   5.550
 9464POPC   PO477652   5.135  22.128   5.850
 9464POPC   GL177653   5.060  22.164   6.150
 9464POPC   GL277654   5.022  22.019   6.150
 9464POPC   C1A77655   5.057  22.211   6.450
 9464POPC   D2A77656   5.069  22.125   6.750
 9464POPC   C3A77657   5.072  22.206   7.050
 9464POPC   C4A77658   5.063  22.127   7.350
 9464POPC   C1B77659   4.965  21.961   6.450
 9464POPC   C2B77660   4.970  21.935   6.750
 9464POPC   C3B77661   4.957  21.881   7.050
 9464POPC   C4B77662   5.036  21.897   7.350
 9465POPC   NC377663  13.604  25.242   5.550
 9465POPC   PO477664  13.653  25.287   5.850
 9465POPC   GL177665  13.603  25.273   6.150
 9465POPC   GL277666  13.717  25.191   6.150
 9465POPC   C1A77667  13.596  25.247   6.450
 9465POPC   D2A77668  13.601  25.282   6.750
 9465POPC   C3A77669  13.603  25.278   7.050
 9465POPC   C4A77670  13.639  25.258   7.350
 9465POPC   C1B77671  13.768  25.100   6.450
 9465POPC   C2B77672  13.710  25.031   6.750
 9465POPC   C3B77673  13.714  25.083   7.050
 9465POPC   C4B77674  13.737  25.057   7.350
 9466POPC   NC377675  12.074  33.807   5.550
 9466POPC   PO477676  12.096  33.804   5.850
 9466POPC   GL177677  12.108  33.803   6.150
 9466POPC   GL277678  12.046  33.964   6.150
 9466POPC   C1A77679  12.080  33.766   6.450
 9466POPC   D2A77680  12.039  33.790   6.750
 9466POPC   C3A77681  12.052  33.787   7.050
 9466POPC   C4A77682  12.053  33.850   7.350
 9466POPC   C1B77683  12.050  34.021   6.450
 9466POPC   C2B77684  12.049  34.030   6.750
 9466POPC   C3B77685  12.057  34.031   7.050
 9466POPC   C4B77686  12.131  34.002   7.350
 9467POPC   NC377687   0.468  22.941   5.550
 9467POPC   PO477688   0.399  22.926   5.850
 9467POPC   GL177689   0.473  22.938   6.150
 9467POPC   GL277690   0.597  22.972   6.150
 9467POPC   C1A77691   0.470  22.940   6.450
 9467POPC   D2A77692   0.485  22.920   6.750
 9467POPC   C3A77693   0.438  22.936   7.050
 9467POPC   C4A77694   0.483  22.941   7.350
 9467POPC   C1B77695   0.693  23.062   6.450
 9467POPC   C2B77696   0.644  23.031   6.750
 9467POPC   C3B77697   0.719  23.031   7.050
 9467POPC   C4B77698   0.716  22.978   7.350
 9468POPC   NC377699  29.954  29.140   5.550
 9468POPC   PO477700  29.907  29.110   5.850
 9468POPC   GL177701  29.957  29.172   6.150
 9468POPC   GL277702  29.827  29.080   6.150
 9468POPC   C1A77703  29.945  29.191   6.450
 9468POPC   D2A77704  29.925  29.112   6.750
 9468POPC   C3A77705  29.945  29.143   7.050
 9468POPC   C4A77706  29.904  29.120   7.350
 9468POPC   C1B77707  29.703  29.086   6.450
 9468POPC   C2B77708  29.712  29.112   6.750
 9468POPC   C3B77709  29.664  29.036   7.050
 9468POPC   C4B77710  29.723  29.043   7.350
 9469POPC   NC377711  22.161  22.183   5.550
 9469POPC   PO477712  22.118  22.131   5.850
 9469POPC   GL177713  22.174  22.137   6.150
 9469POPC   GL277714  22.139  22.069   6.150
 9469POPC   C1A77715  22.169  22.137   6.450
 9469POPC   D2A77716  22.188  22.161   6.750
 9469POPC   C3A77717  22.119  22.177   7.050
 9469POPC   C4A77718  22.195  22.203   7.350
 9469POPC   C1B77719  22.038  21.910   6.450
 9469POPC   C2B77720  22.041  21.903   6.750
 9469POPC   C3B77721  22.079  21.939   7.050
 9469POPC   C4B77722  22.032  21.952   7.350
 9470POPC   NC377723   4.304  31.519   5.550
 9470POPC   PO477724   4.322  31.475   5.850
 9470POPC   GL177725   4.281  31.434   6.150
 9470POPC   GL277726   4.347  31.333   6.150
 9470POPC   C1A77727   4.341  31.440   6.450
 9470POPC   D2A77728   4.327  31.469   6.750
 9470POPC   C3A77729   4.339  31.504   7.050
 9470POPC   C4A77730   4.274  31.502   7.350
 9470POPC   C1B77731   4.334  31.252   6.450
 9470POPC   C2B77732   4.396  31.202   6.750
 9470POPC   C3B77733   4.337  31.267   7.050
 9470POPC   C4B77734   4.340  31.205   7.350
 9471POPC   NC377735  39.982   5.092   5.550
 9471POPC   PO477736  40.030   5.140   5.850
 9471POPC   GL177737  40.015   5.124   6.150
 9471POPC   GL277738  39.927   5.041   6.150
 9471POPC   C1A77739  39.989   5.085   6.450
 9471POPC   D2A77740  40.005   5.052   6.750
 9471POPC   C3A77741  39.971   5.115   7.050
 9471POPC   C4A77742  40.056   5.052   7.350
 9471POPC   C1B77743  39.768   5.036   6.450
 9471POPC   C2B77744  39.796   5.114   6.750
 9471POPC   C3B77745  39.768   5.039   7.050
 9471POPC   C4B77746  39.750   5.117   7.350
 9472POPC   NC377747   2.770  15.198   5.550
 9472POPC   PO477748   2.733  15.167   5.850
 9472POPC   GL177749   2.749  15.138   6.150
 9472POPC   GL277750   2.783  15.022   6.150
 9472POPC   C1A77751   2.751  15.155   6.450
 9472POPC   D2A77752   2.728  15.157   6.750
 9472POPC   C3A77753   2.800  15.223   7.050
 9472POPC   C4A77754   2.769  15.205   7.350
 9472POPC   C1B77755   2.694  14.979   6.450
 9472POPC   C2B77756   2.713  14.928   6.750
 9472POPC   C3B77757   2.666  14.942   7.050
 9472POPC   C4B77758   2.689  14.947   7.350
 9473POPC   NC377759   5.110  23.715   5.550
 9473POPC   PO477760   5.111  23.732   5.850
 9473POPC   GL177761   5.127  23.738   6.150
 9473POPC   GL277762   5.010  23.779   6.150
 9473POPC   C1A77763   5.081  23.667   6.450
 9473POPC   D2A77764   5.105  23.687   6.750
 9473POPC   C3A77765   5.099  23.739   7.050
 9473POPC   C4A77766   5.056  23.760   7.350
 9473POPC   C1B77767   4.914  23.823   6.450
 9473POPC   C2B77768   4.890  23.913   6.750
 9473POPC   C3B77769   4.920  23.859   7.050
 9473POPC   C4B77770   4.901  23.880   7.350
 9474POPC   NC377771  14.388   3.577   5.550
 9474POPC   PO477772  14.440   3.571   5.850
 9474POPC   GL177773  14.433   3.577   6.150
 9474POPC   GL277774  14.448   3.381   6.150
 9474POPC   C1A77775  14.387   3.581   6.450
 9474POPC   D2A77776  14.448   3.553   6.750
 9474POPC   C3A77777  14.429   3.494   7.050
 9474POPC   C4A77778  14.364   3.588   7.350
 9474POPC   C1B77779  14.494   3.325   6.450
 9474POPC   C2B77780  14.530   3.312   6.750
 9474POPC   C3B77781  14.521   3.312   7.050
 9474POPC   C4B77782  14.468   3.358   7.350
 9475POPC   NC377783  40.783  27.638   5.550
 9475POPC   PO477784  40.764  27.610   5.850
 9475POPC   GL177785  40.756  27.623   6.150
 9475POPC   GL277786  40.703  27.675   6.150
 9475POPC   C1A77787  40.752  27.594   6.450
 9475POPC   D2A77788  40.785  27.579   6.750
 9475POPC   C3A77789  40.733  27.636   7.050
 9475POPC   C4A77790  40.783  27.580   7.350
 9475POPC   C1B77791  40.608  27.780   6.450
 9475POPC   C2B77792  40.612  27.783   6.750
 9475POPC   C3B77793  40.630  27.779   7.050
 9475POPC   C4B77794  40.648  27.763   7.350
 9476POPC   NC377795  19.858   5.046   5.550
 9476POPC   PO477796  19.857   5.046   5.850
 9476POPC   GL177797  19.807   5.080   6.150
 9476POPC   GL277798  19.934   5.011   6.150
 9476POPC   C1A77799  19.869   5.071   6.450
 9476POPC   D2A77800  19.798   5.064   6.750
 9476POPC   C3A77801  19.831   5.075   7.050
 9476POPC   C4A77802  19.785   5.046   7.350
 9476POPC   C1B77803  20.039   4.937   6.450
 9476POPC   C2B77804  20.087   4.957   6.750
 9476POPC   C3B77805  20.073   4.960   7.050
 9476POPC   C4B77806  20.084   4.953   7.350
 9477POPC   NC377807  23.675  32.222   5.550
 9477POPC   PO477808  23.706  32.254   5.850
 9477POPC   GL177809  23.726  32.211   6.150
 9477POPC   GL277810  23.772  32.294   6.150
 9477POPC   C1A77811  23.713  32.295   6.450
 9477POPC   D2A77812  23.720  32.289   6.750
 9477POPC   C3A77813  23.687  32.278   7.050
 9477POPC   C4A77814  23.684  32.214   7.350
 9477POPC   C1B77815  23.931  32.424   6.450
 9477POPC   C2B77816  23.898  32.462   6.750
 9477POPC   C3B77817  23.868  32.453   7.050
 9477POPC   C4B77818  23.844  32.473   7.350
 9478W        W77819  21.207  16.202   1.384
 9479W        W77820  27.081  34.035  12.877
 9480W        W77821  30.109   7.752   4.223
 9481W        W77822   3.416   2.327   4.767
 9482W        W77823  44.447  41.805  10.960
 9483W        W77824  44.945  40.031   0.925
 9484W        W77825  39.554  39.808   5.280
 9485W        W77826  28.021  35.907  14.836
 9486W        W77827  13.237  29.512  13.830
 9487W        W77828  33.429  42.459   1.308
 9488W        W77829  35.001  10.149   2.278
 9489W        W77830  18.215  10.313   4.174
 9490W        W77831   9.762  33.563   1.240
 9491W        W77832   7.319  16.137  13.361
 9492W        W77833  38.386  42.874  12.548
 9493W        W77834  15.116  15.083   3.213
 9494W        W77835  26.565  39.315  13.330
 9495W        W77836  22.239  41.334   0.789
 9496W        W77837  22.702  11.802  12.047
 9497W        W77838  15.327  11.861  12.576
 9498W        W77839  35.992   1.350  12.915
 9499W        W77840   4.767   9.724   4.820
 9500W        W77841  16.805  19.223  11.957
 9501W        W77842   3.740  43.510   1.322
 9502W        W77843  23.562  40.303  11.930
 9503W        W77844  33.902   2.234   3.231
 9504W        W77845  15.103  44.483  11.887
 9505W        W77846   1.898   2.283  13.397
 9506W        W77847  32.444  39.392  11.548
 9507W        W77848  41.510   0.274   2.357
 9508W        W77849  16.253  11.678   2.273
 9509W        W77850  43.383  21.017   9.950
 9510W        W77851  41.363  25.689  12.552
 9511W        W77852  36.360   6.825   0.276
 9512W        W77853   9.245  30.069  12.505
 9513W        W77854  32.583  34.924   4.682
 9514W        W77855  30.585  32.912  12.827
 9515W        W77856  13.662  15.280   0.431
 9516W        W77857   4.739  17.570  12.955
 9517W        W77858  26.201  35.888   2.728
 9518W        W77859  31.944   6.824  14.335
 9519W        W77860  34.080  27.178  12.366
 9520W        W77861  23.711   5.828  12.567
 9521W        W77862  36.555  16.647   4.818
 9522W        W77863  19.651  31.039   2.718
 9523W        W77864  41.292  17.692  13.913
 9524W        W77865  41.983   2.235   4.241
 9525W        W77866  31.018  16.179  13.042
 9526W        W77867  16.180  43.767   4.123
 9527W        W77868  22.631  21.753   2.284
 9528W        W77869  30.589  27.457  13.895
 9529W        W77870  10.772  20.040   0.261
 9530W        W77871  41.466  12.681   0.926
 9531W        W77872  37.553  17.597   1.920
 9532W        W77873  17.678  23.240  11.481
 9533W        W77874  30.459   3.245   1.369
 9534W        W77875  39.478  44.358  11.084
 9535W        W77876  30.924   5.365   4.353
 9536W        W77877  31.498  24.637   1.711
 9537W        W77878  36.539   8.849   0.883
 9538W        W77879  33.401   0.494  10.933
 9539W        W77880  13.314  20.183  12.893
 9540W        W77881  19.713   0.489  13.930
 9541W        W77882  11.320  30.485   4.654
 9542W        W77883  37.055  15.235  11.410
 9543W        W77884  40.319  39.859   5.787
 9544W        W77885   6.297  16.302  12.916
 9545W        W77886   0.853  14.099   2.898
 9546W        W77887  18.071   1.391  11.001
 9547W        W77888  28.152  29.009  10.404
 9548W        W77889  36.397   3.332  11.889
 9549W        W77890   7.681  33.534   4.600
 9550W        W77891  13.624  37.496  12.004
 9551W        W77892   5.306   8.698  13.519
 9552W        W77893  16.215  31.991  12.014
 9553W        W77894   5.929  34.372   3.735
 9554W        W77895  21.062  23.235   3.663
 9555W        W77896  23.058  17.591  14.344
 9556W        W77897  26.496  20.625   0.439
 9557W        W77898   9.665   5.304  10.403
 9558W        W77899  22.680  34.480  10.405
 9559W        W77900   6.806   7.185   1.771
 9560W        W77901   9.149  35.523   2.221
 9561W        W77902  11.285  38.365  14.892
 9562W        W77903  42.399  18.580   3.281
 9563W        W77904   1.950  16.255  10.644
 9564W        W77905   9.374  14.660   0.301
 9565W        W77906  23.706   4.252   2.264
 9566W        W77907  19.768  10.155   5.260
 9567W        W77908   7.349  36.585   4.117
 9568W        W77909  14.283  14.145  14.360
 9569W        W77910  32.480   0.869  13.920
 9570W        W77911  20.564  19.173  10.949
 9571W        W77912  30.424   0.794   4.147
 9572W        W77913  36.415  36.000  14.384
 9573W        W77914  19.547  26.100   0.276
 9574W        W77915  42.895  37.536   4.729
 9575W        W77916   1.909  44.423  12.538
 9576W        W77917   0.265  13.762   0.750
 9577W        W77918  39.863  27.553   1.823
 9578W        W77919  40.470  21.173  11.413
 9579W        W77920  33.111  36.397   4.641
 9580W        W77921  27.024  17.171   1.782
 9581W        W77922  38.570  33.592   2.711
 9582W        W77923   7.673  44.970  14.788
 9583W        W77924  42.916  11.824  12.885
 9584W        W77925  12.339  43.849   0.918
 9585W        W77926  23.672  14.654  13.815
 9586W        W77927  12.814   5.857  13.511
 9587W        W77928  23.198  14.147   1.900
 9588W        W77929  29.479  26.951   2.320
 9589W        W77930   3.441   3.416  12.868
 9590W        W77931  17.675  27.469   1.334
 9591W        W77932  25.531  31.590  13.810
 9592W        W77933  30.969  30.549  12.465
 9593W        W77934  13.261  33.102  11.406
 9594W        W77935   2.922  15.643  13.311
 9595W        W77936  19.259  26.500   1.371
 9596W        W77937   8.826  24.221   5.261
 9597W        W77938  38.401  28.945   2.725
 9598W        W77939  35.478  14.799   3.746
 9599W        W77940   5.427  25.704   0.436
 9600W        W77941  33.607  39.502  12.505
 9601W        W77942   0.310  30.611   4.319
 9602W        W77943  31.076  43.910   3.802
 9603W        W77944  29.600  30.435   4.253
 9604W        W77945  42.390  31.967  14.900
 9605W        W77946  29.095  32.566   4.801
 9606W        W77947  16.108   3.417  13.415
 9607W        W77948   4.425  13.154   1.787
 9608W        W77949  30.576  17.165   0.858
 9609W        W77950  32.031  37.856  13.361
 9610W        W77951  27.600   1.737   2.737
 9611W        W77952  44.310   2.416   1.873
 9612W        W77953   4.230  10.695  12.401
 9613W        W77954  16.768  17.731  10.522
 9614W        W77955  13.201  20.269   4.304
 9615W        W77956  33.919  29.113  12.943
 9616W        W77957  14.230  20.137   0.731
 9617W        W77958  33.432   0.289   5.258
 9618W        W77959   5.761  40.464  13.384
 9619W        W77960  12.779  36.981   1.727
 9620W        W77961  23.036  12.179   2.181
 9621W        W77962   9.200  18.149   0.387
 9622W        W77963  36.066   5.807  12.347
 9623W        W77964  38.424  32.120  12.554
 9624W        W77965  26.530  38.025  14.344
 9625W        W77966   9.785   0.360   4.597
 9626W        W77967   8.233  25.681   3.761
 9627W        W77968  11.156  34.392  11.059
 9628W        W77969   2.267  25.711   0.817
 9629W        W77970  17.063  44.351  11.396
 9630W        W77971   4.852  35.401  13.842
 9631W        W77972   8.213  36.578  13.919
 9632W        W77973  37.414  12.851  10.069
 9633W        W77974   4.942   2.439   5.231
 9634W        W77975   5.734  24.097  12.578
 9635W        W77976  36.572  23.006  13.311
 9636W        W77977  21.031  16.774   4.151
 9637W        W77978   3.739  33.016   1.876
 9638W        W77979  34.100  40.021   0.883
 9639W        W77980   3.727  17.678   3.171
 9640W        W77981  28.597  38.074   3.366
 9641W        W77982   1.910  16.670   0.349
 9642W        W77983  10.767  36.844   1.815
 9643W        W77984  17.266   6.389   0.943
 9644W        W77985   8.821  37.437  11.547
 9645W        W77986  26.157  34.043   0.751
 9646W        W77987   3.753  40.336  11.067
 9647W        W77988  39.396  26.966  14.474
 9648W        W77989   9.752  38.040   0.328
 9649W        W77990  25.497  29.102  10.602
 9650W        W77991  24.718   2.395   3.356
 9651W        W77992  10.209   8.824   2.227
 9652W        W77993  41.513  10.271  11.008
 9653W        W77994  26.599  26.025  12.924
 9654W        W77995  32.914  25.081  14.340
 9655W        W77996  32.492  15.187  14.872
 9656W        W77997  40.821  20.165  13.512
 9657W        W77998  23.156  38.935  10.508
 9658W        W77999  33.116  13.730   2.849
 9659W        W78000  41.300   6.775   0.901
 9660W        W78001  18.790  30.630  14.320
 9661W        W78002  33.020  30.007  12.434
 9662W        W78003  28.003  42.478   5.269
 9663W        W78004  24.534  12.256  10.525
 9664W        W78005   0.394  16.680   1.893
 9665W        W78006  17.727   0.299   1.705
 9666W        W78007  24.482  40.334   1.215
 9667W        W78008  42.464  26.643   2.696
 9668W        W78009  44.887  17.678   3.844
 9669W        W78010  35.373  14.150  13.056
 9670W        W78011  41.315  32.551   0.266
 9671W        W78012  16.170  23.636  11.901
 9672W        W78013  37.060   0.334   3.382
 9673W        W78014  31.447   9.270   3.836
 9674W        W78015   0.985  16.164   3.852
 9675W        W78016   3.945  25.612  14.766
 9676W        W78017   8.377  22.226   2.228
 9677W        W78018  23.564  33.391  12.377
 9678W        W78019  19.129  35.032  11.999
 9679W        W78020  11.157  38.978   2.315
 9680W        W78021  32.013   8.245  12.541
 9681W        W78022  40.463   3.752   1.261
 9682W        W78023  27.959  30.074   2.228
 9683W        W78024   2.374  23.169   3.631
 9684W        W78025  32.046  23.566   1.348
 9685W        W78026  30.995  13.769  12.342
 9686W        W78027  24.537   3.725  14.483
 9687W        W78028  28.505   7.335  13.864
 9688W        W78029  29.501  23.124  11.108
 9689W        W78030   9.865  34.413   0.914
 9690W        W78031  42.290  24.658   2.880
 9691W        W78032  13.311  29.497  12.920
 9692W        W78033  41.792  42.971  14.446
 9693W        W78034  39.456  42.411   9.500
 9694W        W78035  42.375  37.408  11.490
 9695W        W78036  15.736   7.821   2.344
 9696W        W78037   4.346   1.337  13.060
 9697W        W78038   8.166  29.598  12.383
 9698W        W78039  31.109   1.851  10.100
 9699W        W78040  11.219  15.771   0.813
 9700W        W78041  43.433  16.081   4.641
 9701W        W78042  17.622  30.061   0.318
 9702W        W78043  41.881  23.576   1.392
 9703W        W78044   0.493  36.559   3.775
 9704W        W78045   0.388   4.757  11.578
 9705W        W78046  33.448   7.747   4.134
 9706W        W78047  15.708  41.843   4.232
 9707W        W78048  43.370  32.137   0.459
 9708W        W78049  44.303   6.382   1.773
 9709W        W78050  42.408  15.658  11.407
 9710W        W78051  30.990   3.224   0.770
 9711W        W78052   1.861   8.399  13.926
 9712W        W78053   6.747  37.930  14.841
 9713W        W78054  19.614  17.730   4.341
 9714W        W78055  26.195  43.770   3.686
 9715W        W78056  32.404  32.040  14.020
 9716W        W78057   1.462  13.305  11.865
 9717W        W78058  18.202  19.213   1.898
 9718W        W78059   2.274   4.401  14.438
 9719W        W78060  26.475  26.681  13.951
 9720W        W78061  20.064  42.781   4.808
 9721W        W78062   8.808   3.780  14.021
 9722W        W78063   0.755  19.062  10.425
 9723W        W78064  22.579  39.948   0.439
 9724W        W78065  42.486  26.185   4.787
 9725W        W78066  23.201   6.785   1.695
 9726W        W78067  38.370  28.672   4.646
 9727W        W78068   1.911  32.618  10.964
 9728W        W78069  20.128   9.784  14.869
 9729W        W78070  42.505  12.215  11.981
 9730W        W78071  12.125   5.841  14.928
 9731W        W78072   8.867   1.851  13.333
 9732W        W78073  32.906  28.152  10.581
 9733W        W78074  27.148  37.936   4.781
 9734W        W78075  32.940   5.924  10.548
 9735W        W78076  13.210  42.381   3.357
 9736W        W78077  26.133  32.067   2.270
 9737W        W78078  14.320  20.625  10.568
 9738W        W78079  36.442  41.024   4.767
 9739W        W78080  13.777  23.221   4.340
 9740W        W78081  31.116  40.964   4.300
 9741W        W78082  42.992  40.520  13.007
 9742W        W78083  25.201  31.614   0.863
 9743W        W78084  20.182  35.876  12.390
 9744W        W78085  12.255  14.330   3.251
 9745W        W78086  25.978  21.679   1.797
 9746W        W78087   9.155  41.490  11.944
 9747W        W78088  27.952  14.677   2.870
 9748W        W78089   9.384  31.109   1.301
 9749W        W78090  28.023   3.714   0.963
 9750W        W78091  43.303   6.679   4.301
 9751W        W78092   5.711  36.544   1.323
 9752W        W78093  19.204  22.582  14.320
 9753W        W78094  24.633   1.819   4.134
 9754W        W78095  11.296  27.096   4.311
 9755W        W78096  29.498  30.422  13.828
 9756W        W78097  36.463  19.078  11.451
 9757W        W78098  17.732  32.633   9.949
 9758W        W78099  30.012  13.297   2.179
 9759W        W78100   7.396  42.373  14.436
 9760W        W78101  21.174  35.602   2.841
 9761W        W78102  20.148  17.566   4.817
 9762W        W78103  30.511  28.006  13.395
 9763W        W78104   0.401  31.615   3.250
 9764W        W78105  28.092   1.790   1.333
 9765W        W78106   3.426  41.372  12.517
 9766W        W78107   3.414   5.700   4.222
 9767W        W78108  37.079  20.689   1.742
 9768W        W78109  13.706  34.065  13.815
 9769W        W78110  14.692   0.865  11.426
 9770W        W78111  12.235  18.787  10.904
 9771W        W78112  21.576   4.753  12.050
 9772W        W78113  14.319  43.391   1.442
 9773W        W78114  39.993  39.337   4.627
 9774W        W78115  21.057   6.804   4.299
 9775W        W78116  31.566   7.235   3.179
 9776W        W78117   1.847  14.327  14.417
 9777W        W78118   8.709  39.517  14.876
 9778W        W78119  25.555   3.216   0.259
 9779W        W78120  28.960  35.923   0.348
 9780W        W78121  14.099  42.793  12.846
 9781W        W78122   6.282  24.046   4.793
 9782W        W78123  25.600   2.944  11.523
 9783W        W78124  14.739  39.995   0.380
 9784W        W78125  15.124  31.486   2.887
 9785W        W78126   1.841  27.157   3.147
 9786W        W78127  17.789  41.465  13.791
 9787W        W78128  27.572  11.232   0.778
 9788W        W78129  30.502  24.596   4.623
 9789W        W78130  10.373   6.879   3.322
 9790W        W78131  21.053   7.217  10.557
 9791W        W78132  31.445  12.612   3.262
 9792W        W78133   4.704   1.935  14.023
 9793W        W78134   8.394  31.614   1.739
 9794W        W78135  32.406   2.234   0.904
 9795W        W78136  32.059  20.643  11.561
 9796W        W78137  27.159  25.664   4.618
 9797W        W78138  26.113   0.905   3.818
 9798W        W78139  30.494  28.095  14.295
 9799W        W78140  41.941  26.005   2.803
 9800W        W78141  26.567  41.801   0.415
 9801W        W78142  37.500   9.206  14.285
 9802W        W78143  26.205  39.432  10.984
 9803W        W78144  20.238  42.812  12.460
 9804W        W78145  29.670  43.829   3.702
 9805W        W78146  32.482   8.798   0.409
 9806W        W78147  43.884  16.749  12.000
 9807W        W78148  22.628  15.614   2.207
 9808W        W78149  12.138  24.121  13.851
 9809W        W78150   4.368  15.287  14.807
 9810W        W78151  20.141  27.559  13.917
 9811W        W78152  21.603  28.460   0.829
 9812W        W78153  20.548  33.566  14.911
 9813W        W78154   6.317   3.415   3.857
 9814W        W78155  33.908  43.345   2.779
 9815W        W78156   7.300   5.869  14.284
 9816W        W78157  35.540   0.791   3.744
 9817W        W78158  20.155  23.072  10.950
 9818W        W78159   7.738  28.540  11.112
 9819W        W78160  22.576  22.998   0.452
 9820W        W78161  27.164  35.548  13.544
 9821W        W78162  24.131   9.215   4.731
 9822W        W78163   6.221  27.057   2.252
 9823W        W78164  15.600   3.328   1.442
 9824W        W78165   9.767  24.226   3.202
 9825W        W78166  12.271  10.244   1.812
 9826W        W78167  31.925   8.719   4.194
 9827W        W78168   2.462  37.006   4.249
 9828W        W78169  16.776  36.382   1.898
 9829W        W78170  22.103  19.604  14.328
 9830W        W78171  32.585  25.567  14.364
 9831W        W78172  39.828  10.208   3.353
 9832W        W78173  43.953  19.118  11.562
 9833W        W78174  34.511   3.377  13.363
 9834W        W78175  33.081  19.776  11.967
 9835W        W78176  39.863  10.346  10.020
 9836W        W78177  11.814  11.768  11.032
 9837W        W78178  33.937   5.914  13.525
 9838W        W78179  41.972  37.860   3.735
 9839W        W78180  39.890  22.178   0.280
 9840W        W78181  29.594  39.031   3.303
 9841W        W78182  42.888   5.389  12.447
 9842W        W78183  44.880   9.395   1.424
 9843W        W78184  10.213  21.559  14.801
 9844W        W78185  27.459   3.897   2.402
 9845W        W78186  16.738  25.498  11.449
 9846W        W78187   1.269   3.839   3.692
 9847W        W78188  44.814   5.423   2.857
 9848W        W78189  30.447  30.946   4.711
 9849W        W78190   4.283  31.955  11.391
 9850W        W78191   1.772  10.640  11.960
 9851W        W78192  22.135  28.522   1.706
 9852W        W78193  15.817  19.186   1.808
 9853W        W78194  27.078  14.685  13.909
 9854W        W78195  41.001  18.616  10.942
 9855W        W78196  15.236   0.877  12.085
 9856W        W78197  20.749  40.502   0.759
 9857W        W78198  32.900  13.832   1.925
 9858W        W78199  15.720  38.971   3.631
 9859W        W78200   6.765  43.346  12.906
 9860W        W78201  27.145  37.839  12.341
 9861W        W78202  20.087  32.541   0.368
 9862W        W78203  32.020  30.114  10.612
 9863W        W78204  38.456  40.414  13.971
 9864W        W78205  38.034   4.768   3.306
 9865W        W78206  15.602  37.063   1.224
 9866W        W78207   8.342  42.364  13.886
 9867W        W78208   3.333  18.265   1.288
 9868W        W78209  18.592  32.033  12.949
 9869W        W78210  23.605  44.289  13.525
 9870W        W78211  34.615   0.960  10.461
 9871W        W78212  13.627  27.535   2.713
 9872W        W78213  20.190  26.071   0.320
 9873W        W78214  32.988  17.227   1.236
 9874W        W78215   7.185  15.760  13.931
 9875W        W78216  31.106  10.674   2.671
 9876W        W78217  31.601  25.991  13.886
 9877W        W78218  12.835  37.414  12.012
 9878W        W78219  19.625  30.989   4.181
 9879W        W78220  28.042   0.803   1.840
 9880W        W78221  30.630  21.590  13.020
 9881W        W78222   1.420   4.824   3.369
 9882W        W78223  42.953  33.007  10.953
 9883W        W78224  10.191   8.235   1.763
 9884W        W78225  10.349  35.394  12.394
 9885W        W78226  21.024   7.227   9.920
 9886W        W78227   9.797   4.743  13.990
 9887W        W78228  44.865  25.622  14.324
 9888W        W78229   0.435   7.326   3.385
 9889W        W78230  42.994   5.780  12.912
 9890W        W78231  34.578  30.937  13.834
 9891W        W78232  24.618  41.481   1.804
 9892W        W78233  38.542  13.841   3.674
 9893W        W78234  44.949  26.534   0.305
 9894W        W78235  21.093   3.240  14.419
 9895W        W78236  35.108  34.574  14.376
 9896W        W78237  24.133   1.334   0.848
 9897W        W78238  35.574  24.535   3.700
 9898W        W78239   4.769  23.098  12.462
 9899W        W78240  10.798  42.283  11.900
 9900W        W78241  32.434   7.830   0.731
 9901W        W78242   2.940  38.958  14.414
 9902W        W78243  18.747   2.878  14.919
 9903W        W78244  25.660   5.787  11.543
 9904W        W78245  44.890  15.177   1.388
 9905W        W78246   3.904  35.876   4.693
 9906W        W78247  43.318  11.858  12.362
 9907W        W78248  36.457  27.062  12.044
 9908W        W78249  41.479  20.761   0.385
 9909W        W78250  24.511  18.752   9.474
 9910W        W78251  37.861  23.189  10.604
 9911W        W78252  33.455  37.016   2.812
 9912W        W78253  32.065  19.148  12.905
 9913W        W78254  26.053   4.755   3.697
 9914W        W78255   7.886  33.503   9.992
 9915W        W78256  30.152  37.896  11.009
 9916W        W78257   9.717   6.425   1.276
 9917W        W78258  17.177   6.774  10.584
 9918W        W78259  17.579   9.781   0.898
 9919W        W78260  39.558   0.406  12.087
 9920W        W78261  21.580  34.043   2.791
 9921W        W78262  22.554  28.938  10.024
 9922W        W78263  36.053  41.478  12.578
 9923W        W78264  10.318  21.644   4.318
 9924W        W78265   7.787  26.190  14.506
 9925W        W78266  30.546  41.859  11.893
 9926W        W78267  24.627  14.135  13.892
 9927W        W78268  20.650  13.129  11.971
 9928W        W78269  38.041  16.787  11.586
 9929W        W78270  20.139   8.756   4.304
 9930W        W78271  19.093  12.682   4.669
 9931W        W78272  29.491  35.076   4.193
 9932W        W78273   7.880  22.524   1.885
 9933W        W78274  18.159  13.679  11.424
 9934W        W78275   6.692  10.674  13.340
 9935W        W78276  26.523  36.443   4.684
 9936W        W78277  23.069  35.547  13.326
 9937W        W78278  28.511  14.732  12.528
 9938W        W78279  38.410  34.398   3.721
 9939W        W78280  22.216  22.549   2.400
 9940W        W78281  43.912  40.419  10.542
 9941W        W78282  18.062  34.919  14.470
 9942W        W78283  27.010  29.109   1.418
 9943W        W78284  34.556  43.377   1.247
 9944W        W78285  14.830  26.088   3.728
 9945W        W78286  32.593  15.266  11.537
 9946W        W78287   9.269  19.116   0.748
 9947W        W78288  25.122  23.728  12.421
 9948W        W78289   5.832  37.496   0.749
 9949W        W78290  33.100  14.181   3.712
 9950W        W78291  24.501  11.323   4.681
 9951W        W78292   0.285   2.927   0.290
 9952W        W78293  40.035  41.482   1.784
 9953W        W78294  20.156  24.682  11.436
 9954W        W78295  23.191   1.286   2.223
 9955W        W78296  35.938  23.994   1.358
 9956W        W78297   8.806   1.345   0.927
 9957W        W78298   9.714  23.595  14.345
 9958W        W78299  16.253  41.532  14.486
 9959W        W78300  11.280  23.530   0.297
 9960W        W78301  32.123  41.027  13.431
 9961W        W78302  15.604  38.049  10.122
 9962W        W78303  22.640  24.209   4.176
 9963W        W78304  36.544  39.841  13.832
 9964W        W78305  29.149  31.123   0.852
 9965W        W78306   2.775  38.948   3.755
 9966W        W78307  41.919  37.370   0.730
 9967W        W78308  14.273  34.964  13.919
 9968W        W78309  42.307  16.127  10.418
 9969W        W78310  36.517   8.886   4.196
 9970W        W78311  29.134  34.069   2.739
 9971W        W78312  28.029   5.836   4.258
 9972W        W78313  26.609  35.377   4.164
 9973W        W78314  16.748  19.192  13.865
 9974W        W78315  33.038  11.161  13.016
 9975W        W78316  16.255  38.012   4.253
 9976W        W78317  40.415  14.262  14.790
 9977W        W78318  12.209  40.830   0.835
 9978W        W78319  29.925  23.652   2.179
 9979W        W78320  38.871  15.738  10.160
 9980W        W78321  39.445   1.785  10.487
 9981W        W78322  17.623  27.464   3.271
 9982W        W78323  30.517  41.913  14.423
 9983W        W78324  25.190  10.688  13.855
 9984W        W78325  11.275   4.224   0.885
 9985W        W78326  11.357   9.244   5.772
 9986W        W78327  21.150  11.797   4.351
 9987W        W78328  35.467  14.311  14.366
 9988W        W78329  24.113  20.599  12.506
 9989W        W78330  44.259   5.706   3.868
 9990W        W78331  12.787  20.198   4.721
 9991W        W78332  22.120  34.406  13.044
 9992W        W78333  18.145  34.596  13.914
 9993W        W78334  11.853   3.720  10.556
 9994W        W78335  44.800  30.019   4.744
 9995W        W78336  38.065  33.496  10.492
 9996W        W78337  42.806  44.346   4.279
 9997W        W78338  16.670   2.414  14.919
 9998W        W78339  28.168   8.719  11.896
 9999W        W78340  19.084  40.393  12.533
10000W        W78341  18.167  20.260   2.402
10001W        W78342  28.149   7.297  14.950
10002W        W78343  12.249  35.520   0.324
10003W        W78344  33.573  35.031  10.476
10004W        W78345  18.655  39.534  14.023
10005W        W78346  32.964  22.245  10.962
10006W        W78347  32.958   6.792  12.867
10007W        W78348  23.695   8.732   1.851
10008W        W78349  12.721  31.095   1.328
10009W        W78350   8.703  41.900  10.976
10010W        W78351   3.395   2.734   4.233
10011W        W78352  30.942  10.760   4.130
10012W        W78353  41.877   4.244   3.353
10013W        W78354  36.003  11.336  13.063
10014W        W78355  16.104   3.883  11.988
10015W        W78356  41.815   9.368  13.428
10016W        W78357  18.218   8.166   2.249
10017W        W78358  25.553  42.461  12.980
10018W        W78359  14.275  29.934   0.947
10019W        W78360  42.826   2.317  14.835
10020W        W78361  21.575  18.686  13.934
10021W        W78362  15.760  31.900  13.037
10022W        W78363  20.563  30.546  10.597
10023W        W78364  20.595  37.377  14.896
10024W        W78365  38.516  42.289  10.539
10025W        W78366  30.538   4.433  12.872
10026W        W78367  11.237  15.622   4.326
10027W        W78368  25.494  14.652   3.698
10028W        W78369   3.771  14.624  14.489
10029W        W78370  17.108  21.554  12.509
10030W        W78371  33.904   9.882   2.362
10031W        W78372  19.741  27.686   2.249
10032W        W78373  27.063   8.351  12.973
10033W        W78374  17.694  13.311  11.978
10034W        W78375  31.637  29.172   2.349
10035W        W78376  31.153  34.588  14.441
10036W        W78377  21.633  38.025  11.531
10037W        W78378  16.215  30.133  12.557
10038W        W78379  41.395   0.908  12.445
10039W        W78380  16.249  43.338  13.320
10040W        W78381  34.960   9.833   2.851
10041W        W78382  38.517  38.540   3.380
10042W        W78383  31.067  39.362   3.165
10043W        W78384  39.421   6.907   4.742
10044W        W78385  36.524  37.896  10.972
10045W        W78386  12.302  38.859  13.454
10046W        W78387  40.818  11.168  11.894
10047W        W78388  26.511  31.473  14.392
10048W        W78389   3.455  38.871  12.471
10049W        W78390  21.739  37.042  13.382
10050W        W78391   0.316  33.467   1.307
10051W        W78392  41.901  24.685   0.902
10052W        W78393   2.441   1.794   9.986
10053W        W78394  35.412  14.733  10.976
10054W        W78395  41.468  33.589  14.880
10055W        W78396   2.441   0.955  11.076
10056W        W78397  29.979   8.853   1.364
10057W        W78398  39.874  20.226  13.348
10058W        W78399  36.561  19.140   4.783
10059W        W78400   9.163  23.159  11.906
10060W        W78401  23.574  15.662  11.031
10061W        W78402  10.141  17.754   0.916
10062W        W78403  34.374  19.082   1.839
10063W        W78404   2.471  34.956  14.511
10064W        W78405  26.079  44.298   0.294
10065W        W78406  43.352  30.103   3.686
10066W        W78407  41.479  22.140  12.358
10067W        W78408  12.257  39.424  13.498
10068W        W78409  18.153  30.581   1.790
10069W        W78410  29.456  36.543  10.493
10070W        W78411  15.109  38.556   2.198
10071W        W78412   9.347  36.463   0.439
10072W        W78413  39.522  38.553   1.911
10073W        W78414  24.090  43.419   3.272
10074W        W78415  27.980   7.732   3.659
10075W        W78416  15.705   4.438  12.004
10076W        W78417  28.972  39.898  10.469
10077W        W78418  14.721  16.643   4.260
10078W        W78419  35.593  41.894  10.502
10079W        W78420  39.558  14.159   0.833
10080W        W78421  15.307  29.992  10.965
10081W        W78422   5.212  44.883  10.588
10082W        W78423  31.493  18.171   2.783
10083W        W78424   1.803  42.288  11.096
10084W        W78425  19.086  23.171  11.906
10085W        W78426   7.904   8.750  13.038
10086W        W78427  40.985  17.716  11.090
10087W        W78428  33.437  12.259   3.353
10088W        W78429  33.927  22.139   1.395
10089W        W78430  22.166  26.005  13.860
10090W        W78431   5.881  24.195  11.914
10091W        W78432  18.130  43.908  11.923
10092W        W78433   9.361  38.918  12.998
10093W        W78434  32.916  13.301  11.612
10094W        W78435  37.387  15.803   9.997
10095W        W78436  40.548  44.771   4.353
10096W        W78437  11.373   9.812  11.903
10097W        W78438  33.995  11.192  10.896
10098W        W78439   2.339  35.499  12.977
10099W        W78440  38.371  44.464  14.915
10100W        W78441  24.644   4.702   0.260
10101W        W78442  27.585  15.255   2.785
10102W        W78443   0.806  30.552  10.133
10103W        W78444  44.944  11.359  14.898
10104W        W78445   7.259  37.373  14.311
10105W        W78446   9.362  19.191  14.472
10106W        W78447  25.100  40.862  11.084
10107W        W78448   0.291  15.769   3.713
10108W        W78449  25.128  11.788  14.404
10109W        W78450  40.537  42.877   1.351
10110W        W78451  24.667  18.684   3.758
10111W        W78452  35.940   6.900  10.924
10112W        W78453  16.743   8.852  10.889
10113W        W78454  41.911  40.548  11.104
10114W        W78455  44.317  37.367  12.087
10115W        W78456   2.773  33.057   0.421
10116W        W78457  30.956  23.508  13.808
10117W        W78458  33.619   1.432  14.907
10118W        W78459   3.452   6.840   4.191
10119W        W78460  25.617  34.944   4.777
10120W        W78461   7.230   2.780   0.825
10121W        W78462  11.306  17.193  14.892
10122W        W78463  43.418   4.919   1.347
10123W        W78464  17.775  11.727  14.966
10124W        W78465   9.262  17.569  14.348
10125W        W78466  32.932  14.146  14.014
10126W        W78467  33.101  43.975  12.972
10127W        W78468  22.698   2.723   4.696
10128W        W78469  24.147  44.372  12.433
10129W        W78470  29.057  36.060   2.790
10130W        W78471  19.074  10.194   3.369
10131W        W78472  25.533   1.391   0.936
10132W        W78473  22.695  20.116   1.403
10133W        W78474  40.522  31.610   1.256
10134W        W78475  42.871  13.224   5.215
10135W        W78476  33.056   9.812   3.313
10136W        W78477  39.057  10.250  13.801
10137W        W78478   5.338   3.418   0.322
10138W        W78479   5.866  11.653   1.826
10139W        W78480  11.723  24.549   4.129
10140W        W78481   0.391  14.240   3.832
10141W        W78482  37.921  12.791   4.622
10142W        W78483  25.607   5.216  14.885
10143W        W78484  11.351  37.533  11.875
10144W        W78485  34.443  37.481   0.419
10145W        W78486   0.358  22.199  13.476
10146W        W78487   6.190  30.506  14.276
10147W        W78488  18.790  18.688   3.693
10148W        W78489  24.163  25.152   2.228
10149W        W78490  24.170  18.552  12.415
10150W        W78491   3.849  31.136  10.435
10151W        W78492  15.813  29.561   0.927
10152W        W78493  34.468  41.322  12.055
10153W        W78494  11.174  21.147  11.453
10154W        W78495  10.254   0.805   3.347
10155W        W78496  35.358  34.012   0.872
10156W        W78497   8.282   3.336   0.304
10157W        W78498  36.486   9.816   1.338
10158W        W78499   3.826  34.099   2.898
10159W        W78500  29.528  24.557  12.461
10160W        W78501  13.741  10.242   0.349
10161W        W78502  13.789  30.538   3.666
10162W        W78503  32.081  13.247   0.399
10163W        W78504   5.868  12.118   1.252
10164W        W78505  30.494  41.027  11.015
10165W        W78506  39.995  33.009   4.602
10166W        W78507  16.118  43.371  10.517
10167W        W78508   0.422  24.204  10.584
10168W        W78509  21.026  18.686  11.486
10169W        W78510  37.398  33.467   1.362
10170W        W78511  27.501   4.341  14.864
10171W        W78512  39.893  43.289   5.301
10172W        W78513  40.442  24.217  14.772
10173W        W78514  10.242  35.363  11.600
10174W        W78515   8.377  12.328  12.468
10175W        W78516  43.509  10.178  11.869
10176W        W78517  17.748  22.014  10.609
10177W        W78518  13.135  40.537  10.452
10178W        W78519  22.654  11.332   1.213
10179W        W78520  32.058  19.755  13.911
10180W        W78521  30.161  39.394  12.530
10181W        W78522  26.170  38.895   1.808
10182W        W78523  26.098  27.650   5.136
10183W        W78524  23.542  33.422  13.024
10184W        W78525  36.898  27.552  11.496
10185W        W78526  32.524  16.263   2.189
10186W        W78527  43.982  20.124   0.814
10187W        W78528   3.249   5.309  12.546
10188W        W78529   3.304  14.719   0.249
10189W        W78530  24.577   2.843   4.610
10190W        W78531   1.422   2.774   1.917
10191W        W78532  44.441   4.761   2.330
10192W        W78533  32.482  32.619   1.391
10193W        W78534  20.609   6.881   1.932
10194W        W78535  26.057  11.719   3.678
10195W        W78536  32.971  36.476  11.051
10196W        W78537   8.767   4.899   3.185
10197W        W78538  37.914  11.736  10.503
10198W        W78539  42.399   4.436  12.040
10199W        W78540  12.176  30.658  14.772
10200W        W78541  19.091  43.835   4.258
10201W        W78542  33.506  43.409   1.434
10202W        W78543  16.100  32.462   1.352
10203W        W78544   4.706  10.316   0.936
10204W        W78545   5.217  12.315   2.855
10205W        W78546  37.342  24.593  14.836
10206W        W78547  12.299  24.141  13.502
10207W        W78548  25.634  33.938  14.405
10208W        W78549  42.775  41.478   2.307
10209W        W78550  44.822  24.078   0.796
10210W        W78551  12.616  19.172  12.883
10211W        W78552  12.135  20.627  10.625
10212W        W78553  41.313   8.696   4.332
10213W        W78554  25.475  34.008  10.559
10214W        W78555  26.521   8.759  10.098
10215W        W78556  15.746  30.579  10.955
10216W        W78557  25.571  44.773   1.760
10217W        W78558  13.308   9.794  14.436
10218W        W78559   1.892  30.077   2.250
10219W        W78560  23.523  18.206  12.917
10220W        W78561   8.869  39.507  14.375
10221W        W78562   5.901  32.931  14.031
10222W        W78563  26.037  26.512   0.948
10223W        W78564   5.806  12.803  10.637
10224W        W78565  36.900  28.004   1.792
10225W        W78566   5.419   7.173  10.542
10226W        W78567   3.710  22.556   1.912
10227W        W78568  36.549   6.207   4.837
10228W        W78569  35.014  44.940   4.220
10229W        W78570  18.699   9.886  12.534
10230W        W78571  40.455  13.795  14.275
10231W        W78572  41.807  17.561   1.291
10232W        W78573  42.440  17.560   2.776
10233W        W78574  24.035  25.027  13.504
10234W        W78575  36.369  28.947  12.555
10235W        W78576   5.869   5.740  12.909
10236W        W78577  32.058  30.056  13.928
10237W        W78578  31.611  18.664   3.271
10238W        W78579  14.105  36.368   3.275
10239W        W78580  39.990   6.880   3.185
10240W        W78581  16.207  10.180   0.430
10241W        W78582  24.054  23.079  13.907
10242W        W78583  40.950  17.760   2.319
10243W        W78584  43.985  20.146   3.316
10244W        W78585  22.661  39.343   1.222
10245W        W78586  16.313   2.388   3.648
10246W        W78587  14.665  41.989   1.449
10247W        W78588   8.391  42.509   1.361
10248W        W78589   1.942  12.290   4.654
10249W        W78590  12.624  17.302   4.275
10250W        W78591   0.896  11.703  10.126
10251W        W78592  22.209   3.875  12.894
10252W        W78593  34.040  42.935  10.576
10253W        W78594  28.500   7.843  13.898
10254W        W78595  20.065  10.226   3.376
10255W        W78596  35.923  10.157   2.288
10256W        W78597  10.369  31.075  13.014
10257W        W78598  13.614  40.825   2.670
10258W        W78599  15.105   7.835   3.867
10259W        W78600  41.008  22.605  12.548
10260W        W78601   1.765  17.727  14.783
10261W        W78602  15.671  25.644   0.476
10262W        W78603  17.284  28.439   0.885
10263W        W78604  26.507  13.293   2.379
10264W        W78605  27.676  12.625   1.775
10265W        W78606   9.384  44.757   4.171
10266W        W78607  14.602  35.097  12.016
10267W        W78608  39.921  32.609  13.351
10268W        W78609   5.776  22.116   4.298
10269W        W78610  26.566  36.040  14.005
10270W        W78611  17.252   1.853  13.819
10271W        W78612   1.863   7.811  12.342
10272W        W78613  19.240  20.667   1.902
10273W        W78614   3.940  14.131  13.918
10274W        W78615  10.706   9.804   5.574
10275W        W78616   6.792  37.472   1.323
10276W        W78617   4.394  22.060  11.896
10277W        W78618  36.407  34.059  10.470
10278W        W78619   0.301   3.230   2.662
10279W        W78620  37.410  42.353   1.799
10280W        W78621  28.105  41.444  10.588
10281W        W78622  31.143  35.964  10.578
10282W        W78623  19.719  24.019   2.830
10283W        W78624  23.066  44.307  10.514
10284W        W78625  24.087  23.009   3.169
10285W        W78626   2.450  18.108   3.258
10286W        W78627  33.921  29.552  12.541
10287W        W78628   9.182  21.086  10.579
10288W        W78629  18.621   0.267  13.833
10289W        W78630  35.027  32.093   4.207
10290W        W78631   4.903   6.250  10.439
10291W        W78632  42.369  26.537   0.465
10292W        W78633  25.988  30.563   4.644
10293W        W78634  39.953   7.342  14.381
10294W        W78635  21.732   4.331   0.297
10295W        W78636  25.622  20.540  11.895
10296W        W78637  10.174  44.446  14.383
10297W        W78638  36.390  11.142   1.714
10298W        W78639  28.186   7.253  14.004
10299W        W78640  11.646  32.981  12.825
10300W        W78641  27.578   2.398  11.421
10301W        W78642   1.374   5.841  11.581
10302W        W78643  23.219  26.123  14.991
10303W        W78644  21.576   5.855   4.211
10304W        W78645  29.640   2.911   3.302
10305W        W78646   3.711  11.355  13.452
10306W        W78647  42.858  13.225   2.178
10307W        W78648  28.993  21.164   1.920
10308W        W78649  18.624  25.678   4.677
10309W        W78650  20.631  33.423  14.306
10310W        W78651  32.931  24.697  11.474
10311W        W78652  17.068  38.508   2.840
10312W        W78653  10.189   1.250  10.003
10313W        W78654  20.570  16.246   1.219
10314W        W78655   2.780  27.679   0.858
10315W        W78656  30.072  30.949  11.016
10316W        W78657  20.661  19.610  11.601
10317W        W78658  14.686  26.558  12.569
10318W        W78659   8.307  22.578  14.413
10319W        W78660  37.568  30.928  11.105
10320W        W78661  41.500  13.250   0.853
10321W        W78662  22.644  21.733   1.850
10322W        W78663  42.834  44.852  12.858
10323W        W78664  29.543  30.582  10.471
10324W        W78665   0.970  41.032  13.494
10325W        W78666   3.916  32.502   0.350
10326W        W78667   7.265  44.769   3.730
10327W        W78668  24.168  42.801  13.455
10328W        W78669  33.487   6.419   2.369
10329W        W78670  10.217  40.472   0.403
10330W        W78671   3.365  32.074  11.056
10331W        W78672   8.387  44.296  13.334
10332W        W78673  35.854  21.083  11.995
10333W        W78674   9.783  11.349   3.286
10334W        W78675  33.449  27.565   1.811
10335W        W78676  40.436  16.632  10.924
10336W        W78677   0.359  38.919   4.704
10337W        W78678  20.219   6.834   3.699
10338W        W78679  35.430   1.434  10.623
10339W        W78680   0.783  36.883   3.375
10340W        W78681  41.995  26.143   3.302
10341W        W78682   4.400  29.054  12.382
10342W        W78683  41.912  26.960  12.407
10343W        W78684  28.486  17.727  12.965
10344W        W78685  33.560  20.174   2.885
10345W        W78686  26.180   6.714  12.482
10346W        W78687  39.027  23.661   3.779
10347W        W78688  29.621  38.914   0.395
10348W        W78689  19.770  35.048   3.796
10349W        W78690  41.867  41.869   3.339
10350W        W78691  35.966   3.432   4.196
10351W        W78692   8.803   9.815   4.276
10352W        W78693  21.646  33.433   1.867
10353W        W78694  14.821  20.697   2.322
10354W        W78695  21.642  42.972  12.028
10355W        W78696  12.850  14.311   3.227
10356W        W78697  39.345  41.484  11.042
10357W        W78698  37.061  33.040   1.444
10358W        W78699  25.110  25.524   2.357
10359W        W78700  32.960   1.861  12.956
10360W        W78701  36.882  42.954  12.434
10361W        W78702  27.502  22.087  13.548
10362W        W78703  20.549  10.730   2.801
10363W        W78704  43.980  31.971  11.487
10364W        W78705   0.767  20.092  11.465
10365W        W78706  41.808  29.930   1.806
10366W        W78707   7.697  19.592   2.347
10367W        W78708  15.143  26.036  11.543
10368W        W78709  22.178  44.405  14.312
10369W        W78710  26.635  26.586  12.074
10370W        W78711  33.906  16.758   0.308
10371W        W78712   4.842  30.020   3.836
10372W        W78713   6.206  12.672  10.473
10373W        W78714  34.521  33.038   1.335
10374W        W78715  40.521  40.816  11.536
10375W        W78716   4.917   9.761   0.796
10376W        W78717  29.972  18.284  12.342
10377W        W78718   7.188  36.385  11.034
10378W        W78719  38.544  35.005   1.252
10379W        W78720  21.044  43.847  10.971
10380W        W78721  31.946   0.353  13.367
10381W        W78722   2.858  24.690   1.714
10382W        W78723  29.031  21.121  11.992
10383W        W78724  13.619   9.213   1.328
10384W        W78725  23.625   0.774  11.538
10385W        W78726   6.274  39.919   2.414
10386W        W78727  22.585  37.582   3.837
10387W        W78728  13.225   8.709   0.831
10388W        W78729  25.083  39.369   1.429
10389W        W78730   0.956  28.102   1.754
10390W        W78731   7.244   0.400   1.234
10391W        W78732  11.764  37.568   1.848
10392W        W78733  24.983  31.016  12.456
10393W        W78734  20.761  38.338  11.005
10394W        W78735  32.553  39.935  11.426
10395W        W78736  22.230   6.806  10.424
10396W        W78737  17.304  16.756   3.256
10397W        W78738   8.726  42.801  13.435
10398W        W78739   1.301   8.225  11.995
10399W        W78740  40.811  33.976  14.759
10400W        W78741   3.760  41.434   3.241
10401W        W78742  19.573  22.248   4.827
10402W        W78743  39.817  41.513  10.472
10403W        W78744  39.863  14.824  10.558
10404W        W78745  26.068  30.549  11.375
10405W        W78746  40.044  41.439   4.629
10406W        W78747  22.185  22.590  13.396
10407W        W78748  12.335   6.797  10.901
10408W        W78749  44.877  28.554   3.868
10409W        W78750  25.539  35.530  10.952
10410W        W78751  44.338  41.378  14.490
10411W        W78752  23.091  39.915   1.780
10412W        W78753  12.145  26.051  11.404
10413W        W78754  22.166   6.853  14.004
10414W        W78755  32.552  24.699   0.958
10415W        W78756  42.867  13.829  13.937
10416W        W78757  11.761  35.431   4.777
10417W        W78758  27.542  43.444  13.364
10418W        W78759   0.273  16.307   3.691
10419W        W78760  31.412  30.475   1.397
10420W        W78761   9.222  16.141  12.895
10421W        W78762  38.387  29.123   3.642
10422W        W78763   0.299  40.334   2.203
10423W        W78764   7.410  27.006  11.869
10424W        W78765  26.564   7.886   1.350
10425W        W78766   3.298   4.863  14.461
10426W        W78767  34.909  36.034   4.187
10427W        W78768  15.183  29.063  14.970
10428W        W78769  40.949  15.689   3.293
10429W        W78770  44.398  18.136   3.724
10430W        W78771   0.785  18.684  10.579
10431W        W78772   8.349  15.637  10.102
10432W        W78773   7.778  21.049   0.400
10433W        W78774  26.591   4.433   4.261
10434W        W78775  12.203  33.383  13.448
10435W        W78776  14.835  32.611   2.875
10436W        W78777  20.098  24.552   4.717
10437W        W78778  44.942  26.593  14.309
10438W        W78779  32.458   1.419   4.760
10439W        W78780   0.316   2.455   3.154
10440W        W78781  37.406   8.285  13.919
10441W        W78782  23.196  13.697  10.430
10442W        W78783   1.816  21.575  11.497
10443W        W78784   6.880  15.202   2.216
10444W        W78785  34.890  38.827   2.259
10445W        W78786  33.577   2.342  11.418
10446W        W78787  38.985   6.238   2.252
10447W        W78788  30.162  41.316  10.892
10448W        W78789  42.465  13.662   3.197
10449W        W78790  13.235  15.578  11.857
10450W        W78791  23.140  21.745  12.416
10451W        W78792  12.269  25.025  11.598
10452W        W78793  41.898  29.101   0.896
10453W        W78794  25.125  12.772  11.374
10454W        W78795   8.398  42.282   3.175
10455W        W78796  24.129  13.795  14.784
10456W        W78797  29.024   9.293  13.481
10457W        W78798  34.454  37.013   3.194
10458W        W78799  18.693   0.431   3.205
10459W        W78800  29.973  22.028  13.854
10460W        W78801   6.255  27.629  12.927
10461W        W78802  24.012   1.908  10.443
10462W        W78803   0.454   8.798  11.998
10463W        W78804  27.454  19.556   4.221
10464W        W78805  42.523  22.113   0.299
10465W        W78806   6.892  30.939   4.279
10466W        W78807  41.007  29.442  13.975
10467W        W78808   5.214   4.413  11.905
10468W        W78809  35.510  20.216   0.938
10469W        W78810   0.931  12.704   1.844
10470W        W78811  29.621  33.027   3.860
10471W        W78812  17.761   1.367  14.360
10472W        W78813  28.667  36.982   3.250
10473W        W78814  28.592  28.060   0.733
10474W        W78815  14.792  31.039   2.409
10475W        W78816  23.493   6.808   2.899
10476W        W78817  44.400   0.345   1.282
10477W        W78818  36.432  28.637   4.620
10478W        W78819  40.435  25.586  12.088
10479W        W78820  27.180  14.634  12.481
10480W        W78821   7.711  24.031  12.956
10481W        W78822  30.099  19.638  11.959
10482W        W78823   7.383  16.300   0.841
10483W        W78824  23.999  43.825   3.354
10484W        W78825  14.138  44.868  13.444
10485W        W78826  36.378  23.147  11.966
10486W        W78827  36.942  42.988  11.390
10487W        W78828  17.185  26.100  14.374
10488W        W78829   3.230   9.753  12.498
10489W        W78830  22.188  29.121  14.355
10490W        W78831  22.537   2.313   4.284
10491W        W78832  44.279  24.586   4.703
10492W        W78833  14.720  34.605  13.976
10493W        W78834   5.304  18.604  13.003
10494W        W78835   7.826   0.836  13.476
10495W        W78836  20.749  15.723  14.493
10496W        W78837   3.851  10.186   0.345
10497W        W78838  28.559  14.315   0.796
10498W        W78839  18.789  25.711  12.389
10499W        W78840  33.590  42.447  13.854
10500W        W78841  41.798  36.506   3.710
10501W        W78842  29.133  26.612   4.651
10502W        W78843  11.138  39.460   1.243
10503W        W78844   9.195  35.894   4.253
10504W        W78845  20.678  16.158  11.125
10505W        W78846  27.617  39.834   0.392
10506W        W78847  34.428  42.840  13.512
10507W        W78848  43.500  13.317  14.887
10508W        W78849  32.988   4.293   2.883
10509W        W78850  26.097  42.491  14.352
10510W        W78851  34.515  12.853  14.024
10511W        W78852  37.899   0.436  13.808
10512W        W78853   7.332   4.857  12.955
10513W        W78854  30.639  44.377   0.243
10514W        W78855  24.708  22.509  11.511
10515W        W78856  15.775  18.772   1.747
10516W        W78857  36.579  25.690  11.395
10517W        W78858  24.679  30.577   0.315
10518W        W78859   9.257  29.984  12.920
10519W        W78860   2.365   5.260   3.753
10520W        W78861  21.622   8.815  13.871
10521W        W78862   6.762  35.002   2.823
10522W        W78863  37.947  24.154   4.695
10523W        W78864  22.100   1.861   0.864
10524W        W78865   6.405   1.761  14.968
10525W        W78866  16.774  30.029   0.959
10526W        W78867  24.583  21.743   0.270
10527W        W78868   0.480  17.661   0.480
10528W        W78869  29.977  23.499  11.490
10529W        W78870  15.769  37.028   4.311
10530W        W78871  12.161  35.888   4.799
10531W        W78872  37.878  23.585   0.246
10532W        W78873  18.236   1.771   0.339
10533W        W78874   7.240  29.928   0.777
10534W        W78875  30.525  15.806  13.821
10535W        W78876  37.507  44.812  10.496
10536W        W78877  41.817  44.812   2.268
10537W        W78878  12.271  32.100  14.023
10538W        W78879  21.567   2.809   0.752
10539W        W78880   2.407  11.283  14.279
10540W        W78881  26.069  15.107  14.477
10541W        W78882  39.498  39.896   4.826
10542W        W78883  14.337  31.405  12.385
10543W        W78884  29.981  19.202   3.221
10544W        W78885  15.087   3.458   0.448
10545W        W78886  39.855  40.825   3.338
10546W        W78887  32.071   3.928   0.439
10547W        W78888  16.639   1.426   2.812
10548W        W78889  24.627   6.706   4.720
10549W        W78890  42.315   0.854  11.126
10550W        W78891   6.225  29.523   3.806
10551W        W78892  35.921   2.879  12.541
10552W        W78893  31.403  24.026   4.751
10553W        W78894   0.762  41.476   4.148
10554W        W78895  20.066  22.168  12.352
10555W        W78896  30.634   4.438  12.399
10556W        W78897  31.978  26.955   0.313
10557W        W78898   7.813  25.698   3.643
10558W        W78899  40.040  16.677   1.922
10559W        W78900   8.178  40.032   4.292
10560W        W78901   4.916  44.791  14.951
10561W        W78902  11.689  34.947   9.950
10562W        W78903  12.653  16.800   2.871
10563W        W78904  32.631  40.397  10.078
10564W        W78905  13.742   6.188   2.721
10565W        W78906   1.433  12.268   2.309
10566W        W78907  20.262   4.835  10.153
10567W        W78908  42.908  31.107  13.340
10568W        W78909  10.177  15.578  14.376
10569W        W78910  41.479  16.578   2.721
10570W        W78911  15.327  17.141   1.233
10571W        W78912  17.636  14.714  12.990
10572W        W78913   3.952   6.736  13.829
10573W        W78914  18.130  20.528  14.488
10574W        W78915  27.588  14.795   1.760
10575W        W78916  38.361  22.675   1.339
10576W        W78917  43.918  41.409   3.321
10577W        W78918  12.704  44.441   3.218
10578W        W78919  27.196  24.145   2.719
10579W        W78920  36.354  42.486   1.880
10580W        W78921  17.278  31.920   3.807
10581W        W78922   3.909  41.427  10.957
10582W        W78923  34.964   3.341   0.400
10583W        W78924  33.585   4.758   1.422
10584W        W78925  26.682  24.004   4.300
10585W        W78926  39.887   5.890  13.998
10586W        W78927  24.690  18.250   1.718
10587W        W78928   0.467  14.686   1.923
10588W        W78929  38.871  17.255   0.964
10589W        W78930   0.971   8.727   9.991
10590W        W78931  11.206   6.868   2.750
10591W        W78932  29.165   4.824   3.206
10592W        W78933  35.375  17.654  11.481
10593W        W78934  17.786  18.207  10.954
10594W        W78935  16.113  21.123  11.064
10595W        W78936  40.030  42.399   9.933
10596W        W78937   5.276  23.173  14.285
10597W        W78938  33.477  18.088   0.322
10598W        W78939  15.283  34.003   0.399
10599W        W78940  40.305  39.040   5.278
10600W        W78941   2.259   8.844  10.058
10601W        W78942   6.210  16.135   1.732
10602W        W78943  18.163  17.691   4.189
10603W        W78944  12.698  10.729  12.397
10604W        W78945   8.681  22.192  13.910
10605W        W78946  15.298  20.188  13.411
10606W        W78947   9.694   9.346   3.646
10607W        W78948  41.801  44.772  11.932
10608W        W78949   1.880  17.293  11.491
10609W        W78950  37.494   1.941  13.824
10610W        W78951  31.017  43.855   0.867
10611W        W78952  30.104  33.888  14.307
10612W        W78953  24.711   8.323  13.955
10613W        W78954  10.835  38.405  11.049
10614W        W78955  43.501  19.744  14.325
10615W        W78956   9.861  29.435   2.769
10616W        W78957   5.723  19.123  14.396
10617W        W78958   1.856  33.911  11.547
10618W        W78959  39.819   2.761   3.685
10619W        W78960  41.970  10.345   2.280
10620W        W78961  13.817  34.445   3.707
10621W        W78962  20.067  40.304  12.388
10622W        W78963  20.072  22.229   4.309
10623W        W78964  31.129  18.756   1.706
10624W        W78965  27.568  23.096  12.350
10625W        W78966  33.883   1.427   3.358
10626W        W78967   4.366  13.288   1.395
10627W        W78968  25.206   6.193  14.480
10628W        W78969   8.760  37.358  10.022
10629W        W78970  20.596  42.460   1.800
10630W        W78971  37.016  18.687   0.273
10631W        W78972  44.464  19.202  13.377
10632W        W78973  25.669   8.207  13.920
10633W        W78974   9.168  12.233  14.856
10634W        W78975   3.267   7.871   1.244
10635W        W78976  23.158  35.586  10.554
10636W        W78977   6.185  39.415  10.965
10637W        W78978  27.062  28.177  12.349
10638W        W78979  17.609   8.327   0.799
10639W        W78980  17.699  14.676   0.433
10640W        W78981  41.996  34.554  12.452
10641W        W78982   3.825  40.469   4.311
10642W        W78983   1.965  35.594  11.039
10643W        W78984  32.980  11.782  11.880
10644W        W78985  21.597  26.633   0.287
10645W        W78986  19.729  36.029   1.696
10646W        W78987   7.734  21.241  11.497
10647W        W78988  23.697  19.751   1.417
10648W        W78989   2.765  31.629  11.470
10649W        W78990  30.101  15.220   0.263
10650W        W78991  35.876  21.115  14.013
10651W        W78992   3.221  43.006  13.959
10652W        W78993  23.144  39.356   2.818
10653W        W78994   6.904  12.168   3.288
10654W        W78995  27.129  22.044   1.361
10655W        W78996  39.824  44.493  10.051
10656W        W78997  21.582  36.980  11.876
10657W        W78998  32.046   6.872  10.581
10658W        W78999  42.808  32.563   1.822
10659W        W79000   5.263  19.752  14.817
10660W        W79001  27.530  43.969  10.484
10661W        W79002  29.637   5.350   1.885
10662W        W79003  15.099  21.044   9.926
10663W        W79004  11.365  25.194   4.126
10664W        W79005  36.854  38.545  13.822
10665W        W79006  39.929  30.106  13.310
10666W        W79007  19.250   8.685   4.741
10667W        W79008  37.963  40.036   3.794
10668W        W79009  36.009   7.817  11.924
10669W        W79010  10.233   8.705   0.893
10670W        W79011  18.644  22.066   4.277
10671W        W79012  17.691  11.361   1.431
10672W        W79013  16.086   6.225  14.363
10673W        W79014  44.979  14.123  13.911
10674W        W79015  31.145  28.659  11.972
10675W        W79016  18.632  40.370   2.362
10676W        W79017  23.205  28.181   0.413
10677W        W79018  38.906  11.370   2.844
10678W        W79019   5.312  14.784   3.184
10679W        W79020  23.581  29.454  13.030
10680W        W79021   1.950  12.808  13.058
10681W        W79022  18.548   6.393  14.943
10682W        W79023  35.476  22.006   4.208
10683W        W79024   9.233  25.481   1.779
10684W        W79025  18.690   2.840   3.386
10685W        W79026  41.947   4.759  13.013
10686W        W79027  23.707  43.324  13.058
10687W        W79028   1.383   6.363  12.888
10688W        W79029  40.933  19.626   3.678
10689W        W79030   0.464   6.301   2.820
10690W        W79031  28.100  28.650   4.201
10691W        W79032  29.636  33.611  13.865
10692W        W79033  43.292  35.071  12.088
10693W        W79034  40.826   5.304   0.828
10694W        W79035   2.776  34.511  11.989
10695W        W79036  27.620  42.904  13.837
10696W        W79037   1.935  25.569  14.343
10697W        W79038  38.961  35.409   4.779
10698W        W79039  24.510  44.798   1.323
10699W        W79040  23.582  23.672  12.529
10700W        W79041  16.660  34.600  14.404
10701W        W79042   4.755  18.204   5.260
10702W        W79043  35.936  36.010   3.650
10703W        W79044  39.529   8.781  11.909
10704W        W79045  31.460  30.030   4.792
10705W        W79046  24.565  44.261   0.809
10706W        W79047   9.240  38.854  10.560
10707W        W79048  18.578   9.795   4.641
10708W        W79049  33.932  44.855  13.354
10709W        W79050  43.330  12.155   4.817
10710W        W79051  33.060  11.267  12.347
10711W        W79052  20.540  44.458  11.118
10712W        W79053  38.025  26.160  14.908
10713W        W79054  38.846  35.578   3.669
10714W        W79055  26.196  32.892  11.885
10715W        W79056   2.257  41.484   4.301
10716W        W79057  25.535   6.788   4.258
10717W        W79058  21.159  21.561   0.907
10718W        W79059  19.219  24.146  13.023
10719W        W79060  24.485  15.672  11.036
10720W        W79061  12.701  19.716   3.655
10721W        W79062  16.662  29.074  10.999
10722W        W79063   4.210  43.772   3.847
10723W        W79064  31.410  28.518   1.718
10724W        W79065  37.071  31.038   4.287
10725W        W79066   5.847   1.809   4.277
10726W        W79067  42.521   9.317  14.313
10727W        W79068  33.577   3.832  14.339
10728W        W79069  11.625  25.488   3.340
10729W        W79070   0.351  41.834  11.593
10730W        W79071  25.173  44.984  13.868
10731W        W79072  33.426  41.342   2.707
10732W        W79073  35.861  26.978   4.622
10733W        W79074   3.429  15.690   3.372
10734W        W79075  42.872  21.126  14.849
10735W        W79076   7.690  26.546   1.887
10736W        W79077  19.146  43.838   2.339
10737W        W79078   0.856  25.056  14.301
10738W        W79079  44.878   3.884  10.928
10739W        W79080  14.720  24.559  12.849
10740W        W79081   8.232  29.621   1.762
10741W        W79082  34.437  28.664   0.337
10742W        W79083   9.869   7.848  14.913
10743W        W79084  38.023   7.390   3.722
10744W        W79085   6.347  18.262  14.899
10745W        W79086  24.130  12.784   3.226
10746W        W79087  14.811  17.789   1.363
10747W        W79088  20.744  31.540  13.029
10748W        W79089   2.380  36.934   3.326
10749W        W79090  14.299  12.133   0.427
10750W        W79091   9.376   8.279   0.880
10751W        W79092  35.577  15.276  14.925
10752W        W79093  39.962   8.849  14.475
10753W        W79094  33.964  43.499   3.278
10754W        W79095  11.221   2.809   1.830
10755W        W79096   4.245  10.803  10.575
10756W        W79097  14.797  12.653  13.953
10757W        W79098  11.182  32.402  12.928
10758W        W79099  39.981   1.408   1.302
10759W        W79100  11.309   8.769   5.145
10760W        W79101  37.967  36.435  14.809
10761W        W79102  32.943  13.631  12.510
10762W        W79103   1.955  40.984   3.675
10763W        W79104  21.574   4.424  13.447
10764W        W79105  17.617   3.437   1.794
10765W        W79106  15.725  28.624  13.353
10766W        W79107  20.612   3.891   3.311
10767W        W79108  13.735  26.043   4.783
10768W        W79109   7.680  34.914   4.216
10769W        W79110  33.977  26.497  10.549
10770W        W79111  15.644   8.391  11.523
10771W        W79112  34.941  23.137  12.836
10772W        W79113  33.479  16.174   4.724
10773W        W79114  30.979  28.043  13.966
10774W        W79115  42.849  41.830  13.374
10775W        W79116  22.059  13.155   3.827
10776W        W79117  16.239   4.253   4.675
10777W        W79118  28.110  18.090   1.750
10778W        W79119  34.461  24.162   1.343
10779W        W79120  43.508  30.002  13.053
10780W        W79121  20.197  34.967   4.682
10781W        W79122  33.050  31.145   0.360
10782W        W79123  30.521  28.097   2.195
10783W        W79124  13.174   9.657  12.492
10784W        W79125  14.213  39.432   5.312
10785W        W79126  35.387  22.531  12.059
10786W        W79127  30.130   2.393   3.334
10787W        W79128  16.717   4.301   4.819
10788W        W79129  23.658  20.610   4.233
10789W        W79130   7.721  27.544   3.751
10790W        W79131  36.412  41.536   2.222
10791W        W79132  20.719  43.392   0.828
10792W        W79133  41.959  30.541   2.878
10793W        W79134   0.337  13.156  13.390
10794W        W79135  15.178  10.215  10.547
10795W        W79136  13.643  30.577   0.267
10796W        W79137  31.936  14.771  11.951
10797W        W79138  22.704  17.574   0.481
10798W        W79139  33.476   0.348  13.975
10799W        W79140   4.830  33.984   3.641
10800W        W79141   6.378   7.879  14.976
10801W        W79142  33.600  25.499   4.624
10802W        W79143   5.429  39.872   1.793
10803W        W79144   1.936  39.901   4.226
10804W        W79145  21.192  41.430   4.190
10805W        W79146  41.962   6.290   2.845
10806W        W79147  18.123  13.176  12.531
10807W        W79148  35.994  12.848  11.546
10808W        W79149  21.197  44.000  14.491
10809W        W79150  30.060   0.746   0.435
10810W        W79151  10.876  23.531  14.385
10811W        W79152  41.440  29.429   0.363
10812W        W79153  10.840  23.532  10.507
10813W        W79154  18.280  28.070   2.409
10814W        W79155  17.132  37.465  14.427
10815W        W79156  40.362   3.218  13.314
10816W        W79157  11.827   2.955  12.504
10817W        W79158  36.062  36.359   0.855
10818W        W79159  44.806  37.503  14.956
10819W        W79160  35.997  15.302  13.466
10820W        W79161   9.202  17.097   3.789
10821W        W79162  11.863  39.521   5.666
10822W        W79163   0.452  20.080   5.306
10823W        W79164   8.398   0.407   3.208
10824W        W79165  13.269  44.872  10.919
10825W        W79166  26.136  10.366   0.822
10826W        W79167  42.407   4.354  13.959
10827W        W79168  37.470   8.389   2.813
10828W        W79169  11.279   2.916   1.238
10829W        W79170  43.961  26.971   0.900
10830W        W79171  25.503  20.198  10.418
10831W        W79172  31.551  44.323   3.221
10832W        W79173  22.561  42.828   1.738
10833W        W79174  18.081  23.592   1.371
10834W        W79175  12.302  23.617  14.932
10835W        W79176  29.171  29.006   1.861
10836W        W79177  20.069  20.638   4.165
10837W        W79178  41.838  38.571  14.794
10838W        W79179  12.610  33.484  10.533
10839W        W79180  33.580  15.642  14.934
10840W        W79181  17.254   1.970  14.836
10841W        W79182  25.219  29.921  12.007
10842W        W79183   3.806  35.079  13.036
10843W        W79184  32.974  35.566  10.412
10844W        W79185   3.736  21.216  14.983
10845W        W79186  10.184   8.174  14.787
10846W        W79187  28.650  15.193   4.599
10847W        W79188  24.001  34.948  12.841
10848W        W79189   9.725   9.795   0.479
10849W        W79190   0.347   3.807  11.484
10850W        W79191  40.459   2.734   0.432
10851W        W79192  24.989  20.234   2.345
10852W        W79193   8.281  33.013   3.190
10853W        W79194  26.062  14.779  11.518
10854W        W79195  30.645  27.050  14.895
10855W        W79196  37.937  12.218   0.484
10856W        W79197  32.493  21.525   0.937
10857W        W79198  43.497  17.624   3.260
10858W        W79199  37.916  35.886   0.799
10859W        W79200  42.423  41.405   1.406
10860W        W79201   7.319  12.791  12.842
10861W        W79202   3.716  24.519  14.830
10862W        W79203   3.436  42.864   4.168
10863W        W79204  19.128  36.482   2.381
10864W        W79205  11.131   4.421   0.293
10865W        W79206  22.541  17.598  14.899
10866W        W79207  38.073  16.179  11.005
10867W        W79208  15.683  24.542   0.889
10868W        W79209  41.468  11.292   0.249
10869W        W79210   8.757   7.386  10.574
10870W        W79211  10.236  34.939   1.740
10871W        W79212  20.729  30.545   1.318
10872W        W79213  14.285  25.693  12.368
10873W        W79214  14.655  17.124  14.391
10874W        W79215  40.427  10.216  11.123
10875W        W79216  15.619  30.603  10.572
10876W        W79217  31.041  40.464  12.935
10877W        W79218   5.849  20.729  13.531
10878W        W79219  17.069   3.843   3.378
10879W        W79220  20.572   2.751   3.719
10880W        W79221  27.134  10.690  14.786
10881W        W79222  23.089  27.647   1.935
10882W        W79223  10.221  24.131  11.578
10883W        W79224  31.991  34.416   3.761
10884W        W79225  19.088  10.164  10.451
10885W        W79226  19.201  26.558   2.226
10886W        W79227   9.648   1.829  13.463
10887W        W79228   6.761  41.981  13.031
10888W        W79229  19.211   3.397  14.472
10889W        W79230  33.438  14.252   5.213
10890W        W79231  29.435  39.981   0.287
10891W        W79232  24.481  29.667   5.226
10892W        W79233  22.182  44.393  12.537
10893W        W79234  44.789  20.711   5.736
10894W        W79235  42.402  25.132  12.353
10895W        W79236  34.582  12.741  12.009
10896W        W79237  37.361  29.427  12.571
10897W        W79238   1.347   9.319   0.373
10898W        W79239  40.882   9.757  11.377
10899W        W79240  33.438  17.130  12.429
10900W        W79241  36.362  23.165   4.829
10901W        W79242  21.625  13.663  11.458
10902W        W79243  22.139  32.467   1.306
10903W        W79244  16.788  20.238   4.648
10904W        W79245   4.325  12.195   2.731
10905W        W79246  26.962  21.704   1.880
10906W        W79247  12.655  19.206   0.442
10907W        W79248  25.601  16.192  10.139
10908W        W79249  27.085  27.499  11.539
10909W        W79250  34.524   2.861   1.738
10910W        W79251  31.098  12.201  11.036
10911W        W79252   0.834  12.722   5.122
10912W        W79253  44.432  27.628   3.368
10913W        W79254  39.497  27.048  10.638
10914W        W79255   0.857  32.564  12.350
10915W        W79256  32.081  29.587   0.417
10916W        W79257   3.422  19.166  12.902
10917W        W79258  32.417  16.741  13.543
10918W        W79259  27.475  23.228  10.542
10919W        W79260  44.411   0.311   3.637
10920W        W79261  42.003  41.031   5.173
10921W        W79262  33.384  21.612  12.556
10922W        W79263  35.546  30.910   1.316
10923W        W79264  39.906  25.562  14.512
10924W        W79265  15.314  21.576   5.118
10925W        W79266  41.001  38.345   0.411
10926W        W79267  41.326   5.414  10.597
10927W        W79268   7.333  11.688   5.310
10928W        W79269  24.156  15.224  13.442
10929W        W79270  26.689  30.466  11.120
10930W        W79271   0.469  37.346   1.227
10931W        W79272  22.083  11.775  10.431
10932W        W79273   5.770  35.088  10.620
10933W        W79274  33.450   7.223  11.904
10934W        W79275  36.945  37.989   4.627
10935W        W79276  40.369   4.701   4.710
10936W        W79277  41.861  42.852   4.152
10937W        W79278  20.083  20.662   0.789
10938W        W79279  11.366   4.772  11.473
10939W        W79280  32.435  32.022   4.284
10940W        W79281  15.596   6.224   1.874
10941W        W79282  24.227   5.934  14.937
10942W        W79283   3.355  34.487  11.079
10943W        W79284  33.509  40.512   3.679
10944W        W79285  16.129   5.323  13.338
10945W        W79286  17.600  26.480   1.393
10946W        W79287  34.024  13.107  11.599
10947W        W79288  11.698  18.767  14.021
10948W        W79289   5.904  21.589   2.760
10949W        W79290  13.738  26.525   4.614
10950W        W79291   5.308  44.410  12.072
10951W        W79292  31.134  16.224   1.352
10952W        W79293  44.384  16.073   2.868
10953W        W79294   4.252  32.515   3.790
10954W        W79295  10.657  29.087   4.727
10955W        W79296  27.639  19.203  10.598
10956W        W79297  31.985  42.325   0.750
10957W        W79298  42.005  42.026  10.602
10958W        W79299  39.451   1.282   0.402
10959W        W79300  26.584  36.920   0.777
10960W        W79301  13.107  40.966  11.084
10961W        W79302   1.897  44.438  10.973
10962W        W79303  20.646  11.255  13.902
10963W        W79304   1.483  22.634  14.910
10964W        W79305  29.989   4.322   3.350
10965W        W79306  44.419   8.883   1.216
10966W        W79307  16.701  30.152   2.230
10967W        W79308  26.571  14.806   2.398
10968W        W79309  22.164  29.521  14.910
10969W        W79310   4.827   5.276   1.320
10970W        W79311  32.493  42.394   5.287
10971W        W79312  10.312  39.942  13.380
10972W        W79313  18.553  33.444  13.483
10973W        W79314   4.337   2.444  12.926
10974W        W79315  19.684  41.519  12.512
10975W        W79316  17.593  12.261  10.968
10976W        W79317  32.985  34.519   4.649
10977W        W79318  42.893  36.868   0.763
10978W        W79319  37.525  25.985   1.771
10979W        W79320  23.186  41.472   3.730
10980W        W79321  38.544  37.852   1.853
10981W        W79322  36.541   9.716  13.331
10982W        W79323   0.878  19.739  10.136
10983W        W79324  44.393  39.002  11.127
10984W        W79325  26.975  34.978   0.268
10985W        W79326  32.564  29.583  11.549
10986W        W79327  36.416  22.154   4.272
10987W        W79328  44.272  32.934   4.316
10988W        W79329  17.660   7.759   0.811
10989W        W79330  29.049  33.910  12.000
10990W        W79331  14.107  23.546   4.227
10991W        W79332  40.396   5.285  10.447
10992W        W79333   5.390   5.249   1.770
10993W        W79334  17.600  40.501   0.858
10994W        W79335  42.312  41.789  11.589
10995W        W79336  19.227  32.000  10.526
10996W        W79337  40.443  30.079   4.645
10997W        W79338  10.372   8.740   1.407
10998W        W79339   8.310  43.835  10.995
10999W        W79340  40.999   2.446  14.345
11000W        W79341   6.686   1.463  13.486
11001W        W79342  11.231  10.249   3.695
11002W        W79343  19.731  30.440   3.333
11003W        W79344  37.065  23.600  14.296
11004W        W79345  38.050  15.268  14.932
11005W        W79346  30.043  21.206  12.356
11006W        W79347   3.823  40.895   1.297
11007W        W79348  29.551  12.779   3.361
11008W        W79349  28.158  30.548   2.383
11009W        W79350  28.058  35.468   2.330
11010W        W79351  40.473  28.125  14.822
11011W        W79352   9.870  39.462  14.360
11012W        W79353   4.434  22.534  12.524
11013W        W79354  33.414  31.591  14.993
11014W        W79355  37.528  10.770  12.520
11015W        W79356  30.026  17.194  13.880
11016W        W79357  42.959  13.628   3.256
11017W        W79358  23.593  37.940  10.904
11018W        W79359  17.755   8.838   1.831
11019W        W79360   4.257  33.987   0.322
11020W        W79361  29.559  25.075   2.722
11021W        W79362  18.738  41.510   0.791
11022W        W79363   3.715  14.734  13.393
11023W        W79364  38.361  17.086   3.824
11024W        W79365  33.443  31.035  10.922
11025W        W79366   6.826  14.691  12.841
11026W        W79367   8.368  20.112  10.985
11027W        W79368  43.788  10.143  13.409
11028W        W79369   3.380  18.680  11.376
11029W        W79370  44.993  40.804   1.717
11030W        W79371  39.545   5.928  12.431
11031W        W79372  31.426  19.122  12.559
11032W        W79373  15.635  35.507  12.059
11033W        W79374   9.809  19.609  10.904
11034W        W79375  19.684  24.032  13.440
11035W        W79376  35.441   5.362   3.337
11036W        W79377  44.893  17.191  14.451
11037W        W79378  40.411  41.884   4.700
11038W        W79379  15.194  31.641   4.635
11039W        W79380  29.098  29.010   0.836
11040W        W79381  11.712  34.115   4.301
11041W        W79382  44.772  34.558   2.282
11042W        W79383  32.067  18.589   0.405
11043W        W79384  14.159  11.746   4.757
11044W        W79385  41.855  22.544   5.258
11045W        W79386  23.004  30.097  13.372
11046W        W79387  13.646   0.831   2.827
11047W        W79388  29.556  11.223  14.828
11048W        W79389  14.829  18.777   1.890
11049W        W79390  17.238  29.993   3.343
11050W        W79391   2.798   9.661   3.836
11051W        W79392   4.941  16.673  10.481
11052W        W79393  41.843  28.146   0.781
11053W        W79394  10.749   6.223  13.955
11054W        W79395  19.063  33.386   0.956
11055W        W79396   4.821  27.467  11.525
11056W        W79397  43.831  27.558   4.274
11057W        W79398  44.495   1.968   2.741
11058W        W79399  18.148  33.063   3.703
11059W        W79400  27.648   6.232  12.944
11060W        W79401  14.322   9.885  14.900
11061W        W79402  19.634  16.308   1.429
11062W        W79403   4.298  44.876   0.431
11063W        W79404   0.493  32.543  10.894
11064W        W79405  16.597  41.526   1.415
11065W        W79406   8.660  15.243  13.009
11066W        W79407  29.117  31.554   4.254
11067W        W79408  42.864  38.919   5.151
11068W        W79409  19.116  31.127  13.893
11069W        W79410  28.949  14.285  11.088
11070W        W79411  13.203  30.656   3.153
11071W        W79412   3.279  40.321   1.695
11072W        W79413  25.067   7.301  13.876
11073W        W79414  12.763  13.306   2.799
11074W        W79415  27.159  10.870  11.460
11075W        W79416  25.038  29.461  10.960
11076W        W79417  23.719   9.177  13.795
11077W        W79418  25.031  35.041  14.484
11078W        W79419  37.359  44.435  13.384
11079W        W79420  33.545  35.389   1.216
11080W        W79421  39.490  42.918   4.735
11081W        W79422  37.845   5.711  13.825
11082W        W79423  30.972  16.763   3.805
11083W        W79424  38.481  23.497   4.735
11084W        W79425   5.834   3.710   1.818
11085W        W79426  16.108  33.443  14.874
11086W        W79427  39.344   2.434  12.390
11087W        W79428  44.292  39.349   2.206
11088W        W79429  24.594   5.392   1.915
11089W        W79430  32.069   5.299   3.206
11090W        W79431  15.231   8.890  14.957
11091W        W79432  11.248  36.480  11.523
11092W        W79433  31.932   6.240  13.853
11093W        W79434   9.703  22.652   2.701
11094W        W79435  34.503  22.246  14.779
11095W        W79436  39.990   3.878  13.378
11096W        W79437  36.417   7.193   3.338
11097W        W79438  26.160  18.692  11.907
11098W        W79439  15.635   6.288   5.154
11099W        W79440  23.548  41.039   4.334
11100W        W79441  27.672  31.922  10.432
11101W        W79442  38.569   0.345   3.201
11102W        W79443  26.629   2.873  14.472
11103W        W79444   3.442   9.370  12.444
11104W        W79445  33.557  12.842   0.761
11105W        W79446  42.004  18.240  10.605
11106W        W79447  32.392   2.885   2.688
11107W        W79448   4.218  37.456   4.653
11108W        W79449  27.064  32.445   3.668
11109W        W79450  18.240  25.133  14.456
11110W        W79451  12.127  30.506   0.900
11111W        W79452  13.210  25.586   4.168
11112W        W79453  22.033  26.476  14.014
11113W        W79454  20.147  21.259   2.807
11114W        W79455  22.165  12.747  12.543
11115W        W79456   6.839  28.009  13.009
11116W        W79457  34.427  13.344   2.815
11117W        W79458  39.902  13.261   3.682
11118W        W79459  19.201  24.218  10.591
11119W        W79460  22.146  13.250  11.022
11120W        W79461  20.130  15.607  12.064
11121W        W79462   6.759  26.001  12.362
11122W        W79463  35.571  27.084   0.917
11123W        W79464   6.370  31.037   1.722
11124W        W79465  33.095   2.411   3.726
11125W        W79466   1.973  30.106  13.423
11126W        W79467   0.868  28.551  13.038
11127W        W79468  12.317  13.303  10.584
11128W        W79469  27.197  38.475   1.211
11129W        W79470  19.533  24.701   3.226
11130W        W79471  18.652  16.100  14.028
11131W        W79472   7.302  20.602  14.479
11132W        W79473  37.990   6.813  11.000
11133W        W79474  43.787   7.692   0.890
11134W        W79475  44.987  12.825   4.738
11135W        W79476  25.714  38.036  13.935
11136W        W79477  16.090   8.327  11.423
11137W        W79478  38.904  19.565   1.318
11138W        W79479  27.607  10.348   2.851
11139W        W79480  30.116  32.599   0.377
11140W        W79481   3.954  16.605   2.194
11141W        W79482  44.907   5.438  14.810
11142W        W79483  21.056  35.406   3.751
11143W        W79484  38.845  12.275  14.337
11144W        W79485  32.566  35.525   0.751
11145W        W79486   6.886  43.322   4.332
11146W        W79487  17.679  17.750   0.764
11147W        W79488  28.152   8.734  12.890
11148W        W79489  16.139  38.931   3.171
11149W        W79490  25.212  38.522  11.021
11150W        W79491  42.466  35.378   0.922
11151W        W79492  37.361  24.000  11.936
11152W        W79493  20.672  20.070   4.676
11153W        W79494  44.393  12.692  13.412
11154W        W79495  43.461  14.293  10.936
11155W        W79496  35.094  13.686   1.801
11156W        W79497   5.261   8.196  13.430
11157W        W79498   3.847  33.067   3.751
11158W        W79499  22.575  14.159   3.692
11159W        W79500  18.131  30.031  11.990
11160W        W79501  36.446  40.996   3.159
11161W        W79502  33.438  27.552  10.027
11162W        W79503  14.828  44.907   2.883
11163W        W79504  37.881  22.230  13.837
11164W        W79505  31.929  20.162  11.119
11165W        W79506  16.701   6.319  13.998
11166W        W79507  34.923  44.887   2.232
11167W        W79508  41.902  14.812   1.917
11168W        W79509  17.067   0.892   3.789
11169W        W79510  36.058  23.568  12.093
11170W        W79511   9.198  25.103  14.379
11171W        W79512   2.844  16.102  11.608
11172W        W79513   8.193  15.631  14.823
11173W        W79514  30.026   5.763   2.256
11174W        W79515  34.907  33.925  13.951
11175W        W79516  16.133   0.790  14.793
11176W        W79517   5.396  18.563   3.744
11177W        W79518   7.239  22.013   0.265
11178W        W79519  24.159   5.414   0.951
11179W        W79520  20.161  35.517   0.388
11180W        W79521  39.374  21.183  11.494
11181W        W79522   2.391  18.070  11.428
11182W        W79523  18.593  35.440   2.772
11183W        W79524  16.278   5.226   3.821
11184W        W79525  27.631  12.157  12.523
11185W        W79526  14.262  38.335  13.053
11186W        W79527  24.529  18.251   3.820
11187W        W79528  16.255   0.807   2.830
11188W        W79529  18.133  24.020  11.937
11189W        W79530   3.394  14.165  13.353
11190W        W79531  14.737  22.143   2.397
11191W        W79532   4.704   1.929  14.451
11192W        W79533  11.741  21.585  10.158
11193W        W79534  17.180   8.236  14.496
11194W        W79535  26.481  23.165   2.893
11195W        W79536  38.014  35.962   4.641
11196W        W79537  21.512   1.402  12.059
11197W        W79538  35.906  32.937  14.471
11198W        W79539   6.335   6.377   1.325
11199W        W79540  41.010  17.273   3.787
11200W        W79541   4.414  39.856   3.194
11201W        W79542  18.183  18.176  11.940
11202W        W79543  36.046  29.114   2.350
11203W        W79544  28.460  13.649   3.257
11204W        W79545  11.853  34.434  14.965
11205W        W79546  24.613  17.077   5.273
11206W        W79547  14.255  19.100   3.322
11207W        W79548  27.122  23.556   2.206
11208W        W79549   2.300  10.357   2.742
11209W        W79550  36.461  42.848  13.380
11210W        W79551  38.956  36.458   3.314
11211W        W79552  34.432   3.709  12.006
11212W        W79553   7.773  39.445  12.832
11213W        W79554   1.389  16.310   0.330
11214W        W79555  11.277  12.304  10.015
11215W        W79556   7.787  43.365  10.515
11216W        W79557   6.889  35.872   0.365
11217W        W79558  39.924  41.342   0.911
11218W        W79559   1.768  19.611  10.976
11219W        W79560  41.440  16.722   3.821
11220W        W79561   4.449  35.992   0.855
11221W        W79562   6.333  17.778   4.645
11222W        W79563  23.133   4.360   1.389
11223W        W79564  16.573  41.786  10.494
11224W        W79565   6.215  37.068  13.886
11225W        W79566  31.445  32.585   3.775
11226W        W79567  13.801  37.432  13.511
11227W        W79568  35.078  23.057  10.974
11228W        W79569  37.838  16.632   2.327
11229W        W79570  29.003  13.210   4.828
11230W        W79571  10.331  28.933   4.337
11231W        W79572   4.917  34.414   4.730
11232W        W79573  12.153  10.689   3.192
11233W        W79574   5.854  44.949  14.818
11234W        W79575  10.316  15.762   4.713
11235W        W79576  23.056  34.537  12.934
11236W        W79577  22.127  38.477  13.837
11237W        W79578  27.171  13.750   4.835
11238W        W79579  11.721  28.608   1.828
11239W        W79580  20.231   2.317  13.505
11240W        W79581  12.316  15.324   2.216
11241W        W79582  23.659  13.628  13.411
11242W        W79583  29.007  29.136   4.185
11243W        W79584  15.789  13.266   2.361
11244W        W79585  35.077  11.678   3.648
11245W        W79586  39.985  15.279  12.945
11246W        W79587   3.782  36.877  14.302
11247W        W79588   2.437  37.375   1.224
11248W        W79589  44.428  31.130   0.287
11249W        W79590  42.927  34.471  14.808
11250W        W79591  34.989  36.994  14.920
11251W        W79592  32.041  36.903   4.831
11252W        W79593   0.930  44.979  12.383
11253W        W79594  17.642  36.537   4.243
11254W        W79595  32.506   2.768  14.912
11255W        W79596  32.444  36.494   1.904
11256W        W79597  17.201  11.719   0.943
11257W        W79598  26.661  10.302  12.908
11258W        W79599  31.435  36.858   3.364
11259W        W79600   9.202  18.192   4.318
11260W        W79601  17.636   5.271  12.909
11261W        W79602  16.224   5.728   2.389
11262W        W79603  14.657  40.535   9.989
11263W        W79604  13.183  11.311  12.512
11264W        W79605   3.372  29.569  10.924
11265W        W79606   6.288  42.815  12.504
11266W        W79607  34.509   6.686  12.562
11267W        W79608  44.331   6.695   0.780
11268W        W79609  26.990   5.296   2.397
11269W        W79610  10.214  27.025  14.366
11270W        W79611  10.768   8.856   1.866
11271W        W79612  32.520  16.780   3.829
11272W        W79613  22.163  43.377  14.946
11273W        W79614  41.947  42.837   2.724
11274W        W79615  25.206  32.083  11.038
11275W        W79616  38.957  17.064   1.699
11276W        W79617   5.798   6.760  14.922
11277W        W79618  24.056  27.594  14.511
11278W        W79619  30.523  31.908  13.973
11279W        W79620  28.527  25.688  14.982
11280W        W79621   5.757  36.578  12.973
11281W        W79622  44.940  34.432  14.766
11282W        W79623   3.913  36.541  13.835
11283W        W79624  24.612   8.662   4.140
11284W        W79625  41.326  23.696   0.354
11285W        W79626  24.993  27.558   3.296
11286W        W79627   6.880  40.012   0.409
11287W        W79628  14.711  44.268   3.655
11288W        W79629  44.911  41.810   2.185
11289W        W79630   3.289  40.864   4.322
11290W        W79631   7.324   2.439   2.244
11291W        W79632  27.501   2.425   2.318
11292W        W79633  38.051  27.099   0.828
11293W        W79634   1.874  34.382   2.240
11294W        W79635  34.963  29.447   1.825
11295W        W79636  14.163  13.650  13.807
11296W        W79637  27.606  43.270   0.303
11297W        W79638  11.653  31.408   3.779
11298W        W79639  11.792  24.641  14.800
11299W        W79640   3.928  19.130   1.805
11300W        W79641  14.278  28.983   1.401
11301W        W79642   2.382  24.565  11.383
11302W        W79643  21.237  28.668   0.831
11303W        W79644  33.892  38.872   0.937
11304W        W79645  24.696   1.387  14.413
11305W        W79646  38.858  10.383   2.900
11306W        W79647  34.118   1.298   0.293
11307W        W79648  13.106  30.642  10.643
11308W        W79649   3.894   2.805   1.271
11309W        W79650  34.507   8.719  12.090
11310W        W79651  44.448  35.012   1.798
11311W        W79652   9.723  15.718  10.981
11312W        W79653  40.361  19.137   4.236
11313W        W79654  32.503   0.905  10.578
11314W        W79655  28.625   7.819   1.322
11315W        W79656   4.441  19.270  12.833
11316W        W79657  33.944  28.449   4.611
11317W        W79658  34.995  33.118   1.340
11318W        W79659  42.989  22.008   0.884
11319W        W79660  39.981  11.742   2.671
11320W        W79661  12.145  27.686  14.311
11321W        W79662   8.162  40.948   0.864
11322W        W79663  23.093  19.699  11.609
11323W        W79664  21.173  23.063   0.730
11324W        W79665  10.676  28.623  14.431
11325W        W79666  36.923  43.437   0.286
11326W        W79667  21.193   7.758  13.972
11327W        W79668  31.539  39.394   1.774
11328W        W79669  16.743  30.650   0.905
11329W        W79670  25.676  31.930   3.806
11330W        W79671   2.449  17.217  13.447
11331W        W79672   8.244   1.959  14.513
11332W        W79673  14.799   7.886   0.770
11333W        W79674  29.577  16.129  14.807
11334W        W79675  18.634  33.886  14.861
11335W        W79676  16.244  15.803   2.251
11336W        W79677  25.605  16.604   5.109
11337W        W79678  33.999  34.048   2.367
11338W        W79679  30.991   0.426  14.455
11339W        W79680   4.841  22.603  12.434
11340W        W79681  10.149   2.244  11.067
11341W        W79682  24.005  15.658   1.768
11342W        W79683  42.948   0.385   1.798
11343W        W79684  22.155   5.432  12.958
11344W        W79685  14.128  11.255  13.350
11345W        W79686   8.771  15.688  10.482
11346W        W79687   0.781  30.508  13.362
11347W        W79688  11.648  15.686   0.961
11348W        W79689  26.587  30.153  12.388
11349W        W79690   2.752   9.224   0.392
11350W        W79691  23.732   5.918  12.039
11351W        W79692  27.055  43.899   0.305
11352W        W79693  43.911  37.867  11.579
11353W        W79694  43.021  21.110   2.791
11354W        W79695   2.793  20.262  14.829
11355W        W79696  34.511  38.532   3.663
11356W        W79697  20.151  37.580   2.701
11357W        W79698  24.222  37.355  11.887
11358W        W79699  11.858   6.784  10.545
11359W        W79700  38.505  31.406  10.413
11360W        W79701   2.765  44.910   4.339
11361W        W79702  26.001  28.667   4.786
11362W        W79703  11.781  26.494   4.679
11363W        W79704  33.056  36.939   3.732
11364W        W79705   3.789  19.626   2.269
11365W        W79706  24.213  31.931   1.353
11366W        W79707  18.063  11.736  10.896
11367W        W79708  16.155  41.531  11.443
11368W        W79709  29.653   4.728   1.710
11369W        W79710   5.916  32.968   0.395
11370W        W79711  25.046  35.951   1.919
11371W        W79712  35.941  21.171   2.244
11372W        W79713  33.080  29.962  13.322
11373W        W79714  15.323  31.460   0.777
11374W        W79715  36.984  29.089   2.756
11375W        W79716  28.545  21.735  13.414
11376W        W79717  30.006   1.745  11.111
11377W        W79718  41.841   4.873   4.118
11378W        W79719  33.392  32.892  14.330
11379W        W79720  30.564  43.400   2.843
11380W        W79721  44.433  14.299   4.207
11381W        W79722   6.219  35.905  13.836
11382W        W79723  29.149  26.134  12.924
11383W        W79724  39.936  29.473   4.713
11384W        W79725  43.386  29.928  11.002
11385W        W79726  14.724  16.583   1.383
11386W        W79727  30.584   4.362  11.434
11387W        W79728   3.724  14.216   5.119
11388W        W79729  32.545  37.890  12.400
11389W        W79730  42.455  20.189   2.249
11390W        W79731  16.263   0.797   0.322
11391W        W79732  43.333  11.226  10.415
11392W        W79733  22.575  26.627  14.767
11393W        W79734   2.380   5.826  12.509
11394W        W79735  27.497   4.362   2.854
11395W        W79736   5.921  30.075   1.809
11396W        W79737  22.088  40.310  14.852
11397W        W79738  21.213  11.282  13.980
11398W        W79739  33.074  29.069   1.381
11399W        W79740   3.246  12.117   1.755
11400W        W79741  17.276  10.763   4.242
11401W        W79742  43.372   2.386  12.012
11402W        W79743   6.715  25.121  12.467
11403W        W79744  43.293   8.845  14.977
11404W        W79745   9.325   3.354  11.877
11405W        W79746  13.194   6.195   3.730
11406W        W79747  16.311  16.248  14.912
11407W        W79748  31.075  14.814  12.060
11408W        W79749  38.886   0.794  10.970
11409W        W79750  40.518  15.123  13.441
11410W        W79751  40.878  20.587  12.446
11411W        W79752  17.762  28.059  11.428
11412W        W79753  29.959  16.256  10.605
11413W        W79754   7.385  19.670  14.341
11414W        W79755  12.144   3.811  10.624
11415W        W79756  16.086  27.066   1.364
11416W        W79757  25.200   3.303  14.817
11417W        W79758  32.465  40.907  12.008
11418W        W79759  18.073  24.542   3.177
11419W        W79760  37.387  25.206  13.472
11420W        W79761  27.969  41.817   1.767
11421W        W79762  15.242  25.987   1.717
11422W        W79763  12.817   8.195  13.444
11423W        W79764  42.927  27.527  13.333
11424W        W79765  10.185  37.468  13.427
11425W        W79766  16.688  27.521   3.847
11426W        W79767  10.669  40.350   0.299
11427W        W79768  35.012   2.752   3.218
11428W        W79769   8.365   9.739   0.928
11429W        W79770   3.898   6.809   1.249
11430W        W79771  24.493  41.860  14.866
11431W        W79772  13.697  22.029   3.227
11432W        W79773   1.851   6.254   4.704
11433W        W79774  28.516  19.705  12.090
11434W        W79775   2.426  36.477   1.348
11435W        W79776  23.731  33.917  10.995
11436W        W79777   8.703  43.965  13.944
11437W        W79778   4.387  14.288  14.282
11438W        W79779   4.821   5.234   3.348
11439W        W79780  21.151  21.165  11.547
11440W        W79781  16.187   4.914   1.373
11441W        W79782  41.384  16.784   1.439
11442W        W79783  37.340   2.380  10.641
11443W        W79784  30.046  29.584  12.359
11444W        W79785  33.045   8.730   4.701
11445W        W79786  14.756   6.762   1.697
11446W        W79787   8.297  41.340  13.534
11447W        W79788  38.030  12.127  13.311
11448W        W79789  19.693  33.591   5.215
11449W        W79790  30.993  16.659   2.821
11450W        W79791  29.048   1.246   2.795
11451W        W79792  10.643  17.578   4.801
11452W        W79793  25.107  30.601   2.311
11453W        W79794  35.101  24.592  11.531
11454W        W79795  35.430  33.624  11.902
11455W        W79796  21.613  42.385  11.601
11456W        W79797  19.039  14.737   1.809
11457W        W79798  14.299   0.397   4.610
11458W        W79799  40.947  33.086  11.117
11459W        W79800  12.223  34.879   3.269
11460W        W79801  24.479  20.224  12.992
11461W        W79802  11.785  28.637   3.819
11462W        W79803  23.221  43.308   0.480
11463W        W79804  15.156  14.222   4.625
11464W        W79805  13.157  38.345  13.327
11465W        W79806  40.444  16.607  13.386
11466W        W79807  15.098  23.653  14.483
11467W        W79808  42.021  42.382  10.036
11468W        W79809  39.535   9.678  11.586
11469W        W79810  27.092  16.594  13.839
11470W        W79811  40.417  25.097   5.318
11471W        W79812   5.785  22.139   0.765
11472W        W79813  23.571  32.010   2.269
11473W        W79814  13.179  30.963   0.922
11474W        W79815  34.595  27.070   2.717
11475W        W79816  11.674  19.080  13.017
11476W        W79817  21.583  11.783   2.347
11477W        W79818  14.105  36.046   3.766
11478W        W79819  41.380  27.954  14.931
11479W        W79820  32.055  36.522  14.357
11480W        W79821   7.912  39.968   2.737
11481W        W79822  12.834   9.238   3.284
11482W        W79823  42.304  13.809   0.376
11483W        W79824  20.758   9.174  13.800
11484W        W79825  23.735  12.340   4.731
11485W        W79826  23.128  44.762  11.107
11486W        W79827   9.315   5.773  14.913
11487W        W79828  23.059   0.374   3.234
11488W        W79829   8.826  23.604  14.477
11489W        W79830   9.273  34.380   1.401
11490W        W79831  30.656  15.289  10.478
11491W        W79832  14.100   8.312   2.815
11492W        W79833  21.208  11.164   3.166
11493W        W79834  33.098  36.553   3.775
11494W        W79835  13.140  27.603  11.968
11495W        W79836   1.381  43.910   2.313
11496W        W79837  14.626  36.081   2.815
11497W        W79838  21.601  43.924  13.955
11498W        W79839  40.464  19.639   3.182
11499W        W79840  32.474  18.715  14.504
11500W        W79841  42.837   5.202   2.833
11501W        W79842  29.551   8.172   2.236
11502W        W79843  32.902   8.177  10.602
11503W        W79844  31.515  34.448   2.264
11504W        W79845  10.648  28.011   1.761
11505W        W79846  42.446   1.742  12.420
11506W        W79847  41.438  39.996   1.916
11507W        W79848  40.041   3.859   2.210
11508W        W79849   7.885  34.518   4.307
11509W        W79850  18.221  38.382  13.850
11510W        W79851   6.255  12.319  12.392
11511W        W79852   6.211  42.497   1.852
11512W        W79853  34.410  13.621   0.438
11513W        W79854  22.694  13.132  11.855
11514W        W79855   1.872   6.311   1.239
11515W        W79856  12.151  41.479   3.212
11516W        W79857  22.622  13.108  12.541
11517W        W79858  16.595  29.031  14.759
11518W        W79859  15.604  30.154  11.377
11519W        W79860   5.315  21.084  10.491
11520W        W79861  23.659  14.613   1.339
11521W        W79862  18.660   9.815   3.217
11522W        W79863  25.110  32.963  12.426
11523W        W79864   8.311  30.097   1.424
11524W        W79865  18.731  14.249  13.897
11525W        W79866   0.427   7.208   1.407
11526W        W79867   2.894  35.054   4.832
11527W        W79868  37.503   5.420  11.109
11528W        W79869   0.315   9.698   3.379
11529W        W79870  15.276  26.683   0.289
11530W        W79871  23.541  21.526   0.932
11531W        W79872   6.709  23.133  13.542
11532W        W79873  33.609   9.289   2.751
11533W        W79874  37.066  32.014   3.347
11534W        W79875   1.821  31.564   0.413
11535W        W79876  21.184  20.246  12.090
11536W        W79877  16.640  30.068  13.540
11537W        W79878  34.933  14.822  13.053
11538W        W79879  26.143  19.046   1.814
11539W        W79880  39.373  35.026  11.945
11540W        W79881  35.057  35.855  10.161
11541W        W79882  24.067  11.137   2.287
11542W        W79883  44.262  43.432  11.535
11543W        W79884  30.520   0.290  12.944
11544W        W79885  22.612  10.737   1.904
11545W        W79886  25.004   6.763   1.406
11546W        W79887   5.297  44.919  13.988
11547W        W79888  38.519   3.790  12.873
11548W        W79889  29.134  41.350  11.935
11549W        W79890   0.431  41.394   2.342
11550W        W79891  31.937  17.712  13.409
11551W        W79892  12.831  35.540  11.027
11552W        W79893  17.559  29.455  10.978
11553W        W79894  25.472  41.420   3.379
11554W        W79895   1.392  37.495  12.012
11555W        W79896  24.537   5.276   2.325
11556W        W79897  40.908  37.366  11.028
11557W        W79898  33.469  35.910   3.234
11558W        W79899   9.888   2.739   3.317
11559W        W79900  19.225   0.871  11.076
11560W        W79901   0.980  41.384  12.008
11561W        W79902  17.237   7.809  10.460
11562W        W79903  17.563  16.089  12.867
11563W        W79904  25.993  19.166  14.932
11564W        W79905  16.102  12.813   0.730
11565W        W79906  26.630  38.900  10.442
11566W        W79907  41.897  21.709   0.329
11567W        W79908  42.418   0.350  14.788
11568W        W79909  38.061  41.863   5.756
11569W        W79910  17.152  10.723  12.992
11570W        W79911  43.898  25.136  13.826
11571W        W79912  14.105  30.053  11.091
11572W        W79913  23.140  38.479  10.593
11573W        W79914  16.633  22.602   1.237
11574W        W79915  20.746  36.350  14.836
11575W        W79916  10.323  23.202  11.466
11576W        W79917  16.128   7.703   4.731
11577W        W79918  32.898  28.529   4.135
11578W        W79919  30.944  43.335  13.027
11579W        W79920  22.150  22.068  12.339
11580W        W79921  24.713  14.606   4.718
11581W        W79922  37.970  39.974  10.988
11582W        W79923  35.089   0.295  14.773
11583W        W79924   5.350   7.742  14.939
11584W        W79925  28.058   8.297   4.265
11585W        W79926  44.838  35.993   3.768
11586W        W79927  24.081  18.740   1.363
11587W        W79928   7.869  11.755   0.854
11588W        W79929  36.354  18.648  11.583
11589W        W79930  19.624   2.470   4.164
11590W        W79931  20.214  19.551   4.133
11591W        W79932  24.501   5.251   0.352
11592W        W79933   6.735  25.200  14.514
11593W        W79934  17.207  18.618   4.674
11594W        W79935  40.036  34.105   4.299
11595W        W79936  16.152  13.829   2.876
11596W        W79937  30.945  17.599  11.934
11597W        W79938  31.422  23.102   3.815
11598W        W79939  42.795   0.956  12.947
11599W        W79940  25.601  42.341   2.233
11600W        W79941  26.150  22.704   1.860
11601W        W79942  11.216  30.959  10.505
11602W        W79943  18.574  36.449   4.194
11603W        W79944  20.111  14.131   5.092
11604W        W79945  23.165  23.112   0.826
11605W        W79946  37.954  36.533   2.323
11606W        W79947  36.069  30.603  12.084
11607W        W79948   6.744   8.406   2.322
11608W        W79949  14.120  23.645  13.431
11609W        W79950  37.362  11.224  14.942
11610W        W79951   0.942  23.703   1.739
11611W        W79952   0.453  29.993  12.383
11612W        W79953   4.926  32.996   0.472
11613W        W79954   1.791  44.435   0.866
11614W        W79955  44.347  14.690  12.538
11615W        W79956  19.067  22.029   1.233
11616W        W79957  11.298  18.726   3.171
11617W        W79958  23.602  39.955   4.232
11618W        W79959  38.070  28.530   1.705
11619W        W79960  23.647  31.990   0.468
11620W        W79961  16.801  12.790   3.630
11621W        W79962  16.211  40.912  14.009
11622W        W79963  17.228  37.030   0.300
11623W        W79964  13.765  28.641  12.384
11624W        W79965  42.500   3.850   1.263
11625W        W79966  12.727  33.085   2.214
11626W        W79967  15.210  44.926   3.859
11627W        W79968   6.230   5.822  11.111
11628W        W79969  32.078  41.352   3.355
11629W        W79970  13.256  41.961  14.983
11630W        W79971  32.485  29.920   2.770
11631W        W79972  39.321  43.011   5.267
11632W        W79973  26.015  36.975   4.629
11633W        W79974   6.258  44.276   0.476
11634W        W79975   6.186  37.453  10.474
11635W        W79976  12.275  19.154   4.294
11636W        W79977  16.596   9.276   1.743
11637W        W79978  28.535  13.840  12.007
11638W        W79979  26.150  19.589  13.811
11639W        W79980  36.023  23.202   3.152
11640W        W79981  43.970  19.220  12.515
11641W        W79982  28.936  36.928   0.410
11642W        W79983  25.104  18.140  13.818
11643W        W79984   2.466  28.522  14.893
11644W        W79985  29.472  22.505  10.521
11645W        W79986  22.100  37.027  13.456
11646W        W79987  24.069  20.104  12.861
11647W        W79988  40.317  15.085   0.401
11648W        W79989  10.810  43.276  12.342
11649W        W79990  31.907  40.425  10.591
11650W        W79991  26.558  27.178  11.105
11651W        W79992  14.203  19.075  11.380
11652W        W79993  36.400   4.854   0.746
11653W        W79994  33.605  26.975   1.818
11654W        W79995  37.849  16.252  10.438
11655W        W79996  35.540  22.138   3.356
11656W        W79997  44.844  33.444   4.807
11657W        W79998  43.355  27.556  13.448
11658W        W79999  14.727  16.759  11.417
11659W        W80000  37.470  19.566   2.759
11660W        W80001  13.164  36.525  14.320
11661W        W80002  39.975  29.654  10.942
11662W        W80003  13.253  30.493   9.944
11663W        W80004  24.041  31.911  13.899
11664W        W80005  14.146  44.797  14.465
11665W        W80006  15.124   7.696  10.622
11666W        W80007  16.194  15.093  13.850
11667W        W80008  25.183  22.178  11.459
11668W        W80009  12.337  22.998   0.958
11669W        W80010   6.884   2.821  14.766
11670W        W80011  22.145   3.368  12.869
11671W        W80012   5.713  33.070  11.538
11672W        W80013  28.600  34.073   1.249
11673W        W80014  30.503  11.346   3.314
11674W        W80015   8.295  44.961   1.300
11675W        W80016   6.775   1.392  11.413
11676W        W80017  40.426  22.660  14.010
11677W        W80018  38.523   7.844  12.000
11678W        W80019  18.580  30.572   4.331
11679W        W80020  25.664  28.542  13.997
11680W        W80021   6.872  22.542   0.804
11681W        W80022   8.250   1.434   2.198
11682W        W80023  18.119   5.767   2.200
11683W        W80024   3.431   6.874  12.525
11684W        W80025   9.650  27.518  12.362
11685W        W80026  12.738   8.899   3.669
11686W        W80027  21.159  25.126  11.945
11687W        W80028  14.197   3.772  12.079
11688W        W80029  14.713  15.233   0.854
11689W        W80030   9.882  19.703   1.923
11690W        W80031   9.340   4.700   4.767
11691W        W80032  13.738  10.164   0.872
11692W        W80033   3.273  39.386  13.528
11693W        W80034   1.742  26.041  10.543
11694W        W80035  10.814  16.103  13.359
11695W        W80036   2.420  20.564  12.531
11696W        W80037  19.690  27.140  13.494
11697W        W80038   1.391  33.987  10.935
11698W        W80039  16.168  20.232  14.358
11699W        W80040   1.742  34.488  12.441
11700W        W80041  26.077  10.253  11.117
11701W        W80042  12.816   1.345  11.910
11702W        W80043  14.118   4.867  13.373
11703W        W80044  32.542   3.306   2.737
11704W        W80045  22.660  35.065   1.917
11705W        W80046  13.669  32.535  12.570
11706W        W80047  38.975  34.399   0.856
11707W        W80048  24.000  26.162   1.712
11708W        W80049  44.919   2.841  11.454
11709W        W80050  37.409  40.843   4.660
11710W        W80051  21.665   0.859   3.369
11711W        W80052  14.339   7.688  13.952
11712W        W80053   4.749  33.877   5.133
11713W        W80054  26.657  19.600   0.877
11714W        W80055  24.096  26.205  10.910
11715W        W80056  25.006  21.706   0.449
11716W        W80057  30.559   8.886   1.240
11717W        W80058  32.574  38.367   4.185
11718W        W80059   8.383   7.312  12.846
11719W        W80060  38.413   2.958  14.319
11720W        W80061  29.516   8.228   4.731
11721W        W80062  11.332  29.152   0.923
11722W        W80063  25.521   8.676   2.718
11723W        W80064  44.937  38.838  12.370
11724W        W80065  30.003  23.649   1.736
11725W        W80066  14.177  25.624   1.766
11726W        W80067   9.775  44.895  12.841
11727W        W80068  31.963  21.200   1.895
11728W        W80069  31.562   0.783   2.295
11729W        W80070  30.655   6.866  12.353
11730W        W80071  23.046  20.075  13.995
11731W        W80072  31.525  16.257  12.083
11732W        W80073   7.821   2.890  14.786
11733W        W80074  36.000   2.463  12.039
11734W        W80075   2.964  32.473   3.659
11735W        W80076  24.625   2.731   2.334
11736W        W80077  29.639  34.929   0.872
11737W        W80078   9.819  12.770  13.480
11738W        W80079  15.731  20.641   2.738
11739W        W80080  19.048  15.764   2.413
11740W        W80081  31.417  24.997   4.820
11741W        W80082  12.811  37.344  13.808
11742W        W80083  43.923  10.754   3.803
11743W        W80084  17.139  23.997  14.814
11744W        W80085  23.587  20.190   1.254
11745W        W80086   8.258  28.989   1.737
11746W        W80087  33.563  22.107  13.823
11747W        W80088  12.652  10.648  11.938
11748W        W80089   2.773   3.810   3.227
11749W        W80090  25.150  18.097   2.234
11750W        W80091  41.924  27.548  13.019
11751W        W80092  23.233  37.978  14.830
11752W        W80093  16.289  22.527  10.613
11753W        W80094  37.001  10.873  10.582
11754W        W80095  40.546  37.467   3.265
11755W        W80096  20.273  31.949   4.118
11756W        W80097  42.964   7.701  14.836
11757W        W80098  39.321   5.743  10.999
11758W        W80099  38.065  30.100   3.264
11759W        W80100  32.421   5.234   4.791
11760W        W80101  38.978   8.832   0.770
11761W        W80102  33.909  38.452  11.936
11762W        W80103   8.699   0.316   4.161
11763W        W80104  20.670  43.422   4.328
11764W        W80105  15.679  42.833  11.865
11765W        W80106  29.498  44.919   4.818
11766W        W80107   0.490  26.986  14.766
11767W        W80108  44.379  30.981   3.854
11768W        W80109  36.437   0.322  12.981
11769W        W80110  35.045  32.953   3.733
11770W        W80111  33.435  14.703   4.198
11771W        W80112  10.305  34.599   9.951
11772W        W80113   8.201  24.620   4.288
11773W        W80114  31.611  12.304  11.549
11774W        W80115  10.766  12.769   5.205
11775W        W80116  27.462   0.862  11.046
11776W        W80117  15.580   8.256   5.228
11777W        W80118  12.765  20.760  14.422
11778W        W80119  14.755   4.907   4.816
11779W        W80120   5.432  27.104  10.572
11780W        W80121   0.815   4.263   0.755
11781W        W80122  20.267  10.262  11.996
11782W        W80123   4.905  17.274  14.818
11783W        W80124  22.075  38.360  13.370
11784W        W80125  44.891  37.843  14.390
11785W        W80126  15.132  11.168  13.956
11786W        W80127  12.669  28.014  13.923
11787W        W80128   4.801  18.583   3.821
11788W        W80129  12.836  23.031  10.608
11789W        W80130  30.580  24.981   3.796
11790W        W80131  26.120  44.360  13.327
11791W        W80132  21.548   7.254   5.099
11792W        W80133   2.804  29.478   3.752
11793W        W80134  41.794  37.336  12.999
11794W        W80135  25.599  40.834  12.392
11795W        W80136  21.515   1.830  13.420
11796W        W80137  19.149  42.475   0.879
11797W        W80138  30.587   7.900   1.927
11798W        W80139  31.572  44.808   3.645
11799W        W80140  12.783  18.055   0.820
11800W        W80141  22.591   2.321   2.211
11801W        W80142  16.158   2.237  14.480
11802W        W80143  37.556  30.655   0.931
11803W        W80144  26.699   0.977   2.805
11804W        W80145  39.891   5.930  12.520
11805W        W80146  35.916  26.671  10.897
11806W        W80147   7.298  32.570  13.044
11807W        W80148  33.526  29.981   4.144
11808W        W80149  29.566  17.146   1.414
11809W        W80150  15.601  36.400  10.609
11810W        W80151  44.439  22.658   3.367
11811W        W80152   0.331  34.076  14.481
11812W        W80153  28.151  10.755   1.253
11813W        W80154  17.634  28.084   1.424
11814W        W80155  18.128  38.992   2.797
11815W        W80156  18.166  18.615   3.832
11816W        W80157  41.852   5.353  12.977
11817W        W80158  24.576  16.795   5.178
11818W        W80159  39.495  43.837   5.124
11819W        W80160  15.113  35.484   2.834
11820W        W80161   4.230  12.218   4.285
11821W        W80162  15.236  14.746  12.569
11822W        W80163  15.753   0.359  14.760
11823W        W80164  17.081  26.985   0.347
11824W        W80165  34.513  30.454  11.978
11825W        W80166  32.112   1.900   4.625
11826W        W80167  37.522  40.434  14.987
11827W        W80168   8.813  20.164  12.988
11828W        W80169  28.953   6.729   4.198
11829W        W80170   2.900  20.562   0.952
11830W        W80171  25.610  24.026  10.608
11831W        W80172  41.966  17.207   5.244
11832W        W80173  21.221  36.558  11.062
11833W        W80174  17.120  26.189  14.830
11834W        W80175  13.145  10.778  10.077
11835W        W80176  39.499  17.604   3.351
11836W        W80177  34.931  10.790  13.880
11837W        W80178   3.401  39.343  10.600
11838W        W80179   1.417   0.385  11.965
11839W        W80180   5.902   9.870   4.685
11840W        W80181  33.414  18.253  13.028
11841W        W80182  15.194   2.398   4.304
11842W        W80183   8.853  40.476   1.866
11843W        W80184  14.130  42.468  13.898
11844W        W80185  23.689   8.378   3.158
11845W        W80186  27.513  25.169   1.747
11846W        W80187  42.023  11.868   2.392
11847W        W80188  25.708   6.373   4.173
11848W        W80189   0.417  24.087   1.266
11849W        W80190  43.422   1.364  12.404
11850W        W80191   8.812  36.991  14.018
11851W        W80192  42.291   9.387  13.407
11852W        W80193  43.347  25.521  10.920
11853W        W80194  37.966  13.826   3.373
11854W        W80195  13.183  38.475   0.811
11855W        W80196  34.991  22.233  13.981
11856W        W80197  21.735  21.581  11.965
11857W        W80198  39.523  17.231   3.654
11858W        W80199   4.881   8.828   0.338
11859W        W80200  13.615  39.946   1.709
11860W        W80201  35.464   3.731  12.048
11861W        W80202  31.147  39.866   0.885
11862W        W80203  39.426  38.841   1.402
11863W        W80204  39.358  36.943  11.380
11864W        W80205  33.586  39.329  13.981
11865W        W80206  27.681  26.108  11.101
11866W        W80207  43.953  32.016   3.795
11867W        W80208  20.133  15.709  14.294
11868W        W80209  15.249  43.302  11.515
11869W        W80210   3.262  26.567  12.831
11870W        W80211   6.906   7.408  12.891
11871W        W80212  31.502  39.527   2.258
11872W        W80213  14.629  37.506   1.777
11873W        W80214  21.240  14.655  11.016
11874W        W80215  19.114  22.037   4.167
11875W        W80216  32.938  44.398  11.949
11876W        W80217  13.327  19.594  13.486
11877W        W80218  42.963  17.236  12.492
11878W        W80219  15.101  40.868   2.846
11879W        W80220  32.918  38.433   9.465
11880W        W80221  24.614  16.646  12.002
11881W        W80222   5.259   4.877   0.266
11882W        W80223  14.322  12.667  10.919
11883W        W80224  38.910  16.756  14.443
11884W        W80225  14.117  34.380   3.181
11885W        W80226  36.518   4.779   4.758
11886W        W80227   8.345  26.140   0.896
11887W        W80228  27.012  35.510  12.471
11888W        W80229  44.874  16.668   1.321
11889W        W80230  32.595   0.805   2.681
11890W        W80231  39.372   0.825   4.229
11891W        W80232  41.915   2.771   3.705
11892W        W80233  30.061  11.216   4.807
11893W        W80234  34.591   3.797  11.115
11894W        W80235   3.308  14.795   5.199
11895W        W80236  26.519  38.914   0.474
11896W        W80237  42.926   8.717   3.172
11897W        W80238  35.904  35.954   4.668
11898W        W80239   2.841  14.314  11.510
11899W        W80240  15.315   3.711  13.034
11900W        W80241  10.820  25.683   4.144
11901W        W80242   3.382   6.824  13.030
11902W        W80243  15.798  35.043  11.927
11903W        W80244  21.035  18.688  10.490
11904W        W80245  41.437  17.153   1.234
11905W        W80246   5.239   9.377  10.456
11906W        W80247  24.483  13.307  13.456
11907W        W80248  38.371  16.689  13.000
11908W        W80249  11.824  35.911   4.293
11909W        W80250  28.982  24.581   3.337
11910W        W80251  11.174  22.716   0.744
11911W        W80252   1.407  34.993   1.833
11912W        W80253  13.844  44.818   4.149
11913W        W80254  39.957  22.037   1.273
11914W        W80255  33.519  10.722  10.464
11915W        W80256  35.553  16.096  14.982
11916W        W80257  44.989   3.225  10.119
11917W        W80258  11.322  30.598  12.868
11918W        W80259  33.533  25.610   2.180
11919W        W80260   0.479  15.775   4.731
11920W        W80261  36.373  25.539  11.025
11921W        W80262  28.547  18.565   3.190
11922W        W80263  31.088  31.138   3.218
11923W        W80264   0.475  31.486  12.841
11924W        W80265  11.372   9.725   9.960
11925W        W80266  26.200  12.818  10.485
11926W        W80267  26.080   2.745  13.317
11927W        W80268   6.775  41.529  10.989
11928W        W80269  19.715  31.639   4.278
11929W        W80270  35.399  33.528  12.874
11930W        W80271  44.498  20.032   9.988
11931W        W80272  31.929  22.703  14.855
11932W        W80273  43.272  28.525  10.960
11933W        W80274  41.429   3.417  10.567
11934W        W80275  41.850  28.605  14.300
11935W        W80276  35.432  19.236  13.008
11936W        W80277  29.501  31.072   2.793
11937W        W80278  13.133  41.984   4.778
11938W        W80279  38.894  22.174   0.358
11939W        W80280   6.332  42.440   3.307
11940W        W80281  16.722   4.896   4.236
11941W        W80282  18.121  31.998  14.381
11942W        W80283  32.497   6.212   4.302
11943W        W80284  18.261   8.283  12.854
11944W        W80285  27.582  24.074  12.496
11945W        W80286  21.259  19.181   4.121
11946W        W80287  34.969  21.072   2.880
11947W        W80288  17.121   8.362   3.780
11948W        W80289  17.262   2.362  12.925
11949W        W80290  16.261  38.987   0.361
11950W        W80291   0.320   1.439   4.130
11951W        W80292  24.113  42.904  13.883
11952W        W80293  29.513  11.187   1.385
11953W        W80294  11.318   9.259   3.158
11954W        W80295  44.417  14.116   1.317
11955W        W80296  36.450   0.966  13.509
11956W        W80297  35.537  24.548   4.324
11957W        W80298  34.547  19.131   4.205
11958W        W80299  11.655  19.639   4.700
11959W        W80300   6.800  30.997  13.316
11960W        W80301  39.382  34.533   4.758
11961W        W80302  12.743  16.199  12.873
11962W        W80303  12.817   8.385  13.876
11963W        W80304   2.862  41.901  13.063
11964W        W80305   1.915  32.458   3.174
11965W        W80306  29.505  31.968   2.347
11966W        W80307   4.236  17.577   1.841
11967W        W80308  38.893  35.518  11.535
11968W        W80309  36.421   3.931  10.956
11969W        W80310   7.395  16.668  14.490
11970W        W80311  26.627  20.231  11.522
11971W        W80312  43.917  24.585  12.039
11972W        W80313  24.161   0.930  11.508
11973W        W80314  24.019  39.549  12.864
11974W        W80315  17.257  30.479  12.514
11975W        W80316  41.857  36.934   2.194
11976W        W80317   9.770  16.598  12.034
11977W        W80318  17.286  35.894   2.331
11978W        W80319  10.714  30.416   0.954
11979W        W80320   4.917  35.086  10.482
11980W        W80321   8.732  19.767   1.371
11981W        W80322  43.415  28.577  12.430
11982W        W80323  38.966  38.002   3.345
11983W        W80324  43.008  21.177  10.144
11984W        W80325  23.620  42.352  11.924
11985W        W80326  16.096  32.021   4.283
11986W        W80327  21.091   9.805   3.368
11987W        W80328  37.851  18.162   4.173
11988W        W80329  34.032  29.924  11.372
11989W        W80330  23.093  40.915   2.218
11990W        W80331  39.929  24.663   2.785
11991W        W80332  14.120  17.095   4.731
11992W        W80333  34.990  42.432   1.239
11993W        W80334  32.509   7.703  11.497
11994W        W80335  24.552  11.319   4.255
11995W        W80336   8.170  20.246   2.878
11996W        W80337  27.684  27.632   0.887
11997W        W80338  26.008   7.668  12.878
11998W        W80339  12.806  29.605  13.491
11999W        W80340  42.295  41.826   1.913
12000W        W80341  13.783  25.004   2.356
12001W        W80342  18.233  22.162   2.725
12002W        W80343  40.424  36.095  14.280
12003W        W80344   9.277  10.678  14.765
12004W        W80345  28.137  32.491  13.953
12005W        W80346   4.284   9.219   0.334
12006W        W80347  30.450  41.043   3.238
12007W        W80348  17.745  38.852  13.978
12008W        W80349  17.185  28.005  13.847
12009W        W80350   0.482  12.351  13.954
12010W        W80351   1.920  27.988  13.343
12011W        W80352  41.526   3.351  14.489
12012W        W80353   7.242  24.606   3.213
12013W        W80354  33.550  31.972   9.924
12014W        W80355   6.911   7.764  13.018
12015W        W80356  24.099  28.074   2.182
12016W        W80357  18.651  37.062   3.680
12017W        W80358   8.890   0.858  14.312
12018W        W80359  10.313   7.774   4.335
12019W        W80360  37.520  22.623  13.403
12020W        W80361  37.349  23.206   2.395
12021W        W80362  24.630  23.240  14.388
12022W        W80363  10.646  11.209  13.873
12023W        W80364   1.939  10.247   2.745
12024W        W80365  26.040  19.076  12.448
12025W        W80366  37.000  37.464   5.287
12026W        W80367  19.088  33.610   1.444
12027W        W80368  43.832   1.759  14.384
12028W        W80369  17.766  15.814   3.821
12029W        W80370  18.775  13.679  11.005
12030W        W80371   9.757  31.017  13.797
12031W        W80372  18.585  15.785   5.092
12032W        W80373  16.201  33.559  11.127
12033W        W80374  33.612   9.712   4.345
12034W        W80375   2.253  28.527  14.427
12035W        W80376  15.820  11.694  14.865
12036W        W80377  17.671  21.585  10.106
12037W        W80378  19.052  38.913  11.905
12038W        W80379   8.227  13.734  14.868
12039W        W80380   0.817  42.028  11.078
12040W        W80381  41.326  41.904   4.275
12041W        W80382  15.720  19.182   1.211
12042W        W80383  24.568  16.653   4.734
12043W        W80384  10.703  31.444   2.365
12044W        W80385  16.670  44.493  14.839
12045W        W80386  17.101   0.435   0.769
12046W        W80387  16.762  12.283  13.847
12047W        W80388  33.490   3.860   3.644
12048W        W80389  36.957  30.518   3.292
12049W        W80390  33.410   1.264   4.619
12050W        W80391  13.153  12.314   0.796
12051W        W80392   7.721  23.225   1.233
12052W        W80393  21.164  38.866  13.063
12053W        W80394   5.760   0.826  13.828
12054W        W80395  33.950  42.443   4.230
12055W        W80396  13.233   8.347   1.870
12056W        W80397  39.480  20.109  14.494
12057W        W80398  36.993   4.725   4.684
12058W        W80399  41.404   7.735   1.362
12059W        W80400  22.069  42.938  13.012
12060W        W80401  14.767   3.244  12.416
12061W        W80402  29.063  34.118   0.791
12062W        W80403  25.064  44.952   0.288
12063W        W80404  28.474  14.824  13.430
12064W        W80405   2.796  34.947   3.268
12065W        W80406  25.038  31.092   1.705
12066W        W80407   4.849  33.385   0.909
12067W        W80408  39.360  26.654  10.013
12068W        W80409  44.841   8.268  12.536
12069W        W80410  38.373  32.946  13.925
12070W        W80411   7.739  10.276  13.910
12071W        W80412  11.744  26.166  14.795
12072W        W80413  40.500  40.943  14.277
12073W        W80414  35.551   0.312   4.317
12074W        W80415  28.008  37.425  12.835
12075W        W80416  22.108   3.325   3.805
12076W        W80417  38.553  10.783  13.405
12077W        W80418  27.494   3.818  14.831
12078W        W80419  15.700  25.175   1.256
12079W        W80420  39.972  11.716  11.479
12080W        W80421  14.117  39.050  14.980
12081W        W80422   7.412  16.099   1.814
12082W        W80423  13.840  30.969  11.968
12083W        W80424  30.928  25.556  14.844
12084W        W80425  26.589  17.107   3.783
12085W        W80426  17.779  12.722   3.205
12086W        W80427  29.446  23.015  13.449
12087W        W80428  20.242   7.842   4.756
12088W        W80429  17.244  43.799  10.639
12089W        W80430   4.705  14.191  14.889
12090W        W80431   8.188  28.994  12.569
12091W        W80432  40.942  17.640   4.619
12092W        W80433   3.249  32.130  10.634
12093W        W80434  12.646  33.935   4.246
12094W        W80435  21.199  17.159   4.186
12095W        W80436  33.069  41.538  12.451
12096W        W80437   6.263  44.312   4.751
12097W        W80438   8.348  28.511   1.289
12098W        W80439   6.395  16.638  14.386
12099W        W80440  10.834  35.994  12.856
12100W        W80441  28.556  18.578  12.878
12101W        W80442  35.885  30.042   1.288
12102W        W80443  30.946  22.542  13.311
12103W        W80444  19.168  12.771   3.160
12104W        W80445  12.654  23.600   4.316
12105W        W80446  19.235  20.725  12.418
12106W        W80447   2.741  43.494  12.064
12107W        W80448  31.982  41.009  14.796
12108W        W80449  34.439  23.087   2.297
12109W        W80450   3.874  27.463   3.859
12110W        W80451  38.536  43.931   2.710
12111W        W80452  24.709   2.439   2.699
12112W        W80453   7.409  30.626  14.880
12113W        W80454  13.729   6.283   1.351
12114W        W80455  12.301  17.616  13.930
12115W        W80456  30.522  14.804   4.170
12116W        W80457   0.299  38.544  14.331
12117W        W80458  23.071   0.851  11.118
12118W        W80459  10.771   8.177  11.043
12119W        W80460   5.365  43.352   0.961
12120W        W80461   1.326  42.897   1.442
12121W        W80462  13.319  35.499  13.008
12122W        W80463  44.321  22.148   1.211
12123W        W80464  41.339   7.332  13.395
12124W        W80465  12.766  11.218   0.963
12125W        W80466  38.065   8.282   1.286
12126W        W80467  39.879  13.635  11.870
12127W        W80468   1.286   3.391  12.360
12128W        W80469  41.302  26.488  12.433
12129W        W80470   4.301  35.079   3.740
12130W        W80471  41.433   2.800   0.944
12131W        W80472  31.127   8.231  10.474
12132W        W80473  12.285  21.196  14.790
12133W        W80474  22.128  42.906  11.559
12134W        W80475  25.138  13.318   4.235
12135W        W80476  25.657  41.318  10.431
12136W        W80477  37.342   6.336   4.718
12137W        W80478   8.800  24.698  12.008
12138W        W80479  26.005  29.965   0.467
12139W        W80480  27.044  40.351   2.342
12140W        W80481  14.327  13.304   2.215
12141W        W80482  35.425  34.374   0.476
12142W        W80483  17.194  31.145  12.853
12143W        W80484  10.304   7.225  10.421
12144W        W80485  43.817  12.806   1.293
12145W        W80486   5.765  22.685  12.989
12146W        W80487  17.114   0.463  13.325
12147W        W80488  34.473  41.846   0.958
12148W        W80489  42.906   3.863   1.904
12149W        W80490  27.638  44.933  10.891
12150W        W80491  41.893   1.794  10.103
12151W        W80492  11.839  13.210  13.031
12152W        W80493   1.273  39.463  11.994
12153W        W80494   3.417  33.090   3.152
12154W        W80495  42.336  34.471  11.984
12155W        W80496  31.513  12.158   4.239
12156W        W80497  19.129  17.215  12.908
12157W        W80498  12.252  41.873  11.039
12158W        W80499  23.142  41.024   2.882
12159W        W80500  12.123  26.466   1.256
12160W        W80501  11.746  13.697  14.768
12161W        W80502  18.659  36.549   3.305
12162W        W80503   7.721  38.353   2.292
12163W        W80504  10.384   3.792  12.567
12164W        W80505  16.717   6.701  10.583
12165W        W80506  29.145   2.953  11.015
12166W        W80507  31.072  35.061  13.974
12167W        W80508  37.396  20.696  10.542
12168W        W80509  26.562  13.816   0.393
12169W        W80510  30.035  30.466   3.373
12170W        W80511   2.425   0.404  12.539
12171W        W80512  36.416  43.949   3.800
12172W        W80513  39.322   6.401   0.853
12173W        W80514  25.092  14.748  14.798
12174W        W80515  16.273  19.177  13.463
12175W        W80516  36.559  29.952  11.094
12176W        W80517   5.395  30.585   2.776
12177W        W80518  25.194   1.776   3.698
12178W        W80519  31.475   6.838   3.195
12179W        W80520  13.766  42.281  14.015
12180W        W80521  25.617  38.475  13.492
12181W        W80522  29.581  30.623  10.094
12182W        W80523  31.109  35.602  14.813
12183W        W80524   2.292  44.785   2.281
12184W        W80525  30.008  23.580  10.928
12185W        W80526  10.781  20.114  13.530
12186W        W80527  14.801  21.157   1.248
12187W        W80528  34.493  26.522   1.731
12188W        W80529  15.713   6.260  11.501
12189W        W80530   4.904   8.310  10.892
12190W        W80531  32.936  38.433  10.109
12191W        W80532  28.563  22.132  12.953
12192W        W80533   4.271   7.341  14.000
12193W        W80534  29.523   8.862  12.027
12194W        W80535  27.526  13.808   2.217
12195W        W80536   6.814  20.222   1.777
12196W        W80537  44.824  18.624   1.834
12197W        W80538  16.157   1.912   0.751
12198W        W80539  18.098  18.085   1.288
12199W        W80540   0.927  41.517   1.820
12200W        W80541  24.179  43.769  11.983
12201W        W80542  37.987  14.774   1.803
12202W        W80543  40.963  16.252  10.630
12203W        W80544  34.560  37.869   2.286
12204W        W80545   6.221   7.250   5.089
12205W        W80546  27.082  35.497   4.622
12206W        W80547  35.471   2.781   1.769
12207W        W80548  13.150  29.063   0.256
12208W        W80549  39.465  31.920  11.405
12209W        W80550  19.533  35.558  13.431
12210W        W80551   2.308  11.856   3.146
12211W        W80552  19.191  14.203  10.445
12212W        W80553  19.182  11.129   1.892
12213W        W80554  19.278  42.936  11.065
12214W        W80555  38.914  10.844  11.101
12215W        W80556  15.660  21.177   2.679
12216W        W80557   9.371  28.972  12.464
12217W        W80558  42.514   7.255   1.326
12218W        W80559  20.687  15.162  13.890
12219W        W80560  34.865  15.674   0.788
12220W        W80561  37.515   3.279  12.012
12221W        W80562  41.508   1.329   2.712
12222W        W80563   2.904  42.319   1.900
12223W        W80564  10.749   0.261  13.905
12224W        W80565  21.033   2.883   2.687
12225W        W80566   9.770   3.771   2.769
12226W        W80567  18.228   7.739   4.188
12227W        W80568  10.682  10.307   5.113
12228W        W80569  11.825  21.198  14.022
12229W        W80570  19.659  40.321   1.779
12230W        W80571  31.547  27.651  13.958
12231W        W80572  19.130   3.881  10.915
12232W        W80573  20.146  40.419   1.248
12233W        W80574   4.792  33.967  11.967
12234W        W80575   2.917  27.498   3.727
12235W        W80576   3.260  41.871   2.807
12236W        W80577  42.438  22.999  14.354
12237W        W80578  44.452  17.715  10.012
12238W        W80579   9.176  41.476   4.700
12239W        W80580   4.242  12.822   0.433
12240W        W80581   4.247  28.488   2.879
12241W        W80582  31.080  10.861   2.386
12242W        W80583  22.998  14.174  13.437
12243W        W80584  14.721  39.905  13.457
12244W        W80585  43.805   9.394   4.126
12245W        W80586  18.190  14.763  11.610
12246W        W80587  20.726  24.556  12.070
12247W        W80588   8.657   5.426  10.425
12248W        W80589  21.665  35.412  11.505
12249W        W80590  35.499  35.533   0.431
12250W        W80591  10.718  30.616   3.753
12251W        W80592   2.249  42.385  10.981
12252W        W80593  34.019   2.747   0.354
12253W        W80594  17.243  44.289  10.427
12254W        W80595  26.513  26.570   2.900
12255W        W80596  35.382  10.815  13.848
12256W        W80597  34.520  13.732   3.248
12257W        W80598   0.835  35.379  10.521
12258W        W80599  31.539  37.968   2.727
12259W        W80600   9.314  28.005  10.894
12260W        W80601  16.804  23.232   4.782
12261W        W80602  37.845  39.511  12.415
12262W        W80603   8.672  15.246   0.917
12263W        W80604  41.471  38.537   2.670
12264W        W80605  20.163   5.759   3.641
12265W        W80606   9.766  11.290  12.511
12266W        W80607  14.306  12.220  13.377
12267W        W80608  21.644  13.630   4.354
12268W        W80609  33.403  31.972   3.751
12269W        W80610  31.584   9.808   0.456
12270W        W80611  42.859   4.731  10.512
12271W        W80612  38.952  15.121  11.549
12272W        W80613  16.702  36.894   2.679
12273W        W80614  17.186  21.566   0.349
12274W        W80615  36.895  38.375  12.924
12275W        W80616  15.251  11.833   0.863
12276W        W80617  43.814  27.642  11.041
12277W        W80618   7.741   0.285   3.835
12278W        W80619  10.340  25.539   1.796
12279W        W80620  19.219  41.409   4.722
12280W        W80621  37.872   9.232  14.516
12281W        W80622  35.477  25.559  13.021
12282W        W80623  22.177  10.202  11.919
12283W        W80624  35.074  44.006  11.570
12284W        W80625  37.404  44.468   4.340
12285W        W80626  30.982   2.783  11.388
12286W        W80627  38.910  22.088   4.170
12287W        W80628   7.727  19.759   2.736
12288W        W80629   7.273  31.449  11.890
12289W        W80630   4.908   5.435  12.975
12290W        W80631   1.369  35.894  12.073
12291W        W80632   1.434   5.933   0.923
12292W        W80633  32.998  18.772   4.143
12293W        W80634   7.381  24.708   0.743
12294W        W80635  27.486  35.543   3.382
12295W        W80636  22.121  32.968   4.730
12296W        W80637  32.979   3.225  11.124
12297W        W80638  27.136  33.003  10.414
12298W        W80639  31.483  29.484   4.265
12299W        W80640  29.083  17.243  14.351
12300W        W80641  34.088  18.192  13.858
12301W        W80642  32.029  28.010   0.393
12302W        W80643  27.602  40.359  12.517
12303W        W80644  35.507  44.313  11.861
12304W        W80645  15.182  39.819   9.607
12305W        W80646  35.854   6.903  10.495
12306W        W80647  29.540  43.936   2.704
12307W        W80648  20.046   5.927  11.955
12308W        W80649  42.947  25.602   3.335
12309W        W80650  22.045  24.719   4.830
12310W        W80651  40.320  22.175  13.512
12311W        W80652  20.070  35.967   2.280
12312W        W80653  11.161  22.178   4.817
12313W        W80654  33.398  17.582  14.031
12314W        W80655  42.467   8.301  11.525
12315W        W80656  41.439   5.705   0.472
12316W        W80657  12.725  22.239  11.107
12317W        W80658  39.823   9.680  11.445
12318W        W80659   0.445  32.497   3.342
12319W        W80660  14.806  26.569   2.850
12320W        W80661  40.878   7.205  11.523
12321W        W80662   5.405   0.389   2.392
12322W        W80663   8.768   4.714   2.290
12323W        W80664   6.782  42.472   3.774
12324W        W80665  34.391  41.034   4.614
12325W        W80666  34.444  15.199   3.274
12326W        W80667  15.106  34.110   5.226
12327W        W80668  35.087  37.437  14.950
12328W        W80669  43.312   5.792   0.783
12329W        W80670  27.055  43.381  11.498
12330W        W80671  21.030  36.936  11.118
12331W        W80672  17.739   7.362   1.743
12332W        W80673  13.779  23.228  11.562
12333W        W80674  36.079  39.384   2.202
12334W        W80675  32.483  31.021  14.401
12335W        W80676  15.694  33.095  12.537
12336W        W80677  31.439  42.885   3.859
12337W        W80678  36.085  16.567  14.409
12338W        W80679  22.610  40.855   1.780
12339W        W80680  16.102   2.347   0.739
12340W        W80681   9.697  24.611  13.002
12341W        W80682  44.452   9.833   0.823
12342W        W80683  25.037  18.226  10.524
12343W        W80684  36.410  44.975  12.420
12344W        W80685   3.900  32.926  13.902
12345W        W80686  42.330  11.321  13.002
12346W        W80687   5.350  19.687  13.333
12347W        W80688  18.728   7.887   1.705
12348W        W80689  21.601  40.821   4.659
12349W        W80690   4.428  24.581  13.874
12350W        W80691  22.523   3.225  10.013
12351W        W80692  22.719   3.756   0.250
12352W        W80693   9.183  18.726   3.697
12353W        W80694   5.316  25.629  12.389
12354W        W80695   2.799  31.081   3.180
12355W        W80696  17.211  23.109  10.602
12356W        W80697  36.054  23.225  13.910
12357W        W80698  41.519   5.398   4.808
12358W        W80699  24.512  10.874   0.419
12359W        W80700  24.066  42.890  10.964
12360W        W80701  33.390  37.513  11.384
12361W        W80702   9.798   4.790  12.560
12362W        W80703  20.186  18.140  11.021
12363W        W80704   2.273  28.541   2.713
12364W        W80705  41.416  17.632  14.287
12365W        W80706  28.978  11.365  14.292
12366W        W80707   5.884  28.093  14.029
12367W        W80708  28.097  29.584  12.430
12368W        W80709  26.952  23.093  13.817
12369W        W80710   8.347   8.812   0.926
12370W        W80711  25.185  23.547   4.803
12371W        W80712   9.256  21.719   0.429
12372W        W80713  11.276  44.330   3.815
12373W        W80714   4.778   0.788  12.540
12374W        W80715  12.125   8.326   0.795
12375W        W80716  38.509  31.005   1.774
12376W        W80717   0.377  13.644   3.668
12377W        W80718  44.481  27.467   1.398
12378W        W80719   1.272  42.957   4.197
12379W        W80720  36.429  27.455  12.375
12380W        W80721  11.829  20.568   1.291
12381W        W80722  13.760   0.860  14.859
12382W        W80723  11.337  13.800   3.772
12383W        W80724  43.797  23.493  11.060
12384W        W80725  12.346  31.411   3.366
12385W        W80726   7.198  17.247  10.584
12386W        W80727  20.178  39.920  14.965
12387W        W80728   3.878  36.951   2.188
12388W        W80729   6.274  21.646  12.870
12389W        W80730  33.528  11.757  10.119
12390W        W80731  20.651  20.151  14.500
12391W        W80732  21.522  44.409  11.052
12392W        W80733  40.476  38.528   1.928
12393W        W80734  28.000   1.944   4.754
12394W        W80735  19.536  30.045  14.497
12395W        W80736  28.500  33.507  11.590
12396W        W80737  36.953   5.762  14.310
12397W        W80738  16.716  27.452   1.835
12398W        W80739  19.625  20.628   0.248
12399W        W80740  14.812  24.673  12.502
12400W        W80741  12.690  37.020  12.003
12401W        W80742  12.659  22.084  12.483
12402W        W80743  29.970  24.691  11.989
12403W        W80744  41.375  42.002  13.450
12404W        W80745   0.808  10.365   3.844
12405W        W80746  35.853   4.889   1.276
12406W        W80747  23.180   0.932   0.907
12407W        W80748  25.158  37.060  12.458
12408W        W80749   0.442   3.879   3.794
12409W        W80750   0.428   8.695   0.382
12410W        W80751  15.154  34.489  10.632
12411W        W80752   2.232  19.589  14.995
12412W        W80753   5.846  13.820   4.130
12413W        W80754  34.973  34.438   0.380
12414W        W80755  40.042  34.407  11.438
12415W        W80756  13.612  24.035  14.369
12416W        W80757  36.900   9.718  13.909
12417W        W80758  32.003  20.638   2.853
12418W        W80759   2.879  37.454   1.443
12419W        W80760  23.996  31.944  11.500
12420W        W80761  26.597  25.603   5.099
12421W        W80762  26.019  26.617   0.281
12422W        W80763  33.037  43.905  13.963
12423W        W80764  43.325  30.586  12.340
12424W        W80765  43.768  17.305  11.924
12425W        W80766  43.792  20.146  11.375
12426W        W80767  44.794  24.530  13.322
12427W        W80768   0.965   2.260   2.400
12428W        W80769  44.982   9.888   1.293
12429W        W80770  21.208  37.547   1.358
12430W        W80771  28.149  29.563   2.324
12431W        W80772  18.193  38.419   2.384
12432W        W80773  15.667   2.843  13.854
12433W        W80774  35.364  28.460  14.472
12434W        W80775   4.810  32.094   5.229
12435W        W80776  26.612   2.394  11.379
12436W        W80777  15.794  25.098  12.890
12437W        W80778  21.234   4.862   3.751
12438W        W80779   1.449  22.624  13.537
12439W        W80780  30.932  24.022   2.671
12440W        W80781  24.607  34.965  12.479
12441W        W80782   8.186  27.952   0.903
12442W        W80783  15.212  43.472   0.319
12443W        W80784  37.508   0.925   0.281
12444W        W80785   9.876  28.479   4.189
12445W        W80786  23.495   6.717  14.509
12446W        W80787  20.096  34.370   0.471
12447W        W80788  13.335  33.618  14.797
12448W        W80789  22.678  12.141   1.362
12449W        W80790  18.243  16.708  14.763
12450W        W80791   7.674  39.013   0.793
12451W        W80792  44.318   0.757  12.076
12452W        W80793   4.428  38.367  13.817
12453W        W80794  27.162   6.338   4.669
12454W        W80795  34.526  22.227  11.105
12455W        W80796  37.385   9.169  12.409
12456W        W80797  12.157  21.105   1.771
12457W        W80798  21.710  37.866   0.929
12458W        W80799  32.597   0.316  14.514
12459W        W80800  12.213   1.823   0.282
12460W        W80801  31.918  30.513  12.989
12461W        W80802   3.304  19.227  13.927
12462W        W80803  13.809  34.953   2.215
12463W        W80804   6.393  36.500   0.443
12464W        W80805   3.907  32.008   2.382
12465W        W80806  31.068   8.810   1.349
12466W        W80807   0.952  29.446  12.385
12467W        W80808   4.334  26.088   2.235
12468W        W80809  13.163  35.589   2.866
12469W        W80810   3.753   3.321   2.839
12470W        W80811  14.802  25.171  10.928
12471W        W80812  28.010  21.621   9.994
12472W        W80813  42.387   1.257  14.992
12473W        W80814  41.036  38.917   4.682
12474W        W80815   2.837   3.358   2.699
12475W        W80816  13.781  28.100  11.077
12476W        W80817  27.031  43.932  13.421
12477W        W80818  17.265   0.906   1.771
12478W        W80819   9.274  40.374  10.155
12479W        W80820  30.970  27.459  12.475
12480W        W80821  25.079  16.574   2.817
12481W        W80822   4.347   9.245  11.895
12482W        W80823  36.497   5.886  12.444
12483W        W80824  30.446  22.576  10.946
12484W        W80825  42.969  40.986  12.917
12485W        W80826  38.912   2.876  14.312
12486W        W80827  14.833  11.752   3.800
12487W        W80828  38.993  23.087  12.922
12488W        W80829  33.992  17.777   3.359
12489W        W80830  18.152  33.380   3.715
12490W        W80831  16.197  42.850   1.271
12491W        W80832  38.562  11.139  14.849
12492W        W80833  30.452  13.610   1.839
12493W        W80834  25.626  20.185  14.987
12494W        W80835  20.235   4.941   1.259
12495W        W80836  27.987  18.564   2.747
12496W        W80837  19.604  43.964  10.976
12497W        W80838  18.755   7.736  13.392
12498W        W80839  39.431  27.670   3.190
12499W        W80840  33.461  22.606   3.179
12500W        W80841  37.021  26.652  12.412
12501W        W80842   9.732  43.916   1.830
12502W        W80843  17.097  43.337  10.627
12503W        W80844  31.513  17.071   4.622
12504W        W80845   8.882   7.818  14.332
12505W        W80846   6.919  20.600   2.300
12506W        W80847  15.786  16.300  13.824
12507W        W80848   8.856  24.724   2.802
12508W        W80849   2.415  13.221   0.262
12509W        W80850   8.207  25.092  13.939
12510W        W80851  35.039  23.018   2.768
12511W        W80852  44.885  36.528  14.964
12512W        W80853  32.124  23.585   3.220
12513W        W80854  35.473  38.875  13.928
12514W        W80855  41.455  34.414   1.761
12515W        W80856  37.491  32.097   0.821
12516W        W80857  37.953  36.872   0.893
12517W        W80858  26.106  15.634   2.870
12518W        W80859  14.716  25.164  12.373
12519W        W80860   6.813   7.373   0.868
12520W        W80861   3.255  44.369   1.925
12521W        W80862  29.018   8.403   2.369
12522W        W80863  39.061  21.263   2.379
12523W        W80864  37.858  34.982  14.024
12524W        W80865  11.142  39.442   2.399
12525W        W80866   0.400  26.567  11.460
12526W        W80867  36.851  33.921   3.381
12527W        W80868   5.418  20.585  10.546
12528W        W80869  35.537  41.448   0.887
12529W        W80870  20.261   9.802  10.983
12530W        W80871  37.409   4.434   3.343
12531W        W80872   9.183  18.175  10.901
12532W        W80873  21.224  44.318  11.528
12533W        W80874  22.673  41.986  12.933
12534W        W80875  12.237  14.815  11.405
12535W        W80876  24.008  44.498   1.837
12536W        W80877   8.780  26.078   4.753
12537W        W80878  30.637   2.894   2.826
12538W        W80879  37.873  22.552   1.391
12539W        W80880   3.356  28.438  11.599
12540W        W80881  14.119  38.555  10.923
12541W        W80882  43.432  35.908   4.270
12542W        W80883   2.458  25.029  14.322
12543W        W80884  11.798   5.262   3.246
12544W        W80885   0.957  21.220  11.401
12545W        W80886  13.320  22.595  14.770
12546W        W80887  21.103  35.859  11.905
12547W        W80888   1.405  24.522   0.331
12548W        W80889  21.249  32.564  12.022
12549W        W80890   6.406  28.544   0.391
12550W        W80891   6.894  43.366  13.995
12551W        W80892  29.998  10.852   1.788
12552W        W80893  12.167  36.004  12.999
12553W        W80894   9.803  17.754  12.484
12554W        W80895   3.312  13.271   0.837
12555W        W80896  26.206   7.303   2.215
12556W        W80897  15.286  17.268  12.020
12557W        W80898  41.316   2.451   3.793
12558W        W80899   4.841   6.320   1.325
12559W        W80900  18.173  40.930  13.913
12560W        W80901  31.916  13.263   2.189
12561W        W80902  17.799  36.412  12.874
12562W        W80903   3.725  38.471  14.443
12563W        W80904   6.332   4.312   1.346
12564W        W80905  11.708  24.168   3.660
12565W        W80906  16.270  25.573  11.584
12566W        W80907   8.230  22.634  13.442
12567W        W80908   8.683  20.737   0.352
12568W        W80909  33.403  16.619  13.356
12569W        W80910  16.703   1.380   3.220
12570W        W80911  36.097   4.930  11.076
12571W        W80912  43.309  27.590  10.525
12572W        W80913  13.195  37.351   1.425
12573W        W80914  41.493  33.449  10.926
12574W        W80915   6.880  13.613  11.585
12575W        W80916  23.119  31.619   2.389
12576W        W80917  35.905  17.719   2.884
12577W        W80918  15.210  35.866  13.049
12578W        W80919   6.922  18.634  13.509
12579W        W80920   8.236  41.891   0.444
12580W        W80921  18.604  37.425   3.309
12581W        W80922  32.957  42.967  14.863
12582W        W80923   8.383  39.345   3.381
12583W        W80924   4.368  37.380   3.807
12584W        W80925  24.674  13.144   0.269
12585W        W80926   1.385  10.852  14.796
12586W        W80927  15.742  15.667  11.946
12587W        W80928  10.239  17.640   9.924
12588W        W80929   0.322   8.656  13.867
12589W        W80930   9.151  39.982  11.123
12590W        W80931  12.795  12.196  10.553
12591W        W80932  32.424  23.669   1.295
12592W        W80933  26.592  33.074   1.226
12593W        W80934  28.449  27.983   4.118
12594W        W80935  21.574  12.297   0.896
12595W        W80936  27.003   6.824   3.701
12596W        W80937   4.423   2.352   4.789
12597W        W80938  31.483  23.072   3.178
12598W        W80939  43.930  33.898   4.831
12599W        W80940  23.129  16.671   9.552
12600W        W80941  36.000  28.441   4.771
12601W        W80942  22.626  31.142   4.776
12602W        W80943  31.015  23.103   3.865
12603W        W80944   4.222  37.372  12.083
12604W        W80945  29.515  24.544   2.417
12605W        W80946  21.564  26.047  12.474
12606W        W80947  42.340   9.274  10.989
12607W        W80948   0.954  21.539   4.703
12608W        W80949  29.986  43.996  12.490
12609W        W80950  33.603  35.079  12.418
12610W        W80951  36.971  21.748   1.892
12611W        W80952  15.133  22.065  11.917
12612W        W80953  20.754  26.464   4.325
12613W        W80954  17.591  28.543  11.538
12614W        W80955   6.922  35.885  14.341
12615W        W80956  27.086  13.707   3.349
12616W        W80957  36.563  31.149   4.131
12617W        W80958  27.482  44.494  11.114
12618W        W80959   0.770   3.241   2.292
12619W        W80960  30.583  13.669   4.691
12620W        W80961   5.298  43.884   1.270
12621W        W80962  13.620  38.829  11.123
12622W        W80963   2.401  35.010  14.910
12623W        W80964  20.597  44.952   0.426
12624W        W80965  18.560  27.977  14.475
12625W        W80966  11.228  31.471  11.920
12626W        W80967   0.481  31.048   1.824
12627W        W80968  24.677   5.924  11.049
12628W        W80969   9.887  44.403   3.802
12629W        W80970  41.839  41.986  13.473
12630W        W80971  40.881   0.367   3.771
12631W        W80972  17.229  24.091  10.613
12632W        W80973  17.572   8.750  12.529
12633W        W80974   5.929  16.760  10.988
12634W        W80975  42.397  35.377   0.479
12635W        W80976  38.435  30.579  12.020
12636W        W80977  34.903  29.627   2.668
12637W        W80978   4.444   1.383   0.408
12638W        W80979  38.988  18.288   0.825
12639W        W80980  19.076  14.803   1.343
12640W        W80981  38.476  36.062   1.715
12641W        W80982  12.743  21.021   1.932
12642W        W80983  29.455  18.597  13.337
12643W        W80984   6.369  15.166  12.839
12644W        W80985  19.596  39.529   0.287
12645W        W80986  34.533  44.448  11.886
12646W        W80987   0.392  13.620   2.311
12647W        W80988   5.291  28.557   3.753
12648W        W80989  36.429  24.195   0.758
12649W        W80990  40.831  21.237   1.349
12650W        W80991   3.284  30.558  14.502
12651W        W80992  39.410  33.533  12.914
12652W        W80993  24.521   4.912   2.895
12653W        W80994  39.528  20.748  13.034
12654W        W80995  27.077  26.458   4.699
12655W        W80996  39.342   3.325  10.447
12656W        W80997   3.280   5.811   2.362
12657W        W80998  22.120  16.700   4.172
12658W        W80999  23.701  10.181  12.892
12659W        W81000   1.756  39.862  13.370
12660W        W81001  29.606  12.335  10.630
12661W        W81002   9.385  43.476   0.371
12662W        W81003  28.071  24.488   2.671
12663W        W81004   3.353   5.315   1.818
12664W        W81005  34.394   1.768  10.476
12665W        W81006   9.215  35.982   0.253
12666W        W81007  17.204  20.586  14.901
12667W        W81008  21.045  25.570   1.352
12668W        W81009  15.137   9.376   2.314
12669W        W81010  44.877  34.877   1.281
12670W        W81011   5.265  20.769   4.664
12671W        W81012  30.986   4.324   3.161
12672W        W81013  44.759  31.629   3.188
12673W        W81014  16.266  20.253  13.961
12674W        W81015   9.888  38.839   3.183
12675W        W81016  40.416   9.247   0.885
12676W        W81017   6.794   0.493   0.438
12677W        W81018   5.327  11.262   4.276
12678W        W81019  11.167  20.093  11.893
12679W        W81020   9.875   2.933  10.941
12680W        W81021  35.989  10.715   2.341
12681W        W81022  33.970   6.396  12.054
12682W        W81023  18.644  21.028   1.316
12683W        W81024  36.419   7.374   4.311
12684W        W81025  31.030  25.128   5.233
12685W        W81026   2.370  42.876   3.693
12686W        W81027  18.592  35.988   2.823
12687W        W81028   2.824  28.073  11.421
12688W        W81029  13.206  32.035   0.294
12689W        W81030  20.155  38.049   3.206
12690W        W81031  34.987  27.992   4.267
12691W        W81032   1.780   3.718  11.965
12692W        W81033  39.450  28.543   2.350
12693W        W81034  24.221  39.004   4.636
12694W        W81035   3.295  16.278   0.400
12695W        W81036  12.835  30.986   1.730
12696W        W81037   5.903  40.869  14.413
12697W        W81038   3.318   3.308   9.941
12698W        W81039  32.524  44.335   1.781
12699W        W81040  27.042  12.306  10.994
12700W        W81041  19.741  34.611   0.419
12701W        W81042  43.461   4.744   2.843
12702W        W81043   6.354  10.736  12.909
12703W        W81044   4.902  20.091   0.294
12704W        W81045   0.969  26.613   5.257
12705W        W81046   9.357  37.490   4.749
12706W        W81047  37.545  31.001  13.862
12707W        W81048  20.693   5.832  12.905
12708W        W81049  32.583  34.975   4.234
12709W        W81050  25.183   2.403   0.873
12710W        W81051  38.965  18.565   1.310
12711W        W81052   7.811   7.735   1.699
12712W        W81053  11.833  35.559  10.155
12713W        W81054  18.205  16.086   3.291
12714W        W81055  23.082  32.987  12.063
12715W        W81056  34.582   8.189  14.012
12716W        W81057  25.712  35.939   0.334
12717W        W81058  19.773  20.732  13.919
12718W        W81059   2.288  31.920   3.701
12719W        W81060  37.024  34.887   0.896
12720W        W81061  17.115  38.393  12.937
12721W        W81062  40.011   2.421   4.333
12722W        W81063   4.399   1.413  14.393
12723W        W81064  25.535  41.503   0.420
12724W        W81065  11.687   0.957  14.815
12725W        W81066  13.129  13.623  14.928
12726W        W81067  35.498   9.831   0.353
12727W        W81068  23.529  17.685  11.053
12728W        W81069  38.063  34.864  10.938
12729W        W81070  39.453  18.730  12.367
12730W        W81071  24.121  26.696  14.352
12731W        W81072  30.909   6.362   2.316
12732W        W81073  34.886   3.223  11.374
12733W        W81074  27.074  31.467  12.495
12734W        W81075  32.503  28.503   3.150
12735W        W81076  32.517   4.364   2.713
12736W        W81077  34.910   2.397  10.999
12737W        W81078  31.576  44.769   1.451
12738W        W81079  39.901  23.618   0.805
12739W        W81080  29.567  28.601   1.840
12740W        W81081  34.901  39.484  14.829
12741W        W81082  41.978  31.019  11.460
12742W        W81083  33.396  42.032  12.084
12743W        W81084  20.736  17.663   1.420
12744W        W81085  12.627  36.448   2.727
12745W        W81086   0.839  25.053   3.334
12746W        W81087  41.863  27.606   0.753
12747W        W81088  30.622  37.050   2.319
12748W        W81089  43.006   1.902  10.423
12749W        W81090  27.019  37.043   4.227
12750W        W81091   8.874   8.786   0.320
12751W        W81092  37.444  35.991  10.938
12752W        W81093  15.183   1.889  12.912
12753W        W81094  12.840   6.826  13.413
12754W        W81095   9.677   8.676  13.412
12755W        W81096  36.471  26.149  10.490
12756W        W81097  42.001  40.974   4.602
12757W        W81098  23.507  42.836   2.841
12758W        W81099  36.979  40.484   1.384
12759W        W81100  17.226  24.062   4.728
12760W        W81101  21.723  36.063   0.252
12761W        W81102  41.035  29.626   0.833
12762W        W81103  36.519  25.042   2.871
12763W        W81104  20.554   0.357  13.855
12764W        W81105   2.931  41.515   2.858
12765W        W81106  20.523  39.532  11.431
12766W        W81107   5.335  13.662  14.761
12767W        W81108  30.477   9.798   0.853
12768W        W81109   7.849  26.026  12.947
12769W        W81110  37.037  16.582   0.457
12770W        W81111  39.513  32.105  12.534
12771W        W81112   8.721   4.381  14.981
12772W        W81113  27.685  40.044  10.969
12773W        W81114  36.368  30.568   4.756
12774W        W81115  32.559  36.981  13.822
12775W        W81116  20.618  12.771   3.678
12776W        W81117  29.532   6.676   2.849
12777W        W81118  38.499  43.993  11.596
12778W        W81119  10.851  41.513   4.741
12779W        W81120  29.432  25.711  10.894
12780W        W81121  10.780  14.629  10.596
12781W        W81122  17.619   1.861   2.201
12782W        W81123  31.591  38.056   1.435
12783W        W81124  17.283   5.410   0.452
12784W        W81125   0.793   3.928  12.442
12785W        W81126  33.930  23.990   1.331
12786W        W81127   9.320   4.328   3.681
12787W        W81128  42.983  11.286  14.474
12788W        W81129   5.375   8.667  10.511
12789W        W81130  33.058  40.899   3.730
12790W        W81131  18.695  10.206   2.405
12791W        W81132   1.860  25.624  12.535
12792W        W81133  29.554  26.635  14.845
12793W        W81134  43.911  10.362   3.292
12794W        W81135  35.915  21.220  14.371
12795W        W81136  20.659  32.925   3.705
12796W        W81137  38.359  30.425  13.878
12797W        W81138  10.788  23.494  12.823
12798W        W81139  17.197  20.655  11.375
12799W        W81140   9.154   1.920  12.417
12800W        W81141   7.389  32.888   2.376
12801W        W81142  19.182  42.999  12.435
12802W        W81143   6.242   4.359   4.302
12803W        W81144  27.173  31.427  11.443
12804W        W81145  10.210  17.118  13.409
12805W        W81146  19.596  44.881  14.777
12806W        W81147  35.863  22.747  14.357
12807W        W81148   4.428  43.938  11.905
12808W        W81149  34.864  42.780   4.132
12809W        W81150   3.228  27.173  14.356
12810W        W81151  44.886  42.300  11.387
12811W        W81152  15.602  31.918   2.815
12812W        W81153  35.370  16.770  12.095
12813W        W81154   4.834  11.755  13.818
12814W        W81155  41.805  14.634  11.573
12815W        W81156  19.697  43.441   2.401
12816W        W81157  21.601  25.066  11.010
12817W        W81158  23.687  13.716   1.731
12818W        W81159  16.647  32.536  14.459
12819W        W81160  37.459  39.926   0.264
12820W        W81161  13.182  25.006  12.407
12821W        W81162  34.497   0.339   0.324
12822W        W81163  24.088  32.998   0.813
12823W        W81164  43.375  27.055  12.411
12824W        W81165  29.536   5.862   1.751
12825W        W81166  35.551  44.481   2.248
12826W        W81167  24.505  42.344   0.816
12827W        W81168  20.666  22.696  12.974
12828W        W81169   5.794  30.094  12.423
12829W        W81170  18.770  36.593   4.763
12830W        W81171   8.831   0.307  11.016
12831W        W81172  29.050   4.357  11.057
12832W        W81173  21.169  24.654   0.798
12833W        W81174  28.467  24.135  14.829
12834W        W81175  18.068  24.511  11.555
12835W        W81176  37.862  24.119   3.817
12836W        W81177  31.522   8.349  12.849
12837W        W81178  23.545  18.233   4.189
12838W        W81179  23.547  27.680   2.727
12839W        W81180  27.009  18.250  12.980
12840W        W81181  10.155  12.733   2.189
12841W        W81182  19.194  31.422   4.723
12842W        W81183  34.452  30.042  14.905
12843W        W81184  43.453  13.710  12.501
12844W        W81185  13.801  24.215  12.061
12845W        W81186  24.479  26.466  11.386
12846W        W81187   5.930  37.504  14.859
12847W        W81188  38.355  31.638   3.383
12848W        W81189  30.151  22.055   4.259
12849W        W81190   8.281  43.359  11.431
12850W        W81191  21.571   5.753  12.402
12851W        W81192  17.605  31.410   4.217
12852W        W81193  19.671  20.120  12.376
12853W        W81194  19.595  14.102   4.330
12854W        W81195  18.158   0.434  13.805
12855W        W81196  23.596   1.817   4.121
12856W        W81197  17.581  32.051  14.980
12857W        W81198  30.142  11.700   3.774
12858W        W81199  39.369   5.287  14.778
12859W        W81200   0.977  25.657  14.881
12860W        W81201   5.814  30.091  12.016
12861W        W81202  30.629   3.224   0.829
12862W        W81203  21.713  40.814  11.906
12863W        W81204  43.852  35.042   1.728
12864W        W81205  24.036  15.619  11.954
12865W        W81206  22.742  10.729  11.385
12866W        W81207  33.975  18.217  11.383
12867W        W81208   0.794  38.471  12.004
12868W        W81209  39.390  31.901  14.815
12869W        W81210  42.025   9.266   0.345
12870W        W81211  27.070  22.033   3.174
12871W        W81212  24.677   1.358   1.244
12872W        W81213  43.348  26.166   1.694
12873W        W81214  10.336   8.233  14.011
12874W        W81215  31.991  22.111  11.076
12875W        W81216  22.648  31.641  10.985
12876W        W81217  11.757  28.114   3.149
12877W        W81218  29.455  41.449   3.152
12878W        W81219  22.647  10.703   0.300
12879W        W81220  43.419  15.247   0.752
12880W        W81221  29.527   0.934   0.332
12881W        W81222  28.522  10.638  13.457
12882W        W81223   5.246  21.752  10.428
12883W        W81224   9.821   2.413   3.234
12884W        W81225  41.382  33.483   2.265
12885W        W81226  27.632  31.026   1.249
12886W        W81227  34.394  16.577   3.798
12887W        W81228  23.188  25.171  12.094
12888W        W81229   2.251  36.954  10.481
12889W        W81230  12.851  31.898   4.336
12890W        W81231  17.760  41.943   4.139
12891W        W81232   2.466  44.883  11.464
12892W        W81233  13.672  20.249   1.709
12893W        W81234  14.273   2.428  13.897
12894W        W81235  32.040   7.807  11.069
12895W        W81236  32.612  37.375   3.307
12896W        W81237  24.485  27.044   2.667
12897W        W81238  36.590  30.924  14.281
12898W        W81239  28.948  15.226  11.935
12899W        W81240   1.417  31.135  13.961
12900W        W81241  30.423  29.502   4.310
12901W        W81242  11.336  13.266  12.954
12902W        W81243  14.833  43.933   3.783
12903W        W81244  38.448  20.734   3.164
12904W        W81245  44.307  16.698   2.331
12905W        W81246  37.881  31.622   4.796
12906W        W81247  33.419  34.047   1.932
12907W        W81248  37.894  17.134  13.890
12908W        W81249  12.135   2.938  11.053
12909W        W81250  38.043   4.802  12.062
12910W        W81251  29.146   7.234  12.887
12911W        W81252  21.033  39.821   3.226
12912W        W81253   6.307  37.857  12.986
12913W        W81254   6.408  42.934   1.226
12914W        W81255  25.069   1.352   4.613
12915W        W81256  20.659  22.670  13.938
12916W        W81257  14.188  13.678  14.346
12917W        W81258  39.890  16.233   1.345
12918W        W81259  17.073  35.859   4.828
12919W        W81260  17.135  43.764   0.439
12920W        W81261  30.552  12.732   4.217
12921W        W81262  43.899   9.774  11.406
12922W        W81263  24.642  25.481   2.237
12923W        W81264  30.066  20.039   2.414
12924W        W81265  13.812  14.200   2.203
12925W        W81266   4.313  37.358  14.342
12926W        W81267  10.258  24.518   2.406
12927W        W81268   4.405  16.073  14.463
12928W        W81269  34.518  44.490   1.781
12929W        W81270  15.754  41.964  11.916
12930W        W81271   7.274  26.975   2.368
12931W        W81272  29.434  15.744  11.104
12932W        W81273  36.500  17.065   3.663
12933W        W81274   3.836   2.887  10.415
12934W        W81275  16.072  38.819   1.696
12935W        W81276   6.332  43.907   1.815
12936W        W81277  10.195  27.470  12.078
12937W        W81278  11.853  10.311   2.688
12938W        W81279  40.877  33.956   3.824
12939W        W81280  44.440   8.229   3.348
12940W        W81281  18.720  22.200  14.817
12941W        W81282  40.376  42.020   9.944
12942W        W81283  43.968  25.081   3.737
12943W        W81284  27.674   6.368   4.704
12944W        W81285  17.099  31.500  12.352
12945W        W81286  18.684  32.061  10.138
12946W        W81287  43.351  39.339  11.564
12947W        W81288  17.125  31.445  11.933
12948W        W81289   8.294  40.933  12.457
12949W        W81290   0.922  21.174  13.952
12950W        W81291   5.785  33.403  12.473
12951W        W81292  43.335  22.574   0.435
12952W        W81293   3.742  37.007  11.435
12953W        W81294  44.767  19.704  10.013
12954W        W81295  34.587  40.506  11.103
12955W        W81296  12.849  27.129   2.195
12956W        W81297  28.993  32.556   0.394
12957W        W81298   4.428  31.478   2.726
12958W        W81299  31.937  10.716   3.684
12959W        W81300   4.801  31.466   4.728
12960W        W81301  22.601  19.226   4.607
12961W        W81302  27.022  26.612   5.626
12962W        W81303   1.374   5.863   4.706
12963W        W81304  33.536  28.667  13.055
12964W        W81305  19.236  37.540  11.475
12965W        W81306  29.462  23.561   0.884
12966W        W81307  10.256   0.325  12.550
12967W        W81308  12.316   3.809  12.942
12968W        W81309   3.813  21.200  14.356
12969W        W81310  14.149   0.864   1.403
12970W        W81311  44.864   6.337  12.491
12971W        W81312  30.976  13.723  11.387
12972W        W81313   5.295  27.014  12.398
12973W        W81314  14.339  26.489  10.626
12974W        W81315  31.498  13.802  12.461
12975W        W81316  43.488  34.488  12.538
12976W        W81317  26.531  24.495   0.302
12977W        W81318  44.296  14.247  13.402
12978W        W81319  15.144  24.047   3.186
12979W        W81320  18.225  17.627   0.773
12980W        W81321  42.020  38.387  14.446
12981W        W81322   6.866  21.666   4.121
12982W        W81323  37.488   3.215  14.311
12983W        W81324  44.981   6.281   4.189
12984W        W81325   9.858  26.626  14.357
12985W        W81326  34.470  30.599  11.375
12986W        W81327  32.000   9.839  14.934
12987W        W81328  23.585   4.438   2.672
12988W        W81329  36.038   6.265  14.478
12989W        W81330  39.976  33.594   2.217
12990W        W81331  43.948   6.900  10.921
12991W        W81332   3.444   0.772  11.935
12992W        W81333  15.166  44.490   3.275
12993W        W81334  38.930  44.994  11.564
12994W        W81335  14.331  25.152  11.894
12995W        W81336  29.479  17.077  10.931
12996W        W81337  15.823  13.246   0.759
12997W        W81338  21.541   9.386  13.408
12998W        W81339  43.430  14.816   0.917
12999W        W81340  34.561  19.541   2.711
13000W        W81341  40.518  21.055   4.188
13001W        W81342  24.181  36.402   4.163
13002W        W81343  31.564  39.393   9.971
13003W        W81344  14.121  20.531  14.821
13004W        W81345  12.754  43.317  13.033
13005W        W81346  41.918  34.518   0.432
13006W        W81347  28.629   2.964   2.848
13007W        W81348  38.963  28.460  13.986
13008W        W81349   7.310  29.161  14.905
13009W        W81350  17.235  34.460  11.060
13010W        W81351  16.703  42.915  13.909
13011W        W81352  26.134  41.326  14.359
13012W        W81353  15.626  34.101  13.388
13013W        W81354  32.441  38.443  10.528
13014W        W81355  21.540  11.862  10.436
13015W        W81356   5.395  44.355  10.643
13016W        W81357  29.141  38.005   4.279
13017W        W81358  15.721  30.429   4.761
13018W        W81359   5.211  19.198   2.702
13019W        W81360  14.686   4.208   0.426
13020W        W81361  14.824   5.201   4.336
13021W        W81362   2.893  26.653   4.835
13022W        W81363  43.811  30.545  10.559
13023W        W81364  41.423  43.837  14.321
13024W        W81365  24.038  41.319   1.247
13025W        W81366  32.074  18.207  14.455
13026W        W81367  36.364  28.011   4.340
13027W        W81368  20.072  31.963  14.881
13028W        W81369   5.256  15.208  13.865
13029W        W81370   5.716  44.951  11.903
13030W        W81371   5.867  28.076  11.045
13031W        W81372  25.210  20.072   0.307
13032W        W81373   8.272   3.946  13.838
13033W        W81374   2.294   6.398  11.054
13034W        W81375  20.153   8.204   3.648
13035W        W81376  19.602  12.650   3.744
13036W        W81377  39.364  35.586   1.906
13037W        W81378  20.611  18.576  14.827
13038W        W81379   1.811  22.520   2.264
13039W        W81380  28.672  33.595  13.968
13040W        W81381   4.205  38.384  10.455
13041W        W81382  16.234  17.633  13.384
13042W        W81383   7.809   1.379  11.526
13043W        W81384   7.769  33.915   3.682
13044W        W81385   0.293  10.729   2.214
13045W        W81386  43.804  28.629  13.912
13046W        W81387   2.257   2.913  14.866
13047W        W81388  27.508  34.542   3.779
13048W        W81389  16.743  39.531   2.734
13049W        W81390  20.192  42.878  13.935
13050W        W81391  10.776   1.334   0.403
13051W        W81392  28.514  23.996   3.162
13052W        W81393  37.020  25.530  10.428
13053W        W81394  20.115  44.765  14.352
13054W        W81395  38.363   1.245  14.997
13055W        W81396  27.193  15.100   2.214
13056W        W81397  10.674   8.824   5.223
13057W        W81398  40.451  39.968   5.268
13058W        W81399  21.158  33.025   0.765
13059W        W81400  17.743  32.596   1.332
13060W        W81401  27.679  13.209  12.974
13061W        W81402  22.056  41.307   2.187
13062W        W81403  23.080  28.019   2.297
13063W        W81404   1.379  14.123   2.886
13064W        W81405  39.947  32.895   0.360
13065W        W81406  13.615   7.205   0.474
13066W        W81407  34.043  34.503  11.047
13067W        W81408  26.143  39.926  10.583
13068W        W81409   1.332  29.068  10.981
13069W        W81410  13.835  22.130  14.389
13070W        W81411  26.017  41.529   3.182
13071W        W81412  32.442  13.310   1.700
13072W        W81413  44.447  17.774   4.653
13073W        W81414  33.419  40.480  12.367
13074W        W81415  38.447  22.540   4.268
13075W        W81416  42.872  40.053   2.776
13076W        W81417  23.724  31.134   4.266
13077W        W81418  15.281  14.597   3.201
13078W        W81419  41.030  42.379   5.176
13079W        W81420   5.373  20.205  13.343
13080W        W81421   5.823  36.402  14.387
13081W        W81422  40.924  12.726  11.004
13082W        W81423  32.420   8.310   3.659
13083W        W81424   1.955  39.963  12.573
13084W        W81425   5.244  13.126  13.041
13085W        W81426  17.104  40.414  12.543
13086W        W81427  17.180  42.311   2.772
13087W        W81428   1.790  44.379   1.781
13088W        W81429  39.477   5.916   0.417
13089W        W81430  26.979   5.747  12.341
13090W        W81431  22.593  21.217  11.877
13091W        W81432  23.049   9.753  11.396
13092W        W81433   2.912   3.350   1.235
13093W        W81434   1.402  15.087   3.173
13094W        W81435  41.881  11.739  11.417
13095W        W81436  18.227  35.082  12.840
13096W        W81437  39.505  19.070   0.949
13097W        W81438   5.278  13.282  13.440
13098W        W81439  42.287  22.540  11.508
13099W        W81440   9.815  12.851   4.192
13100W        W81441  22.020  30.482   0.440
13101W        W81442  23.054   3.951   3.699
13102W        W81443  42.781  17.732   4.234
13103W        W81444  25.672   1.922   3.386
13104W        W81445  27.475  37.968   3.383
13105W        W81446  11.645   1.754   0.412
13106W        W81447  11.140   6.862  11.101
13107W        W81448  39.925   6.199   1.364
13108W        W81449  40.413  19.539  12.491
13109W        W81450  22.102  35.952   1.298
13110W        W81451   6.907  43.993  12.975
13111W        W81452  19.101  40.054  13.041
13112W        W81453  25.636   3.421  12.961
13113W        W81454  21.105  44.798   3.349
13114W        W81455  32.062  44.371  14.420
13115W        W81456   7.839  40.325  12.441
13116W        W81457  43.334  17.798   0.967
13117W        W81458  21.129  11.677   3.692
13118W        W81459  13.820  16.074  12.849
13119W        W81460  34.582  34.424   4.705
13120W        W81461  24.188   1.974  12.437
13121W        W81462  39.318  25.106   3.241
13122W        W81463  33.421  32.994   0.315
13123W        W81464  37.557  14.627  14.487
13124W        W81465   5.779   3.279  14.429
13125W        W81466   7.365  34.011   1.772
13126W        W81467  12.213  42.369  12.900
13127W        W81468  37.389  27.672  11.948
13128W        W81469  38.351  27.541   0.750
13129W        W81470  34.582  13.295  11.980
13130W        W81471   6.279  13.172  10.604
13131W        W81472  22.153  18.127  14.812
13132W        W81473  16.093  13.258  12.453
13133W        W81474  26.982  10.826   3.203
13134W        W81475   3.725  16.718   0.819
13135W        W81476  31.533  25.152   0.343
13136W        W81477  18.566   0.980   5.099
13137W        W81478  11.264  16.566  10.551
13138W        W81479  37.027  12.258  11.474
13139W        W81480   1.736  34.388   0.737
13140W        W81481  38.485  12.620  14.445
13141W        W81482  21.627  36.869  10.522
13142W        W81483  22.528  26.482   5.147
13143W        W81484  39.998   6.918   2.302
13144W        W81485  23.098  34.867  11.463
13145W        W81486  19.243  19.221  10.608
13146W        W81487   9.792  18.189   1.246
13147W        W81488  26.639   4.436   0.327
13148W        W81489  19.051  43.952   2.806
13149W        W81490  37.346   6.205   3.729
13150W        W81491  40.855  39.825   2.754
13151W        W81492  26.602  25.964  14.972
13152W        W81493  41.803  28.112   1.836
13153W        W81494  38.456  11.694  14.008
13154W        W81495   8.659   4.430   1.237
13155W        W81496  37.506   3.280   5.223
13156W        W81497   7.194  16.793   3.205
13157W        W81498   0.885  31.045   0.467
13158W        W81499  40.395  37.962  14.796
13159W        W81500   5.712  38.830  12.927
13160W        W81501  32.481  44.288  14.470
13161W        W81502  41.022  19.285  10.996
13162W        W81503  12.798   7.264  13.791
13163W        W81504  28.652  33.014   3.688
13164W        W81505   3.337   5.812  14.772
13165W        W81506   4.805  32.040   3.275
13166W        W81507  27.130  28.978   0.478
13167W        W81508  39.847   7.350   3.345
13168W        W81509  30.456  20.569   3.288
13169W        W81510  32.898  16.216   3.333
13170W        W81511  42.473  14.103  11.975
13171W        W81512  10.139  35.436  12.096
13172W        W81513  20.645  22.006  14.834
13173W        W81514  39.996  40.384   3.719
13174W        W81515  43.946  27.142   1.327
13175W        W81516  21.181   8.748  14.503
13176W        W81517  40.799  13.797  12.512
13177W        W81518  26.180  42.794  10.907
13178W        W81519  16.775   2.864  14.372
13179W        W81520  42.461  10.693   3.832
13180W        W81521   2.747   3.329  10.916
13181W        W81522  16.805  35.596  11.878
13182W        W81523  22.011  28.530   0.261
13183W        W81524  37.990  36.563   4.609
13184W        W81525  41.323  24.176   1.391
13185W        W81526  31.959  15.610  13.413
13186W        W81527  20.229  13.652  10.523
13187W        W81528  31.453  42.458   3.199
13188W        W81529  24.694  34.035  10.429
13189W        W81530  30.081  12.612  11.522
13190W        W81531  38.010  41.989  12.352
13191W        W81532  40.456   1.410   1.329
13192W        W81533  25.143  34.909   4.241
13193W        W81534  22.146  20.143   2.353
13194W        W81535  10.844  20.240  11.487
13195W        W81536   5.362  16.785  12.574
13196W        W81537  39.362   9.884  12.562
13197W        W81538  10.802   6.719   3.256
13198W        W81539  23.047  30.512  14.338
13199W        W81540  30.548  30.503  13.900
13200W        W81541  24.069   8.777  14.403
13201W        W81542  21.653  24.695  13.004
13202W        W81543  21.638  25.508   0.907
13203W        W81544  26.470  14.652  13.534
13204W        W81545   0.249  31.899   0.915
13205W        W81546  18.767  10.337  11.956
13206W        W81547  28.142  23.151  10.903
13207W        W81548  20.086  17.738   0.760
13208W        W81549  25.639   8.839   2.334
13209W        W81550  30.979  26.147  12.945
13210W        W81551  40.539  18.264  14.349
13211W        W81552  22.591  23.499   9.939
13212W        W81553  25.158  24.017   1.706
13213W        W81554  27.949  23.734   2.686
13214W        W81555  34.100  31.499   4.242
13215W        W81556   0.423   9.273  11.395
13216W        W81557  37.577  23.055  10.568
13217W        W81558   8.314  30.008  13.505
13218W        W81559  18.557  41.372  12.571
13219W        W81560  42.387  38.044   4.159
13220W        W81561  17.215  12.314  11.978
13221W        W81562  40.993   3.906  12.047
13222W        W81563   3.288  14.659   0.828
13223W        W81564  24.552  36.976   2.782
13224W        W81565  22.039  15.591  12.495
13225W        W81566  34.563  30.038  13.376
13226W        W81567  33.052  14.764  14.427
13227W        W81568  18.051   7.747   3.679
13228W        W81569  23.033   3.346  11.916
13229W        W81570   8.749  11.348  11.608
13230W        W81571  36.013  32.106   4.316
13231W        W81572  36.080   8.893   1.419
13232W        W81573  25.562  17.140  13.059
13233W        W81574  40.943  19.101  11.476
13234W        W81575  42.976  41.890  12.831
13235W        W81576   3.786  23.148  13.901
13236W        W81577   3.941  31.429  11.120
13237W        W81578  36.420  30.560   3.156
13238W        W81579  10.355  37.846   3.350
13239W        W81580  30.976  32.929  13.400
13240W        W81581  32.122   8.184   0.297
13241W        W81582  37.405  33.557   4.228
13242W        W81583   2.226  36.385  10.611
13243W        W81584   9.214   7.797  10.481
13244W        W81585  35.520  24.602  13.025
13245W        W81586   0.334  16.721   1.241
13246W        W81587  23.240  34.564   3.686
13247W        W81588  11.680  29.921  10.936
13248W        W81589  24.062  24.098   3.804
13249W        W81590  27.118  32.569   4.618
13250W        W81591  44.473  18.198  11.473
13251W        W81592  34.028  36.431  10.900
13252W        W81593  41.027  14.230  13.348
13253W        W81594  38.819  43.304  14.508
13254W        W81595  19.258  23.660  11.940
13255W        W81596   7.331  10.180  13.370
13256W        W81597   6.211  13.225  12.382
13257W        W81598  10.350   7.231   2.415
13258W        W81599  10.875  30.985   0.394
13259W        W81600  34.875  42.927   4.647
13260W        W81601  18.262  36.527   4.277
13261W        W81602  39.886  17.112   0.918
13262W        W81603  26.575  35.493  11.577
13263W        W81604  29.123   7.193  14.333
13264W        W81605  26.538   9.345   0.364
13265W        W81606  31.502  22.569   0.790
13266W        W81607  16.596   6.198   0.885
13267W        W81608  30.469  43.964   4.780
13268W        W81609  12.805   7.735  10.438
13269W        W81610  42.029   5.253  14.985
13270W        W81611  11.648  38.930   1.230
13271W        W81612   4.874   9.807   1.891
13272W        W81613  42.979   5.290   3.669
13273W        W81614  22.620  30.642  12.438
13274W        W81615  44.375  36.567  12.349
13275W        W81616  37.456   7.299   2.782
13276W        W81617  33.451  10.201  12.020
13277W        W81618  38.377  23.618  11.429
13278W        W81619   3.302  27.134   2.206
13279W        W81620  30.972  13.331  14.301
13280W        W81621  16.574  26.037  12.520
13281W        W81622  43.861   5.732  10.463
13282W        W81623  40.354  19.645  11.566
13283W        W81624  13.266  10.203  14.821
13284W        W81625  22.109  13.202   0.372
13285W        W81626  24.581  28.107  13.504
13286W        W81627  12.147   0.364  11.555
13287W        W81628  42.304  25.597  11.394
13288W        W81629  25.512   2.899  14.827
13289W        W81630  32.595   4.417  13.850
13290W        W81631  17.622  28.094  10.906
13291W        W81632  23.560  23.607  12.017
13292W        W81633  43.479  18.202   4.328
13293W        W81634   7.744  17.559   1.323
13294W        W81635  21.065   9.159   1.835
13295W        W81636   0.431  33.942   0.900
13296W        W81637   0.357  36.065  11.040
13297W        W81638  38.876  25.042   2.382
13298W        W81639  18.050  27.577   0.422
13299W        W81640   2.783  13.783   2.205
13300W        W81641   9.768  14.267   2.816
13301W        W81642  12.836   9.805  13.827
13302W        W81643   5.692  42.987   2.867
13303W        W81644  23.638  33.448   1.841
13304W        W81645   3.809  35.879   3.829
13305W        W81646  28.608  22.183  14.811
13306W        W81647  26.507  11.729  13.384
13307W        W81648  38.918  18.131  12.396
13308W        W81649  28.949  20.705   2.392
13309W        W81650  23.092  37.351  12.981
13310W        W81651  16.698  26.542   0.413
13311W        W81652  21.049  10.360   2.324
13312W        W81653  24.029   3.292  13.872
13313W        W81654  22.083  18.051  12.872
13314W        W81655  20.669  12.666   4.653
13315W        W81656  22.705  27.571   0.804
13316W        W81657  23.709  14.793   4.326
13317W        W81658  24.117  16.224  14.787
13318W        W81659   3.356  28.469   3.291
13319W        W81660   0.972  15.753  10.158
13320W        W81661   4.853  26.059   2.252
13321W        W81662  37.012   5.828   3.192
13322W        W81663  22.696  21.022  14.321
13323W        W81664  44.921  16.785   3.189
13324W        W81665  44.984  11.286  10.915
13325W        W81666   4.775   4.215  11.440
13326W        W81667  43.443   7.359   1.903
13327W        W81668  15.593   9.770   0.452
13328W        W81669   7.192  12.196  13.956
13329W        W81670  32.021  35.413  11.040
13330W        W81671  17.703   0.948   2.781
13331W        W81672  35.918  21.680   3.659
13332W        W81673  27.107   6.387   1.416
13333W        W81674  34.431   8.796   4.628
13334W        W81675  31.632   4.250  10.619
13335W        W81676  35.475   8.762  10.576
13336W        W81677  24.096  35.903   0.425
13337W        W81678  17.263   3.875  13.821
13338W        W81679  27.579  10.171   1.876
13339W        W81680  15.755   0.282  11.117
13340W        W81681  21.553  24.514   4.292
13341W        W81682   7.890  10.699   2.183
13342W        W81683  15.760  22.597  10.595
13343W        W81684  10.766  19.763  14.814
13344W        W81685   2.920  22.037   0.887
13345W        W81686  31.465  20.045   3.870
13346W        W81687  10.349  34.063  11.472
13347W        W81688  33.396  15.604  10.007
13348W        W81689  32.921  38.075  13.451
13349W        W81690  31.979   2.385   0.381
13350W        W81691  18.184  43.439  10.938
13351W        W81692  18.731  35.381   4.285
13352W        W81693  43.499   7.413  12.459
13353W        W81694  39.811   7.225  11.103
13354W        W81695   3.271  27.451   2.722
13355W        W81696  37.864  27.177  14.780
13356W        W81697  16.734  44.408   2.376
13357W        W81698   2.309   2.388  12.859
13358W        W81699  21.756  24.634  13.895
13359W        W81700  33.505  38.043  11.924
13360W        W81701  18.616  40.833   2.323
13361W        W81702   2.294  32.525   3.698
13362W        W81703  12.132  36.407   0.865
13363W        W81704  25.537   2.353  10.969
13364W        W81705  11.366  35.451  14.985
13365W        W81706   5.754   1.891   4.666
13366W        W81707   1.275  30.532  14.874
13367W        W81708  30.491   4.782  11.865
13368W        W81709  27.133  21.580  13.528
13369W        W81710  10.731  17.568  10.633
13370W        W81711  23.494  31.630  12.065
13371W        W81712  42.967  13.313  13.358
13372W        W81713  30.536  16.189  14.318
13373W        W81714  33.489  37.463   1.395
13374W        W81715  29.041  21.131   2.319
13375W        W81716  22.582  27.043   3.359
13376W        W81717  39.512  17.134  12.569
13377W        W81718  43.825  16.251  14.823
13378W        W81719  38.528   7.324  13.513
13379W        W81720  25.676  37.858   0.323
13380W        W81721  11.150  42.330  10.546
13381W        W81722  40.019  17.158  11.109
13382W        W81723  11.247  26.560  14.961
13383W        W81724  22.050  36.440   4.278
13384W        W81725   8.695  34.605   4.649
13385W        W81726  43.901  21.669  11.930
13386W        W81727   5.414  11.145   1.824
13387W        W81728  33.569  42.000   2.372
13388W        W81729   0.407  14.820   3.760
13389W        W81730  21.115  35.501  11.555
13390W        W81731  34.605   7.774  14.030
13391W        W81732   0.321  23.502  11.935
13392W        W81733  39.447  33.453   4.296
13393W        W81734  10.658  42.482   1.419
13394W        W81735   0.314  28.613   3.652
13395W        W81736   7.894  17.128  13.816
13396W        W81737   1.321   3.338   4.598
13397W        W81738  20.082  10.194  13.349
13398W        W81739  14.755  35.583   2.236
13399W        W81740   4.358  39.010   0.285
13400W        W81741  13.256  38.430   9.531
13401W        W81742  39.940  34.960  13.502
13402W        W81743  17.142  19.074  10.540
13403W        W81744  38.447   2.468  10.491
13404W        W81745   8.769  30.918   3.300
13405W        W81746  15.187   3.780   1.323
13406W        W81747  14.168  35.361  13.475
13407W        W81748  15.108  23.211  13.033
13408W        W81749   3.231  33.013   2.343
13409W        W81750   1.791  31.607   2.373
13410W        W81751   1.269  35.024  14.831
13411W        W81752  16.679   2.728   0.318
13412W        W81753   6.880  11.134  13.858
13413W        W81754  30.433  21.615   0.939
13414W        W81755  17.215  11.212  14.445
13415W        W81756  38.853   3.417   4.766
13416W        W81757  24.490  30.656   3.659
13417W        W81758  27.122   5.772  13.345
13418W        W81759  42.781  32.405  12.905
13419W        W81760  14.266  26.529   1.842
13420W        W81761  42.904  16.576  13.386
13421W        W81762   1.816  33.026   4.347
13422W        W81763   0.411  34.942  14.482
13423W        W81764   7.183  42.488  10.422
13424W        W81765  10.748  29.101  14.858
13425W        W81766  17.642  26.977   3.179
13426W        W81767  24.058  17.145   5.160
13427W        W81768  42.980   7.394   4.340
13428W        W81769  24.705  44.809  10.519
13429W        W81770  19.678  38.849   2.747
13430W        W81771  34.581  33.963  14.966
13431W        W81772  40.518  14.217  12.874
13432W        W81773   7.666  17.282  13.408
13433W        W81774   3.233  43.784  12.051
13434W        W81775   9.798  14.730  11.856
13435W        W81776  31.921  31.441  14.952
13436W        W81777  42.001  43.832   0.294
13437W        W81778  35.934  10.382   3.802
13438W        W81779  15.089  19.261  10.928
13439W        W81780  34.480  27.572  11.443
13440W        W81781  37.036  23.552  14.781
13441W        W81782  11.868  22.073  14.412
13442W        W81783  17.294  25.696   1.426
13443W        W81784   6.792  24.721   0.422
13444W        W81785  22.197  42.438  13.985
13445W        W81786  19.068  34.081  11.396
13446W        W81787  18.253   3.458   0.848
13447W        W81788   9.308  19.055   2.402
13448W        W81789  41.297  44.455  14.012
13449W        W81790  15.102  43.425  14.918
13450W        W81791   1.841  19.229   5.100
13451W        W81792  34.109  27.551  12.040
13452W        W81793   2.257  19.182   0.415
13453W        W81794  27.154  29.049   9.990
13454W        W81795  38.511  24.541   2.263
13455W        W81796  13.268  14.776  14.022
13456W        W81797  20.709  32.570   3.367
13457W        W81798   6.279  12.232  13.979
13458W        W81799  24.595   4.393   0.862
13459W        W81800  31.504  15.115  13.409
13460W        W81801  34.931  13.115   2.662
13461W        W81802  20.731  15.279   0.832
13462W        W81803  15.728  33.493  11.997
13463W        W81804  12.313  35.920  14.941
13464W        W81805  24.710  34.369  11.541
13465W        W81806   5.904  29.171  13.820
13466W        W81807  19.056  26.634   2.675
13467W        W81808  17.639  19.541   4.736
13468W        W81809  43.831   6.310   1.895
13469W        W81810   1.451  20.249  10.492
13470W        W81811  27.558  43.288   4.266
13471W        W81812   8.278  30.058  10.543
13472W        W81813   0.850  19.169  12.429
13473W        W81814  19.100  27.007   2.230
13474W        W81815   0.380  18.784  13.987
13475W        W81816  15.276  24.051   2.318
13476W        W81817  29.502  30.556   3.255
13477W        W81818  37.580  17.307   5.119
13478W        W81819  18.699  13.130   1.805
13479W        W81820  28.957   7.833   2.279
13480W        W81821  12.814  21.754   2.384
13481W        W81822  41.978  40.517  11.990
13482W        W81823  30.089  41.934   2.309
13483W        W81824  17.574   5.771   4.266
13484W        W81825   1.975   4.385   1.347
13485W        W81826  22.224   3.716   3.812
13486W        W81827  39.516  29.627   3.352
13487W        W81828  37.358  13.800   3.812
13488W        W81829  36.413   1.832   3.246
13489W        W81830  36.591  30.550  14.314
13490W        W81831   9.754   8.667   1.758
13491W        W81832  19.589  25.005   0.855
13492W        W81833   2.318  15.638   1.359
13493W        W81834  23.637   4.858  12.374
13494W        W81835  39.822   7.840   1.837
13495W        W81836   0.349  27.174   2.379
13496W        W81837  32.895  31.474   4.714
13497W        W81838  10.806  17.736   0.728
13498W        W81839   0.272  23.598  11.377
13499W        W81840  11.839   4.855  10.620
13500W        W81841  32.418  25.495   3.717
13501W        W81842  21.581   0.389  12.096
13502W        W81843   6.237  38.838  11.027
13503W        W81844   8.273  13.142  11.606
13504W        W81845   0.818  16.110   4.177
13505W        W81846  23.213  36.526  13.498
13506W        W81847  31.073   7.842  14.373
13507W        W81848   8.263  31.092  12.972
13508W        W81849   7.683  33.899  13.329
13509W        W81850  37.455  37.417  13.844
13510W        W81851  43.976  32.628   2.360
13511W        W81852   0.471   4.314   0.312
13512W        W81853  36.858   6.695  14.815
13513W        W81854  37.543  12.128  11.572
13514W        W81855  35.858  42.331   0.275
13515W        W81856  41.392  32.956   2.682
13516W        W81857  35.467  29.633  11.571
13517W        W81858   7.667  14.289   3.196
13518W        W81859  25.025  25.632  12.351
13519W        W81860   3.246  10.187  11.440
13520W        W81861  26.675  28.500   4.656
13521W        W81862  16.199  27.020  13.822
13522W        W81863  36.411  44.341   2.816
13523W        W81864  29.578  13.330  14.879
13524W        W81865  31.037  35.952   1.915
13525W        W81866  43.990  18.265  10.409
13526W        W81867  38.388  42.303  11.463
13527W        W81868  16.076  32.074  10.587
13528W        W81869  10.703   7.335  14.378
13529W        W81870  23.203  33.526   2.730
13530W        W81871  25.617  31.536  11.958
13531W        W81872  28.497   2.756  13.035
13532W        W81873  29.620  28.045   1.216
13533W        W81874  29.022   4.894  14.479
13534W        W81875  11.173   9.342  13.872
13535W        W81876   1.838  36.984  12.949
13536W        W81877  25.102  34.462   3.826
13537W        W81878  42.983  40.355  11.930
13538W        W81879  35.507  36.580   3.324
13539W        W81880  11.670  28.526   4.639
13540W        W81881  24.990  42.352   4.744
13541W        W81882  21.619  29.964  10.890
13542W        W81883  44.479  33.590  13.331
13543W        W81884   4.385   5.389   4.115
13544W        W81885   3.936  35.510  12.978
13545W        W81886  35.922  22.163  11.955
13546W        W81887  16.743  19.624   4.670
13547W        W81888  33.619  23.529  14.382
13548W        W81889  18.236  13.167  14.389
13549W        W81890  32.061   9.844  12.883
13550W        W81891  28.132  40.989  13.966
13551W        W81892  24.724   9.279   2.369
13552W        W81893   0.980  30.092  11.553
13553W        W81894  18.278  29.093   4.345
13554W        W81895  27.164  24.531  10.408
13555W        W81896  40.360  32.513   4.800
13556W        W81897   4.814  31.530  12.874
13557W        W81898  10.298  28.058   5.290
13558W        W81899   7.321  36.055  12.089
13559W        W81900  34.964  10.222  14.349
13560W        W81901  42.941  11.145   1.885
13561W        W81902  40.376  13.845   4.636
13562W        W81903  18.551  25.669   0.785
13563W        W81904  42.467  20.055   3.819
13564W        W81905  43.363  25.177  11.536
13565W        W81906  11.179  15.596  11.876
13566W        W81907  31.989  42.439   5.645
13567W        W81908  32.959  37.439   1.700
13568W        W81909  39.437   2.926   1.348
13569W        W81910  29.123  14.830   4.167
13570W        W81911  17.133  16.673   0.418
13571W        W81912  13.118  42.433  13.373
13572W        W81913  30.489  40.363   5.134
13573W        W81914  24.678  19.262   5.208
13574W        W81915  17.612  39.951   2.795
13575W        W81916  21.048   9.196   2.192
13576W        W81917  27.016  41.348   2.877
13577W        W81918   2.940  44.499   1.747
13578W        W81919  10.222  11.194  12.382
13579W        W81920  41.303   5.301  11.450
13580W        W81921  39.836  43.922   1.222
13581W        W81922  35.576   2.862  13.529
13582W        W81923   7.703  40.505   4.246
13583W        W81924  11.853  36.523   2.834
13584W        W81925  11.187  12.784   4.149
13585W        W81926  14.338  29.926  11.913
13586W        W81927  34.914  12.357   0.459
13587W        W81928  26.099  25.523   0.242
13588W        W81929  24.066  10.819   4.267
13589W        W81930  36.873  13.722   4.730
13590W        W81931  38.914  43.993  12.942
13591W        W81932   2.352  26.498  12.930
13592W        W81933  44.778  34.975  14.344
13593W        W81934   7.841   5.375  11.598
13594W        W81935   3.943   0.920   1.277
13595W        W81936   7.741  10.804   3.704
13596W        W81937  11.626  31.645   2.392
13597W        W81938  28.959  44.868  12.578
13598W        W81939  35.965  10.831   4.742
13599W        W81940  35.056  40.018  11.054
13600W        W81941  30.985  17.779  13.020
13601W        W81942  12.642  10.194   2.773
13602W        W81943  43.479  42.447   4.149
13603W        W81944  31.601  14.094   4.171
13604W        W81945  39.884  44.338   3.751
13605W        W81946  29.480   3.891  12.533
13606W        W81947  28.995  21.030  11.015
13607W        W81948   4.699  38.431  14.436
13608W        W81949  36.988  40.451   2.180
13609W        W81950  13.718   8.894   2.224
13610W        W81951  32.008   2.791   2.750
13611W        W81952  18.181  13.715  14.946
13612W        W81953  26.057  13.254   2.781
13613W        W81954   1.353  10.863  10.602
13614W        W81955   2.256   9.794  14.515
13615W        W81956  12.189   9.726  10.550
13616W        W81957  23.687  32.968   4.273
13617W        W81958   7.365  38.931  13.396
13618W        W81959  13.329   7.910   3.304
13619W        W81960  15.747  16.132  10.562
13620W        W81961  16.182  35.998  11.469
13621W        W81962  44.973  31.115  13.354
13622W        W81963  24.537  31.524  14.477
13623W        W81964  39.061   4.938  12.419
13624W        W81965  34.879   3.406  13.922
13625W        W81966  42.001  35.416  11.984
13626W        W81967  42.961   2.724  12.448
13627W        W81968  44.457  31.405  12.351
13628W        W81969  43.456  37.868  10.471
13629W        W81970  35.587  33.120  11.079
13630W        W81971  37.867  20.243   1.302
13631W        W81972   4.380  12.648  14.282
13632W        W81973   2.269  39.896   0.425
13633W        W81974  27.591  18.094  12.078
13634W        W81975  18.780  14.646   4.662
13635W        W81976  19.660  39.856   3.863
13636W        W81977  17.592  11.803   1.716
13637W        W81978  41.341  22.043  13.428
13638W        W81979   0.316   8.882   1.887
13639W        W81980  42.971  33.498  13.859
13640W        W81981  18.103  17.132   0.832
13641W        W81982  15.257  31.417  14.415
13642W        W81983  16.700  34.402   4.134
13643W        W81984  34.451  19.136  12.890
13644W        W81985  37.076  18.776   3.312
13645W        W81986  15.250  10.845  11.558
13646W        W81987  12.127  25.541   4.717
13647W        W81988  36.997  36.891  10.970
13648W        W81989  13.604  37.037   4.338
13649W        W81990  31.080   2.829   4.232
13650W        W81991   9.259   8.725  12.936
13651W        W81992  30.459  40.486   0.933
13652W        W81993  25.470   9.232   3.259
13653W        W81994   3.428  23.044   3.335
13654W        W81995  13.737  37.571   4.222
13655W        W81996  38.427  26.651  10.439
13656W        W81997   8.294   0.779   2.216
13657W        W81998  37.851   4.937   1.911
13658W        W81999  24.154  18.594   4.602
13659W        W82000  44.387  37.020  12.025
13660W        W82001  28.672  14.148  12.369
13661W        W82002  14.146  22.997   1.257
13662W        W82003   3.754  11.251   0.427
13663W        W82004  32.039  22.530   2.291
13664W        W82005   4.387  16.162  11.428
13665W        W82006  10.856  44.266  11.026
13666W        W82007   6.423  36.360   2.752
13667W        W82008  44.949  37.994   0.843
13668W        W82009  20.647  43.900   1.875
13669W        W82010   7.242   7.364  14.786
13670W        W82011  32.959  40.869  13.819
13671W        W82012  24.173  32.984   3.845
13672W        W82013  18.586  42.877   3.684
13673W        W82014  11.242  23.589   2.778
13674W        W82015  15.821  35.374   4.721
13675W        W82016   7.749   0.985   3.729
13676W        W82017  38.571  31.522   1.928
13677W        W82018  42.026   4.254  11.113
13678W        W82019  17.668  31.034  13.376
13679W        W82020  13.342  17.724  12.406
13680W        W82021  22.594  18.600   0.431
13681W        W82022  27.945  32.540   1.267
13682W        W82023  40.324  11.735   3.755
13683W        W82024  30.013   6.406   2.267
13684W        W82025   1.295  44.441  10.062
13685W        W82026   0.920  19.229   0.384
13686W        W82027  38.515   1.325  13.931
13687W        W82028  10.645  44.401   1.892
13688W        W82029  43.330   7.248   4.295
13689W        W82030  32.460  10.184  11.859
13690W        W82031  15.611   6.894  10.929
13691W        W82032  11.626  10.317   4.795
13692W        W82033  44.925  42.477   4.231
13693W        W82034  10.313  42.415  12.913
13694W        W82035  10.804  14.146  13.998
13695W        W82036  21.108   3.954   1.433
13696W        W82037  22.008  44.934  11.101
13697W        W82038  36.084   3.828   1.350
13698W        W82039  19.636   1.772  11.503
13699W        W82040  31.528   1.474  10.452
13700W        W82041   9.662  31.070   3.237
13701W        W82042   6.186  41.380   2.705
13702W        W82043  31.610  11.320  13.792
13703W        W82044  30.147  32.504   2.742
13704W        W82045  29.639  36.050   3.657
13705W        W82046  30.129  14.663   3.630
13706W        W82047  18.664   4.899   0.265
13707W        W82048  21.229   9.697  13.929
13708W        W82049  33.049   7.835   1.882
13709W        W82050  12.828  22.649  13.872
13710W        W82051  44.898  22.725  12.908
13711W        W82052   7.220   6.314  10.405
13712W        W82053  39.515  16.243  12.882
13713W        W82054  22.095   7.223   4.823
13714W        W82055   8.376   7.881  12.854
13715W        W82056   4.437  36.387  14.817
13716W        W82057   6.798   0.360  11.381
13717W        W82058  11.700   0.975  10.553
13718W        W82059  38.925  44.400   2.723
13719W        W82060  26.532   7.325  14.380
13720W        W82061   5.929  11.779  14.924
13721W        W82062   7.821   8.802   5.169
13722W        W82063  42.392  19.157   9.936
13723W        W82064  27.049  27.685  14.888
13724W        W82065  24.481  44.005   3.325
13725W        W82066  28.549   5.386   0.286
13726W        W82067   8.321  37.406   2.675
13727W        W82068  17.674   2.414   4.739
13728W        W82069  39.001   3.876  14.788
13729W        W82070  40.884  13.127  12.462
13730W        W82071  40.369   6.741  14.357
13731W        W82072  37.387   4.443   1.310
13732W        W82073  36.055  35.888   1.320
13733W        W82074  33.588  17.117  14.933
13734W        W82075  30.587  14.736   2.377
13735W        W82076  44.327  31.911  13.971
13736W        W82077  13.333  26.162  14.390
13737W        W82078  43.995  28.963   0.761
13738W        W82079  15.658  21.545  14.366
13739W        W82080  41.425   7.873   4.328
13740W        W82081  12.304   4.722   2.247
13741W        W82082  34.533   1.296   2.669
13742W        W82083   8.809   1.797  14.285
13743W        W82084  30.577  38.405  12.079
13744W        W82085   7.321  20.047   2.783
13745W        W82086  34.907  15.685  13.980
13746W        W82087  35.482  29.665  12.519
13747W        W82088   3.815  36.916   2.686
13748W        W82089  42.863  30.027   3.317
13749W        W82090  34.997  35.034  10.951
13750W        W82091  44.352   2.882  12.385
13751W        W82092   8.717   2.322   1.450
13752W        W82093  23.127   1.925   1.789
13753W        W82094  32.629  34.085   2.890
13754W        W82095   4.761  27.038  14.999
13755W        W82096   9.280   0.800  14.909
13756W        W82097  10.360  28.030   3.177
13757W        W82098   7.186   1.747   2.720
13758W        W82099  44.969  42.463   0.277
13759W        W82100  21.682  16.114  11.443
13760W        W82101  18.094   3.221   3.336
13761W        W82102  36.934  20.177   2.305
13762W        W82103  30.426  25.216  12.961
13763W        W82104   1.261  29.446   2.773
13764W        W82105  29.557   5.748   1.369
13765W        W82106  39.941  18.274   4.811
13766W        W82107  44.283  24.044   1.260
13767W        W82108   4.410   1.961   3.699
13768W        W82109   7.846   9.706   1.382
13769W        W82110  37.446  41.474  13.967
13770W        W82111   6.903  18.059   3.204
13771W        W82112  16.232  15.647  14.410
13772W        W82113   7.745  11.704   3.847
13773W        W82114  26.459  44.992  14.921
13774W        W82115  27.623  28.063  13.008
13775W        W82116  34.984  31.977  14.335
13776W        W82117  19.140   6.825   0.783
13777W        W82118   3.863  27.135  11.071
13778W        W82119   0.783  11.338  14.338
13779W        W82120  32.110  40.474  11.885
13780W        W82121  35.029  20.068  11.481
13781W        W82122  12.841   8.694  10.989
13782W        W82123   3.216   1.306   4.126
13783W        W82124  11.819  27.190   0.400
13784W        W82125   8.302  43.491   1.271
13785W        W82126  12.117   9.878  13.005
13786W        W82127  39.944  28.532   4.171
13787W        W82128  22.642  32.551   0.287
13788W        W82129  30.457  15.148   3.815
13789W        W82130   1.854   9.850   1.835
13790W        W82131   1.765  27.186   0.941
13791W        W82132   0.944   2.462  11.455
13792W        W82133  15.706  26.172   3.146
13793W        W82134  22.699   8.779   4.194
13794W        W82135   8.357  24.658   2.325
13795W        W82136   6.694  32.118  14.479
13796W        W82137   5.398  32.021   2.823
13797W        W82138  42.996  38.511  13.334
13798W        W82139   2.408  13.242   3.695
13799W        W82140  37.480   5.366   4.250
13800W        W82141   6.880  26.160   1.312
13801W        W82142  24.714  12.845   3.677
13802W        W82143  43.446  32.087  10.568
13803W        W82144  29.979  21.129  10.639
13804W        W82145  33.515  10.748   0.806
13805W        W82146  15.795   8.390   2.255
13806W        W82147   1.278  43.793   4.288
13807W        W82148   4.829   8.404   1.789
13808W        W82149   5.771  13.233   4.702
13809W        W82150  18.724  43.802   3.275
13810W        W82151  12.256  33.513  11.880
13811W        W82152  23.208   8.768  13.331
13812W        W82153  40.811  33.919  12.418
13813W        W82154   5.244   5.227  13.400
13814W        W82155  14.262  19.141  11.871
13815W        W82156  22.148  27.452  13.875
13816W        W82157   5.328  19.140   2.194
13817W        W82158  25.469  35.901   4.160
13818W        W82159  23.538  19.544   0.762
13819W        W82160   3.930  36.500  14.438
13820W        W82161  18.699  32.565  14.910
13821W        W82162  17.678   9.185   2.182
13822W        W82163  30.987  22.140  13.512
13823W        W82164  33.062  23.558  13.983
13824W        W82165  22.127  24.098  13.957
13825W        W82166  11.174  13.615  14.974
13826W        W82167   0.340  18.665   3.861
13827W        W82168  12.693  23.989   0.481
13828W        W82169  30.538  10.307   1.359
13829W        W82170   2.809  41.956   3.752
13830W        W82171  37.006  28.665   2.221
13831W        W82172  42.929  43.994  11.520
13832W        W82173  31.474  32.995   4.257
13833W        W82174   2.400  34.887   1.333
13834W        W82175  41.352  19.568  12.427
13835W        W82176  17.764  41.388  14.351
13836W        W82177   9.756  35.514   3.681
13837W        W82178  14.612  23.984   0.327
13838W        W82179  35.385  39.338   0.827
13839W        W82180  13.656  19.144  12.407
13840W        W82181  11.837  42.450   3.664
13841W        W82182   3.300  10.265  13.879
13842W        W82183   6.359  26.191  14.891
13843W        W82184  15.752   2.785   2.212
13844W        W82185   2.811  35.064   0.253
13845W        W82186   4.227  43.836   2.810
13846W        W82187  43.021   2.746   4.225
13847W        W82188  16.707  43.833  13.496
13848W        W82189  21.026   2.929  13.338
13849W        W82190   2.782  40.037   2.190
13850W        W82191  23.211   4.778   1.291
13851W        W82192  20.660  35.517   2.900
13852W        W82193  22.036   4.823  11.034
13853W        W82194  40.451  31.913   1.797
13854W        W82195  29.921  10.802   0.821
13855W        W82196  43.357   5.720  11.892
13856W        W82197  40.939  18.614   2.378
13857W        W82198   7.341  20.666   3.202
13858W        W82199  30.415   5.753  13.307
13859W        W82200   8.744  35.363  11.880
13860W        W82201   9.855  30.515  12.560
13861W        W82202   2.303  39.350  10.534
13862W        W82203  21.609   7.343   2.873
13863W        W82204  37.529  13.329   2.897
13864W        W82205  42.451  37.553   3.174
13865W        W82206  15.586  35.407   0.773
13866W        W82207   4.859  23.549  11.455
13867W        W82208   1.759  29.517  14.018
13868W        W82209  18.709   2.399   3.826
13869W        W82210  24.621  31.594   1.276
13870W        W82211  40.797  43.960  11.499
13871W        W82212  23.710  21.568  13.531
13872W        W82213  18.181  22.717  10.538
13873W        W82214  13.255  38.070  11.495
13874W        W82215  34.875  19.766   4.244
13875W        W82216  11.282  26.085  11.596
13876W        W82217  15.592  19.575  13.540
13877W        W82218  10.291   9.238  12.409
13878W        W82219  36.879  15.598   0.772
13879W        W82220  36.077  43.275  11.380
13880W        W82221   1.744  15.689  14.776
13881W        W82222   0.435  33.484   2.330
13882W        W82223  10.637   4.304   1.400
13883W        W82224  13.302  21.028  10.590
13884W        W82225  43.830   0.368  11.880
13885W        W82226  31.499  36.486  12.926
13886W        W82227  12.247  16.719   1.901
13887W        W82228  27.689  24.631  12.913
13888W        W82229  14.781  34.526  11.467
13889W        W82230  27.953  32.450   0.324
13890W        W82231  14.834   4.780  12.566
13891W        W82232  40.389  15.110   3.693
13892W        W82233  42.943   6.396  14.408
13893W        W82234  17.623  44.953   2.777
13894W        W82235  28.655  16.580   2.296
13895W        W82236  10.729  13.145   0.965
13896W        W82237  35.492  12.696  12.578
13897W        W82238   0.819  26.985   0.899
13898W        W82239  19.266  36.946   0.249
13899W        W82240   7.293  35.039  11.450
13900W        W82241  38.353  41.961  11.915
13901W        W82242  25.019   2.316   3.786
13902W        W82243  22.647   9.809  14.780
13903W        W82244   2.852  27.633  11.054
13904W        W82245  18.054  40.427  12.985
13905W        W82246  13.124  19.145  13.328
13906W        W82247   3.932  40.322   1.278
13907W        W82248  40.952  17.075   2.882
13908W        W82249  30.564  13.135  11.975
13909W        W82250  11.211  27.141   3.255
13910W        W82251  35.567  19.092   1.724
13911W        W82252   0.883  38.872  12.468
13912W        W82253  37.558  39.325  11.090
13913W        W82254   3.442  20.090  11.518
13914W        W82255  24.703  29.656  10.422
13915W        W82256  23.002  17.157  11.876
13916W        W82257  21.236  31.615   1.377
13917W        W82258   2.913   5.221   4.300
13918W        W82259  14.132  15.204  12.363
13919W        W82260  11.841   6.753   0.439
13920W        W82261  33.439  40.995   1.892
13921W        W82262  41.301  17.303   0.846
13922W        W82263  22.551  39.984  10.464
13923W        W82264  35.902  22.194   4.786
13924W        W82265  30.615  26.094   9.986
13925W        W82266   2.835  14.313  10.488
13926W        W82267  12.724  26.514  10.420
13927W        W82268  36.028  36.369  12.999
13928W        W82269  39.966  42.930  11.610
13929W        W82270  43.349  11.213   0.862
13930W        W82271   6.874  19.618  13.545
13931W        W82272  21.087   8.286  10.967
13932W        W82273  30.477  21.050  10.073
13933W        W82274  13.762   6.349   4.265
13934W        W82275   9.246  43.340   0.887
13935W        W82276  15.279  18.226   2.195
13936W        W82277  24.622  44.471   3.213
13937W        W82278  23.633  18.580  10.097
13938W        W82279  44.994  30.004   2.264
13939W        W82280   3.837  11.276   3.822
13940W        W82281  25.557  40.900  13.399
13941W        W82282  22.501  17.744  11.042
13942W        W82283  36.976  27.561  12.372
13943W        W82284  26.011  22.145  13.949
13944W        W82285   9.287  10.160  14.469
13945W        W82286  30.539  16.627  14.993
13946W        W82287   9.196   3.374   0.854
13947W        W82288   0.882   5.299  10.467
13948W        W82289  20.705   7.703   2.722
13949W        W82290  41.956  32.572  14.832
13950W        W82291   8.739   5.863  12.433
13951W        W82292  17.686  40.830  12.418
13952W        W82293  41.959  32.512   2.662
13953W        W82294  26.664  22.593   3.262
13954W        W82295   8.231  39.376  13.519
13955W        W82296  21.161  23.495   5.213
13956W        W82297   1.340  39.927  14.893
13957W        W82298  29.658  37.923   3.735
13958W        W82299  36.859  19.201   4.349
13959W        W82300  18.664  34.507   4.127
13960W        W82301  40.329   6.718   0.342
13961W        W82302  28.182  11.734  12.874
13962W        W82303  17.731  18.557  12.908
13963W        W82304  40.362   5.749  12.426
13964W        W82305  37.068  20.696  12.953
13965W        W82306  31.952   5.296  14.355
13966W        W82307  29.050  31.089  12.576
13967W        W82308   9.298  42.509  14.809
13968W        W82309  21.623  23.574  13.835
13969W        W82310  26.999  44.406   0.253
13970W        W82311  17.104  32.466  14.508
13971W        W82312  27.958  35.994   3.323
13972W        W82313  29.995  42.343  13.442
13973W        W82314  35.359  10.239  11.055
13974W        W82315  16.614  17.713   0.420
13975W        W82316   2.895   5.242   3.166
13976W        W82317  20.108  40.337  13.054
13977W        W82318  39.426  27.166   4.661
13978W        W82319  39.362   7.769  10.541
13979W        W82320  31.420  39.980  14.457
13980W        W82321  43.766   8.168   2.748
13981W        W82322  36.549  43.835   4.623
13982W        W82323  27.551   7.793  11.609
13983W        W82324  27.088  24.179   9.991
13984W        W82325  43.477  34.034  14.913
13985W        W82326  13.740  22.591  10.918
13986W        W82327  10.280   2.898   2.716
13987W        W82328  31.427  25.107   1.933
13988W        W82329  13.844  31.427   1.785
13989W        W82330  23.080  16.228   1.368
13990W        W82331   6.894   2.271  12.343
13991W        W82332  38.067  27.528  14.011
13992W        W82333  13.766  34.060   1.812
13993W        W82334  23.052   3.270   0.770
13994W        W82335  19.543   3.810   3.697
13995W        W82336   5.713   7.251   2.835
13996W        W82337  42.992  26.532   1.708
13997W        W82338  42.981  19.283  13.310
13998W        W82339   3.261  38.829   2.276
13999W        W82340  14.275  24.542   1.793
14000W        W82341  15.735  17.259   4.226
14001W        W82342  15.818   0.854   4.690
14002W        W82343   8.665  38.921  11.421
14003W        W82344  41.034  43.871   3.652
14004W        W82345  29.662  29.571  14.298
14005W        W82346  22.622  18.067   3.850
14006W        W82347   4.780  32.930   3.313
14007W        W82348  20.050  15.238   2.826
14008W        W82349  25.126   7.269   0.274
14009W        W82350  20.588  25.987  12.484
14010W        W82351   7.193  15.725  13.458
14011W        W82352  31.556  41.402  10.026
14012W        W82353  18.165  37.467  14.415
14013W        W82354   8.708   6.900   1.450
14014W        W82355  11.864  12.283   4.200
14015W        W82356  25.483  40.471   3.709
14016W        W82357  38.054  12.666   1.918
14017W        W82358  13.828  42.845  12.490
14018W        W82359  39.519   1.852   3.236
14019W        W82360  32.550  15.677   2.901
14020W        W82361  18.728  39.876   3.249
14021W        W82362  32.901   5.766  11.903
14022W        W82363   8.826  35.580  14.470
14023W        W82364  27.976   8.212   3.293
14024W        W82365  23.505  27.451   4.722
14025W        W82366  38.006  43.383   3.691
14026W        W82367  24.500  32.943   0.345
14027W        W82368  15.722  26.137  12.885
14028W        W82369  31.519   3.843   3.168
14029W        W82370  20.764   5.756   0.339
14030W        W82371   3.956  14.139  12.576
14031W        W82372  15.806  37.954  13.870
14032W        W82373  41.995   9.161  14.991
14033W        W82374  33.566   2.964   2.188
14034W        W82375  39.853  38.439   0.365
14035W        W82376  10.846  32.954  13.356
14036W        W82377  18.651  44.384   1.744
14037W        W82378  24.481  39.975  14.300
14038W        W82379  13.709   6.921  11.595
14039W        W82380  33.998   6.304   2.280
14040W        W82381   2.904  14.654  12.941
14041W        W82382   0.426   2.255   1.790
14042W        W82383  38.837   2.463   0.456
14043W        W82384  29.102   1.871   3.657
14044W        W82385  11.223  13.128  14.838
14045W        W82386  21.049  34.551   0.856
14046W        W82387  25.499  29.027   3.821
14047W        W82388  43.321  13.158   2.208
14048W        W82389  24.055  33.940   2.404
14049W        W82390   9.723  17.786  10.641
14050W        W82391  23.132   1.358   0.420
14051W        W82392  12.353  43.800   3.868
14052W        W82393  27.576   5.288   3.755
14053W        W82394  29.976  12.133  13.877
14054W        W82395  40.951  42.400  10.105
14055W        W82396  13.614  20.061  14.924
14056W        W82397  42.877  26.529  13.310
14057W        W82398   0.367   7.252   3.633
14058W        W82399  43.852  20.129  13.939
14059W        W82400  39.933  20.553   1.889
14060W        W82401   6.277  27.481   4.118
14061W        W82402  14.127  42.319   4.835
14062W        W82403  16.132  14.672   3.825
14063W        W82404  17.592  21.086   5.240
14064W        W82405  16.586  11.208  13.376
14065W        W82406   9.716   1.371   3.846
14066W        W82407  17.588  35.099  10.618
14067W        W82408  27.000  35.566  11.967
14068W        W82409  38.036   5.394   1.305
14069W        W82410  15.594  32.070  11.925
14070W        W82411  30.085  25.169   1.366
14071W        W82412   3.286   1.400  14.863
14072W        W82413  21.629  39.910  12.863
14073W        W82414  17.723  17.685  14.476
14074W        W82415   3.381  35.102   0.426
14075W        W82416   9.751  42.870  12.406
14076W        W82417   3.387  18.589   5.623
14077W        W82418  41.399  33.901   4.165
14078W        W82419  10.783   9.650  12.001
14079W        W82420  29.930  44.858  12.847
14080W        W82421  18.106  23.529   5.100
14081W        W82422  43.371  27.680   2.314
14082W        W82423  42.321  20.713  14.417
14083W        W82424  27.957  43.293   2.229
14084W        W82425  41.920  18.724   3.291
14085W        W82426  15.609  16.764  12.515
14086W        W82427  26.700  18.226  11.927
14087W        W82428  34.591   3.866   4.184
14088W        W82429  20.193  41.960   4.638
14089W        W82430   8.286   9.168   4.749
14090W        W82431  29.626  25.163   0.330
14091W        W82432  32.907   4.882   3.262
14092W        W82433  32.059  22.691  10.471
14093W        W82434  27.552  18.078  12.522
14094W        W82435  40.824   6.311   4.656
14095W        W82436   3.863  34.399  11.511
14096W        W82437  34.030  32.429  12.994
14097W        W82438  21.165   1.254   4.802
14098W        W82439  41.534  35.062   5.144
14099W        W82440  12.253   0.785   4.835
14100W        W82441  28.961  28.992  12.059
14101W        W82442  23.988  42.515   0.817
14102W        W82443  42.783   9.353  11.432
14103W        W82444  22.043  16.304   2.717
14104W        W82445  34.413   2.310  11.962
14105W        W82446  21.659   0.477   3.326
14106W        W82447  21.058  11.703  12.350
14107W        W82448   8.744   8.835  12.443
14108W        W82449  15.233  23.110   9.600
14109W        W82450   2.366  43.354   1.787
14110W        W82451  41.994  13.159   1.911
14111W        W82452   6.285  16.106  13.548
14112W        W82453  11.728  18.253   1.897
14113W        W82454   9.853   0.421  11.973
14114W        W82455  41.786  31.085  13.983
14115W        W82456  30.040  13.621  12.456
14116W        W82457  34.405  41.966  12.535
14117W        W82458  25.616   9.764  11.573
14118W        W82459  41.903  26.484   0.358
14119W        W82460  21.024  13.164   0.934
14120W        W82461  16.621   0.349   4.231
14121W        W82462  30.478  20.229   3.637
14122W        W82463  39.524   5.241   1.738
14123W        W82464  30.454   1.764  11.444
14124W        W82465  18.624  12.814  12.910
14125W        W82466  40.906  41.311  12.840
14126W        W82467  27.611   1.477   3.245
14127W        W82468  19.539  11.864  13.307
14128W        W82469  18.669  39.424  11.861
14129W        W82470  39.444  15.684   1.248
14130W        W82471  17.675   3.279   5.213
14131W        W82472   5.736  42.896  10.448
14132W        W82473  30.476   5.240  14.945
14133W        W82474  26.608  16.294  14.823
14134W        W82475  31.453  44.755   0.957
14135W        W82476  10.220   8.848  13.339
14136W        W82477   1.913  28.981  14.848
14137W        W82478  25.639  16.311  10.440
14138W        W82479  33.944  23.691  12.933
14139W        W82480  36.878  29.635   3.259
14140W        W82481  37.938  29.963   4.687
14141W        W82482   2.295   5.867  10.548
14142W        W82483  21.529  28.993   5.221
14143W        W82484   0.347  24.178   3.714
14144W        W82485  34.946   9.336   3.151
14145W        W82486  10.790  17.614  12.930
14146W        W82487  36.419  29.065   2.672
14147W        W82488   6.238  16.769   2.337
14148W        W82489   7.373  22.133  10.627
14149W        W82490  29.127  26.519   3.353
14150W        W82491  35.889   1.277   3.844
14151W        W82492  36.578  41.947  12.837
14152W        W82493   9.853   8.398  13.945
14153W        W82494  19.129  28.443  13.421
14154W        W82495  43.842  21.628   0.417
14155W        W82496   5.870  15.266  13.834
14156W        W82497  18.291  20.653  13.825
14157W        W82498  18.659  31.535   0.308
14158W        W82499  10.829  38.002   3.310
14159W        W82500   7.882  35.586   2.214
14160W        W82501  36.966  40.853   3.655
14161W        W82502  34.100  10.375  11.426
14162W        W82503  19.753  13.178   2.897
14163W        W82504   2.915  34.543   3.368
14164W        W82505  42.984  28.011   1.727
14165W        W82506   4.389  28.499  12.048
14166W        W82507   3.228  16.261  14.482
14167W        W82508  33.993  33.884   2.857
14168W        W82509   8.257  34.453  12.558
14169W        W82510  17.296   9.737  12.959
14170W        W82511   3.855  21.626  13.333
14171W        W82512  27.632  13.696   4.210
14172W        W82513  22.663  30.536  14.403
14173W        W82514  30.955   2.249   3.774
14174W        W82515   7.194   8.736  12.564
14175W        W82516  28.951  32.428  10.567
14176W        W82517  25.000  11.164  11.086
14177W        W82518  36.413  44.445  10.985
14178W        W82519  34.877  36.518  12.842
14179W        W82520   4.715  39.531  13.527
14180W        W82521  25.122  13.337   3.299
14181W        W82522  32.574  35.858   1.228
14182W        W82523  40.858  27.505  11.076
14183W        W82524   4.905  13.667  14.004
14184W        W82525   9.786  13.169  13.057
14185W        W82526   1.811  36.871   3.254
14186W        W82527  14.109   2.895   1.819
14187W        W82528  10.369   1.344  11.535
14188W        W82529  42.463  29.571  12.550
14189W        W82530  15.278   8.839   2.195
14190W        W82531   2.785  43.886  13.420
14191W        W82532  30.047  14.199   0.335
14192W        W82533  35.466  35.587   1.933
14193W        W82534  33.897  38.883  13.350
14194W        W82535  43.987  21.126  13.920
14195W        W82536  29.173  20.528   1.791
14196W        W82537   7.243  33.878   4.620
14197W        W82538  26.603  24.593  14.933
14198W        W82539   4.384  41.942  12.451
14199W        W82540  39.052  23.667   9.979
14200W        W82541  15.618  10.174  12.439
14201W        W82542  22.117  26.691   0.962
14202W        W82543  38.022  26.654  12.870
14203W        W82544  19.214   0.271  14.456
14204W        W82545  14.648  27.175  10.925
14205W        W82546   8.344  35.554  10.513
14206W        W82547  36.544  23.157   0.834
14207W        W82548  15.252  25.673   4.712
14208W        W82549  21.574  28.463   3.160
14209W        W82550  35.508   1.375  13.963
14210W        W82551   5.841  13.205   4.194
14211W        W82552   9.888  40.455   1.449
14212W        W82553  40.430  38.021  13.819
14213W        W82554  19.277  43.973   4.738
14214W        W82555  28.585  43.943   4.154
14215W        W82556  36.348   6.858  10.445
14216W        W82557  29.073  44.907  11.933
14217W        W82558  23.023  32.530  10.434
14218W        W82559  16.217   8.834  11.943
14219W        W82560  35.034  25.664  11.037
14220W        W82561  37.849  32.937   2.662
14221W        W82562   4.407   2.814  11.921
14222W        W82563  34.083  27.638   0.469
14223W        W82564  31.963  12.759  10.976
14224W        W82565  21.532  25.583   3.837
14225W        W82566  25.529  30.137   5.183
14226W        W82567   6.688  22.611   1.368
14227W        W82568  33.536   5.419   4.724
14228W        W82569  13.283  38.023   1.713
14229W        W82570   5.909  35.553   0.787
14230W        W82571  33.982  20.701  11.934
14231W        W82572  18.243  28.442  14.018
14232W        W82573  33.029  37.515   0.958
14233W        W82574   2.441   0.743  13.042
14234W        W82575  22.110  38.911  11.934
14235W        W82576  10.740   5.282  11.964
14236W        W82577  23.112  42.524   2.696
14237W        W82578  41.438  34.578   0.298
14238W        W82579  32.982  21.085  13.992
14239W        W82580  17.288  31.634   5.200
14240W        W82581  19.206   4.264   1.356
14241W        W82582  44.310  26.503  12.939
14242W        W82583  41.321   9.155  12.546
14243W        W82584  31.640   4.805   0.848
14244W        W82585  40.828  41.975   9.946
14245W        W82586   0.476  38.009  10.578
14246W        W82587   3.845  12.299  14.843
14247W        W82588  15.630  16.251  11.492
14248W        W82589  40.455  35.415  12.510
14249W        W82590  39.486   9.843  12.034
14250W        W82591   3.334  38.356  14.818
14251W        W82592  26.563  24.173  14.511
14252W        W82593  18.666  15.810   1.708
14253W        W82594  13.787  22.132   0.453
14254W        W82595  20.681  15.669  10.642
14255W        W82596   0.829  12.121   3.300
14256W        W82597  34.937  37.398  13.399
14257W        W82598  33.510  42.880   5.125
14258W        W82599  18.120  14.592  14.877
14259W        W82600  34.088  11.759  14.967
14260W        W82601  20.749  15.700  14.966
14261W        W82602  39.502   5.356  13.533
14262W        W82603  10.188  44.443  10.540
14263W        W82604   6.271  20.084   3.790
14264W        W82605  35.493  41.297  12.371
14265W        W82606  43.438   5.873   1.285
14266W        W82607  22.218  21.161  12.562
14267W        W82608  17.239  37.518   3.347
14268W        W82609  27.092  40.805   2.413
14269W        W82610  23.659  36.461   4.116
14270W        W82611  35.898  37.862   3.215
14271W        W82612  23.230  39.432   1.741
14272W        W82613  43.961   8.822   0.880
14273W        W82614   4.933  41.900  14.505
14274W        W82615  25.145  27.109   9.996
14275W        W82616  17.608   4.285   2.239
14276W        W82617  43.397  14.660  12.474
14277W        W82618  28.163  22.726   2.374
14278W        W82619  22.709   5.831  11.076
14279W        W82620  41.536   4.715  13.371
14280W        W82621  27.188  16.231  11.942
14281W        W82622  32.499  36.479   3.164
14282W        W82623  34.947  42.485   3.676
14283W        W82624   3.835  18.250   5.604
14284W        W82625  40.873   4.828   9.970
14285W        W82626  40.001  39.930  10.921
14286W        W82627  40.412   6.256   3.630
14287W        W82628   4.258  40.313   3.187
14288W        W82629  33.940  35.917  10.927
14289W        W82630  22.657   6.407  11.569
14290W        W82631  12.631  19.113   1.872
14291W        W82632  42.002  21.672  14.878
14292W        W82633   3.327  14.658   4.619
14293W        W82634   3.238  32.104   3.688
14294W        W82635  35.975  34.396  11.594
14295W        W82636   8.726   2.307  13.041
14296W        W82637   8.281  24.090  10.954
14297W        W82638  23.587  16.669   0.436
14298W        W82639  43.301   4.315   4.599
14299W        W82640  19.749  39.040  11.097
14300W        W82641  15.782  36.050   1.931
14301W        W82642  35.472  21.069  11.464
14302W        W82643   1.300   9.281  12.912
14303W        W82644  33.974   0.775  10.610
14304W        W82645   4.754  19.666  13.916
14305W        W82646  41.375  38.044  11.894
14306W        W82647  10.641  38.500  11.401
14307W        W82648   8.883  12.773   0.762
14308W        W82649   9.741  33.526  12.082
14309W        W82650  10.813   6.299  12.965
14310W        W82651  18.580  44.398   0.748
14311W        W82652   7.735  32.463  11.610
14312W        W82653  13.253  36.045   1.838
14313W        W82654  33.486  19.161   0.423
14314W        W82655  40.466  32.535   3.635
14315W        W82656  16.223  19.669   1.850
14316W        W82657  27.555   3.234  13.351
14317W        W82658  18.272   4.808   2.353
14318W        W82659  41.525  43.377   3.207
14319W        W82660  22.600   4.715  10.999
14320W        W82661  27.491  38.821   1.389
14321W        W82662  20.556  21.579   2.818
14322W        W82663  36.554  14.704  14.307
14323W        W82664  37.455  20.217   0.774
14324W        W82665  34.102  29.426   1.327
14325W        W82666  10.650  11.242  14.351
14326W        W82667   0.378  44.471   3.350
14327W        W82668  34.077  40.343  13.984
14328W        W82669   3.884  28.167  12.398
14329W        W82670  33.529  24.979   3.225
14330W        W82671  29.129  37.955   0.415
14331W        W82672   2.395   7.223   4.627
14332W        W82673  24.668  28.568   3.161
14333W        W82674  35.935  28.142  12.363
14334W        W82675  44.821  18.674   4.239
14335W        W82676  29.141   3.393  11.395
14336W        W82677   1.921   8.822   2.227
14337W        W82678  34.492  34.480   0.351
14338W        W82679  16.621  29.043   4.286
14339W        W82680  31.015  36.541   1.309
14340W        W82681  17.113   9.247   9.968
14341W        W82682  22.020  15.136   2.375
14342W        W82683   9.338  10.736  11.464
14343W        W82684  34.530  20.578  14.304
14344W        W82685  40.049  22.017   4.801
14345W        W82686   0.345   8.381   1.314
14346W        W82687  29.094  15.726  12.490
14347W        W82688  37.362  36.063  12.365
14348W        W82689   7.711  22.211   3.757
14349W        W82690  25.589   4.803  12.991
14350W        W82691  34.442   3.244  10.551
14351W        W82692  33.525   2.759   3.266
14352W        W82693  40.015   7.267   1.226
14353W        W82694  25.617   5.823   0.929
14354W        W82695   2.262  15.593   1.694
14355W        W82696  26.014  39.505  11.396
14356W        W82697   7.720  27.465   0.471
14357W        W82698  10.289   2.801  12.011
14358W        W82699   6.851  17.238  11.449
14359W        W82700  20.690  43.814  10.936
14360W        W82701  44.458  43.319  12.472
14361W        W82702   7.870  29.170   0.395
14362W        W82703  21.519  42.369   4.175
14363W        W82704   9.308  16.193   3.256
14364W        W82705  24.679  32.096  11.070
14365W        W82706  44.008  26.091  10.943
14366W        W82707  29.972   9.749   0.407
14367W        W82708  23.997  43.990   1.239
14368W        W82709   0.879  26.545  10.567
14369W        W82710   3.718  31.985  13.915
14370W        W82711   5.195  38.071   1.842
14371W        W82712  37.518  21.673  10.425
14372W        W82713  13.199  32.451   0.254
14373W        W82714  44.327  17.116  11.909
14374W        W82715  11.199   6.302  10.991
14375W        W82716  32.580  39.951  10.976
14376W        W82717   1.754  29.090   4.704
14377W        W82718  40.905   6.747  14.358
14378W        W82719   6.389   2.353  11.036
14379W        W82720  18.161  42.958  12.912
14380W        W82721  29.499  10.341   3.268
14381W        W82722  21.524  27.010  11.475
14382W        W82723  25.177  30.537   0.307
14383W        W82724  22.563  32.971  10.997
14384W        W82725   7.852  29.650  11.506
14385W        W82726  11.783   9.856   4.679
14386W        W82727   5.860  14.719   1.357
14387W        W82728  40.539  19.568  13.919
14388W        W82729  30.105  43.276  14.467
14389W        W82730  22.545   6.749  11.862
14390W        W82731  41.445  43.895  12.459
14391W        W82732  34.576  41.799   4.309
14392W        W82733  43.922   9.856   2.225
14393W        W82734  23.583  43.009  11.047
14394W        W82735  25.091   8.668   4.748
14395W        W82736   2.320  30.542  10.467
14396W        W82737  10.359  37.939  12.577
14397W        W82738   9.319  28.477   2.759
14398W        W82739  15.290  19.276   4.141
14399W        W82740  20.148  44.501  13.346
14400W        W82741   9.350   4.347   0.887
14401W        W82742   7.881  40.303   2.825
14402W        W82743  43.507  11.778  13.807
14403W        W82744  12.201  38.427   9.462
14404W        W82745  12.776  15.617  14.323
14405W        W82746  29.604  41.833  14.995
14406W        W82747  19.702  26.691   4.765
14407W        W82748  22.555  27.567  11.420
14408W        W82749  21.744  14.656   4.805
14409W        W82750  37.002  39.041  13.347
14410W        W82751  20.092  19.130   1.338
14411W        W82752  23.121  34.055  12.965
14412W        W82753  16.751  35.055  11.859
14413W        W82754   0.408  42.425  14.954
14414W        W82755  42.780  26.187   4.748
14415W        W82756   4.794  13.146   2.864
14416W        W82757  39.496   7.820  12.990
14417W        W82758  22.592  11.167   1.788
14418W        W82759  25.478  23.576   2.201
14419W        W82760  36.997  44.314   3.871
14420W        W82761  39.878   0.987   4.678
14421W        W82762  21.076  12.307   3.643
14422W        W82763  38.396  24.148  11.475
14423W        W82764   4.756   6.681  12.485
14424W        W82765  11.658  39.533   4.816
14425W        W82766  10.267  21.018   2.345
14426W        W82767  29.514  13.720  14.503
14427W        W82768   3.724  35.366  11.464
14428W        W82769   2.831  24.150  12.500
14429W        W82770   9.864  38.507  11.497
14430W        W82771   1.336  31.408  14.907
14431W        W82772  41.362   2.828  13.835
14432W        W82773  41.991  39.405  12.562
14433W        W82774  26.560  44.869   2.862
14434W        W82775  35.568  29.547   4.243
14435W        W82776  24.204   3.808   0.874
14436W        W82777  41.534  30.076   4.606
14437W        W82778  29.102  25.507   1.871
14438W        W82779  14.657  39.393  10.132
14439W        W82780   4.818   0.466   4.216
14440W        W82781  43.951  15.618   2.339
14441W        W82782  11.742  18.669   2.806
14442W        W82783  28.029  17.667   9.949
14443W        W82784  21.168  29.453  12.356
14444W        W82785  29.442  22.536   4.795
14445W        W82786   0.414  14.633   4.348
14446W        W82787  19.079  26.975  11.979
14447W        W82788   6.361  16.261  14.947
14448W        W82789   5.691   2.934   1.765
14449W        W82790   8.675  29.097  12.509
14450W        W82791  26.992  20.597   3.307
14451W        W82792   6.411  19.100  10.129
14452W        W82793  29.140  27.635  14.438
14453W        W82794  28.667  39.986  12.891
14454W        W82795   3.229   1.848  11.442
14455W        W82796  40.441  44.949  13.804
14456W        W82797  37.510  36.367   2.238
14457W        W82798  10.169  12.341  10.066
14458W        W82799  16.693   9.764  14.852
14459W        W82800   1.461  20.735   4.338
14460W        W82801  11.658   4.889  13.308
14461W        W82802   8.845  40.903  11.052
14462W        W82803  15.258  15.133   4.238
14463W        W82804  42.413  29.523   1.414
14464W        W82805  24.506  28.493  13.890
14465W        W82806   6.184  27.447   0.878
14466W        W82807   5.688  16.813  14.400
14467W        W82808  35.020   2.744  12.924
14468W        W82809   2.889  22.505  11.446
14469W        W82810  21.216  31.479  14.451
14470W        W82811  23.128  42.936  13.360
14471W        W82812  40.019  44.431   2.286
14472W        W82813  22.585  20.177  11.902
14473W        W82814  17.602   4.932  13.945
14474W        W82815  44.341  19.572  11.949
14475W        W82816  14.166   5.349  12.501
14476W        W82817   9.281  43.475   1.295
14477W        W82818  25.624  36.382  11.884
14478W        W82819  18.233   5.794   3.787
14479W        W82820  26.588   5.234   3.818
14480W        W82821  18.626  18.650   1.814
14481W        W82822  29.662  32.413  14.767
14482W        W82823  19.201  44.462  12.511
14483W        W82824  34.588  16.288  13.512
14484W        W82825  18.753   6.832   0.780
14485W        W82826  32.094  32.570  11.087
14486W        W82827  32.893   1.869   3.167
14487W        W82828  26.071   9.729   1.450
14488W        W82829  26.561  23.987  13.443
14489W        W82830  30.047  10.225  11.052
14490W        W82831  29.024  29.976   2.701
14491W        W82832  39.992  28.003  11.558
14492W        W82833   6.731  22.191  14.934
14493W        W82834  29.575   7.207  10.990
14494W        W82835  24.124  19.234  11.097
14495W        W82836   9.661  26.054   4.798
14496W        W82837  11.348  31.581  13.491
14497W        W82838  31.009  38.338   2.223
14498W        W82839  19.138  13.644  14.468
14499W        W82840  26.167   4.747   4.753
14500W        W82841  29.976  34.503  11.573
14501W        W82842  31.941   9.164   1.884
14502W        W82843  44.911   4.929   1.917
14503W        W82844   5.909   8.785  13.523
14504W        W82845   5.717  36.491  11.966
14505W        W82846  23.531   7.731   4.248
14506W        W82847  34.057  28.663  10.411
14507W        W82848  33.426  27.183   4.662
14508W        W82849  12.221  40.850  14.353
14509W        W82850  14.593  35.425   3.759
14510W        W82851  35.917   1.463  11.105
14511W        W82852   9.264  37.866  12.562
14512W        W82853   7.727   7.395  11.874
14513W        W82854  22.218  26.486   4.155
14514W        W82855  28.119   6.337   0.743
14515W        W82856  36.460  24.981  14.957
14516W        W82857  40.029   8.265   1.398
14517W        W82858  31.141  35.029   4.182
14518W        W82859   6.391  26.045  13.985
14519W        W82860  21.559  38.970   4.777
14520W        W82861  13.140  17.180  12.055
14521W        W82862   1.433  16.202  13.517
14522W        W82863  32.928  39.821   2.826
14523W        W82864  23.606  11.286   4.167
14524W        W82865   2.855  19.751  11.409
14525W        W82866  30.966  22.686   1.768
14526W        W82867  19.210  26.547  12.082
14527W        W82868  16.698  33.480   2.325
14528W        W82869  35.601  42.834  10.593
14529W        W82870  14.799  43.905  11.968
14530W        W82871  35.856   8.293  13.457
14531W        W82872  27.175  26.140   9.630
14532W        W82873   4.407  19.756   1.784
14533W        W82874  36.912  15.206  14.399
14534W        W82875  38.469  35.932   3.858
14535W        W82876  27.504   3.262   4.676
14536W        W82877  36.917  40.935   1.799
14537W        W82878  36.070  33.877   0.784
14538W        W82879   8.898  38.875  12.972
14539W        W82880  23.997  39.969   2.750
14540W        W82881  36.376   8.796   1.229
14541W        W82882  39.846  13.263   2.701
14542W        W82883  31.580   4.235   2.893
14543W        W82884  37.407  12.354  11.036
14544W        W82885  15.154  27.030  10.888
14545W        W82886   2.951   2.934   2.815
14546W        W82887  35.108  16.187  14.935
14547W        W82888  30.908  41.952  14.901
14548W        W82889  21.750  40.488  14.972
14549W        W82890  17.661  24.518   5.239
14550W        W82891  10.161  17.285  12.352
14551W        W82892  40.467  11.166   0.316
14552W        W82893  10.857  35.391  13.504
14553W        W82894  33.959  32.079  11.074
14554W        W82895  33.518   4.235   1.248
14555W        W82896  25.622   5.376   1.264
14556W        W82897  24.156  23.542   2.416
14557W        W82898   9.153  36.954  12.567
14558W        W82899  24.500  22.671   0.421
14559W        W82900  20.205   1.881   3.145
14560W        W82901  16.784  33.435   3.678
14561W        W82902  26.585   5.835  14.279
14562W        W82903  17.612  17.175   4.145
14563W        W82904   9.849  42.963   3.743
14564W        W82905   3.950  10.242  13.453
14565W        W82906  21.744  31.406  10.611
14566W        W82907   2.270  31.032   1.874
14567W        W82908  16.712  36.064  11.490
14568W        W82909  25.055  32.542  14.368
14569W        W82910  27.546  32.923   0.458
14570W        W82911   3.744  22.680   4.733
14571W        W82912  25.189  37.356   3.188
14572W        W82913  25.514   7.221   2.278
14573W        W82914  24.501  22.524  14.879
14574W        W82915  16.201  25.987   0.812
14575W        W82916   2.444  42.429  10.513
14576W        W82917   0.862  18.733   2.761
14577W        W82918   1.766   1.907   4.212
14578W        W82919  40.890   8.801   2.404
14579W        W82920  14.288  24.184   0.749
14580W        W82921   8.211  28.541  14.904
14581W        W82922   1.837  39.501   2.347
14582W        W82923  36.098  37.985  13.448
14583W        W82924  22.137   3.324  11.073
14584W        W82925  16.616  41.537  12.370
14585W        W82926  37.423  26.503   2.785
14586W        W82927  40.445   1.444  11.373
14587W        W82928  14.758  20.615   3.192
14588W        W82929   0.494  12.791  12.060
14589W        W82930  27.572   5.815  13.405
14590W        W82931  20.551  17.221  14.506
14591W        W82932  17.590  10.329   0.434
14592W        W82933   7.705  39.399   3.643
14593W        W82934  13.695  39.007  10.077
14594W        W82935   1.280  43.878   2.708
14595W        W82936  18.077  35.894  14.991
14596W        W82937  28.059   7.851  10.103
14597W        W82938  37.911  22.228   4.729
14598W        W82939  42.960  26.627   4.179
14599W        W82940  29.073   8.786   3.313
14600W        W82941  11.724  29.018  13.988
14601W        W82942   8.224  19.216   0.888
14602W        W82943  21.645  12.306  14.894
14603W        W82944  35.086  43.349  14.942
14604W        W82945  26.961   6.395   0.245
14605W        W82946   1.386  35.475   4.766
14606W        W82947  18.768  12.348  12.016
14607W        W82948  12.293   9.192   2.682
14608W        W82949  14.612  16.706  14.953
14609W        W82950  10.698  36.940  10.640
14610W        W82951  33.453   4.385   3.157
14611W        W82952  37.862   1.862   3.761
14612W        W82953  10.143  39.318  14.871
14613W        W82954  14.131  17.688  14.477
14614W        W82955   7.721  22.519   5.311
14615W        W82956  35.959   5.903   0.946
14616W        W82957  29.114  22.190   4.289
14617W        W82958  24.521  28.993   2.900
14618W        W82959  15.738  33.878  14.493
14619W        W82960  19.137  43.345  14.404
14620W        W82961   1.479  14.163  14.958
14621W        W82962  22.517   3.716   2.876
14622W        W82963   7.701  38.511  13.964
14623W        W82964  19.222   2.244   3.666
14624W        W82965  13.230   4.323   0.784
14625W        W82966  26.179  44.299  12.903
14626W        W82967  30.996  12.293   3.854
14627W        W82968  36.922  41.389   1.387
14628W        W82969  14.166  38.455   5.751
14629W        W82970  44.771  32.998   1.251
14630W        W82971  20.549  33.987  14.971
14631W        W82972  15.271  11.212   3.804
14632W        W82973  30.097  12.207  11.863
14633W        W82974   8.691  32.520  12.458
14634W        W82975   7.178  36.575   1.257
14635W        W82976  10.732  24.205  14.858
14636W        W82977  29.619  38.558   1.827
14637W        W82978  10.354  10.253   9.591
14638W        W82979  36.369   0.838   0.942
14639W        W82980  28.016  32.098  14.896
14640W        W82981  18.615  21.576   9.990
14641W        W82982  43.352   7.712  13.334
14642W        W82983  27.660   4.430   1.237
14643W        W82984  30.496  36.866   0.455
14644W        W82985  25.976  11.641   1.437
14645W        W82986  19.563   3.254  14.307
14646W        W82987  25.197   1.419  10.417
14647W        W82988  33.624  25.712   1.795
14648W        W82989   3.807  34.085   4.835
14649W        W82990  22.036  34.431  13.815
14650W        W82991  22.247  43.886   1.932
14651W        W82992   4.247  23.230  11.889
14652W        W82993  28.619  29.616  12.066
14653W        W82994  20.619  26.163   2.879
14654W        W82995  42.966  32.000   4.674
14655W        W82996   4.753  35.374   2.743
14656W        W82997   6.208   2.723   1.855
14657W        W82998  17.675   0.980   4.297
14658W        W82999  40.803  15.285   0.776
14659W        W83000  20.598  30.042  11.394
14660W        W83001  18.744  34.944  11.127
14661W        W83002  17.723   4.440   0.275
14662W        W83003  22.222  32.566  14.835
14663W        W83004  12.132  23.210   4.689
14664W        W83005   8.178  42.441  12.960
14665W        W83006  18.204   5.847   2.689
14666W        W83007  28.116  21.165   0.806
14667W        W83008   5.428  21.095   3.830
14668W        W83009  33.087   6.694  14.872
14669W        W83010   6.398  17.783  11.417
14670W        W83011  19.085  19.157   1.242
14671W        W83012   0.437  42.478  11.451
14672W        W83013  12.638   8.724  12.396
14673W        W83014  44.471  16.667  11.388
14674W        W83015  18.729  25.490   3.217
14675W        W83016   6.319  26.702  12.074
14676W        W83017  36.847  43.817  14.486
14677W        W83018  24.016  13.756  12.573
14678W        W83019  16.302  11.156   0.934
14679W        W83020  44.458  37.383  12.416
14680W        W83021  42.283  42.396   4.838
14681W        W83022   6.732  25.982  11.420
14682W        W83023   2.472   5.895  14.328
14683W        W83024   7.714  11.695  14.881
14684W        W83025  20.252   6.425  12.404
14685W        W83026   1.902  30.535   3.345
14686W        W83027  35.369  11.793   0.798
14687W        W83028   2.412  28.502   1.820
14688W        W83029  43.764  38.993  11.081
14689W        W83030  31.920  11.790   1.384
14690W        W83031  27.480  38.068  10.562
14691W        W83032  44.922  15.257   2.254
14692W        W83033  17.559  44.284   2.286
14693W        W83034  23.615  30.127  12.410
14694W        W83035  41.790  10.702   4.776
14695W        W83036  33.998  22.209  11.081
14696W        W83037   3.287  18.729   4.285
14697W        W83038  14.827  42.820  14.364
14698W        W83039   0.988   2.377  14.797
14699W        W83040  10.751  35.928   0.839
14700W        W83041  12.131   5.420   0.463
14701W        W83042  23.209  23.567  11.569
14702W        W83043   8.722  29.165   9.925
14703W        W83044   7.257  41.039   4.754
14704W        W83045  41.786  18.751  11.574
14705W        W83046  20.233  32.594   2.376
14706W        W83047   9.354  22.246  13.830
14707W        W83048  42.813  35.573  13.515
14708W        W83049  16.587  21.231  13.993
14709W        W83050  21.738   7.853   1.417
14710W        W83051  33.099  29.650  11.076
14711W        W83052  43.277  42.819  13.388
14712W        W83053  21.129  40.920   2.386
14713W        W83054  19.717  31.007  14.001
14714W        W83055  17.686  28.152   4.782
14715W        W83056  30.449  25.523   1.817
14716W        W83057  22.101  33.511   0.433
14717W        W83058   8.370   8.804  13.414
14718W        W83059  29.596  25.638  12.904
14719W        W83060  26.567  31.492  13.847
14720W        W83061   3.277   0.960  13.921
14721W        W83062  39.986  43.813   5.750
14722W        W83063  11.173  27.644  13.026
14723W        W83064  37.981   5.420  11.907
14724W        W83065  13.638  13.787   0.331
14725W        W83066   2.837  38.413  14.493
14726W        W83067  19.584  32.104  13.532
14727W        W83068  27.515  28.474   9.650
14728W        W83069  28.150   4.207  11.856
14729W        W83070  13.747  29.480   0.889
14730W        W83071  39.384  20.172  10.617
14731W        W83072  39.894   1.333   3.189
14732W        W83073   9.347  25.128   2.187
14733W        W83074  39.046  44.348   4.185
14734W        W83075  24.670  33.880   1.773
14735W        W83076   8.885  20.115  13.852
14736W        W83077  32.992  41.829   2.885
14737W        W83078  32.102  17.190  13.511
14738W        W83079  33.940  23.233  12.358
14739W        W83080  39.326  33.537  13.836
14740W        W83081  40.898  11.768  14.854
14741W        W83082  23.028  33.082   4.322
14742W        W83083  28.179  11.257   2.763
14743W        W83084   2.893  11.229   4.626
14744W        W83085  27.001   9.718   0.914
14745W        W83086  38.433  41.348   2.389
14746W        W83087  26.489  15.667   4.783
14747W        W83088   5.846  34.561  13.356
14748W        W83089  39.481  10.245   4.256
14749W        W83090  13.601  14.773  11.876
14750W        W83091  26.603  42.306   4.745
14751W        W83092  14.323  17.606   0.863
14752W        W83093  35.950  41.947   1.335
14753W        W83094  32.073  32.537   1.287
14754W        W83095  12.317  12.829  14.956
14755W        W83096  25.030  16.767  12.380
14756W        W83097  17.191  25.180   4.176
14757W        W83098   6.210   7.841   1.832
14758W        W83099  23.134  35.927   4.669
14759W        W83100  24.997  21.607   0.869
14760W        W83101   0.938  26.951   1.868
14761W        W83102   7.368  22.585  14.938
14762W        W83103  34.092   8.247  13.935
14763W        W83104   4.266  17.304  12.978
14764W        W83105   7.172  12.772  14.934
14765W        W83106  42.455   7.254   2.858
14766W        W83107   2.802  29.157   2.267
14767W        W83108  17.111  44.354   9.979
14768W        W83109   8.754  29.456  11.447
14769W        W83110   5.242  25.517   3.700
14770W        W83111  15.706  40.898   2.237
14771W        W83112  12.625  17.701   3.754
14772W        W83113  33.048  19.694  10.596
14773W        W83114  13.163  10.805  14.466
14774W        W83115   1.352  15.088   2.730
14775W        W83116  15.270  21.143  11.427
14776W        W83117   4.211  20.586   0.949
14777W        W83118   9.863  25.064  14.329
14778W        W83119  38.879   4.894  10.069
14779W        W83120  34.943  23.003   0.478
14780W        W83121  42.405  15.734  12.381
14781W        W83122  12.202  25.625  10.603
14782W        W83123  21.225  26.657  14.873
14783W        W83124  37.987  13.246   1.842
14784W        W83125  17.683  32.437   1.752
14785W        W83126   5.299  36.356  12.453
14786W        W83127  10.337  30.430   4.820
14787W        W83128   2.866  17.726   0.925
14788W        W83129  34.090  14.176  11.511
14789W        W83130  23.575  38.392   0.966
14790W        W83131  30.053  33.461  14.357
14791W        W83132  25.677  19.575  14.006
14792W        W83133  32.495  27.950  13.420
14793W        W83134  32.632  16.756  11.518
14794W        W83135   8.700  17.121   4.788
14795W        W83136  27.517  44.300  12.838
14796W        W83137  34.959  21.108   4.323
14797W        W83138   7.379  42.820  12.494
14798W        W83139  10.316  20.170  12.909
14799W        W83140  38.538  30.923  11.438
14800W        W83141  41.885  29.592  11.929
14801W        W83142  30.117  12.256  11.058
14802W        W83143  22.570  14.642  13.349
14803W        W83144  31.482  23.116  14.286
14804W        W83145  36.868  11.653  14.023
14805W        W83146  40.451   8.839   4.264
14806W        W83147  18.099  19.051  10.528
14807W        W83148  14.678  20.206  11.126
14808W        W83149  39.447  27.007  12.380
14809W        W83150  22.134   4.442   4.739
14810W        W83151   3.948  28.144   2.365
14811W        W83152   6.238  14.302  11.483
14812W        W83153  42.911  11.239   1.388
14813W        W83154  21.565   9.817   4.181
14814W        W83155  29.133  15.803   2.760
14815W        W83156   3.390  20.234  14.011
14816W        W83157  19.132  21.186  10.157
14817W        W83158   6.268  30.125  13.919
14818W        W83159  21.600   4.915  11.508
14819W        W83160  40.354  34.531  14.904
14820W        W83161  24.712  42.387  11.103
14821W        W83162  40.911  24.206  13.316
14822W        W83163   7.720   1.481   2.731
14823W        W83164  27.560  30.598   2.808
14824W        W83165  13.161  10.165   0.778
14825W        W83166  21.655  24.042   4.167
14826W        W83167  12.142  16.163   2.336
14827W        W83168  28.473  27.606   0.449
14828W        W83169   4.813  35.411   0.898
14829W        W83170  41.488   7.723  11.371
14830W        W83171   5.284  35.435  11.040
14831W        W83172  41.340  22.120   0.844
14832W        W83173  15.755  17.259   1.745
14833W        W83174  19.694  31.975   1.384
14834W        W83175   4.835  34.432   2.703
14835W        W83176  44.488  23.021  12.033
14836W        W83177   4.881  10.369   3.806
14837W        W83178  44.817  16.649   0.767
14838W        W83179   1.876  34.449   0.371
14839W        W83180  38.969   5.385   0.769
14840W        W83181  34.040  35.590   4.615
14841W        W83182  41.361   0.826   0.334
14842W        W83183  37.873  10.843   1.297
14843W        W83184  24.612  10.832  13.354
14844W        W83185  22.688   6.271  10.547
14845W        W83186  10.677  32.531  11.398
14846W        W83187  38.371  43.485  13.826
14847W        W83188  42.319  10.745   0.821
14848W        W83189  36.382  21.555   2.701
14849W        W83190   2.314  42.386  12.943
14850W        W83191   8.805  21.562  11.895
14851W        W83192   6.313   8.845   2.886
14852W        W83193  40.380   1.415   3.650
14853W        W83194  29.020  14.334  14.296
14854W        W83195   2.425  14.338   4.673
14855W        W83196  11.767  12.168   1.701
14856W        W83197   8.247  37.015   3.311
14857W        W83198  13.752  40.905  11.571
14858W        W83199   6.373  14.627   2.294
14859W        W83200  11.242  40.008  11.917
14860W        W83201  17.267  26.535  13.364
14861W        W83202  44.486   8.255  14.364
14862W        W83203  35.096  36.519  10.610
14863W        W83204   9.843  19.071  11.551
14864W        W83205  14.287  15.097  12.976
14865W        W83206  26.580   9.175   1.297
14866W        W83207  24.117   9.870   0.955
14867W        W83208  44.849  29.115  12.432
14868W        W83209   4.767  41.465  13.510
14869W        W83210  42.391   7.712   1.335
14870W        W83211  40.383   9.175  11.083
14871W        W83212  11.856  25.620  12.025
14872W        W83213  10.833  11.825  14.409
14873W        W83214  22.108  21.053  11.084
14874W        W83215  15.281  19.211  14.281
14875W        W83216  13.292  44.357  11.899
14876W        W83217  15.292  16.730  10.554
14877W        W83218  32.124  16.778   3.672
14878W        W83219  35.108  25.030  10.058
14879W        W83220   8.730  43.504  14.894
14880W        W83221  44.984   3.775   4.684
14881W        W83222   0.387  21.080  11.874
14882W        W83223  39.021  28.556  11.865
14883W        W83224  31.438  42.352  13.538
14884W        W83225  43.836  44.780   1.849
14885W        W83226  31.129   5.757   2.184
14886W        W83227  22.746  19.224   3.757
14887W        W83228  29.040  20.232  11.020
14888W        W83229  11.221  33.559  10.509
14889W        W83230  34.031  28.594   4.319
14890W        W83231  11.294  23.985   3.297
14891W        W83232  12.237   5.853   0.939
14892W        W83233  24.056  43.467  14.459
14893W        W83234   3.878  29.068   0.290
14894W        W83235   9.150   2.472  13.446
14895W        W83236  38.430   7.677  10.473
14896W        W83237   9.668  28.154  10.941
14897W        W83238  14.702  31.480   4.335
14898W        W83239  41.450  19.774   3.329
14899W        W83240   1.281  28.488  13.913
14900W        W83241  38.336  36.930   1.781
14901W        W83242  37.841  24.231   3.262
14902W        W83243  12.811  39.383  11.570
14903W        W83244  42.293  14.271   4.215
14904W        W83245   9.804  39.322   2.722
14905W        W83246  30.518  20.537   2.871
14906W        W83247  33.888  10.699  13.061
14907W        W83248  22.246   7.741  12.472
14908W        W83249  34.582  19.079   3.815
14909W        W83250  11.302  10.230   4.662
14910W        W83251   6.776  23.039   1.930
14911W        W83252  30.149  32.425   3.816
14912W        W83253   7.833  38.937  13.408
14913W        W83254  33.971   6.903  14.892
14914W        W83255  43.400   1.273   0.282
14915W        W83256  39.330  29.459   0.859
14916W        W83257  33.606  44.920   2.765
14917W        W83258  18.281   6.755  10.566
14918W        W83259  33.016  35.379  12.457
14919W        W83260  34.118  15.261  11.856
14920W        W83261   6.709   3.452   0.413
14921W        W83262  16.790  13.176  13.478
14922W        W83263   8.882  27.099   4.809
14923W        W83264  25.998   2.959  14.402
14924W        W83265  24.644   5.799  12.501
14925W        W83266   6.371   4.834  10.439
14926W        W83267  25.477  29.997   5.789
14927W        W83268  18.216  22.103   0.966
14928W        W83269  11.239   5.359  14.770
14929W        W83270  23.082  35.495  12.928
14930W        W83271  31.974  32.938  11.407
14931W        W83272  34.396  19.233  14.842
14932W        W83273  26.091  31.407   0.393
14933W        W83274  43.366  16.779   3.181
14934W        W83275  24.677   3.766  13.413
14935W        W83276  38.890  14.170  13.405
14936W        W83277  25.697  35.514   2.204
14937W        W83278  10.372   0.829  10.511
14938W        W83279  15.647  33.012  14.461
14939W        W83280  26.060  26.672   2.412
14940W        W83281  39.381  22.106   3.164
14941W        W83282  24.656  33.455   3.819
14942W        W83283  21.674   3.260   4.762
14943W        W83284  39.031   1.800  12.451
14944W        W83285  35.943  36.999   3.795
14945W        W83286  30.006  35.108   3.784
14946W        W83287  13.608  32.611   1.414
14947W        W83288  19.092   8.872  13.513
14948W        W83289   4.360  42.428  14.362
14949W        W83290  11.279  33.010   1.763
14950W        W83291  44.866  27.196  10.570
14951W        W83292  41.799  16.237  11.438
14952W        W83293  29.168   5.391   0.341
14953W        W83294  28.511  34.923  11.371
14954W        W83295  21.024  21.616   2.382
14955W        W83296  34.555   1.751   1.935
14956W        W83297  11.656  31.990  14.304
14957W        W83298  39.017   7.888   3.207
14958W        W83299  24.211   0.292  11.899
14959W        W83300   7.345  26.618  12.858
14960W        W83301  25.183  16.695   4.352
14961W        W83302  36.856  40.037   0.263
14962W        W83303  21.058   9.377  13.972
14963W        W83304  35.075  30.960   3.165
14964W        W83305  27.059  26.605   0.814
14965W        W83306   9.656   1.311  12.056
14966W        W83307  11.735  20.230   0.294
14967W        W83308   7.293  26.480   2.800
14968W        W83309  30.489  33.903  12.342
14969W        W83310  17.084  29.058  13.425
14970W        W83311  26.153  18.054  12.076
14971W        W83312  24.102  27.454   2.209
14972W        W83313  37.404  33.616  11.930
14973W        W83314   8.282  18.692   3.765
14974W        W83315  33.575  30.614  11.420
14975W        W83316  11.369   0.475   2.221
14976W        W83317  11.715  25.677  14.893
14977W        W83318  33.925  15.222   1.786
14978W        W83319  30.463  26.148   4.185
14979W        W83320  19.172  42.810   1.376
14980W        W83321  35.011  10.231   5.260
14981W        W83322  33.428  39.817   2.714
14982W        W83323  19.695  15.181   2.290
14983W        W83324   6.799  32.076   4.125
14984W        W83325  18.695  19.201  10.600
14985W        W83326  32.614  14.720   4.790
14986W        W83327  25.075   0.305   0.446
14987W        W83328  42.866   1.459  14.875
14988W        W83329  36.973   1.435   4.708
14989W        W83330  14.298  32.957   4.700
14990W        W83331  37.454   0.277   3.775
14991W        W83332  18.050  26.072  13.346
14992W        W83333  26.960  34.064   2.877
14993W        W83334  31.993   4.827   1.733
14994W        W83335  23.111   2.331   4.831
14995W        W83336   9.862  14.594  14.842
14996W        W83337   2.408  27.164   1.866
14997W        W83338  20.215  21.651   2.264
14998W        W83339  26.483  22.239  11.088
14999W        W83340  23.733  12.235   2.377
15000W        W83341  24.622  39.031  14.371
15001W        W83342   7.202  17.065   4.680
15002W        W83343   6.856  37.514   0.759
15003W        W83344  35.953  36.553  13.969
15004W        W83345  43.798  10.781   0.801
15005W        W83346  13.343  23.148  12.834
15006W        W83347  44.993  29.034   4.276
15007W        W83348   0.866   8.692  12.983
15008W        W83349  25.500  18.684  10.624
15009W        W83350  38.567  41.990  10.983
15010W        W83351   7.405  16.598  13.355
15011W        W83352   9.775  20.274  10.577
15012W        W83353  38.945  11.295  10.036
15013W        W83354  37.372   7.243   3.342
15014W        W83355   0.353  11.716  11.566
15015W        W83356  44.951  25.493   1.383
15016W        W83357  12.624   2.743   0.846
15017W        W83358   4.915   8.867   3.831
15018W        W83359  34.432  11.284  13.914
15019W        W83360  34.427   1.960  14.508
15020W        W83361  22.685   5.408   4.599
15021W        W83362   8.273   7.680   2.794
15022W        W83363  26.177  11.801  13.864
15023W        W83364  41.298  29.449   4.706
15024W        W83365  19.764  28.936  11.473
15025W        W83366  33.586  25.210  12.001
15026W        W83367  13.688  33.619   3.660
15027W        W83368  33.951  10.832   4.173
15028W        W83369   6.690  22.644   4.615
15029W        W83370  36.953  24.177   0.864
15030W        W83371  19.132  28.159  11.539
15031W        W83372  41.814  11.677   2.783
15032W        W83373  16.261   5.337  10.990
15033W        W83374  17.700  35.455   0.752
15034W        W83375  27.484  33.425  14.841
15035W        W83376   8.867  25.688  10.472
15036W        W83377  39.376  15.781   2.809
15037W        W83378   4.262  19.058   3.846
15038W        W83379  25.108  15.684   4.717
15039W        W83380   9.234  27.642  12.878
15040W        W83381   3.342  22.237  10.643
15041W        W83382   7.187  44.965   2.827
15042W        W83383  43.801  13.614  10.925
15043W        W83384  28.605  31.015  10.933
15044W        W83385  15.623  32.100   2.400
15045W        W83386   2.742  10.871   1.420
15046W        W83387  32.413  19.611   4.770
15047W        W83388   1.801  42.876  13.980
15048W        W83389  15.264  30.503   4.199
15049W        W83390  16.150   8.251  12.556
15050W        W83391  12.665  40.390   4.328
15051W        W83392   0.840  33.906  12.411
15052W        W83393  34.474  18.710  12.946
15053W        W83394   0.438  25.516   1.806
15054W        W83395   2.307  12.776  12.072
15055W        W83396   6.741  21.609  14.777
15056W        W83397   0.329  41.951   4.178
15057W        W83398  22.170   3.355   2.392
15058W        W83399  12.291  32.952   4.180
15059W        W83400  29.585  31.549   4.329
15060W        W83401  12.130  13.659  13.856
15061W        W83402   4.794  33.446   4.827
15062W        W83403   3.753  25.032  12.014
15063W        W83404  33.533  13.202   3.682
15064W        W83405   7.186  16.620   2.183
15065W        W83406  19.137   1.818   3.238
15066W        W83407  16.237  35.017  14.462
15067W        W83408   6.764  34.873   1.736
15068W        W83409   2.768  30.017   1.869
15069W        W83410  24.018   4.718   3.286
15070W        W83411  33.580  24.032  12.551
15071W        W83412   5.697   4.913   1.223
15072W        W83413  16.576  42.389   0.764
15073W        W83414   5.766  12.679  13.923
15074W        W83415  41.967  15.620   1.378
15075W        W83416  41.880  25.640   1.824
15076W        W83417  15.222  36.447  12.557
15077W        W83418  18.106   9.764   1.434
15078W        W83419  11.303  41.496  13.016
15079W        W83420   5.868  24.490  11.492
15080W        W83421  40.528  31.997  13.954
15081W        W83422  13.116  17.107  12.928
15082W        W83423  20.270  31.513  13.004
15083W        W83424  10.789   7.307  13.919
15084W        W83425   0.481  32.404   1.262
15085W        W83426  41.039  16.297  12.971
15086W        W83427  19.741  17.694  12.902
15087W        W83428   6.741  29.445   4.133
15088W        W83429   9.221  16.644   1.346
15089W        W83430  18.072   8.176   0.958
15090W        W83431  13.712  21.561  11.913
15091W        W83432  42.341  22.213  13.794
15092W        W83433  31.439  39.523  12.825
15093W        W83434  42.317   8.750  13.897
15094W        W83435   2.951  34.528   2.207
15095W        W83436   8.211  23.064   0.938
15096W        W83437  38.340   3.448  12.851
15097W        W83438  17.789  30.104   4.292
15098W        W83439   6.300   8.771  12.920
15099W        W83440   6.332  24.214   2.760
15100W        W83441  24.520  25.095  13.923
15101W        W83442  24.173  34.882  14.997
15102W        W83443  38.882  21.725  11.962
15103W        W83444  31.927  23.991   4.321
15104W        W83445  34.541  41.345   1.858
15105W        W83446  30.939  36.989  14.465
15106W        W83447  42.512  43.831  13.523
15107W        W83448  40.798  22.196  14.457
15108W        W83449  22.216  30.990   0.445
15109W        W83450   1.432  14.105  11.384
15110W        W83451  24.622   2.749   0.311
15111W        W83452  23.660  40.866  13.309
15112W        W83453  33.113  19.107   0.772
15113W        W83454  20.661  24.483   0.327
15114W        W83455  17.618  37.564  12.945
15115W        W83456  42.877  23.711   3.869
15116W        W83457  39.989  25.007   1.382
15117W        W83458  15.196   1.422   4.700
15118W        W83459  20.574  43.928  13.854
15119W        W83460  28.453  15.765  12.573
15120W        W83461  21.126  27.679  11.022
15121W        W83462  15.107  32.631   0.257
15122W        W83463  37.488  15.149   4.193
15123W        W83464  20.726  33.991   2.386
15124W        W83465  36.579   4.880   1.382
15125W        W83466   8.656   6.240  10.431
15126W        W83467  13.123   0.877  10.889
15127W        W83468  41.859   7.403  12.078
15128W        W83469  23.659  36.037   1.410
15129W        W83470  21.540   4.384  13.987
15130W        W83471   1.269  22.124  13.538
15131W        W83472  40.532  19.107  12.555
15132W        W83473   4.425  29.162  10.496
15133W        W83474   4.394   2.435   2.246
15134W        W83475  30.956   0.470   0.747
15135W        W83476  42.801  22.226   4.157
15136W        W83477  10.165  31.994  13.869
15137W        W83478   4.902  14.617   3.196
15138W        W83479   6.305  37.024   1.786
15139W        W83480  41.465   6.218   4.732
15140W        W83481  13.816  25.989   0.367
15141W        W83482  33.517   0.921  10.537
15142W        W83483  13.702  21.715  14.823
15143W        W83484   6.334  21.725  14.371
15144W        W83485   2.349  21.646   3.670
15145W        W83486   0.469  42.845   5.312
15146W        W83487  35.912  34.885  11.545
15147W        W83488  12.360   7.240   1.435
15148W        W83489  32.564  18.556   2.397
15149W        W83490  30.489   9.742   1.437
15150W        W83491  13.241  20.653   3.212
15151W        W83492  37.338  28.169   3.177
15152W        W83493  26.610  39.418  11.085
15153W        W83494   0.833  10.795   1.257
15154W        W83495   0.354   7.741   3.682
15155W        W83496  33.131   9.369   1.303
15156W        W83497   8.233  39.860  12.838
15157W        W83498  24.585  13.826   4.183
15158W        W83499  27.031  26.135   5.311
15159W        W83500   3.250  40.993  14.014
15160W        W83501  41.850  20.658  14.275
15161W        W83502  34.047  30.414  14.796
15162W        W83503  15.330  20.082   2.333
15163W        W83504  10.722  21.519  14.898
15164W        W83505   7.691  36.854   0.826
15165W        W83506  44.348  36.039   9.997
15166W        W83507  27.672  32.583   0.483
15167W        W83508  30.155  34.443  14.472
15168W        W83509  15.320  13.163  12.538
15169W        W83510  40.838  18.145   0.374
15170W        W83511   2.878  19.113  14.366
15171W        W83512  35.043  27.489  13.827
15172W        W83513  36.959  10.199   2.831
15173W        W83514   7.728  19.065  11.463
15174W        W83515  21.590  41.876  10.522
15175W        W83516   4.944  10.863   0.881
15176W        W83517  15.158  40.962   3.375
15177W        W83518  20.580  32.392   4.607
15178W        W83519   2.721  40.395   3.785
15179W        W83520  40.481  18.149   0.928
15180W        W83521  36.982  39.410  14.829
15181W        W83522  40.533  17.689  10.443
15182W        W83523  43.326  27.002   4.633
15183W        W83524  30.462   3.420   1.704
15184W        W83525  39.548  35.428  11.019
15185W        W83526  19.054  36.013  13.821
15186W        W83527  30.570  33.989   4.256
15187W        W83528  36.464   6.728   2.409
15188W        W83529  24.550  27.445   4.213
15189W        W83530   5.281  13.345   3.151
15190W        W83531  24.702  31.417   0.336
15191W        W83532  24.485  12.652  11.105
15192W        W83533  38.373  41.953   1.879
15193W        W83534   9.699  16.611   4.713
15194W        W83535  10.655  38.039   4.733
15195W        W83536  43.899  28.481  10.896
15196W        W83537  21.076   3.244   0.905
15197W        W83538  14.622  43.514   2.727
15198W        W83539  42.842  37.871  14.877
15199W        W83540  18.199  42.780   2.415
15200W        W83541   8.243   5.219  10.901
15201W        W83542  17.779  21.518   1.321
15202W        W83543  42.347  12.279   0.760
15203W        W83544   9.835  44.376   4.266
15204W        W83545  12.284  40.960  11.122
15205W        W83546  32.592   3.241   1.348
15206W        W83547   6.725  35.059   0.478
15207W        W83548  23.111   4.699  14.948
15208W        W83549  10.228  14.635   0.770
15209W        W83550  38.861  42.999  10.585
15210W        W83551  27.555  32.560   4.676
15211W        W83552  31.416  17.151  12.000
15212W        W83553  15.767  44.912  14.001
15213W        W83554  39.550  37.036  13.496
15214W        W83555  18.199   9.395   1.299
15215W        W83556  15.171  21.716  13.916
15216W        W83557  20.051  44.340   1.243
15217W        W83558  29.491   6.691  14.431
15218W        W83559   1.333  27.169   1.932
15219W        W83560  21.669   4.372   4.791
15220W        W83561  24.184  11.256  11.450
15221W        W83562  20.526  33.065   2.691
15222W        W83563  41.439  14.797   2.879
15223W        W83564  22.559   5.386  14.940
15224W        W83565  21.091  17.702   4.682
15225W        W83566  42.995  33.390   3.751
15226W        W83567   5.378  11.367  14.342
15227W        W83568   7.302  38.878  12.904
15228W        W83569  35.519  24.517   1.707
15229W        W83570  32.894  29.664  13.462
15230W        W83571  35.366  30.044  15.000
15231W        W83572  14.652  27.628  12.578
15232W        W83573   5.425  16.314  13.799
15233W        W83574  30.497  43.991  11.866
15234W        W83575  22.173  13.689  12.944
15235W        W83576  20.107  37.426  13.897
15236W        W83577  22.161  15.682   1.351
15237W        W83578  24.598  27.158   3.805
15238W        W83579  12.322  16.175   3.173
15239W        W83580  27.468   1.464   4.300
15240W        W83581  35.527  37.502   1.694
15241W        W83582  10.645   5.875   0.464
15242W        W83583  17.210  28.000   2.786
15243W        W83584   6.789   1.787   1.695
15244W        W83585  28.114  34.482  13.822
15245W        W83586   7.369  34.901  12.527
15246W        W83587  27.107   4.940  11.538
15247W        W83588  38.388  20.195  13.825
15248W        W83589  24.998  16.266   4.602
15249W        W83590   4.934  30.153  10.906
15250W        W83591  15.160  17.561   3.289
15251W        W83592  24.199  11.672   1.246
15252W        W83593  21.742  30.647   0.457
15253W        W83594   7.674  25.990  14.849
15254W        W83595  11.736  22.500   3.863
15255W        W83596  43.512  26.528  12.857
15256W        W83597  28.064  43.505   4.213
15257W        W83598  23.109  21.640   3.734
15258W        W83599  34.586  43.408  14.805
15259W        W83600  23.058  35.361   4.827
15260W        W83601  29.997  27.117  12.562
15261W        W83602  23.550  16.312  12.563
15262W        W83603  18.594  29.531   0.375
15263W        W83604  38.049   8.837   4.643
15264W        W83605  29.941  43.000   0.447
15265W        W83606  19.639  43.403   3.856
15266W        W83607  17.243  37.999   0.953
15267W        W83608  16.779  39.821   3.281
15268W        W83609  43.390  19.576   9.964
15269W        W83610  24.508  23.160   4.312
15270W        W83611  19.544  30.454   3.748
15271W        W83612  18.246   3.806   0.729
15272W        W83613  32.444   2.966  14.391
15273W        W83614  22.608  19.586  10.488
15274W        W83615  14.094  34.522  12.537
15275W        W83616  27.008   9.329   3.705
15276W        W83617  19.044  38.919   4.611
15277W        W83618  16.141  24.506   1.424
15278W        W83619   7.396  12.750  14.367
15279W        W83620  36.961   0.266   2.359
15280W        W83621  32.922   4.267  14.992
15281W        W83622   1.420  20.615   1.907
15282W        W83623  38.477  30.050  12.507
15283W        W83624  20.266   2.815   0.845
15284W        W83625   5.196  23.121   1.899
15285W        W83626  38.475  43.858  13.539
15286W        W83627   2.739  17.566  14.505
15287W        W83628  40.996  42.519  11.581
15288W        W83629  20.656  10.714  12.530
15289W        W83630  10.229  34.061   5.274
15290W        W83631  13.247   2.796   3.194
15291W        W83632  41.001  12.214   3.316
15292W        W83633  43.797  12.253  13.310
15293W        W83634  24.719  22.516  13.316
15294W        W83635  32.601  26.574   1.880
15295W        W83636   8.790  22.180   4.600
15296W        W83637  44.485  37.043   0.893
15297W        W83638  41.875   8.753  14.939
15298W        W83639  36.966  23.575  10.639
15299W        W83640  11.129  11.850  12.921
15300W        W83641  25.473   7.674  13.486
15301W        W83642   9.780  28.451  11.449
15302W        W83643  31.530   4.791  10.928
15303W        W83644   5.697   5.252  12.043
15304W        W83645  24.989  24.612   4.810
15305W        W83646   7.891   5.704  11.541
15306W        W83647   8.167  13.168   1.421
15307W        W83648  16.254  27.076  13.458
15308W        W83649   4.931  37.983  12.954
15309W        W83650  37.570  43.838  14.342
15310W        W83651  26.172  20.242   4.270
15311W        W83652   0.838   9.738  14.349
15312W        W83653   3.306   3.820   1.717
15313W        W83654   3.848   3.372  14.833
15314W        W83655  36.900  18.548   1.423
15315W        W83656   8.895   5.800  12.047
15316W        W83657  26.588  12.310  12.095
15317W        W83658   4.264  12.853   1.804
15318W        W83659   5.255  18.238  14.278
15319W        W83660  44.774  40.519   1.419
15320W        W83661   5.437  30.050  11.000
15321W        W83662  10.839   3.447  13.519
15322W        W83663  21.219  17.286   0.313
15323W        W83664  39.463  38.965   1.725
15324W        W83665  44.998  17.125   4.703
15325W        W83666  36.987  37.554   2.712
15326W        W83667  42.358  33.077   3.201
15327W        W83668  23.631   5.372  11.456
15328W        W83669  44.315  13.654   1.389
15329W        W83670  25.475  40.996  14.333
15330W        W83671  42.807  29.047  13.461
15331W        W83672  13.624  34.544  14.984
15332W        W83673   2.305  41.891   2.239
15333W        W83674  11.316  22.617  11.055
15334W        W83675  31.074  16.078  11.929
15335W        W83676  19.647  28.518   4.752
15336W        W83677  24.997   4.812   0.926
15337W        W83678  27.454   0.792   0.242
15338W        W83679  30.041  26.005   1.703
15339W        W83680  18.573  26.051  14.984
15340W        W83681   2.851  42.976  11.880
15341W        W83682  20.156  15.092   4.694
15342W        W83683  11.147  43.909   3.157
15343W        W83684  11.749  25.011   0.815
15344W        W83685  43.428  14.608  11.530
15345W        W83686  19.594  15.089   0.375
15346W        W83687  18.106  22.561   2.822
15347W        W83688  42.485  30.090  12.850
15348W        W83689  12.324   7.412  12.012
15349W        W83690  16.159  32.125   5.171
15350W        W83691  26.467  14.193   1.366
15351W        W83692   4.256  24.581  10.419
15352W        W83693  28.551  17.695   0.812
15353W        W83694  36.580   3.879   2.203
15354W        W83695  40.399  28.986   3.208
15355W        W83696  19.559  28.005   1.382
15356W        W83697  27.525  16.227   4.291
15357W        W83698  25.185  29.509  14.020
15358W        W83699  39.455  42.787  13.523
15359W        W83700  11.183  43.328  14.440
15360W        W83701   5.418  13.827   3.256
15361W        W83702  17.689  43.470  14.394
15362W        W83703  38.854   4.755  12.884
15363W        W83704  19.709   4.255   3.339
15364W        W83705  25.019  11.857   4.770
15365W        W83706  23.736   8.227   0.835
15366W        W83707  30.532  22.524   4.176
15367W        W83708   1.806  42.303   0.922
15368W        W83709  18.597  10.794  11.049
15369W        W83710  14.141  21.627  11.523
15370W        W83711  26.517  27.617   1.402
15371W        W83712  16.113  16.696  12.904
15372W        W83713  32.974  37.860  10.925
15373W        W83714  18.083   7.271   2.232
15374W        W83715  25.532  32.930  14.494
15375W        W83716  24.030  24.202   0.879
15376W        W83717   8.336   9.767  13.469
15377W        W83718  23.006  26.613  11.561
15378W        W83719  28.100  39.380   1.339
15379W        W83720  32.951  15.255  12.085
15380W        W83721   7.783  25.082   3.259
15381W        W83722  15.192  36.895  11.586
15382W        W83723   1.415  17.087   0.940
15383W        W83724  29.110  19.220  12.852
15384W        W83725  22.213  29.424  11.953
15385W        W83726  28.645   1.812   3.664
15386W        W83727  43.428  34.581  11.417
15387W        W83728  39.512  28.076  13.323
15388W        W83729  11.713  31.100  12.979
15389W        W83730   8.704  21.240  13.386
15390W        W83731   6.327  36.430   1.858
15391W        W83732   9.165  41.376  10.933
15392W        W83733  32.016  27.485   4.782
15393W        W83734  10.760  17.744  14.774
15394W        W83735  32.996  44.955   1.363
15395W        W83736  24.074  34.063   4.813
15396W        W83737  40.855  27.094   0.259
15397W        W83738  27.677  36.054   0.747
15398W        W83739  20.072  13.241  10.425
15399W        W83740  39.907   3.218   2.319
15400W        W83741  25.497  32.077   4.787
15401W        W83742   2.452  15.806  13.446
15402W        W83743   0.944  36.530   2.303
15403W        W83744  32.395   7.797   3.702
15404W        W83745  13.290  37.050  10.622
15405W        W83746  31.560  10.824   1.759
15406W        W83747  18.707   1.481  11.442
15407W        W83748   4.438   8.401   0.267
15408W        W83749  11.693  16.684   0.748
15409W        W83750  12.689  43.448  11.908
15410W        W83751  25.592  37.449  12.481
15411W        W83752   3.304  20.221   5.089
15412W        W83753  44.900  19.114   1.444
15413W        W83754  44.797  11.250  11.887
15414W        W83755  16.313  15.177   0.941
15415W        W83756  44.796  37.549  14.013
15416W        W83757  41.022  13.794  10.910
15417W        W83758  33.990  20.625  14.387
15418W        W83759  19.250  43.382  12.087
15419W        W83760   4.744  30.417  10.438
15420W        W83761  16.579  42.388  10.625
15421W        W83762  17.791  33.963  13.047
15422W        W83763   5.904   8.305   2.824
15423W        W83764  11.265  16.665  13.960
15424W        W83765   7.238   4.307   2.781
15425W        W83766   8.202  21.115   0.259
15426W        W83767  41.414  36.057   3.674
15427W        W83768  20.245  30.945  11.409
15428W        W83769  31.050  18.139   3.174
15429W        W83770   5.849  27.590   0.850
15430W        W83771  36.854  34.484  13.358
15431W        W83772  32.491   3.451   2.249
15432W        W83773  30.912  42.962   4.347
15433W        W83774  19.576  11.210   4.708
15434W        W83775  16.609   5.903   4.780
15435W        W83776   6.363  30.045  13.371
15436W        W83777  39.329   4.874   1.420
15437W        W83778  28.994  31.564   2.229
15438W        W83779  22.682  38.985   4.129
15439W        W83780  11.705  42.430   2.848
15440W        W83781  29.023  27.152   4.236
15441W        W83782   6.378  15.587  13.944
15442W        W83783  39.879   6.726  12.578
15443W        W83784  39.014   5.873   4.244
15444W        W83785  36.548  26.688   1.341
15445W        W83786  19.663   8.877  12.500
15446W        W83787   1.864  31.967  13.381
15447W        W83788  32.904  42.466   0.456
15448W        W83789   8.355  38.399   0.478
15449W        W83790  23.239  18.696  13.912
15450W        W83791  17.756  13.657  14.808
15451W        W83792  26.530  17.223  14.356
15452W        W83793  44.456  24.086   3.236
15453W        W83794  38.514  25.081   4.835
15454W        W83795   3.809  19.606  13.979
15455W        W83796  33.959  22.710  11.966
15456W        W83797  13.191  40.827   5.628
15457W        W83798   1.429  39.557   2.301
15458W        W83799  32.478   0.332   2.202
15459W        W83800   0.313  13.205  13.890
15460W        W83801  13.679  17.614   4.690
15461W        W83802  19.139  14.806   4.725
15462W        W83803  21.591   0.780   4.615
15463W        W83804  44.986  14.684  13.497
15464W        W83805   9.694  22.626   3.870
15465W        W83806  15.702  42.305  10.490
15466W        W83807  30.451  18.092  14.824
15467W        W83808  14.641   3.827  12.082
15468W        W83809  36.865  35.514  11.402
15469W        W83810  41.857   3.456  13.501
15470W        W83811  29.470  36.956   2.890
15471W        W83812  20.271   0.969   0.829
15472W        W83813  13.171  24.651   3.736
15473W        W83814  31.561  28.991  12.978
15474W        W83815  42.841   2.856  13.336
15475W        W83816  25.477   4.872  13.330
15476W        W83817  21.100   5.754  14.792
15477W        W83818  22.083  43.354  14.443
15478W        W83819  17.082  37.476  10.432
15479W        W83820  23.650  33.981   1.408
15480W        W83821  41.032  43.482  10.487
15481W        W83822  13.744   3.715  12.982
15482W        W83823   3.281  44.793   0.389
15483W        W83824  31.950   3.317  13.933
15484W        W83825  28.058   5.900   0.944
15485W        W83826  11.331  41.883   0.482
15486W        W83827  23.635  27.642  12.920
15487W        W83828   3.296  35.078   3.851
15488W        W83829  28.565  27.095  12.076
15489W        W83830  36.534   5.211   0.465
15490W        W83831  23.549  27.613   1.833
15491W        W83832  30.084   6.394   1.230
15492W        W83833  44.426  32.485   4.799
15493W        W83834   7.891  36.899  10.454
15494W        W83835  18.219  19.085   0.350
15495W        W83836  21.195  27.498   2.795
15496W        W83837   5.812  34.450   4.614
15497W        W83838  41.964  29.009  12.564
15498W        W83839  22.598  31.611  12.528
15499W        W83840  17.168  29.518  12.841
15500W        W83841  21.130  44.883  13.510
15501W        W83842   3.806  19.199   2.417
15502W        W83843  30.528  27.588   0.890
15503W        W83844  28.137   1.855   2.235
15504W        W83845   2.881   2.847   3.841
15505W        W83846  32.984  36.081  14.897
15506W        W83847   4.281  12.827  11.465
15507W        W83848   0.355  26.002   1.292
15508W        W83849  20.647  23.669  12.834
15509W        W83850  21.544  20.758   1.932
15510W        W83851  32.894  35.855  10.622
15511W        W83852  20.102  18.251   0.449
15512W        W83853  24.179   1.852  11.936
15513W        W83854  21.101  10.141   3.645
15514W        W83855  23.172  32.553   4.299
15515W        W83856  11.345  14.191   4.606
15516W        W83857  35.360  15.085   3.677
15517W        W83858   3.424   8.716  11.507
15518W        W83859  28.073  34.574  14.767
15519W        W83860  37.994   9.178   1.219
15520W        W83861   7.408  28.093  10.959
15521W        W83862  19.539   2.727   2.796
15522W        W83863  35.855  23.005  12.054
15523W        W83864  13.312  20.121  14.482
15524W        W83865   0.440  30.526   3.679
15525W        W83866  15.193  15.805  12.425
15526W        W83867   9.247  26.701   2.241
15527W        W83868  12.674  36.582  13.386
15528W        W83869  18.238   2.365   4.290
15529W        W83870   5.819   8.859   0.825
15530W        W83871  44.837  15.193   1.783
15531W        W83872  33.596  25.199   3.828
15532W        W83873  44.920  12.233  12.443
15533W        W83874   2.961  43.429   2.382
15534W        W83875  34.928  15.763   2.272
15535W        W83876  24.041  34.386  12.054
15536W        W83877  34.054  37.897  11.028
15537W        W83878  43.493  42.861  12.418
15538W        W83879  26.689  33.554  11.470
15539W        W83880  39.016  33.500   0.768
15540W        W83881  29.650   4.273   1.795
15541W        W83882  35.485  20.194   4.672
15542W        W83883  18.078  34.045  12.356
15543W        W83884  34.548  42.785  10.902
15544W        W83885  42.406  44.471   4.311
15545W        W83886   3.746  40.527   3.252
15546W        W83887  43.840  40.871   3.240
15547W        W83888  16.695  27.526  13.388
15548W        W83889   2.781   5.807  11.539
15549W        W83890  41.789  17.079   1.408
15550W        W83891  23.660  10.313   4.319
15551W        W83892  11.801  34.520   9.960
15552W        W83893  35.027   2.264  12.976
15553W        W83894  24.673  37.380  13.873
15554W        W83895  35.880   9.827  12.412
15555W        W83896   3.441  33.946  12.570
15556W        W83897  31.021  37.878  10.573
15557W        W83898  43.871  24.593   4.662
15558W        W83899  14.115  37.058   0.961
15559W        W83900   9.704  21.182  14.947
15560W        W83901  34.881   6.255  12.393
15561W        W83902  44.973   5.727   3.749
15562W        W83903  24.551  10.825   1.826
15563W        W83904  38.937  36.359   4.641
15564W        W83905  13.219  26.517   1.821
15565W        W83906  25.526   4.393  11.917
15566W        W83907  17.575  25.551  10.891
15567W        W83908   0.841  16.721   2.719
15568W        W83909   8.748  38.404  14.505
15569W        W83910  39.822   4.363  11.930
15570W        W83911  17.191  20.117  10.445
15571W        W83912  19.061  12.343   1.846
15572W        W83913  11.763  16.248  12.405
15573W        W83914  30.620  35.920  10.961
15574W        W83915   3.344  28.942   0.752
15575W        W83916  44.900  11.841   3.311
15576W        W83917  44.312   0.849   1.254
15577W        W83918  19.062  30.447   3.708
15578W        W83919  12.257  37.029   4.246
15579W        W83920  43.010  22.694  11.069
15580W        W83921  38.966  26.597  14.828
15581W        W83922   4.731   0.943  10.935
15582W        W83923  43.811  23.162   2.250
15583W        W83924  41.480   6.391  13.989
15584W        W83925  21.707   5.773   3.288
15585W        W83926  26.599   9.815  11.377
15586W        W83927  10.262  31.988  11.892
15587W        W83928  28.669   2.320   0.482
15588W        W83929  41.429  14.824  12.093
15589W        W83930  40.886  31.447   0.959
15590W        W83931  15.283  37.970   1.933
15591W        W83932  23.998   3.232  13.308
15592W        W83933   1.393  40.389  12.971
15593W        W83934  37.341  29.649   0.265
15594W        W83935   8.249   9.267  12.008
15595W        W83936  14.221  30.547  13.518
15596W        W83937  14.653  28.150  14.877
15597W        W83938  11.365  28.152  12.085
15598W        W83939  33.479   0.391  12.037
15599W        W83940   6.243   1.368   2.812
15600W        W83941  34.574  30.162   0.337
15601W        W83942  41.538   4.876   3.769
15602W        W83943  39.856  35.561  11.014
15603W        W83944  25.163  42.967  12.933
15604W        W83945  19.741  11.210   3.818
15605W        W83946  16.624   5.371  13.398
15606W        W83947  40.972  41.848   0.792
15607W        W83948  24.566  20.077  11.591
15608W        W83949  16.757  33.925  11.422
15609W        W83950  44.771  24.135  13.348
15610W        W83951   6.207  17.273  14.840
15611W        W83952   6.344  27.135   1.813
15612W        W83953  23.673  16.162   9.519
15613W        W83954  44.315  43.316  12.042
15614W        W83955  19.161  20.203   3.800
15615W        W83956  30.020   4.400   2.203
15616W        W83957   1.874  13.731   2.355
15617W        W83958  24.716  41.510  12.879
15618W        W83959  22.718  15.642   0.821
15619W        W83960  19.057  17.215   2.900
15620W        W83961  29.558  25.170  13.035
15621W        W83962  10.186  31.482   0.740
15622W        W83963  24.576   4.331   4.136
15623W        W83964   6.713  22.163  14.362
15624W        W83965   2.387  36.949   0.829
15625W        W83966  29.011   0.465   0.327
15626W        W83967   4.907   4.249  10.897
15627W        W83968  44.937   4.386   3.374
15628W        W83969   1.402   1.832   4.230
15629W        W83970  16.687  40.932  11.555
15630W        W83971  40.349  15.136   1.225
15631W        W83972  40.518   9.793   2.362
15632W        W83973   8.765   5.914  13.860
15633W        W83974  29.947  15.215   2.254
15634W        W83975  23.096  10.146   2.893
15635W        W83976  35.457  24.637   0.418
15636W        W83977  18.226  32.449   5.129
15637W        W83978  24.599  33.082   0.955
15638W        W83979  35.097  26.492   4.673
15639W        W83980  28.048  12.173   0.843
15640W        W83981  10.185   9.336   1.420
15641W        W83982  25.121  42.948  12.572
15642W        W83983  14.823   4.259  13.916
15643W        W83984  28.119  17.302  11.125
15644W        W83985  44.836  18.113   9.460
15645W        W83986  23.601  24.661  13.394
15646W        W83987   4.311  14.279   1.423
15647W        W83988   1.256  17.560  10.991
15648W        W83989  40.009  43.928  13.869
15649W        W83990  24.565   3.410   0.266
15650W        W83991  41.890   1.793   0.833
15651W        W83992  41.297  42.790   4.113
15652W        W83993  37.579  30.966   3.289
15653W        W83994  29.079  30.018   0.730
15654W        W83995   4.277  14.749   4.321
15655W        W83996   9.215  28.580   1.828
15656W        W83997  22.583  10.729   0.873
15657W        W83998  22.215   4.711   2.756
15658W        W83999  41.334  25.968   1.390
15659W        W84000   5.829   3.376   0.338
15660W        W84001   3.951   2.792   3.233
15661W        W84002  28.063  21.743  13.317
15662W        W84003  15.119  27.947  14.892
15663W        W84004  15.804  13.667  12.831
15664W        W84005   2.945  38.069   3.233
15665W        W84006   2.462  13.171   4.224
15666W        W84007   3.385   6.334   1.720
15667W        W84008   9.836  19.665  14.002
15668W        W84009  11.221  19.244  13.054
15669W        W84010   9.869  43.485   1.376
15670W        W84011  12.625   4.870  14.903
15671W        W84012  16.175  40.334   0.859
15672W        W84013  31.923  34.972  14.995
15673W        W84014  27.135  21.115  13.511
15674W        W84015  36.997  16.114  13.009
15675W        W84016  21.026  25.659  12.828
15676W        W84017  23.693  33.971  14.925
15677W        W84018  31.634  24.152   2.209
15678W        W84019  18.253   1.413   0.405
15679W        W84020  12.313  25.671   2.287
15680W        W84021   2.820  39.818   1.748
15681W        W84022  24.050   9.188  14.998
15682W        W84023   4.772  38.512  13.021
15683W        W84024  21.721  14.233  12.903
15684W        W84025  10.696  12.676   4.755
15685W        W84026  18.639   9.688  12.015
15686W        W84027  40.842  24.630  14.293
15687W        W84028  20.031  40.953   1.373
15688W        W84029   0.432  36.047   2.850
15689W        W84030   0.468  44.982   3.280
15690W        W84031  37.865   4.838  10.944
15691W        W84032  38.564   6.856   1.407
15692W        W84033  29.001  35.089  12.043
15693W        W84034  28.163  15.721   1.238
15694W        W84035  42.307  43.776  10.456
15695W        W84036  25.678  17.798   2.761
15696W        W84037  37.087   8.883  11.398
15697W        W84038  25.567  15.289  13.514
15698W        W84039  24.484   4.926  13.325
15699W        W84040  42.435   5.237  12.560
15700W        W84041  35.874  41.407   2.874
15701W        W84042  25.980  17.177  11.478
15702W        W84043  29.105  18.136  14.275
15703W        W84044  37.005  36.992   4.744
15704W        W84045   4.307  41.904  13.869
15705W        W84046  41.302  20.262   2.704
15706W        W84047   8.371   6.920  10.515
15707W        W84048  29.123  11.740   3.290
15708W        W84049  25.050  43.949   3.723
15709W        W84050  10.817  29.046   2.383
15710W        W84051  28.087  36.460  12.012
15711W        W84052  30.459  20.074  13.420
15712W        W84053   7.752  28.000   0.923
15713W        W84054   9.156  38.964   1.893
15714W        W84055  32.605  37.363  12.909
15715W        W84056  41.538  24.178   5.283
15716W        W84057  28.038   9.667  14.874
15717W        W84058   8.850   1.426   3.693
15718W        W84059   7.698  32.579   2.802
15719W        W84060  15.294  12.293  10.506
15720W        W84061  41.405  31.503  14.951
15721W        W84062  28.106  31.535   3.743
15722W        W84063  31.643  13.311   0.880
15723W        W84064  33.616  22.143  10.411
15724W        W84065  28.024  25.151   0.801
15725W        W84066  40.052  44.993  13.963
15726W        W84067  21.675   5.219   0.283
15727W        W84068  40.496   5.386   0.964
15728W        W84069  33.580   3.434  13.022
15729W        W84070   9.277  13.680  10.939
15730W        W84071  20.232  15.799  11.120
15731W        W84072  14.688  26.471  10.963
15732W        W84073  28.652  31.010   0.953
15733W        W84074  31.073  20.110   3.844
15734W        W84075   0.916  32.989   4.769
15735W        W84076  11.126  38.821  11.520
15736W        W84077  23.733  21.210   4.351
15737W        W84078  18.061  21.567  10.570
15738W        W84079  29.479  37.395   0.728
15739W        W84080  21.753  29.934   2.839
15740W        W84081  26.671  18.574   4.137
15741W        W84082  38.413  28.620   0.918
15742W        W84083  35.927  22.515  14.844
15743W        W84084  40.385  35.955  14.944
15744W        W84085   5.248  43.305  11.541
15745W        W84086  34.117  20.547   3.314
15746W        W84087   7.384   1.449  11.409
15747W        W84088  39.325  21.708   2.744
15748W        W84089  43.307  11.790   4.130
15749W        W84090  20.647   2.257   4.809
15750W        W84091  28.674  20.158  13.352
15751W        W84092  26.623  33.473  14.499
15752W        W84093   1.924  17.075   4.350
15753W        W84094   4.891   5.889  11.579
15754W        W84095   1.406   0.256  10.593
15755W        W84096   7.812  11.662   9.943
15756W        W84097  19.173  35.006   3.847
15757W        W84098  19.127  34.612   1.240
15758W        W84099  14.211  27.578   3.632
15759W        W84100   7.370  12.136   1.819
15760W        W84101  38.882  12.698  12.387
15761W        W84102  17.129   0.454   4.325
15762W        W84103  11.863  11.238  11.465
15763W        W84104  19.738  34.978  14.444
15764W        W84105  25.071  20.195   2.873
15765W        W84106  32.620   4.881  14.308
15766W        W84107  34.507  32.072  11.558
15767W        W84108  38.918  31.617  10.905
15768W        W84109  10.188  43.944  11.497
15769W        W84110   2.936  31.109   1.397
15770W        W84111  14.736  44.874  13.369
15771W        W84112  32.508  29.660   0.911
15772W        W84113  11.708   4.402   0.912
15773W        W84114  33.935  35.887   4.827
15774W        W84115  12.163   6.811  14.306
15775W        W84116  10.302  34.559   3.210
15776W        W84117  32.637  26.034  14.879
15777W        W84118  28.131  26.026  13.015
15778W        W84119  43.345  38.067   2.308
15779W        W84120  41.485  35.515   3.777
15780W        W84121  34.943  33.924   0.907
15781W        W84122  26.516  35.360   0.877
15782W        W84123  37.382  29.964   3.266
15783W        W84124  44.796   0.319  10.992
15784W        W84125  31.965   5.390   0.278
15785W        W84126  31.499  38.966  13.048
15786W        W84127  32.076  36.972  12.394
15787W        W84128   6.727  18.112   3.752
15788W        W84129  35.108   4.777  14.850
15789W        W84130   8.298  30.925   4.666
15790W        W84131  39.826  44.909   4.145
15791W        W84132  31.003   3.795   2.699
15792W        W84133  16.745  13.210  13.963
15793W        W84134  39.813  12.141  10.930
15794W        W84135   8.198  34.579   1.352
15795W        W84136  15.318  18.783  10.563
15796W        W84137  18.758  20.086   1.785
15797W        W84138  10.171  18.622   4.344
15798W        W84139   9.818  10.825   5.231
15799W        W84140  31.593  18.075  14.360
15800W        W84141  14.724  29.922  14.915
15801W        W84142  18.649  12.696  10.456
15802W        W84143  33.392   9.161  13.976
15803W        W84144  32.473  42.825  13.866
15804W        W84145  30.620   8.807  12.832
15805W        W84146  31.038  26.475   0.448
15806W        W84147  41.364  14.191  10.955
15807W        W84148   0.756  30.462  11.078
15808W        W84149   6.769  14.634  11.075
15809W        W84150  14.789  37.884   3.854
15810W        W84151  14.119  39.363   4.710
15811W        W84152  27.449  26.525   4.196
15812W        W84153  36.863  24.511  11.096
15813W        W84154   8.802  17.137  12.485
15814W        W84155  10.194  27.125   0.399
15815W        W84156  16.270  17.184  11.603
15816W        W84157   7.327  30.466   3.386
15817W        W84158  12.177  29.591  14.864
15818W        W84159  21.145  30.078  10.951
15819W        W84160  28.035   6.341  12.566
15820W        W84161  40.846  27.553   4.767
15821W        W84162   9.689  26.560  14.999
15822W        W84163   4.423  34.537  14.353
15823W        W84164  10.292  35.571   0.384
15824W        W84165   8.876  28.004   1.885
15825W        W84166  44.853  29.622  12.494
15826W        W84167  43.406   6.270   0.289
15827W        W84168  25.571  39.049   0.301
15828W        W84169  20.085  37.511  14.973
15829W        W84170  23.200   7.321  10.565
15830W        W84171  40.415  30.969  12.054
15831W        W84172  34.475  27.057   1.337
15832W        W84173  16.667  40.421  11.573
15833W        W84174  28.539  29.104  13.794
15834W        W84175  28.942  29.590   2.181
15835W        W84176   2.440  40.419   3.659
15836W        W84177  41.928  41.884   2.368
15837W        W84178  42.400  15.157  11.472
15838W        W84179   6.722   1.756   2.214
15839W        W84180  22.163  27.503   2.820
15840W        W84181  11.196  17.064   4.261
15841W        W84182  16.721  38.824   0.844
15842W        W84183  25.214   4.797   1.325
15843W        W84184  39.988  16.095   0.316
15844W        W84185  19.694  24.206  13.958
15845W        W84186   7.731  41.024  12.411
15846W        W84187  24.724  19.074   1.855
15847W        W84188  16.129  24.721  12.823
15848W        W84189  15.291   0.314   0.918
15849W        W84190  37.929   4.245  13.856
15850W        W84191  15.119  24.076   1.364
15851W        W84192  31.513  29.664  13.920
15852W        W84193  12.630  13.273  12.483
15853W        W84194  19.534  21.026   1.243
15854W        W84195  43.351  27.624  13.998
15855W        W84196  17.124   3.277  13.472
15856W        W84197  33.041   1.332  10.469
15857W        W84198  29.638  42.888   3.679
15858W        W84199  23.004  18.634  14.818
15859W        W84200  28.987  10.364  11.084
15860W        W84201  14.723   0.330   4.265
15861W        W84202  11.370  18.203  13.512
15862W        W84203  39.891  42.029  10.562
15863W        W84204  31.579   1.912  12.930
15864W        W84205   3.360  27.595   3.383
15865W        W84206  22.618  21.241   0.874
15866W        W84207   0.956  13.756  12.481
15867W        W84208  16.148  27.976  13.452
15868W        W84209  44.002  27.509   2.288
15869W        W84210  41.328  13.762   2.872
15870W        W84211  18.549  13.713  11.381
15871W        W84212  19.567   1.795   3.377
15872W        W84213   1.800  39.814  14.510
15873W        W84214  42.876  11.317   3.170
15874W        W84215   5.859  10.860  10.641
15875W        W84216  23.713  33.886  12.931
15876W        W84217  10.325   3.900   0.362
15877W        W84218   8.305  18.157   0.307
15878W        W84219  28.180  12.649   2.179
15879W        W84220  38.424  15.586   1.235
15880W        W84221   2.752   4.779   3.650
15881W        W84222   5.208  26.559   4.306
15882W        W84223  10.872  18.135   2.247
15883W        W84224  18.245  26.643  12.356
15884W        W84225  13.215  16.587   3.709
15885W        W84226  22.183  42.313  14.870
15886W        W84227  32.408  11.272  12.929
15887W        W84228  19.768  34.605   3.299
15888W        W84229  40.035   0.367  11.121
15889W        W84230  17.298  26.546  11.483
15890W        W84231  22.600  41.960  11.503
15891W        W84232   0.360   1.359   3.833
15892W        W84233  42.813  22.156  10.497
15893W        W84234  26.508  27.544   2.338
15894W        W84235  40.344  22.618  10.111
15895W        W84236   3.357  43.862  13.848
15896W        W84237   2.345  27.632  13.793
15897W        W84238  27.196   2.292   3.317
15898W        W84239   2.886  19.537  12.904
15899W        W84240   3.952  31.956   1.739
15900W        W84241  38.920  22.018  11.612
15901W        W84242   8.346   2.332   3.213
15902W        W84243  23.684  21.060  12.493
15903W        W84244   1.861   4.900  11.570
15904W        W84245  43.273  23.562  14.841
15905W        W84246  28.480  42.447   2.318
15906W        W84247   9.656  27.525  11.593
15907W        W84248  31.554   2.334   1.226
15908W        W84249  13.139  13.763   2.834
15909W        W84250  25.115  25.080  12.448
15910W        W84251  17.738  31.036  13.946
15911W        W84252   8.898  39.846  13.415
15912W        W84253  33.046  22.199  11.934
15913W        W84254   0.273  11.743   4.816
15914W        W84255  23.052  26.644   2.217
15915W        W84256  16.769  20.220   0.858
15916W        W84257  16.667  32.890  14.828
15917W        W84258  33.505  37.530  12.966
15918W        W84259   0.320  42.909  14.847
15919W        W84260  36.424  20.737  12.541
15920W        W84261  23.141  29.594  10.521
15921W        W84262  22.220  10.250   0.874
15922W        W84263   0.892   7.362   9.947
15923W        W84264  21.594  39.988   1.304
15924W        W84265   1.744  17.777  10.535
15925W        W84266  20.248  19.151  13.427
15926W        W84267  23.090  22.502   2.334
15927W        W84268   5.770  22.171   3.673
15928W        W84269  39.848   5.690  13.320
15929W        W84270  25.112  35.497  14.916
15930W        W84271  17.204  28.036  13.437
15931W        W84272   2.282  25.165  12.580
15932W        W84273  29.083  44.418  12.925
15933W        W84274  30.153   2.728  11.537
15934W        W84275  32.985  39.373  14.832
15935W        W84276   1.956  20.052  14.786
15936W        W84277  34.502   4.390   1.386
15937W        W84278  12.773  19.610  11.490
15938W        W84279  36.858  11.669  13.509
15939W        W84280   8.239  33.908  14.858
15940W        W84281  10.760  28.670  12.567
15941W        W84282   7.208   4.317  10.931
15942W        W84283  26.515  41.866  12.996
15943W        W84284  23.725  13.717  14.363
15944W        W84285  44.379  14.153  14.389
15945W        W84286  18.225  34.563   4.793
15946W        W84287  18.205   8.713  13.913
15947W        W84288  41.314   8.213  12.828
15948W        W84289   6.238  29.023  12.877
15949W        W84290   7.788   8.255   1.422
15950W        W84291  21.543  30.063   4.312
15951W        W84292   0.743  14.670   1.698
15952W        W84293  19.072  42.970  13.923
15953W        W84294   3.883   2.721   3.830
15954W        W84295  17.602   5.266  14.492
15955W        W84296   7.393  21.193   2.387
15956W        W84297  44.345  34.034  13.511
15957W        W84298  24.222  22.642   1.930
15958W        W84299  18.247   0.331   0.854
15959W        W84300   7.342   8.222  10.631
15960W        W84301  10.666  21.568   1.881
15961W        W84302   9.183   6.856  13.062
15962W        W84303   7.217  39.465  12.555
15963W        W84304  13.680  37.379  11.528
15964W        W84305  16.235  31.492  10.095
15965W        W84306  29.006  34.391   2.723
15966W        W84307  43.019  40.020  12.958
15967W        W84308  42.447  27.975  14.305
15968W        W84309  11.358  18.275   4.220
15969W        W84310  16.118  10.807  14.959
15970W        W84311  10.773  37.901   1.387
15971W        W84312  36.519   0.874  14.283
15972W        W84313  15.717  33.994  14.911
15973W        W84314   2.357  32.013   4.695
15974W        W84315  35.532   1.472  11.020
15975W        W84316   2.460   2.841   2.818
15976W        W84317  30.486   9.667   2.350
15977W        W84318  12.353  21.240  13.478
15978W        W84319  43.307  41.024   1.817
15979W        W84320  35.517  10.183   5.311
15980W        W84321  42.353  25.962  10.412
15981W        W84322  11.292  36.428   4.336
15982W        W84323  16.742  26.627   3.363
15983W        W84324  13.286   1.402   3.749
15984W        W84325  17.673   4.350   1.814
15985W        W84326  26.702  29.067   3.656
15986W        W84327   3.773  15.124   4.201
15987W        W84328  16.154  19.064  11.968
15988W        W84329  40.830  15.302   3.778
15989W        W84330  43.009  13.763   2.751
15990W        W84331  25.642  41.901  12.991
15991W        W84332  31.494  43.856   4.606
15992W        W84333  14.148   7.688  11.870
15993W        W84334  44.261  34.875  11.006
15994W        W84335   2.755  40.826  14.357
15995W        W84336  35.428  42.407   2.831
15996W        W84337  31.624  16.779  13.434
15997W        W84338  42.289  33.568  11.589
15998W        W84339  31.078  32.931   3.194
15999W        W84340   8.838  21.066  11.118
16000W        W84341  26.573  32.982  13.980
16001W        W84342  44.296  32.595   2.851
16002W        W84343  25.495  19.721   2.718
16003W        W84344  31.467  12.322  14.777
16004W        W84345  16.090   1.924  14.932
16005W        W84346  29.544   4.797  14.408
16006W        W84347  26.458  20.663  10.452
16007W        W84348  23.663  44.912  14.770
16008W        W84349   8.337  37.046  11.391
16009W        W84350  17.098  36.434   4.248
16010W        W84351  10.734  33.076   1.395
16011W        W84352  31.018   1.243  10.472
16012W        W84353   8.697  21.222  12.468
16013W        W84354  21.157   7.215  10.937
16014W        W84355  38.976  40.369   3.355
16015W        W84356  41.525  15.696   1.315
16016W        W84357  29.593   6.192  14.882
16017W        W84358  31.648  20.217  14.460
16018W        W84359   5.392   0.808  14.838
16019W        W84360  29.479  21.576   4.339
16020W        W84361  20.030   1.735   5.094
16021W        W84362  11.689  39.909  14.335
16022W        W84363  36.092  44.431   0.951
16023W        W84364  44.887  28.078   3.814
16024W        W84365  40.444  35.961   3.240
16025W        W84366  12.215  38.929   3.745
16026W        W84367  15.706  14.639   4.115
16027W        W84368  39.452  12.639   4.312
16028W        W84369  10.380  22.030  13.380
16029W        W84370   1.978  32.111   2.800
16030W        W84371  20.047  26.522  11.486
16031W        W84372   1.464  28.583   2.758
16032W        W84373  11.202   8.877   4.662
16033W        W84374  36.009   2.239  14.858
16034W        W84375  21.688  29.441  12.579
16035W        W84376  11.206  33.949  11.096
16036W        W84377  37.571  19.246  10.447
16037W        W84378  37.989   2.722  12.517
16038W        W84379  34.386  44.825   2.225
16039W        W84380  30.598  13.764   3.281
16040W        W84381   4.857  11.237  10.090
16041W        W84382   3.794  44.785   0.876
16042W        W84383  39.928   5.921  10.943
16043W        W84384  38.883  32.132   0.837
16044W        W84385   2.830   2.821  14.331
16045W        W84386  35.540  10.740  10.923
16046W        W84387   3.369  24.101   2.827
16047W        W84388   7.298  38.988   1.428
16048W        W84389  22.023  31.045   3.177
16049W        W84390  27.130   1.301   0.734
16050W        W84391  14.724  35.090  10.890
16051W        W84392  22.692  21.220   1.329
16052W        W84393  18.742   7.410  11.968
16053W        W84394  34.505  37.877  13.521
16054W        W84395  28.992   3.826   1.424
16055W        W84396  32.473  21.540  10.555
16056W        W84397  32.491  19.238  13.829
16057W        W84398  32.504  30.580   0.388
16058W        W84399  37.860  10.686   0.298
16059W        W84400  44.001  41.532   4.682
16060W        W84401   4.334  29.587  10.581
16061W        W84402  19.101   1.874   1.698
16062W        W84403  30.132   4.406  14.401
16063W        W84404   7.706   9.263   0.788
16064W        W84405   6.874  30.935  14.783
16065W        W84406  36.573  29.940  12.837
16066W        W84407  25.994  35.483  12.523
16067W        W84408  13.775  29.065   0.727
16068W        W84409  27.669  21.531  13.891
16069W        W84410  24.200  16.741   2.306
16070W        W84411   0.874  32.999   1.768
16071W        W84412  30.499  13.668  11.888
16072W        W84413  26.671  28.948  10.065
16073W        W84414  21.236  38.965   1.441
16074W        W84415  25.468  20.686   2.186
16075W        W84416   9.826  27.173   3.842
16076W        W84417  29.638  41.846  11.920
16077W        W84418   4.220  31.629   3.186
16078W        W84419  28.966  14.637  13.950
16079W        W84420  20.595  22.686   1.349
16080W        W84421  16.676   1.771   3.261
16081W        W84422   9.293  13.650   2.267
16082W        W84423   3.794  39.929  13.891
16083W        W84424  32.495  37.081   1.819
16084W        W84425  36.409   8.719  13.042
16085W        W84426  20.668  44.928   3.855
16086W        W84427  27.626  17.093   1.915
16087W        W84428  19.262  30.507  10.962
16088W        W84429  32.118   8.707  11.494
16089W        W84430  30.985   4.357  13.856
16090W        W84431  14.644  10.684   2.888
16091W        W84432   4.710  10.320  10.605
16092W        W84433  41.807   2.921   2.300
16093W        W84434  44.438  42.373   3.180
16094W        W84435  16.623  38.507  10.609
16095W        W84436  33.473  11.702   5.141
16096W        W84437   8.863  12.343   3.368
16097W        W84438   1.945  34.544   3.229
16098W        W84439   8.259   4.265   3.808
16099W        W84440  41.382  30.447   0.414
16100W        W84441  23.238  28.974   2.873
16101W        W84442  11.250  10.820   5.181
16102W        W84443  42.351  37.037   1.342
16103W        W84444  34.983  27.192   3.717
16104W        W84445   0.826  43.925   4.128
16105W        W84446   2.793  24.163  14.380
16106W        W84447   1.830  10.205  12.515
16107W        W84448  32.118   2.278   4.130
16108W        W84449  18.784  24.178  10.597
16109W        W84450  36.560  21.561  12.548
16110W        W84451  20.245  13.269  14.460
16111W        W84452  41.023  37.028  12.043
16112W        W84453  32.570  27.942   3.249
16113W        W84454  38.835  44.308  13.465
16114W        W84455  18.695  13.296  13.321
16115W        W84456  30.525  29.038  12.574
16116W        W84457  12.717  40.468  10.515
16117W        W84458  32.532  15.792   1.873
16118W        W84459  38.876  27.097   3.148
16119W        W84460  14.099  15.228  14.785
16120W        W84461  29.123  35.543   3.666
16121W        W84462  37.847  22.054  10.446
16122W        W84463  19.768  16.078   2.792
16123W        W84464  35.905   4.814  13.315
16124W        W84465   8.238   7.733   4.677
16125W        W84466  10.292  21.137  12.525
16126W        W84467  11.714   1.792  11.965
16127W        W84468  20.043  20.559  12.879
16128W        W84469  16.685  21.641   1.276
16129W        W84470  32.962  40.504   1.836
16130W        W84471  44.895   0.432   0.426
16131W        W84472   6.335  32.467  11.906
16132W        W84473   5.846  36.513   1.927
16133W        W84474  10.766  13.112   3.224
16134W        W84475  25.052  38.838  12.362
16135W        W84476  28.583  41.853  11.500
16136W        W84477  17.660  43.314   4.820
16137W        W84478   3.842  15.810  10.486
16138W        W84479  14.149  41.031  12.990
16139W        W84480  25.113  23.035   4.311
16140W        W84481  43.443  39.483   4.701
16141W        W84482  11.302  35.411  12.899
16142W        W84483  29.014  44.991   3.327
16143W        W84484  42.516   5.763   4.686
16144W        W84485  15.325  25.977   3.776
16145W        W84486  41.888   7.188   4.808
16146W        W84487  16.590  20.655  12.397
16147W        W84488  20.555  33.013   1.218
16148W        W84489  30.631   6.894  11.602
16149W        W84490   6.844  14.133   0.945
16150W        W84491  30.506  37.977   2.806
16151W        W84492  16.212  39.349   0.365
16152W        W84493  27.028   9.219   0.286
16153W        W84494  38.901  25.180   2.717
16154W        W84495  22.041  24.612  12.484
16155W        W84496  18.251  35.852  11.422
16156W        W84497   8.296  20.548   2.725
16157W        W84498   8.816  27.520   2.880
16158W        W84499  31.429  42.908  14.029
16159W        W84500  21.032  13.201  13.896
16160W        W84501  32.023  44.951  13.497
16161W        W84502  36.416  23.630   4.270
16162W        W84503   6.870  29.505   2.702
16163W        W84504  39.945  15.183   4.656
16164W        W84505  31.960   2.367   1.373
16165W        W84506  25.614  25.209  14.329
16166W        W84507  26.018   6.287  11.893
16167W        W84508   8.773  29.091  11.526
16168W        W84509  42.990  34.541   0.382
16169W        W84510  40.314  42.336  11.514
16170W        W84511   9.850   9.785   5.173
16171W        W84512   0.987  17.706  12.534
16172W        W84513  14.659  18.191   2.330
16173W        W84514   0.870  36.865   4.209
16174W        W84515  43.858  18.551   0.339
16175W        W84516  30.560  21.637   1.809
16176W        W84517   9.765  33.131   4.787
16177W        W84518   1.403   7.357   1.932
16178W        W84519  36.972  11.753   4.638
16179W        W84520   9.206   7.300   3.837
16180W        W84521  20.526   1.453   4.741
16181W        W84522   9.775   8.669  11.371
16182W        W84523   5.879  13.346  13.412
16183W        W84524  25.106  27.463  14.993
16184W        W84525  14.259  13.836  14.838
16185W        W84526   6.354  19.213  13.517
16186W        W84527   9.180  41.342   2.869
16187W        W84528  11.155  43.286  12.569
16188W        W84529  33.546  42.880   2.384
16189W        W84530   4.851  24.070   1.367
16190W        W84531  17.280  29.572  13.439
16191W        W84532   8.314  23.502   4.634
16192W        W84533   5.407  17.193   4.115
16193W        W84534  11.846   1.446   4.281
16194W        W84535   6.824  40.385  12.577
16195W        W84536  29.425  27.637  11.905
16196W        W84537  11.169  33.902   0.250
16197W        W84538  16.155  37.027  10.915
16198W        W84539  14.744  15.764  12.405
16199W        W84540  34.937  19.691  14.986
16200W        W84541  12.250  17.629  11.028
16201W        W84542  14.287  43.506   4.347
16202W        W84543   9.206  11.655   3.380
16203W        W84544  14.589  10.217   1.260
16204W        W84545  37.335  20.059  13.356
16205W        W84546  19.244  15.680   3.803
16206W        W84547  35.435  35.101   0.470
16207W        W84548  17.117  23.185   0.284
16208W        W84549  20.549  12.617  11.470
16209W        W84550  12.256   7.263   3.646
16210W        W84551  16.120   4.242   1.826
16211W        W84552  26.672   1.807   2.862
16212W        W84553  41.950  44.357   2.722
16213W        W84554   3.270   5.807  12.955
16214W        W84555  36.967  14.150  12.972
16215W        W84556  28.609   0.303  13.905
16216W        W84557   9.367  28.608  12.970
16217W        W84558  33.976  42.902   1.261
16218W        W84559   4.847  31.042  12.368
16219W        W84560   5.254  11.706  14.915
16220W        W84561  19.745  20.156   5.298
16221W        W84562  36.514  41.006  14.007
16222W        W84563   2.739  43.935   3.836
16223W        W84564  20.654  16.672   3.321
16224W        W84565   0.820  25.546   1.698
16225W        W84566   8.313  35.947   3.845
16226W        W84567  30.080  16.140  14.815
16227W        W84568  38.513   2.424   2.399
16228W        W84569   4.841  37.032   2.291
16229W        W84570   9.689  38.829   0.868
16230W        W84571  10.864  33.443   3.808
16231W        W84572  29.086   1.960   2.182
16232W        W84573   7.834  31.026  13.319
16233W        W84574  11.172  11.340  10.523
16234W        W84575  38.436  26.616   5.114
16235W        W84576  34.407  29.558  10.922
16236W        W84577  43.925  27.111  13.915
16237W        W84578   5.395  18.779   2.829
16238W        W84579  43.821  21.142   4.637
16239W        W84580  13.296  10.669  13.942
16240W        W84581  27.122  44.908  11.105
16241W        W84582  29.576  38.427  10.939
16242W        W84583  17.160   6.869  14.783
16243W        W84584   0.352  22.087   1.296
16244W        W84585   1.945  24.112   3.336
16245W        W84586  27.544  36.412   2.386
16246W        W84587  33.000   1.844   1.748
16247W        W84588  27.530  32.499  12.453
16248W        W84589  10.366  32.450   3.273
16249W        W84590  44.500   4.312   2.730
16250W        W84591  15.756   1.823  14.905
16251W        W84592  13.685  14.682   3.630
16252W        W84593   0.884  10.165  12.424
16253W        W84594  25.000  37.469   3.736
16254W        W84595  25.141   9.748   0.449
16255W        W84596  34.068  44.790  11.886
16256W        W84597   6.415   0.851  12.440
16257W        W84598   3.909  35.878  12.838
16258W        W84599  10.183  25.700  13.049
16259W        W84600  44.324  15.726   4.623
16260W        W84601  34.973  33.581   2.793
16261W        W84602  23.711  18.740  13.839
16262W        W84603  16.129  40.997   4.131
16263W        W84604  29.965  26.012   1.387
16264W        W84605   8.177  13.164  14.277
16265W        W84606  29.620   3.251   1.268
16266W        W84607   2.405  40.324  14.390
16267W        W84608  42.383  16.582   4.210
16268W        W84609  35.447  32.078  11.092
16269W        W84610  16.135  42.973  14.355
16270W        W84611  27.530   6.758   3.742
16271W        W84612  39.036  42.354   1.315
16272W        W84613  35.367  12.740  13.017
16273W        W84614  23.021  36.458  12.854
16274W        W84615   4.923  38.054  13.858
16275W        W84616  19.702   3.371  11.929
16276W        W84617  44.258  28.443   0.257
16277W        W84618   0.819  27.984   3.194
16278W        W84619  32.079  13.739  13.797
16279W        W84620  40.328   2.413  11.572
16280W        W84621  36.925  32.933   4.636
16281W        W84622  43.910   9.700  12.054
16282W        W84623   7.255   6.364  10.928
16283W        W84624  28.158   4.721   0.736
16284W        W84625   8.360  37.891   2.700
16285W        W84626   4.381  20.581  11.045
16286W        W84627  43.373   7.260   3.633
16287W        W84628   8.845  26.534   4.627
16288W        W84629  13.790  14.163  10.475
16289W        W84630  13.271  42.297  13.927
16290W        W84631   7.274  43.961   4.704
16291W        W84632  32.037   2.271   2.706
16292W        W84633  39.878  38.337  12.952
16293W        W84634  42.849  34.579  13.311
16294W        W84635  13.754  12.335  11.457
16295W        W84636  41.893  35.583  13.461
16296W        W84637  25.477  44.484   0.827
16297W        W84638  25.504  42.989   4.240
16298W        W84639  26.156  44.340  14.852
16299W        W84640  20.228  37.447   4.264
16300W        W84641  27.486   6.397  14.406
16301W        W84642  29.133  31.047   3.778
16302W        W84643  21.525   9.201   3.281
16303W        W84644   3.802   6.348   1.230
16304W        W84645   6.423   7.894  14.308
16305W        W84646  41.943  19.760  11.072
16306W        W84647  23.081  33.492   0.312
16307W        W84648   8.363  10.743  11.424
16308W        W84649  20.635  13.817   3.695
16309W        W84650  22.596  32.561   4.720
16310W        W84651  24.052  13.744   1.701
16311W        W84652  31.576  40.537   0.953
16312W        W84653  42.360  37.483   4.144
16313W        W84654  12.129  35.486   3.758
16314W        W84655  19.141   8.754   0.397
16315W        W84656  10.163  11.704  13.978
16316W        W84657   0.269  29.612   0.875
16317W        W84658   4.898  34.042  13.382
16318W        W84659  24.499  29.020  13.543
16319W        W84660  44.376   9.177   1.316
16320W        W84661  26.029  34.017  14.814
16321W        W84662  15.272  20.047  11.592
16322W        W84663  34.413  20.645  13.806
16323W        W84664   3.783   0.312  14.887
16324W        W84665  23.528  29.035  10.499
16325W        W84666  22.580  39.856   3.240
16326W        W84667   8.379   5.329   1.417
16327W        W84668  19.266  39.880  11.025
16328W        W84669  41.794  24.703   4.748
16329W        W84670  40.539  42.387   1.819
16330W        W84671  28.564  16.670   0.825
16331W        W84672  34.049  17.130   3.315
16332W        W84673  34.110  13.239  12.557
16333W        W84674  19.776  13.237  11.923
16334W        W84675  21.085  15.213  13.023
16335W        W84676   6.366  39.350   4.683
16336W        W84677   0.468  13.164   0.407
16337W        W84678  13.119  38.913   1.742
16338W        W84679  27.051  27.628   5.278
16339W        W84680  40.443   0.919   1.343
16340W        W84681  12.188  12.272   0.322
16341W        W84682  28.651  40.447   0.433
16342W        W84683  38.438  26.681   0.429
16343W        W84684  22.521  15.249   2.688
16344W        W84685  19.614  30.087   0.273
16345W        W84686  22.663  39.951  12.929
16346W        W84687  22.585  13.308  13.878
16347W        W84688  15.293  28.976  13.801
16348W        W84689  16.766  13.154   3.744
16349W        W84690  34.612  18.087   0.444
16350W        W84691  35.942  31.630  13.855
16351W        W84692  37.539   7.847   1.335
16352W        W84693  29.166   8.290   0.779
16353W        W84694   7.261  15.796   4.704
16354W        W84695   5.370  28.628  10.563
16355W        W84696  31.465   7.247  13.437
16356W        W84697   8.836  18.634  11.438
16357W        W84698   6.775  12.326   4.346
16358W        W84699  28.931  33.027   4.221
16359W        W84700  31.071  37.045   3.690
16360W        W84701  25.689  44.264  12.044
16361W        W84702  44.757  22.746   2.298
16362W        W84703  24.225  36.004  12.833
16363W        W84704  29.097   7.888  11.545
16364W        W84705   8.338  35.602  14.435
16365W        W84706   6.752  15.822  10.089
16366W        W84707  28.967  43.463  14.449
16367W        W84708  17.720  21.571   0.885
16368W        W84709  18.568  10.848   2.893
16369W        W84710  30.936  19.687  10.431
16370W        W84711   9.281  15.663  11.000
16371W        W84712  19.201  19.215   3.182
16372W        W84713  25.982  25.001   0.437
16373W        W84714   0.874   5.428   0.775
16374W        W84715  13.721   7.725   3.289
16375W        W84716  21.181  32.099  14.023
16376W        W84717  44.414  28.182  13.328
16377W        W84718  35.985  37.372  11.374
16378W        W84719   6.398  16.157   4.793
16379W        W84720   2.332  35.372  14.853
16380W        W84721  44.886   1.285  13.343
16381W        W84722  37.920  25.113  10.982
16382W        W84723   8.814   6.212  13.844
16383W        W84724   8.182  10.750   4.661
16384W        W84725  39.471  19.222  14.793
16385W        W84726  24.508  17.705   2.205
16386W        W84727  40.360  31.629  14.885
16387W        W84728  39.842   5.876   2.251
16388W        W84729  12.804  19.557  14.513
16389W        W84730  18.726  25.184   9.977
16390W        W84731   5.844  20.731   1.327
16391W        W84732  39.400   2.257  12.056
16392W        W84733  37.440  14.239   2.391
16393W        W84734  23.989  37.350  10.962
16394W        W84735  32.541  13.273   4.121
16395W        W84736  26.016  13.141  13.322
16396W        W84737  13.601  43.894  13.028
16397W        W84738   5.717  24.705   2.686
16398W        W84739  14.673   1.477   1.233
16399W        W84740  13.716  36.387   1.345
16400W        W84741  13.673  40.037  14.979
16401W        W84742  18.585  10.380  12.371
16402W        W84743  27.581   0.914  10.556
16403W        W84744  14.767   7.800  10.586
16404W        W84745  31.023  12.303   2.269
16405W        W84746   6.218  15.107   1.857
16406W        W84747   6.916  22.142   2.227
16407W        W84748  29.543  35.899   1.395
16408W        W84749   0.426  22.702  13.803
16409W        W84750  25.684  34.879  11.977
16410W        W84751  33.875  37.997  13.923
16411W        W84752  42.851  20.224   1.385
16412W        W84753  13.245   9.656   4.210
16413W        W84754   8.656  14.748  10.576
16414W        W84755  15.300  25.099   0.872
16415W        W84756  39.973  22.146   2.792
16416W        W84757   4.790  25.055  13.849
16417W        W84758  13.794  41.802  14.958
16418W        W84759   1.465  26.586   3.855
16419W        W84760  36.065  30.501   1.928
16420W        W84761  34.092  25.129  14.339
16421W        W84762  25.129  41.442  14.766
16422W        W84763   3.218   8.846   1.410
16423W        W84764  38.949  39.809  10.638
16424W        W84765   7.721  16.799  12.529
16425W        W84766   4.753   8.785   4.144
16426W        W84767  34.434  31.522   3.323
16427W        W84768  14.816  41.913   2.200
16428W        W84769  25.064   5.785   1.302
16429W        W84770  29.965   6.792  11.068
16430W        W84771  34.601   7.290  13.309
16431W        W84772  42.320  28.103  11.108
16432W        W84773  30.644  36.519  11.089
16433W        W84774  40.872  27.564  11.427
16434W        W84775  35.043  14.162   1.738
16435W        W84776  29.583  12.786   4.838
16436W        W84777  19.102  44.785   4.722
16437W        W84778  29.635  35.877  11.380
16438W        W84779  16.300  44.967  13.329
16439W        W84780  19.766  12.274   0.743
16440W        W84781  36.015  23.700   3.650
16441W        W84782  34.003  24.076  11.581
16442W        W84783  25.474   0.864  11.439
16443W        W84784  42.860  40.392  10.997
16444W        W84785  35.552  29.511  10.637
16445W        W84786  22.608   2.812  11.991
16446W        W84787  44.279  11.233   0.325
16447W        W84788  17.280  37.435  11.374
16448W        W84789  20.688  13.645   2.189
16449W        W84790  10.289  21.178  10.457
16450W        W84791   3.791   7.731   3.148
16451W        W84792   4.934  39.478  11.099
16452W        W84793  36.061  16.758  14.976
16453W        W84794  33.594  29.031   3.324
16454W        W84795  26.992   1.401   3.168
16455W        W84796  44.838   7.798   1.770
16456W        W84797   9.229  13.716   3.710
16457W        W84798   3.917   3.835  10.567
16458W        W84799   0.300   3.868   4.705
16459W        W84800  39.843  24.682   1.370
16460W        W84801  18.674  15.121  12.449
16461W        W84802  16.278  37.384  11.040
16462W        W84803   3.746   1.776  13.057
16463W        W84804  17.632  32.926  12.083
16464W        W84805  34.550  18.783  12.458
16465W        W84806  24.213  35.454   4.713
16466W        W84807  31.904   3.953  12.011
16467W        W84808  10.833  22.693   1.217
16468W        W84809  42.803  29.601  11.488
16469W        W84810  13.683   9.676   4.798
16470W        W84811  10.246  18.070   2.857
16471W        W84812   2.838  42.924   4.610
16472W        W84813  16.076  19.647  11.091
16473W        W84814  19.073   4.706  14.431
16474W        W84815  13.231  38.392   5.573
16475W        W84816  17.701  42.841   2.383
16476W        W84817  31.637  33.982   3.654
16477W        W84818  17.190  21.080  14.441
16478W        W84819  39.550   7.900  14.301
16479W        W84820  13.636  13.777   3.809
16480W        W84821  16.595  26.029   4.651
16481W        W84822  44.834   4.928   2.181
16482W        W84823  33.383  10.310  12.864
16483W        W84824  43.961  11.262  14.417
16484W        W84825  40.313   2.384   0.468
16485W        W84826  12.631  21.744  13.021
16486W        W84827  18.094  23.156  11.001
16487W        W84828   9.281  37.832  10.526
16488W        W84829   4.705  17.107   4.823
16489W        W84830  16.249  37.471   4.793
16490W        W84831  44.878  36.509  13.060
16491W        W84832   2.366  40.509   0.277
16492W        W84833   9.863  39.335  13.473
16493W        W84834  34.088  34.963  13.346
16494W        W84835  34.379   6.796   3.644
16495W        W84836  21.650   0.427   3.793
16496W        W84837  13.813  31.993  12.488
16497W        W84838  13.845  27.051  12.511
16498W        W84839  30.926   5.358  12.526
16499W        W84840  44.955  35.889   4.772
16500W        W84841   5.201  38.067   0.316
16501W        W84842  27.014  22.650  11.047
16502W        W84843  18.100  12.224   4.702
16503W        W84844  43.301  33.418  12.538
16504W        W84845  37.921  22.729  11.461
16505W        W84846  22.196   4.413  13.462
16506W        W84847  44.845  24.507   4.838
16507W        W84848  34.100   4.936   0.432
16508W        W84849   8.810  39.982  14.324
16509W        W84850  11.663  32.609   0.293
16510W        W84851  27.545  14.111   4.622
16511W        W84852   2.241  12.253   0.826
16512W        W84853  28.109  34.112   2.694
16513W        W84854  15.139  36.849  10.478
16514W        W84855  31.972  42.403   2.777
16515W        W84856   5.852  31.111   1.751
16516W        W84857  43.826  11.363   1.855
16517W        W84858  34.502  28.543  10.412
16518W        W84859  17.666  22.050   1.780
16519W        W84860  35.370   4.425   0.355
16520W        W84861  32.401   5.784   1.904
16521W        W84862  31.035  23.015  14.388
16522W        W84863  15.607  41.421  10.432
16523W        W84864  23.548   8.385   0.345
16524W        W84865  24.711  44.368  14.998
16525W        W84866   1.481  40.942   0.868
16526W        W84867   3.886  18.123  14.761
16527W        W84868  29.035  26.465   0.951
16528W        W84869   5.794   2.825  11.526
16529W        W84870  30.104  19.207   1.446
16530W        W84871  14.770  38.041  12.072
16531W        W84872  23.493  12.207  13.412
16532W        W84873  39.881  41.005  10.947
16533W        W84874  12.726  12.856  10.552
16534W        W84875  29.448   6.417  11.102
16535W        W84876  36.569   6.191  10.415
16536W        W84877   1.481  34.944  14.434
16537W        W84878  32.117   1.476   2.851
16538W        W84879   5.918   6.855   1.836
16539W        W84880  31.931  43.449   5.218
16540W        W84881  38.889  44.845  14.506
16541W        W84882  36.018  31.024   3.370
16542W        W84883  24.098  22.730   0.369
16543W        W84884  40.891  24.017  11.603
16544W        W84885  22.141  34.444  14.820
16545W        W84886   9.376  20.228  14.437
16546W        W84887  33.569  37.082  10.055
16547W        W84888  20.573   4.698   1.780
16548W        W84889  36.998  42.896   3.308
16549W        W84890  17.713  40.016   3.244
16550W        W84891  29.543  29.462   5.126
16551W        W84892  20.552  23.008  12.391
16552W        W84893  28.598   0.916  12.365
16553W        W84894  34.904  32.016   3.384
16554W        W84895  31.413  13.707   0.301
16555W        W84896  19.672  22.569   0.297
16556W        W84897   6.377  24.124   5.108
16557W        W84898   3.724  20.119  10.476
16558W        W84899  34.074  19.539  12.831
16559W        W84900   7.859  44.423   0.947
16560W        W84901  31.472  37.415   2.238
16561W        W84902  15.271  32.929   0.357
16562W        W84903   0.309  32.040  13.907
16563W        W84904  25.060  34.896  11.015
16564W        W84905  40.313  20.563   2.888
16565W        W84906  10.879  43.373  10.591
16566W        W84907   7.733  31.110  11.954
16567W        W84908  22.243  37.374  10.909
16568W        W84909  39.044   3.862  10.928
16569W        W84910  20.232  20.563   4.763
16570W        W84911  40.469  25.571  10.549
16571W        W84912  29.429  19.655   2.193
16572W        W84913  24.545  23.172  12.961
16573W        W84914  36.377  42.887  10.080
16574W        W84915  13.347  28.472   3.171
16575W        W84916   2.924  24.567  13.350
16576W        W84917  27.467  22.054   0.479
16577W        W84918   5.294  21.053  13.372
16578W        W84919  13.345  20.648   2.236
16579W        W84920  15.316   7.286  13.027
16580W        W84921  20.184  26.978   1.263
16581W        W84922  44.423  35.918  11.055
16582W        W84923  35.096  22.198  10.957
16583W        W84924  18.576  14.831  13.471
16584W        W84925  20.182  39.541  11.539
16585W        W84926  35.952  15.202  11.969
16586W        W84927  17.163   9.697  11.528
16587W        W84928   1.821  18.187  13.006
16588W        W84929  16.221  22.033   4.178
16589W        W84930  29.606  26.604   3.642
16590W        W84931  30.044  20.733  14.945
16591W        W84932  26.556   4.707  10.614
16592W        W84933   5.750   9.854   4.204
16593W        W84934  24.544  31.072  14.324
16594W        W84935  13.205  15.784   0.480
16595W        W84936  13.795  20.615  12.083
16596W        W84937  37.428   5.778   3.722
16597W        W84938  25.504  33.389  12.082
16598W        W84939   8.853  17.130   1.397
16599W        W84940  41.954  18.668   1.397
16600W        W84941  20.232  11.808   3.731
16601W        W84942  42.360   6.345   3.158
16602W        W84943   7.223  38.325   3.631
16603W        W84944  45.000   1.820   0.767
16604W        W84945  38.498  18.703   2.209
16605W        W84946  41.494   0.472  13.830
16606W        W84947   4.803  25.048   5.286
16607W        W84948   0.248   3.422  11.917
16608W        W84949  13.702   9.332  12.914
16609W        W84950  43.986   4.719   2.787
16610W        W84951   5.438  39.319   1.280
16611W        W84952  29.159  13.349   2.741
16612W        W84953   7.284  31.568  13.959
16613W        W84954   9.765  31.490  12.467
16614W        W84955  35.570   6.814   0.918
16615W        W84956   5.376  44.387  11.398
16616W        W84957  11.688  40.457   5.293
16617W        W84958  28.036  28.083   1.723
16618W        W84959  36.349   6.855  11.416
16619W        W84960  23.651   0.900   1.320
16620W        W84961  40.415  37.424  13.508
16621W        W84962  36.590  11.813   5.229
16622W        W84963  39.394   8.363  10.431
16623W        W84964  22.046  43.379  12.422
16624W        W84965  40.902  43.384  10.926
16625W        W84966  26.160  35.897  11.110
16626W        W84967  23.040  36.960  13.808
16627W        W84968   6.873  20.582  10.919
16628W        W84969  18.259   5.389  13.387
16629W        W84970  29.524  28.062  11.018
16630W        W84971  41.450  28.972   2.803
16631W        W84972   8.234  44.261   0.479
16632W        W84973  43.947   7.865   4.189
16633W        W84974  29.097   6.213  13.962
16634W        W84975  41.036   3.915  11.103
16635W        W84976  26.698  41.317   4.238
16636W        W84977  11.738  20.682  13.465
16637W        W84978  38.887  23.590   1.707
16638W        W84979  40.380  35.399  11.871
16639W        W84980  27.005  20.556  13.831
16640W        W84981  42.920  17.302  13.334
16641W        W84982   6.776  28.099  12.475
16642W        W84983  19.628   8.846   3.335
16643W        W84984   0.452   8.371   0.260
16644W        W84985  13.640  37.547  14.839
16645W        W84986  36.502  37.036   1.226
16646W        W84987   3.420  18.699   1.852
16647W        W84988  44.844  25.029  13.971
16648W        W84989  32.991  16.124  13.870
16649W        W84990  41.909  29.620   5.250
16650W        W84991  10.197   5.894   2.345
16651W        W84992  31.473  18.662  10.891
16652W        W84993  25.625  20.206  12.016
16653W        W84994   6.202   7.793   3.220
16654W        W84995   1.365  43.807  11.955
16655W        W84996   4.749  39.352  14.352
16656W        W84997  31.648   9.777  11.929
16657W        W84998  43.885  40.022  14.804
16658W        W84999   7.762  23.736  14.304
16659W        W85000  22.602  16.656  10.631
16660W        W85001  22.164  22.046   4.638
16661W        W85002   3.943  10.259   1.876
16662W        W85003   6.689  23.092  11.440
16663W        W85004  17.183   7.786  12.507
16664W        W85005  28.655  27.079  13.012
16665W        W85006  41.027  35.984  13.973
16666W        W85007   5.853  30.501   3.155
16667W        W85008  34.983  43.379  14.330
16668W        W85009   6.700  29.545   3.775
16669W        W85010  14.272  25.202   2.747
16670W        W85011  25.185  29.625  10.498
16671W        W85012   4.223  35.582  14.766
16672W        W85013  25.092  24.527  14.874
16673W        W85014  24.204  15.214   2.857
16674W        W85015  32.503  12.148   3.678
16675W        W85016  35.982  28.085   1.333
16676W        W85017   1.454  29.981  10.931
16677W        W85018  11.280  22.227   1.819
16678W        W85019  18.157   8.744  10.486
16679W        W85020  27.632  42.487  12.478
16680W        W85021  26.139   6.837  13.545
16681W        W85022   5.813   8.276   1.910
16682W        W85023   7.349   4.298   0.320
16683W        W85024  37.440   7.706   2.191
16684W        W85025   4.298  38.502   0.293
16685W        W85026   6.382  35.908   3.215
16686W        W85027  41.917  40.477  14.020
16687W        W85028  42.855  25.600   2.198
16688W        W85029  19.603  28.111  10.518
16689W        W85030   1.257  21.106   1.899
16690W        W85031   2.347  14.275  14.031
16691W        W85032  35.577  14.260  10.957
16692W        W85033  35.872   0.379   3.685
16693W        W85034  12.301   4.249   0.891
16694W        W85035  20.700   2.747   4.674
16695W        W85036  16.809  39.828  12.969
16696W        W85037   8.869  15.596  12.995
16697W        W85038  38.447  26.061  12.407
16698W        W85039  23.140   0.908   0.295
16699W        W85040  27.525   7.230  14.032
16700W        W85041  15.164  33.587   3.321
16701W        W85042   5.860  36.439  13.986
16702W        W85043   5.276  10.810  13.452
16703W        W85044  22.728   3.287   4.623
16704W        W85045  24.606  23.610  14.924
16705W        W85046  25.554  31.003  10.459
16706W        W85047  41.935   0.471  14.903
16707W        W85048   1.811   6.281   3.183
16708W        W85049   0.798  19.184  11.508
16709W        W85050  42.297  28.664  14.459
16710W        W85051   0.859  15.614  10.423
16711W        W85052   1.455  25.682   4.691
16712W        W85053  25.629  20.190  13.826
16713W        W85054  14.800   1.818  13.514
16714W        W85055   9.361   2.793   1.874
16715W        W85056  44.854  18.715  14.390
16716W        W85057  36.975  14.602   2.246
16717W        W85058  25.161  35.553   2.886
16718W        W85059  23.106   5.866  13.797
16719W        W85060  30.070  17.679   0.345
16720W        W85061  22.037  27.651   3.714
16721W        W85062   4.853  10.165   1.779
16722W        W85063  32.476  35.079  11.035
16723W        W85064  33.547  30.013  12.056
16724W        W85065   3.856  30.980   0.471
16725W        W85066   6.731  21.135  14.434
16726W        W85067  39.430   2.279  10.506
16727W        W85068  17.601   1.740   4.823
16728W        W85069  38.976  26.646  10.014
16729W        W85070  18.276  44.486   3.865
16730W        W85071  39.384  13.349  12.081
16731W        W85072   1.798   4.294   4.837
16732W        W85073   1.962   7.363   0.363
16733W        W85074   8.291  18.627   0.876
16734W        W85075  40.334  42.300   5.202
16735W        W85076  15.586  31.549  12.548
16736W        W85077  26.082   8.759   4.741
16737W        W85078  38.920  24.577  12.456
16738W        W85079   3.450  28.653   1.753
16739W        W85080  34.476  43.374   3.702
16740W        W85081  42.365  10.378  13.849
16741W        W85082   4.860  36.013  13.877
16742W        W85083   0.879  20.708   5.124
16743W        W85084   5.392  17.706  13.357
16744W        W85085   8.692   1.430   4.801
16745W        W85086  25.636  14.148   4.227
16746W        W85087   3.882   6.210   0.304
16747W        W85088   4.755  13.223   0.280
16748W        W85089   7.302  38.952  14.448
16749W        W85090   7.358  16.579  12.067
16750W        W85091   7.847  17.684  11.926
16751W        W85092   8.335  37.908   2.304
16752W        W85093  18.113  26.460   1.326
16753W        W85094  33.519  39.499   0.253
16754W        W85095  28.133  38.971   0.387
16755W        W85096  28.148  28.660  13.892
16756W        W85097   9.311  27.992  11.404
16757W        W85098   1.759  34.403  14.494
16758W        W85099  31.516  12.271  11.857
16759W        W85100  28.948   3.406   3.631
16760W        W85101  26.608  43.783   3.209
16761W        W85102  18.118  12.610   1.928
16762W        W85103  18.092  42.516   3.675
16763W        W85104  43.809   6.237   2.867
16764W        W85105  13.278  11.819   2.199
16765W        W85106  28.092  13.341   2.346
16766W        W85107  33.928  38.852  12.960
16767W        W85108  32.610   2.803  12.355
16768W        W85109  26.554  38.843   4.731
16769W        W85110  42.386  26.488  13.818
16770W        W85111  36.392  26.583  12.524
16771W        W85112  12.622  28.965   1.344
16772W        W85113  25.522  33.414   2.282
16773W        W85114  35.419  27.182  14.477
16774W        W85115  33.893  22.683   1.352
16775W        W85116  33.990   9.846  12.904
16776W        W85117  39.969  12.294   2.397
16777W        W85118  19.146  33.072  11.032
16778W        W85119  26.004  14.770   3.196
16779W        W85120  13.239  31.498  12.838
16780W        W85121   4.326  33.102   4.813
16781W        W85122  14.134  26.109  11.437
16782W        W85123  31.593  13.757   2.767
16783W        W85124  24.156   2.415  11.980
16784W        W85125  29.428  23.137  13.973
16785W        W85126  39.065   6.216   4.724
16786W        W85127  11.812   0.794  11.495
16787W        W85128   0.779  15.160  10.914
16788W        W85129  34.893   1.784  10.443
16789W        W85130  44.872  25.119   4.203
16790W        W85131  13.686   1.971  13.986
16791W        W85132  27.637  14.590   2.864
16792W        W85133  18.760  27.500  14.432
16793W        W85134  13.105  36.067  10.965
16794W        W85135  28.659   6.755   0.773
16795W        W85136  28.033  34.462   3.306
16796W        W85137  29.480  32.460  11.915
16797W        W85138  44.776  13.174  12.056
16798W        W85139  13.240   2.755  11.970
16799W        W85140  27.030  24.700  13.811
16800W        W85141  15.746  31.997   0.750
16801W        W85142  29.045  34.091  14.356
16802W        W85143  26.677  15.645   1.437
16803W        W85144   1.320  37.086  11.471
16804W        W85145   7.677  32.479   1.880
16805W        W85146  16.791   4.241   2.222
16806W        W85147   3.450   9.157   4.289
16807W        W85148  18.223   1.890  14.428
16808W        W85149   0.279  21.598  12.960
16809W        W85150  17.798  24.108   4.334
16810W        W85151  22.613  12.348  13.506
16811W        W85152  11.262  32.048   4.736
16812W        W85153  18.679  21.175  13.875
16813W        W85154   9.665   5.334  13.980
16814W        W85155  13.727   7.298   4.600
16815W        W85156   6.403  37.572   5.286
16816W        W85157  16.778  28.960  14.338
16817W        W85158  22.615  28.942   2.321
16818W        W85159  15.287  34.545   0.280
16819W        W85160  17.135  23.693  14.911
16820W        W85161  30.557  41.409  13.402
16821W        W85162  17.702  28.530   3.192
16822W        W85163  38.508  29.459  14.890
16823W        W85164  11.252  17.765   0.759
16824W        W85165   4.364  16.808  13.435
16825W        W85166  43.351  30.536   1.863
16826W        W85167   9.360  34.012  13.485
16827W        W85168  39.029  25.036   0.460
16828W        W85169   7.301  23.556  11.945
16829W        W85170  25.144  22.596   3.273
16830W        W85171  34.427  44.383   4.765
16831W        W85172  15.249  28.439   0.845
16832W        W85173  28.479  15.598  14.383
16833W        W85174  13.820  38.509   3.271
16834W        W85175   1.387   5.728   3.246
16835W        W85176  41.412  30.623  13.933
16836W        W85177  37.535   7.374   1.867
16837W        W85178  39.508  35.495  12.912
16838W        W85179  29.933  28.036   1.762
16839W        W85180   7.248  15.650   2.205
16840W        W85181  35.429  21.542   0.817
16841W        W85182   3.778  34.502   4.186
16842W        W85183  38.570  26.488  13.334
16843W        W85184   5.767  43.816  10.969
16844W        W85185   7.695  33.427  13.852
16845W        W85186  27.032  11.153   4.720
16846W        W85187   3.442  38.338  13.526
16847W        W85188   8.217  32.059   3.674
16848W        W85189  26.056  44.760   4.256
16849W        W85190   8.820  30.541   3.824
16850W        W85191   1.913  17.714   5.243
16851W        W85192  39.479  25.033   2.407
16852W        W85193  12.207  24.132  13.028
16853W        W85194  31.472  17.673  14.411
16854W        W85195  42.348  32.052   3.830
16855W        W85196  14.272  43.919   0.814
16856W        W85197  30.016  29.987  10.409
16857W        W85198  34.494  21.129  12.092
16858W        W85199  18.205  22.044  11.458
16859W        W85200   1.250  35.408   0.772
16860W        W85201  25.194   4.333  10.413
16861W        W85202   3.414  34.392   3.346
16862W        W85203  35.029  39.822  12.057
16863W        W85204  44.971   0.331  14.451
16864W        W85205  18.052  22.644   2.363
16865W        W85206   9.259  13.610   1.908
16866W        W85207  16.207  30.599   4.610
16867W        W85208   6.183   2.466  13.485
16868W        W85209  44.348  39.992   5.167
16869W        W85210  18.756   0.934   0.477
16870W        W85211  15.310  17.161  11.527
16871W        W85212  32.429  24.104   1.885
16872W        W85213   6.768  10.139   4.342
16873W        W85214  26.514   8.243  11.064
16874W        W85215  16.644  27.556   4.818
16875W        W85216  29.927  41.379   2.254
16876W        W85217  21.593  18.147  14.466
16877W        W85218  20.631   7.193   3.698
16878W        W85219  37.042   8.245   2.419
16879W        W85220  35.935  24.008  13.395
16880W        W85221  27.594  20.537  14.966
16881W        W85222  11.164  32.625  12.396
16882W        W85223  17.593  32.628   9.501
16883W        W85224  31.601  36.848  13.957
16884W        W85225  22.526  17.129   1.444
16885W        W85226  36.519  13.690   2.898
16886W        W85227  20.242  27.071   4.837
16887W        W85228  27.189  14.325  13.482
16888W        W85229  39.015   6.809   3.780
16889W        W85230   5.406   1.918  12.506
16890W        W85231   8.685  38.969  13.455
16891W        W85232  18.198  16.153   0.951
16892W        W85233  23.189  21.154  14.954
16893W        W85234  40.855   6.377  14.921
16894W        W85235  32.615  29.540   4.321
16895W        W85236  39.508  24.493   3.183
16896W        W85237   9.700   7.384   1.298
16897W        W85238  37.020  11.172   0.854
16898W        W85239  38.478  34.062  13.046
16899W        W85240   7.289  36.987   3.356
16900W        W85241  16.146  38.026   1.887
16901W        W85242   2.809  39.491   1.405
16902W        W85243   5.314  31.629  13.938
16903W        W85244  26.630  35.917   0.768
16904W        W85245  34.089  29.464   4.795
16905W        W85246  31.485  29.582  12.838
16906W        W85247  44.828  12.272   3.379
16907W        W85248  25.713  21.743   0.298
16908W        W85249  11.682   9.155  13.017
16909W        W85250  23.623   2.395   3.245
16910W        W85251  40.335  13.695   1.742
16911W        W85252  40.020  36.501   4.769
16912W        W85253   0.899  22.179  14.993
16913W        W85254   5.300  43.007   1.424
16914W        W85255  20.054  32.016   5.286
16915W        W85256  30.658  19.708   0.843
16916W        W85257   4.274  44.372  12.039
16917W        W85258   6.871  30.133  11.519
16918W        W85259  19.166  17.183  11.380
16919W        W85260  19.117  11.673   0.244
16920W        W85261   0.329   6.298  14.968
16921W        W85262  27.580  29.926  10.554
16922W        W85263  43.479   1.428   1.430
16923W        W85264  31.042  18.055   5.185
16924W        W85265  32.073  10.648  11.592
16925W        W85266  26.624  43.495  12.472
16926W        W85267  30.156   2.464  10.913
16927W        W85268   8.767   6.746   0.727
16928W        W85269   1.420   6.293  10.623
16929W        W85270  10.665   7.792  14.513
16930W        W85271   1.913  20.123   5.277
16931W        W85272  19.571  14.659   2.291
16932W        W85273  41.960  36.587  13.058
16933W        W85274   2.323  13.250   3.171
16934W        W85275  23.194  24.193   2.300
16935W        W85276  12.679   6.692   0.462
16936W        W85277   5.335   1.269  13.926
16937W        W85278   6.864   5.207  13.429
16938W        W85279   8.379  32.511  13.482
16939W        W85280  39.413  18.566   0.961
16940W        W85281  41.833   4.420   2.843
16941W        W85282  36.975  23.653   0.928
16942W        W85283  18.103  39.852  13.329
16943W        W85284   8.820  34.589  10.572
16944W        W85285  19.774  26.077   4.605
16945W        W85286  21.199   5.858  13.927
16946W        W85287   2.809  43.795   3.159
16947W        W85288  39.481  21.082  12.000
16948W        W85289  39.893  32.069   4.136
16949W        W85290  44.796   4.940   0.312
16950W        W85291   3.428  10.838   2.359
16951W        W85292   2.878   1.958   0.444
16952W        W85293  42.359  31.139   0.409
16953W        W85294  44.861  31.624  10.993
16954W        W85295  43.412   8.872   2.416
16955W        W85296   6.715  26.026   0.831
16956W        W85297   2.341  12.233  10.963
16957W        W85298  21.709  22.156  12.918
16958W        W85299  42.916  31.029   3.817
16959W        W85300  12.713  27.112   2.877
16960W        W85301   2.966  12.363  10.984
16961W        W85302  32.990  18.675   0.404
16962W        W85303  17.789   4.245   3.760
16963W        W85304   5.687  11.269   2.357
16964W        W85305  32.465  14.708   0.294
16965W        W85306  36.992  28.609  12.410
16966W        W85307  26.557  31.016   0.839
16967W        W85308  29.619  29.514  12.560
16968W        W85309  15.599  17.256   1.333
16969W        W85310  13.785  22.240   4.270
16970W        W85311  23.505  16.656   3.380
16971W        W85312  13.837  43.853   1.849
16972W        W85313  37.390  42.377  13.489
16973W        W85314  15.297  26.692  12.942
16974W        W85315  15.741   3.434   0.862
16975W        W85316  37.960  17.204  11.927
16976W        W85317  26.652  20.524   4.133
16977W        W85318  31.580  28.563  10.437
16978W        W85319   6.739  10.215  11.061
16979W        W85320  11.174   2.248   3.666
16980W        W85321  23.094  41.355   1.320
16981W        W85322  40.409  37.469  10.056
16982W        W85323  31.154  10.321   1.835
16983W        W85324  21.109   0.484  14.295
16984W        W85325   1.327  32.557  13.429
16985W        W85326  21.656  11.263   0.949
16986W        W85327   7.338   5.369   3.299
16987W        W85328  25.081  18.145   0.247
16988W        W85329  28.582  18.714  11.506
16989W        W85330  26.520   7.260   3.736
16990W        W85331  40.846   9.231  14.007
16991W        W85332  14.710  22.680  13.948
16992W        W85333  40.381  39.502   0.431
16993W        W85334   7.676  31.920   5.173
16994W        W85335  23.499  10.323   2.367
16995W        W85336  26.074  43.396   0.316
16996W        W85337  42.381  32.079   4.838
16997W        W85338  39.992  33.969   2.828
16998W        W85339  28.560   6.698  13.362
16999W        W85340  21.700  32.459   0.789
17000W        W85341  10.335   4.420   1.773
17001W        W85342  38.864  35.997  12.360
17002W        W85343   6.184   0.473   4.775
17003W        W85344  28.633  16.222  11.124
17004W        W85345  15.237   0.802   3.643
17005W        W85346  12.800   2.743   2.886
17006W        W85347   3.428   0.849   2.401
17007W        W85348   2.765  15.664  12.942
17008W        W85349  34.615  35.101   2.712
17009W        W85350   2.946  26.538   3.305
17010W        W85351  22.564   7.704  10.941
17011W        W85352  26.090  38.382  12.527
17012W        W85353  36.094  37.839  13.909
17013W        W85354  29.043  42.836   5.166
17014W        W85355  41.526  44.818  11.027
17015W        W85356  24.615   6.917  12.456
17016W        W85357   1.803  34.437   4.242
17017W        W85358  43.491  33.104   1.362
17018W        W85359  39.479  33.958   3.769
17019W        W85360  30.997  34.467   2.705
17020W        W85361  11.329  44.924   3.638
17021W        W85362  41.437  39.917  11.080
17022W        W85363   0.393   9.826  11.923
17023W        W85364   5.718  38.378  12.875
17024W        W85365  27.649   1.382  14.990
17025W        W85366  40.000   6.323  13.811
17026W        W85367   7.843  44.987   0.385
17027W        W85368   1.746  12.150  10.493
17028W        W85369  44.003   7.350  13.399
17029W        W85370  14.779  28.450  11.991
17030W        W85371  32.931  34.892   3.270
17031W        W85372  31.454  41.895   1.900
17032W        W85373   2.733   8.368   2.773
17033W        W85374   5.384   0.466  13.547
17034W        W85375  22.512  30.421   3.365
17035W        W85376  27.662  12.134   4.179
17036W        W85377  34.590  40.307   3.203
17037W        W85378  13.318  10.372   2.747
17038W        W85379   6.869  34.501  11.070
17039W        W85380  20.608  35.465   1.407
17040W        W85381  24.027  36.090   0.735
17041W        W85382  23.636  33.563   0.320
17042W        W85383  36.431  36.547  14.370
17043W        W85384   1.850  39.870  13.005
17044W        W85385   7.267   5.339  12.495
17045W        W85386   8.754  22.549   0.282
17046W        W85387  37.875  30.524   1.326
17047W        W85388  30.558   9.816  11.117
17048W        W85389   6.816  36.959  12.429
17049W        W85390  42.514   4.365   3.813
17050W        W85391  24.064   8.735  10.002
17051W        W85392  27.098  35.481   4.317
17052W        W85393  19.195   8.289   0.857
17053W        W85394  32.491  23.991   4.773
17054W        W85395   4.239  21.175  11.922
17055W        W85396  28.681   0.381   3.651
17056W        W85397  36.847  38.396  10.633
17057W        W85398  39.461  37.981  14.946
17058W        W85399  31.430   8.709  10.950
17059W        W85400  29.081  19.647   3.735
17060W        W85401   7.336  25.051  12.025
17061W        W85402   4.314  19.623   4.184
17062W        W85403  25.528  26.047   2.812
17063W        W85404  38.498  44.008   2.346
17064W        W85405   2.250  28.041  11.952
17065W        W85406  37.903  29.070   2.285
17066W        W85407  19.179  32.445   1.247
17067W        W85408   7.202  11.332   4.790
17068W        W85409  44.776  15.673   0.319
17069W        W85410   2.229  17.699   2.750
17070W        W85411  17.678   8.859   4.317
17071W        W85412  23.119  41.330   4.196
17072W        W85413   9.837  35.049   4.653
17073W        W85414  19.597  16.121   4.709
17074W        W85415  35.064  17.125  12.970
17075W        W85416  31.076  17.719  14.283
17076W        W85417  13.780  10.693  12.024
17077W        W85418  11.239  25.165   4.763
17078W        W85419  15.684   9.685   2.363
17079W        W85420  35.545   9.198  12.453
17080W        W85421  32.924  27.153   2.338
17081W        W85422  16.581  10.739  11.113
17082W        W85423  38.379  41.378   1.825
17083W        W85424  12.321  26.558  14.324
17084W        W85425  22.734   6.916   3.168
17085W        W85426  24.656  14.672  10.911
17086W        W85427   8.823  17.563   1.785
17087W        W85428  30.117  44.908   4.178
17088W        W85429  17.248  22.652   2.270
17089W        W85430  24.697  40.535  14.992
17090W        W85431  29.988  20.700   0.917
17091W        W85432  29.977  36.414  14.965
17092W        W85433  34.466  27.528  12.420
17093W        W85434  39.866   9.717   1.846
17094W        W85435  11.757  40.380   9.950
17095W        W85436   9.675   7.741   2.268
17096W        W85437   1.869  26.703   4.647
17097W        W85438   7.319   3.255  12.538
17098W        W85439  26.200  19.227  13.862
17099W        W85440  28.948  40.400   4.279
17100W        W85441   8.706  38.941   5.310
17101W        W85442  43.418  16.285  11.456
17102W        W85443  20.632   9.774   0.760
17103W        W85444  37.336  20.668   1.446
17104W        W85445   9.205  14.704   1.384
17105W        W85446   7.377  40.367   3.725
17106W        W85447  28.574  17.647   3.326
17107W        W85448  31.988  20.082   5.297
17108W        W85449  12.163  43.482   3.248
17109W        W85450  39.950  24.593  13.885
17110W        W85451  26.685  21.717  13.928
17111W        W85452   3.379  39.400   0.350
17112W        W85453  44.487  17.149  14.442
17113W        W85454  12.311  14.652   3.283
17114W        W85455  20.747  38.519  14.434
17115W        W85456   7.278  42.412  12.056
17116W        W85457  26.190   3.387   2.760
17117W        W85458  41.886   4.308   1.439
17118W        W85459  18.231  21.135  13.863
17119W        W85460  11.651   1.480  11.514
17120W        W85461  31.535  23.597   1.925
17121W        W85462   0.457  19.618   5.752
17122W        W85463  19.153  43.017   4.266
17123W        W85464  23.554  21.719  10.604
17124W        W85465  20.152  44.819   0.286
17125W        W85466  22.561  34.481   1.744
17126W        W85467  28.499  44.475   0.362
17127W        W85468  43.855   9.853   0.813
17128W        W85469  38.388  27.649  11.383
17129W        W85470   4.238  11.196   0.830
17130W        W85471  30.585   2.274  13.887
17131W        W85472  13.744   9.186   3.825
17132W        W85473  32.416  42.873  10.998
17133W        W85474  26.483   8.722   2.231
17134W        W85475  16.691  20.049  10.957
17135W        W85476  23.986  17.163  14.858
17136W        W85477  27.475  43.884  12.346
17137W        W85478  10.228  11.184  13.525
17138W        W85479  10.783  19.094   4.637
17139W        W85480   4.326   1.823  12.407
17140W        W85481   5.327  42.014   2.800
17141W        W85482   1.381  40.822   3.181
17142W        W85483   3.935  26.036  10.545
17143W        W85484  26.008  33.448  10.639
17144W        W85485  43.270  26.999   1.719
17145W        W85486   2.863  19.626   9.535
17146W        W85487  35.362   8.879   3.637
17147W        W85488  23.632  33.446   4.256
17148W        W85489  14.252  25.167   3.820
17149W        W85490  32.595   1.879   3.313
17150W        W85491  13.149   0.355  12.868
17151W        W85492  25.999  24.060  13.796
17152W        W85493  17.259  34.924   1.803
17153W        W85494  10.240  13.284   3.802
17154W        W85495   8.236   0.931  14.505
17155W        W85496  28.479   2.817  11.976
17156W        W85497  33.958  17.278   4.717
17157W        W85498  27.467  18.194   1.888
17158W        W85499  40.455  19.570  12.086
17159W        W85500  27.154  28.086   2.309
17160W        W85501  36.058   7.849  13.401
17161W        W85502  24.982  17.207   3.770
17162W        W85503  44.798   1.477   3.206
17163W        W85504  26.612  29.450  11.992
17164W        W85505   1.367  16.754   2.267
17165W        W85506  34.958  29.512   2.184
17166W        W85507  44.000  36.943  13.795
17167W        W85508  12.789  16.197   1.358
17168W        W85509   8.862  43.279   1.810
17169W        W85510  13.199  16.253  13.521
17170W        W85511  25.023  41.931   4.671
17171W        W85512  12.342  44.395   4.831
17172W        W85513  23.525  11.228  14.278
17173W        W85514  12.789  16.797   4.612
17174W        W85515  22.622  40.930  12.952
17175W        W85516  15.631  23.051  10.615
17176W        W85517  18.774  32.500   4.728
17177W        W85518  18.640  43.511   2.698
17178W        W85519   0.937   5.224   1.720
17179W        W85520  10.794  20.649  12.962
17180W        W85521  40.549   0.412   2.192
17181W        W85522  44.835  21.571   4.720
17182W        W85523  43.360  39.891  12.900
17183W        W85524  43.850  30.603  13.448
17184W        W85525   4.914  40.459  10.520
17185W        W85526  17.660  26.543   0.415
17186W        W85527   8.726  41.388  11.922
17187W        W85528  12.355   1.734  10.566
17188W        W85529  12.642  20.241   0.755
17189W        W85530  28.052  32.909  11.955
17190W        W85531  18.611  11.687   2.236
17191W        W85532  17.077  39.999  11.067
17192W        W85533  42.896   1.924  11.525
17193W        W85534  26.517  26.153   2.215
17194W        W85535  18.644  15.769  14.994
17195W        W85536  31.507  27.565  12.573
17196W        W85537  34.875  15.259   3.181
17197W        W85538  27.062  36.452   4.814
17198W        W85539  35.563   9.679   4.343
17199W        W85540   2.953  14.647   3.309
17200W        W85541  27.525  39.532   2.894
17201W        W85542   3.715  27.447   4.640
17202W        W85543  18.635  33.020   4.830
17203W        W85544   7.318  18.760  12.544
17204W        W85545   0.917  26.205  11.876
17205W        W85546   8.223  36.424  10.912
17206W        W85547  38.918  26.031   2.889
17207W        W85548  17.153  13.210   3.818
17208W        W85549  20.591  30.621   3.184
17209W        W85550  10.699  37.561  12.411
17210W        W85551  37.848  30.124   1.875
17211W        W85552  26.034  29.425  13.005
17212W        W85553  16.175  26.530  13.448
17213W        W85554  18.056   8.297   3.335
17214W        W85555   4.725  29.022   3.346
17215W        W85556  30.643   3.723  13.464
17216W        W85557  34.584  10.718  14.869
17217W        W85558  36.371  30.549   5.322
17218W        W85559  33.131  22.129  14.849
17219W        W85560  32.978  26.120  13.509
17220W        W85561  33.974   8.249   0.887
17221W        W85562  32.455  19.606  14.793
17222W        W85563  17.070  43.469  12.513
17223W        W85564  22.111   6.878  10.955
17224W        W85565  40.946  24.589  11.601
17225W        W85566  13.627  23.719  10.522
17226W        W85567  22.039   4.813  10.591
17227W        W85568   3.874   2.843   4.200
17228W        W85569  10.246  44.758  10.577
17229W        W85570  32.035  30.935  11.524
17230W        W85571   1.953  35.901   3.733
17231W        W85572  33.546  41.903  10.942
17232W        W85573  15.788  20.204   5.130
17233W        W85574  19.142  44.906   2.829
17234W        W85575  15.808  15.647   4.137
17235W        W85576   6.783  25.647   4.177
17236W        W85577  18.095  20.262  12.068
17237W        W85578  36.071   9.363  12.464
17238W        W85579  41.526  16.290  11.419
17239W        W85580   9.239  20.706   0.851
17240W        W85581  40.541  33.941  11.060
17241W        W85582  33.933  15.286   1.375
17242W        W85583  22.684  37.991   2.272
17243W        W85584  34.017  38.403  14.317
17244W        W85585  39.042   8.365   4.193
17245W        W85586  20.238  43.992  13.025
17246W        W85587  23.030  36.348   3.177
17247W        W85588  14.792  17.734   2.789
17248W        W85589  41.328  44.888   2.828
17249W        W85590  37.362  25.673  12.852
17250W        W85591  15.198   7.694   3.300
17251W        W85592  20.719  16.302   0.458
17252W        W85593   6.708  43.770   3.296
17253W        W85594  30.100  26.182   4.188
17254W        W85595  44.860  34.083   1.258
17255W        W85596  37.351  29.006  14.792
17256W        W85597  23.631  36.355   4.659
17257W        W85598  27.976   4.368   3.339
17258W        W85599  28.450  34.958  14.981
17259W        W85600  33.953  20.248  12.879
17260W        W85601  12.127  37.352  12.516
17261W        W85602   0.485  25.140  13.491
17262W        W85603  32.933  26.099  12.476
17263W        W85604  35.975  37.984   2.789
17264W        W85605  14.684  11.731   0.966
17265W        W85606  23.543  37.878   0.734
17266W        W85607  39.347  43.507   3.349
17267W        W85608  10.654  15.601   0.954
17268W        W85609  17.609  35.583   0.319
17269W        W85610  17.216   4.371  10.497
17270W        W85611   5.857  15.820   4.834
17271W        W85612  30.066  35.981   1.348
17272W        W85613  42.982   5.691   1.429
17273W        W85614  38.378  44.993   3.664
17274W        W85615  33.511  31.948  14.928
17275W        W85616   7.712  37.406  11.920
17276W        W85617  14.680   2.947  14.476
17277W        W85618  31.644  17.782   3.631
17278W        W85619  40.918  31.909  14.509
17279W        W85620   5.917   6.755   3.243
17280W        W85621  37.904  31.060  13.475
17281W        W85622  13.715  17.777  14.365
17282W        W85623   2.734   5.252  11.904
17283W        W85624  32.467  30.032  13.034
17284W        W85625   9.348  38.503   0.305
17285W        W85626  21.740   2.814   0.301
17286W        W85627  11.135  30.009   1.338
17287W        W85628  18.207   4.405   4.177
17288W        W85629  33.521  18.733  12.472
17289W        W85630  40.495  28.552   3.303
17290W        W85631  42.504  15.314  12.950
17291W        W85632   3.762   6.324   0.937
17292W        W85633  34.891  39.519   4.124
17293W        W85634  18.618  12.769   5.210
17294W        W85635  28.598   6.791  14.364
17295W        W85636   0.279  29.100  12.889
17296W        W85637  36.030  36.455   3.870
17297W        W85638  32.473  12.321  11.982
17298W        W85639  44.375  43.922  14.510
17299W        W85640  17.604  43.418  11.034
17300W        W85641   7.375  22.135   3.156
17301W        W85642  41.797  43.803   0.803
17302W        W85643  31.462  41.492  13.983
17303W        W85644  26.684   3.235   1.272
17304W        W85645  17.711  25.176  11.584
17305W        W85646  31.125  21.712  10.909
17306W        W85647  29.525  18.656  11.597
17307W        W85648  44.908  38.411   1.770
17308W        W85649  37.046  26.544   3.772
17309W        W85650  19.668  34.396   1.274
17310W        W85651  18.259  39.929   4.825
17311W        W85652  10.380   6.851   0.446
17312W        W85653  17.087  22.651  12.528
17313W        W85654  21.679   9.692  14.988
17314W        W85655  30.911  31.640  14.876
17315W        W85656  34.527   5.797  10.987
17316W        W85657  16.771  20.160  13.429
17317W        W85658  17.624  22.249   3.322
17318W        W85659  25.520  37.424   2.263
17319W        W85660  26.656   9.274   4.238
17320W        W85661  26.589   7.697   5.163
17321W        W85662  40.340   3.307  11.462
17322W        W85663   0.483  14.174  13.394
17323W        W85664  13.254  31.143   1.798
17324W        W85665  43.982  35.048   3.694
17325W        W85666  21.541   6.825  12.024
17326W        W85667  41.363  13.748   1.761
17327W        W85668  21.557  43.293  13.024
17328W        W85669  34.932  18.265  12.482
17329W        W85670   3.850  13.339  12.876
17330W        W85671  38.929  20.726   4.256
17331W        W85672  41.451   0.248  10.445
17332W        W85673   4.827  27.636   3.219
17333W        W85674  44.786   5.323   1.317
17334W        W85675   9.283   0.392  12.481
17335W        W85676  18.645   8.383   3.264
17336W        W85677   5.301  16.267   0.450
17337W        W85678  19.254  18.079   3.239
17338W        W85679  42.324  32.098  13.364
17339W        W85680   7.403  25.177   2.289
17340W        W85681  16.125  31.453  11.038
17341W        W85682  16.160  26.516  10.585
17342W        W85683  14.265  34.049   0.479
17343W        W85684  20.589  38.005   1.748
17344W        W85685  43.334  11.677  12.960
17345W        W85686  40.816  34.913   0.796
17346W        W85687  31.961  29.035  14.389
17347W        W85688  14.780  19.737   1.834
17348W        W85689   3.288  14.274   3.235
17349W        W85690  39.050  40.385   0.389
17350W        W85691   0.442  38.965   1.280
17351W        W85692  20.591  24.608  13.889
17352W        W85693   0.886  30.589  13.927
17353W        W85694  28.522  24.974  13.365
17354W        W85695  27.469  29.513  11.418
17355W        W85696  32.630  26.105   2.257
17356W        W85697  16.130   9.247   0.387
17357W        W85698  12.123   4.337  13.476
17358W        W85699  31.545  42.986  12.367
17359W        W85700  17.091  40.418  10.050
17360W        W85701   2.252  21.660   0.752
17361W        W85702  31.436  44.851   2.695
17362W        W85703  36.004  13.607  10.976
17363W        W85704  17.210  12.312   0.758
17364W        W85705   6.407   5.751  11.490
17365W        W85706  30.088  13.606   2.204
17366W        W85707  41.837   2.356  14.432
17367W        W85708  18.735   3.227   3.789
17368W        W85709   8.872  36.003  10.019
17369W        W85710  32.112  28.472  10.613
17370W        W85711   1.239  36.934  14.471
17371W        W85712  42.007  42.469   4.610
17372W        W85713  29.556  13.603  11.399
17373W        W85714  44.476  29.121   3.200
17374W        W85715  20.191   2.897   2.805
17375W        W85716  18.551   2.758   3.781
17376W        W85717  10.654  36.355  14.991
17377W        W85718  26.654  36.395  13.856
17378W        W85719  12.208  30.522  13.523
17379W        W85720  29.144  21.587  13.491
17380W        W85721  29.448  13.658   0.925
17381W        W85722  34.915  33.418   3.371
17382W        W85723  41.311  29.609  12.061
17383W        W85724   4.840  33.535   0.379
17384W        W85725   0.763  19.664   2.872
17385W        W85726  19.178  24.041   1.343
17386W        W85727  38.541   5.198   4.126
17387W        W85728  40.497  18.193  11.036
17388W        W85729  13.313  39.850  14.772
17389W        W85730  11.798   5.868   0.820
17390W        W85731  36.096  42.281  11.098
17391W        W85732  24.225  11.281   4.228
17392W        W85733  18.718   2.278  10.567
17393W        W85734  18.591  42.783  10.992
17394W        W85735  28.115  23.595   0.372
17395W        W85736  44.281  33.400   4.164
17396W        W85737  10.741  27.973  13.516
17397W        W85738  44.879  40.444  14.031
17398W        W85739  38.371   6.426  13.918
17399W        W85740  15.793  13.723   4.248
17400W        W85741  23.025  33.995  14.985
17401W        W85742  35.479  38.935   2.233
17402W        W85743  17.613  12.235  10.571
17403W        W85744  10.283  12.638   4.836
17404W        W85745  38.344  11.134   1.859
17405W        W85746  30.583  15.730  12.542
17406W        W85747  38.378  18.652   1.285
17407W        W85748  44.288  43.018  12.961
17408W        W85749  30.958   8.696  14.949
17409W        W85750  28.998  25.692   3.168
17410W        W85751  20.031  21.578  12.863
17411W        W85752  31.973  10.317  11.008
17412W        W85753  37.461  37.575   0.880
17413W        W85754   2.912  39.810   4.668
17414W        W85755   1.812  15.330   3.735
17415W        W85756  23.529  18.607  12.069
17416W        W85757   3.328  23.694   2.857
17417W        W85758  33.883   9.875  14.883
17418W        W85759  39.431  42.394   3.312
17419W        W85760   5.784   7.203   4.155
17420W        W85761  24.135  33.877  13.389
17421W        W85762  32.608  24.561  13.921
17422W        W85763  41.428  10.780  12.463
17423W        W85764   5.799  31.062   0.882
17424W        W85765  19.770  14.685  13.492
17425W        W85766   1.970   0.932  10.623
17426W        W85767  22.006  35.442   2.263
17427W        W85768  14.729  15.695  10.544
17428W        W85769  32.920  42.819  11.940
17429W        W85770  32.112  24.605   2.415
17430W        W85771  32.585  15.196   2.708
17431W        W85772   9.831  37.930  14.887
17432W        W85773  44.399  35.360  14.515
17433W        W85774  22.206  25.041  11.376
17434W        W85775  18.590  12.166   3.805
17435W        W85776  36.508  42.296  14.925
17436W        W85777  33.465  25.075  14.906
17437W        W85778   2.430  16.128  11.042
17438W        W85779   9.321  29.524  14.916
17439W        W85780  38.488   9.376  14.949
17440W        W85781  22.725  17.205   0.869
17441W        W85782  27.679  27.947   2.897
17442W        W85783  28.075  19.779  13.315
17443W        W85784   0.271  38.567  13.547
17444W        W85785  32.438  20.103   1.337
17445W        W85786  31.407  20.121   0.951
17446W        W85787   9.347  22.238  11.039
17447W        W85788  25.532  27.604  12.512
17448W        W85789  34.428  26.059   3.635
17449W        W85790  21.257  23.538   0.476
17450W        W85791  32.041  44.388   0.358
17451W        W85792  11.342  32.415  12.081
17452W        W85793  12.234   6.301   0.372
17453W        W85794  18.283  26.207  10.969
17454W        W85795  44.320  25.085  13.000
17455W        W85796  20.742  44.005   4.747
17456W        W85797   3.774  17.232  11.055
17457W        W85798  43.870   0.299   1.730
17458W        W85799  20.160  14.794   3.190
17459W        W85800  12.841  16.244   3.649
17460W        W85801   3.392  16.631   5.633
17461W        W85802   8.359  15.209  14.932
17462W        W85803  10.732  39.545   0.316
17463W        W85804  38.532   3.880  14.947
17464W        W85805  12.178  10.662  14.304
17465W        W85806  21.186  16.106  14.759
17466W        W85807   8.243  25.671  12.044
17467W        W85808  14.129  20.259   3.679
17468W        W85809  11.288   5.316  11.411
17469W        W85810  25.024   3.374  11.929
17470W        W85811  11.845  11.678  10.441
17471W        W85812   0.302   7.223   4.149
17472W        W85813  20.172  38.015   2.337
17473W        W85814   7.395  14.822   1.721
17474W        W85815  42.818  31.129  12.959
17475W        W85816  16.319   6.274   3.154
17476W        W85817  37.922  38.454  10.515
17477W        W85818  44.005  43.363   0.468
17478W        W85819  11.329  43.270   1.318
17479W        W85820  20.145   3.222   0.770
17480W        W85821  33.575   8.849  14.836
17481W        W85822  36.426  15.085   4.698
17482W        W85823  33.081  29.536   2.315
17483W        W85824  23.198  30.110  11.534
17484W        W85825  14.802  34.010  10.026
17485W        W85826  20.075  28.130  10.522
17486W        W85827  28.983  31.431   0.247
17487W        W85828   4.842  28.529   2.303
17488W        W85829   4.328   8.885  13.434
17489W        W85830  29.102   2.247   1.730
17490W        W85831  43.364  25.113   2.390
17491W        W85832  31.940  35.501  14.985
17492W        W85833   0.372   0.962  13.393
17493W        W85834  33.495  30.152  11.073
17494W        W85835  34.420  16.600   2.263
17495W        W85836  17.632  44.959  13.390
17496W        W85837  31.508  16.248   3.642
17497W        W85838  30.046   5.236   4.661
17498W        W85839   0.394   3.449  12.515
17499W        W85840   5.405  26.510   5.129
17500W        W85841  32.431  43.003   4.191
17501W        W85842  37.868  13.662   3.789
17502W        W85843  39.521  11.626   4.688
17503W        W85844  42.965  22.245  12.078
17504W        W85845  23.114  24.520  13.835
17505W        W85846  24.085  43.311  12.368
17506W        W85847   8.276  31.116  14.428
17507W        W85848  20.161  38.068   0.430
17508W        W85849   6.219  36.565  11.549
17509W        W85850  42.380   1.291   4.224
17510W        W85851   8.382  33.618   0.827
17511W        W85852  43.393   2.454   4.681
17512W        W85853  18.567  15.158   3.349
17513W        W85854  13.117  14.289   5.261
17514W        W85855  17.757  12.140  13.931
17515W        W85856  19.104  26.106  12.497
17516W        W85857   7.307  33.049   3.160
17517W        W85858  41.529  32.601  13.898
17518W        W85859  32.400  35.416   1.259
17519W        W85860  16.249  11.190   3.289
17520W        W85861   1.476   5.800  14.779
17521W        W85862   4.800  38.886   4.784
17522W        W85863  18.126  39.036  11.098
17523W        W85864   8.730  20.640   3.235
17524W        W85865   7.172  16.692   3.719
17525W        W85866  34.003   1.978   1.806
17526W        W85867  36.428   9.302  11.593
17527W        W85868   0.361  36.985   2.677
17528W        W85869  23.984   7.677  12.557
17529W        W85870   9.860  14.811  11.389
17530W        W85871  27.656  26.091  10.565
17531W        W85872  13.230  11.674   4.187
17532W        W85873   4.354  42.983  12.362
17533W        W85874  41.373  33.043   1.396
17534W        W85875   6.856  20.213  14.787
17535W        W85876  39.896   4.298  10.524
17536W        W85877  42.304  38.843   3.266
17537W        W85878  17.292  17.664   2.775
17538W        W85879   2.864  24.016  10.963
17539W        W85880  20.628   7.247  14.027
17540W        W85881   2.345  18.589  13.908
17541W        W85882  21.233  33.089  14.816
17542W        W85883  25.480  24.196   3.790
17543W        W85884  21.082   8.780  14.879
17544W        W85885  17.152   3.236  14.364
17545W        W85886  18.115   4.801  14.354
17546W        W85887  10.265  37.919   1.736
17547W        W85888  25.632  38.535   4.278
17548W        W85889  13.669  33.407   3.244
17549W        W85890  18.258  21.728  11.098
17550W        W85891  39.461   4.832   2.746
17551W        W85892  38.488  18.227   3.353
17552W        W85893  37.888  24.566   2.371
17553W        W85894  14.615   6.186   0.887
17554W        W85895  12.258  30.566   4.675
17555W        W85896  12.138  10.263   9.951
17556W        W85897  12.799   3.861  13.815
17557W        W85898   3.414  17.690   1.217
17558W        W85899  44.326  39.978   2.185
17559W        W85900   0.902  32.573   2.375
17560W        W85901  28.608   4.322   3.812
17561W        W85902  19.060  35.011   0.734
17562W        W85903  35.581   1.427   1.420
17563W        W85904   1.772  42.457   1.814
17564W        W85905  39.421   2.433  13.373
17565W        W85906  24.485  17.126  13.867
17566W        W85907  44.444  40.999   3.807
17567W        W85908  30.604   7.892  12.509
17568W        W85909   3.804   4.774   4.613
17569W        W85910  37.525  12.352  13.936
17570W        W85911  26.014  34.553  14.006
17571W        W85912  40.429   8.743  14.760
17572W        W85913  11.704  32.966   2.393
17573W        W85914  21.687   4.761   3.653
17574W        W85915   6.863  24.610   4.734
17575W        W85916  38.054  17.240  14.906
17576W        W85917  13.104  30.098   3.847
17577W        W85918  23.987  38.415  12.531
17578W        W85919  29.626  34.914   2.875
17579W        W85920  30.053  25.965  14.351
17580W        W85921   7.330  28.484  11.881
17581W        W85922   6.773  24.513   4.118
17582W        W85923   8.886  22.601  14.773
17583W        W85924  44.808  13.780  11.536
17584W        W85925   5.415   4.390   0.803
17585W        W85926  26.665  28.984   2.254
17586W        W85927  32.556  40.356  10.598
17587W        W85928   3.797  22.146  14.781
17588W        W85929  34.512  33.076  11.602
17589W        W85930   8.746  30.625   3.272
17590W        W85931  11.309  28.512  13.524
17591W        W85932  22.565   6.847  12.530
17592W        W85933   7.384  29.125   3.743
17593W        W85934  44.488  13.648   3.687
17594W        W85935  27.610  28.013   4.660
17595W        W85936  19.670  26.056   1.708
17596W        W85937  17.555   7.329  13.487
17597W        W85938  37.079   4.338   1.254
17598W        W85939  44.873  43.807   4.324
17599W        W85940  29.026  19.041   0.758
17600W        W85941  28.659   1.476  13.860
17601W        W85942  36.882  24.062   0.258
17602W        W85943  32.514  32.423   4.276
17603W        W85944  36.958   3.270  13.906
17604W        W85945  23.101   2.746   3.192
17605W        W85946   9.882  33.114  13.995
17606W        W85947  14.752   1.950  13.886
17607W        W85948   5.697  33.964  13.062
17608W        W85949  28.145   5.386  14.450
17609W        W85950  39.875   7.736   1.339
17610W        W85951  34.076  12.222   3.252
17611W        W85952  32.036  13.292  10.605
17612W        W85953  19.719  10.280  12.460
17613W        W85954  17.728  14.154  14.810
17614W        W85955  29.472  12.688   0.803
17615W        W85956  28.993   4.393  10.455
17616W        W85957  17.194   1.836   0.465
17617W        W85958  44.929  26.108  13.316
17618W        W85959  14.790   2.936   0.923
17619W        W85960  15.631  21.568  11.102
17620W        W85961  44.946  32.597  11.996
17621W        W85962  13.686  10.823  14.403
17622W        W85963  24.036  28.647   4.349
17623W        W85964  40.327   3.747   2.248
17624W        W85965  35.888   8.348   3.862
17625W        W85966  11.857   9.647  10.575
17626W        W85967  33.592  10.318   2.195
17627W        W85968  10.358  35.021  11.029
17628W        W85969   8.694  40.455  10.895
17629W        W85970  13.116  32.889  12.846
17630W        W85971  29.583  16.300  12.887
17631W        W85972  43.397  18.268   4.797
17632W        W85973   7.893  26.534   3.324
17633W        W85974   1.473   3.287  10.011
17634W        W85975  33.991  38.990   2.291
17635W        W85976  35.563   2.263  14.325
17636W        W85977  10.840  18.145  12.885
17637W        W85978  41.383  42.800   0.467
17638W        W85979  39.965  10.203  10.597
17639W        W85980   1.272  14.783   1.805
17640W        W85981  33.080  19.259   2.836
17641W        W85982  17.592  33.989  12.491
17642W        W85983  23.594   5.743   4.259
17643W        W85984  20.732  21.592   1.713
17644W        W85985   5.735  30.084   2.847
17645W        W85986  33.390  31.927  10.441
17646W        W85987  11.681   9.309   5.275
17647W        W85988  23.118  19.097  11.950
17648W        W85989   1.431  38.412   4.311
17649W        W85990   4.866  39.536   2.354
17650W        W85991   2.791   8.750   2.178
17651W        W85992  35.960  37.421   0.365
17652W        W85993   8.702  21.614   0.881
17653W        W85994   0.468  33.983   0.432
17654W        W85995  10.194  22.026  14.465
17655W        W85996  41.449  30.027   2.398
17656W        W85997   7.862  11.201  13.944
17657W        W85998  34.476  42.402  12.424
17658W        W85999  27.480  43.814   4.645
17659W        W86000  43.402  31.127   1.447
17660W        W86001  14.735  40.319  14.480
17661W        W86002  22.078  33.380   1.705
17662W        W86003   5.883  14.255  14.965
17663W        W86004  20.617   6.818  14.019
17664W        W86005  44.313   6.777   2.196
17665W        W86006  29.122  33.932   2.227
17666W        W86007  33.415   1.337  10.993
17667W        W86008  40.434   5.929  14.469
17668W        W86009  15.701  41.004   5.170
17669W        W86010  38.352  38.859  11.471
17670W        W86011  22.609  19.685   4.259
17671W        W86012  19.765  12.183   3.690
17672W        W86013  41.021  11.218  14.318
17673W        W86014   5.825  43.895   1.822
17674W        W86015   7.816   8.705   4.291
17675W        W86016  43.322  27.541   1.341
17676W        W86017   2.848  13.705  12.560
17677W        W86018   2.927  31.517  10.448
17678W        W86019  44.832  37.025   0.390
17679W        W86020  31.030  15.247  14.029
17680W        W86021  15.123  32.043  11.387
17681W        W86022  35.398   2.910  11.454
17682W        W86023  19.552   9.280  12.408
17683W        W86024   4.381  16.570  12.992
17684W        W86025   2.392   3.937   3.234
17685W        W86026  42.341  20.680  11.877
17686W        W86027  28.486  11.328   4.722
17687W        W86028   1.774  30.460   3.738
17688W        W86029  14.170  25.470  10.585
17689W        W86030  14.674   6.792  11.044
17690W        W86031  28.608  29.654  12.360
17691W        W86032  43.780  26.036   1.212
17692W        W86033  13.789  15.685   0.917
17693W        W86034  40.997  33.991   1.840
17694W        W86035  16.725  28.145   4.154
17695W        W86036  31.910  42.341  12.963
17696W        W86037  12.156  44.955  12.877
17697W        W86038  31.418  34.927  10.517
17698W        W86039  11.712  24.208   0.827
17699W        W86040  31.611   7.749   2.724
17700W        W86041  42.997  31.112   3.202
17701W        W86042  39.500  34.489   1.933
17702W        W86043  13.654  23.197  14.380
17703W        W86044  35.064  17.166   1.246
17704W        W86045   0.425  14.191  10.573
17705W        W86046  42.390   0.905  13.899
17706W        W86047  23.666  34.535  14.031
17707W        W86048  36.949   8.249  14.360
17708W        W86049  34.422   3.403  12.376
17709W        W86050  19.767  14.175  14.019
17710W        W86051  10.180  13.626   4.236
17711W        W86052   0.765  30.150  14.806
17712W        W86053  17.578   5.726   2.319
17713W        W86054  24.644  24.588  11.885
17714W        W86055  32.567   6.182  14.022
17715W        W86056  13.653  36.471  10.408
17716W        W86057  41.476  22.162   3.284
17717W        W86058  25.634   7.852  12.869
17718W        W86059  10.374  22.716  12.439
17719W        W86060  30.907   1.366   2.320
17720W        W86061  30.467   0.785   0.472
17721W        W86062  28.101  14.176   0.247
17722W        W86063   6.772  38.478   4.304
17723W        W86064  39.012   0.765   4.732
17724W        W86065  39.473  40.333  13.439
17725W        W86066  26.960  18.075  14.466
17726W        W86067  25.608  25.210   3.664
17727W        W86068  39.955  35.412   0.946
17728W        W86069  23.587  23.191   0.892
17729W        W86070  11.160   7.272  13.929
17730W        W86071   6.713  16.574  13.489
17731W        W86072   5.859  43.848  11.585
17732W        W86073  26.956   2.825   3.826
17733W        W86074  44.821   5.847   4.799
17734W        W86075   7.669  29.442   1.224
17735W        W86076  26.528  44.269  11.468
17736W        W86077  38.377  26.206  13.997
17737W        W86078  42.337  11.303  14.475
17738W        W86079  26.130  44.933   0.346
17739W        W86080  10.817  18.707  10.630
17740W        W86081   4.423  12.670   1.232
17741W        W86082  21.661  35.587  12.093
17742W        W86083  17.584   8.882  13.517
17743W        W86084  43.976  20.685  10.998
17744W        W86085  18.238  22.067  12.393
17745W        W86086  14.193  22.532  10.533
17746W        W86087  30.142  31.421   0.334
17747W        W86088   3.376  25.179   4.750
17748W        W86089  21.233  17.093   0.901
17749W        W86090   3.228  10.813   1.382
17750W        W86091  16.672  17.666   3.868
17751W        W86092  21.195  26.978  14.759
17752W        W86093  29.443  29.488   4.656
17753W        W86094  33.459  42.840  12.409
17754W        W86095   5.918   5.298   2.732
17755W        W86096  34.577  17.644   2.861
17756W        W86097  21.566  10.785  13.353
17757W        W86098  36.410   7.206  12.080
17758W        W86099  18.717  11.358  10.949
17759W        W86100  11.293  20.048   0.275
17760W        W86101  25.526  16.799   4.800
17761W        W86102   6.310  13.686   4.633
17762W        W86103   8.838  26.639  14.759
17763W        W86104  40.797  23.589   3.765
17764W        W86105  32.888  36.353  14.877
17765W        W86106  31.061  27.512  11.883
17766W        W86107   2.302  25.050   3.747
17767W        W86108  14.674   7.782  11.466
17768W        W86109  42.443  28.480  10.928
17769W        W86110  24.179   8.657  11.429
17770W        W86111  44.852  11.843   2.410
17771W        W86112   8.173  31.121   0.865
17772W        W86113  40.462  27.186  10.889
17773W        W86114   4.864  41.879   3.746
17774W        W86115  20.083  36.919   4.767
17775W        W86116  44.338  44.941  10.505
17776W        W86117  22.193  32.892  14.512
17777W        W86118  33.061  10.834   2.903
17778W        W86119  26.487   6.875  14.030
17779W        W86120  23.629  24.997   1.373
17780W        W86121  40.471  27.630  13.914
17781W        W86122  36.923  27.533  11.923
17782W        W86123  27.451  11.342  14.895
17783W        W86124  12.196  32.506   1.335
17784W        W86125   2.296  38.371   2.825
17785W        W86126   5.775   2.465   1.841
17786W        W86127  11.820  28.131   2.382
17787W        W86128  17.731  28.935   1.317
17788W        W86129  39.980  43.783  10.905
17789W        W86130   5.196  41.994   1.424
17790W        W86131  39.352  40.800   3.663
17791W        W86132  32.024  13.607  14.316
17792W        W86133  12.760   2.431   3.185
17793W        W86134  11.244  24.530   4.757
17794W        W86135  17.297  14.248  11.944
17795W        W86136  27.079  35.545  13.001
17796W        W86137  38.970  35.964   3.278
17797W        W86138  24.189  12.806  12.464
17798W        W86139  15.208  27.945   0.424
17799W        W86140   4.834  18.281  11.968
17800W        W86141  13.762  15.092   3.153
17801W        W86142  44.794   0.268  11.454
17802W        W86143   1.449   4.710  14.401
17803W        W86144  38.924  29.084  14.425
17804W        W86145  37.545  12.116   2.298
17805W        W86146  15.280  36.070  11.533
17806W        W86147  15.586  23.053   2.305
17807W        W86148  33.508  10.377   0.817
17808W        W86149   3.932  37.448  12.913
17809W        W86150   5.238  28.547   1.837
17810W        W86151  41.901  38.867  12.976
17811W        W86152  40.045  18.648   0.917
17812W        W86153  12.343  39.881   5.789
17813W        W86154  27.022  13.203   4.237
17814W        W86155  18.165  27.104  11.992
17815W        W86156  38.422  19.775  14.952
17816W        W86157  12.239  34.506   4.340
17817W        W86158  14.223  27.078  10.645
17818W        W86159  17.579   1.400   2.741
17819W        W86160   4.896  34.438  14.935
17820W        W86161   5.932  26.025   4.118
17821W        W86162   9.782  39.382   1.718
17822W        W86163  17.597  22.089  13.422
17823W        W86164  19.580  14.737  11.035
17824W        W86165  16.653  35.910  13.484
17825W        W86166  29.956   9.190   3.767
17826W        W86167   2.278  44.344  11.969
17827W        W86168  27.592  16.285  12.341
17828W        W86169  28.473   4.706   1.741
17829W        W86170  25.543  39.357   0.375
17830W        W86171  27.959  18.694  11.406
17831W        W86172  42.826   0.420  11.105
17832W        W86173  12.840  38.425   4.778
17833W        W86174  24.979   7.880   0.955
17834W        W86175   1.323  40.491   1.751
17835W        W86176  34.498  38.342  12.479
17836W        W86177  20.055  10.843   0.329
17837W        W86178  24.195  32.461   3.737
17838W        W86179  37.471  29.966   2.265
17839W        W86180  29.094  11.201   1.876
17840W        W86181  10.677  31.959   1.858
17841W        W86182   6.279  19.778  11.387
17842W        W86183   4.719  10.757   4.830
17843W        W86184  38.568  36.895  11.425
17844W        W86185   8.341   8.346  12.354
17845W        W86186  35.903  26.555   0.939
17846W        W86187  33.467  28.932   1.915
17847W        W86188  17.777  34.454   2.775
17848W        W86189  40.459  31.991  14.453
17849W        W86190  21.061   5.794  12.030
17850W        W86191  36.096  42.332  13.828
17851W        W86192  12.843  12.687  14.915
17852W        W86193   5.771  18.607  12.440
17853W        W86194  28.489  41.004   2.313
17854W        W86195  39.392   3.252   0.450
17855W        W86196  32.947  28.492  10.474
17856W        W86197  38.532   8.854   3.673
17857W        W86198  23.577  41.020   3.704
17858W        W86199  32.595  43.305  12.894
17859W        W86200   5.824  39.469   2.801
17860W        W86201  26.642  43.898  12.925
17861W        W86202   2.730   4.221  11.408
17862W        W86203  22.040  16.082  12.920
17863W        W86204  36.508  32.017  12.825
17864W        W86205  38.912  23.629   3.253
17865W        W86206   3.888  34.526   4.605
17866W        W86207  26.624   4.353   2.855
17867W        W86208   1.391  41.032  13.870
17868W        W86209   5.196   1.751   1.754
17869W        W86210  24.491  44.902   3.742
17870W        W86211  32.969   8.776   3.250
17871W        W86212  32.412  38.025   2.838
17872W        W86213  21.644   5.324   1.845
17873W        W86214  43.468   7.882   1.239
17874W        W86215  33.507  26.081  14.284
17875W        W86216  13.224  29.039  12.890
17876W        W86217   8.761  37.980   4.210
17877W        W86218  16.141  25.468  13.454
17878W        W86219   1.326  38.437  10.554
17879W        W86220   8.675   4.396   4.724
17880W        W86221   7.877   7.191   3.747
17881W        W86222  41.294   6.824  13.392
17882W        W86223  22.028  29.046   2.897
17883W        W86224  22.076   3.232  13.329
17884W        W86225   7.388  18.565   4.718
17885W        W86226  28.482  32.426   2.339
17886W        W86227  24.011  11.233  13.338
17887W        W86228  22.662   0.856  10.107
17888W        W86229  16.173   7.809  11.049
17889W        W86230  43.510  31.036  13.839
17890W        W86231  22.134   9.172  14.029
17891W        W86232   8.251  35.432  13.547
17892W        W86233  44.354  15.172   0.937
17893W        W86234  27.453  34.381  14.777
17894W        W86235  18.551  24.085  11.971
17895W        W86236  11.831  35.594   2.887
17896W        W86237  13.284  26.972   0.750
17897W        W86238   1.886  38.489   0.730
17898W        W86239  25.676  39.352   2.290
17899W        W86240  26.582  39.414   4.814
17900W        W86241   1.749  14.746   5.234
17901W        W86242  35.532  41.041   1.830
17902W        W86243  43.375  10.664   3.769
17903W        W86244   9.831  21.110   2.754
17904W        W86245  16.120  28.021   1.922
17905W        W86246   8.851  29.005  11.909
17906W        W86247  40.439  30.440   4.162
17907W        W86248  19.041   2.813   2.679
17908W        W86249  28.167  43.019   4.635
17909W        W86250   7.697  22.656  13.889
17910W        W86251   4.346  39.020   4.158
17911W        W86252  34.489   3.744   1.908
17912W        W86253  27.084  34.956   2.188
17913W        W86254  18.723  28.020  12.367
17914W        W86255  35.088  21.695   4.641
17915W        W86256  38.495   4.383   0.355
17916W        W86257  15.614  21.111   1.264
17917W        W86258  15.781  23.625  12.563
17918W        W86259   0.938   3.948  11.533
17919W        W86260   7.857  19.596  12.867
17920W        W86261  37.870   2.856   1.717
17921W        W86262  40.536   2.266  13.345
17922W        W86263  24.206  30.421  13.859
17923W        W86264  41.300  14.603   3.260
17924W        W86265  44.332  15.127  10.958
17925W        W86266  13.798  12.190  13.307
17926W        W86267  42.030  23.700  10.515
17927W        W86268  29.616  19.710   5.193
17928W        W86269   0.365  22.149   3.820
17929W        W86270  33.080  11.175  14.441
17930W        W86271  28.446  16.655   2.749
17931W        W86272  43.851  36.399  11.976
17932W        W86273  23.570  29.504   3.169
17933W        W86274  39.381  13.176  11.059
17934W        W86275   6.849  13.799   3.775
17935W        W86276  24.682  27.509   2.764
17936W        W86277  35.545  16.268  13.340
17937W        W86278  17.759  11.805  12.483
17938W        W86279   5.273   4.822  10.128
17939W        W86280  40.947  12.639  12.402
17940W        W86281   3.237  28.000   2.249
17941W        W86282  23.079  44.837   4.304
17942W        W86283  39.419  34.962   4.149
17943W        W86284  29.129   9.254  11.907
17944W        W86285  18.651  14.130   2.292
17945W        W86286   4.841  12.353  12.826
17946W        W86287  38.832  33.909   3.309
17947W        W86288  37.915  18.209  11.029
17948W        W86289  34.987  26.118  11.889
17949W        W86290  44.469  21.620  14.759
17950W        W86291   6.390  19.601  10.617
17951W        W86292  20.768  22.114   4.267
17952W        W86293  23.712  34.038   2.283
17953W        W86294  36.377  38.421   2.872
17954W        W86295   6.786   9.259  10.534
17955W        W86296  33.575  27.085  14.939
17956W        W86297   9.840  35.907  12.992
17957W        W86298  37.005  25.017   1.920
17958W        W86299  17.798  40.437  10.439
17959W        W86300  23.603  11.789  10.445
17960W        W86301  15.132  43.930   3.840
17961W        W86302  41.827  43.473   3.304
17962W        W86303  36.986  24.096   2.752
17963W        W86304  35.993  15.155  12.516
17964W        W86305  34.886  43.975  14.996
17965W        W86306  12.142   5.710  13.441
17966W        W86307  27.487  40.854   0.934
17967W        W86308  28.582  21.743   3.793
17968W        W86309  33.992  42.496  14.797
17969W        W86310  37.507  13.607   1.345
17970W        W86311  42.352  15.233   1.302
17971W        W86312  10.334   5.321  12.837
17972W        W86313   4.280  29.105  13.042
17973W        W86314   0.828  10.818   0.751
17974W        W86315  27.173   0.918   1.353
17975W        W86316  19.567  28.158   5.304
17976W        W86317  26.971  41.936  12.044
17977W        W86318   2.722   2.962  12.427
17978W        W86319  19.270   0.370  11.866
17979W        W86320  42.941  37.958   2.796
17980W        W86321  35.924  26.618  10.450
17981W        W86322  41.017  20.547  10.630
17982W        W86323  26.504  42.943  13.513
17983W        W86324  41.804  12.844  11.079
17984W        W86325   6.320  42.300  14.293
17985W        W86326  17.776  24.525   5.733
17986W        W86327  13.172  18.629  12.405
17987W        W86328  10.179  29.583   2.250
17988W        W86329   6.717  35.404   0.449
17989W        W86330  23.559  42.992  11.912
17990W        W86331  25.644  27.966   0.838
17991W        W86332  39.822  27.160   1.406
17992W        W86333  31.989  22.525   0.786
17993W        W86334   8.335  44.437   2.196
17994W        W86335  43.924   8.838  12.523
17995W        W86336  12.773  37.039  10.504
17996W        W86337  12.681  41.452  10.452
17997W        W86338  28.161  12.725  11.994
17998W        W86339   4.851   6.698   0.448
17999W        W86340  43.298  35.409   1.883
18000W        W86341  41.915   9.175   1.381
18001W        W86342  12.825  35.048   3.764
18002W        W86343  11.266   5.830   4.187
18003W        W86344  11.807  18.786   4.347
18004W        W86345  25.123  41.037   4.717
18005W        W86346  12.727   4.795  10.947
18006W        W86347  44.863  35.500  12.019
18007W        W86348   6.428  29.464   1.251
18008W        W86349  29.469   1.834   4.607
18009W        W86350  28.148  36.039   5.203
18010W        W86351  21.549  32.080   1.918
18011W        W86352  25.172  41.959  13.972
18012W        W86353  11.191  38.328  11.397
18013W        W86354  34.058   5.433  12.879
18014W        W86355  38.025  42.511   4.237
18015W        W86356  18.778  28.622  11.095
18016W        W86357  18.296   1.380  13.511
18017W        W86358   0.903  36.013  14.379
18018W        W86359  41.462  34.061  10.605
18019W        W86360  23.237  21.127  13.801
18020W        W86361  34.052  32.140  11.862
18021W        W86362  39.386   2.466   2.694
18022W        W86363  39.964  14.112  11.534
18023W        W86364  23.051  37.344  13.965
18024W        W86365  36.490  25.670   4.280
18025W        W86366  41.847   2.898   0.474
18026W        W86367  21.096  28.565  14.883
18027W        W86368  18.709  16.117   1.825
18028W        W86369  17.274  33.029  10.424
18029W        W86370  42.358  34.064  14.506
18030W        W86371   1.870   8.837  14.003
18031W        W86372   3.753  19.544   3.669
18032W        W86373  29.062  32.500  11.082
18033W        W86374  27.476  33.025  13.034
18034W        W86375  39.437  12.277  12.933
18035W        W86376  23.007   2.254   1.299
18036W        W86377  38.419  33.416   0.931
18037W        W86378   4.264  16.769  11.421
18038W        W86379  37.428  19.595  14.961
18039W        W86380  16.660  15.806  12.512
18040W        W86381  17.249  39.035   5.308
18041W        W86382  42.896  21.050   3.242
18042W        W86383  43.912   8.668  10.987
18043W        W86384  36.571  42.479   0.950
18044W        W86385  37.512  10.209   2.185
18045W        W86386  41.975   6.400  11.059
18046W        W86387  36.483   5.354  13.002
18047W        W86388  22.684  33.459   4.835
18048W        W86389   1.274  11.170  11.423
18049W        W86390  26.187  14.246   4.230
18050W        W86391  20.259  22.211  13.429
18051W        W86392  15.083  11.800   1.701
18052W        W86393  19.596  19.059  14.807
18053W        W86394   0.440  35.438  13.309
18054W        W86395  17.657  14.673   1.892
18055W        W86396  14.271  24.190  13.320
18056W        W86397  23.011  13.349  12.394
18057W        W86398  24.123  30.065  10.985
18058W        W86399  42.000  24.535   1.716
18059W        W86400  34.925   5.876  14.436
18060W        W86401   5.809  10.180  10.917
18061W        W86402   6.871  42.912  13.909
18062W        W86403  22.552  13.637  10.577
18063W        W86404  16.803  35.453   0.243
18064W        W86405  44.477   6.347   3.646
18065W        W86406  17.287  29.645  11.879
18066W        W86407   6.392  25.132   0.406
18067W        W86408   5.800  32.414   3.300
18068W        W86409  32.970   0.467   2.691
18069W        W86410   4.900  24.215  10.608
18070W        W86411  30.598  33.573  11.564
18071W        W86412   3.846   9.185   3.858
18072W        W86413  20.205  33.026   4.117
18073W        W86414  18.088  10.217  11.375
18074W        W86415  38.039  27.101  14.345
18075W        W86416   3.760  16.111  11.503
18076W        W86417  18.735  23.165  14.322
18077W        W86418  25.645  37.416   1.257
18078W        W86419   6.825  44.991  14.823
18079W        W86420  26.021  26.503   1.809
18080W        W86421  22.543  14.676  12.441
18081W        W86422  33.591  30.089  13.849
18082W        W86423  39.345  43.392   0.283
18083W        W86424  25.488  19.238   3.186
18084W        W86425   4.875  28.053  13.540
18085W        W86426  13.245   5.389  10.474
18086W        W86427  42.874  21.688  13.541
18087W        W86428   3.882  41.917  10.542
18088W        W86429  18.777  25.985  13.025
18089W        W86430  39.860  28.643  11.589
18090W        W86431   5.887  25.602  12.545
18091W        W86432  39.431  35.569   2.753
18092W        W86433  29.041   1.267   0.477
18093W        W86434  11.798   9.670   1.768
18094W        W86435   5.693   5.222  10.934
18095W        W86436  18.190  15.100   3.312
18096W        W86437  17.198  20.136  12.972
18097W        W86438  31.608  37.531  12.518
18098W        W86439  27.158  43.935   3.203
18099W        W86440  34.916  17.070   2.865
18100W        W86441   7.762  40.858   1.714
18101W        W86442  10.798  40.811  14.870
18102W        W86443  18.774  43.950   2.262
18103W        W86444   4.817  40.854  14.017
18104W        W86445  43.890   8.259  11.397
18105W        W86446  17.214  15.242   2.189
18106W        W86447  28.109  23.596  13.033
18107W        W86448  12.749  35.411  14.897
18108W        W86449  32.949  29.049  14.880
18109W        W86450  32.443   4.892  12.995
18110W        W86451  41.994  27.133  11.981
18111W        W86452  19.654  39.556   1.334
18112W        W86453   3.269  36.879   0.803
18113W        W86454   3.814   2.802  12.452
18114W        W86455  29.663  17.287   1.935
18115W        W86456  26.074  32.966   0.787
18116W        W86457  18.551  35.942  13.456
18117W        W86458  31.584  19.776   3.703
18118W        W86459  22.716  13.193   0.746
18119W        W86460  19.092  16.592  13.830
18120W        W86461  36.460  26.585   0.750
18121W        W86462  10.815  28.182  11.903
18122W        W86463  10.815  35.064  12.081
18123W        W86464  24.532   3.720   0.751
18124W        W86465   0.251  35.085  14.761
18125W        W86466   2.281   2.239   3.647
18126W        W86467  27.672  41.423  10.417
18127W        W86468  26.583  20.100  12.081
18128W        W86469  22.712  20.117  11.479
18129W        W86470   1.825  32.064   3.868
18130W        W86471  28.141  16.292  11.892
18131W        W86472  23.605  13.346   0.258
18132W        W86473  33.041  20.662   3.332
18133W        W86474  24.223  30.479  13.017
18134W        W86475  13.646  43.318  11.571
18135W        W86476  37.345  34.966   1.859
18136W        W86477  36.541  14.811  12.915
18137W        W86478  40.322  34.964  14.854
18138W        W86479  44.322   0.922   3.374
18139W        W86480  22.211  29.112   1.818
18140W        W86481  42.871  33.881   2.179
18141W        W86482  38.922  13.800  11.128
18142W        W86483  10.220  26.987   4.746
18143W        W86484  26.064  24.646   0.941
18144W        W86485   1.939   8.351   1.224
18145W        W86486  14.604  31.053   0.877
18146W        W86487   9.210  18.607   2.238
18147W        W86488  18.711  10.789  13.439
18148W        W86489  12.315  34.003   1.784
18149W        W86490   9.742  42.921  11.923
18150W        W86491  30.535  27.986  10.967
18151W        W86492  40.409   8.840  13.015
18152W        W86493   4.409  44.356   2.683
18153W        W86494  39.837  39.959   2.874
18154W        W86495  17.123  29.974  13.541
18155W        W86496  31.131  32.904  10.603
18156W        W86497  30.568  44.821   1.278
18157W        W86498  18.175   0.346  11.078
18158W        W86499  38.869  14.689  12.096
18159W        W86500  17.140  14.177  10.612
18160W        W86501  17.185  18.738  11.087
18161W        W86502  40.478  26.640  14.859
18162W        W86503  10.210  39.542  12.495
18163W        W86504  11.344  44.449  14.972
18164W        W86505  31.476  42.012   4.319
18165W        W86506   8.682  32.485   3.799
18166W        W86507  36.513  13.132  11.076
18167W        W86508  33.397   6.843  10.069
18168W        W86509   7.307  21.023  12.890
18169W        W86510  44.281  19.711   0.314
18170W        W86511  12.836  13.231  14.872
18171W        W86512   7.720  14.187   0.275
18172W        W86513  18.632  44.383   3.195
18173W        W86514  24.102  20.631  11.023
18174W        W86515  19.192  25.496  10.480
18175W        W86516   2.425  38.360  13.899
18176W        W86517  20.573  42.372  13.379
18177W        W86518  31.587  36.012  14.826
18178W        W86519  39.515  22.676   0.476
18179W        W86520  35.403   8.296  10.891
18180W        W86521  14.753  25.087  11.870
18181W        W86522   6.676  11.729   1.371
18182W        W86523  11.358  19.730   4.832
18183W        W86524   0.877   3.304   2.831
18184W        W86525   5.824  39.834  14.807
18185W        W86526  12.677  30.120   1.351
18186W        W86527  10.166  20.731   1.906
18187W        W86528   1.473  21.253  11.588
18188W        W86529   2.272  22.007  11.406
18189W        W86530  30.589  26.009  11.068
18190W        W86531   3.313   8.868  10.087
18191W        W86532  15.787  31.499   1.749
18192W        W86533  31.899  39.041  14.336
18193W        W86534  26.480  16.134   4.258
18194W        W86535  43.304   3.799  12.915
18195W        W86536  13.190  36.953  14.838
18196W        W86537  19.667  37.508  12.533
18197W        W86538  25.186   4.224   2.284
18198W        W86539  34.960  27.449   3.637
18199W        W86540  41.456  33.125  13.518
18200W        W86541  24.706   5.727  14.976
18201W        W86542  15.613  13.218  12.395
18202W        W86543   9.382  27.108   3.373
18203W        W86544  17.102  21.634   4.778
18204W        W86545  32.542  28.975   1.403
18205W        W86546  38.563  19.758   0.755
18206W        W86547  44.348   5.287  14.462
18207W        W86548   2.832   7.339  13.414
18208W        W86549   8.681   5.791  12.866
18209W        W86550  39.404  17.304   2.373
18210W        W86551  12.769  42.418   4.782
18211W        W86552  23.177  43.906   4.141
18212W        W86553  29.454  30.006  11.457
18213W        W86554  20.544  35.592  12.446
18214W        W86555  40.319  35.045  10.132
18215W        W86556  15.296  27.148  14.000
18216W        W86557  12.724  25.083  12.831
18217W        W86558  36.913  21.592   4.625
18218W        W86559   9.862  39.001   3.812
18219W        W86560  32.507  37.026  12.408
18220W        W86561  35.399  32.588   3.845
18221W        W86562  29.060  23.688   4.337
18222W        W86563  13.319  34.990  14.786
18223W        W86564   8.766  12.301   4.832
18224W        W86565  44.263   7.361   4.353
18225W        W86566  32.015  15.589  11.937
18226W        W86567  11.221  28.628  10.982
18227W        W86568  32.520   6.365  11.893
18228W        W86569   5.801  23.237   1.428
18229W        W86570  11.726  38.036  10.898
18230W        W86571  10.756  36.028  12.373
18231W        W86572  27.592  37.478  14.490
18232W        W86573   0.403  14.178   0.773
18233W        W86574  16.582  38.837  13.992
18234W        W86575  42.934   2.263   4.609
18235W        W86576   0.785   9.735  12.938
18236W        W86577  34.956  27.018   0.331
18237W        W86578  11.720  17.269   1.318
18238W        W86579  20.573  25.488  12.064
18239W        W86580   2.305  26.109   2.194
18240W        W86581  18.726  11.325   0.374
18241W        W86582  31.100  36.864  12.041
18242W        W86583   6.777  40.433  12.897
18243W        W86584  43.432   5.756   3.182
18244W        W86585  27.529  19.159   0.925
18245W        W86586  20.227  33.093  10.629
18246W        W86587  44.988   6.350   1.903
18247W        W86588   3.407  29.429   5.134
18248W        W86589   9.686   3.426  13.006
18249W        W86590  26.057   3.229   0.838
18250W        W86591   5.202  38.833   0.811
18251W        W86592   1.368  35.536  11.402
18252W        W86593   6.373   8.337   2.871
18253W        W86594  17.135  12.680   4.613
18254W        W86595   5.863  40.030   1.437
18255W        W86596  13.718  39.044   1.249
18256W        W86597  29.582  10.366   0.440
18257W        W86598   9.753  14.746  10.908
18258W        W86599   4.797  30.085  11.999
18259W        W86600   6.350  13.111   4.658
18260W        W86601  36.499  40.860  14.998
18261W        W86602   0.988   5.911  14.377
18262W        W86603  28.106  39.039  10.644
18263W        W86604  27.679  36.447   1.445
18264W        W86605  29.164   7.810  13.433
18265W        W86606  24.526  26.644   3.675
18266W        W86607  25.215  21.202  12.390
18267W        W86608  10.850  26.005  11.544
18268W        W86609  10.165  41.976  13.342
18269W        W86610  28.138  29.013  12.446
18270W        W86611   6.749  16.762  14.450
18271W        W86612  37.934  34.519  11.873
18272W        W86613  15.671   7.667   0.304
18273W        W86614  36.588  22.096  11.444
18274W        W86615   2.755  17.742  10.619
18275W        W86616  16.619  41.034   3.382
18276W        W86617   2.836  29.074   0.900
18277W        W86618  32.512   6.357  11.511
18278W        W86619  19.231  43.007   1.912
18279W        W86620  28.449  25.054   0.820
18280W        W86621  11.207  35.451   0.359
18281W        W86622  32.578  17.766   1.846
18282W        W86623   0.391  37.451   3.167
18283W        W86624   6.416   0.385   1.825
18284W        W86625  16.779  35.483   0.785
18285W        W86626  13.834   8.800   2.851
18286W        W86627  37.344  34.494  11.858
18287W        W86628   3.283  15.280  11.033
18288W        W86629  11.286  26.207   2.200
18289W        W86630  24.582  26.508  10.076
18290W        W86631  25.601  44.820   4.763
18291W        W86632  24.212  33.501  10.027
18292W        W86633  43.944   6.837   3.273
18293W        W86634  15.138  21.627  10.064
18294W        W86635  43.985  30.484  11.607
18295W        W86636   5.697  39.380  14.957
18296W        W86637  17.681  15.651   1.292
18297W        W86638  26.185  29.642   1.854
18298W        W86639  33.927   0.478  10.483
18299W        W86640  12.722  26.193   4.245
18300W        W86641  20.268  26.157   2.678
18301W        W86642  39.843   5.209  11.094
18302W        W86643  33.623  17.617   1.816
18303W        W86644  39.515  41.313  13.503
18304W        W86645   6.710  15.152  14.346
18305W        W86646   3.228  10.355   1.389
18306W        W86647  37.524  35.011  10.521
18307W        W86648   4.827   6.703   3.242
18308W        W86649  21.029  34.964   0.375
18309W        W86650  38.906  43.814   0.469
18310W        W86651  44.371  23.552  11.013
18311W        W86652   4.825  40.945  13.419
18312W        W86653  21.588  27.531  11.485
18313W        W86654  26.703  27.504   2.765
18314W        W86655  28.062   1.285   0.848
18315W        W86656  44.801  20.205   5.147
18316W        W86657  36.499  41.452   1.238
18317W        W86658  10.249  21.586  14.332
18318W        W86659  40.053  12.332   0.364
18319W        W86660   2.833  12.132   0.742
18320W        W86661  31.928  15.757   9.996
18321W        W86662   0.406  30.083   4.631
18322W        W86663  31.014  14.595  14.408
18323W        W86664  12.199  32.435   4.794
18324W        W86665  29.606  17.078   0.322
18325W        W86666  13.821   8.729  11.090
18326W        W86667  28.638  22.555  12.988
18327W        W86668  25.161  34.444  13.841
18328W        W86669  23.236  10.347  12.407
18329W        W86670   0.279  34.405  11.921
18330W        W86671  12.283   7.741  11.377
18331W        W86672  29.639  20.631  12.396
18332W        W86673  14.677  27.019  12.489
18333W        W86674  39.046  20.679  12.426
18334W        W86675  11.142   9.369  11.399
18335W        W86676  15.313  18.789   0.935
18336W        W86677   8.390  13.312   4.822
18337W        W86678   3.836  29.544  10.534
18338W        W86679  31.980   9.660   2.809
18339W        W86680  39.387  40.859  14.493
18340W        W86681  15.205  35.584   1.894
18341W        W86682  42.449  19.593   1.387
18342W        W86683  20.114  16.118   4.133
18343W        W86684  23.618  34.944   2.384
18344W        W86685  33.512  26.079   1.792
18345W        W86686  44.783   3.245  13.547
18346W        W86687  25.041  24.046   2.708
18347W        W86688  12.638   0.471   2.778
18348W        W86689  41.886  38.488   4.206
18349W        W86690  10.827  42.394  10.940
18350W        W86691  25.059  29.498  12.869
18351W        W86692   8.896  24.170   0.845
18352W        W86693  18.655  23.583  12.946
18353W        W86694  34.939  32.630  11.116
18354W        W86695  22.051   4.339  11.593
18355W        W86696  14.704  41.430  13.008
18356W        W86697  36.367   6.222  10.085
18357W        W86698  40.364   8.840   9.977
18358W        W86699  27.116  28.578  11.558
18359W        W86700   2.285  32.077  14.500
18360W        W86701  21.068  38.022  10.419
18361W        W86702  29.669  30.423  11.579
18362W        W86703  10.306   4.901  14.876
18363W        W86704  23.110  43.845   0.381
18364W        W86705   4.752  26.099  11.988
18365W        W86706  36.491  38.955   4.651
18366W        W86707  34.398  21.651  11.566
18367W        W86708  39.026  41.332  13.525
18368W        W86709   5.371  13.820  13.505
18369W        W86710   8.213  35.897   4.674
18370W        W86711  22.687  35.572   0.248
18371W        W86712   4.866  22.726   3.821
18372W        W86713  28.984  19.192  12.400
18373W        W86714   8.829  16.213  10.918
18374W        W86715   3.795  34.519   0.858
18375W        W86716  27.618   3.250  14.870
18376W        W86717  21.598   3.331   2.733
18377W        W86718  34.979  22.730  13.961
18378W        W86719  37.949  37.386   4.789
18379W        W86720  43.901  43.277   3.823
18380W        W86721   3.354   5.710   1.765
18381W        W86722   8.206  29.428  14.467
18382W        W86723  40.911  40.998  10.022
18383W        W86724  28.048  35.937   2.849
18384W        W86725  29.576   2.924   2.866
18385W        W86726  14.116  21.563   3.174
18386W        W86727  11.798   8.242  10.992
18387W        W86728  30.547   6.695   4.635
18388W        W86729   8.291   6.868   0.265
18389W        W86730  32.500  10.230   1.427
18390W        W86731  16.118  21.519   0.747
18391W        W86732  39.823  11.308  14.869
18392W        W86733  39.549  17.715  13.395
18393W        W86734   7.173  34.555   3.320
18394W        W86735  13.149  17.146   1.916
18395W        W86736  18.103  32.950   2.357
18396W        W86737   8.302  18.056   1.806
18397W        W86738  42.804  16.315  10.588
18398W        W86739   0.320  17.198  10.113
18399W        W86740   0.808  41.477  14.481
18400W        W86741  10.207  26.596   2.733
18401W        W86742  16.128   2.771   1.357
18402W        W86743  38.326  40.308   4.312
18403W        W86744  34.054  34.392  13.344
18404W        W86745  14.736  25.589   0.737
18405W        W86746  41.502  24.015  12.018
18406W        W86747   1.429  10.384  13.922
18407W        W86748  13.800   3.779   4.339
18408W        W86749   5.787  39.532   0.345
18409W        W86750  26.165  32.606  11.428
18410W        W86751  12.272  13.165   5.201
18411W        W86752  42.006  16.161   4.713
18412W        W86753   8.366  21.055   3.662
18413W        W86754   9.177  27.579  13.319
18414W        W86755   7.675   0.890  11.491
18415W        W86756  22.193  44.492   2.720
18416W        W86757  14.212  16.653   2.774
18417W        W86758  25.079  30.081   3.367
18418W        W86759  41.821  16.157   3.682
18419W        W86760   2.895  12.610  13.532
18420W        W86761  32.895  32.581   3.859
18421W        W86762  38.859   1.258  11.125
18422W        W86763   3.328  25.068  13.834
18423W        W86764  38.906  43.286   5.622
18424W        W86765  27.037  31.101   2.777
18425W        W86766   1.456  22.558   3.348
18426W        W86767  40.378  38.963   3.166
18427W        W86768  29.597   0.406  14.278
18428W        W86769  15.263  10.863  14.304
18429W        W86770   9.337  41.408   2.312
18430W        W86771  27.968  43.427  14.767
18431W        W86772   3.802  10.728  11.085
18432W        W86773  38.343  12.214  11.047
18433W        W86774  33.004  44.335  12.902
18434W        W86775  41.511  32.117   0.410
18435W        W86776  40.497   7.289   5.188
18436W        W86777  41.305  29.072   0.409
18437W        W86778   7.768  38.961   4.145
18438W        W86779   2.921  21.533   2.328
18439W        W86780   6.376  35.382   2.733
18440W        W86781  36.914  22.520  11.041
18441W        W86782  44.802  24.533  10.570
18442W        W86783  38.967   5.312  11.064
18443W        W86784  10.152  25.090  13.325
18444W        W86785   7.804  24.711   1.706
18445W        W86786  24.654   0.395   0.750
18446W        W86787  27.192   5.747  11.437
18447W        W86788  26.129  32.402   4.214
18448W        W86789  16.072  34.982   1.837
18449W        W86790  33.449   9.692   3.194
18450W        W86791  12.281  13.817   3.637
18451W        W86792  12.171  29.054   1.729
18452W        W86793  26.178  41.430  11.986
18453W        W86794  22.690  41.863  12.477
18454W        W86795  44.336  18.781   4.656
18455W        W86796  37.574  39.910  10.587
18456W        W86797  39.330   9.779   2.859
18457W        W86798  28.026  10.654  12.548
18458W        W86799   2.256   3.953   3.813
18459W        W86800  35.895  20.642  12.989
18460W        W86801   3.413  41.314   4.351
18461W        W86802  14.615  33.880  14.335
18462W        W86803   7.323  27.493   0.958
18463W        W86804  38.868  19.652   3.701
18464W        W86805  33.998  25.061   5.128
18465W        W86806  40.318  13.188   4.678
18466W        W86807  40.364  29.042   2.734
18467W        W86808   8.335   3.827  14.781
18468W        W86809  31.553  43.387   1.846
18469W        W86810  25.181   2.237  13.045
18470W        W86811   7.210   6.366  12.520
18471W        W86812  31.053   9.207   2.850
18472W        W86813  33.599   1.743  14.473
18473W        W86814   8.260  10.308   1.901
18474W        W86815  27.502  13.792  14.960
18475W        W86816  28.061  22.699  14.871
18476W        W86817  24.013  13.110   0.926
18477W        W86818   0.874   1.252  11.972
18478W        W86819  23.620  17.672   0.350
18479W        W86820   1.835  16.108  10.055
18480W        W86821  33.511   3.745  14.840
18481W        W86822  44.906   8.802  12.341
18482W        W86823  31.933  41.382   0.955
18483W        W86824  39.908  16.641  13.794
18484W        W86825  25.635   9.272  14.758
18485W        W86826   9.224  14.292   2.790
18486W        W86827  33.434  30.464   4.123
18487W        W86828   5.882  38.440   1.365
18488W        W86829  33.096  37.986   1.701
18489W        W86830  24.574   1.815  11.863
18490W        W86831   7.197  15.156  12.389
18491W        W86832  39.506  10.280  12.432
18492W        W86833  12.337  37.357   0.439
18493W        W86834  13.651  37.381   0.402
18494W        W86835  36.474  32.545   3.651
18495W        W86836  34.613   5.898   4.818
18496W        W86837   9.729  30.635  11.383
18497W        W86838  17.192   7.318  10.522
18498W        W86839  28.006  18.675   4.316
18499W        W86840  23.202   4.233   3.806
18500W        W86841  36.502  28.055  11.073
18501W        W86842  29.580  18.285   4.734
18502W        W86843   8.312   8.273  13.372
18503W        W86844  12.682   4.820   3.647
18504W        W86845   8.181  18.625  14.296
18505W        W86846  33.587  23.226  12.400
18506W        W86847  33.393  17.191  13.031
18507W        W86848   6.780  37.361   2.881
18508W        W86849  25.972  35.001  10.567
18509W        W86850   4.932  28.186   1.772
18510W        W86851   2.227  42.836  13.312
18511W        W86852  28.130  26.499   5.246
18512W        W86853   6.402  29.624  14.334
18513W        W86854  21.601   1.799   1.884
18514W        W86855   1.246   7.907  12.913
18515W        W86856  30.568  20.223  14.339
18516W        W86857  34.870  23.005   4.600
18517W        W86858  24.226  13.202   1.915
18518W        W86859  10.735  43.890   2.860
18519W        W86860  24.024  18.264   4.114
18520W        W86861  15.309   3.433  11.009
18521W        W86862  16.100  15.681  12.059
18522W        W86863  34.951   4.220   3.244
18523W        W86864  33.027  23.663  12.461
18524W        W86865  14.302  16.593  13.004
18525W        W86866  31.951  28.681   4.191
18526W        W86867  29.071  21.680  12.529
18527W        W86868  12.743  26.068  13.043
18528W        W86869  19.163  32.628  12.997
18529W        W86870  36.499  37.922   4.836
18530W        W86871  35.477   5.811  14.834
18531W        W86872  19.256  30.600  12.990
18532W        W86873  15.222  33.022  13.041
18533W        W86874   9.720  43.393   2.814
18534W        W86875  12.806  11.843   4.221
18535W        W86876  13.838  29.614   0.254
18536W        W86877   6.310  41.412   1.791
18537W        W86878  18.667  13.200  12.074
18538W        W86879  33.544   5.875  10.118
18539W        W86880  43.877   8.237  10.590
18540W        W86881   1.866  17.719  11.524
18541W        W86882  39.961  18.202   1.859
18542W        W86883  22.713  21.182  12.340
18543W        W86884  35.390   2.394  11.419
18544W        W86885  42.016   9.836   0.436
18545W        W86886   9.229  21.203  11.583
18546W        W86887  38.012  33.020   0.727
18547W        W86888  35.517  38.999   4.748
18548W        W86889  31.138  12.832  13.835
18549W        W86890   8.886   9.337   5.231
18550W        W86891  14.800  20.086  12.010
18551W        W86892  33.462  12.274  12.538
18552W        W86893  29.533   3.400   0.267
18553W        W86894   1.253  37.847   2.742
18554W        W86895   5.741  40.868   1.723
18555W        W86896  11.186  25.500  10.524
18556W        W86897  16.687   0.803  14.486
18557W        W86898  18.171   9.811  10.429
18558W        W86899  37.906   4.382   2.676
18559W        W86900   0.853   4.422   0.289
18560W        W86901   0.458  28.660  10.635
18561W        W86902   7.758  25.484  13.431
18562W        W86903  12.842   9.222   1.372
18563W        W86904  29.598  32.889   0.894
18564W        W86905   8.224  33.521  12.835
18565W        W86906  26.154  43.384  13.964
18566W        W86907  14.172  38.904   4.248
18567W        W86908  10.265  36.353   4.285
18568W        W86909  10.281  40.997  14.880
18569W        W86910  16.694   2.762   1.715
18570W        W86911  38.922  39.024  13.542
18571W        W86912  25.507  10.212   3.671
18572W        W86913  36.042  36.084   4.294
18573W        W86914   9.873  15.122   4.631
18574W        W86915  36.046  11.341  14.296
18575W        W86916   5.687   8.245  13.508
18576W        W86917  41.938   5.924   3.839
18577W        W86918  25.593  13.672   0.442
18578W        W86919  14.733  23.205   2.835
18579W        W86920  28.969  23.701   0.321
18580W        W86921  35.470  38.917   0.867
18581W        W86922  15.626  27.474   4.648
18582W        W86923  21.598  26.462   1.848
18583W        W86924   2.756   6.743  12.039
18584W        W86925  16.300  31.404  12.845
18585W        W86926  41.433   5.436   1.451
18586W        W86927  26.181  38.532   2.414
18587W        W86928  41.001  12.751   1.312
18588W        W86929   3.768  20.206  12.428
18589W        W86930  27.586  11.771   2.324
18590W        W86931   1.914  39.476  14.982
18591W        W86932  41.355  38.332  12.956
18592W        W86933   4.428   9.226  14.919
18593W        W86934  20.595  30.655  13.981
18594W        W86935   2.735  15.771  10.519
18595W        W86936  19.275  36.021  11.456
18596W        W86937  13.657  26.656   3.811
18597W        W86938  16.111  24.521  11.571
18598W        W86939  39.868   9.246   2.841
18599W        W86940   5.400  30.636  14.858
18600W        W86941  19.727  21.519   3.862
18601W        W86942  33.916  21.058  13.929
18602W        W86943  28.004  18.550  14.007
18603W        W86944  10.858  37.492  10.614
18604W        W86945  30.957  14.202   3.661
18605W        W86946  40.846  19.697   0.331
18606W        W86947  31.504  36.092   1.373
18607W        W86948  33.442   6.295  12.036
18608W        W86949  13.135  38.427   1.231
18609W        W86950  20.081   9.872  13.362
18610W        W86951  16.103  26.014   2.309
18611W        W86952  31.074  36.357  13.003
18612W        W86953  35.080  27.079   1.360
18613W        W86954  29.166   7.765   2.855
18614W        W86955  26.482  29.471  11.410
18615W        W86956   8.772  18.639  14.382
18616W        W86957  30.646  36.061  12.082
18617W        W86958  44.921   2.360  11.550
18618W        W86959  21.241  19.155  14.822
18619W        W86960  15.253  27.500  14.416
18620W        W86961  23.109  26.151  13.938
18621W        W86962  32.589  17.684  10.498
18622W        W86963   8.160   2.349  11.594
18623W        W86964  41.480  19.728   4.710
18624W        W86965  18.621  22.041   1.920
18625W        W86966   2.228  21.215   1.413
18626W        W86967  37.339  12.220  14.948
18627W        W86968  38.553  43.376  14.859
18628W        W86969  18.771  33.983   3.163
18629W        W86970  35.548  36.518  11.030
18630W        W86971  13.197  31.581  14.778
18631W        W86972  18.061  37.408   4.666
18632W        W86973  35.926  35.450  13.792
18633W        W86974  27.526  30.048  13.489
18634W        W86975  38.037  27.572  13.523
18635W        W86976  24.643  39.022   3.728
18636W        W86977   2.300  18.745   0.262
18637W        W86978  20.121   8.186  14.431
18638W        W86979   6.844   9.880   4.159
18639W        W86980  15.636  11.294  11.392
18640W        W86981  17.115  19.171   2.296
18641W        W86982  10.325  10.689   2.180
18642W        W86983  34.415  38.892   2.682
18643W        W86984   7.819  25.197   0.749
18644W        W86985  10.753  35.917   0.248
18645W        W86986   1.384   5.789  10.443
18646W        W86987  33.622  38.526   4.688
18647W        W86988   4.800  41.445   1.901
18648W        W86989  30.163  21.144  11.001
18649W        W86990  38.028  41.365   2.270
18650W        W86991  34.881  40.907  12.471
18651W        W86992  20.584  28.469   3.326
18652W        W86993  23.999  21.745   3.163
18653W        W86994  42.785   0.811  14.360
18654W        W86995  39.458  32.939  10.986
18655W        W86996  32.390  10.243   0.304
18656W        W86997  36.592   6.746   1.741
18657W        W86998  33.605  39.855  14.851
18658W        W86999   8.172  25.124  13.345
18659W        W87000   7.193  14.230   2.789
18660W        W87001  42.841  21.136   0.872
18661W        W87002  19.762  41.520  12.870
18662W        W87003  17.727  23.112   2.338
18663W        W87004  29.656  28.508   0.379
18664W        W87005   9.156  41.362   0.732
18665W        W87006  13.662  18.758  10.971
18666W        W87007  36.569  25.982   0.743
18667W        W87008   8.199  24.503  11.469
18668W        W87009  39.902  35.597   1.221
18669W        W87010  11.220  10.814  13.802
18670W        W87011  44.905  20.035  11.098
18671W        W87012  42.864   7.839   1.796
18672W        W87013  12.116  18.143   1.930
18673W        W87014   5.328  23.692  14.304
18674W        W87015  40.039  38.342  10.432
18675W        W87016  14.224  10.384  13.982
18676W        W87017  23.128  36.928  10.578
18677W        W87018  25.146  18.560  11.028
18678W        W87019   0.815   5.197   4.168
18679W        W87020  33.033  20.218   4.239
18680W        W87021  40.923   8.367  10.482
18681W        W87022  24.174  44.492  13.436
18682W        W87023   8.879  22.716   2.211
18683W        W87024  34.569   1.242  11.526
18684W        W87025  10.762  36.019  10.454
18685W        W87026  25.117  11.811  11.863
18686W        W87027   2.947  27.666  12.454
18687W        W87028  16.738  38.392  12.463
18688W        W87029  26.579  17.253  11.457
18689W        W87030   3.856  32.945  10.539
18690W        W87031   9.718  18.095   3.310
18691W        W87032  37.070  20.204  11.386
18692W        W87033  19.060  44.848   1.382
18693W        W87034   6.804  19.206   4.786
18694W        W87035  38.022  44.857  10.518
18695W        W87036  19.208  17.703   1.882
18696W        W87037  18.613  27.143   3.660
18697W        W87038   6.891  31.909  12.008
18698W        W87039  13.633  41.894   4.300
18699W        W87040  23.163  22.677   1.254
18700W        W87041  15.178  26.970   0.830
18701W        W87042   8.852  38.451  13.924
18702W        W87043  30.580   8.871  10.920
18703W        W87044  38.521  26.578   4.790
18704W        W87045  24.046  10.740   1.775
18705W        W87046  26.621  31.477   4.344
18706W        W87047  21.642   5.231   4.253
18707W        W87048  42.381  37.503   1.248
18708W        W87049  32.010  39.846   0.425
18709W        W87050  17.118  33.902   5.136
18710W        W87051  14.181  20.691   4.234
18711W        W87052   0.494  34.416   0.406
18712W        W87053  12.783  31.065  12.348
18713W        W87054  13.748   0.842   3.866
18714W        W87055   9.821  37.457  11.932
18715W        W87056   6.901  33.460   2.846
18716W        W87057  19.120   5.826  14.865
18717W        W87058   2.731  39.349  13.425
18718W        W87059   0.819  18.113   2.316
18719W        W87060  43.831  19.177   0.923
18720W        W87061   3.381  27.500  12.928
18721W        W87062  18.644  16.162  10.506
18722W        W87063  15.203   5.689  14.369
18723W        W87064   2.446  19.661  12.517
18724W        W87065   5.253  19.711  10.421
18725W        W87066  33.007  42.396   4.699
18726W        W87067   3.336  31.642  13.901
18727W        W87068  20.163   7.868  12.953
18728W        W87069  40.805  14.313   1.421
18729W        W87070  29.037  12.201  13.417
18730W        W87071  12.151   1.422  12.086
18731W        W87072   3.249  22.695   4.228
18732W        W87073  44.494  32.920   4.665
18733W        W87074  36.457  36.069  14.936
18734W        W87075   6.776  35.925   3.356
18735W        W87076  11.240  36.048   4.812
18736W        W87077  24.196  15.284   3.631
18737W        W87078   3.826  31.589   3.834
18738W        W87079   4.275  19.776   0.960
18739W        W87080   1.352  28.960   0.795
18740W        W87081  37.864  10.834   3.756
18741W        W87082  34.497  10.757   1.403
18742W        W87083  10.252   6.809   4.752
18743W        W87084  39.459  35.945   1.279
18744W        W87085  43.468  38.518  10.575
18745W        W87086  26.565  24.542   3.685
18746W        W87087   6.182  37.571  10.030
18747W        W87088  25.492  39.025  14.298
18748W        W87089  32.444  11.646  14.943
18749W        W87090  25.582   3.370  11.448
18750W        W87091  41.865  26.990  10.467
18751W        W87092  29.611   9.171  10.558
18752W        W87093  23.207   0.946  12.957
18753W        W87094   2.960  37.394   4.716
18754W        W87095  21.524  42.971  11.070
18755W        W87096  22.165  13.259   0.784
18756W        W87097  41.320  31.483  10.979
18757W        W87098  19.630  40.423   4.337
18758W        W87099  38.856  20.649   0.891
18759W        W87100   6.894   7.237   4.766
18760W        W87101  27.155   6.747   3.297
18761W        W87102  40.417  26.578   4.775
18762W        W87103  11.694  44.431  11.936
18763W        W87104  12.779   1.329   3.364
18764W        W87105  20.116   0.878  14.467
18765W        W87106   6.696  27.655   1.226
18766W        W87107  42.831   7.250   0.960
18767W        W87108   9.169  16.176   1.792
18768W        W87109   8.846   8.239  13.379
18769W        W87110   2.249  12.177   0.464
18770W        W87111  20.644  35.426  13.994
18771W        W87112  27.093  41.894  10.603
18772W        W87113   7.260  32.589  10.929
18773W        W87114  22.705  38.454   3.864
18774W        W87115  40.306  31.632  12.031
18775W        W87116  23.171  13.677   3.690
18776W        W87117   8.773  26.017  11.127
18777W        W87118  37.884  13.806   4.677
18778W        W87119  12.132  12.855   2.748
18779W        W87120  10.246  16.316   0.736
18780W        W87121   0.440  18.279   4.627
18781W        W87122  34.877  29.050  11.076
18782W        W87123  14.309  17.228  11.452
18783W        W87124  24.570  15.120  13.846
18784W        W87125  16.313  32.469   3.315
18785W        W87126  34.479  18.072  11.950
18786W        W87127  30.564  23.043  14.343
18787W        W87128   5.776  24.537   3.373
18788W        W87129  14.264  40.515   5.726
18789W        W87130  29.469  19.093   0.476
18790W        W87131  19.730  37.035   2.234
18791W        W87132   7.182  29.542   0.885
18792W        W87133  32.478  34.048  14.426
18793W        W87134  15.584  27.527   0.850
18794W        W87135  24.649  17.579  14.905
18795W        W87136  22.541  23.093   2.217
18796W        W87137   0.299   3.765   1.373
18797W        W87138  15.154  34.599   4.683
18798W        W87139  32.633  31.527   4.743
18799W        W87140  41.518   5.225   4.224
18800W        W87141   1.428  26.147   0.852
18801W        W87142  17.125  19.151   4.660
18802W        W87143  33.559   0.298  12.440
18803W        W87144  37.400  38.021  11.996
18804W        W87145  32.434   8.210   1.291
18805W        W87146  36.488   0.792  10.640
18806W        W87147  41.354  43.394  11.613
18807W        W87148  11.750   2.243  10.930
18808W        W87149   3.398  26.650   4.298
18809W        W87150  16.742   3.302  13.860
18810W        W87151   9.843  11.263  13.433
18811W        W87152  31.571  36.846  13.467
18812W        W87153  17.216  11.273  10.608
18813W        W87154   4.255   6.383   2.854
18814W        W87155  11.332  21.139   4.118
18815W        W87156   4.235  22.504   3.252
18816W        W87157  43.792   3.329   0.469
18817W        W87158   1.450  38.395   2.738
18818W        W87159  36.474  44.788  11.552
18819W        W87160  19.553  33.928  14.457
18820W        W87161  26.518  11.867  14.826
18821W        W87162  31.898  30.626  13.948
18822W        W87163  43.318  12.131   0.821
18823W        W87164   6.375  13.652  14.284
18824W        W87165  36.559  12.285   2.232
18825W        W87166   5.756  22.714  10.584
18826W        W87167   3.458  37.869   2.403
18827W        W87168  27.453  13.774   3.356
18828W        W87169  43.373  42.457  11.122
18829W        W87170   4.384  18.252  13.394
18830W        W87171  33.431  43.504  10.629
18831W        W87172  44.818   9.670   2.865
18832W        W87173  43.327  21.033  14.495
18833W        W87174  24.192  23.701  12.962
18834W        W87175  44.440   5.806   1.772
18835W        W87176   4.793  21.158  11.589
18836W        W87177  11.297  41.873   1.763
18837W        W87178   1.427  12.246   3.387
18838W        W87179   7.273  20.709  14.994
18839W        W87180  33.425  13.750  14.282
18840W        W87181  25.215  16.704   5.293
18841W        W87182  26.047   2.397  14.416
18842W        W87183  14.237  38.059   0.928
18843W        W87184  34.103  20.264   0.848
18844W        W87185   7.202   4.359  14.428
18845W        W87186   7.778   4.797   4.298
18846W        W87187  42.461  33.095   1.751
18847W        W87188   6.795  41.532  13.380
18848W        W87189  29.486  22.099   4.615
18849W        W87190  42.311  27.184   1.834
18850W        W87191  20.566  25.138  13.320
18851W        W87192  37.918  40.810   5.693
18852W        W87193  31.564   3.955  13.464
18853W        W87194   7.231   7.746  13.433
18854W        W87195  28.151  34.417  12.055
18855W        W87196   5.224  40.932   3.280
18856W        W87197  22.082  13.210  10.639
18857W        W87198  30.527  39.834   2.869
18858W        W87199  31.077   9.866  12.891
18859W        W87200   4.872  13.695   4.327
18860W        W87201  23.572   1.886  13.475
18861W        W87202  10.655  44.491   1.252
18862W        W87203  10.247  33.480  13.440
18863W        W87204  40.462  20.116   3.741
18864W        W87205  44.503  30.460  12.342
18865W        W87206   4.204  25.083  11.543
18866W        W87207  15.782  37.490  11.902
18867W        W87208  37.394  35.545  11.977
18868W        W87209  34.580   9.345   0.284
18869W        W87210   1.747  23.619   4.696
18870W        W87211   6.827  35.528   3.300
18871W        W87212  14.191  11.713   0.843
18872W        W87213   8.731  22.090  13.392
18873W        W87214  15.802   3.283   3.707
18874W        W87215   9.853   2.884  11.937
18875W        W87216  42.387  34.466  12.985
18876W        W87217  31.607  33.473  14.410
18877W        W87218  12.167  21.124   0.379
18878W        W87219   6.369  33.876   3.817
18879W        W87220  29.538  14.159  10.600
18880W        W87221  40.921  11.825   2.875
18881W        W87222  23.048   2.297  13.970
18882W        W87223  19.148  43.427  11.481
18883W        W87224  32.968  11.862   4.719
18884W        W87225  35.463  23.614  14.764
18885W        W87226  35.378  12.253   1.795
18886W        W87227  14.220  17.078   0.945
18887W        W87228  36.581  38.010  12.982
18888W        W87229  43.941  19.265   0.262
18889W        W87230   7.370  24.034  13.851
18890W        W87231  33.981  42.859   2.787
18891W        W87232  21.527  14.285   2.751
18892W        W87233   3.259  26.208  14.916
18893W        W87234  16.781  11.681   3.331
18894W        W87235  11.635   8.686  14.827
18895W        W87236  20.661  42.291   0.739
18896W        W87237   1.421   5.210   1.233
18897W        W87238   1.894  44.934  10.412
18898W        W87239  11.239  25.035   2.693
18899W        W87240   3.326   1.415  11.095
18900W        W87241  19.095  23.620   1.242
18901W        W87242  27.627  39.956   2.414
18902W        W87243  21.610   7.870  10.971
18903W        W87244  15.161  24.527  11.479
18904W        W87245  36.872   0.803  11.100
18905W        W87246  11.373  10.341   0.824
18906W        W87247  43.938  17.767   5.185
18907W        W87248  36.427  23.723   1.265
18908W        W87249  23.559   6.270   1.749
18909W        W87250  20.085  38.970   1.360
18910W        W87251   7.858  22.046   2.831
18911W        W87252  24.556  25.515  11.885
18912W        W87253  41.810   1.816  14.327
18913W        W87254  44.444   0.250   4.660
18914W        W87255  29.658  36.989   4.310
18915W        W87256  44.902   6.410  10.931
18916W        W87257   5.779  15.714  10.474
18917W        W87258  19.766  33.888   0.807
18918W        W87259  27.550  10.776   4.697
18919W        W87260  16.174  37.888   3.246
18920W        W87261  34.385   8.773  11.535
18921W        W87262  44.340  21.054  11.908
18922W        W87263  32.542  36.917   3.231
18923W        W87264  32.037  25.078   2.243
18924W        W87265  41.911  40.316  12.387
18925W        W87266  28.594   5.836   4.184
18926W        W87267  22.214   1.354  14.401
18927W        W87268   3.332   0.816  13.350
18928W        W87269  19.764  31.981  11.393
18929W        W87270   9.683  28.057   4.794
18930W        W87271  35.064  29.004  14.310
18931W        W87272  24.635  31.516  11.460
18932W        W87273  19.650  16.081  11.910
18933W        W87274  29.535  39.546  12.505
18934W        W87275  13.142  25.165   2.839
18935W        W87276  15.779  41.372  13.062
18936W        W87277  40.544  40.440  12.847
18937W        W87278   2.911  26.459   1.727
18938W        W87279  37.362  26.984   3.682
18939W        W87280  17.579  14.659   0.872
18940W        W87281  22.093  25.672  13.342
18941W        W87282   4.938  28.439  13.988
18942W        W87283   1.379   8.324   2.734
18943W        W87284  34.917  26.695  10.077
18944W        W87285   9.798  38.540  12.397
18945W        W87286  10.733  15.683   1.328
18946W        W87287  12.787   5.892  10.476
18947W        W87288  31.994   0.749  14.454
18948W        W87289   9.652  29.512  11.872
18949W        W87290  26.647  18.185  14.462
18950W        W87291  19.737  30.530   0.312
18951W        W87292  22.585  17.783  11.484
18952W        W87293  21.097  41.506   1.296
18953W        W87294  27.158  37.457  11.546
18954W        W87295   9.719  25.712  13.845
18955W        W87296  14.758  18.726  12.869
18956W        W87297  15.158  42.423  11.866
18957W        W87298  18.155  31.590  13.343
18958W        W87299   1.813  39.382   3.204
18959W        W87300  33.460  13.807   4.309
18960W        W87301   7.739   9.343   4.179
18961W        W87302  29.541  29.982   4.735
18962W        W87303   3.449   5.856   0.945
18963W        W87304  19.555   0.483   2.274
18964W        W87305   7.193  32.000  10.578
18965W        W87306  13.692  17.124  11.912
18966W        W87307  44.818  21.605  14.397
18967W        W87308  37.946  19.776   2.417
18968W        W87309   3.797  33.522  12.907
18969W        W87310   0.766  17.256   9.645
18970W        W87311  25.058  16.101  10.038
18971W        W87312  28.479  41.522   4.242
18972W        W87313  28.000  33.500   1.785
18973W        W87314  36.848   1.931  12.419
18974W        W87315  28.581  42.782  11.600
18975W        W87316   6.394   5.773  14.993
18976W        W87317  24.102  13.833  13.861
18977W        W87318  41.970  42.499  11.032
18978W        W87319   8.767  37.439  11.078
18979W        W87320   5.729  36.091   2.282
18980W        W87321   0.372  10.375  14.010
18981W        W87322  30.125  37.887  13.001
18982W        W87323   8.232  26.047   4.609
18983W        W87324  12.803  22.007   2.296
18984W        W87325  37.899  11.853   2.713
18985W        W87326  21.552  23.049  14.957
18986W        W87327  16.300  37.540   2.848
18987W        W87328  28.079  41.436  11.094
18988W        W87329  19.533  27.082   1.299
18989W        W87330  40.435  10.709  13.426
18990W        W87331   8.865  17.106  14.800
18991W        W87332  40.903  27.189  11.101
18992W        W87333  20.731  37.384   1.798
18993W        W87334  42.907  36.567  13.346
18994W        W87335  28.473  20.167   2.675
18995W        W87336   7.292  13.626   1.722
18996W        W87337  20.640  31.041   0.771
18997W        W87338  41.821  20.139   2.877
18998W        W87339   3.712  37.462  14.334
18999W        W87340  17.094  35.583  12.828
19000W        W87341  11.221  13.279   4.171
19001W        W87342  24.165  12.778   4.769
19002W        W87343  44.827   9.152  12.900
19003W        W87344  28.637   9.306  12.862
19004W        W87345  18.781  25.107  11.439
19005W        W87346  18.608   8.402   1.361
19006W        W87347  16.646  41.910   0.260
19007W        W87348  28.642  17.234  10.948
19008W        W87349  35.856  41.436   2.287
19009W        W87350  16.738  35.437  14.896
19010W        W87351  22.073  14.212   2.691
19011W        W87352   3.304  35.942   1.744
19012W        W87353  30.507   2.395  10.534
19013W        W87354  16.756  34.937   5.186
19014W        W87355  24.617  11.248   2.710
19015W        W87356  25.184  33.420   4.342
19016W        W87357   1.455  19.772   1.239
19017W        W87358  28.529  37.449  10.461
19018W        W87359  36.385  33.577   4.830
19019W        W87360  35.430   6.200   1.826
19020W        W87361  43.361  38.556  14.409
19021W        W87362  16.132  25.485  14.787
19022W        W87363  17.208  17.246   1.377
19023W        W87364  29.073  10.270   0.801
19024W        W87365  25.068  10.188  14.514
19025W        W87366   5.720  21.046   1.752
19026W        W87367  26.172  18.647  14.895
19027W        W87368  11.666  16.660  12.407
19028W        W87369  37.395   4.327   1.810
19029W        W87370  33.105  36.981  13.411
19030W        W87371  27.570  11.819  10.903
19031W        W87372  36.501   2.370  12.890
19032W        W87373   6.311   2.415  11.542
19033W        W87374  21.541  42.822   1.303
19034W        W87375  22.182  39.893   0.310
19035W        W87376   5.898   5.411  14.363
19036W        W87377  21.708  32.095  14.364
19037W        W87378  21.569  35.879  14.358
19038W        W87379  31.449  37.427   4.131
19039W        W87380  42.390  23.116  12.449
19040W        W87381  36.079  44.263   1.440
19041W        W87382  40.531  43.332   4.146
19042W        W87383  12.188  18.652   2.731
19043W        W87384  28.616  21.237   3.675
19044W        W87385  10.840   8.743  12.347
19045W        W87386  12.650  14.700  12.519
19046W        W87387  38.385  37.567   4.721
19047W        W87388  38.918  28.088   4.183
19048W        W87389  37.913  41.433  11.438
19049W        W87390  44.921  28.595  13.331
19050W        W87391  17.199  41.796   4.217
19051W        W87392  10.361  31.035   4.610
19052W        W87393  28.590  13.650   2.778
19053W        W87394   2.929  36.990   3.629
19054W        W87395   8.734   3.368  13.044
19055W        W87396  12.341  39.402  11.541
19056W        W87397  43.853  10.756  11.977
19057W        W87398   5.263  16.597   0.409
19058W        W87399  16.717   9.745   4.169
19059W        W87400  29.583  31.516  12.996
19060W        W87401  23.085  41.042   1.368
19061W        W87402  21.200   9.658  10.052
19062W        W87403   5.747  13.838   3.231
19063W        W87404  28.100  33.131  13.863
19064W        W87405  33.910  11.157   0.957
19065W        W87406  24.055   0.953   4.658
19066W        W87407  24.495  40.483   3.191
19067W        W87408  44.776  18.202   4.734
19068W        W87409  14.711  38.887  11.581
19069W        W87410  17.665   8.786  10.480
19070W        W87411  30.087  39.455   2.692
19071W        W87412   7.305  28.088  11.514
19072W        W87413  42.930  16.287   0.925
19073W        W87414   5.285  31.496   2.315
19074W        W87415  14.619  18.640   1.327
19075W        W87416  13.161  33.004  14.382
19076W        W87417  18.264   8.280  11.582
19077W        W87418   3.749  42.912  11.032
19078W        W87419   8.674   1.430   2.302
19079W        W87420   9.710  41.334  14.978
19080W        W87421   2.779  30.967  10.485
19081W        W87422  19.654  25.031  11.612
19082W        W87423  32.929  26.642  11.110
19083W        W87424   4.282  13.187  10.556
19084W        W87425  32.609  44.298  11.029
19085W        W87426  35.380  36.378  13.057
19086W        W87427   3.243  26.138  10.438
19087W        W87428  13.121  41.321   3.320
19088W        W87429   4.226  11.172   4.140
19089W        W87430  27.122   7.370  10.638
19090W        W87431  43.873   5.239  14.816
19091W        W87432  23.042  37.052  14.774
19092W        W87433  44.993   2.453   0.799
19093W        W87434  26.608  35.503  11.997
19094W        W87435   9.195  36.577  10.590
19095W        W87436  35.876   9.320   0.427
19096W        W87437  32.452  23.075   1.911
19097W        W87438  15.646  39.040  13.011
19098W        W87439  29.432  40.937   3.264
19099W        W87440   6.204  29.574   4.161
19100W        W87441  17.709  30.918  14.933
19101W        W87442  42.436   0.343  13.328
19102W        W87443  14.624  15.153   4.286
19103W        W87444  23.148  16.676   5.218
19104W        W87445  21.246  18.173  14.808
19105W        W87446  24.579   9.802   3.317
19106W        W87447  39.954  38.057  11.106
19107W        W87448  26.035  33.581   3.820
19108W        W87449  36.467  20.660   0.437
19109W        W87450   9.262   6.234   0.929
19110W        W87451   6.394   6.738   3.690
19111W        W87452  25.081  41.874  12.423
19112W        W87453   1.370  43.818  12.570
19113W        W87454  11.140   1.265   0.412
19114W        W87455   0.925  19.273   1.891
19115W        W87456  18.213  39.329  10.569
19116W        W87457  26.024   6.293  14.496
19117W        W87458  36.997  32.026  13.439
19118W        W87459  12.780  17.199   2.744
19119W        W87460  38.823  40.324   3.792
19120W        W87461  24.220  18.098   1.837
19121W        W87462   9.751  31.993  13.513
19122W        W87463  30.028  29.457  12.011
19123W        W87464  38.512  43.816  12.454
19124W        W87465   3.740  22.014  10.633
19125W        W87466   2.942  37.935  11.099
19126W        W87467  34.074   9.352  13.498
19127W        W87468  25.066  29.033   1.756
19128W        W87469  36.921   1.350  14.916
19129W        W87470  36.424  29.494  13.446
19130W        W87471  38.372  37.416   4.172
19131W        W87472  40.002  42.827   5.276
19132W        W87473  39.021  36.852  14.429
19133W        W87474   7.250  19.629  13.980
19134W        W87475  26.512  41.532  10.543
19135W        W87476   0.343   0.915  13.060
19136W        W87477  11.829   6.787  12.991
19137W        W87478  16.152   9.793  11.523
19138W        W87479  20.069   9.348  13.308
19139W        W87480   0.772  29.447  11.897
19140W        W87481  35.520   6.808   1.706
19141W        W87482   6.370  18.121  10.583
19142W        W87483   0.293  37.024  12.909
19143W        W87484  45.000   5.219   1.734
19144W        W87485  37.517   1.276  14.363
19145W        W87486  14.268  40.936  11.024
19146W        W87487  38.979   8.287  12.477
19147W        W87488   2.366  34.588  12.010
19148W        W87489  17.685   7.387   2.239
19149W        W87490  11.795  25.506   2.219
19150W        W87491  35.858  42.866  12.008
19151W        W87492  34.901   2.240  13.390
19152W        W87493   3.725  42.001  12.360
19153W        W87494  42.015  43.314  10.573
19154W        W87495  38.844  24.034   3.154
19155W        W87496   5.921  10.656   3.740
19156W        W87497  33.104   9.743  12.017
19157W        W87498  28.651  31.014  12.466
19158W        W87499  13.829  27.957   3.193
19159W        W87500  39.927  41.336   0.391
19160W        W87501  27.963  27.058   5.152
19161W        W87502  32.505  38.433  10.025
19162W        W87503  39.888   1.253   0.454
19163W        W87504   4.701  20.710  11.600
19164W        W87505  12.733  23.598   0.845
19165W        W87506  19.254  20.663   4.330
19166W        W87507  25.530  18.602   3.387
19167W        W87508   0.271  29.109  13.392
19168W        W87509  15.735  34.457   4.259
19169W        W87510   2.796  34.545  10.505
19170W        W87511  19.095   0.880   1.227
19171W        W87512  23.196   3.271  11.379
19172W        W87513  20.047   9.242  14.434
19173W        W87514  44.449  16.299   1.234
19174W        W87515  35.937  19.652   1.398
19175W        W87516  11.243  28.155   2.309
19176W        W87517   6.812  34.578   2.224
19177W        W87518  37.996  17.265   4.731
19178W        W87519  39.957  38.881   2.722
19179W        W87520  34.552  11.769   1.282
19180W        W87521   9.863   3.377  10.626
19181W        W87522   9.872  39.953   0.752
19182W        W87523  42.444  17.728  10.642
19183W        W87524  23.659  30.017   0.756
19184W        W87525  19.711  11.235   1.767
19185W        W87526  12.178  29.440   2.842
19186W        W87527  20.236  30.423  14.998
19187W        W87528   7.258  26.655   0.863
19188W        W87529  38.416  15.696  14.994
19189W        W87530  40.823  21.030   0.322
19190W        W87531  10.153  26.996   0.945
19191W        W87532  27.137  39.863  10.551
19192W        W87533  34.030   4.389  11.481
19193W        W87534  36.942  31.043   1.270
19194W        W87535  35.868  38.447   4.696
19195W        W87536   8.175   9.682   3.216
19196W        W87537  25.022  34.522  12.412
19197W        W87538  15.224  18.583  14.466
19198W        W87539   1.316  10.691   1.430
19199W        W87540  32.117  18.272   1.910
19200W        W87541   0.971  17.241  11.373
19201W        W87542  13.614  33.967  14.861
19202W        W87543  17.189  24.984  10.069
19203W        W87544  32.072  10.154  10.570
19204W        W87545  30.953  29.149  11.371
19205W        W87546  18.561  29.115  11.593
19206W        W87547  40.988  41.460   0.324
19207W        W87548  44.327  26.976  13.884
19208W        W87549  28.163  35.959  12.392
19209W        W87550  35.580  37.057   1.303
19210W        W87551  21.682  35.585   0.371
19211W        W87552   1.773  31.629  12.527
19212W        W87553  38.019   6.341  13.866
19213W        W87554   0.306  15.164  13.443
19214W        W87555  33.963  27.071   2.326
19215W        W87556  33.007  29.617  11.371
19216W        W87557  29.530  19.204   1.249
19217W        W87558  41.500  15.210   0.774
19218W        W87559  18.064   6.271   1.380
19219W        W87560  39.036  32.004   1.210
19220W        W87561  32.106  30.974  14.792
19221W        W87562   0.756  34.496   4.622
19222W        W87563  17.602  21.024  13.947
19223W        W87564  13.182   3.728  14.935
19224W        W87565  12.827  34.075   3.376
19225W        W87566  27.133  36.461  13.953
19226W        W87567  29.471  20.534   0.322
19227W        W87568   5.265  16.774   4.610
19228W        W87569  20.090   3.898   4.598
19229W        W87570   8.879  21.067   2.774
19230W        W87571  21.096  36.476  11.452
19231W        W87572  35.054  21.752  10.418
19232W        W87573   6.714  29.158  13.480
19233W        W87574  34.084  18.270   2.402
19234W        W87575  26.186  13.350   4.597
19235W        W87576  26.087   8.803  10.417
19236W        W87577   5.217  22.147   2.890
19237W        W87578  31.002  22.739   4.655
19238W        W87579   6.247  39.982  14.854
19239W        W87580  17.253  23.717  10.545
19240W        W87581  21.581  35.388  10.444
19241W        W87582  13.704  27.187  13.975
19242W        W87583  19.550   4.239  14.898
19243W        W87584   4.707  23.132   4.724
19244W        W87585  34.473  24.048   2.675
19245W        W87586  36.575   8.204  13.888
19246W        W87587   8.711   5.290  10.905
19247W        W87588  28.136  31.004  13.815
19248W        W87589  11.197  37.404  12.362
19249W        W87590  42.820   8.229  12.023
19250W        W87591  40.936  24.227   1.851
19251W        W87592  42.525  11.226  14.887
19252W        W87593  43.285  44.982  11.942
19253W        W87594  24.073  39.935  12.551
19254W        W87595   8.296  22.718   4.711
19255W        W87596   5.768  39.423   3.762
19256W        W87597   6.297  36.401  14.867
19257W        W87598  33.486  35.983   1.848
19258W        W87599  37.566  34.475   0.476
19259W        W87600  35.108  25.611   2.223
19260W        W87601  20.620  36.366   0.469
19261W        W87602  22.100  36.570   2.670
19262W        W87603  32.027  26.102   3.333
19263W        W87604  39.052  25.074  14.481
19264W        W87605  29.971  19.757   4.114
19265W        W87606  16.771  13.227   1.285
19266W        W87607  38.526  37.844  10.937
19267W        W87608  26.573   2.867  12.091
19268W        W87609  22.644  11.622   1.895
19269W        W87610  33.486  24.062   3.850
19270W        W87611  20.580  19.180   3.812
19271W        W87612  44.413   4.927   0.920
19272W        W87613  13.674  19.706  12.911
19273W        W87614  36.903  26.503   2.879
19274W        W87615  35.958  30.050   3.255
19275W        W87616  30.596   5.395   0.377
19276W        W87617  19.123  23.584   0.363
19277W        W87618  11.820  15.737   3.265
19278W        W87619   5.367   3.238   4.340
19279W        W87620  29.076  19.117   3.372
19280W        W87621  14.318   3.443  14.361
19281W        W87622  41.900  29.008   2.742
19282W        W87623  37.392  41.494  13.361
19283W        W87624  32.576   9.823  13.518
19284W        W87625   3.314  29.670  12.468
19285W        W87626   4.304   8.187   4.135
19286W        W87627   9.395  31.470  13.018
19287W        W87628  32.981   6.761  11.988
19288W        W87629  31.916  39.019   2.752
19289W        W87630   3.830  43.948  12.909
19290W        W87631  35.402   3.331  12.472
19291W        W87632  14.331  26.618  14.443
19292W        W87633  20.096   7.206   4.833
19293W        W87634  17.798   7.719  12.875
19294W        W87635  40.868  18.698  12.487
19295W        W87636  16.762  43.351  10.470
19296W        W87637  28.661   8.662   0.359
19297W        W87638  20.090   3.259   9.970
19298W        W87639  22.675  16.586  14.901
19299W        W87640   8.182  10.651  14.777
19300W        W87641  37.348  21.739   1.275
19301W        W87642  25.612   8.276   0.931
19302W        W87643  31.458  29.454   2.349
19303W        W87644   8.740  25.214   2.238
19304W        W87645  38.992  44.349   0.900
19305W        W87646  37.063  20.222  12.441
19306W        W87647  18.201  11.696  12.967
19307W        W87648   9.795   2.897  12.969
19308W        W87649  42.972  19.110   1.249
19309W        W87650  31.423  39.403   0.437
19310W        W87651  29.990  16.101   3.635
19311W        W87652  44.929  13.601  12.485
19312W        W87653   0.886  27.998  12.426
19313W        W87654  19.244  13.715  12.579
19314W        W87655  29.510  33.952  11.946
19315W        W87656  18.756  13.730  13.944
19316W        W87657  41.483  35.063   0.412
19317W        W87658  19.267   4.204   1.887
19318W        W87659   0.949  42.840   5.310
19319W        W87660  18.705  16.683   4.224
19320W        W87661   9.647  39.320  13.022
19321W        W87662  35.498  19.140  14.978
19322W        W87663  33.515  34.964  14.344
19323W        W87664  40.835  35.385   4.320
19324W        W87665  10.187   2.358   4.141
19325W        W87666  38.074  20.106  12.044
19326W        W87667  35.089  42.314   2.250
19327W        W87668  44.365   2.962   0.882
19328W        W87669  27.179  12.218   1.839
19329W        W87670  39.420  25.701   3.242
19330W        W87671  17.167  17.164  13.951
19331W        W87672   6.882   4.447   1.445
19332W        W87673  12.288   3.823   4.162
19333W        W87674  37.372  37.540  13.458
19334W        W87675  30.510  38.910  13.902
19335W        W87676  34.109  30.425   5.098
19336W        W87677  35.976   9.223   0.937
19337W        W87678  38.440  27.072   0.936
19338W        W87679   9.884   9.322   2.724
19339W        W87680  10.261   6.751  11.529
19340W        W87681  19.662   7.909   4.161
19341W        W87682  20.666  15.276  14.883
19342W        W87683   7.264  19.197  13.366
19343W        W87684  21.159  33.036   3.191
19344W        W87685  44.904  15.695  10.107
19345W        W87686  29.608  24.711   3.783
19346W        W87687  41.013  25.984  13.926
19347W        W87688  36.842  33.976  13.374
19348W        W87689  12.813   3.337   3.658
19349W        W87690  31.593  27.631  14.940
19350W        W87691  23.684  24.199   4.346
19351W        W87692   0.885  39.828   2.758
19352W        W87693  14.258  13.247  11.984
19353W        W87694   3.737   5.758  10.982
19354W        W87695  10.146   2.328   1.228
19355W        W87696  18.680  36.079   0.887
19356W        W87697  39.384  19.074   3.179
19357W        W87698  30.015  43.012   4.731
19358W        W87699  27.061  24.999   1.930
19359W        W87700  20.096  33.048   3.172
19360W        W87701  26.694  36.059   3.823
19361W        W87702   0.457  11.206   2.276
19362W        W87703  42.008   7.794   2.697
19363W        W87704  29.618  36.900  10.998
19364W        W87705  11.212  10.212   1.768
19365W        W87706  44.312   4.344  11.033
19366W        W87707  10.759  20.593   4.733
19367W        W87708  32.915  30.615  13.513
19368W        W87709   7.245  26.193   1.902
19369W        W87710  12.298  41.381   0.952
19370W        W87711  39.930  33.997  11.970
19371W        W87712  18.551  21.627   0.917
19372W        W87713  15.690   5.870   9.928
19373W        W87714   8.388  12.131   3.183
19374W        W87715  13.238   1.328   2.398
19375W        W87716  36.466  40.974   3.711
19376W        W87717  14.265   8.233   2.291
19377W        W87718   2.953  12.730  11.918
19378W        W87719  31.942   3.255   1.290
19379W        W87720  21.649  29.543  10.557
19380W        W87721   7.276  10.639  10.951
19381W        W87722  39.857  13.736   4.349
19382W        W87723  37.563  18.662  11.928
19383W        W87724  32.065  30.985  13.542
19384W        W87725  10.356  11.153  11.943
19385W        W87726  26.648  28.660  14.893
19386W        W87727  23.523  38.347  12.981
19387W        W87728  13.837   6.230  11.040
19388W        W87729   7.346  34.467   2.191
19389W        W87730  36.423   6.828   2.689
19390W        W87731  22.093   7.875   4.190
19391W        W87732   1.413  18.295   0.311
19392W        W87733   0.255  35.953   0.733
19393W        W87734   4.835  34.398   1.242
19394W        W87735  11.634  22.122  12.482
19395W        W87736  14.824   3.342  11.467
19396W        W87737   5.698  21.225   0.860
19397W        W87738  15.619  14.322  14.868
19398W        W87739  25.203  14.719  10.544
19399W        W87740  13.685  14.118   2.792
19400W        W87741  18.226  10.696   0.762
19401W        W87742   8.206  24.137  11.462
19402W        W87743  15.738  30.535   2.269
19403W        W87744  22.738  16.756  11.071
19404W        W87745  44.848  29.944   0.391
19405W        W87746  21.164   4.342   3.858
19406W        W87747  12.809  27.550  11.416
19407W        W87748  14.702  31.438  14.988
19408W        W87749  38.959  37.936   0.418
19409W        W87750  44.822   0.293   3.652
19410W        W87751  23.048  13.287  13.002
19411W        W87752  37.057   3.405  12.971
19412W        W87753  15.199   4.817  12.474
19413W        W87754  10.239  15.815   3.175
19414W        W87755  10.296   3.937  13.471
19415W        W87756  13.290  17.651  13.918
19416W        W87757  37.453  14.699   3.157
19417W        W87758   7.754  36.856   3.738
19418W        W87759  24.078   6.735  14.774
19419W        W87760   2.821  35.912   3.756
19420W        W87761  43.335  11.206  14.020
19421W        W87762  31.644  43.452  14.922
19422W        W87763  12.264   0.429  14.331
19423W        W87764  24.708  14.765  14.295
19424W        W87765  42.457  33.014   1.264
19425W        W87766  22.675  16.729  13.331
19426W        W87767   6.815   2.737  14.418
19427W        W87768  18.702  15.317   4.175
19428W        W87769  41.798  13.231  12.380
19429W        W87770  15.290  18.720  12.902
19430W        W87771  34.911  16.568   0.279
19431W        W87772  16.578   7.341  11.518
19432W        W87773  44.486   5.861  13.830
19433W        W87774  16.147  11.766   1.843
19434W        W87775  30.600  29.591   2.789
19435W        W87776  20.035  42.998  10.964
19436W        W87777  39.453   1.923   4.312
19437W        W87778   6.899   4.863  14.494
19438W        W87779  43.992   0.962   3.698
19439W        W87780   0.849  20.187   2.346
19440W        W87781  28.681  12.181  11.932
19441W        W87782  23.172   3.849   4.670
19442W        W87783  16.795  28.600  11.109
19443W        W87784  10.158  29.663   3.746
19444W        W87785  37.412  23.500   3.347
19445W        W87786  37.970  13.654  14.487
19446W        W87787   2.361   5.241  12.879
19447W        W87788  37.433  26.533   4.629
19448W        W87789   0.870  21.707   0.878
19449W        W87790  14.606  28.033   2.756
19450W        W87791   3.455   5.923   1.444
19451W        W87792  41.307  33.590  14.473
19452W        W87793   3.817   7.340   1.446
19453W        W87794  13.120  10.869  10.494
19454W        W87795  27.175  38.513  11.558
19455W        W87796  34.014   0.417   4.679
19456W        W87797   4.762  33.454  11.398
19457W        W87798  34.606  11.335   3.730
19458W        W87799  21.613   2.397  14.948
19459W        W87800  44.892  23.677  12.500
19460W        W87801  40.811  22.145  13.428
19461W        W87802  42.440   5.386   3.856
19462W        W87803  19.735  22.525  10.609
19463W        W87804   7.788  39.333  13.316
19464W        W87805  33.588  40.937   2.868
19465W        W87806  16.261   4.743  11.441
19466W        W87807   8.242  23.581  11.019
19467W        W87808  11.763   6.322   9.987
19468W        W87809   4.911  42.423  14.355
19469W        W87810   9.844  33.887  13.366
19470W        W87811   8.189  28.094  14.995
19471W        W87812   7.905  24.621  13.821
19472W        W87813  40.991  10.211  10.978
19473W        W87814  21.730  35.861  12.088
19474W        W87815  17.782  19.081   1.450
19475W        W87816   4.435   3.242   4.287
19476W        W87817  37.057  40.383   2.727
19477W        W87818  13.766  41.448   3.253
19478W        W87819  11.277  10.381  13.821
19479W        W87820  23.118  26.591  10.473
19480W        W87821  37.467   6.260   5.252
19481W        W87822  28.653  37.466  14.863
19482W        W87823  40.372  23.053   4.661
19483W        W87824  44.270   7.859   1.389
19484W        W87825  22.533  20.267  10.940
19485W        W87826  39.990  37.542  12.032
19486W        W87827  21.021   5.245  10.984
19487W        W87828   9.305  33.497  11.563
19488W        W87829  38.957  44.989  12.570
19489W        W87830  27.636  25.080  12.543
19490W        W87831  25.574  11.634  13.892
19491W        W87832   1.828  40.799   3.321
19492W        W87833  32.615  17.202   0.285
19493W        W87834  44.458  44.888   2.294
19494W        W87835   0.386  16.124   2.830
19495W        W87836  19.703  31.055   1.391
19496W        W87837  17.082  42.878  11.968
19497W        W87838  35.061  33.437   1.410
19498W        W87839  24.629  26.186  11.000
19499W        W87840  18.112  39.560   4.204
19500W        W87841   1.783   0.860  11.473
19501W        W87842  23.530  12.836   1.719
19502W        W87843   0.435  34.021  12.448
19503W        W87844  16.616  12.693  14.820
19504W        W87845   9.870  24.986  13.959
19505W        W87846   7.364  38.997   3.227
19506W        W87847   7.743  32.094  10.467
19507W        W87848  28.668  10.248   1.892
19508W        W87849  20.264   0.293  11.475
19509W        W87850  27.975   5.928  10.069
19510W        W87851   5.856  28.474   1.749
19511W        W87852   1.418  42.858  10.500
19512W        W87853  41.529  41.487   2.409
19513W        W87854  20.668  21.136   4.139
19514W        W87855  20.665  34.440   0.369
19515W        W87856  12.633  37.348   4.251
19516W        W87857   0.450   4.904  14.386
19517W        W87858  39.524   6.817   1.795
19518W        W87859  44.405  35.500  13.485
19519W        W87860  18.732  41.933   4.700
19520W        W87861  25.062  12.299   0.395
19521W        W87862   4.205  32.416  13.050
19522W        W87863  30.033  27.490   4.209
19523W        W87864  37.019  32.927   0.433
19524W        W87865  28.596  33.507  13.473
19525W        W87866   9.283  35.940   3.756
19526W        W87867  31.150  12.732   1.260
19527W        W87868  14.253  31.490   4.745
19528W        W87869  25.198  21.197   1.710
19529W        W87870   1.344  18.644   0.460
19530W        W87871   8.734  39.363  13.962
19531W        W87872  26.547   8.353   2.847
19532W        W87873  22.666  22.222   1.407
19533W        W87874  36.914  26.978  10.538
19534W        W87875   7.911   7.325   4.147
19535W        W87876  39.547   2.942  13.469
19536W        W87877  18.265  14.301   2.325
19537W        W87878  37.840  44.397  10.923
19538W        W87879  41.816   8.697   1.223
19539W        W87880  37.384   8.734  10.583
19540W        W87881  23.562  33.920  14.394
19541W        W87882  23.652  15.696  11.998
19542W        W87883  12.310   4.935  14.482
19543W        W87884   8.226  17.562  12.386
19544W        W87885  28.121  44.349  13.918
19545W        W87886  39.448  43.894   2.392
19546W        W87887  40.417  21.689  11.061
19547W        W87888  44.489   2.427  10.954
19548W        W87889  33.513  39.489   1.299
19549W        W87890  20.540  25.561  12.401
19550W        W87891  18.123  20.252  10.422
19551W        W87892  23.145  10.356   3.221
19552W        W87893  41.484   8.170  13.805
19553W        W87894  12.754  40.946  12.969
19554W        W87895  16.184   4.224   2.758
19555W        W87896   4.380   0.387   1.702
19556W        W87897  20.106  32.922   3.837
19557W        W87898   0.308  22.046   1.767
19558W        W87899  21.157  44.773   5.115
19559W        W87900   7.386  19.759   4.673
19560W        W87901   9.204   8.751   3.219
19561W        W87902  44.900  16.109  13.334
19562W        W87903  35.048   1.796   4.631
19563W        W87904  12.264  39.913  14.024
19564W        W87905  40.929   9.260  13.489
19565W        W87906  17.197   2.875   0.292
19566W        W87907  27.487  37.947   1.745
19567W        W87908  14.228  41.430  12.040
19568W        W87909   6.364  39.346  14.871
19569W        W87910  40.906  39.440  14.289
19570W        W87911  19.139  31.125   4.784
19571W        W87912   7.413   0.835   3.689
19572W        W87913   5.230  44.461   0.336
19573W        W87914   0.439  15.095  12.000
19574W        W87915   3.255  21.132  11.067
19575W        W87916  34.977  44.893  11.080
19576W        W87917   2.907  19.141  10.898
19577W        W87918   8.830  21.676  12.862
19578W        W87919  11.684  24.025  13.875
19579W        W87920   2.249  39.416  11.382
19580W        W87921  36.846   3.359  13.514
19581W        W87922  40.391  12.148  13.388
19582W        W87923   4.770   9.169  12.060
19583W        W87924  35.083   5.321  13.395
19584W        W87925  33.982  31.054  14.905
19585W        W87926  22.153   1.963  11.128
19586W        W87927  25.988  13.268  14.976
19587W        W87928   3.731  42.989   0.886
19588W        W87929  24.166  40.354  12.370
19589W        W87930  22.629  15.628   3.249
19590W        W87931   8.362  20.582  12.394
19591W        W87932  28.469   1.822  12.375
19592W        W87933  16.791   2.755   3.281
19593W        W87934   3.812   9.840   0.900
19594W        W87935  19.739  31.573  12.973
19595W        W87936  16.612  26.690   4.326
19596W        W87937   6.218  18.718  12.547
19597W        W87938  20.271  42.335  11.106
19598W        W87939  43.019  43.765  13.055
19599W        W87940  31.046  22.635   1.389
19600W        W87941  38.497  29.930   3.261
19601W        W87942   4.698  37.944  11.114
19602W        W87943  13.153  21.689   2.191
19603W        W87944   5.380   8.765   4.603
19604W        W87945  15.124  33.933  11.448
19605W        W87946  40.978  41.463  10.640
19606W        W87947  28.566  10.173  14.329
19607W        W87948  36.850  34.591  13.975
19608W        W87949  18.246  41.809  14.768
19609W        W87950  42.414  43.449   2.349
19610W        W87951  22.665  34.489   2.737
19611W        W87952  18.790  34.016   3.832
19612W        W87953  31.932   6.739   0.901
19613W        W87954  38.919  13.755  14.808
19614W        W87955   7.675  26.066   1.434
19615W        W87956  21.072  22.183   4.749
19616W        W87957  15.722  16.214   1.336
19617W        W87958  12.719  16.077   1.903
19618W        W87959  30.457  12.721   2.275
19619W        W87960  36.878  21.540  14.885
19620W        W87961  31.647  23.518  11.454
19621W        W87962   1.294  12.275   4.832
19622W        W87963  30.006  32.087   4.713
19623W        W87964  26.029  18.734  13.035
19624W        W87965   2.728   9.779   3.176
19625W        W87966  33.560  17.100  13.916
19626W        W87967  10.380  31.108   0.340
19627W        W87968  36.070  44.854   2.386
19628W        W87969  35.563  16.266  12.574
19629W        W87970  38.528   9.292   0.427
19630W        W87971  24.676  34.507  10.588
19631W        W87972  23.152  44.001  12.449
19632W        W87973  15.762  33.596   1.928
19633W        W87974  20.704  10.861  11.016
19634W        W87975   4.930  33.005   1.796
19635W        W87976   3.294   2.240   2.211
19636W        W87977  24.666  44.876   4.127
19637W        W87978  22.012   7.696   3.156
19638W        W87979  35.097  24.078  11.447
19639W        W87980  13.259  38.050   5.740
19640W        W87981  25.057   1.473   1.804
19641W        W87982  37.002  22.034   2.767
19642W        W87983   9.328  23.001  12.385
19643W        W87984  10.212  14.283  12.415
19644W        W87985   0.924  35.360   3.812
19645W        W87986   6.325  42.932   4.218
19646W        W87987  43.299  24.495   3.196
19647W        W87988  28.088  40.807   3.722
19648W        W87989   3.293  17.194   0.367
19649W        W87990   3.227  26.546  13.522
19650W        W87991  13.831  40.314  12.579
19651W        W87992  35.104  17.129  11.433
19652W        W87993  31.932  29.086  13.852
19653W        W87994  41.927   7.785   3.296
19654W        W87995   3.262   3.885   0.864
19655W        W87996  39.492  16.714   3.186
19656W        W87997   0.338  31.494   3.819
19657W        W87998  30.585  38.506   3.725
19658W        W87999   1.274   7.862   1.256
19659W        W88000  27.155  21.714  14.860
19660W        W88001  28.041  38.345   3.336
19661W        W88002   6.344  33.537   3.331
19662W        W88003   6.873   6.805  10.907
19663W        W88004  35.020   3.758   1.924
19664W        W88005  31.056   7.739  11.060
19665W        W88006  39.385  36.556  10.579
19666W        W88007  36.033  42.360  13.543
19667W        W88008  36.510   7.260  14.321
19668W        W88009  34.446   4.322   0.952
19669W        W88010  23.555  18.771  10.909
19670W        W88011  41.812  34.512  10.573
19671W        W88012  36.889  20.028  14.976
19672W        W88013  18.622   5.237  13.483
19673W        W88014   9.269  10.878   4.240
19674W        W88015  41.514  43.450   4.816
19675W        W88016  39.326   5.252  10.970
19676W        W88017  11.660  18.285   2.670
19677W        W88018  26.534  32.983  11.475
19678W        W88019   7.239  14.157   2.405
19679W        W88020   0.820  12.278   0.960
19680W        W88021  16.803   5.357  13.943
19681W        W88022  41.831  30.602   5.137
19682W        W88023   7.314  15.098  11.545
19683W        W88024  20.716   8.321   1.768
19684W        W88025  37.854   0.369   0.919
19685W        W88026  22.585  25.660  14.317
19686W        W88027   5.241  40.316  11.935
19687W        W88028  33.083   8.275  11.541
19688W        W88029  37.834   9.768   3.800
19689W        W88030  12.735  41.986  11.118
19690W        W88031  16.678  44.981  13.043
19691W        W88032   0.923  28.960   1.448
19692W        W88033   8.363  27.671  13.914
19693W        W88034  42.985  21.704  14.031
19694W        W88035  28.074  44.978   1.907
19695W        W88036  42.307  36.945   0.466
19696W        W88037   8.209  44.840  10.994
19697W        W88038   6.678  10.274   3.316
19698W        W88039  13.810  15.257  13.919
19699W        W88040  17.224  24.131   2.732
19700W        W88041   6.819  10.817  13.973
19701W        W88042   0.472  43.945  12.948
19702W        W88043  36.082  10.359  12.945
19703W        W88044   1.915  31.545  14.992
19704W        W88045   9.167  41.913   3.702
19705W        W88046  39.538  42.837   5.777
19706W        W88047   7.763  22.520  14.321
19707W        W88048  41.487  26.092   2.222
19708W        W88049  17.119  10.762   1.285
19709W        W88050   1.972  24.173   3.763
19710W        W88051  41.409  14.608   0.806
19711W        W88052  28.553  20.573  13.437
19712W        W88053   7.882  36.547   2.301
19713W        W88054  30.576  10.342   2.795
19714W        W88055   0.389  43.983  10.617
19715W        W88056  27.060  35.073   3.248
19716W        W88057  44.806  27.027   2.856
19717W        W88058  41.436  24.696   1.306
19718W        W88059  15.753  33.066  13.047
19719W        W88060  13.245   7.308  13.904
19720W        W88061  42.466  39.397   0.428
19721W        W88062  16.648  37.460  14.948
19722W        W88063  12.740  14.198  12.011
19723W        W88064  32.500  30.138  14.844
19724W        W88065   0.266  11.218   3.179
19725W        W88066   0.466  18.160  11.474
19726W        W88067   8.291  29.566  10.430
19727W        W88068  25.183  43.307  10.598
19728W        W88069  42.476   9.764  14.839
19729W        W88070  32.058  37.959  14.350
19730W        W88071   0.812  44.384   4.838
19731W        W88072  20.244  12.793   3.281
19732W        W88073  43.799  33.415   2.719
19733W        W88074  27.196   5.355  12.015
19734W        W88075  16.700  26.490  12.999
19735W        W88076  28.541  19.104  13.449
19736W        W88077  16.725  16.269   3.326
19737W        W88078  41.300   5.364   0.911
19738W        W88079   8.803  39.373   2.890
19739W        W88080  33.114   0.806  14.498
19740W        W88081  38.858  37.979   3.687
19741W        W88082  36.086  27.495   1.233
19742W        W88083  21.521  38.510  10.918
19743W        W88084  19.639  38.977  11.939
19744W        W88085  38.035   3.392  14.953
19745W        W88086   0.482  25.992   3.695
19746W        W88087  39.554  43.800  13.457
19747W        W88088   1.916   2.954   2.333
19748W        W88089   9.692   7.719   1.845
19749W        W88090  37.997  17.760  10.534
19750W        W88091   8.166  43.462   0.310
19751W        W88092  29.567  37.417   3.339
19752W        W88093  37.988  41.985   1.867
19753W        W88094   3.802  35.534  10.413
19754W        W88095   8.768  15.715   2.229
19755W        W88096  23.122  37.845   0.803
19756W        W88097  14.595  10.325   1.806
19757W        W88098   3.393  38.935   3.266
19758W        W88099  38.331  10.178   0.431
19759W        W88100  23.044  38.821  14.293
19760W        W88101  14.328  26.645  10.104
19761W        W88102  31.460  31.457   2.760
19762W        W88103  35.037  28.542  12.961
19763W        W88104   4.363  31.438   0.851
19764W        W88105  37.388  19.692   4.140
19765W        W88106  39.968  18.781   1.283
19766W        W88107  13.654  11.644   3.670
19767W        W88108  14.200   0.756   4.819
19768W        W88109   0.866  40.832  13.907
19769W        W88110   3.834  22.673   2.735
19770W        W88111   6.779  43.278   1.861
19771W        W88112  39.904  29.176  14.307
19772W        W88113   2.952  13.335  11.979
19773W        W88114   3.246  35.911   4.339
19774W        W88115   5.351   3.721  14.502
19775W        W88116   6.271  34.480   2.223
19776W        W88117   3.406  23.600  10.141
19777W        W88118  44.829   2.796  11.963
19778W        W88119  26.152   5.848  14.833
19779W        W88120  19.559  44.798  14.391
19780W        W88121   2.251  14.767   4.618
19781W        W88122  32.626  12.650   1.374
19782W        W88123  16.800  21.624   0.395
19783W        W88124  20.714  27.011   2.396
19784W        W88125   1.840  24.723  14.775
19785W        W88126  19.140   4.385  13.544
19786W        W88127  30.463  30.428  12.858
19787W        W88128  34.467  43.990  14.388
19788W        W88129  30.493  22.091  14.952
19789W        W88130  23.641  16.583  14.793
19790W        W88131  32.450  16.653  14.353
19791W        W88132  12.820  24.197  11.985
19792W        W88133  39.965  38.005   4.167
19793W        W88134   1.861  18.110   4.210
19794W        W88135  26.622  44.283   2.862
19795W        W88136  32.064  20.169  13.876
19796W        W88137  41.451  44.911   0.959
19797W        W88138  34.106  41.371  10.021
19798W        W88139   1.862  21.252   2.802
19799W        W88140   5.348   0.292   3.755
19800W        W88141   8.819  13.796  11.910
19801W        W88142  37.337  41.496   5.230
19802W        W88143  26.633  40.994   1.332
19803W        W88144   2.946  10.154   0.848
19804W        W88145  15.652  41.405  14.990
19805W        W88146  26.154  19.122  11.562
19806W        W88147  22.229  25.996   0.759
19807W        W88148  43.479  12.147  13.963
19808W        W88149  31.564  20.754   3.192
19809W        W88150  22.663  25.503   1.723
19810W        W88151  18.767  34.945   0.905
19811W        W88152  41.458  17.718   2.337
19812W        W88153   1.807  32.611   0.733
19813W        W88154   2.836  23.720  13.479
19814W        W88155  16.709  21.034  14.511
19815W        W88156  17.661  10.270  10.524
19816W        W88157  21.655  38.526  11.979
19817W        W88158  28.146  15.638   3.703
19818W        W88159  19.200   8.331  12.827
19819W        W88160  25.472  38.969  10.040
19820W        W88161  43.511  30.955  14.825
19821W        W88162  26.042  30.004  13.858
19822W        W88163  22.018  12.766   3.212
19823W        W88164  19.753  33.450  14.813
19824W        W88165  32.943  36.967   0.862
19825W        W88166  15.712   3.253  14.322
19826W        W88167   0.826  34.027   4.297
19827W        W88168   3.330   2.921  13.050
19828W        W88169  25.635  19.631   4.638
19829W        W88170  18.724  35.931  11.926
19830W        W88171  20.149   5.283   1.342
19831W        W88172  19.262  19.580   1.392
19832W        W88173  42.344  26.584   1.713
19833W        W88174  39.830  44.959   1.331
19834W        W88175  18.084   5.720  14.489
19835W        W88176   2.749   0.374  13.873
19836W        W88177  15.226   5.358   4.127
19837W        W88178   5.753  18.718   3.765
19838W        W88179   4.707  42.927  14.285
19839W        W88180  36.078   1.877  10.527
19840W        W88181  24.699  23.200   1.841
19841W        W88182  18.554   0.861  14.307
19842W        W88183  44.302  15.633   5.297
19843W        W88184   3.871   6.227   4.275
19844W        W88185  14.336   4.927   4.622
19845W        W88186  22.213  24.994   4.260
19846W        W88187  24.513  26.521  14.029
19847W        W88188   5.784  31.064   3.795
19848W        W88189  33.496  29.466   1.366
19849W        W88190  10.163  20.657   4.216
19850W        W88191  41.982  38.021   1.811
19851W        W88192   6.723  21.106   1.331
19852W        W88193   7.239  18.076  11.480
19853W        W88194  14.292   2.228   0.249
19854W        W88195   5.242  37.509   3.841
19855W        W88196  36.957  33.418   1.423
19856W        W88197  43.830  10.161   4.745
19857W        W88198  20.677   2.341   3.243
19858W        W88199  15.293  33.941  14.839
19859W        W88200  44.826  40.475   2.814
19860W        W88201  16.718   1.756  11.580
19861W        W88202  12.809   2.825  13.906
19862W        W88203  12.175  37.969  11.538
19863W        W88204  11.153  21.077  12.517
19864W        W88205  16.787   6.770  12.947
19865W        W88206  29.605  32.492   1.715
19866W        W88207  27.502  29.052  12.056
19867W        W88208   9.831  36.875   0.436
19868W        W88209  26.985  31.053  11.488
19869W        W88210  37.844  12.688  11.413
19870W        W88211   0.339   0.365  10.984
19871W        W88212   6.262  44.868  11.433
19872W        W88213  16.723   5.779   2.675
19873W        W88214  12.650  11.748  11.539
19874W        W88215   0.301  25.037  11.926
19875W        W88216   4.301  41.393  13.395
19876W        W88217  12.818  34.596   0.321
19877W        W88218   6.369  24.723  11.089
19878W        W88219  43.452  20.701   4.659
19879W        W88220  11.154  21.165  10.096
19880W        W88221  44.454  34.569  14.373
19881W        W88222  42.381  23.041   4.734
19882W        W88223  40.391  32.414  12.850
19883W        W88224   7.861  20.523   3.645
19884W        W88225  44.959  21.664  14.817
19885W        W88226   2.454  13.790   4.341
19886W        W88227  27.151   1.747  13.046
19887W        W88228  39.349  35.595   1.426
19888W        W88229  36.066  25.644   0.899
19889W        W88230  41.002   4.294   3.828
19890W        W88231  28.635  33.080   4.346
19891W        W88232  21.529  21.242   1.224
19892W        W88233   8.877  32.439   2.188
19893W        W88234   3.245  37.371   4.738
19894W        W88235   4.346   0.880   1.432
19895W        W88236  25.217  11.266   2.238
19896W        W88237  37.910  32.590  12.353
19897W        W88238   9.228  33.048   4.221
19898W        W88239   3.391  29.926   0.347
19899W        W88240   5.418  21.701   4.820
19900W        W88241   5.439  36.945  14.510
19901W        W88242  12.264   5.307   1.274
19902W        W88243  21.648   4.944   4.760
19903W        W88244   1.943  44.999  12.480
19904W        W88245  17.714  28.141  10.433
19905W        W88246  17.128  11.302   2.390
19906W        W88247  41.883   0.857  10.051
19907W        W88248  40.534  34.547   4.157
19908W        W88249  22.148  16.161   4.608
19909W        W88250   2.435  16.790  11.869
19910W        W88251  28.977  38.887  10.531
19911W        W88252  33.066  20.549   1.769
19912W        W88253   7.810  41.029  10.486
19913W        W88254  13.339   2.947   1.401
19914W        W88255   7.195  27.137   3.708
19915W        W88256  41.892  13.121  10.451
19916W        W88257  33.455   8.767   5.187
19917W        W88258   1.245   3.758  14.343
19918W        W88259   4.746  12.188   4.661
19919W        W88260  44.813   6.239   0.904
19920W        W88261  35.401  16.764   4.733
19921W        W88262  14.194  27.580  11.954
19922W        W88263   2.447  32.970  13.384
19923W        W88264   6.349  25.495  14.359
19924W        W88265  31.526  34.910   2.885
19925W        W88266   3.456   7.781   4.300
19926W        W88267  29.635  39.867  11.440
19927W        W88268   5.824   1.415  12.069
19928W        W88269  37.380  35.424   1.389
19929W        W88270  23.598   0.356   3.646
19930W        W88271  37.463  30.135   2.723
19931W        W88272  30.022  17.134  13.486
19932W        W88273  10.379  36.491   1.855
19933W        W88274  14.736  13.174  13.818
19934W        W88275  15.672   8.392  13.033
19935W        W88276   6.717  21.130   2.388
19936W        W88277  23.604  24.118   4.775
19937W        W88278  16.225  10.703   3.743
19938W        W88279   7.194  40.890  14.805
19939W        W88280  30.910  10.192  10.911
19940W        W88281  16.593  33.426   5.281
19941W        W88282  41.797  43.020  13.536
19942W        W88283  34.920  24.725  13.354
19943W        W88284  37.913  18.672  10.492
19944W        W88285  37.521  21.099  10.487
19945W        W88286  21.638  34.547   2.893
19946W        W88287  39.966  30.504   2.304
19947W        W88288   0.770  25.012  11.048
19948W        W88289   5.917  32.532   1.718
19949W        W88290   4.935  42.341  12.031
19950W        W88291  12.268  18.072   0.787
19951W        W88292  19.602   6.323   0.301
19952W        W88293  23.726  19.696  10.558
19953W        W88294  16.249  32.909   1.807
19954W        W88295   3.342  31.072   3.824
19955W        W88296  15.791   1.888   2.683
19956W        W88297   6.264  13.642   1.735
19957W        W88298  12.318  34.502  11.948
19958W        W88299  34.403  34.440  13.360
19959W        W88300  33.121  26.639   3.379
19960W        W88301  20.700  29.650   1.786
19961W        W88302  19.202  24.618  12.544
19962W        W88303  35.470  32.463  14.772
19963W        W88304  35.092  15.684   3.301
19964W        W88305  34.428  39.918   2.750
19965W        W88306   6.237  41.518   4.734
19966W        W88307  28.673  15.641   1.866
19967W        W88308  18.214  32.559  12.912
19968W        W88309  42.996  21.225   1.380
19969W        W88310  21.163  33.465   4.821
19970W        W88311  32.464   8.376  13.414
19971W        W88312  16.203  33.881  13.363
19972W        W88313   0.392  40.856   3.272
19973W        W88314  27.057  27.110  10.104
19974W        W88315  42.327  12.216   4.220
19975W        W88316  43.347  28.083  14.338
19976W        W88317  27.030  36.061  12.411
19977W        W88318   3.251  15.213   1.394
19978W        W88319  28.440  23.009  13.944
19979W        W88320   9.732  42.387  14.389
19980W        W88321  17.193  20.082  11.115
19981W        W88322  14.232  25.068   1.270
19982W        W88323  30.621  34.987   2.264
19983W        W88324  38.514  42.835  10.897
19984W        W88325   7.341  32.443  12.554
19985W        W88326   6.296  21.742   3.301
19986W        W88327   5.204  41.998   4.324
19987W        W88328  17.743  12.626   1.815
19988W        W88329  33.479   1.773   2.236
19989W        W88330  19.270  18.687  12.463
19990W        W88331  30.004  28.464  11.523
19991W        W88332  23.564  30.635  10.518
19992W        W88333  13.313   0.467   4.160
19993W        W88334  42.339   6.324  12.868
19994W        W88335   0.887  38.364  12.431
19995W        W88336  37.560  27.985   3.863
19996W        W88337   4.365   3.810  12.424
19997W        W88338   2.906   8.718  13.521
19998W        W88339   6.872   0.385   4.177
19999W        W88340  38.482  37.563   1.828
20000W        W88341  39.820  41.523   2.373
20001W        W88342  16.651  10.226   9.939
20002W        W88343   9.771  26.996   4.236
20003W        W88344  30.910   9.849   0.955
20004W        W88345  20.081  27.100  14.989
20005W        W88346   1.472   0.445  13.031
20006W        W88347  26.576   1.396   4.119
20007W        W88348   5.324  13.228   4.345
20008W        W88349  32.013  14.791   4.289
20009W        W88350  16.229  23.630   3.236
20010W        W88351  20.578  37.528   0.445
20011W        W88352  39.465  42.833  12.407
20012W        W88353   5.700   9.268  14.778
20013W        W88354  30.438  41.937   1.436
20014W        W88355  36.854  44.428   0.762
20015W        W88356   7.890  40.959   3.777
20016W        W88357  15.231  33.541  11.917
20017W        W88358  26.986  36.565   3.306
20018W        W88359  10.690  30.007  12.428
20019W        W88360  11.131  31.074  11.080
20020W        W88361  18.706  23.231  14.789
20021W        W88362  30.160  20.049  10.963
20022W        W88363   1.459  15.134  11.858
20023W        W88364  14.807  33.089   2.343
20024W        W88365  19.598  39.847  11.423
20025W        W88366  20.620   8.318  14.821
20026W        W88367  17.093  40.852   1.718
20027W        W88368  36.906  37.852  13.906
20028W        W88369   7.730  32.124   2.734
20029W        W88370  42.407   6.386  13.505
20030W        W88371   8.780  15.087  13.822
20031W        W88372  22.167   9.333   1.772
20032W        W88373  14.219  13.252   1.695
20033W        W88374  29.151  42.327  14.497
20034W        W88375   1.267  12.253   2.828
20035W        W88376  30.618  29.123  14.347
20036W        W88377  21.148  44.764   2.256
20037W        W88378   0.868  41.396  12.396
20038W        W88379  27.095  11.670  10.503
20039W        W88380  10.200  37.887  10.468
20040W        W88381  34.878  13.304  11.609
20041W        W88382   7.383   2.250  12.856
20042W        W88383  25.174  11.363   4.228
20043W        W88384  12.799  19.189  10.933
20044W        W88385  28.016  25.090   1.902
20045W        W88386  36.364  10.314  13.890
20046W        W88387   6.303   9.394   0.477
20047W        W88388  18.567  15.599  14.007
20048W        W88389   5.827  28.106   4.285
20049W        W88390  36.062  27.457   2.874
20050W        W88391  14.626  29.114  13.491
20051W        W88392   1.406  10.838  12.344
20052W        W88393  21.709  44.990  13.034
20053W        W88394  11.311   1.844  11.613
20054W        W88395   9.814  44.956  12.532
20055W        W88396  37.017  31.922  10.485
20056W        W88397  35.033   4.732  12.516
20057W        W88398  38.983  24.644   1.226
20058W        W88399  36.558  26.507  11.957
20059W        W88400  40.878  42.474   0.428
20060W        W88401  23.721  23.012  13.321
20061W        W88402  41.809   7.781  11.881
20062W        W88403  28.996  41.967  12.998
20063W        W88404  21.064  18.287   9.988
20064W        W88405  21.107  27.055   0.246
20065W        W88406  35.449  42.015  11.018
20066W        W88407  16.804   7.723   2.800
20067W        W88408   7.856  23.690   1.232
20068W        W88409   4.876   4.401  11.921
20069W        W88410  13.775   1.456  10.483
20070W        W88411   2.868  10.359   2.353
20071W        W88412  32.092  12.645   2.688
20072W        W88413  11.653  10.649  10.033
20073W        W88414  31.023   0.762  12.992
20074W        W88415  17.199  44.422   3.677
20075W        W88416  34.443  18.785  14.766
20076W        W88417  15.808   4.924  12.954
20077W        W88418  26.556  25.218   4.215
20078W        W88419  29.579  32.042   5.183
20079W        W88420  15.729  23.052   3.334
20080W        W88421  14.786   6.192   5.255
20081W        W88422  28.045  41.358   0.367
20082W        W88423   4.935  40.309  14.005
20083W        W88424   8.775  36.372  11.037
20084W        W88425  33.465   0.405  10.432
20085W        W88426   5.232  17.146   3.667
20086W        W88427  14.224  29.130   4.675
20087W        W88428  29.033  26.536   3.725
20088W        W88429  33.089  42.777  13.526
20089W        W88430  29.562  14.173   3.711
20090W        W88431  10.822  34.885   2.681
20091W        W88432  36.547  42.939   1.752
20092W        W88433   7.351  28.645   2.258
20093W        W88434  32.888  18.247  13.923
20094W        W88435  35.571   3.357   2.416
20095W        W88436   0.753  27.117  14.848
20096W        W88437   8.248  18.064   1.280
20097W        W88438  20.744  11.667   4.614
20098W        W88439  32.551  24.147   0.447
20099W        W88440  26.194   2.305   0.257
20100W        W88441  16.264   0.777   3.228
20101W        W88442  38.348  41.381  10.081
20102W        W88443  21.134  25.042   0.794
20103W        W88444  21.676   1.867   2.700
20104W        W88445  29.999   8.398   2.807
20105W        W88446  39.986  22.127  12.922
20106W        W88447  37.042  43.460  11.440
20107W        W88448  33.433   9.657   2.737
20108W        W88449  37.501  30.052  12.925
20109W        W88450   9.841  11.789  13.376
20110W        W88451  18.559  13.294  12.371
20111W        W88452  41.882  29.063  11.863
20112W        W88453  22.191  39.355   4.197
20113W        W88454  44.835  22.224   0.865
20114W        W88455  36.506   2.447  10.549
20115W        W88456  13.250  44.400   0.855
20116W        W88457  10.354  41.529  12.990
20117W        W88458   3.263  22.548   0.282
20118W        W88459  28.111  13.762   2.848
20119W        W88460  32.112  18.100  12.555
20120W        W88461  28.093  40.408   3.167
20121W        W88462   2.401  43.326   3.339
20122W        W88463  34.043  44.955   3.293
20123W        W88464  19.708  12.646   4.730
20124W        W88465  25.468   2.467   4.245
20125W        W88466  31.964  31.922  14.804
20126W        W88467  22.251  39.502  13.502
20127W        W88468  37.510   5.868   9.964
20128W        W88469  33.074  38.365  11.030
20129W        W88470   7.189  43.310   4.707
20130W        W88471  44.945   1.283   0.410
20131W        W88472  28.493   0.256   2.308
20132W        W88473  36.981  25.968  14.410
20133W        W88474   5.781   4.772  13.792
20134W        W88475  14.214  31.946  11.556
20135W        W88476  43.770  19.570  12.899
20136W        W88477  32.110  25.063  10.500
20137W        W88478  31.115  44.267  10.512
20138W        W88479   9.691  34.872  10.485
20139W        W88480   4.371  31.511   1.275
20140W        W88481   6.802   8.666  14.930
20141W        W88482   5.832  20.079  12.472
20142W        W88483   8.240  31.940   3.266
20143W        W88484   5.235  42.304   4.220
20144W        W88485   1.400  15.251   4.305
20145W        W88486  22.747   3.874   3.858
20146W        W88487  15.121  12.254  13.864
20147W        W88488  24.119   9.340  11.524
20148W        W88489  44.759  39.435   4.792
20149W        W88490  21.249  33.459  12.487
20150W        W88491  36.995  14.789   4.775
20151W        W88492  38.355  38.541   2.347
20152W        W88493  24.108   6.833  13.794
20153W        W88494  24.991  30.083   2.855
20154W        W88495   4.809  24.204  12.836
20155W        W88496  35.510   5.884   0.356
20156W        W88497  44.834  36.931   2.208
20157W        W88498   0.893   6.260  10.887
20158W        W88499  10.226  20.094  12.455
20159W        W88500   3.301  14.648  10.917
20160W        W88501  11.834   0.970  10.132
20161W        W88502  25.605  21.064   1.326
20162W        W88503  23.651  27.666  14.509
20163W        W88504  21.517  37.449  13.969
20164W        W88505  42.871  13.333   4.727
20165W        W88506  20.057  17.719   2.335
20166W        W88507  42.826   7.692  14.404
20167W        W88508   6.388  33.601   5.295
20168W        W88509   6.812  17.126  10.900
20169W        W88510   1.402   1.319  10.461
20170W        W88511  21.145  25.628   2.680
20171W        W88512   4.800  43.453  11.379
20172W        W88513  20.765  13.838   3.307
20173W        W88514  10.765  44.441   0.919
20174W        W88515   7.207  30.443  13.879
20175W        W88516  19.269  23.673  13.469
20176W        W88517  26.009  27.457  11.955
20177W        W88518   6.384  43.432  13.412
20178W        W88519  44.395   4.434  14.920
20179W        W88520  25.982   0.374   0.844
20180W        W88521   5.733  35.015   3.788
20181W        W88522  42.997  41.902  14.455
20182W        W88523   5.851   0.933  11.966
20183W        W88524  13.654   0.869   0.845
20184W        W88525  25.605  39.439   4.323
20185W        W88526  20.219  21.173   1.812
20186W        W88527  33.017  35.068  11.892
20187W        W88528  20.738   2.399  13.973
20188W        W88529   0.280  20.664   0.244
20189W        W88530  17.609  12.231   4.656
20190W        W88531   0.818  17.091  14.473
20191W        W88532  23.015  28.138  11.947
20192W        W88533  12.167  18.567  10.605
20193W        W88534  24.549  18.691  10.436
20194W        W88535  18.069   9.260  12.374
20195W        W88536  29.637   4.805  11.531
20196W        W88537  37.467  13.292   0.877
20197W        W88538   8.376   3.300  12.404
20198W        W88539  25.964  40.032  13.317
20199W        W88540   0.781  26.545   2.300
20200W        W88541  26.150  26.498  11.376
20201W        W88542  14.707  41.331   0.416
20202W        W88543  23.729   0.805   3.148
20203W        W88544  28.637  16.073   4.151
20204W        W88545   8.879   2.760  14.385
20205W        W88546  26.641  16.089  13.909
20206W        W88547  29.095   6.792   4.681
20207W        W88548  33.603  43.279   3.369
20208W        W88549  28.996  34.042  12.870
20209W        W88550  18.051   6.312  11.411
20210W        W88551  33.038  39.469  13.993
20211W        W88552  30.083   1.284  10.600
20212W        W88553  39.543  29.449  12.878
20213W        W88554  26.055  33.893  11.980
20214W        W88555   4.441  44.936  12.540
20215W        W88556  30.433  43.906   1.339
20216W        W88557  37.403   2.416   1.879
20217W        W88558  30.102  15.764   0.411
20218W        W88559  41.859  21.041   0.926
20219W        W88560  36.370  10.372  10.964
20220W        W88561   5.852   3.433  11.892
20221W        W88562  16.122  20.765  13.850
20222W        W88563  32.602  18.266   3.175
20223W        W88564  14.115  16.733   1.931
20224W        W88565  28.630  44.393  10.949
20225W        W88566  24.108  42.830   3.154
20226W        W88567  30.597  36.966  12.373
20227W        W88568  21.623  41.304  14.512
20228W        W88569  13.743  35.435  12.011
20229W        W88570  37.833  11.790  10.082
20230W        W88571   8.828  39.047   1.929
20231W        W88572  15.743  39.403  13.350
20232W        W88573  15.149   9.232  13.889
20233W        W88574   9.215  28.182   0.278
20234W        W88575  19.162  41.958  13.003
20235W        W88576  24.161   2.396   1.815
20236W        W88577   1.820  31.925   0.393
20237W        W88578  27.028  30.971  11.864
20238W        W88579  21.699   8.343   4.598
20239W        W88580  24.169  16.732  12.956
20240W        W88581  25.704  36.351   4.329
20241W        W88582  17.214  31.103  12.493
20242W        W88583  27.962   5.211  13.538
20243W        W88584  32.088  42.346  11.971
20244W        W88585   4.296   9.760   1.386
20245W        W88586  35.554  32.394  14.369
20246W        W88587  31.992   4.890  13.811
20247W        W88588  31.057  25.688   4.836
20248W        W88589   9.372  42.840  13.930
20249W        W88590   6.344  35.594  14.830
20250W        W88591  29.441  33.517   3.203
20251W        W88592  24.041  26.001  11.918
20252W        W88593  39.890  26.088   0.934
20253W        W88594  12.623  16.732   0.366
20254W        W88595  26.574  26.962  12.537
20255W        W88596  20.694  31.462   4.790
20256W        W88597  32.894  22.223   0.897
20257W        W88598  38.347  16.227   2.838
20258W        W88599  28.531   1.804  11.890
20259W        W88600  18.546   0.352  14.915
20260W        W88601  29.044  12.653   4.780
20261W        W88602  25.145  35.983   3.785
20262W        W88603  14.710  34.395  13.457
20263W        W88604  22.240  22.687   4.309
20264W        W88605  22.715  44.918   0.464
20265W        W88606   7.740  26.473  14.782
20266W        W88607  19.703  28.636   2.894
20267W        W88608  44.882  29.437   4.153
20268W        W88609  15.249  41.950  12.366
20269W        W88610   8.396   7.804  11.096
20270W        W88611  23.602  17.789  10.422
20271W        W88612  27.005  28.597  14.364
20272W        W88613  36.474  30.501  12.845
20273W        W88614  36.852  21.253  13.309
20274W        W88615  44.851   6.847  13.365
20275W        W88616  20.633  19.046   1.448
20276W        W88617  23.066  29.014   4.806
20277W        W88618  18.115  29.559   1.246
20278W        W88619  17.739  10.271   2.237
20279W        W88620   6.238  26.456   1.300
20280W        W88621  28.441  21.057   0.413
20281W        W88622   6.732   4.726   3.699
20282W        W88623   1.372  17.662   4.650
20283W        W88624  17.597  17.711   4.246
20284W        W88625  33.433  41.517   3.756
20285W        W88626  41.338  41.853  13.055
20286W        W88627  32.892  29.134  10.577
20287W        W88628   1.741  41.510  11.611
20288W        W88629  22.739  35.565  14.889
20289W        W88630  31.637  39.855   3.835
20290W        W88631  21.051  23.000   2.261
20291W        W88632  28.624  23.224  13.498
20292W        W88633  14.182   6.409  11.011
20293W        W88634   6.768  12.270  11.556
20294W        W88635  26.624  11.852   0.390
20295W        W88636  13.130   9.724   0.752
20296W        W88637  11.269   0.409  12.553
20297W        W88638  12.356   3.356  13.967
20298W        W88639   0.988  19.736  11.113
20299W        W88640  43.290   1.910  10.561
20300W        W88641  25.173  11.850  13.513
20301W        W88642   3.816  27.456  14.812
20302W        W88643  28.650  33.513   1.720
20303W        W88644  18.075   1.290   1.224
20304W        W88645  26.461   6.392   2.835
20305W        W88646  26.127  30.928   0.850
20306W        W88647   4.850   4.207   0.756
20307W        W88648  16.796   8.371   2.395
20308W        W88649  36.947  25.186  12.356
20309W        W88650   2.806   5.284  13.458
20310W        W88651   7.305  21.094  12.021
20311W        W88652  37.384  43.449   0.749
20312W        W88653  12.253  22.526   3.272
20313W        W88654   7.205   9.769   1.902
20314W        W88655  29.622  20.193   4.119
20315W        W88656  15.777  40.925  12.419
20316W        W88657  13.633  29.117   1.781
20317W        W88658   8.820   1.930   0.760
20318W        W88659   1.453  23.998  10.636
20319W        W88660  18.761  32.010  10.978
20320W        W88661  40.450  29.562   3.316
20321W        W88662  44.900  20.063  10.031
20322W        W88663   3.351  21.758   0.863
20323W        W88664  16.657  16.738   3.828
20324W        W88665  35.568  40.500   3.224
20325W        W88666  40.514  35.387   1.426
20326W        W88667  14.714  42.866  11.434
20327W        W88668  42.502   5.794  12.015
20328W        W88669  27.664  40.817  11.557
20329W        W88670  17.173  21.190   2.853
20330W        W88671  17.145   5.724  14.487
20331W        W88672  27.581  38.871   4.293
20332W        W88673  41.480  13.804   4.241
20333W        W88674  28.507  13.634  13.064
20334W        W88675  35.470  18.165  14.018
20335W        W88676  44.317  37.478   1.867
20336W        W88677  22.030  15.686   0.446
20337W        W88678  17.711  44.782   3.195
20338W        W88679  22.067  14.755  14.873
20339W        W88680  23.027   0.450  14.880
20340W        W88681  17.662  23.164   1.346
20341W        W88682  37.533  28.104   1.387
20342W        W88683  42.293  30.463  14.936
20343W        W88684  27.089  26.125  12.930
20344W        W88685  28.067  18.058  14.381
20345W        W88686   6.680   9.848   3.852
20346W        W88687  23.548  20.701  13.997
20347W        W88688   5.202  29.114   0.851
20348W        W88689  29.567   0.934  13.422
20349W        W88690  35.433  14.683  13.920
20350W        W88691  20.684  30.927   2.226
20351W        W88692  13.766  22.158   1.213
20352W        W88693   7.331  14.209   3.663
20353W        W88694  12.189  41.885  12.030
20354W        W88695  33.522  33.962   3.366
20355W        W88696  12.839  38.486  11.063
20356W        W88697  12.841  29.666   4.197
20357W        W88698  35.969  21.684  11.891
20358W        W88699   6.268   0.935  10.442
20359W        W88700  37.879  37.975   3.807
20360W        W88701  27.099  30.491   1.792
20361W        W88702  17.137  28.145  12.544
20362W        W88703  22.022  36.042  10.588
20363W        W88704   7.702  24.192  12.454
20364W        W88705  33.557   4.250  11.557
20365W        W88706  35.549  18.229  11.887
20366W        W88707  18.254   8.685  11.020
20367W        W88708   4.944  39.556  13.921
20368W        W88709  21.558  44.761  13.485
20369W        W88710  16.107   4.699  13.917
20370W        W88711  20.602  27.520   4.290
20371W        W88712  34.396  44.994   2.774
20372W        W88713   5.863  26.993   0.881
20373W        W88714   6.299  29.516  11.613
20374W        W88715   8.311  35.448   0.421
20375W        W88716  10.766  17.150  13.921
20376W        W88717  35.559  24.715  10.547
20377W        W88718  12.833  44.410  13.047
20378W        W88719  19.660   5.357   4.259
20379W        W88720  12.695  13.617   1.413
20380W        W88721  17.656  24.540   2.366
20381W        W88722  19.154  18.571  10.440
20382W        W88723  12.820  11.790   9.953
20383W        W88724  40.405   2.300  10.563
20384W        W88725   3.766  34.583   0.482
20385W        W88726  26.676  28.551   0.832
20386W        W88727  38.022  24.521  13.825
20387W        W88728  23.560   4.411  14.781
20388W        W88729  13.813  31.946  11.584
20389W        W88730  44.420   5.255  13.498
20390W        W88731   9.702   6.189  13.508
20391W        W88732  27.105   5.387  13.843
20392W        W88733  29.020  41.505   4.743
20393W        W88734  42.280  38.966  14.822
20394W        W88735  21.693   3.224   4.157
20395W        W88736  19.631   9.370   3.186
20396W        W88737  21.571  26.014   3.731
20397W        W88738  15.102  35.370  14.786
20398W        W88739  17.155  41.317   9.966
20399W        W88740  11.851  20.696   0.311
20400W        W88741  15.112  21.136   3.864
20401W        W88742   0.776  25.134  11.959
20402W        W88743  30.135  20.584   4.284
20403W        W88744  20.098  29.543   1.702
20404W        W88745  41.893  11.252   0.454
20405W        W88746   3.902  19.577  11.897
20406W        W88747   0.842  27.026  12.439
20407W        W88748  42.308  30.021   0.746
20408W        W88749  32.445  11.856   2.267
20409W        W88750  21.095  21.531  11.117
20410W        W88751  28.009  39.943   2.201
20411W        W88752   6.246  13.728   3.161
20412W        W88753  32.939  16.801   3.257
20413W        W88754   6.373  39.424   1.810
20414W        W88755  11.210  31.488  10.992
20415W        W88756  14.241  31.448   2.197
20416W        W88757  43.452  36.437  12.844
20417W        W88758   5.878  13.145  14.790
20418W        W88759  10.698   4.216  11.434
20419W        W88760  27.987  10.375  13.019
20420W        W88761  33.452  11.717   0.910
20421W        W88762  32.465  17.074  14.853
20422W        W88763  27.614  10.281   0.915
20423W        W88764   2.234  24.066   0.351
20424W        W88765  17.644  11.300  14.791
20425W        W88766  22.226   0.791  10.943
20426W        W88767  32.921   3.422  11.511
20427W        W88768  37.578  29.039   2.830
20428W        W88769  42.970  11.140  12.914
20429W        W88770   0.318   5.698   0.452
20430W        W88771   4.268  23.722   4.630
20431W        W88772  21.557   3.299   1.925
20432W        W88773  11.245  42.914  12.416
20433W        W88774   5.734  18.731   4.640
20434W        W88775  34.562   7.746   4.691
20435W        W88776  40.408   4.836  10.455
20436W        W88777   1.795  37.863  14.011
20437W        W88778  44.885  43.350   2.181
20438W        W88779  33.090  11.272   4.237
20439W        W88780  33.128   2.963  11.459
20440W        W88781  25.064   7.387  12.065
20441W        W88782   7.768   4.851   0.953
20442W        W88783  27.029   8.370   3.657
20443W        W88784   4.263  43.362  13.445
20444W        W88785  41.464  34.440  11.508
20445W        W88786  30.967  36.454  12.073
20446W        W88787   4.927   6.354   5.115
20447W        W88788  22.735  14.269   2.375
20448W        W88789   5.309   8.778   2.899
20449W        W88790   6.790   5.250   0.283
20450W        W88791  18.050  17.116  10.489
20451W        W88792  20.746  17.705   4.127
20452W        W88793   0.285  26.682   1.839
20453W        W88794  35.521  18.124   2.312
20454W        W88795   3.216  31.902  13.428
20455W        W88796  11.659  15.325   4.238
20456W        W88797  33.937  22.030  12.951
20457W        W88798  27.577   5.712   4.137
20458W        W88799  30.483  17.769  14.347
20459W        W88800  44.889  17.631  11.387
20460W        W88801   6.349  15.642   1.796
20461W        W88802  21.514  30.576  14.365
20462W        W88803  18.259  22.631  14.320
20463W        W88804  11.183  37.996  10.973
20464W        W88805  36.404   2.752  12.353
20465W        W88806  22.606   7.188   0.902
20466W        W88807  34.469  38.910  12.869
20467W        W88808   0.427  27.486  12.419
20468W        W88809  10.292   0.367  13.836
20469W        W88810  14.670  36.367  10.908
20470W        W88811  24.655  30.139   3.208
20471W        W88812  28.513  39.532  12.011
20472W        W88813  22.140  21.642  13.335
20473W        W88814  18.264   0.309  14.485
20474W        W88815  26.061  34.936   4.124
20475W        W88816  23.491  33.969  11.996
20476W        W88817  40.871  43.315  13.895
20477W        W88818  16.710  31.073  10.579
20478W        W88819   4.352  36.468   3.650
20479W        W88820  18.707  26.702  12.968
20480W        W88821  11.745  34.108  11.400
20481W        W88822  24.609  24.146   0.436
20482W        W88823  24.017  10.879   0.817
20483W        W88824  26.551  36.455  11.872
20484W        W88825  13.349   3.770   2.197
20485W        W88826   6.219  29.099   1.818
20486W        W88827  43.953   0.862   4.257
20487W        W88828  22.015  32.958   0.283
20488W        W88829  12.246  10.382   1.325
20489W        W88830   1.764   6.410   2.835
20490W        W88831  21.221  17.198  11.420
20491W        W88832  37.496  28.461  12.481
20492W        W88833  41.442  15.272  13.380
20493W        W88834  10.646   9.668   1.877
20494W        W88835  18.559  15.754  11.377
20495W        W88836  42.926  28.590   3.203
20496W        W88837  27.054  22.149  13.539
20497W        W88838  17.249  44.495   4.303
20498W        W88839  38.913  34.402   3.807
20499W        W88840  36.441  23.214  10.481
20500W        W88841  15.268  28.003   3.310
20501W        W88842  25.988  13.122   4.199
20502W        W88843  18.184  11.333   4.606
20503W        W88844  15.760  36.022  12.506
20504W        W88845  16.161  22.089  12.414
20505W        W88846  39.817  31.592   3.256
20506W        W88847  11.289  18.636   0.468
20507W        W88848  10.182  19.549  11.040
20508W        W88849  39.889   5.382  14.496
20509W        W88850  19.070  11.183  10.490
20510W        W88851  18.752   4.775   3.371
20511W        W88852   0.754  14.817   3.832
20512W        W88853  14.176  31.594   3.207
20513W        W88854   5.411  13.778   1.254
20514W        W88855   9.330  38.068  11.571
20515W        W88856   8.253  33.065   3.812
20516W        W88857   3.381  20.659   3.734
20517W        W88858  12.311  12.172  13.454
20518W        W88859  24.662   1.299   2.395
20519W        W88860  30.529  15.220   4.706
20520W        W88861  42.332  30.519  14.010
20521W        W88862  31.073  35.603   0.271
20522W        W88863   1.902  41.362  13.315
20523W        W88864   5.308   3.771  11.969
20524W        W88865  38.915  23.201  12.511
20525W        W88866  17.789  30.932  10.928
20526W        W88867  16.135  30.600   0.437
20527W        W88868  14.764  19.069  13.888
20528W        W88869   9.793  23.541  11.417
20529W        W88870   1.949  42.506  12.983
20530W        W88871  16.664  40.481   4.234
20531W        W88872  39.990   8.780  10.566
20532W        W88873  41.497  42.328   2.413
20533W        W88874  15.600  30.657  14.292
20534W        W88875  14.321  41.462   4.752
20535W        W88876   3.833  36.516   1.877
20536W        W88877  27.947  19.240   3.298
20537W        W88878  42.853  23.689   4.193
20538W        W88879  25.646   6.388   1.798
20539W        W88880   5.349  22.554  12.827
20540W        W88881  20.120  44.802   2.272
20541W        W88882  25.068  32.974   3.726
20542W        W88883  42.492  33.958   2.798
20543W        W88884  41.968   5.736  10.530
20544W        W88885  23.001   2.244  10.620
20545W        W88886  19.656  30.972   3.716
20546W        W88887  26.631  43.822  11.960
20547W        W88888  16.304  42.927   5.301
20548W        W88889  26.523  16.691   4.611
20549W        W88890  31.081   5.726  14.878
20550W        W88891  42.924  19.748   1.921
20551W        W88892   1.479  40.333  13.821
20552W        W88893  10.819  30.619   4.134
20553W        W88894  11.137  20.674   2.328
20554W        W88895  26.136  41.447   2.404
20555W        W88896  23.986  32.576   2.853
20556W        W88897  13.600   2.334   2.183
20557W        W88898  13.816  27.016  14.332
20558W        W88899  31.905   7.789  10.508
20559W        W88900  13.310  22.716   4.260
20560W        W88901   1.864  19.174  14.369
20561W        W88902  14.245  38.444  11.399
20562W        W88903  18.136  24.999  11.420
20563W        W88904  31.956  13.351   3.751
20564W        W88905   2.728  43.904  12.918
20565W        W88906  17.638  41.318  11.954
20566W        W88907  35.048   5.762   1.762
20567W        W88908  16.659  43.424  14.515
20568W        W88909  34.514  33.094   4.751
20569W        W88910   1.941   9.378   3.368
20570W        W88911  31.945  38.426  11.971
20571W        W88912  15.165  43.838   2.753
20572W        W88913  25.632  29.625   0.931
20573W        W88914  15.604   5.310  12.366
20574W        W88915  38.415   1.882   1.427
20575W        W88916   9.691  28.463   0.364
20576W        W88917   6.760  31.535   0.410
20577W        W88918  25.605  26.122   3.147
20578W        W88919  39.385  42.419   4.288
20579W        W88920  38.571  42.340   0.249
20580W        W88921   7.908  21.221   3.716
20581W        W88922  30.624   1.419   3.633
20582W        W88923   8.866   1.392  13.471
20583W        W88924  40.437  17.680   3.832
20584W        W88925   5.314  19.605   3.190
20585W        W88926  21.652  10.247   4.293
20586W        W88927   9.724  25.539   3.697
20587W        W88928   9.160   3.743   0.766
20588W        W88929  39.429  33.461  11.476
20589W        W88930  35.461   2.317   0.443
20590W        W88931  17.602  29.117   3.817
20591W        W88932  28.584  13.601   1.409
20592W        W88933  13.316  10.701  13.523
20593W        W88934   9.704  39.861  10.586
20594W        W88935  37.087  41.932   1.909
20595W        W88936  37.364  19.641   1.853
20596W        W88937   2.739   3.359  11.607
20597W        W88938  20.090  23.150   3.273
20598W        W88939  34.044   3.342   0.882
20599W        W88940   2.313  15.291   1.866
20600W        W88941  13.252  19.260   2.848
20601W        W88942  23.235  17.609  14.027
20602W        W88943  15.146   1.953  10.623
20603W        W88944  30.554  10.382  12.046
20604W        W88945  10.722  22.667   0.951
20605W        W88946  12.246  37.851   1.311
20606W        W88947   5.242  39.857   2.405
20607W        W88948  10.204   2.930   3.680
20608W        W88949  14.830  10.823  14.906
20609W        W88950  30.521  11.851  12.910
20610W        W88951  36.916  20.716   4.600
20611W        W88952   1.797  42.903  11.868
20612W        W88953  14.206  31.642  14.026
20613W        W88954  37.944  15.750   3.851
20614W        W88955  15.108  16.695  13.825
20615W        W88956  18.662  29.449  12.375
20616W        W88957  12.802   3.377  10.509
20617W        W88958  38.396  40.887   5.167
20618W        W88959  24.100  20.047  14.500
20619W        W88960  44.350  43.415   3.298
20620W        W88961  31.921  42.290   9.539
20621W        W88962  40.528  25.521  12.563
20622W        W88963  10.153  18.220   4.764
20623W        W88964  40.308   7.747   2.205
20624W        W88965  34.471  32.891  14.326
20625W        W88966  37.344  33.965   2.280
20626W        W88967  44.903  42.031  13.000
20627W        W88968  33.023   4.234   2.406
20628W        W88969  21.571  19.739   1.402
20629W        W88970   2.460  42.870   0.336
20630W        W88971  15.186   1.891   2.764
20631W        W88972  23.990  12.698   0.354
20632W        W88973  40.361  22.648   2.903
20633W        W88974  31.104   6.844  10.904
20634W        W88975  12.168  10.747  13.964
20635W        W88976  13.746  26.954   4.189
20636W        W88977   0.955  26.541   1.351
20637W        W88978   6.261  27.604   1.844
20638W        W88979  15.656  23.107  12.359
20639W        W88980   0.268  43.828   4.273
20640W        W88981   1.769  19.534   0.778
20641W        W88982  43.454  15.588  14.435
20642W        W88983  35.416   6.386  13.497
20643W        W88984  10.311   1.446  10.574
20644W        W88985   8.758  29.023   3.331
20645W        W88986  40.916   2.812   2.225
20646W        W88987  41.495  21.561   3.280
20647W        W88988  28.528  12.131   2.301
20648W        W88989  12.197   4.307   3.303
20649W        W88990  19.593  19.602  11.987
20650W        W88991  11.858  10.357  13.902
20651W        W88992  26.203   5.322   3.825
20652W        W88993   9.696   8.737   2.863
20653W        W88994   0.467  13.346  13.059
20654W        W88995  14.769  41.924  11.470
20655W        W88996  12.183  25.603  14.453
20656W        W88997   3.734  31.005  11.534
20657W        W88998  37.907  10.360  14.927
20658W        W88999  36.943  42.825   1.357
20659W        W89000   6.785  11.202  13.462
20660W        W89001  20.545   7.309   0.432
20661W        W89002  44.483   3.362   4.629
20662W        W89003  16.263  13.211   1.356
20663W        W89004   7.260  10.163  10.565
20664W        W89005  18.728  29.049  12.916
20665W        W89006  26.573   0.251  14.439
20666W        W89007  34.961  17.212   1.830
20667W        W89008  41.872  14.241  14.804
20668W        W89009  41.790  35.055   4.128
20669W        W89010  40.963  34.037   2.787
20670W        W89011  22.163  38.409   3.759
20671W        W89012  38.443  19.144   2.353
20672W        W89013  12.708  12.682  11.529
20673W        W89014  39.005  27.030   3.742
20674W        W89015   6.902  39.416  12.407
20675W        W89016  38.937  27.173  13.452
20676W        W89017  22.579  44.437  13.328
20677W        W89018  14.218  36.473   0.361
20678W        W89019  21.682  31.064   3.705
20679W        W89020  18.272  33.029   2.868
20680W        W89021  43.280  30.532  11.932
20681W        W89022  16.706  42.419   1.339
20682W        W89023  17.748  43.977  12.417
20683W        W89024  25.577  40.446   2.713
20684W        W89025  39.385  19.238   2.218
20685W        W89026  18.274  32.090  14.892
20686W        W89027  38.873  34.530  14.368
20687W        W89028  13.830   9.739  13.878
20688W        W89029  21.097  37.871  13.913
20689W        W89030  32.562  26.019   4.638
20690W        W89031  21.053  30.125   4.268
20691W        W89032  18.609   2.961   1.909
20692W        W89033   7.230   1.392   0.864
20693W        W89034  29.173  30.068   4.773
20694W        W89035  20.225  31.084  10.923
20695W        W89036  27.972  22.076   1.749
20696W        W89037  14.239  38.450   9.526
20697W        W89038  35.427  15.652  11.129
20698W        W89039  40.016  36.396   0.758
20699W        W89040  41.853  28.001   2.674
20700W        W89041   4.398  12.330  14.491
20701W        W89042  27.572  37.542   1.407
20702W        W89043  33.997   3.308   0.417
20703W        W89044   5.757  15.118  13.485
20704W        W89045  31.579  21.704   0.484
20705W        W89046  40.393  17.282   2.841
20706W        W89047  40.341  14.729  14.304
20707W        W89048   6.203  19.243  13.822
20708W        W89049  20.090  18.110  14.312
20709W        W89050  40.444   7.827  13.059
20710W        W89051  23.076  35.935   3.719
20711W        W89052  38.944  23.235   1.400
20712W        W89053  41.939  12.294  13.369
20713W        W89054   9.385  41.409  14.286
20714W        W89055  26.039  18.648  13.836
20715W        W89056  44.905  39.878   0.334
20716W        W89057  20.236  28.661  13.018
20717W        W89058  35.954  22.047  12.490
20718W        W89059  40.832  32.630   1.900
20719W        W89060  38.005   6.271  12.554
20720W        W89061  14.726  26.155  12.017
20721W        W89062   2.791  43.904   2.366
20722W        W89063  37.935  33.927   1.376
20723W        W89064   9.238  21.173   1.309
20724W        W89065  26.187   9.351   2.410
20725W        W89066  44.371  35.071  13.405
20726W        W89067  41.801   9.752   3.776
20727W        W89068  18.191  40.348   3.785
20728W        W89069  29.604  11.189   4.176
20729W        W89070  25.520  30.996   0.421
20730W        W89071  36.403  40.995  13.000
20731W        W89072  34.016  37.925   3.193
20732W        W89073   6.874  38.367   3.197
20733W        W89074  32.913  11.719  12.497
20734W        W89075  27.174   4.318  14.279
20735W        W89076  22.506  18.099  14.504
20736W        W89077  26.463  29.993   1.302
20737W        W89078  39.385  13.788  14.805
20738W        W89079  35.964  33.898  13.937
20739W        W89080  17.196   4.829   3.332
20740W        W89081  32.507  31.572  11.106
20741W        W89082  25.632  12.769  14.788
20742W        W89083  24.596  28.479   0.312
20743W        W89084  10.202  16.083  11.103
20744W        W89085  19.165  39.991   0.425
20745W        W89086  23.522  13.260  13.451
20746W        W89087  29.947  33.879  13.822
20747W        W89088   6.202   8.860  11.520
20748W        W89089   1.469   8.357  10.473
20749W        W89090  33.588  44.826  14.816
20750W        W89091   0.939  36.530  13.017
20751W        W89092  29.525  17.657   4.120
20752W        W89093  34.976  21.110  10.427
20753W        W89094  44.799  32.963  13.862
20754W        W89095  22.224  42.842  10.893
20755W        W89096  19.217  20.218  10.494
20756W        W89097  22.165   6.346  11.994
20757W        W89098  42.899  20.231  10.546
20758W        W89099  22.518  23.040   3.274
20759W        W89100   3.890   0.404   0.373
20760W        W89101  28.070  25.126  14.347
20761W        W89102  18.174  41.999   4.639
20762W        W89103  19.659  10.726   2.193
20763W        W89104  42.296  40.401   2.862
20764W        W89105  14.124  22.128  12.039
20765W        W89106   4.795  32.447   3.192
20766W        W89107  30.466  25.001   4.341
20767W        W89108  31.905   8.369   4.185
20768W        W89109   0.797  27.045   1.437
20769W        W89110  23.051  17.194   4.770
20770W        W89111  12.138  34.105  11.430
20771W        W89112  17.626  20.705  10.980
20772W        W89113  43.362  17.240  14.972
20773W        W89114  29.164  39.485  13.451
20774W        W89115  34.549  35.893   4.169
20775W        W89116  36.525   9.384  14.459
20776W        W89117  26.013  40.485   1.885
20777W        W89118  31.604  22.128  12.827
20778W        W89119  43.822   5.281   0.963
20779W        W89120  33.977  35.954  13.385
20780W        W89121  11.359  16.250  11.919
20781W        W89122  18.676  41.030  14.406
20782W        W89123   0.290  26.039   0.381
20783W        W89124  30.423  36.978   3.160
20784W        W89125   9.367  12.620   3.301
20785W        W89126  36.406  32.551   4.349
20786W        W89127  30.557  26.031  13.023
20787W        W89128  34.380   7.291   3.303
20788W        W89129   4.734  25.546  13.403
20789W        W89130  10.754  39.844  14.476
20790W        W89131  17.291  11.702   4.797
20791W        W89132  34.879  22.693  11.123
20792W        W89133  41.899  32.995   4.674
20793W        W89134  40.331   0.297  11.978
20794W        W89135  30.917  35.514   1.245
20795W        W89136  40.316  11.347   1.894
20796W        W89137  24.590  10.869  14.490
20797W        W89138   7.669  23.579  11.090
20798W        W89139  22.189  32.892   3.740
20799W        W89140   1.468  42.775   3.709
20800W        W89141  13.692  31.037  10.525
20801W        W89142  38.488  23.063   4.348
20802W        W89143  33.616   7.374  14.782
20803W        W89144  21.162  10.642   1.851
20804W        W89145  27.023  27.114   4.837
20805W        W89146  26.465  27.144  13.955
20806W        W89147  44.844   2.343  12.458
20807W        W89148  33.120  40.530  14.909
20808W        W89149  42.413  24.712   1.444
20809W        W89150   1.462  19.567  14.309
20810W        W89151  35.895  44.874   0.949
20811W        W89152  26.017  43.882  11.988
20812W        W89153  17.205  20.539  10.525
20813W        W89154  33.611  29.463   0.757
20814W        W89155  29.158  27.945  13.544
20815W        W89156  42.858   6.256   2.747
20816W        W89157  36.436  40.307   1.852
20817W        W89158  34.459  27.671  14.868
20818W        W89159  12.646   8.191   1.794
20819W        W89160   1.377  16.256   2.338
20820W        W89161  42.932  36.936   4.609
20821W        W89162  39.870  20.750  11.026
20822W        W89163  25.555  22.514  13.975
20823W        W89164   0.392   7.856  12.493
20824W        W89165   4.257  31.041  14.968
20825W        W89166  39.344  12.292  12.044
20826W        W89167   3.854  10.793   0.458
20827W        W89168  28.437   7.390   1.886
20828W        W89169  15.269  41.827  11.937
20829W        W89170  28.618  40.848  11.948
20830W        W89171  23.633  37.346   3.251
20831W        W89172  21.023  24.210  14.932
20832W        W89173  17.125  18.269  14.335
20833W        W89174   2.851  43.956   1.795
20834W        W89175  32.128  16.232  11.011
20835W        W89176   4.908  35.582   4.277
20836W        W89177  35.921  29.926  13.062
20837W        W89178   2.376   6.676   3.759
20838W        W89179   6.235  22.695   1.736
20839W        W89180  23.225   9.775   3.219
20840W        W89181   2.793  21.105   0.885
20841W        W89182  22.520  37.008  11.518
20842W        W89183  43.435   6.274   3.725
20843W        W89184  41.961  17.772   1.913
20844W        W89185  30.082  43.765  10.422
20845W        W89186  17.179  14.293   2.744
20846W        W89187  16.184  29.542   0.887
20847W        W89188   7.284  22.203  14.848
20848W        W89189  26.954   9.391  14.506
20849W        W89190   2.417  30.069  10.936
20850W        W89191  11.368  40.536   4.343
20851W        W89192   1.416  42.363  14.023
20852W        W89193  33.395  44.812   3.170
20853W        W89194  23.987  41.013  12.859
20854W        W89195  24.989  23.091   2.705
20855W        W89196   1.372  38.833   0.439
20856W        W89197  10.328  33.584  12.484
20857W        W89198  24.113   1.764   2.733
20858W        W89199  38.951   6.760   4.151
20859W        W89200  34.906  31.577   0.926
20860W        W89201  15.196  23.721  13.544
20861W        W89202  32.090  16.197   2.359
20862W        W89203  17.067  22.202   1.698
20863W        W89204  23.012  31.091  14.391
20864W        W89205  37.948   9.797  11.447
20865W        W89206   3.261   3.452  11.609
20866W        W89207  22.188  27.079   1.743
20867W        W89208  21.089  17.125   3.763
20868W        W89209  29.106  28.501  11.904
20869W        W89210  23.568  20.108   4.155
20870W        W89211  19.632  32.124   2.789
20871W        W89212  22.246   4.266   1.891
20872W        W89213  27.506   5.289  11.583
20873W        W89214  31.622  41.792   2.810
20874W        W89215  27.183   4.227   4.778
20875W        W89216  39.046  36.026  14.462
20876W        W89217  36.565  39.971  14.794
20877W        W89218   1.875   1.870   2.259
20878W        W89219  35.366  34.540  12.414
20879W        W89220  38.543  34.091   1.279
20880W        W89221   6.730  27.105  12.555
20881W        W89222  32.101  41.916  10.130
20882W        W89223   3.847  18.295   5.304
20883W        W89224   5.814   6.209   4.304
20884W        W89225  42.862  10.639   3.665
20885W        W89226  42.293  26.976  13.997
20886W        W89227  25.015  33.129  11.421
20887W        W89228  11.353  25.017  14.831
20888W        W89229  16.209  35.983  12.970
20889W        W89230  32.001  13.804  11.418
20890W        W89231  32.927  28.520  12.547
20891W        W89232  24.562  11.764   3.313
20892W        W89233  40.918  43.302   2.283
20893W        W89234  41.787   3.938   1.385
20894W        W89235   2.911  29.957  13.341
20895W        W89236  17.764  27.456   4.191
20896W        W89237   5.194  43.880   2.302
20897W        W89238  30.559  40.993   1.380
20898W        W89239   5.708  37.999  10.428
20899W        W89240  26.964  37.462   4.277
20900W        W89241  25.528  18.170   5.659
20901W        W89242   6.286  16.694   2.848
20902W        W89243  15.656   8.355  14.997
20903W        W89244   0.809  37.894  14.878
20904W        W89245   3.365   6.229  13.541
20905W        W89246  23.195  20.247  10.508
20906W        W89247   9.678  27.952  13.325
20907W        W89248  24.491  20.128  13.918
20908W        W89249  26.513  22.732  10.627
20909W        W89250  29.495   6.251   0.799
20910W        W89251   2.253  18.654   4.202
20911W        W89252  19.269   2.260   1.396
20912W        W89253  33.385  30.641  12.410
20913W        W89254  43.913   2.733   4.291
20914W        W89255  22.194   3.740   0.921
20915W        W89256  26.525  15.793   1.749
20916W        W89257   7.708  19.731   4.124
20917W        W89258  29.439  29.603   1.884
20918W        W89259  31.911  34.896   5.228
20919W        W89260  18.695   5.322  11.062
20920W        W89261  13.129   0.831  12.350
20921W        W89262  43.348  20.699  13.508
20922W        W89263  38.829  33.879  13.903
20923W        W89264  31.949  28.175   3.776
20924W        W89265  29.528  40.052  12.995
20925W        W89266  41.958  14.791  13.817
20926W        W89267  40.483  27.090  12.948
20927W        W89268  23.156  28.936  14.911
20928W        W89269  36.523  24.978   3.243
20929W        W89270  43.908   8.754  14.443
20930W        W89271  41.472  25.164   4.649
20931W        W89272   1.339  11.860   4.789
20932W        W89273  21.597  17.557   1.708
20933W        W89274   3.331  29.111  13.052
20934W        W89275   1.862  20.244  13.924
20935W        W89276  43.951  24.134   2.791
20936W        W89277  26.043  27.046  11.905
20937W        W89278   3.403   1.277   1.880
20938W        W89279  25.513  18.607  14.438
20939W        W89280  12.343   5.761  12.012
20940W        W89281   5.242   6.809  11.978
20941W        W89282   7.202  38.919  14.030
20942W        W89283  25.608  35.020  11.434
20943W        W89284  34.507  11.129   2.723
20944W        W89285  42.789  44.379  10.907
20945W        W89286  21.588  31.900  11.926
20946W        W89287  43.865  13.216  14.883
20947W        W89288  24.617   8.260  13.063
20948W        W89289  11.725  33.115   0.962
20949W        W89290  12.813  40.389  10.951
20950W        W89291  10.879  25.160  12.553
20951W        W89292  30.558  40.469  12.523
20952W        W89293  27.967   5.352  11.014
20953W        W89294   0.875  42.986  11.448
20954W        W89295  36.929  20.664   0.788
20955W        W89296  15.688   9.170  11.866
20956W        W89297  28.169  23.990  12.495
20957W        W89298  23.490  15.667   0.727
20958W        W89299   9.388   7.356   0.824
20959W        W89300  21.708   7.779   2.311
20960W        W89301   1.972  18.228   1.860
20961W        W89302  17.306  10.776   0.740
20962W        W89303   5.893  22.105   1.399
20963W        W89304  42.365   5.422  11.385
20964W        W89305  43.477  31.105   0.738
20965W        W89306  37.841  31.473   1.433
20966W        W89307  26.522  22.012  13.489
20967W        W89308  27.110  32.031  14.392
20968W        W89309   0.901   4.205  10.937
20969W        W89310  11.256  24.570  12.480
20970W        W89311  37.957  43.452   1.353
20971W        W89312   3.341  42.915  11.414
20972W        W89313   1.950  39.544   4.775
20973W        W89314  28.568  35.365   3.165
20974W        W89315  27.478  10.305   3.811
20975W        W89316  17.090  35.382  13.862
20976W        W89317   5.377  43.817  11.403
20977W        W89318  30.935  14.645  11.023
20978W        W89319  35.018   1.753   4.240
20979W        W89320  43.971  16.721   2.381
20980W        W89321  25.132   8.397   0.804
20981W        W89322  37.076  27.115   4.619
20982W        W89323   2.248   0.828  12.423
20983W        W89324  36.363   6.719   3.163
20984W        W89325  15.623  11.372   4.628
20985W        W89326  35.939  14.734   0.876
20986W        W89327  31.629   4.803  13.951
20987W        W89328   9.880   4.261  14.302
20988W        W89329   2.849  30.561  14.845
20989W        W89330  37.981   9.342   3.321
20990W        W89331  32.517  10.760  11.529
20991W        W89332   6.728  40.331   2.821
20992W        W89333  14.739  30.081   3.175
20993W        W89334  22.033  13.827  12.552
20994W        W89335   4.798  25.172  14.479
20995W        W89336  33.449  42.823   3.330
20996W        W89337  17.174  27.672   4.161
20997W        W89338  34.869  36.050   3.263
20998W        W89339  35.477  14.117   3.857
20999W        W89340  22.516  34.002   1.744
21000W        W89341   2.367  29.091   9.985
21001W        W89342  42.842  20.050  12.480
21002W        W89343   3.877  35.399   1.848
21003W        W89344  25.526   8.865  11.875
21004W        W89345   0.359  44.433   2.781
21005W        W89346  12.243   9.160   2.303
21006W        W89347  23.222  37.515   0.336
21007W        W89348   7.797  29.164   0.940
21008W        W89349   6.400   0.403  13.544
21009W        W89350   3.814  29.145  13.516
21010W        W89351  26.046   2.410   4.710
21011W        W89352  34.952   2.302   1.803
21012W        W89353  20.584  16.692  14.301
21013W        W89354  17.125  17.797   1.831
21014W        W89355  32.506  11.135  14.282
21015W        W89356   2.865  31.944   5.167
21016W        W89357  15.730  26.654   3.856
21017W        W89358  26.198  11.359  10.446
21018W        W89359  27.691  13.263   4.261
21019W        W89360  21.087  19.062   0.857
21020W        W89361  38.057  24.022  10.946
21021W        W89362  43.934  13.136   4.723
21022W        W89363  20.622  39.507  12.377
21023W        W89364  32.614  22.232   2.758
21024W        W89365  10.645  21.226   5.172
21025W        W89366  43.345  12.346  14.943
21026W        W89367   1.335  21.259  12.533
21027W        W89368  35.397  25.138  11.085
21028W        W89369  36.547  16.308  14.358
21029W        W89370  19.539  39.509  11.556
21030W        W89371  29.948  30.052  12.911
21031W        W89372  19.775  33.382  11.598
21032W        W89373  34.373  17.248  13.947
21033W        W89374  31.899  13.166   1.272
21034W        W89375  40.457  27.013   1.904
21035W        W89376  34.457  21.758  12.570
21036W        W89377  26.552   5.840   3.361
21037W        W89378  20.715  30.521  13.061
21038W        W89379   7.731  43.911   2.263
21039W        W89380   8.306  36.853  14.871
21040W        W89381  14.600  44.923   3.837
21041W        W89382  27.972  39.049  10.969
21042W        W89383  26.488  24.992  13.476
21043W        W89384   5.703   3.366   2.403
21044W        W89385  12.692  40.545  14.308
21045W        W89386  18.197  28.680  11.445
21046W        W89387   4.234  17.611   3.277
21047W        W89388  38.865  14.210   1.422
21048W        W89389  18.657   8.331   2.362
21049W        W89390  11.852  14.154   4.779
21050W        W89391   1.892  40.984  14.281
21051W        W89392  23.045  10.868  12.009
21052W        W89393  24.073   9.298  14.417
21053W        W89394   2.248  32.427  11.585
21054W        W89395  10.228  33.545  10.544
21055W        W89396  29.607  41.509  12.380
21056W        W89397  13.778  23.572  11.047
21057W        W89398   4.277  34.012   4.687
21058W        W89399  20.597  24.993  11.916
21059W        W89400  12.153  39.024  13.965
21060W        W89401  21.721  19.545  10.617
21061W        W89402  30.914   0.848   4.337
21062W        W89403  16.796  42.807  10.617
21063W        W89404  26.478  34.905  10.967
21064W        W89405  25.611   2.872  12.862
21065W        W89406   9.382  20.029  11.980
21066W        W89407   4.818  35.988   1.355
21067W        W89408   2.233  33.422  11.558
21068W        W89409  24.605  21.211   1.300
21069W        W89410  22.525  18.722   9.963
21070W        W89411  26.997  39.005  13.792
21071W        W89412  35.098   8.657   0.826
21072W        W89413   8.380  29.955  14.854
21073W        W89414   2.957  24.198   0.785
21074W        W89415  12.653   7.774   4.171
21075W        W89416  14.798   8.733  13.334
21076W        W89417  14.806   4.892  11.088
21077W        W89418  11.746  41.820  11.535
21078W        W89419  40.402  42.921   0.451
21079W        W89420  13.184  25.688  10.537
21080W        W89421  11.623  16.240  11.051
21081W        W89422  35.570  40.485  10.923
21082W        W89423   8.179  36.558   4.619
21083W        W89424  27.561   5.229  13.332
21084W        W89425  28.163   3.303  13.362
21085W        W89426   9.274  33.577  14.883
21086W        W89427  10.804  25.523  11.913
21087W        W89428  37.003  42.358   2.273
21088W        W89429   3.910  42.002   0.816
21089W        W89430  24.618   1.955  14.387
21090W        W89431   4.334   5.333   4.755
21091W        W89432   8.169  22.136   3.766
21092W        W89433  22.107   8.386  11.405
21093W        W89434  34.444  34.603  11.951
21094W        W89435  14.119  17.158  13.060
21095W        W89436   2.806  15.647  14.320
21096W        W89437  30.054  35.959   4.696
21097W        W89438   7.368  44.787  13.432
21098W        W89439  23.130  33.000  13.323
21099W        W89440  34.490  41.501  11.570
21100W        W89441   5.237  44.268   4.197
21101W        W89442  33.611  18.225   9.974
21102W        W89443  22.180  34.926  11.497
21103W        W89444  39.475  35.489  11.956
21104W        W89445  31.640  33.999  10.532
21105W        W89446  15.624  17.707  13.921
21106W        W89447  25.702  19.743   3.307
21107W        W89448   3.856  21.712  10.477
21108W        W89449  38.540  40.373  11.908
21109W        W89450  11.328  33.884   1.361
21110W        W89451  16.145   8.665   2.240
21111W        W89452  27.569  32.399   3.634
21112W        W89453   4.761  17.287   3.299
21113W        W89454   5.208  36.030  10.567
21114W        W89455  17.685  24.149   0.292
21115W        W89456  29.028  44.864   2.757
21116W        W89457  40.022  33.440   4.182
21117W        W89458  44.899   1.867  11.977
21118W        W89459   3.298  42.920  12.459
21119W        W89460   1.270  37.345  11.421
21120W        W89461  19.725  36.874   2.663
21121W        W89462  18.119   3.840   4.348
21122W        W89463   6.773  44.887   1.429
21123W        W89464  14.750  26.100   0.274
21124W        W89465   1.785  24.628   4.215
21125W        W89466  42.843  36.084  14.862
21126W        W89467  28.649   9.378   1.935
21127W        W89468  39.871  30.645   4.173
21128W        W89469  26.107  43.428   1.316
21129W        W89470   1.916   5.313   4.347
21130W        W89471  12.719  41.299  14.469
21131W        W89472   7.335  27.660   4.741
21132W        W89473  37.077  18.121  14.921
21133W        W89474  13.118  40.956  11.457
21134W        W89475   8.194  18.153   0.957
21135W        W89476  30.558  20.738   0.748
21136W        W89477  14.622  42.950   0.473
21137W        W89478   8.286  34.540  13.331
21138W        W89479  12.355  11.715   1.876
21139W        W89480  15.682  14.807   2.200
21140W        W89481  19.653  29.602  13.795
21141W        W89482  19.538  18.192   3.147
21142W        W89483  26.681  26.028  12.096
21143W        W89484  20.573  28.082  10.618
21144W        W89485   6.347  21.223  12.899
21145W        W89486  41.428  25.468  10.953
21146W        W89487  42.801  39.852   3.156
21147W        W89488   3.282  13.742  12.500
21148W        W89489  22.111   1.758  11.583
21149W        W89490  44.426  27.014  10.907
21150W        W89491  33.118  30.587  12.925
21151W        W89492   7.272  41.318   3.220
21152W        W89493   2.782  32.499  14.470
21153W        W89494  19.195   9.204   1.275
21154W        W89495  35.933   3.869  14.440
21155W        W89496  11.335  34.015  10.587
21156W        W89497  42.328  16.156   2.400
21157W        W89498  44.784  31.434   2.837
21158W        W89499  25.673  28.477  13.410
21159W        W89500  12.785  15.741  13.999
21160W        W89501   5.926  41.023  11.014
21161W        W89502  13.619  21.085   3.678
21162W        W89503  35.902  39.996   4.705
21163W        W89504  28.509  14.289  12.008
21164W        W89505  34.033  16.267  14.477
21165W        W89506  29.166  16.685  13.455
21166W        W89507  39.054  43.509   1.829
21167W        W89508  41.796  38.457   0.950
21168W        W89509  11.647  34.883  12.544
21169W        W89510  33.503  39.904   4.294
21170W        W89511   6.867  26.129   2.218
21171W        W89512  21.028  41.530  12.343
21172W        W89513   0.929  40.323  14.311
21173W        W89514  31.990  23.221   1.859
21174W        W89515  15.742  24.511  11.949
21175W        W89516   5.417   2.755  11.454
21176W        W89517  31.425   2.734   3.769
21177W        W89518  17.615   7.730  14.415
21178W        W89519  36.869  10.330   4.830
21179W        W89520  35.051  36.413  12.567
21180W        W89521  20.740   0.379  12.461
21181W        W89522   9.884  36.078   2.400
21182W        W89523  13.124  40.366   2.195
21183W        W89524  27.464   4.446  10.629
21184W        W89525  23.116  31.087  13.975
21185W        W89526  10.170  36.092   4.772
21186W        W89527  15.686  10.639  14.994
21187W        W89528  23.134  35.870  11.446
21188W        W89529  43.515  35.562  14.014
21189W        W89530  21.735  27.581  14.297
21190W        W89531  31.462   9.390  14.507
21191W        W89532  23.017  43.406  13.000
21192W        W89533   6.328  33.473  10.481
21193W        W89534  37.973  28.044  12.430
21194W        W89535   1.397  28.568   2.249
21195W        W89536  22.693  21.140  12.989
21196W        W89537  41.801   8.253   2.233
21197W        W89538  17.697  19.085   0.466
21198W        W89539  34.919   5.221  14.008
21199W        W89540  13.767   7.363   1.797
21200W        W89541   5.235   1.820   3.180
21201W        W89542   6.867  19.102  12.927
21202W        W89543  34.944   3.427  10.027
21203W        W89544   9.366  33.431  12.015
21204W        W89545  40.336  25.154   0.744
21205W        W89546  25.639  28.013  11.434
21206W        W89547  35.532  27.958  14.282
21207W        W89548   0.875  35.385  11.411
21208W        W89549  40.356  21.585  10.461
21209W        W89550  12.779   2.933   1.361
21210W        W89551  16.794  27.029  10.419
21211W        W89552   8.741  33.017   4.347
21212W        W89553  37.061  19.083   1.778
21213W        W89554  20.732  33.570   2.182
21214W        W89555  43.767  30.635   2.331
21215W        W89556  30.116  31.958   9.968
21216W        W89557  12.825  35.525   4.634
21217W        W89558  20.265  16.170   4.825
21218W        W89559  44.295  13.223   2.827
21219W        W89560  19.638   2.887  11.967
21220W        W89561  34.561  27.504   3.361
21221W        W89562  33.573  39.549  13.005
21222W        W89563   1.315  41.369   4.311
21223W        W89564  38.969  22.203   2.898
21224W        W89565  23.195  31.153  12.051
21225W        W89566  32.499  13.293  10.032
21226W        W89567  36.393  39.524  10.603
21227W        W89568  13.639   5.227   2.886
21228W        W89569  31.089  24.698   3.344
21229W        W89570  43.306  16.626   1.402
21230W        W89571   8.782  27.017  12.944
21231W        W89572  39.043  26.483   5.194
21232W        W89573  22.527  20.763   2.877
21233W        W89574  25.209  41.324   4.199
21234W        W89575  13.305  43.292   4.825
21235W        W89576  10.767  38.992  11.513
21236W        W89577  21.216   4.349  12.884
21237W        W89578  28.675  32.531  13.354
21238W        W89579  44.285  25.189  11.603
21239W        W89580   1.890  36.558   2.242
21240W        W89581   4.801   7.767  10.977
21241W        W89582   2.798  42.000   4.753
21242W        W89583  27.941  42.518  11.530
21243W        W89584   2.899  28.000   1.814
21244W        W89585  38.498   5.198  13.876
21245W        W89586  44.441   8.675  12.372
21246W        W89587  34.503  42.856   0.328
21247W        W89588  27.575   9.833   2.903
21248W        W89589  44.449   4.280   3.249
21249W        W89590  24.076   4.370  13.316
21250W        W89591  40.522   0.775   1.799
21251W        W89592  14.320  37.446  11.424
21252W        W89593  23.131  34.878   4.821
21253W        W89594  31.439   3.829   4.803
21254W        W89595  27.061  12.686   2.902
21255W        W89596  10.643  21.194  12.968
21256W        W89597  11.680  41.018   0.470
21257W        W89598  37.387  13.198  12.356
21258W        W89599   1.340  17.682   2.247
21259W        W89600  33.049  36.853  11.435
21260W        W89601   6.776  30.557  14.442
21261W        W89602  17.126  24.214   0.762
21262W        W89603   0.925  39.965  13.397
21263W        W89604  14.313  13.345  13.442
21264W        W89605  22.011  32.626   2.662
21265W        W89606   0.815   4.357  14.383
21266W        W89607  29.142  35.545   0.425
21267W        W89608   5.881   3.821   2.306
21268W        W89609   6.289  27.970   0.416
21269W        W89610  20.104  10.830  13.316
21270W        W89611  24.509  12.700  11.909
21271W        W89612   8.219  17.249  12.544
21272W        W89613  30.598   9.381   2.780
21273W        W89614  30.624  40.350   3.213
21274W        W89615  37.562  18.666  12.901
21275W        W89616  37.002  11.792   2.765
21276W        W89617  15.148  17.760  11.585
21277W        W89618  35.922  36.490   0.350
21278W        W89619  12.270   1.823  13.469
21279W        W89620  16.252  16.621  14.975
21280W        W89621  19.547  19.097   0.354
21281W        W89622  42.890  17.695  10.635
21282W        W89623   8.245  28.534   3.740
21283W        W89624   2.722  28.996  14.299
21284W        W89625  28.108  19.094  12.950
21285W        W89626  36.865   3.318  14.943
21286W        W89627  26.033   5.270  13.042
21287W        W89628  21.519  39.450   3.262
21288W        W89629  37.450  23.638   1.717
21289W        W89630  35.987   4.293   3.795
21290W        W89631  16.690  44.367  13.401
21291W        W89632  21.580  15.754  13.006
21292W        W89633  16.751   1.790  10.952
21293W        W89634  40.411  39.530  14.485
21294W        W89635  39.419  14.739  12.360
21295W        W89636  14.240   9.202  14.498
21296W        W89637   1.763  44.320  13.799
21297W        W89638  16.082  33.409   4.350
21298W        W89639  23.532  29.516   2.737
21299W        W89640  41.924   9.831  13.025
21300W        W89641   4.918  17.734   2.737
21301W        W89642  16.292   0.298   2.239
21302W        W89643  33.441  17.170  11.019
21303W        W89644   8.369  40.909   3.653
21304W        W89645  13.617  43.955  14.337
21305W        W89646  41.986   5.388  11.611
21306W        W89647  40.354  38.363  10.618
21307W        W89648  12.777  40.024  11.018
21308W        W89649  43.305  19.064   3.313
21309W        W89650   8.231  25.043  11.985
21310W        W89651   0.776  17.752  11.541
21311W        W89652  23.993  15.214  12.524
21312W        W89653  21.648   3.826   1.369
21313W        W89654  18.147  38.013   0.294
21314W        W89655  35.366  38.558   0.444
21315W        W89656  30.607  39.933  13.461
21316W        W89657  36.877  20.091   0.388
21317W        W89658   7.784  12.760   1.282
21318W        W89659  31.473  15.212  12.040
21319W        W89660  20.761  35.533  10.894
21320W        W89661  26.644  26.689   9.631
21321W        W89662  12.783  25.084  13.526
21322W        W89663   8.324   9.749  14.806
21323W        W89664  44.331   1.928  14.331
21324W        W89665  12.715   9.249   2.212
21325W        W89666   2.911  32.088   2.852
21326W        W89667   3.460  30.126   1.359
21327W        W89668  42.868  15.676   4.252
21328W        W89669  44.459   3.778   0.472
21329W        W89670   1.821  25.487  14.912
21330W        W89671  32.941  39.967  12.545
21331W        W89672   4.330  34.035  11.866
21332W        W89673  36.435  23.991  11.385
21333W        W89674   3.292  19.772  13.815
21334W        W89675  11.733  28.949  12.382
21335W        W89676  16.094   9.675   3.670
21336W        W89677  17.571  26.989  14.836
21337W        W89678  39.443  17.636  11.875
21338W        W89679  29.934   7.721  12.947
21339W        W89680  22.524   8.228   2.766
21340W        W89681  28.126   3.799  11.064
21341W        W89682  38.540   2.436   4.259
21342W        W89683  34.940  10.801   3.384
21343W        W89684  24.199  13.317  10.579
21344W        W89685   9.799   9.747  11.064
21345W        W89686  12.838  21.692  10.462
21346W        W89687  23.041  36.572  12.516
21347W        W89688  36.037  32.091   4.664
21348W        W89689  18.678  28.460   2.839
21349W        W89690   5.351  32.041  12.474
21350W        W89691  21.550   0.921  13.354
21351W        W89692  24.609  31.556  12.919
21352W        W89693   2.326  35.872   0.813
21353W        W89694  40.522  35.868  11.441
21354W        W89695  29.098  20.644  13.453
21355W        W89696  37.556   8.818  12.540
21356W        W89697  39.920   2.296  13.515
21357W        W89698   5.869  39.867   2.381
21358W        W89699  17.281  28.466   4.618
21359W        W89700  23.216  11.683  12.836
21360W        W89701  15.096  21.085  10.629
21361W        W89702   3.772  25.569   0.739
21362W        W89703  41.373  25.987   0.849
21363W        W89704  19.285  13.732  13.983
21364W        W89705  31.414  40.370   5.178
21365W        W89706  19.252  31.938  13.971
21366W        W89707  42.482   6.322   2.259
21367W        W89708  43.331   1.381  11.474
21368W        W89709  24.661  35.496  13.010
21369W        W89710  10.210  30.456  13.533
21370W        W89711  27.535  43.371   1.806
21371W        W89712  40.462  11.787   2.322
21372W        W89713  35.569   4.365   1.428
21373W        W89714  38.326  40.493  13.532
21374W        W89715  27.093  21.624   2.751
21375W        W89716  27.068   8.343   2.864
21376W        W89717   0.953  33.465   4.293
21377W        W89718  22.157  18.759   2.380
21378W        W89719   3.714  39.897   1.396
21379W        W89720   1.740  19.161  10.590
21380W        W89721  11.311   8.817  13.843
21381W        W89722  20.739   4.704   3.298
21382W        W89723  23.688  20.054  14.405
21383W        W89724  41.318  24.064  10.453
21384W        W89725  21.128  42.895  14.296
21385W        W89726  29.524  20.766   4.768
21386W        W89727   4.393  13.348   4.340
21387W        W89728   3.233  34.083  14.814
21388W        W89729  26.953  13.278   3.219
21389W        W89730  20.528   9.757  12.478
21390W        W89731  27.500   9.367   3.332
21391W        W89732  39.500  10.653   1.338
21392W        W89733  12.801  39.935  10.578
21393W        W89734  20.129  30.949   2.854
21394W        W89735  27.124  28.940  12.035
21395W        W89736  38.041  37.353  12.015
21396W        W89737  34.874   8.780  12.003
21397W        W89738  26.700  11.803   5.181
21398W        W89739  23.147  23.213   4.350
21399W        W89740  15.112  41.918   2.702
21400W        W89741  20.127  36.585  14.890
21401W        W89742  35.575   2.332   1.276
21402W        W89743  29.518   7.338   0.955
21403W        W89744  35.977  37.560   2.354
21404W        W89745  22.608   7.372  14.783
21405W        W89746  38.518  10.174   4.331
21406W        W89747  19.747  17.708  11.496
21407W        W89748  17.194  30.582  10.455
21408W        W89749  41.834   4.877   0.742
21409W        W89750  43.998   1.361  12.855
21410W        W89751  16.578  42.948  12.416
21411W        W89752  39.043  22.057  13.027
21412W        W89753  21.697  37.413   0.368
21413W        W89754  24.572  39.018  14.899
21414W        W89755  44.985  29.152  11.026
21415W        W89756   1.822  19.716  13.330
21416W        W89757  12.234  29.930  10.931
21417W        W89758  15.212   4.806   1.326
21418W        W89759  25.968   8.326   4.757
21419W        W89760  27.965   2.954   0.841
21420W        W89761  17.304  30.547  10.152
21421W        W89762  37.462   9.245  13.043
21422W        W89763  15.612  35.436   3.751
21423W        W89764  43.855   3.441   4.779
21424W        W89765   2.788  11.210  13.910
21425W        W89766  21.085   7.398  12.347
21426W        W89767  10.160  33.957  12.380
21427W        W89768  43.945  16.098  14.511
21428W        W89769  17.652   4.320  13.500
21429W        W89770  35.070  41.326  10.597
21430W        W89771  22.559   0.910   0.878
21431W        W89772   0.956   1.372   2.410
21432W        W89773   1.803  28.517  12.946
21433W        W89774   4.393  24.704   2.765
21434W        W89775  29.636  36.909  13.983
21435W        W89776  14.803   5.693   4.701
21436W        W89777   0.754  18.716   5.260
21437W        W89778   3.307   1.863  13.487
21438W        W89779  11.700   9.309   1.376
21439W        W89780  19.075  29.440   3.869
21440W        W89781  30.026  32.542   3.156
21441W        W89782  18.753  43.492  10.558
21442W        W89783   2.374  17.085   4.150
21443W        W89784  30.968  12.241   0.808
21444W        W89785  13.749  34.456  11.936
21445W        W89786  30.592   1.780   1.396
21446W        W89787  35.937  10.295  14.443
21447W        W89788  42.484  18.653  14.835
21448W        W89789  31.926  20.583  14.951
21449W        W89790   4.449   9.232  14.500
21450W        W89791  36.856  35.471   2.778
21451W        W89792  13.114  19.147  14.846
21452W        W89793  33.959  12.254  11.893
21453W        W89794  25.127  26.033  13.532
21454W        W89795   0.869  18.593   3.201
21455W        W89796  20.567  14.786  14.784
21456W        W89797  22.088   5.819   2.676
21457W        W89798   2.856  40.012  11.076
21458W        W89799  36.096   4.320   1.833
21459W        W89800  42.342  40.534  13.330
21460W        W89801  35.501  11.785  12.076
21461W        W89802  35.407  17.119   0.419
21462W        W89803   9.757  32.004   5.305
21463W        W89804  30.100   9.261   2.726
21464W        W89805  32.122  10.318   4.690
21465W        W89806  26.520  33.397  14.763
21466W        W89807  22.564  24.188  14.397
21467W        W89808  38.395  30.469   4.253
21468W        W89809  37.033  40.937   3.376
21469W        W89810  32.100  16.774   0.862
21470W        W89811  30.657  31.124   2.758
21471W        W89812   2.865  29.516   1.728
21472W        W89813   4.881  36.478   1.828
21473W        W89814  32.081  21.695  10.412
21474W        W89815  15.161  41.992   1.295
21475W        W89816   7.751  30.477   1.707
21476W        W89817  29.632   5.864  13.015
21477W        W89818  15.648  23.659  12.080
21478W        W89819  17.198  18.602   3.716
21479W        W89820  28.023  42.329   0.476
21480W        W89821   5.724  21.513   0.859
21481W        W89822   0.436  21.164  13.316
21482W        W89823  24.061   1.478   3.297
21483W        W89824  26.033  40.855  12.342
21484W        W89825  16.196  30.113  10.937
21485W        W89826  44.474  30.464  14.353
21486W        W89827   6.245   8.844  11.080
21487W        W89828  31.444  43.406   0.483
21488W        W89829  34.080  41.457  11.585
21489W        W89830  17.174  10.718  14.766
21490W        W89831  20.540  42.824  11.882
21491W        W89832  44.900  42.396  10.906
21492W        W89833   3.457  21.720  13.408
21493W        W89834  27.595  24.160   2.712
21494W        W89835  14.695  22.575   1.890
21495W        W89836  40.546  24.671   3.715
21496W        W89837  31.635   4.443   4.306
21497W        W89838  10.154   8.246   4.706
21498W        W89839  30.942  23.141   4.748
21499W        W89840  15.641   0.828  10.553
21500W        W89841  25.124  10.217  11.514
21501W        W89842  31.033   5.257  13.437
21502W        W89843  15.778  25.503  11.101
21503W        W89844  31.952  29.026   2.362
21504W        W89845  21.127   4.852  14.292
21505W        W89846  43.806  42.957   0.816
21506W        W89847  43.799  26.649   1.914
21507W        W89848  43.988   7.253   4.831
21508W        W89849  32.632  31.060  13.794
21509W        W89850   5.222  43.836   0.754
21510W        W89851   7.289  30.453  14.370
21511W        W89852  10.745  43.019   0.787
21512W        W89853  44.782  31.607   0.846
21513W        W89854  19.649  27.672  10.623
21514W        W89855  24.717  35.076   0.962
21515W        W89856   1.378  12.286  10.544
21516W        W89857  16.316  29.148  11.078
21517W        W89858  25.475  34.081  14.854
21518W        W89859  25.095  19.159   5.307
21519W        W89860  11.356   7.707  14.301
21520W        W89861  18.680  19.262  11.413
21521W        W89862  10.652  28.468  14.807
21522W        W89863  21.199  19.067   2.715
21523W        W89864  29.641   5.777   0.910
21524W        W89865  12.283  34.964  12.410
21525W        W89866  13.674  16.811  11.013
21526W        W89867  42.822  11.172  12.566
21527W        W89868  37.364  30.125  11.499
21528W        W89869   2.374  20.628   0.836
21529W        W89870  27.589  11.202   3.787
21530W        W89871  38.877  31.599   2.398
21531W        W89872  32.600  38.367  14.474
21532W        W89873  28.005  43.951  10.473
21533W        W89874  22.176  15.715  14.322
21534W        W89875  12.848   6.913  12.923
21535W        W89876  12.144  31.023   1.858
21536W        W89877  15.638  12.339   3.316
21537W        W89878   7.764  39.991   0.738
21538W        W89879  16.116  44.792   4.703
21539W        W89880  35.443  19.671  13.504
21540W        W89881   8.735  42.342   2.361
21541W        W89882   7.185  24.113   4.206
21542W        W89883  44.292  29.645   4.761
21543W        W89884  30.466   4.773   3.278
21544W        W89885   7.367  25.057  13.386
21545W        W89886  19.150   2.781   0.273
21546W        W89887  35.374  36.043   1.270
21547W        W89888  13.293  18.699   3.728
21548W        W89889  18.080  19.738  10.915
21549W        W89890  16.764   2.445  10.968
21550W        W89891  24.637   9.654   1.311
21551W        W89892  29.511  18.098   0.946
21552W        W89893   3.267  25.163  12.517
21553W        W89894  39.858  12.769   3.362
21554W        W89895   9.297  14.814  14.892
21555W        W89896  24.636  29.643  14.480
21556W        W89897  41.984  30.451   0.744
21557W        W89898  27.957  10.363   0.473
21558W        W89899  34.908  17.701   1.350
21559W        W89900  19.590  18.684   3.292
21560W        W89901  31.560  21.023   1.761
21561W        W89902   9.233   8.347  11.381
21562W        W89903  33.902  22.049  10.538
21563W        W89904  14.113  33.909  14.796
21564W        W89905  13.813   6.261  12.056
21565W        W89906   6.298   2.359   1.405
21566W        W89907  36.845  20.075   4.179
21567W        W89908   7.717  16.718  14.004
21568W        W89909  11.187   7.833  10.974
21569W        W89910  43.455  18.553  13.340
21570W        W89911  34.541  31.551  13.510
21571W        W89912  32.593  26.014  11.991
21572W        W89913  13.779  13.778   4.220
21573W        W89914  30.027  14.632  12.885
21574W        W89915  13.784  26.041  13.909
21575W        W89916  34.882  22.668   3.190
21576W        W89917  39.494  35.496   3.641
21577W        W89918  33.012   5.268  12.931
21578W        W89919  36.004  13.823  14.451
21579W        W89920  40.918  21.147  13.847
21580W        W89921  40.937  38.511  11.952
21581W        W89922  41.526  41.427   0.800
21582W        W89923   3.891   3.933   1.844
21583W        W89924  44.913  42.356   2.822
21584W        W89925  35.492  38.384  14.440
21585W        W89926  31.146   2.955   3.220
21586W        W89927  44.974  41.343   1.361
21587W        W89928  36.028   6.184   3.648
21588W        W89929   7.689  15.615   4.769
21589W        W89930  35.081   5.362   3.652
21590W        W89931   6.328   9.767  12.052
21591W        W89932  36.897   3.441   4.344
21592W        W89933  29.163  27.553  11.568
21593W        W89934  11.661  16.639  13.424
21594W        W89935   2.875   6.210   4.290
21595W        W89936  28.521  17.670  11.454
21596W        W89937  30.591  13.647   1.271
21597W        W89938  31.594  38.419  12.571
21598W        W89939  44.754  14.118   5.246
21599W        W89940  39.402  13.614  11.989
21600W        W89941  12.615  20.759  13.884
21601W        W89942  13.821   8.405  13.021
21602W        W89943  17.769  23.564   0.803
21603W        W89944  28.012  33.411  11.923
21604W        W89945  11.261  15.627  10.473
21605W        W89946  40.310  14.712  10.920
21606W        W89947  33.594  30.120   1.731
21607W        W89948  29.581  10.806   3.798
21608W        W89949  26.087   9.887   1.783
21609W        W89950   7.686   0.410  11.909
21610W        W89951  39.335  43.785  11.006
21611W        W89952   1.761  30.624  11.408
21612W        W89953   1.914  35.046  13.024
21613W        W89954   4.326  24.154   2.869
21614W        W89955  18.749  28.019  13.815
21615W        W89956  16.628  23.690   5.733
21616W        W89957   5.864  27.180   4.342
21617W        W89958  41.823   8.336  14.789
21618W        W89959  16.308  44.386  13.346
21619W        W89960  37.831   1.413  14.514
21620W        W89961   8.317  33.499   3.172
21621W        W89962  40.990  17.274  14.416
21622W        W89963  41.352   0.906   2.681
21623W        W89964  33.457   5.897  10.417
21624W        W89965  22.153  18.599  13.803
21625W        W89966  17.569   8.244   4.339
21626W        W89967  39.398  29.136   3.777
21627W        W89968  12.270  37.563   5.290
21628W        W89969  26.981  44.375   3.676
21629W        W89970  42.447  37.556  11.921
21630W        W89971  36.489  26.685   1.867
21631W        W89972  19.218  40.835  13.023
21632W        W89973   3.910  41.973   2.248
21633W        W89974  44.791  11.798  10.500
21634W        W89975  28.971  17.086   0.405
21635W        W89976   6.798  11.220   1.701
21636W        W89977  14.263  33.938   2.417
21637W        W89978  13.108  44.756   0.940
21638W        W89979  22.214  25.104  10.573
21639W        W89980  22.235   6.386  14.876
21640W        W89981  11.191  28.973  12.924
21641W        W89982  22.133  30.075  11.492
21642W        W89983   7.368  39.503  13.353
21643W        W89984  11.697  15.783  14.428
21644W        W89985  32.127   3.440  13.354
21645W        W89986  31.136  29.003   1.868
21646W        W89987   0.928  27.571  10.538
21647W        W89988  15.657  41.467   3.166
21648W        W89989   6.916  41.333  13.809
21649W        W89990  32.488  27.159   2.775
21650W        W89991  35.368   5.872  12.849
21651W        W89992   4.249  27.625  14.993
21652W        W89993  44.386  42.402   2.275
21653W        W89994  20.227  18.702  14.793
21654W        W89995  41.923   4.329   4.731
21655W        W89996  32.126  39.921  12.931
21656W        W89997  22.712   5.914  13.799
21657W        W89998   6.700  11.324   4.728
21658W        W89999  10.316   1.355   0.854
21659W        W90000  44.423  16.683   0.388
21660W        W90001  17.160  11.790   3.154
21661W        W90002  23.025  35.101   1.842
21662W        W90003  42.355  40.857   3.863
21663W        W90004  39.493  10.161   4.699
21664W        W90005  42.778  42.400   4.678
21665W        W90006  35.439  31.073   1.701
21666W        W90007  39.541   3.386   1.931
21667W        W90008  19.201  17.282  12.043
21668W        W90009  25.986  35.887  14.830
21669W        W90010  44.443  18.267  13.996
21670W        W90011  36.592  23.534  11.888
21671W        W90012  37.085  39.510   2.820
21672W        W90013  23.083  32.127   2.719
21673W        W90014  18.612  23.012   5.261
21674W        W90015  40.872  44.394   0.810
21675W        W90016  33.530   7.266  10.426
21676W        W90017  19.560  19.223   0.748
21677W        W90018  33.969  44.451  13.416
21678W        W90019  39.962  30.963   0.760
21679W        W90020  14.758  40.477   0.895
21680W        W90021  30.530  40.008   1.821
21681W        W90022   7.813  28.966  10.901
21682W        W90023  12.704  43.832  13.368
21683W        W90024   4.771  18.633   4.128
21684W        W90025  24.639  33.894  11.007
21685W        W90026  28.143   7.353   2.391
21686W        W90027  19.733  23.522   1.360
21687W        W90028  21.707   8.333   1.416
21688W        W90029  10.239  22.098   1.423
21689W        W90030  24.985   7.891   0.463
21690W        W90031   4.392  12.692   3.793
21691W        W90032  26.539  10.248   4.638
21692W        W90033  19.215   1.397   1.816
21693W        W90034  25.706   3.459   1.250
21694W        W90035  26.037  31.032  14.883
21695W        W90036  42.928   3.419   3.841
21696W        W90037   9.654  23.076   2.383
21697W        W90038  28.598  21.649  10.949
21698W        W90039   8.298  40.883   1.373
21699W        W90040  12.681  37.899   3.701
21700W        W90041   3.915  39.990   2.778
21701W        W90042  33.536  30.038   0.463
21702W        W90043  34.549  33.437  11.397
21703W        W90044  19.734  21.081   0.411
21704W        W90045  22.568  22.090  14.987
21705W        W90046  32.395  31.642   1.426
21706W        W90047  13.205  21.259  12.038
21707W        W90048  18.138  10.827   1.300
21708W        W90049  19.234  39.501   4.278
21709W        W90050  43.303  12.710  12.898
21710W        W90051  10.861  37.559   5.229
21711W        W90052  15.209  26.677  10.121
21712W        W90053  40.804  13.249   2.269
21713W        W90054  10.825  38.432   4.349
21714W        W90055  10.266   3.320   3.357
21715W        W90056  26.061  17.730   1.885
21716W        W90057  26.204   9.347   1.799
21717W        W90058  28.131   4.329   2.384
21718W        W90059   2.232   8.376  10.639
21719W        W90060  23.218   1.436   3.784
21720W        W90061  44.972  25.489  12.012
21721W        W90062  25.984   4.703   0.480
21722W        W90063  39.370  30.630  13.993
21723W        W90064  43.434  33.993   4.743
21724W        W90065   4.863  15.782   2.334
21725W        W90066   5.422  29.638  13.833
21726W        W90067  20.173  41.437  10.558
21727W        W90068  12.330   0.273  12.542
21728W        W90069  25.585  26.190   5.753
21729W        W90070  19.080  11.131  13.945
21730W        W90071  36.383  20.077  14.992
21731W        W90072  27.948  22.006   4.697
21732W        W90073  40.922  17.723  12.367
21733W        W90074  26.476  29.610   0.827
21734W        W90075   4.822  41.928  12.474
21735W        W90076  43.920  34.906  14.281
21736W        W90077   9.394   1.361  14.854
21737W        W90078  18.125  34.450  12.901
21738W        W90079  27.988  44.436  10.094
21739W        W90080  25.107  28.440  10.005
21740W        W90081  22.064   8.757  12.907
21741W        W90082  17.242  43.825   4.621
21742W        W90083  10.817   9.700  10.135
21743W        W90084  22.122  26.523   2.837
21744W        W90085  22.230  39.023   1.818
21745W        W90086  38.342  42.929   1.439
21746W        W90087  18.289  36.445   1.319
21747W        W90088  18.619  18.120  14.797
21748W        W90089   5.360   2.751   0.941
21749W        W90090  21.120   1.483  11.947
21750W        W90091  35.518  20.170  10.468
21751W        W90092  23.985   1.342  14.440
21752W        W90093  33.128   9.189  11.531
21753W        W90094  14.155  37.895   4.239
21754W        W90095   6.370   1.843   4.721
21755W        W90096  34.437  25.567   0.255
21756W        W90097   2.336   5.729   4.813
21757W        W90098   1.267  13.676   0.871
21758W        W90099  27.039  14.190   4.350
21759W        W90100   1.432  36.544  11.547
21760W        W90101  14.630   5.283  11.881
21761W        W90102  37.546  22.603  11.095
21762W        W90103  16.627  28.159   4.655
21763W        W90104  26.516  22.104   3.376
21764W        W90105  31.961   7.333   3.822
21765W        W90106   0.964  29.167  14.311
21766W        W90107   6.822   7.725   0.870
21767W        W90108  25.967   8.761   3.234
21768W        W90109  36.993  27.964  12.507
21769W        W90110  25.008  34.380   2.284
21770W        W90111   8.262  13.670  11.128
21771W        W90112  29.597   3.303  11.097
21772W        W90113   7.851   6.768  10.998
21773W        W90114  34.471  29.535  14.354
21774W        W90115  13.644  33.449  12.954
21775W        W90116  31.631   5.895   4.344
21776W        W90117   2.802   2.731   0.268
21777W        W90118  29.648  31.411   2.261
21778W        W90119  32.962  27.960   0.830
21779W        W90120  33.435  23.728  14.006
21780W        W90121  37.975  38.504   1.363
21781W        W90122  11.193  42.371   0.344
21782W        W90123  26.114   9.160   2.755
21783W        W90124  27.650  17.302   2.812
21784W        W90125  19.100   1.861  13.506
21785W        W90126  30.432  31.415  11.083
21786W        W90127  29.164  12.227   3.328
21787W        W90128  14.207  38.055   9.518
21788W        W90129  19.281  38.066  13.475
21789W        W90130  18.636  33.426  14.849
21790W        W90131   4.816   7.817   2.323
21791W        W90132  30.496  29.448  12.932
21792W        W90133  30.056  43.774   0.456
21793W        W90134  23.533   0.373  14.497
21794W        W90135  44.305  22.664   3.653
21795W        W90136   8.751  13.673   0.909
21796W        W90137  32.601  23.068  13.526
21797W        W90138  30.550  39.891  13.813
21798W        W90139  21.712  17.665   1.332
21799W        W90140  24.546  28.034   1.255
21800W        W90141  41.367  36.992   3.329
21801W        W90142  33.959  41.462   4.821
21802W        W90143   2.721  39.468   2.866
21803W        W90144   1.358   2.938   4.307
21804W        W90145  22.249   4.229  12.873
21805W        W90146  31.588  22.093   3.716
21806W        W90147  12.703  11.263  12.523
21807W        W90148  16.794  29.604   4.760
21808W        W90149  38.492  11.765   1.863
21809W        W90150  32.928  28.075  11.374
21810W        W90151  27.645   8.881  12.077
21811W        W90152  37.348  24.701  13.308
21812W        W90153   8.841  29.522   1.932
21813W        W90154  40.506  25.099  10.135
21814W        W90155  10.292  37.410   5.094
21815W        W90156  21.021  35.440  14.890
21816W        W90157  38.942  35.383   0.299
21817W        W90158  29.026  25.560   2.871
21818W        W90159  32.540   4.750  11.069
21819W        W90160  25.666  29.016   1.430
21820W        W90161  25.201  10.658  11.425
21821W        W90162   2.963  34.445   4.749
21822W        W90163  26.601  27.996  10.416
21823W        W90164  44.268  31.461  12.957
21824W        W90165  13.810   8.279   1.286
21825W        W90166   9.681   4.850   2.853
21826W        W90167  35.503  32.958   2.277
21827W        W90168  36.841   6.184  11.376
21828W        W90169  11.168  41.883   4.610
21829W        W90170  16.725  41.869  13.455
21830W        W90171  14.264   9.338   3.353
21831W        W90172  25.099  40.883  13.822
21832W        W90173  31.144  24.178   2.215
21833W        W90174  37.372  30.656   1.781
21834W        W90175  11.663  27.057  12.851
21835W        W90176  14.225  27.457  13.865
21836W        W90177  33.093   6.422   3.636
21837W        W90178   8.804  12.632  12.879
21838W        W90179  29.934  44.863   2.346
21839W        W90180  30.130  36.372   3.852
21840W        W90181   2.357  38.976   5.283
21841W        W90182  10.157  41.535  13.817
21842W        W90183  20.223  32.446  14.802
21843W        W90184  19.042   7.670   0.468
21844W        W90185  12.822   3.941   0.302
21845W        W90186  13.694  17.584  14.901
21846W        W90187  11.836  35.595  11.386
21847W        W90188   4.400  11.307  12.400
21848W        W90189  34.401  23.599  12.848
21849W        W90190   7.231  24.101  14.895
21850W        W90191  44.889  13.813  13.402
21851W        W90192  38.341  21.645   2.209
21852W        W90193  36.560  22.621  14.323
21853W        W90194  18.287  26.205  10.470
21854W        W90195   4.837  40.824   1.806
21855W        W90196   4.302   0.833   0.408
21856W        W90197  17.274  44.390  10.995
21857W        W90198  20.532  16.698   2.689
21858W        W90199  27.166  17.688   2.768
21859W        W90200  26.131  30.104  12.037
21860W        W90201   5.277   5.728  14.759
21861W        W90202  41.298   2.793   0.346
21862W        W90203   4.922  18.078  13.387
21863W        W90204  26.987  43.966   2.293
21864W        W90205  39.856  21.705   1.799
21865W        W90206  22.062  43.945   4.746
21866W        W90207  14.738   0.269   1.340
21867W        W90208  18.276  13.730  13.876
21868W        W90209  44.972   9.888  10.972
21869W        W90210  12.784  36.098  12.854
21870W        W90211  40.008  39.866   2.306
21871W        W90212  21.043  25.193  14.876
21872W        W90213  20.523   0.943   3.756
21873W        W90214  19.773  23.100   2.247
21874W        W90215   4.302  20.623   0.402
21875W        W90216  43.405  28.934   2.286
21876W        W90217  37.486   6.206   4.247
21877W        W90218  26.167  43.846  12.827
21878W        W90219  32.122  38.955  11.053
21879W        W90220   1.760  44.362   4.627
21880W        W90221   4.894  11.164  11.065
21881W        W90222   8.669  27.054   3.337
21882W        W90223  35.495  22.149   4.643
21883W        W90224  27.577  41.373  14.836
21884W        W90225  24.039  28.981  12.357
21885W        W90226   3.954  31.621  13.942
21886W        W90227  41.351   3.360   5.146
21887W        W90228  10.794   6.850   0.863
21888W        W90229  39.027  27.056   2.350
21889W        W90230  32.108  19.166  10.902
21890W        W90231  28.134   2.387   9.923
21891W        W90232  37.431  43.911   1.291
21892W        W90233  43.350  40.455  13.836
21893W        W90234  28.143  44.276   1.414
21894W        W90235   6.880  12.713   1.793
21895W        W90236  25.665  28.436   0.749
21896W        W90237  38.476   4.283  14.393
21897W        W90238  30.152  28.969  13.481
21898W        W90239  43.315  33.389   2.837
21899W        W90240  15.785  39.485   0.352
21900W        W90241  10.769  35.077   1.719
21901W        W90242  38.990  43.385   0.461
21902W        W90243   2.342   2.778  14.404
21903W        W90244  24.623  11.703  13.043
21904W        W90245  20.657   0.420   2.382
21905W        W90246   7.246   2.892   2.295
21906W        W90247  13.807   2.784   0.481
21907W        W90248   2.868  41.912   2.382
21908W        W90249   5.329  39.043   3.720
21909W        W90250  15.802  23.126  14.398
21910W        W90251  38.346  26.165  12.835
21911W        W90252  29.602   6.760  13.965
21912W        W90253   7.693  16.136   0.339
21913W        W90254   5.873  41.908   1.781
21914W        W90255   3.274  15.791   0.841
21915W        W90256  44.272   3.797   4.719
21916W        W90257  33.593  31.135   2.190
21917W        W90258  10.640  13.171  13.982
21918W        W90259  25.201  18.094   1.267
21919W        W90260   5.347  15.159   4.249
21920W        W90261  24.662  18.050   0.387
21921W        W90262  31.092  13.704  14.890
21922W        W90263  30.535   0.492   2.180
21923W        W90264  37.352  44.305   1.921
21924W        W90265  32.553  40.903   1.222
21925W        W90266  35.600  31.577   1.846
21926W        W90267  44.982   5.303  13.966
21927W        W90268   4.760  40.029  10.994
21928W        W90269  24.677  32.896   1.856
21929W        W90270  21.687  39.392  12.498
21930W        W90271  18.765  26.467  13.933
21931W        W90272  32.445  37.429  13.864
21932W        W90273  11.264  23.114  10.438
21933W        W90274  34.586  13.234   2.343
21934W        W90275   6.707  42.327  14.406
21935W        W90276  17.600  21.624  12.883
21936W        W90277  25.188   0.417   4.668
21937W        W90278   5.341  12.162   3.837
21938W        W90279  41.968  13.153   2.320
21939W        W90280  15.124  40.338   1.696
21940W        W90281  13.611  17.749   2.260
21941W        W90282  42.022  30.974   2.837
21942W        W90283  36.587  44.303   0.862
21943W        W90284  39.429  38.522   2.251
21944W        W90285  22.229  21.730  14.984
21945W        W90286  26.188  21.251  11.455
21946W        W90287  27.198  44.379   1.715
21947W        W90288  33.067  38.519   4.739
21948W        W90289  17.708  34.085   1.320
21949W        W90290  39.464   0.492   0.407
21950W        W90291  21.137  16.703   0.964
21951W        W90292  33.989   0.273  12.425
21952W        W90293   1.864  18.156   2.834
21953W        W90294   1.904   8.754  14.870
21954W        W90295  29.449  35.435   2.808
21955W        W90296  25.686  35.067  10.577
21956W        W90297  28.048  18.287   0.342
21957W        W90298  43.904  36.568  14.786
21958W        W90299  13.683  14.164  12.845
21959W        W90300  14.229  29.653   4.351
21960W        W90301  10.346  32.602  13.440
21961W        W90302  44.800  18.662  10.637
21962W        W90303  30.057  37.023  11.553
21963W        W90304  33.517   3.246   0.432
21964W        W90305  12.613  17.744  11.877
21965W        W90306  42.965  29.049   2.341
21966W        W90307  34.377   7.870   2.217
21967W        W90308  14.291   4.784  11.898
21968W        W90309  24.528  40.450  11.882
21969W        W90310  26.621  24.599   2.702
21970W        W90311  38.555  38.990   3.156
21971W        W90312  44.969  12.780  13.965
21972W        W90313  41.489  32.117  14.381
21973W        W90314  12.723  19.217  10.501
21974W        W90315  32.572  24.997  13.359
21975W        W90316  24.546   9.754  12.965
21976W        W90317  34.953  36.592  13.513
21977W        W90318   3.393  37.875  12.495
21978W        W90319  12.282  44.978   3.751
21979W        W90320  13.311  23.547  10.156
21980W        W90321  12.124  10.143   5.567
21981W        W90322  13.197  13.323   1.439
21982W        W90323  25.138  37.987   5.299
21983W        W90324  15.754  12.841   2.297
21984W        W90325  37.363  41.903  14.389
21985W        W90326  27.472  23.123   3.861
21986W        W90327  24.513  16.726  12.416
21987W        W90328  20.150  36.517  12.005
21988W        W90329  32.117   4.227   1.858
21989W        W90330  44.338  11.852  12.827
21990W        W90331  41.505   7.723  11.930
21991W        W90332  36.348  38.059   3.655
21992W        W90333  17.304  37.939  14.345
21993W        W90334   2.402  33.430  11.040
21994W        W90335  27.458   7.789  12.952
21995W        W90336   8.243  15.202  11.049
21996W        W90337  13.665  39.313   3.786
21997W        W90338  39.537   6.328  11.935
21998W        W90339  26.486   7.887   3.370
21999W        W90340  41.898  16.195  10.614
22000W        W90341  32.421  43.777  14.392
22001W        W90342  36.438  44.982   0.868
22002W        W90343  40.954  33.055  13.842
22003W        W90344  28.966  43.427   2.818
22004W        W90345  43.280   2.343   4.156
22005W        W90346  33.562   5.275  14.480
22006W        W90347  18.607   4.229   0.900
22007W        W90348  15.261  35.101   1.788
22008W        W90349   1.863  40.494   3.721
22009W        W90350  19.744  43.913   1.846
22010W        W90351   9.884  43.851  12.021
22011W        W90352  39.400   1.363  12.476
22012W        W90353  15.650  44.931  10.597
22013W        W90354  13.771  21.169   0.835
22014W        W90355  43.493  16.596   4.144
22015W        W90356  21.600  14.611   4.162
22016W        W90357   6.716   6.909  13.490
22017W        W90358  42.282   2.896   1.724
22018W        W90359  28.133  36.992   0.759
22019W        W90360  10.194  11.829   2.663
22020W        W90361  14.198  39.976  14.515
22021W        W90362  23.094  43.344   4.819
22022W        W90363  36.422  16.109   4.633
22023W        W90364  33.127   4.233   3.225
22024W        W90365  29.493  25.047  10.099
22025W        W90366  37.441  42.825   0.393
22026W        W90367   1.732  41.438   0.327
22027W        W90368   9.183  22.569  10.130
22028W        W90369  14.646  23.577  11.478
22029W        W90370   6.845  44.468  14.895
22030W        W90371  42.500   4.391   1.325
22031W        W90372   9.258  26.470   2.868
22032W        W90373  28.022   6.743  11.934
22033W        W90374  24.109  21.606  11.519
22034W        W90375  31.039  25.472  10.620
22035W        W90376   6.694  14.296   4.194
22036W        W90377   8.894  29.134  13.335
22037W        W90378  12.284  23.632   4.158
22038W        W90379  22.147  37.578   3.255
22039W        W90380  10.170   5.431  13.419
22040W        W90381  34.084  44.890  14.433
22041W        W90382   4.793  35.440   1.788
22042W        W90383  29.486  25.467   1.414
22043W        W90384  39.872  14.636   1.235
22044W        W90385  41.317  17.122   2.262
22045W        W90386   0.435  19.110   3.723
22046W        W90387  40.370   9.698   1.435
22047W        W90388   5.240  19.170  13.485
22048W        W90389  31.904   9.201  11.013
22049W        W90390  28.618   7.735   0.285
22050W        W90391  33.056  26.190  11.942
22051W        W90392  20.628  17.702  12.997
22052W        W90393  34.543  42.829  10.575
22053W        W90394  10.680  31.631   1.306
22054W        W90395  32.037  16.252   0.301
22055W        W90396  18.653   2.228  12.497
22056W        W90397   6.721  13.294  13.345
22057W        W90398  23.652  12.187  10.930
22058W        W90399  19.654  40.023  12.942
22059W        W90400  44.975  20.535   1.695
22060W        W90401  35.598   1.354   4.227
22061W        W90402  38.429   1.974  11.537
22062W        W90403  12.141  43.946   4.126
22063W        W90404  40.862  12.632  11.385
22064W        W90405  42.014  19.739  12.984
22065W        W90406  29.647  35.578  12.544
22066W        W90407   0.463   9.233   4.809
22067W        W90408   9.364   9.831  13.813
22068W        W90409  24.590   8.376  14.863
22069W        W90410  42.846  12.770  14.507
22070W        W90411  26.996  18.743  13.473
22071W        W90412  14.665  22.141   4.149
22072W        W90413  35.374   4.425  13.464
22073W        W90414  41.810  35.429  11.577
22074W        W90415  19.717  13.225  11.015
22075W        W90416   3.217  31.126  13.903
22076W        W90417  41.363   2.417   0.400
22077W        W90418  38.331  22.721   2.901
22078W        W90419  23.658  21.068  13.362
22079W        W90420  38.443  30.053   0.445
22080W        W90421  12.212  10.249  12.833
22081W        W90422  20.227   2.793  10.994
22082W        W90423   3.919  21.243  10.590
22083W        W90424  24.552  24.144   4.250
22084W        W90425   7.833   9.314   0.469
22085W        W90426  10.709  31.983  11.377
22086W        W90427   5.777  27.641  11.055
22087W        W90428   3.780  42.832   0.293
22088W        W90429   2.962   2.743  13.406
22089W        W90430   1.817   5.799   2.791
22090W        W90431  32.603  32.564   3.649
22091W        W90432  11.622  30.639   4.794
22092W        W90433  24.602  16.575  13.380
22093W        W90434   0.924   2.774  10.583
22094W        W90435  43.436  30.986   3.651
22095W        W90436   8.330  11.323  14.878
22096W        W90437  13.810   0.810   0.293
22097W        W90438  37.438   0.784  12.358
22098W        W90439   0.792  37.959  13.027
22099W        W90440  20.140  33.435  12.855
22100W        W90441   0.914  22.692  14.312
22101W        W90442  27.072  25.133   4.353
22102W        W90443  42.963  40.487   4.347
22103W        W90444  23.100  16.135   0.339
22104W        W90445  33.015  10.150   2.378
22105W        W90446  19.585  44.794  12.851
22106W        W90447  29.650  20.701   2.722
22107W        W90448  29.461  14.144   1.235
22108W        W90449   5.709   7.219   2.388
22109W        W90450  41.359  27.077   2.895
22110W        W90451  18.056  30.452   3.303
22111W        W90452  34.400  16.808  12.436
22112W        W90453  25.564  15.648   4.152
22113W        W90454  27.460  31.488   0.294
22114W        W90455  34.608   1.838  13.513
22115W        W90456  14.807  22.225   4.685
22116W        W90457  23.641  15.308  12.972
22117W        W90458   7.881  16.791   4.712
22118W        W90459  31.899  12.717  11.548
22119W        W90460  38.855   2.883  12.345
22120W        W90461  40.982  21.166   1.725
22121W        W90462  23.053  14.206   0.824
22122W        W90463  27.028  23.066   3.704
22123W        W90464  39.410   4.294   2.763
22124W        W90465  21.717  12.705   1.282
22125W        W90466  42.417   8.878   3.808
22126W        W90467   5.791  34.550  10.537
22127W        W90468  40.328  43.317   2.704
22128W        W90469  10.657  37.891   4.278
22129W        W90470   7.743   5.866   1.907
22130W        W90471  33.433  23.042   1.240
22131W        W90472  11.331  27.979   2.759
22132W        W90473  15.579  15.596   3.231
22133W        W90474  30.435  24.496  12.983
22134W        W90475  20.632  37.411  11.042
22135W        W90476   6.285   2.831  14.917
22136W        W90477  37.068  11.649  11.890
22137W        W90478  15.718  33.536   4.171
22138W        W90479   3.715  26.504   1.871
22139W        W90480  30.066  26.570  11.470
22140W        W90481  44.816   3.428   4.313
22141W        W90482  31.908  19.247  13.846
22142W        W90483   6.827  21.721   4.793
22143W        W90484  30.430  16.574   3.749
22144W        W90485  30.016   1.483   2.190
22145W        W90486  42.346  11.222  12.491
22146W        W90487  26.112  25.564   2.259
22147W        W90488  38.954   7.272   1.449
22148W        W90489  39.514  43.877  10.443
22149W        W90490  15.711  27.632  10.495
22150W        W90491  41.312  14.298  11.390
22151W        W90492  20.150  17.181  12.087
22152W        W90493  40.029  31.543  11.558
22153W        W90494  22.240  17.728   0.781
22154W        W90495  14.172   7.882   3.759
22155W        W90496  28.008   9.771  14.420
22156W        W90497   5.332   6.792   2.208
22157W        W90498  15.647   8.344  10.996
22158W        W90499  10.284  15.626   2.681
22159W        W90500   0.349  22.733   0.825
22160W        W90501  14.283  40.862  12.523
22161W        W90502  37.059  41.422   2.859
22162W        W90503  41.325  32.054  12.020
22163W        W90504  10.281  39.054  10.609
22164W        W90505  15.208   0.358  14.002
22165W        W90506  10.709  38.562  14.311
22166W        W90507  32.015  31.618   1.241
22167W        W90508   3.926  31.951  10.088
22168W        W90509  24.038   8.244  11.371
22169W        W90510  32.950  13.758   4.760
22170W        W90511  18.670  23.693   0.274
22171W        W90512  35.455  16.571  14.997
22172W        W90513  23.183  16.140   0.812
22173W        W90514  35.476  33.428   3.827
22174W        W90515  19.673   5.311   0.772
22175W        W90516  11.865  19.232   0.453
22176W        W90517  36.866  39.353   0.323
22177W        W90518  41.502  31.142  11.529
22178W        W90519  36.562   3.898   4.298
22179W        W90520  13.731  18.062  14.432
22180W        W90521  29.504  13.190   0.467
22181W        W90522  39.028   0.285   2.713
22182W        W90523  34.054  41.816  14.949
22183W        W90524  20.731  41.821  11.517
22184W        W90525  40.896  28.548   4.617
22185W        W90526  22.137  31.906  14.809
22186W        W90527   6.761  40.538  13.795
22187W        W90528   1.258   8.668   3.818
22188W        W90529  19.578  37.485  11.920
22189W        W90530  30.591  11.194   1.366
22190W        W90531  20.151  16.632  12.504
22191W        W90532  23.176  20.708  14.778
22192W        W90533  40.897  33.121   2.211
22193W        W90534  16.655  12.796  11.439
22194W        W90535  30.155  41.036   2.342
22195W        W90536   3.731  10.653  14.516
22196W        W90537  30.121  42.993   2.372
22197W        W90538   5.369  20.757   0.834
22198W        W90539  12.812  42.406   3.334
22199W        W90540  36.500  17.669  13.956
22200W        W90541  26.144   8.888  13.906
22201W        W90542  25.635  18.158   4.217
22202W        W90543  16.221   3.922  10.604
22203W        W90544  36.491  30.420  11.116
22204W        W90545  13.243  27.585  12.827
22205W        W90546  12.168   6.867   2.271
22206W        W90547  25.089  15.730   4.266
22207W        W90548  33.592   3.769   0.838
22208W        W90549  27.181  12.836   0.934
22209W        W90550  33.010  31.901  10.570
22210W        W90551  34.376   3.730   1.360
22211W        W90552  30.462  11.627  14.960
22212W        W90553  20.581  44.841   2.828
22213W        W90554   9.271  26.064   1.714
22214W        W90555  17.621  17.786   3.754
22215W        W90556  43.829  15.144   4.337
22216W        W90557  26.524   7.246  12.062
22217W        W90558  34.453  14.660   2.875
22218W        W90559  22.070   5.302   0.384
22219W        W90560  24.163  39.891  13.884
22220W        W90561  13.151  29.959   4.799
22221W        W90562  14.769  42.334   1.763
22222W        W90563  17.800  25.995   1.715
22223W        W90564  18.667   6.802  14.884
22224W        W90565  31.105   6.328  13.927
22225W        W90566  41.883  10.870  12.541
22226W        W90567  37.550  41.348  12.374
22227W        W90568  15.327  17.259   4.122
22228W        W90569  28.078  29.097   3.233
22229W        W90570  32.959  14.684   4.785
22230W        W90571  11.776  18.705   3.284
22231W        W90572  11.169   5.388   3.700
22232W        W90573  22.569  27.144  13.945
22233W        W90574  34.069  28.079  12.054
22234W        W90575  42.407  22.168  11.579
22235W        W90576   7.860  44.882   2.328
22236W        W90577  12.642  44.440  12.575
22237W        W90578  30.047  39.502   4.285
22238W        W90579  29.482  11.331  10.922
22239W        W90580   7.691  32.962  11.405
22240W        W90581  30.005  19.738   0.369
22241W        W90582  23.989  27.150  12.444
22242W        W90583   2.366   6.273   3.342
22243W        W90584  22.608  12.266  11.548
22244W        W90585   1.913  41.445   3.209
22245W        W90586  41.029  14.161  11.994
22246W        W90587  16.122  14.218  13.353
22247W        W90588  12.737  13.265   4.685
22248W        W90589  42.490  15.261   1.833
22249W        W90590  41.953   5.792  14.309
22250W        W90591  41.373  19.677   1.857
22251W        W90592  22.073  33.922  13.308
22252W        W90593  13.612  38.499  13.945
22253W        W90594  36.425   3.292  12.991
22254W        W90595  39.393  24.616  13.804
22255W        W90596   7.382  23.491   4.271
22256W        W90597  34.408  11.218  13.023
22257W        W90598  40.468  38.025   1.261
22258W        W90599  40.531  35.896   3.860
22259W        W90600   3.811  38.012   0.251
22260W        W90601   2.442  16.075   9.982
22261W        W90602  10.740   4.842  12.514
22262W        W90603  14.330   6.346  10.497
22263W        W90604  31.536   5.256  14.834
22264W        W90605  24.221   1.807   2.388
22265W        W90606  21.197  33.482   4.163
22266W        W90607  10.689  16.812  11.487
22267W        W90608  18.159  38.900   0.851
22268W        W90609  21.109   9.389  10.557
22269W        W90610  23.511  13.669  13.990
22270W        W90611  15.700  26.959   4.728
22271W        W90612  20.741   5.428  10.942
22272W        W90613  20.696  38.020   2.411
22273W        W90614  22.501  10.660   4.279
22274W        W90615  34.938   3.750   2.328
22275W        W90616  12.258  10.172   9.439
22276W        W90617  13.835  38.015   4.291
22277W        W90618   1.299   3.325   1.899
22278W        W90619  17.189  33.563  11.127
22279W        W90620   6.741  33.533  10.481
22280W        W90621  33.076  36.534  11.855
22281W        W90622  26.993  32.019   1.309
22282W        W90623   1.899  16.073   0.949
22283W        W90624  23.662  26.115   1.851
22284W        W90625   9.663  39.827   3.236
22285W        W90626  42.329  24.152   4.310
22286W        W90627  34.901  19.228   1.929
22287W        W90628  22.116  37.371  12.842
22288W        W90629   2.402  34.594  11.123
22289W        W90630   4.414   7.313  13.052
22290W        W90631  42.281  34.371  13.793
22291W        W90632  24.559  15.717  12.881
22292W        W90633  14.151  15.765   2.225
22293W        W90634  36.472  21.586   2.276
22294W        W90635  35.863   7.848   1.414
22295W        W90636  30.608  24.057   0.941
22296W        W90637   3.440  13.286  10.493
22297W        W90638  13.279   9.885   1.895
22298W        W90639  15.221  12.335  10.985
22299W        W90640  34.895   2.965  14.848
22300W        W90641  43.006  38.544  10.916
22301W        W90642   9.154  34.041   2.263
22302W        W90643   8.261  31.955   1.850
22303W        W90644  44.429  24.213  10.518
22304W        W90645  39.059   3.864  14.024
22305W        W90646  14.684  37.509  11.896
22306W        W90647  40.325   2.420   1.300
22307W        W90648   6.762  27.451  13.410
22308W        W90649  10.662  13.282  12.016
22309W        W90650  44.861  14.771  12.460
22310W        W90651  11.797  15.635   0.265
22311W        W90652   3.941  21.685   1.229
22312W        W90653  37.401  22.061  13.537
22313W        W90654  35.517  18.219   0.475
22314W        W90655  29.975  43.460  10.608
22315W        W90656  18.678  40.992   4.339
22316W        W90657  43.270  38.892   4.658
22317W        W90658  21.602  13.348  14.334
22318W        W90659  25.609  23.021  10.602
22319W        W90660   4.782  38.515  12.516
22320W        W90661  35.900   6.384  10.588
22321W        W90662  13.341  40.307   3.736
22322W        W90663  13.290  28.670  14.804
22323W        W90664  21.581  36.919   4.610
22324W        W90665  30.982  30.558  10.085
22325W        W90666  23.027  30.610   1.737
22326W        W90667  10.771  23.227   0.818
22327W        W90668   0.961  31.541  10.483
22328W        W90669  42.899  19.566   2.790
22329W        W90670   3.795  18.787  13.817
22330W        W90671   6.724  40.988  14.786
22331W        W90672  23.165  36.421   2.380
22332W        W90673   2.300   6.181   0.846
22333W        W90674  37.833  38.500  13.899
22334W        W90675  38.976  22.726   1.423
22335W        W90676  27.674   1.483  12.049
22336W        W90677  23.659   1.857   1.906
22337W        W90678  29.644  38.831  11.577
22338W        W90679  13.774  13.152  10.497
22339W        W90680  10.801   8.694   1.380
22340W        W90681  21.089   2.252  12.079
22341W        W90682  33.042  16.698  14.275
22342W        W90683   2.360  43.831  10.620
22343W        W90684   8.857  17.169  13.875
22344W        W90685  38.335   4.336   2.400
22345W        W90686  25.219   6.390  12.467
22346W        W90687  26.548  22.637   1.768
22347W        W90688  19.069  36.476  13.036
22348W        W90689  39.482  30.566   0.333
22349W        W90690  44.433  26.038   2.800
22350W        W90691   0.260   4.422  13.972
22351W        W90692  21.514  27.454  13.949
22352W        W90693  19.565  17.083  12.416
22353W        W90694  17.194  25.702  12.008
22354W        W90695  31.963  40.825  11.535
22355W        W90696   1.904   4.347   1.842
22356W        W90697  25.067  14.660   2.411
22357W        W90698   6.859  24.515  12.443
22358W        W90699  17.737  16.813   3.831
22359W        W90700  21.112  32.560   0.876
22360W        W90701   5.381   5.395  10.453
22361W        W90702  41.506   4.776   5.282
22362W        W90703  10.375  21.189   4.834
22363W        W90704  22.250   8.668   2.302
22364W        W90705  42.379  10.705  14.894
22365W        W90706  22.615  24.108   2.705
22366W        W90707  39.481   3.219  12.906
22367W        W90708   2.937  24.516  14.434
22368W        W90709  39.430   4.448   4.815
22369W        W90710  42.802  11.655   4.645
22370W        W90711  27.084  23.697   2.815
22371W        W90712  35.534   9.809  14.482
22372W        W90713  26.997  13.650  10.994
22373W        W90714   6.882  28.453  12.568
22374W        W90715  42.835   4.777  12.375
22375W        W90716  33.019  11.650   2.415
22376W        W90717  19.666   4.264  11.581
22377W        W90718   6.696  21.721  10.474
22378W        W90719  30.014   7.893  10.476
22379W        W90720  42.367  36.919  11.459
22380W        W90721  40.020  17.208  14.346
22381W        W90722  25.636   0.450   2.284
22382W        W90723  19.708  29.104   2.824
22383W        W90724  23.063  15.801  10.115
22384W        W90725   9.668  23.191   1.709
22385W        W90726  40.835  30.478  13.427
22386W        W90727  39.845  41.481  12.567
22387W        W90728  43.514   4.864  11.979
22388W        W90729  32.456   8.656   3.803
22389W        W90730  14.705   6.733   4.123
22390W        W90731  10.218  42.357   3.290
22391W        W90732   1.789  43.858  12.416
22392W        W90733  26.518   9.278   1.699
22393W        W90734   1.880  19.662   9.504
22394W        W90735  13.812  28.136   0.472
22395W        W90736  41.477  39.064  10.560
22396W        W90737  25.523  10.800  14.388
22397W        W90738  10.850  36.951  14.498
22398W        W90739  41.989   8.714   5.134
22399W        W90740  34.064  40.002   3.227
22400W        W90741  22.682  27.118   2.403
22401W        W90742   7.674  40.335  11.102
22402W        W90743  18.589  19.121  13.868
22403W        W90744  14.146   4.912  10.548
22404W        W90745   9.364  11.785   4.690
22405W        W90746  22.053  38.443  11.554
22406W        W90747  42.334  38.035   1.741
22407W        W90748  18.148  25.484  11.071
22408W        W90749  20.526  10.634  11.572
22409W        W90750  21.210  33.414  12.029
22410W        W90751  21.538  32.485   4.343
22411W        W90752  39.017  18.140  11.589
22412W        W90753  16.612  11.313  14.438
22413W        W90754  34.972   1.279  12.474
22414W        W90755  43.801  15.724   1.818
22415W        W90756   6.383  16.179  14.451
22416W        W90757  15.311  23.009  12.057
22417W        W90758  31.007  36.020   0.348
22418W        W90759  20.714   5.907   1.257
22419W        W90760  16.764  12.698  12.079
22420W        W90761   2.779  32.954   4.347
22421W        W90762  23.675   4.340  14.327
22422W        W90763  41.846  39.871  11.600
22423W        W90764  39.023  31.641   4.123
22424W        W90765  44.291  40.459   4.161
22425W        W90766   1.819   2.753   0.962
22426W        W90767  21.166   5.438   0.379
22427W        W90768  18.182   5.723  12.960
22428W        W90769  23.156  27.559  11.960
22429W        W90770  12.752  37.939   0.466
22430W        W90771  26.110  15.710   3.754
22431W        W90772   6.334  43.483  12.898
22432W        W90773  13.224  41.533  11.037
22433W        W90774  19.107  32.007   2.764
22434W        W90775   3.301  35.063   2.809
22435W        W90776  39.468  40.455   2.704
22436W        W90777  31.081  44.831  12.913
22437W        W90778  32.143   6.419   5.174
22438W        W90779  40.820  23.169  14.957
22439W        W90780  41.364  37.914  10.592
22440W        W90781  30.003   4.220   4.729
22441W        W90782  19.048   0.858  14.329
22442W        W90783  33.876  39.971   4.283
22443W        W90784  15.794  12.177  11.563
22444W        W90785  20.598  32.026  12.434
22445W        W90786  22.572   5.340   0.806
22446W        W90787   4.930  38.541  13.985
22447W        W90788  38.334   7.212  10.496
22448W        W90789  34.978  12.672   1.783
22449W        W90790  26.538  32.904   2.270
22450W        W90791  30.442  38.352  13.921
22451W        W90792  15.593  27.077  14.837
22452W        W90793  15.262  20.219  14.426
22453W        W90794  31.927   8.206  11.388
22454W        W90795  16.647  18.212   4.686
22455W        W90796  16.176  11.745   3.859
22456W        W90797  36.879  13.149   1.758
22457W        W90798  16.075   9.817   1.270
22458W        W90799  42.371  12.656   3.300
22459W        W90800   4.258  35.931  11.042
22460W        W90801  32.054   9.775   1.288
22461W        W90802  12.267  34.898   2.680
22462W        W90803   5.783   6.193   1.741
22463W        W90804  18.199  18.601  10.509
22464W        W90805  25.520  14.670  14.431
22465W        W90806  39.008  13.256  11.536
22466W        W90807  23.135  43.292   2.663
22467W        W90808  27.054  38.980  13.315
22468W        W90809  35.033  41.949  14.029
22469W        W90810  13.319   1.960   0.753
22470W        W90811   7.405  40.392  11.405
22471W        W90812  20.559   3.221  14.468
22472W        W90813  28.074  20.704   3.229
22473W        W90814  34.010  36.010   4.266
22474W        W90815  29.470  31.139   1.893
22475W        W90816   8.239   8.403  14.966
22476W        W90817  35.920  26.498  13.499
22477W        W90818   3.932  25.549  13.971
22478W        W90819  13.257  21.222  12.379
22479W        W90820  26.187  29.665   0.253
22480W        W90821  35.930  39.997   4.212
22481W        W90822   5.247   4.883   3.244
22482W        W90823  29.541   5.311   0.276
22483W        W90824   8.367   3.401   1.423
22484W        W90825  36.041  10.163   1.753
22485W        W90826  31.594   7.318  10.953
22486W        W90827  38.556  16.281   4.834
22487W        W90828  42.955   8.182   4.835
22488W        W90829  27.151  23.176  12.093
22489W        W90830   8.877   3.433  10.591
22490W        W90831  37.954  38.448   3.752
22491W        W90832  33.127  31.904   4.650
22492W        W90833  24.503  39.902   4.639
22493W        W90834  13.175  37.988   4.171
22494W        W90835  17.629   8.221  11.013
22495W        W90836  15.623  36.878  12.527
22496W        W90837  23.664  25.583   2.738
22497W        W90838  31.980  25.106  13.409
22498W        W90839  22.628  28.435   4.780
22499W        W90840   1.826   3.946  11.028
22500W        W90841  21.707  32.885  13.312
22501W        W90842  14.213  11.650  14.321
22502W        W90843  38.892  25.678  14.878
22503W        W90844  18.071  21.531   3.699
22504W        W90845  20.680  39.898   4.621
22505W        W90846  42.001   6.722  13.365
22506W        W90847   8.878  28.007   2.878
22507W        W90848  12.820  22.034  13.322
22508W        W90849  29.987  39.958  12.451
22509W        W90850  42.982  36.513  14.417
22510W        W90851  21.062  43.421  12.904
22511W        W90852  41.510  26.193  14.791
22512W        W90853  34.045   5.289  14.007
22513W        W90854  13.105   2.299   3.182
22514W        W90855  28.548  11.755  12.380
22515W        W90856  42.509  32.607   2.871
22516W        W90857  11.368   9.395  14.420
22517W        W90858  32.077  15.656   1.912
22518W        W90859  12.822   5.215   3.697
22519W        W90860  37.990   7.321  12.824
22520W        W90861  44.852  10.705  14.283
22521W        W90862   4.353   4.428  14.484
22522W        W90863   9.308   0.912   4.147
22523W        W90864  28.066  36.940  13.512
22524W        W90865  31.441  41.795   3.660
22525W        W90866  40.417  16.282   3.800
22526W        W90867   8.840   2.926   2.844
22527W        W90868   7.352  41.838  10.581
22528W        W90869  18.744  28.077   3.349
22529W        W90870  42.373  40.411   2.365
22530W        W90871  18.070  36.541  14.000
22531W        W90872  23.047  31.443   0.895
22532W        W90873  33.594  40.452   1.772
22533W        W90874  33.421  30.136   2.779
22534W        W90875   4.864  27.040   0.913
22535W        W90876   2.929  38.448   0.897
22536W        W90877  16.072  41.369   1.840
22537W        W90878  31.636  13.754   0.858
22538W        W90879  12.764  31.091  10.629
22539W        W90880  16.568   6.183  13.349
22540W        W90881  27.629   2.884  11.497
22541W        W90882   9.195  18.764  12.006
22542W        W90883  41.867   5.264   1.352
22543W        W90884  41.838  20.559  10.506
22544W        W90885   1.741  18.205   3.259
22545W        W90886  44.921  30.603   3.361
22546W        W90887  14.606  21.204  13.858
22547W        W90888   3.278  38.879  14.992
22548W        W90889  40.367   7.805  10.463
22549W        W90890  43.927  31.123  14.495
22550W        W90891  21.704  16.763  13.868
22551W        W90892  37.907  18.678   1.444
22552W        W90893  36.572  23.036  11.501
22553W        W90894  14.818   4.281  10.603
22554W        W90895  24.554  14.325   0.283
22555W        W90896  23.669  10.661   1.447
22556W        W90897  38.571  28.669  13.857
22557W        W90898  18.763  22.158  10.473
22558W        W90899  18.065  31.117   1.298
22559W        W90900  38.944  21.225   4.759
22560W        W90901   5.818   4.876  11.016
22561W        W90902   6.394  39.914   1.879
22562W        W90903  10.361  29.496   2.744
22563W        W90904  26.482  18.664   3.186
22564W        W90905  23.593  22.125  14.000
22565W        W90906   3.228  32.890   4.775
22566W        W90907  35.004  35.048  12.828
22567W        W90908  11.266  34.505  10.535
22568W        W90909  19.118   9.280   2.225
22569W        W90910  18.066  16.609  12.501
22570W        W90911   2.838  42.484  14.289
22571W        W90912  32.450  43.975  11.863
22572W        W90913  29.587  25.196  13.514
22573W        W90914  18.110  29.039  11.485
22574W        W90915   9.241   5.353   1.886
22575W        W90916  34.529  25.111  12.823
22576W        W90917  15.246  10.696  12.056
22577W        W90918  38.995  34.943   2.846
22578W        W90919  38.404  31.502  13.517
22579W        W90920  11.783   2.321   3.288
22580W        W90921  17.288  38.349   3.370
22581W        W90922  41.822  33.385   3.240
22582W        W90923  28.474  39.455  12.881
22583W        W90924  23.170  37.436  10.579
22584W        W90925  30.444   4.903  13.012
22585W        W90926  44.396   0.751   0.455
22586W        W90927  27.985  30.524  14.283
22587W        W90928  44.369  42.464   0.463
22588W        W90929   7.715   2.927  14.359
22589W        W90930  38.429   7.250   1.869
22590W        W90931  27.538  31.622  10.468
22591W        W90932  11.778   2.797  14.444
22592W        W90933  23.228   4.370   0.808
22593W        W90934  29.541   0.784   3.227
22594W        W90935  24.061  17.624  11.891
22595W        W90936  25.158  42.341  12.940
22596W        W90937  36.514  17.243   2.299
22597W        W90938  32.506   9.198   1.871
22598W        W90939   0.248  23.689   0.431
22599W        W90940   8.683   7.393   3.863
22600W        W90941  33.550   9.757   2.229
22601W        W90942  11.764  29.559   4.673
22602W        W90943  12.738   7.784   1.273
22603W        W90944  38.959  35.418   4.333
22604W        W90945  37.902  34.392   2.779
22605W        W90946  37.550  42.826  13.797
22606W        W90947  42.942   0.773   4.686
22607W        W90948  21.671   3.375  11.025
22608W        W90949   9.675  41.965   0.941
22609W        W90950  27.986   8.204   2.786
22610W        W90951  11.687  21.617   1.795
22611W        W90952  20.571   9.700   4.196
22612W        W90953  39.522  21.588  12.878
22613W        W90954  28.125  21.644  13.028
22614W        W90955  15.189  19.062   1.859
22615W        W90956  16.595  42.471  13.906
22616W        W90957  27.067   2.889  10.947
22617W        W90958   9.871  36.869   1.886
22618W        W90959  32.506  36.407  10.948
22619W        W90960  34.033   8.216   3.821
22620W        W90961  39.996  12.253   3.208
22621W        W90962   8.812   1.278   3.342
22622W        W90963  39.918  35.868   0.787
22623W        W90964   3.831  37.916  13.908
22624W        W90965  28.529  11.833   0.427
22625W        W90966  16.812   5.412  12.897
22626W        W90967  27.642  23.507   3.775
22627W        W90968  39.503  20.677   3.737
22628W        W90969  43.356  28.004  10.543
22629W        W90970  13.144  41.449  10.566
22630W        W90971  28.515   3.447   2.818
22631W        W90972   8.180  20.570   4.781
22632W        W90973  31.052  22.600  10.464
22633W        W90974  23.126  24.026  12.047
22634W        W90975  19.685  41.897  10.608
22635W        W90976  11.128   0.364   4.333
22636W        W90977  44.297   4.270  12.971
22637W        W90978  27.967  43.316   2.714
22638W        W90979   7.273  25.604  12.463
22639W        W90980   9.751  12.324  13.795
22640W        W90981  27.114  25.196   1.229
22641W        W90982  12.164  34.882  10.526
22642W        W90983   3.902  30.651   1.405
22643W        W90984  44.999  40.505  11.559
22644W        W90985  22.528   9.886   1.849
22645W        W90986  16.132   4.748  10.488
22646W        W90987   1.266  31.923   1.245
22647W        W90988  30.619  26.678  13.414
22648W        W90989  22.613  33.970  10.024
22649W        W90990  34.952  26.620   5.225
22650W        W90991  10.749  38.525  13.884
22651W        W90992  32.615  37.543   3.816
22652W        W90993  13.270  29.455   2.379
22653W        W90994   4.361  31.483   1.762
22654W        W90995   3.229  14.634  14.010
22655W        W90996  21.662  16.768   1.922
22656W        W90997  10.682  24.975  10.583
22657W        W90998  29.968  40.915  11.378
22658W        W90999  31.099  37.841  14.850
22659W        W91000  30.143   1.761  12.578
22660W        W91001  44.957  27.992   2.724
22661W        W91002   9.233  12.360   2.699
22662W        W91003  33.535  11.718   0.380
22663W        W91004   3.816  43.969   1.934
22664W        W91005  22.623  42.816  10.466
22665W        W91006  24.029  40.506   0.763
22666W        W91007  39.316  10.795  11.894
22667W        W91008   4.370  44.794   3.740
22668W        W91009  11.170   9.878  10.501
22669W        W91010  11.192  28.112   0.890
22670W        W91011  36.443  22.050  12.015
22671W        W91012  41.912  23.591   4.309
22672W        W91013  35.454  24.654   2.398
22673W        W91014   5.290  32.490  11.006
22674W        W91015  21.200   0.365  14.953
22675W        W91016  24.626  42.015  11.594
22676W        W91017  39.424  15.755  13.455
22677W        W91018  37.923   5.793   1.700
22678W        W91019  42.439  29.445   4.645
22679W        W91020  31.563  12.820  13.410
22680W        W91021  12.243  34.093  12.556
22681W        W91022  13.656  17.248  14.937
22682W        W91023  40.493  22.147  14.407
22683W        W91024  11.714  22.675   2.243
22684W        W91025  29.998  41.384  14.960
22685W        W91026  33.620  38.500   1.768
22686W        W91027  17.173   0.747   1.353
22687W        W91028  35.062  13.772   4.642
22688W        W91029   8.229  11.274  14.385
22689W        W91030   8.896  20.159  11.466
22690W        W91031   4.327  26.505  13.416
22691W        W91032  13.799  39.417   3.206
22692W        W91033  22.730  15.291   1.368
22693W        W91034  34.422  26.632   3.214
22694W        W91035  35.909  38.364   1.841
22695W        W91036  35.865   8.760  13.534
22696W        W91037  11.806   0.374   3.853
22697W        W91038  44.936  36.960   3.319
22698W        W91039  31.562  10.279   1.276
22699W        W91040   5.363  13.306   2.390
22700W        W91041  14.805  25.200   1.855
22701W        W91042  41.042  34.900   3.230
22702W        W91043  16.135  20.700  12.574
22703W        W91044   2.336  41.902  14.025
22704W        W91045   9.844  42.375   1.931
22705W        W91046   0.361  15.130   2.178
22706W        W91047  18.779  29.167   2.663
22707W        W91048  39.559   0.879  14.848
22708W        W91049  20.539  28.997   2.789
22709W        W91050  33.460   3.383  14.834
22710W        W91051  44.293  10.841   4.284
22711W        W91052  38.418  13.231   1.738
22712W        W91053  17.282  21.709  12.915
22713W        W91054  44.982  24.157   4.700
22714W        W91055   4.310  19.048   3.173
22715W        W91056  21.726   2.274  12.345
22716W        W91057  23.532  16.642   4.193
22717W        W91058   1.266   9.332   4.294
22718W        W91059  28.153   9.696   9.972
22719W        W91060   8.769  24.055   2.831
22720W        W91061  34.449   0.395   3.721
22721W        W91062  22.191  17.608  10.437
22722W        W91063  22.217  15.243  14.290
22723W        W91064  42.355  35.060  14.412
22724W        W91065  23.146  35.529  11.420
22725W        W91066  40.899  37.051   4.172
22726W        W91067  21.100  38.532   3.311
22727W        W91068   9.302  27.156  14.410
22728W        W91069   2.323  20.760   3.252
22729W        W91070  28.459  12.669  14.390
22730W        W91071   3.348  20.045  10.444
22731W        W91072  30.969  11.644   1.265
22732W        W91073  14.727  17.131   4.728
22733W        W91074  39.852   0.402   1.826
22734W        W91075  42.779  41.391   2.801
22735W        W91076  36.506   3.740  10.457
22736W        W91077  43.840  32.131  14.865
22737W        W91078   7.403  18.099   4.650
22738W        W91079  35.970  27.089  11.477
22739W        W91080  23.073   5.784  12.539
22740W        W91081  44.454  35.574  13.916
22741W        W91082  32.456   5.856  14.950
22742W        W91083  36.058  11.321  14.905
22743W        W91084   9.166  15.632  13.040
22744W        W91085  23.058   1.454   0.906
22745W        W91086   2.445  26.539  12.002
22746W        W91087  44.375  22.616   1.417
22747W        W91088  19.175  37.920  14.288
22748W        W91089   8.311  44.465  14.331
22749W        W91090   0.847  13.799  11.951
22750W        W91091  16.260  24.074   5.166
22751W        W91092  18.114  31.028   3.711
22752W        W91093  44.295  18.283   1.293
22753W        W91094  11.312  10.322   1.379
22754W        W91095   8.722  18.285  14.900
22755W        W91096  22.062  29.460   3.334
22756W        W91097  14.166  28.003   2.184
22757W        W91098  41.992  12.143   1.768
22758W        W91099  29.595  19.117   2.831
22759W        W91100   5.197  31.529  11.011
22760W        W91101  42.912  18.221   3.704
22761W        W91102  32.107   0.355   4.255
22762W        W91103  10.682  27.017  12.399
22763W        W91104   0.290   7.865  13.540
22764W        W91105  14.206  10.289  12.556
22765W        W91106  36.391   8.320   1.255
22766W        W91107   5.297  16.567   2.278
22767W        W91108  16.254  10.354   1.787
22768W        W91109  30.648   1.838  13.490
22769W        W91110  42.979  43.317  10.990
22770W        W91111  42.915  41.794   4.350
22771W        W91112  15.613   9.209   4.182
22772W        W91113  31.950  40.891   4.206
22773W        W91114  12.203  14.274   5.153
22774W        W91115   1.750  34.583  13.859
22775W        W91116  36.911  14.806  11.549
22776W        W91117   3.401  31.022  12.357
22777W        W91118  25.514  10.659   3.837
22778W        W91119   5.914  32.938   3.719
22779W        W91120  40.502  20.523   4.822
22780W        W91121   9.286  13.308   2.279
22781W        W91122  38.457   6.362   1.448
22782W        W91123  32.468  27.635  11.386
22783W        W91124   0.918  14.706  11.956
22784W        W91125  12.831  29.148   4.294
22785W        W91126  24.712  32.949   2.253
22786W        W91127  18.180  41.836   2.796
22787W        W91128  18.772  10.319  14.380
22788W        W91129  25.527  28.480   5.640
22789W        W91130  17.174  23.734  11.084
22790W        W91131  40.929  36.937   3.691
22791W        W91132  12.284  31.134   0.967
22792W        W91133   3.379  27.043  13.945
22793W        W91134  17.798   4.809   2.729
22794W        W91135  40.000   9.218  13.493
22795W        W91136  27.634  13.111   3.739
22796W        W91137  42.300  40.356  13.899
22797W        W91138  44.327  26.537   0.738
22798W        W91139  26.150  30.471  14.867
22799W        W91140  38.870   9.665   2.366
22800W        W91141   5.410  43.459   2.184
22801W        W91142  41.398   8.658   2.264
22802W        W91143  40.414  23.122  13.410
22803W        W91144  33.946  40.508  10.615
22804W        W91145   5.350  42.980  11.382
22805W        W91146  30.114  42.348  10.614
22806W        W91147  10.719  37.087  11.512
22807W        W91148  11.850   8.274   4.318
22808W        W91149  36.593  32.548   2.274
22809W        W91150   3.897  28.457   4.320
22810W        W91151  35.971  35.933  11.435
22811W        W91152  19.205  15.183   2.242
22812W        W91153  36.047  17.182  11.857
22813W        W91154  34.491  44.847  12.933
22814W        W91155  35.928  36.898  14.893
22815W        W91156  24.545   5.744   1.397
22816W        W91157  37.566  16.197  13.061
22817W        W91158  14.109  17.733  12.920
22818W        W91159  21.717  13.278  10.072
22819W        W91160   9.816  43.362  10.453
22820W        W91161  28.556  31.956  13.980
22821W        W91162  30.481  33.457  14.373
22822W        W91163  26.145   6.352   3.359
22823W        W91164  27.067   8.321  13.455
22824W        W91165  10.689  36.433  13.515
22825W        W91166  38.068  26.977  11.082
22826W        W91167  24.578  11.627  14.837
22827W        W91168  34.448  21.143  13.420
22828W        W91169  31.135  30.998   0.293
22829W        W91170   2.396  26.098  12.888
22830W        W91171  33.062   9.713  12.523
22831W        W91172  35.040   4.372  11.608
22832W        W91173  36.476  41.872  11.901
22833W        W91174  11.235   3.770   1.731
22834W        W91175  39.423  27.105   1.750
22835W        W91176   7.742  15.777   4.351
22836W        W91177  31.606   2.740   0.878
22837W        W91178  31.033  34.493  11.565
22838W        W91179  35.867  44.924   2.833
22839W        W91180  36.404   6.362   3.807
22840W        W91181  37.417  29.038  11.380
22841W        W91182  39.453  44.811  12.946
22842W        W91183  40.987  35.518   2.864
22843W        W91184  12.844   6.392   0.919
22844W        W91185  28.621  31.107  13.430
22845W        W91186   7.197  12.836  10.907
22846W        W91187  31.135  18.128  12.898
22847W        W91188   3.328  25.063   3.675
22848W        W91189  10.163  28.073   1.921
22849W        W91190  39.857  12.769   2.669
22850W        W91191  18.598  43.477   3.366
22851W        W91192  32.114  43.445   4.797
22852W        W91193  19.067  17.151   3.786
22853W        W91194  29.076  36.970   4.799
22854W        W91195  32.030  34.041  14.959
22855W        W91196   4.422  14.804  12.013
22856W        W91197  40.381  28.445  12.832
22857W        W91198  24.177  27.658   1.295
22858W        W91199   9.817  34.422   4.715
22859W        W91200  34.543  14.114  10.920
22860W        W91201  34.389  13.270   0.324
22861W        W91202  26.655  12.763   2.806
22862W        W91203  15.637  31.492   0.359
22863W        W91204  11.373  26.457  12.527
22864W        W91205   5.270  18.176   2.290
22865W        W91206  39.471  26.545  10.909
22866W        W91207   0.280  19.180   5.219
22867W        W91208  24.643  30.474   3.355
22868W        W91209  40.517  22.096   0.768
22869W        W91210   0.274  12.360  14.922
22870W        W91211   7.263  39.313  14.000
22871W        W91212  39.025  38.398  10.122
22872W        W91213  35.026  10.223   1.358
22873W        W91214  23.683  32.133  11.591
22874W        W91215   3.913   6.289   2.846
22875W        W91216  10.743  41.917  12.905
22876W        W91217  38.029  16.255  14.897
22877W        W91218  33.039  17.061  10.611
22878W        W91219  10.832  35.520  13.973
22879W        W91220   0.802  10.294   1.360
22880W        W91221   3.873   6.425  14.951
22881W        W91222  26.158  21.258   4.121
22882W        W91223  39.034  35.472   3.312
22883W        W91224   6.365   7.287   3.202
22884W        W91225  43.492   1.789  11.107
22885W        W91226  29.017  13.833   1.443
22886W        W91227  15.670  44.325   4.115
22887W        W91228   8.855  32.047   2.707
22888W        W91229  23.055  16.201   1.899
22889W        W91230  36.546  14.797  10.987
22890W        W91231  23.699  28.182   2.678
22891W        W91232  39.890  33.023  13.891
22892W        W91233   7.674  16.311  14.442
22893W        W91234  22.205  41.985   1.217
22894W        W91235   2.859  39.958   1.220
22895W        W91236   6.836  16.639   1.285
22896W        W91237   9.169  14.266   4.753
22897W        W91238   2.472  25.169   2.684
22898W        W91239  30.542  34.581  13.796
22899W        W91240  15.326  14.098  14.390
22900W        W91241  28.466  31.591  13.027
22901W        W91242   4.802  20.108   1.277
22902W        W91243  15.693  21.658   0.270
22903W        W91244  37.580  18.609  13.372
22904W        W91245  42.439  39.861  12.406
22905W        W91246   9.367  32.110   1.384
22906W        W91247  13.819  32.908   3.343
22907W        W91248  12.669  14.649  12.875
22908W        W91249   3.763  40.537  12.070
22909W        W91250  21.253  40.885  13.900
22910W        W91251   3.308  25.132  14.448
22911W        W91252  20.061  25.103  12.575
22912W        W91253  16.271   3.433   0.297
22913W        W91254   3.391  17.088   1.367
22914W        W91255  37.909  27.532   0.399
22915W        W91256   4.874  37.388   0.950
22916W        W91257  21.244  13.340   0.346
22917W        W91258   2.799  43.393   0.801
22918W        W91259   1.912   8.876   4.179
22919W        W91260  19.773  40.828   0.385
22920W        W91261  44.785  40.925  12.560
22921W        W91262   7.183  40.361   3.252
22922W        W91263  13.844  33.432  10.408
22923W        W91264   1.449  39.334   3.650
22924W        W91265  34.381  27.107  11.099
22925W        W91266  12.124  14.258   3.806
22926W        W91267  41.943  38.902  10.071
22927W        W91268  20.670  18.699   4.780
22928W        W91269   8.785  20.532   2.830
22929W        W91270  41.299  22.224   2.380
22930W        W91271  40.476  44.853   0.262
22931W        W91272  12.713  24.060   3.233
22932W        W91273  18.062  11.688   2.307
22933W        W91274  25.469  37.994   2.755
22934W        W91275   4.782   6.275  13.030
22935W        W91276  42.318   5.840   1.273
22936W        W91277  13.809  20.739   3.205
22937W        W91278  30.535  36.576   5.218
22938W        W91279  39.493   0.258  13.791
22939W        W91280  30.985   1.921  13.950
22940W        W91281  17.750  35.400  12.934
22941W        W91282   6.302  36.472   1.290
22942W        W91283   3.455  33.478   4.654
22943W        W91284  35.958  34.427  10.928
22944W        W91285  21.230   5.268   2.280
22945W        W91286  38.554  21.573  13.057
22946W        W91287  18.629  32.946  13.007
22947W        W91288  29.581  21.062  13.050
22948W        W91289  28.458  34.998  10.607
22949W        W91290  39.467   1.871   3.835
22950W        W91291   9.702  10.320   4.274
22951W        W91292  14.790  26.521  10.635
22952W        W91293   8.866  15.096  12.500
22953W        W91294  41.966   7.221   3.170
22954W        W91295  21.734   4.878  10.954
22955W        W91296  41.897  18.555   4.646
22956W        W91297  11.285  27.660  11.552
22957W        W91298  13.728   6.855  10.444
22958W        W91299  36.584  23.082   4.232
22959W        W91300   5.354  31.018  11.928
22960W        W91301  26.957   2.297  10.942
22961W        W91302  27.586  25.518   4.326
22962W        W91303  40.040  19.282  12.939
22963W        W91304  28.026  14.113  10.439
22964W        W91305  27.114  27.591  12.005
22965W        W91306  29.491  41.428   4.323
22966W        W91307  37.897  24.059  13.425
22967W        W91308  28.127  42.441  11.962
22968W        W91309  38.043   6.296   4.622
22969W        W91310  33.885  21.648  12.533
22970W        W91311  41.393  20.196  12.963
22971W        W91312   1.401  39.965   2.192
22972W        W91313  30.641   9.671  10.630
22973W        W91314  22.503  22.685  13.359
22974W        W91315   9.713  42.405  10.590
22975W        W91316  38.533   6.261   3.821
22976W        W91317  31.043  26.980   4.114
22977W        W91318  13.736  18.713   1.848
22978W        W91319  16.580  30.620  10.494
22979W        W91320   1.454  15.716  11.566
22980W        W91321  23.147  42.292   1.389
22981W        W91322  38.416  40.825  11.458
22982W        W91323   8.271   1.439  12.842
22983W        W91324  16.241  13.309   1.754
22984W        W91325   4.833   2.741   1.873
22985W        W91326   7.735  11.195   2.405
22986W        W91327  42.485  15.724   3.652
22987W        W91328  31.648  35.902  10.641
22988W        W91329  32.536  31.970   0.790
22989W        W91330   2.361  44.429   9.998
22990W        W91331  13.148  34.866  11.910
22991W        W91332  33.539  27.948  10.524
22992W        W91333   2.361  12.169  12.989
22993W        W91334  29.162  13.346  10.427
22994W        W91335  21.552   1.468  14.934
22995W        W91336  10.253  25.014   1.705
22996W        W91337   4.708   3.947  13.457
22997W        W91338  32.113  30.526  14.404
22998W        W91339  18.681  22.679  13.324
22999W        W91340  20.105  32.605  12.885
23000W        W91341  37.386  40.949  10.642
23001W        W91342  17.594  20.708   5.589
23002W        W91343  26.959   2.227   1.858
23003W        W91344   5.913  22.121  11.017
23004W        W91345  18.562  13.710   2.730
23005W        W91346  35.963   1.256  14.321
23006W        W91347  30.555   6.363  13.010
23007W        W91348   1.777  25.573  12.094
23008W        W91349  23.551  43.342  14.875
23009W        W91350  16.312   7.720  12.931
23010W        W91351  40.918  38.517  12.906
23011W        W91352  13.674  14.126   3.387
23012W        W91353  18.597  43.994   4.329
23013W        W91354  21.242   5.892   3.663
23014W        W91355  28.646   8.752   0.870
23015W        W91356  31.604   4.433   2.236
23016W        W91357   0.841  43.784  11.001
23017W        W91358  17.675  33.115  13.834
23018W        W91359  44.433   7.366   2.394
23019W        W91360  10.784  32.517   3.357
23020W        W91361   3.768  30.508   5.300
23021W        W91362   4.928  33.420   1.874
23022W        W91363  23.150   1.399   2.842
23023W        W91364  26.984   2.398   4.254
23024W        W91365   3.404  21.670  12.945
23025W        W91366  27.017  33.625   3.727
23026W        W91367   3.445  17.665  14.341
23027W        W91368  38.933  14.287  12.579
23028W        W91369  22.527  32.548  10.452
23029W        W91370  14.330  42.319  13.429
23030W        W91371   2.907  12.279   1.776
23031W        W91372  16.130  23.623  12.917
23032W        W91373  20.162  35.863   1.392
23033W        W91374  28.168   9.730  10.405
23034W        W91375   3.260  16.640   1.424
23035W        W91376  25.650  14.280  14.023
23036W        W91377  38.942  24.484  13.000
23037W        W91378  21.727  19.606   0.956
23038W        W91379  35.585  10.707  14.461
23039W        W91380  26.100   6.693  11.048
23040W        W91381  14.770  40.494  14.834
23041W        W91382  14.771   6.276   4.184
23042W        W91383   0.875  22.652  14.013
23043W        W91384  33.926  11.777  10.511
23044W        W91385   8.345  40.492   3.267
23045W        W91386  21.230   6.732  14.330
23046W        W91387  25.635  19.195   0.899
23047W        W91388   2.310  17.750  11.996
23048W        W91389  43.269  10.140   4.160
23049W        W91390  39.420  10.657  11.386
23050W        W91391  40.400  42.803   5.160
23051W        W91392   4.927  10.258  14.919
23052W        W91393   0.411  34.961   0.806
23053W        W91394  22.121  30.635  11.061
23054W        W91395  36.042  25.195   1.814
23055W        W91396   5.704  17.196   4.624
23056W        W91397   7.380   7.320   2.666
23057W        W91398  14.596  16.077   3.152
23058W        W91399  11.764  41.480  12.360
23059W        W91400  29.108  18.547   4.143
23060W        W91401  39.876   1.928  14.404
23061W        W91402  39.375   1.449   4.295
23062W        W91403   2.402  17.237  10.114
23063W        W91404  24.115   0.892   1.791
23064W        W91405  11.774  21.040  14.388
23065W        W91406  31.956   3.895  14.490
23066W        W91407  34.891  33.997   3.219
23067W        W91408  13.797  29.468  12.940
23068W        W91409  29.445  30.475  14.943
23069W        W91410  15.251   7.250   4.832
23070W        W91411   0.743  25.646  11.501
23071W        W91412  33.626  36.902   2.314
23072W        W91413  36.492   0.271  12.414
23073W        W91414  31.617  36.913  11.036
23074W        W91415  28.474  13.247  12.499
23075W        W91416  36.518  26.511   3.688
23076W        W91417  35.516  40.822   4.649
23077W        W91418  42.989  20.597   3.161
23078W        W91419  11.236  31.032  13.517
23079W        W91420  35.922   2.360  13.820
23080W        W91421  21.686  43.378   3.304
23081W        W91422  24.635  34.864  14.362
23082W        W91423  37.498  37.501  11.476
23083W        W91424  35.500  39.063  10.998
23084W        W91425  11.337   1.821  10.530
23085W        W91426  35.989   3.817   0.384
23086W        W91427   1.315  28.149  13.328
23087W        W91428  27.500  13.778  11.867
23088W        W91429   8.715   6.242   3.248
23089W        W91430  25.089  28.029  11.964
23090W        W91431  16.189  33.052  10.407
23091W        W91432  30.150  14.131  10.919
23092W        W91433  29.073  24.124   0.279
23093W        W91434  15.671  15.161   1.770
23094W        W91435  23.060  35.543   0.394
23095W        W91436  13.220   6.721  11.881
23096W        W91437  22.676  14.096   4.738
23097W        W91438  33.393  32.027   2.889
23098W        W91439   4.930   5.312  11.978
23099W        W91440  44.312  22.053  13.999
23100W        W91441   7.244  11.778   0.951
23101W        W91442  25.572  41.514   3.680
23102W        W91443  19.563  42.985  14.798
23103W        W91444  22.041   4.329   0.294
23104W        W91445  22.095  30.011  12.459
23105W        W91446  15.189  34.521  13.313
23106W        W91447  22.572  36.492  12.432
23107W        W91448  11.675  23.634  10.411
23108W        W91449   3.740  38.414  11.460
23109W        W91450  30.991  34.512   3.343
23110W        W91451  31.641  19.161  10.449
23111W        W91452  31.472  39.316   3.847
23112W        W91453  19.764  14.335   9.962
23113W        W91454  35.598  24.494   3.146
23114W        W91455  26.025   8.194  12.003
23115W        W91456  17.573  39.053   3.281
23116W        W91457   6.915  27.179   1.257
23117W        W91458  41.937  39.965   4.335
23118W        W91459   3.790  38.927  10.978
23119W        W91460  38.345  12.809   0.955
23120W        W91461  21.714   9.370  10.941
23121W        W91462  44.972  25.190   3.854
23122W        W91463  34.927  10.340  11.103
23123W        W91464  29.107  42.902   2.752
23124W        W91465  22.177   8.809  14.941
23125W        W91466  17.775  34.448   5.229
23126W        W91467  16.698  16.108  13.318
23127W        W91468  11.303  24.982   3.276
23128W        W91469  18.740  29.967   2.752
23129W        W91470   1.789  33.923  11.913
23130W        W91471  20.566  30.500   4.294
23131W        W91472  10.685   8.281  13.310
23132W        W91473   8.744  13.263   0.383
23133W        W91474  26.658  36.515  14.505
23134W        W91475  21.106   3.380   4.219
23135W        W91476   8.749   8.365   1.254
23136W        W91477  36.945  24.636  14.355
23137W        W91478  42.389  31.403  11.570
23138W        W91479  33.919   7.239  14.293
23139W        W91480  10.851  18.575   3.194
23140W        W91481  43.273  18.084   3.319
23141W        W91482  35.369  12.806  13.510
23142W        W91483   5.375  18.742   3.255
23143W        W91484  33.546   4.866   3.350
23144W        W91485   9.656  25.670  11.037
23145W        W91486  37.372  38.997   4.717
23146W        W91487  43.466  25.683   1.796
23147W        W91488  29.425   4.204  12.904
23148W        W91489  42.362  40.043  11.871
23149W        W91490  23.106  38.868  12.413
23150W        W91491  34.025  10.213   2.276
23151W        W91492   9.278  31.538   4.135
23152W        W91493  21.094  44.915  14.477
23153W        W91494  37.840  40.424  11.004
23154W        W91495  40.338  21.692   3.358
23155W        W91496  26.051   9.712  10.440
23156W        W91497  24.057   3.425   0.740
23157W        W91498   8.787  30.463  13.865
23158W        W91499  28.594  44.951  12.550
23159W        W91500   1.457  25.190  14.881
23160W        W91501  38.878  29.644   0.883
23161W        W91502   1.359   6.281   1.263
23162W        W91503  31.949   0.775   0.741
23163W        W91504  14.242   4.416  14.293
23164W        W91505   4.881  19.549   0.867
23165W        W91506   1.388  31.444  11.871
23166W        W91507  23.605   4.345   4.785
23167W        W91508  42.387  27.177   0.790
23168W        W91509   1.811   8.872  12.859
23169W        W91510  43.428  24.613  13.422
23170W        W91511  30.431   6.854  14.780
23171W        W91512   2.746   8.732   2.852
23172W        W91513  25.034  19.577  14.336
23173W        W91514   7.788  39.903   1.255
23174W        W91515  27.977  32.497  10.429
23175W        W91516  27.484  17.657  12.555
23176W        W91517   9.882  13.791   0.895
23177W        W91518   9.164  31.900   0.778
23178W        W91519  32.394  15.629   4.260
23179W        W91520  30.015   9.294   0.482
23180W        W91521  43.810  22.665  13.966
23181W        W91522  24.653  36.355  14.330
23182W        W91523   8.260  11.249  13.903
23183W        W91524   2.459   4.339   4.295
23184W        W91525  38.967  44.774   1.701
23185W        W91526   7.351  26.516  14.877
23186W        W91527  15.099  23.117   4.643
23187W        W91528  16.685  21.159   1.394
23188W        W91529  42.440   4.928   4.332
23189W        W91530  41.851  30.988  12.883
23190W        W91531  26.056  27.550   3.193
23191W        W91532  43.488  24.992  11.042
23192W        W91533   7.847   8.396   3.860
23193W        W91534  41.858  44.919  11.043
23194W        W91535  24.545  24.216  13.818
23195W        W91536  31.486   3.402  11.043
23196W        W91537  21.733  35.391   0.775
23197W        W91538  31.025  32.435   4.120
23198W        W91539  12.175  16.217   1.736
23199W        W91540  11.361   0.825   4.692
23200W        W91541   1.270   8.287   4.212
23201W        W91542   9.355   3.432   5.093
23202W        W91543  18.712  34.025  10.457
23203W        W91544  21.208  29.150  10.446
23204W        W91545   8.276   4.757   4.811
23205W        W91546   1.941  19.701  13.815
23206W        W91547  32.497   4.375   4.255
23207W        W91548  20.124  13.125  10.954
23208W        W91549  14.171  12.632  12.470
23209W        W91550  22.088  16.631  12.580
23210W        W91551  15.810  12.698  14.864
23211W        W91552  20.075   1.435   0.867
23212W        W91553  38.415  33.423   4.689
23213W        W91554  21.637   4.847   1.428
23214W        W91555   4.207   2.739  10.531
23215W        W91556  29.087  27.615  10.554
23216W        W91557  44.758   4.803  14.796
23217W        W91558   8.325  26.072  13.513
23218W        W91559  39.911  40.923  11.373
23219W        W91560  11.856  33.454  13.999
23220W        W91561  39.447  20.236  11.955
23221W        W91562   9.775  18.577  14.358
23222W        W91563  40.320  14.130   0.383
23223W        W91564  33.012   3.256   0.416
23224W        W91565   7.823   7.271   1.271
23225W        W91566  44.388   3.845   0.763
23226W        W91567  38.993  22.034  13.351
23227W        W91568  31.081  40.997  13.431
23228W        W91569   9.325  37.365   0.895
23229W        W91570  42.412  23.670   1.427
23230W        W91571   1.765   5.250  12.502
23231W        W91572  19.761  38.428   2.366
23232W        W91573  12.341   4.715  12.877
23233W        W91574  35.958  41.898   3.377
23234W        W91575   0.775  25.152   5.216
23235W        W91576  32.141  11.710   2.273
23236W        W91577  42.784   2.805   3.673
23237W        W91578   5.860  44.495  14.866
23238W        W91579  26.036  11.348  14.955
23239W        W91580  40.049  18.604  12.514
23240W        W91581  42.896  24.162   4.615
23241W        W91582   0.742  36.022   0.291
23242W        W91583  12.842  31.419   3.331
23243W        W91584  20.130  33.618  12.548
23244W        W91585  34.496  21.704  13.335
23245W        W91586   8.703  17.207  12.840
23246W        W91587  12.170  17.123  12.072
23247W        W91588   5.281  34.942  11.880
23248W        W91589  26.997  29.087   3.761
23249W        W91590  20.622  25.690  11.041
23250W        W91591  15.247  26.082  11.911
23251W        W91592  18.289  18.188  12.544
23252W        W91593   9.791  34.880   2.677
23253W        W91594  37.350  26.490   1.856
23254W        W91595  33.022  37.048  14.463
23255W        W91596  32.919  24.599  12.357
23256W        W91597  41.882  42.834  14.772
23257W        W91598  29.514  17.123  11.884
23258W        W91599  22.564   0.475  10.412
23259W        W91600  29.547  17.606   1.334
23260W        W91601  18.617  13.702   3.839
23261W        W91602  19.047  32.001  13.540
23262W        W91603  12.255  35.035   4.310
23263W        W91604  39.967  30.132  11.873
23264W        W91605  37.401   8.716   4.677
23265W        W91606  44.465   8.747   3.645
23266W        W91607  25.637   2.919  10.636
23267W        W91608  38.958   3.714  13.540
23268W        W91609  44.876  34.978   4.731
23269W        W91610  43.890  10.765  10.471
23270W        W91611  41.435  16.083  11.067
23271W        W91612  31.605   8.358   3.789
23272W        W91613  44.769   9.764   2.313
23273W        W91614  27.044  23.121   1.801
23274W        W91615  26.093  11.690   0.735
23275W        W91616  42.502  30.445   3.767
23276W        W91617  34.072  22.622   2.688
23277W        W91618   8.168   4.867   1.704
23278W        W91619   6.777  28.025  13.355
23279W        W91620  13.721   9.229  12.508
23280W        W91621  34.536  21.068  11.599
23281W        W91622  43.804  23.719  13.036
23282W        W91623  28.529  22.164   2.844
23283W        W91624  24.091  30.580   2.782
23284W        W91625   9.710   6.883   2.793
23285W        W91626  24.482  13.248   4.299
23286W        W91627  32.898  17.090  13.347
23287W        W91628  36.042   0.876  11.881
23288W        W91629  18.668   2.338  13.870
23289W        W91630  44.441  38.035   1.285
23290W        W91631  20.093   0.840  13.358
23291W        W91632  37.881   7.728   3.643
23292W        W91633   3.873  27.031  12.575
23293W        W91634  29.631  26.112  12.473
23294W        W91635  21.727   1.430  11.028
23295W        W91636   0.404   6.189   3.820
23296W        W91637  36.092  15.809   4.231
23297W        W91638   0.953  11.659   1.333
23298W        W91639  19.207  15.655   5.230
23299W        W91640  35.581  16.699   1.415
23300W        W91641   6.411  24.544  13.924
23301W        W91642   8.329  12.209   1.354
23302W        W91643  12.350   3.216  12.993
23303W        W91644  17.064  17.581   1.213
23304W        W91645   2.849  29.610   3.247
23305W        W91646  14.599  40.921  11.450
23306W        W91647  17.096  25.169  11.066
23307W        W91648  26.659  43.878   3.841
23308W        W91649  19.707  33.449   1.349
23309W        W91650  23.622  24.674  14.964
23310W        W91651  40.024  37.063  11.516
23311W        W91652  42.414  22.175   4.705
23312W        W91653  14.710  18.229  10.554
23313W        W91654   6.232  34.909   1.811
23314W        W91655  22.143  31.938   1.930
23315W        W91656   5.820  28.465  14.334
23316W        W91657  23.217   8.268  14.939
23317W        W91658  39.468   9.269  11.976
23318W        W91659  43.299   5.806   2.394
23319W        W91660  26.693  10.237   1.857
23320W        W91661  21.158  20.747  11.115
23321W        W91662  39.985  26.119   0.247
23322W        W91663  27.682  19.589  14.938
23323W        W91664  34.054  20.064  10.974
23324W        W91665  35.538  38.399  11.491
23325W        W91666  37.026  43.804   3.641
23326W        W91667  32.971   2.408   3.188
23327W        W91668  19.130  28.069   4.173
23328W        W91669  25.031   0.807  13.799
23329W        W91670  17.061  23.115  13.841
23330W        W91671   8.331   7.412   3.785
23331W        W91672  40.464  26.007   4.667
23332W        W91673   3.402  43.875   0.842
23333W        W91674  28.648  19.055   2.355
23334W        W91675   1.828  40.400  11.076
23335W        W91676  38.879  23.160   2.683
23336W        W91677  33.431   4.365   4.788
23337W        W91678  12.361   2.294   1.822
23338W        W91679  22.711  11.323  13.957
23339W        W91680  16.571  32.977   5.149
23340W        W91681  31.114  33.875  13.475
23341W        W91682   3.762   5.230   3.755
23342W        W91683   0.876  28.154   5.217
23343W        W91684  20.259  34.410   3.206
23344W        W91685  22.085  18.121  10.139
23345W        W91686  44.779  19.631   0.309
23346W        W91687   6.888   3.763  13.836
23347W        W91688  27.181  30.489  13.527
23348W        W91689  33.585  28.069   1.346
23349W        W91690  27.591  19.695  13.336
23350W        W91691   1.417  36.443   2.759
23351W        W91692  14.301  10.294  11.555
23352W        W91693  41.946  35.069  14.944
23353W        W91694  36.390  29.968   1.348
23354W        W91695  23.041  28.030  13.417
23355W        W91696  32.456  23.147  10.421
23356W        W91697   1.816  22.160  14.401
23357W        W91698  15.759   2.959  11.583
23358W        W91699  25.016  23.619   1.320
23359W        W91700   1.786  24.229  14.017
23360W        W91701  37.336   9.653   3.795
23361W        W91702   2.877  26.639   0.383
23362W        W91703  40.476   1.739   1.739
23363W        W91704  14.819  34.864   1.385
23364W        W91705  21.243  20.765  12.830
23365W        W91706  28.528  42.802   2.831
23366W        W91707  27.076  41.375   2.302
23367W        W91708  24.127  42.498   1.695
23368W        W91709  23.708  20.674  12.949
23369W        W91710  33.983  31.585  14.477
23370W        W91711  42.465  24.556  11.498
23371W        W91712  34.408  43.429   3.250
23372W        W91713  37.027  12.317   2.712
23373W        W91714  17.620   2.355   3.338
23374W        W91715  31.915  19.081   3.718
23375W        W91716  16.219  33.932   9.989
23376W        W91717  15.788   9.205   3.210
23377W        W91718  40.429  15.708  12.577
23378W        W91719  29.606  32.012  10.447
23379W        W91720   5.816  19.579  12.889
23380W        W91721  29.103  35.437   3.365
23381W        W91722  17.196   1.282   1.723
23382W        W91723  44.807   9.378  13.844
23383W        W91724  22.100   8.349  12.036
23384W        W91725  25.638   9.294   4.673
23385W        W91726  35.468  15.681  14.464
23386W        W91727   9.156   6.277  10.569
23387W        W91728  37.405  30.447  12.363
23388W        W91729  12.780   1.442   1.413
23389W        W91730  21.148  19.623  12.379
23390W        W91731  11.370  19.660   3.834
23391W        W91732  37.376   8.366   3.740
23392W        W91733   8.245  11.674  12.836
23393W        W91734  41.473  25.044   0.780
23394W        W91735   2.901  38.520   4.604
23395W        W91736  32.612  42.802   0.321
23396W        W91737  10.748  34.572   3.633
23397W        W91738  12.182  16.229  13.820
23398W        W91739  15.276   3.762   0.467
23399W        W91740  29.972  44.362  14.394
23400W        W91741  19.667  20.672   0.739
23401W        W91742   4.833  14.674  14.821
23402W        W91743  42.345  27.085  14.858
23403W        W91744  38.833   8.698   1.743
23404W        W91745  20.173  16.148  13.324
23405W        W91746  17.282   7.294   3.387
23406W        W91747   5.202  29.601  13.482
23407W        W91748  35.446  29.560   2.417
23408W        W91749  14.122  44.349  13.457
23409W        W91750  11.227  35.061   2.666
23410W        W91751  39.496  13.163  10.462
23411W        W91752  24.615  36.022   4.809
23412W        W91753  35.396  43.897  12.492
23413W        W91754  26.693   7.698  13.985
23414W        W91755  16.090  13.794   3.696
23415W        W91756   6.258   8.198   0.923
23416W        W91757  14.603  40.819  10.059
23417W        W91758  26.086  12.357   0.286
23418W        W91759  10.288  28.631   0.866
23419W        W91760  35.077  10.346  10.035
23420W        W91761  12.283  23.678   4.742
23421W        W91762  41.473  27.550   2.264
23422W        W91763  28.025  11.836   1.344
23423W        W91764  15.578  35.410   1.276
23424W        W91765   6.406   1.411   4.825
23425W        W91766  39.476  10.737  12.374
23426W        W91767  25.165   2.958   1.250
23427W        W91768   4.750  18.244  14.017
23428W        W91769   9.310  25.497  14.811
23429W        W91770  18.659  40.523  13.384
23430W        W91771  33.036  13.841  12.991
23431W        W91772   6.772  21.653   2.801
23432W        W91773  38.854  42.002   0.938
23433W        W91774   1.890   4.392  11.077
23434W        W91775  33.035  38.502   3.870
23435W        W91776  16.708   9.250  12.497
23436W        W91777  36.483  10.172  14.968
23437W        W91778  23.205  40.022   0.931
23438W        W91779  34.985   1.777   1.214
23439W        W91780  38.495  36.475   4.345
23440W        W91781  18.549  35.056  14.316
23441W        W91782  43.288  19.103  13.834
23442W        W91783  39.460  33.892   2.259
23443W        W91784  34.875   4.864  11.456
23444W        W91785  22.995  34.371   2.319
23445W        W91786  26.953   2.727   1.334
23446W        W91787   5.866  26.096  10.589
23447W        W91788  26.198  33.505  14.976
23448W        W91789  37.382  18.098  11.569
23449W        W91790  10.655  14.696  12.492
23450W        W91791  35.413  28.454  10.638
23451W        W91792   1.892   3.416   3.713
23452W        W91793  25.636  34.995  12.420
23453W        W91794  18.286  37.878   4.668
23454W        W91795  38.548  10.687  10.556
23455W        W91796  34.445  24.481  14.766
23456W        W91797   3.865   2.385   4.624
23457W        W91798  14.780  16.743   0.955
23458W        W91799  30.052   7.249  12.478
23459W        W91800   0.388  44.499  13.041
23460W        W91801  44.375  44.333   0.343
23461W        W91802   0.404  39.988  11.539
23462W        W91803  21.550   6.400   1.347
23463W        W91804  43.397   4.231   3.242
23464W        W91805  34.443   3.832   0.401
23465W        W91806   8.319  26.114  14.486
23466W        W91807  12.281  39.886   4.694
23467W        W91808   5.816  10.350  10.542
23468W        W91809  22.553  37.352  11.574
23469W        W91810  28.942  43.502  12.018
23470W        W91811  11.227  35.415   2.345
23471W        W91812   8.175   5.824   2.771
23472W        W91813  18.681  44.429   4.345
23473W        W91814  12.760  22.148   2.878
23474W        W91815  16.095   7.213  13.547
23475W        W91816  22.173  44.332   2.417
23476W        W91817  19.195   8.762   2.720
23477W        W91818  42.024   5.781  12.858
23478W        W91819  13.309  31.543  13.917
23479W        W91820  10.877  29.034  13.431
23480W        W91821  18.661   0.442   0.758
23481W        W91822  19.237  42.992  11.421
23482W        W91823  42.415  27.520   4.184
23483W        W91824  26.114  11.853  11.388
23484W        W91825  44.438  19.264  13.890
23485W        W91826   9.263   7.280   4.296
23486W        W91827  42.981  37.015  10.410
23487W        W91828  35.927   1.347  11.923
23488W        W91829  36.560  35.391   0.367
23489W        W91830   8.289  33.038  11.000
23490W        W91831  41.797  30.061   2.260
23491W        W91832  22.557  40.380  10.940
23492W        W91833  40.445  23.592  14.860
23493W        W91834   0.893  42.395  12.023
23494W        W91835  34.081  27.089   1.823
23495W        W91836  31.045  40.968  12.870
23496W        W91837   9.374  23.229   2.397
23497W        W91838  37.835  25.216   5.206
23498W        W91839  11.315   3.329  11.930
23499W        W91840  38.007  35.450   1.245
23500W        W91841  34.046  21.566   3.337
23501W        W91842  19.218  18.223   4.180
23502W        W91843  27.963  12.671  13.851
23503W        W91844   7.676   1.428   2.410
23504W        W91845  32.118  21.559  12.386
23505W        W91846  40.415   8.209  11.031
23506W        W91847  35.371   9.654  10.620
23507W        W91848  19.260  34.864  14.411
23508W        W91849   4.837  31.434   3.796
23509W        W91850  34.548  26.206   0.823
23510W        W91851  41.889  14.273  14.301
23511W        W91852  18.067  43.853  11.376
23512W        W91853  40.913  16.177   0.270
23513W        W91854  17.696   3.920  14.510
23514W        W91855  21.594  29.948  11.401
23515W        W91856  44.393   1.334  11.008
23516W        W91857  19.757   1.470  13.884
23517W        W91858  26.127  14.757   4.322
23518W        W91859  15.636  13.748   2.220
23519W        W91860  43.932  14.692   2.841
23520W        W91861  23.503  32.930   2.852
23521W        W91862  42.953  20.611  12.489
23522W        W91863  27.661  19.110  13.949
23523W        W91864   7.673  40.955   0.783
23524W        W91865   7.904  14.278  10.606
23525W        W91866  19.707  11.757  14.894
23526W        W91867  30.985  24.989  13.388
23527W        W91868  29.506   1.933  11.058
23528W        W91869  27.572   1.776  13.805
23529W        W91870  13.148   7.405   0.742
23530W        W91871  29.139  22.221   2.363
23531W        W91872  43.808  20.609  11.607
23532W        W91873  11.853   4.766  11.015
23533W        W91874  23.180   4.717  13.938
23534W        W91875  14.336  14.127   2.307
23535W        W91876  30.527  12.773  11.943
23536W        W91877  34.867  28.110   1.921
23537W        W91878  17.152  22.735  13.984
23538W        W91879  14.724  13.706   4.817
23539W        W91880   1.972  22.667  14.327
23540W        W91881   0.961   9.719   3.784
23541W        W91882  35.454  44.006   3.736
23542W        W91883  18.779  43.317  11.468
23543W        W91884  35.364  39.025   4.140
23544W        W91885  44.457  43.865  11.505
23545W        W91886  13.202  17.170   4.286
23546W        W91887   8.845   6.800  14.420
23547W        W91888   7.910  17.647  13.032
23548W        W91889  15.226   4.930  11.127
23549W        W91890   1.340  26.672   4.784
23550W        W91891  16.139   7.196  10.436
23551W        W91892  20.144  37.064  10.521
23552W        W91893  35.030  18.059   2.403
23553W        W91894  37.856  12.205   4.291
23554W        W91895  21.581  22.514   1.385
23555W        W91896  27.055  20.072  12.034
23556W        W91897  38.564  38.983  10.067
23557W        W91898  30.471  29.949   0.446
23558W        W91899   9.300  43.321  11.589
23559W        W91900  37.348  33.594  14.453
23560W        W91901  18.294   6.714   0.403
23561W        W91902  22.092  25.535   3.296
23562W        W91903  11.133   3.849  10.920
23563W        W91904  28.072  38.554  12.861
23564W        W91905  44.966   2.838  13.307
23565W        W91906  20.702  32.546   0.271
23566W        W91907  27.469  12.832  11.603
23567W        W91908  28.030  31.506   0.260
23568W        W91909   5.751  43.848  12.563
23569W        W91910  15.703   0.399  10.123
23570W        W91911  40.325  35.016   1.413
23571W        W91912  44.980  41.410   2.786
23572W        W91913  39.486  35.585   2.324
23573W        W91914  12.672  31.136  13.396
23574W        W91915   3.873  24.582   2.307
23575W        W91916   8.165  28.146  13.915
23576W        W91917  22.574   4.790  13.829
23577W        W91918  41.457  12.315  14.845
23578W        W91919   4.844  10.873   2.746
23579W        W91920  32.476   8.207  12.060
23580W        W91921  29.923  23.069   2.719
23581W        W91922  14.677   5.742  11.480
23582W        W91923  43.316   0.392   2.698
23583W        W91924  34.518  43.984   4.314
23584W        W91925  36.525  13.692   3.795
23585W        W91926  25.707  23.050  13.797
23586W        W91927  43.473  43.338  11.995
23587W        W91928  26.122  38.065  12.549
23588W        W91929   1.910  27.054   2.818
23589W        W91930  39.531  28.528   1.889
23590W        W91931  33.526  30.467  14.969
23591W        W91932  27.163  18.602  14.827
23592W        W91933  34.568  11.643  10.643
23593W        W91934  41.791  25.105   0.315
23594W        W91935  23.516  36.882  13.858
23595W        W91936   9.850  15.594   1.352
23596W        W91937   2.394  41.980  12.406
23597W        W91938  41.519   7.862  14.503
23598W        W91939   1.279  17.201   5.285
23599W        W91940  17.155  38.039   4.601
23600W        W91941  37.500   4.268  13.422
23601W        W91942   3.384  37.081  11.401
23602W        W91943  10.741   1.481  10.587
23603W        W91944  24.563  28.955  11.440
23604W        W91945  23.581   6.213   4.773
23605W        W91946  21.108  24.649   0.432
23606W        W91947  40.049   4.312  14.338
23607W        W91948  41.000  36.878   2.856
23608W        W91949  30.507  32.941  13.979
23609W        W91950  17.752  35.380  14.847
23610W        W91951   5.771  39.893  10.891
23611W        W91952  41.430  13.187   1.304
23612W        W91953  13.740  40.407  11.504
23613W        W91954   8.875  21.058   3.335
23614W        W91955  16.237   1.768   2.185
23615W        W91956   9.227   7.784   1.738
23616W        W91957   9.218  18.276  13.459
23617W        W91958  10.825  10.275  11.998
23618W        W91959  12.328  24.985  10.523
23619W        W91960  26.192  24.563  12.537
23620W        W91961  25.983  26.179  14.953
23621W        W91962  18.210  29.032  10.979
23622W        W91963  32.572   1.339  10.889
23623W        W91964   8.381  16.282   2.415
23624W        W91965  10.315  27.947   2.294
23625W        W91966  44.811   5.905   1.698
23626W        W91967  39.509  27.565   3.748
23627W        W91968  38.355  42.888   2.777
23628W        W91969  16.728  25.597   0.406
23629W        W91970  20.238  26.537  12.370
23630W        W91971  28.995  19.045  13.482
23631W        W91972  12.221  32.951  11.039
23632W        W91973   2.255  39.936   4.771
23633W        W91974  38.553  30.621  10.508
23634W        W91975  35.038   8.656  11.576
23635W        W91976  16.784  22.060   5.290
23636W        W91977  11.270   4.707   4.664
23637W        W91978   7.254  37.889  13.865
23638W        W91979  40.420  29.552   0.800
23639W        W91980  23.574  36.438  13.967
23640W        W91981  36.397  18.253  13.484
23641W        W91982  14.249  41.958   0.938
23642W        W91983   8.859   1.891   9.944
23643W        W91984  25.481  40.417  11.435
23644W        W91985  41.929  36.514   3.278
23645W        W91986  28.583  34.514  10.426
23646W        W91987  12.804  37.950   2.762
23647W        W91988  37.447  11.265  12.008
23648W        W91989   0.494  29.551  13.819
23649W        W91990  23.074   8.759   1.821
23650W        W91991  30.932  13.219   3.285
23651W        W91992   9.877  42.515   3.210
23652W        W91993  43.820   4.807  12.987
23653W        W91994  21.017   6.857  11.509
23654W        W91995  27.567   5.774   4.742
23655W        W91996  23.668   9.780   2.782
23656W        W91997   1.831  18.600  11.866
23657W        W91998   5.245  24.052  14.288
23658W        W91999  44.318  16.184   3.255
23659W        W92000  31.508  20.129  13.921
23660W        W92001  17.801  13.642   0.253
23661W        W92002   9.826  37.417   4.137
23662W        W92003  28.103  41.534  14.364
23663W        W92004  16.100  38.442   2.746
23664W        W92005  40.904   4.271  12.421
23665W        W92006  43.451  14.819   2.715
23666W        W92007  21.060  20.655   2.667
23667W        W92008  19.141  41.316  12.082
23668W        W92009  20.124  15.610   2.672
23669W        W92010  23.614  17.260   3.303
23670W        W92011  24.608  22.553   0.897
23671W        W92012  13.105  19.264  11.907
23672W        W92013  15.142   3.750  14.032
23673W        W92014   0.362   6.713  10.906
23674W        W92015   6.889  24.997   0.830
23675W        W92016  16.221  17.304  14.779
23676W        W92017  28.036  22.204   2.310
23677W        W92018   2.774   6.427  14.327
23678W        W92019   2.370  32.623  13.545
23679W        W92020   8.282  22.162  14.792
23680W        W92021  40.410  12.619  11.473
23681W        W92022  42.437  32.601   4.652
23682W        W92023  42.440  23.660   2.342
23683W        W92024   9.309  38.987   4.645
23684W        W92025   5.701   9.310  14.292
23685W        W92026  30.563  34.004  13.463
23686W        W92027   8.669  22.562  12.498
23687W        W92028  38.920  39.341   1.777
23688W        W92029  23.720  31.507   4.772
23689W        W92030  30.042  12.152   2.230
23690W        W92031  32.055  34.580  11.907
23691W        W92032  43.792  34.591  14.809
23692W        W92033  30.578   8.726   3.716
23693W        W92034  19.166  35.494   2.389
23694W        W92035  39.962  30.538   0.962
23695W        W92036   2.844   4.414   0.867
23696W        W92037  38.916  37.937   4.293
23697W        W92038   2.800  10.827  11.398
23698W        W92039   4.297  21.093   0.903
23699W        W92040  35.486  17.135  13.013
23700W        W92041   5.781  20.554  12.424
23701W        W92042   4.782   8.821  11.015
23702W        W92043   1.896   9.334   3.711
23703W        W92044  40.463  10.141   2.382
23704W        W92045  30.005  34.552  12.999
23705W        W92046  25.531  33.081  12.383
23706W        W92047  44.860  15.700   1.323
23707W        W92048  36.991  16.725  11.106
23708W        W92049   7.326   1.742   1.814
23709W        W92050  16.073  17.559   0.256
23710W        W92051  16.109  13.152   0.753
23711W        W92052  21.745  41.009   2.831
23712W        W92053  18.780  40.845   1.441
23713W        W92054  29.138  15.698  11.416
23714W        W92055  28.548   7.316   0.259
23715W        W92056  30.633  34.413  14.838
23716W        W92057  42.896  40.969   1.825
23717W        W92058   1.273  34.612   2.329
23718W        W92059  17.268  24.697   2.262
23719W        W92060  29.607  16.569   0.314
23720W        W92061  25.548  32.046  10.137
23721W        W92062  26.140   6.777   3.259
23722W        W92063  37.033  25.502  12.563
23723W        W92064  27.100  10.872   1.362
23724W        W92065  32.123  25.643   2.820
23725W        W92066  11.760  13.321  14.356
23726W        W92067   0.280  35.438   2.347
23727W        W92068  26.148  33.517  12.396
23728W        W92069  35.110   5.403   1.796
23729W        W92070  39.910   4.880   3.276
23730W        W92071  15.235  19.619   0.946
23731W        W92072  39.842  35.414   4.161
23732W        W92073  29.157  38.484   3.712
23733W        W92074  30.958  22.190  12.567
23734W        W92075   0.773  34.020   3.364
23735W        W92076   7.355  26.506  13.916
23736W        W92077  19.119  33.600  13.507
23737W        W92078  26.165  31.959   3.861
23738W        W92079  16.112  27.194   2.900
23739W        W92080  19.684  28.489  13.413
23740W        W92081  29.660  17.595  12.025
23741W        W92082  41.522  17.601  12.502
23742W        W92083  21.244  17.090  13.414
23743W        W92084  23.607  26.576   3.753
23744W        W92085  38.953  21.529   4.765
23745W        W92086  20.749  25.654  14.365
23746W        W92087  34.488  33.880  12.521
23747W        W92088   7.722  37.515   1.858
23748W        W92089  44.771  41.345   3.691
23749W        W92090  39.386  29.530  10.529
23750W        W92091  22.017  20.223   4.245
23751W        W92092   6.921  26.047  14.430
23752W        W92093  39.399  27.599   1.390
23753W        W92094  29.072   3.882   2.871
23754W        W92095  37.422  22.591   2.739
23755W        W92096  33.424  44.857  14.336
23756W        W92097   5.219  39.920  10.586
23757W        W92098  10.170  38.507  11.960
23758W        W92099  37.387  20.063  13.982
23759W        W92100  17.615  35.573   1.756
23760W        W92101  23.239  25.109   3.176
23761W        W92102  21.202  27.482  13.467
23762W        W92103   2.445  13.829  13.922
23763W        W92104  34.563  25.589  13.512
23764W        W92105  16.193  21.263  12.371
23765W        W92106   4.293  32.914  12.400
23766W        W92107  13.238  25.652   1.289
23767W        W92108  25.135  37.444  13.020
23768W        W92109  23.055  27.583   4.230
23769W        W92110  36.572   0.486  14.959
23770W        W92111  33.080  43.273  11.107
23771W        W92112   9.335  36.566  14.297
23772W        W92113  13.192  30.944   3.812
23773W        W92114  30.451  25.979   0.819
23774W        W92115   3.765   9.304   0.815
23775W        W92116  25.515  41.368  14.469
23776W        W92117   5.880  28.522   2.858
23777W        W92118   9.283   4.340   3.281
23778W        W92119  28.020  11.154   0.900
23779W        W92120  40.809  26.098   0.340
23780W        W92121   0.248  37.340  14.888
23781W        W92122  26.543  43.856  11.549
23782W        W92123  15.721  22.229   4.727
23783W        W92124  44.841   2.828  11.029
23784W        W92125  31.978  35.401   4.147
23785W        W92126   7.715  10.256   3.669
23786W        W92127   7.784  23.159  11.603
23787W        W92128  42.504   3.807   3.206
23788W        W92129  39.533   5.800  11.460
23789W        W92130  11.367   0.395  12.002
23790W        W92131   6.813  40.549   4.693
23791W        W92132   7.764  36.894  11.514
23792W        W92133  38.867   0.343  14.318
23793W        W92134   0.975  23.495   4.239
23794W        W92135  20.750  14.132   3.760
23795W        W92136  28.131  32.040   4.151
23796W        W92137  23.691  20.090   2.759
23797W        W92138  14.731   5.885  10.542
23798W        W92139   3.818  30.952  13.834
23799W        W92140  22.559  33.972   4.230
23800W        W92141  34.452  24.173  13.992
23801W        W92142  29.591  42.415   0.797
23802W        W92143   3.345   9.858   2.845
23803W        W92144  26.545  16.208   2.259
23804W        W92145  40.349   8.373   4.632
23805W        W92146  31.517   8.857   1.285
23806W        W92147   2.286  26.114   0.400
23807W        W92148  17.084  43.326  14.927
23808W        W92149   1.263  34.868   0.377
23809W        W92150   9.835  30.155  12.848
23810W        W92151   1.735  23.599  14.416
23811W        W92152  31.438  22.575  12.382
23812W        W92153   6.241   8.392  10.602
23813W        W92154  14.744  13.269   1.212
23814W        W92155  21.243  11.175   3.863
23815W        W92156  13.304  22.114  12.884
23816W        W92157  39.951  16.124  11.085
23817W        W92158  18.087  31.631   4.609
23818W        W92159   7.844   1.405  13.541
23819W        W92160   0.977  37.852   1.292
23820W        W92161  31.455  33.423  13.447
23821W        W92162  23.640  31.443   4.116
23822W        W92163   3.788  17.200   1.370
23823W        W92164   6.702  22.995  11.875
23824W        W92165  33.564  15.581  10.486
23825W        W92166  21.046  44.881  13.993
23826W        W92167   6.314  22.550   2.414
23827W        W92168  31.100   0.956   1.426
23828W        W92169  36.459   1.893  10.141
23829W        W92170   3.759  35.045   1.381
23830W        W92171  23.551  22.654  10.921
23831W        W92172  15.651   1.421   4.193
23832W        W92173  41.834   3.788   1.756
23833W        W92174  29.498   7.245  11.874
23834W        W92175   3.259   5.776   3.702
23835W        W92176  34.581  14.172   3.267
23836W        W92177  37.355  38.426   3.147
23837W        W92178  37.881  31.018  12.072
23838W        W92179  14.818  33.607   9.977
23839W        W92180  41.318  18.277   2.239
23840W        W92181  42.332  28.474  10.502
23841W        W92182  36.426  14.095  10.098
23842W        W92183  15.712  22.148  14.324
23843W        W92184  28.447   1.291  11.904
23844W        W92185  17.718   1.920  14.470
23845W        W92186   9.811  39.852  11.524
23846W        W92187  35.552  37.901   1.731
23847W        W92188  11.795  36.074   4.801
23848W        W92189  31.140  19.753   1.316
23849W        W92190  37.565  13.788  13.001
23850W        W92191   3.872   9.750  13.921
23851W        W92192  35.877  12.763   0.273
23852W        W92193   4.331  29.457   1.371
23853W        W92194  12.173  36.437   0.451
23854W        W92195  44.405  11.205  11.596
23855W        W92196  37.989  14.271  14.480
23856W        W92197   7.795  33.423   2.685
23857W        W92198   2.307  16.194   9.478
23858W        W92199   8.163   4.739   2.712
23859W        W92200  29.000  31.137   4.225
23860W        W92201   5.216  13.160  14.834
23861W        W92202  20.654  12.629   1.862
23862W        W92203  31.058  17.719   2.389
23863W        W92204  18.208  27.452  11.891
23864W        W92205  15.116  26.663  11.568
23865W        W92206  14.800  12.793   3.240
23866W        W92207  15.615  42.523  13.387
23867W        W92208  20.631  21.670  14.926
23868W        W92209  41.814  21.068   3.862
23869W        W92210  38.928   9.801  14.813
23870W        W92211  33.512   8.801   2.675
23871W        W92212  16.593  29.504   3.188
23872W        W92213  25.186  40.037  10.962
23873W        W92214  16.210  16.644  10.477
23874W        W92215  18.155  40.978  12.923
23875W        W92216  15.242  32.599  13.504
23876W        W92217  41.427  12.156   1.877
23877W        W92218  29.478  19.625   1.262
23878W        W92219  42.312  22.215   2.395
23879W        W92220   0.978   2.770  11.471
23880W        W92221  16.648   9.290   3.287
23881W        W92222  14.329  15.603  12.829
23882W        W92223  20.673  24.061  12.413
23883W        W92224  29.107  22.623   2.735
23884W        W92225  13.170  42.284   4.292
23885W        W92226  24.721  13.677  12.949
23886W        W92227  19.559  13.170  11.483
23887W        W92228   6.197  30.543  12.090
23888W        W92229  13.696  34.459   0.264
23889W        W92230  39.379   3.411   0.762
23890W        W92231  27.638  44.271   2.389
23891W        W92232  41.514   2.858  12.526
23892W        W92233  34.983  13.338   0.750
23893W        W92234  41.014  18.601  10.409
23894W        W92235  18.644  22.049  10.140
23895W        W92236  20.045   4.741   3.762
23896W        W92237  12.277  10.663   2.697
23897W        W92238  41.383  12.722   1.764
23898W        W92239  30.601   2.754  14.818
23899W        W92240  33.886  17.677   2.683
23900W        W92241  30.968  38.384  10.997
23901W        W92242  31.465  41.364   3.207
23902W        W92243  32.547   0.852   1.778
23903W        W92244  13.729  32.945  13.009
23904W        W92245  13.723  30.105  12.499
23905W        W92246  11.194  15.615   2.241
23906W        W92247  42.888  29.068  14.296
23907W        W92248  21.056   1.735   4.180
23908W        W92249  19.178  26.141  11.980
23909W        W92250  40.048  37.427   0.892
23910W        W92251  30.543   0.267   2.780
23911W        W92252  40.453  35.957  12.030
23912W        W92253  24.097   0.328  12.476
23913W        W92254  34.972   4.726  10.598
23914W        W92255  14.098  22.613   3.661
23915W        W92256  14.828   8.793   4.216
23916W        W92257   7.869  13.255  14.961
23917W        W92258  40.464  16.247  10.640
23918W        W92259  12.194  28.579  11.119
23919W        W92260  16.674  23.727   0.921
23920W        W92261  34.007  27.668   2.788
23921W        W92262  26.187  22.197   0.433
23922W        W92263  13.602  26.691   2.679
23923W        W92264  11.802   8.804  12.928
23924W        W92265  22.209   3.746  12.571
23925W        W92266  32.553  17.795  13.959
23926W        W92267  27.165  22.075   0.852
23927W        W92268   0.294  10.854  13.322
23928W        W92269  12.679  32.008  12.361
23929W        W92270  18.250  42.517  14.810
23930W        W92271  25.071  11.838   1.867
23931W        W92272  18.263  42.404  10.915
23932W        W92273  37.356  33.105  14.791
23933W        W92274   9.881  18.717   3.844
23934W        W92275  38.325   2.834   3.842
23935W        W92276  42.964  36.381  11.394
23936W        W92277  44.762  17.670  14.961
23937W        W92278  29.151  29.450   4.661
23938W        W92279  22.593  39.968  14.405
23939W        W92280   3.765  19.722  12.476
23940W        W92281  39.887  31.905  12.028
23941W        W92282   8.741  37.029  13.409
23942W        W92283  16.247   8.321  10.937
23943W        W92284  34.518  16.628  14.791
23944W        W92285  22.011  19.241   3.722
23945W        W92286   5.758  42.452  13.533
23946W        W92287   9.651  15.582   1.846
23947W        W92288   9.890  26.001   0.765
23948W        W92289  26.158  17.123   5.310
23949W        W92290   8.797  32.945  10.441
23950W        W92291  40.325  34.501   2.338
23951W        W92292  28.495   6.828  11.446
23952W        W92293   2.735  31.095  14.985
23953W        W92294  35.386  39.478  14.914
23954W        W92295  36.587  25.592  12.391
23955W        W92296   7.240  15.591  12.063
23956W        W92297   4.344   7.318  11.881
23957W        W92298  15.233  41.011   1.829
23958W        W92299  14.316  20.566   1.847
23959W        W92300  31.434  34.945  10.945
23960W        W92301  22.083  40.438   2.893
23961W        W92302  42.883   2.309   3.731
23962W        W92303  36.388  37.504   3.218
23963W        W92304  42.987  19.247  14.349
23964W        W92305   3.949  18.184   4.164
23965W        W92306  27.178  14.246  11.077
23966W        W92307   4.239  25.189   2.832
23967W        W92308  33.390  16.122   0.267
23968W        W92309   9.708   6.245   0.347
23969W        W92310  29.586  24.057  10.947
23970W        W92311  29.424  13.642   3.215
23971W        W92312  37.497  15.665  10.416
23972W        W92313  27.980  34.558  11.598
23973W        W92314  17.157  11.755   1.868
23974W        W92315  21.691  30.413  13.846
23975W        W92316   6.845  11.166  10.600
23976W        W92317  12.826  30.463  11.986
23977W        W92318  13.654  19.094  14.500
23978W        W92319   2.848  28.539   4.805
23979W        W92320   6.702   6.408   3.740
23980W        W92321  43.800  35.496  12.947
23981W        W92322   0.786  17.126   5.695
23982W        W92323  36.882  39.437   4.240
23983W        W92324   8.239  39.978   1.306
23984W        W92325  25.483  19.129  14.445
23985W        W92326  44.892  26.038   1.697
23986W        W92327  19.708  43.435  13.518
23987W        W92328  39.854  19.039  11.594
23988W        W92329  32.039  14.120   0.764
23989W        W92330  31.977   1.848  12.052
23990W        W92331  20.063  15.612   3.225
23991W        W92332  43.396  13.832  10.413
23992W        W92333  24.214   0.415  13.493
23993W        W92334  18.089  18.739  12.860
23994W        W92335   8.297  14.652   4.663
23995W        W92336  13.713  34.588  11.083
23996W        W92337  37.352  40.325   3.189
23997W        W92338  38.857  40.336  10.437
23998W        W92339   0.916  21.024  13.339
23999W        W92340  18.062  41.435   4.797
24000W        W92341   1.318  11.331   2.736
24001W        W92342  22.033  42.508  11.468
24002W        W92343  34.573   1.445  10.951
24003W        W92344  11.233  43.843  13.533
24004W        W92345  33.592   6.737   0.357
24005W        W92346   2.374  18.254  12.430
24006W        W92347   1.958  34.085   4.651
24007W        W92348  37.946  32.537   4.760
24008W        W92349  26.630  12.817  10.075
24009W        W92350   5.800  16.578  12.434
24010W        W92351  36.509   8.861   1.720
24011W        W92352   5.707  43.011  11.405
24012W        W92353   5.218   6.911   3.267
24013W        W92354   0.469  44.990   2.280
24014W        W92355  35.514  41.462   3.342
24015W        W92356   3.246   2.278  11.979
24016W        W92357  28.133  22.517   1.902
24017W        W92358  18.169  25.082   4.272
24018W        W92359  25.577   9.720   3.195
24019W        W92360   3.404   6.244   2.390
24020W        W92361   9.157  28.538   0.326
24021W        W92362   9.334   4.284  10.590
24022W        W92363   7.236   8.793   4.288
24023W        W92364  44.361  17.182   3.691
24024W        W92365  20.710  12.852   3.355
24025W        W92366  30.435  42.867   0.321
24026W        W92367  31.421   6.714  14.813
24027W        W92368  29.586  44.961   3.364
24028W        W92369  27.447  14.833   3.252
24029W        W92370  34.887  42.838  14.932
24030W        W92371  11.357  18.150  10.963
24031W        W92372  23.667  26.953   0.758
24032W        W92373  26.674   9.330  14.279
24033W        W92374  34.109   1.854   2.898
24034W        W92375  18.076  39.556   2.284
24035W        W92376  14.620  43.856  13.531
24036W        W92377   3.440  13.261   4.764
24037W        W92378  18.256  31.993  10.046
24038W        W92379  23.225  31.920  12.478
24039W        W92380  28.164  36.011   4.784
24040W        W92381  26.565  44.994  11.967
24041W        W92382  40.387   1.750   3.811
24042W        W92383  43.326  20.249   2.187
24043W        W92384  19.246  19.778  14.984
24044W        W92385  31.918  12.295  13.046
24045W        W92386   7.222  36.421  13.403
24046W        W92387   9.391   2.267   2.727
24047W        W92388  33.922  19.079   1.376
24048W        W92389  40.361  15.736  13.894
24049W        W92390  32.901   6.182  11.070
24050W        W92391  34.005   4.344  11.068
24051W        W92392  27.594  28.051   0.333
24052W        W92393  16.803  28.101   0.296
24053W        W92394   1.454  13.661   3.327
24054W        W92395  36.370  10.804   3.677
24055W        W92396  16.674  16.653   1.393
24056W        W92397  27.596  15.770  13.377
24057W        W92398  16.773  36.027   2.364
24058W        W92399  12.699  44.987  11.485
24059W        W92400  37.427  32.005  12.884
24060W        W92401  19.770  18.126  11.088
24061W        W92402   1.307  17.246   4.266
24062W        W92403  29.668  26.482  11.957
24063W        W92404  14.285  36.870  12.920
24064W        W92405  43.492   3.284   4.627
24065W        W92406   9.162  30.962   2.834
24066W        W92407   4.219  44.329  13.971
24067W        W92408  14.595   5.718   0.291
24068W        W92409  23.035  35.892  12.906
24069W        W92410  20.704  27.674  14.492
24070W        W92411  25.033  24.484  10.893
24071W        W92412  12.827  24.594  14.764
24072W        W92413  19.038  37.040   3.229
24073W        W92414  37.043  17.176   1.766
24074W        W92415   8.717  41.469   2.803
24075W        W92416   3.866  44.011  12.566
24076W        W92417   7.666   4.761  12.564
24077W        W92418  42.910  31.083   2.363
24078W        W92419   8.834   2.765  12.470
24079W        W92420   7.678  15.162  13.832
24080W        W92421  29.509   8.682  12.446
24081W        W92422  44.488  29.146   2.361
24082W        W92423  32.968  12.661  10.559
24083W        W92424  23.050  30.447   1.357
24084W        W92425  13.783  14.283   1.860
24085W        W92426  26.557  23.153   2.304
24086W        W92427   2.771  30.005   4.706
24087W        W92428  22.065  19.750   2.885
24088W        W92429  20.257  27.489   4.773
24089W        W92430  16.215  17.254   3.641
24090W        W92431  17.593  39.002   0.245
24091W        W92432  25.675  36.949  11.992
24092W        W92433  33.434  18.546  14.763
24093W        W92434   1.292  19.699   1.893
24094W        W92435  26.514  18.294   2.896
24095W        W92436   9.224  22.658   4.797
24096W        W92437   2.961  33.449  11.424
24097W        W92438   7.709  28.546  12.955
24098W        W92439  12.817   4.347  11.947
24099W        W92440  21.104  33.029  13.389
24100W        W92441   6.402   6.833  10.926
24101W        W92442  36.368  31.563  13.890
24102W        W92443  21.738  20.526   3.304
24103W        W92444   3.429   1.859  14.838
24104W        W92445  28.534  14.789   4.309
24105W        W92446  22.068  30.589   1.737
24106W        W92447   6.873  23.691   4.130
24107W        W92448   4.792  42.808   1.818
24108W        W92449  22.731  16.218   1.445
24109W        W92450  43.953   5.905   1.321
24110W        W92451  38.519   3.290   2.680
24111W        W92452  16.777   3.715  13.386
24112W        W92453  39.861   0.305  12.427
24113W        W92454  10.763   8.357   0.314
24114W        W92455  43.935  14.145   2.370
24115W        W92456  40.930   8.271  13.977
24116W        W92457  40.964  11.227  13.502
24117W        W92458  13.309  32.097   2.741
24118W        W92459  24.586   4.398   0.454
24119W        W92460   7.258  34.574  11.388
24120W        W92461  29.462   8.166   0.428
24121W        W92462  40.919  16.130   1.233
24122W        W92463  42.291  42.359  10.569
24123W        W92464  36.908  27.116  14.401
24124W        W92465  23.989  26.528   3.316
24125W        W92466  30.073  27.460   3.726
24126W        W92467   6.295   6.749   1.930
24127W        W92468  14.812   3.327   0.776
24128W        W92469  32.919  24.016   0.469
24129W        W92470   8.270  28.959   0.267
24130W        W92471  21.537   7.667  12.907
24131W        W92472  23.618  19.227  14.293
24132W        W92473   2.906  43.278  14.846
24133W        W92474  13.747   1.245   1.330
24134W        W92475  28.179  44.378   2.841
24135W        W92476   6.183  38.339   1.745
24136W        W92477  42.327  23.556   0.820
24137W        W92478  37.966  17.125   2.898
24138W        W92479   0.426   2.278   0.801
24139W        W92480  30.122  15.710   4.314
24140W        W92481  38.494   3.241   5.093
24141W        W92482  25.576  23.596   4.655
24142W        W92483   1.909  21.656   0.407
24143W        W92484   0.451  21.699   3.673
24144W        W92485  14.235  29.502  12.527
24145W        W92486  43.490  19.195   1.263
24146W        W92487  44.888  42.931  13.864
24147W        W92488  16.580  15.791  14.287
24148W        W92489   2.956   4.862  12.479
24149W        W92490  24.997  23.675  11.092
24150W        W92491  36.563  17.680  12.444
24151W        W92492  20.082  23.037   4.261
24152W        W92493  16.162   4.825   4.719
24153W        W92494  24.217   6.811   0.411
24154W        W92495  39.380  40.326   4.268
24155W        W92496  30.552  24.616   2.246
24156W        W92497  22.144   2.387  10.945
24157W        W92498  17.676  11.145  11.906
24158W        W92499  43.464  27.169   2.396
24159W        W92500  23.202   1.838   3.661
24160W        W92501  12.148  44.007   0.274
24161W        W92502  18.659  30.075   0.396
24162W        W92503  24.631  39.977   3.293
24163W        W92504  27.011  30.144   1.232
24164W        W92505  11.652   4.896   2.369
24165W        W92506  23.155  26.545   3.172
24166W        W92507   2.899  18.588  12.049
24167W        W92508  28.435   9.802  10.952
24168W        W92509  43.285  44.334  11.122
24169W        W92510   8.404  25.571  14.350
24170W        W92511  28.588   9.183  14.871
24171W        W92512  38.856   6.333   1.768
24172W        W92513  42.934  24.173   3.666
24173W        W92514  43.289   7.316  14.857
24174W        W92515  25.026   8.390   1.873
24175W        W92516   1.312  11.766  10.408
24176W        W92517   5.892  14.743   1.852
24177W        W92518   9.710   2.939  14.760
24178W        W92519  37.398  29.578   1.242
24179W        W92520   8.848   4.349  10.943
24180W        W92521  30.114  11.349  13.394
24181W        W92522  11.751  38.970   0.268
24182W        W92523  43.864  21.751  10.139
24183W        W92524   0.862  23.605   3.357
24184W        W92525   7.388  16.714  12.954
24185W        W92526   2.863  44.932   0.847
24186W        W92527  38.998  41.481  10.409
24187W        W92528  35.376  21.247   3.303
24188W        W92529  17.772  38.394   4.309
24189W        W92530  33.958  33.381   1.333
24190W        W92531   7.770  34.378  11.107
24191W        W92532   8.901  10.835   2.779
24192W        W92533  39.865  35.528   4.678
24193W        W92534  23.573   1.433  11.583
24194W        W92535  34.614  18.284   2.334
24195W        W92536  34.048  10.307   0.809
24196W        W92537  27.571   8.268  10.438
24197W        W92538  37.994  24.481  10.974
24198W        W92539  26.141  41.491   3.790
24199W        W92540  30.421   2.284   2.347
24200W        W92541  29.589  28.171   1.780
24201W        W92542   1.317  29.038   2.406
24202W        W92543   8.871  30.067  11.520
24203W        W92544  29.923  25.714  14.981
24204W        W92545  37.973  25.614  13.440
24205W        W92546   2.912  18.090  14.301
24206W        W92547  26.140  24.135   1.296
24207W        W92548  17.272  16.112  10.409
24208W        W92549  32.427  40.442   3.728
24209W        W92550   9.738  11.322   2.836
24210W        W92551  10.158  39.317   2.349
24211W        W92552  17.767  16.604   0.353
24212W        W92553  25.610  10.224   4.824
24213W        W92554  12.349  21.670  11.542
24214W        W92555  20.683  19.198   3.239
24215W        W92556   0.442  35.059  13.941
24216W        W92557   2.256   7.263   2.392
24217W        W92558  37.957  19.699  14.947
24218W        W92559  30.082  37.532  11.027
24219W        W92560  19.224  43.415   4.677
24220W        W92561  14.803   0.370   0.815
24221W        W92562  10.690   1.416   2.894
24222W        W92563   0.432  27.670   0.939
24223W        W92564  12.631  15.786  11.477
24224W        W92565   2.731  12.613   2.404
24225W        W92566   9.352  21.578   3.838
24226W        W92567  19.098  44.456   3.332
24227W        W92568   1.376  17.208   3.863
24228W        W92569  18.622  38.937   2.868
24229W        W92570  22.230  17.630  13.516
24230W        W92571   2.376  11.201   4.674
24231W        W92572  30.438  31.101  14.366
24232W        W92573  35.460  25.553  14.309
24233W        W92574  12.156  22.543   2.743
24234W        W92575  41.843  14.653  13.521
24235W        W92576  31.080  27.570   2.787
24236W        W92577   3.447   4.921  13.799
24237W        W92578  29.084  10.271   2.894
24238W        W92579  25.578  26.976  10.113
24239W        W92580  27.155  19.676  13.063
24240W        W92581   6.683  41.862  11.529
24241W        W92582  32.558   3.802  14.851
24242W        W92583  34.509  32.425   2.214
24243W        W92584  34.938  12.815  13.462
24244W        W92585  23.531  14.818   3.837
24245W        W92586  35.499  29.015  14.274
24246W        W92587  15.799  44.927   4.777
24247W        W92588  36.902  16.641   1.268
24248W        W92589  33.567  33.113  10.110
24249W        W92590  14.271  34.948   2.782
24250W        W92591  22.700  18.721  14.462
24251W        W92592   8.382  19.538   1.331
24252W        W92593   1.451  14.300   3.313
24253W        W92594  34.567  41.039  12.478
24254W        W92595   1.270  43.502  13.355
24255W        W92596  36.019  43.483  12.459
24256W        W92597   7.279   0.492  11.879
24257W        W92598  22.034  40.857   1.332
24258W        W92599  23.098  31.936   4.837
24259W        W92600  30.648  25.180   0.936
24260W        W92601   5.882  40.432  11.413
24261W        W92602  18.738  19.173   3.360
24262W        W92603   7.192   4.757   0.852
24263W        W92604  22.571  27.456  14.024
24264W        W92605  13.150  29.638  11.510
24265W        W92606  32.475   3.352  12.981
24266W        W92607  18.690  33.937   4.127
24267W        W92608  18.651   5.690   0.940
24268W        W92609  33.895  23.544   1.766
24269W        W92610  25.969  39.875  13.889
24270W        W92611   0.767  10.336   3.250
24271W        W92612  30.454  18.570  11.033
24272W        W92613  16.638   0.460  12.532
24273W        W92614  33.877  31.613  12.890
24274W        W92615  24.655  28.020   2.298
24275W        W92616  26.469   8.893   4.137
24276W        W92617  43.938  36.855  13.528
24277W        W92618   2.891  36.034   1.865
24278W        W92619  29.043  34.001  11.390
24279W        W92620  36.966  20.631  13.811
24280W        W92621  10.638  19.186   2.318
24281W        W92622   8.779   9.837   0.344
24282W        W92623  34.924   5.699  13.060
24283W        W92624  37.939  16.195   2.386
24284W        W92625  19.053  35.373   2.847
24285W        W92626  36.056   1.334   4.116
24286W        W92627  38.929   0.491   4.631
24287W        W92628  38.340  22.168  13.838
24288W        W92629  21.163  31.507  14.907
24289W        W92630  31.565  35.522  10.525
24290W        W92631  21.754   8.702   0.249
24291W        W92632   1.759  28.079  14.864
24292W        W92633   4.218  15.146  11.917
24293W        W92634  18.548   3.392  13.317
24294W        W92635  35.964  39.856  12.910
24295W        W92636   9.393  44.951  12.424
24296W        W92637  32.619  41.428  11.566
24297W        W92638  25.708  25.093   5.303
24298W        W92639   0.485   9.840  10.971
24299W        W92640   6.264  32.136  12.412
24300W        W92641  37.546  11.312  10.640
24301W        W92642  37.978  10.731   4.200
24302W        W92643  31.556  23.049   2.902
24303W        W92644   3.777   3.353   5.176
24304W        W92645  17.100  34.874  11.482
24305W        W92646  23.692  16.585  11.487
24306W        W92647   3.931  37.851  10.561
24307W        W92648  36.937  12.713   2.251
24308W        W92649  33.012  31.487  12.909
24309W        W92650  38.917  28.955  13.988
24310W        W92651  37.478   3.214   4.281
24311W        W92652  27.639  32.087  10.017
24312W        W92653  37.581   7.273  10.026
24313W        W92654  44.766  11.761   1.818
24314W        W92655   7.726  39.379   2.734
24315W        W92656  44.788  37.528   3.731
24316W        W92657  11.861  19.685   2.317
24317W        W92658  43.792   1.807  11.516
24318W        W92659  34.584  20.708  14.861
24319W        W92660  40.353   8.342   2.855
24320W        W92661   4.700  15.324   4.694
24321W        W92662  30.008  12.783  12.458
24322W        W92663  15.149  14.703  13.415
24323W        W92664  28.492  31.566   2.279
24324W        W92665  37.876  18.274  13.404
24325W        W92666  36.426  36.491  11.532
24326W        W92667  38.973  17.558   0.762
24327W        W92668  31.454  20.745  10.468
24328W        W92669  40.357  43.284   9.466
24329W        W92670  25.575  23.616  14.946
24330W        W92671   5.856   6.299   2.349
24331W        W92672  12.648  20.754  10.896
24332W        W92673  22.704   3.286   2.872
24333W        W92674   0.275  13.809   4.170
24334W        W92675  13.319  12.231  12.520
24335W        W92676  20.183  10.770   3.177
24336W        W92677  42.455  19.661   5.233
24337W        W92678   6.808  17.604  11.915
24338W        W92679   7.704  41.416  13.929
24339W        W92680  16.182  29.655   2.693
24340W        W92681  34.400  15.324  13.807
24341W        W92682  38.946  11.867   1.233
24342W        W92683  23.993  30.633   1.861
24343W        W92684   0.901  22.513   2.757
24344W        W92685  26.507  15.824  13.325
24345W        W92686  26.566  43.798  11.004
24346W        W92687  25.975  15.642  14.429
24347W        W92688  10.167  16.746   0.244
24348W        W92689  36.052  33.470   0.343
24349W        W92690  33.465  18.659   2.377
24350W        W92691  29.659  43.485   0.330
24351W        W92692  19.105   4.295  12.085
24352W        W92693  20.649  21.259   0.906
24353W        W92694  33.552  40.334   3.312
24354W        W92695   3.843  21.238  11.993
24355W        W92696  23.076  33.460  12.037
24356W        W92697  16.214  31.144  11.548
24357W        W92698  19.176  21.108   4.801
24358W        W92699  13.759  10.873   3.648
24359W        W92700  27.528  25.503   0.940
24360W        W92701  23.124  39.413  14.316
24361W        W92702  10.212  18.114   4.136
24362W        W92703  21.129  18.178   1.230
24363W        W92704  28.949  34.604  14.514
24364W        W92705   5.720  32.096   2.722
24365W        W92706  16.757   7.264  14.282
24366W        W92707  37.059  38.513  14.408
24367W        W92708  33.906  26.508   3.243
24368W        W92709  32.110  32.992  10.138
24369W        W92710  28.114  10.703  11.604
24370W        W92711   9.862  24.134  13.023
24371W        W92712  38.887  43.904  10.972
24372W        W92713  22.185  17.142   3.278
24373W        W92714  38.879  38.452   2.304
24374W        W92715  38.380  27.076  12.031
24375W        W92716  26.187  28.634   5.631
24376W        W92717  25.505   9.251  11.038
24377W        W92718   7.303   0.904   1.352
24378W        W92719  37.559  27.005  11.888
24379W        W92720   8.174  19.276  13.938
24380W        W92721   9.192  29.624   1.700
24381W        W92722  39.949   6.685   0.452
24382W        W92723  23.568  15.219   1.233
24383W        W92724   7.884  39.986  10.113
24384W        W92725  31.514  35.532  12.892
24385W        W92726  38.900  38.411   2.882
24386W        W92727  28.021  13.633  12.963
24387W        W92728  26.962   7.182   0.299
24388W        W92729  18.179  18.601  12.070
24389W        W92730  10.746  40.846   4.657
24390W        W92731  26.530  24.976  10.454
24391W        W92732  36.869  15.601   3.791
24392W        W92733  36.045  10.762  10.938
24393W        W92734  11.805  10.275  14.473
24394W        W92735  24.649   9.797  13.887
24395W        W92736   6.426  31.104   2.355
24396W        W92737  21.734  23.613   3.774
24397W        W92738  35.427  30.643  14.891
24398W        W92739  32.548  31.642  14.481
24399W        W92740   8.778   2.729  11.453
24400W        W92741  43.383  29.601  13.489
24401W        W92742  26.188   9.761  10.918
24402W        W92743  22.746  13.795   3.739
24403W        W92744   2.304  31.035  11.093
24404W        W92745  28.656  18.559   1.380
24405W        W92746  23.014   7.718   1.707
24406W        W92747  29.642  10.336   5.172
24407W        W92748  17.738   7.877   2.778
24408W        W92749  44.787  19.728  10.501
24409W        W92750   7.192  23.230   0.268
24410W        W92751  39.515  25.052   0.797
24411W        W92752  30.629   3.947   1.744
24412W        W92753  17.064  12.298   4.666
24413W        W92754   2.460  38.481  12.511
24414W        W92755  34.918  24.107   4.282
24415W        W92756  26.161  12.774   0.801
24416W        W92757   8.724  36.996  14.913
24417W        W92758  17.566   7.819   2.354
24418W        W92759  43.960  38.959  13.912
24419W        W92760  40.398  39.332   4.326
24420W        W92761   5.755   5.353  12.354
24421W        W92762  21.636  18.129  12.395
24422W        W92763  34.518  26.591   4.766
24423W        W92764   4.380   8.719  11.001
24424W        W92765  42.448  36.909   0.808
24425W        W92766  32.532  43.816  13.482
24426W        W92767  23.496  24.086   0.889
24427W        W92768   9.868  15.116  11.900
24428W        W92769   7.906  32.134  10.117
24429W        W92770  43.366   3.386   0.257
24430W        W92771  39.457  20.250   4.740
24431W        W92772  37.841  21.051  12.447
24432W        W92773  12.649  25.651  12.986
24433W        W92774  29.088  12.712  14.018
24434W        W92775  39.432  33.917   1.781
24435W        W92776  13.607  19.156  13.945
24436W        W92777  42.428   1.301   2.236
24437W        W92778  41.293  14.290  14.313
24438W        W92779   7.257  21.590   0.441
24439W        W92780   6.881  23.600   3.362
24440W        W92781   3.274  22.513  14.976
24441W        W92782  24.004  26.663  13.052
24442W        W92783  21.092   5.741   4.720
24443W        W92784  20.617  40.367  12.368
24444W        W92785   5.290   2.844   4.324
24445W        W92786  38.495   8.365   2.875
24446W        W92787   9.721   3.851   4.296
24447W        W92788   3.294  11.798   2.760
24448W        W92789  23.585  34.963   3.306
24449W        W92790  13.679   5.341  10.981
24450W        W92791  26.036  24.594  13.064
24451W        W92792   1.889  35.107  10.437
24452W        W92793  25.693  34.403  10.972
24453W        W92794  31.639  38.999   0.280
24454W        W92795  14.241  18.579   2.201
24455W        W92796   3.285  44.929  11.571
24456W        W92797  20.608  29.572   0.901
24457W        W92798   1.793  18.212   0.294
24458W        W92799  31.006  44.418   0.253
24459W        W92800   4.773   5.882   2.245
24460W        W92801  17.256  16.127   3.239
24461W        W92802   2.791  16.568   5.598
24462W        W92803   2.926  37.448  13.037
24463W        W92804  27.575  44.866  12.905
24464W        W92805  22.561  12.244  10.462
24465W        W92806  44.005   9.733  10.487
24466W        W92807  36.038   1.883   2.878
24467W        W92808  28.448   1.325  10.594
24468W        W92809  14.711  14.754  10.515
24469W        W92810  20.592  12.750  11.013
24470W        W92811  29.587  23.608  11.016
24471W        W92812  23.222  11.246   2.697
24472W        W92813   5.718  11.331   2.777
24473W        W92814  26.986  37.852  12.935
24474W        W92815  16.100  11.339   2.791
24475W        W92816  23.558  27.489   2.192
24476W        W92817  40.038  36.970  12.074
24477W        W92818   1.311  24.043   1.758
24478W        W92819  22.530  28.138  14.305
24479W        W92820  13.803  11.319  12.416
24480W        W92821   5.694  29.445   1.882
24481W        W92822  42.349  14.597   1.269
24482W        W92823  21.080  27.101  11.881
24483W        W92824   4.352  28.624  13.880
24484W        W92825   9.309  13.826  14.290
24485W        W92826   3.344   0.490  12.349
24486W        W92827   9.678  17.592   4.215
24487W        W92828  37.833  36.381   0.741
24488W        W92829   6.383   7.705   0.326
24489W        W92830  43.494  27.950  10.994
24490W        W92831  26.005  15.770  12.483
24491W        W92832   6.372  28.548  10.440
24492W        W92833   7.333  29.135  13.884
24493W        W92834  29.932   1.457  14.486
24494W        W92835   9.648  10.362   9.558
24495W        W92836   8.732  17.725  13.805
24496W        W92837  18.260  25.147  11.049
24497W        W92838  13.172   3.369   3.814
24498W        W92839  27.518  34.867  11.932
24499W        W92840  13.639  38.018  11.873
24500W        W92841  25.662  23.053  11.881
24501W        W92842  37.865  44.353   4.166
24502W        W92843  36.873  16.570   1.810
24503W        W92844  24.094  19.196   0.312
24504W        W92845   2.446  29.535  10.452
24505W        W92846  40.502  27.958   1.285
24506W        W92847  27.004  25.977  12.377
24507W        W92848  43.471   9.311  13.409
24508W        W92849  11.239  34.989  11.009
24509W        W92850  16.090  25.089  11.871
24510W        W92851   0.413  18.546  12.533
24511W        W92852  15.791   7.810   0.842
24512W        W92853  19.592  42.812   4.243
24513W        W92854  10.286  34.980  10.515
24514W        W92855  15.264  25.685  11.558
24515W        W92856  41.917  25.674  11.507
24516W        W92857   5.889  10.764   3.348
24517W        W92858   4.275  41.007   4.128
24518W        W92859  35.096  42.427  14.835
24519W        W92860  17.628  19.247  12.996
24520W        W92861  34.109  30.420   1.803
24521W        W92862  33.053  44.298  14.919
24522W        W92863  30.129  37.435  14.896
24523W        W92864  37.907  28.969   1.214
24524W        W92865  21.577   3.332   0.751
24525W        W92866  21.697  26.024   0.804
24526W        W92867  36.374  39.537  14.849
24527W        W92868  41.325   3.797   0.405
24528W        W92869   8.254  37.033   0.412
24529W        W92870  40.442  10.654  14.020
24530W        W92871  19.043  19.585   2.889
24531W        W92872  24.210   8.873   4.330
24532W        W92873  33.922  34.379   2.381
24533W        W92874   7.383  33.569   0.296
24534W        W92875  10.811   9.715   3.297
24535W        W92876  22.593  37.391  13.923
24536W        W92877   6.907  20.195   3.682
24537W        W92878   2.450  40.478   3.228
24538W        W92879   8.291   8.810  14.003
24539W        W92880  24.036   6.809  14.417
24540W        W92881   8.177  38.830  12.917
24541W        W92882  19.711  22.137  11.887
24542W        W92883   2.387  13.293  14.946
24543W        W92884  14.124   2.255  11.437
24544W        W92885  39.995  37.576   1.885
24545W        W92886  30.076  42.315  13.003
24546W        W92887  28.675  33.953  14.803
24547W        W92888  31.110  18.552  12.035
24548W        W92889  20.114  10.301  11.436
24549W        W92890  29.586  26.524   1.435
24550W        W92891  25.189   4.857  10.978
24551W        W92892  34.401  39.342   0.460
24552W        W92893  21.705   4.825   3.241
24553W        W92894  41.331  23.078   2.888
24554W        W92895  44.399  20.085   2.803
24555W        W92896  15.705  23.520  14.028
24556W        W92897   4.342   8.353  13.892
24557W        W92898   6.803   0.490  14.866
24558W        W92899   0.940  10.777  10.992
24559W        W92900   5.851  43.791  14.813
24560W        W92901  44.871   9.744  13.430
24561W        W92902  26.674  19.260  12.038
24562W        W92903  33.625  29.558   3.777
24563W        W92904  35.090  35.593   0.794
24564W        W92905  22.595  33.618   1.433
24565W        W92906  33.604  25.510   4.309
24566W        W92907  42.821   6.415   1.708
24567W        W92908   7.852  32.910   4.289
24568W        W92909  34.944   5.692   4.163
24569W        W92910  37.423  40.938  13.316
24570W        W92911  20.705  21.064  10.566
24571W        W92912  32.940   2.364  10.420
24572W        W92913  28.049  17.680  14.908
24573W        W92914  31.900  39.447   3.281
24574W        W92915  31.641  14.734   4.696
24575W        W92916   7.355   3.766  11.958
24576W        W92917  42.030  20.239  10.429
24577W        W92918  31.108   5.226   2.207
24578W        W92919  42.477  32.542  13.512
24579W        W92920  28.543  37.081  13.474
24580W        W92921   0.331  14.194  14.496
24581W        W92922  42.938  17.131   2.255
24582W        W92923  22.536   0.461  14.400
24583W        W92924   1.239   3.771  13.001
24584W        W92925  20.032  10.264   5.311
24585W        W92926   0.897  34.500  12.945
24586W        W92927  18.152  23.557  10.512
24587W        W92928  32.894  44.972  12.436
24588W        W92929  36.462  36.543   3.775
24589W        W92930   7.374  30.583   1.840
24590W        W92931  34.436  14.724  14.941
24591W        W92932  37.465   5.885  11.092
24592W        W92933   2.920  14.257  11.115
24593W        W92934  34.435  10.731  12.903
24594W        W92935  40.037  38.542   1.326
24595W        W92936   5.888  39.334   3.342
24596W        W92937   7.885  22.135   1.738
24597W        W92938  39.539  43.388   4.662
24598W        W92939  29.158  44.294  14.908
24599W        W92940  34.023  21.616  13.018
24600W        W92941  16.800  23.603  13.874
24601W        W92942  12.744   3.316   2.853
24602W        W92943  38.394   2.452  14.926
24603W        W92944   7.232   0.263   1.882
24604W        W92945  35.061   9.263  11.531
24605W        W92946  32.927  31.560   2.893
24606W        W92947  10.340  35.983  12.096
24607W        W92948  27.116  33.068   3.202
24608W        W92949   0.458  41.356   4.707
24609W        W92950   7.410  40.985  12.829
24610W        W92951  43.859  12.726  11.055
24611W        W92952  21.215  23.120   0.469
24612W        W92953  33.456   9.345   2.354
24613W        W92954  13.622   8.800  13.348
24614W        W92955  33.966  10.211   1.327
24615W        W92956  12.234  21.149  14.466
24616W        W92957  25.624  32.932  11.935
24617W        W92958  26.014  36.460  12.526
24618W        W92959  10.189  23.521  10.065
24619W        W92960   3.362  21.736  12.095
24620W        W92961  16.304   4.355   0.278
24621W        W92962  31.462  10.835  10.626
24622W        W92963   0.462  29.093   4.675
24623W        W92964  41.988  21.750   0.916
24624W        W92965  12.756  37.954   0.745
24625W        W92966  31.436  29.920   0.454
24626W        W92967  26.522  13.325  14.292
24627W        W92968  13.791  33.930   4.620
24628W        W92969  11.689   1.762   4.122
24629W        W92970  17.132   7.179   1.742
24630W        W92971  20.212   1.835   1.745
24631W        W92972   5.861  19.147   0.754
24632W        W92973  27.077  43.953  12.464
24633W        W92974  40.332   4.324   2.899
24634W        W92975  10.655  17.680   1.774
24635W        W92976  27.473  14.330   1.700
24636W        W92977   6.230  27.685  13.828
24637W        W92978  20.528  31.011  12.470
24638W        W92979  12.633  13.722  12.027
24639W        W92980  23.144  21.141  14.317
24640W        W92981   3.848  28.452  12.533
24641W        W92982  28.168  27.967   0.445
24642W        W92983  33.582  12.119   2.324
24643W        W92984  32.546  25.527   3.313
24644W        W92985  32.129  39.344   5.713
24645W        W92986  12.621  13.239  13.816
24646W        W92987  24.228  34.599  10.641
24647W        W92988  20.188  12.629  10.557
24648W        W92989  35.855  23.076  10.921
24649W        W92990  20.537  21.093  11.596
24650W        W92991  20.712  33.598   2.873
24651W        W92992   3.266  25.637  13.459
24652W        W92993   0.394  14.235   1.779
24653W        W92994  38.065  26.154  11.572
24654W        W92995   8.358   9.191   3.154
24655W        W92996  11.717  42.849   1.291
24656W        W92997   9.705  18.715  13.362
24657W        W92998  22.610   6.757   1.702
24658W        W92999  22.519   8.743  14.916
24659W        W93000  17.064  38.340   4.669
24660W        W93001  20.252   2.291  11.106
24661W        W93002   3.858  35.876  12.464
24662W        W93003  14.197  37.505  10.988
24663W        W93004   2.851  25.090  13.464
24664W        W93005  25.484  36.501  13.530
24665W        W93006  21.205  41.840   0.856
24666W        W93007  16.718  39.523   1.304
24667W        W93008  39.496  35.998  14.502
24668W        W93009   2.353  16.616  11.390
24669W        W93010  41.833  25.123  13.876
24670W        W93011   6.770   3.404   4.221
24671W        W93012  39.062  30.984   0.452
24672W        W93013  35.515  14.607  11.870
24673W        W93014   2.791   9.392   3.336
24674W        W93015  41.825  17.587  13.914
24675W        W93016  15.690  34.933   5.307
24676W        W93017  18.671  33.981  12.069
24677W        W93018  42.491  35.390   2.698
24678W        W93019  34.602  18.760   2.371
24679W        W93020  16.751  40.936  13.469
24680W        W93021  29.071  11.151  10.986
24681W        W93022  36.409  26.584  11.036
24682W        W93023  17.133  25.215  12.471
24683W        W93024   8.860  25.088  12.554
24684W        W93025  42.433  18.158  13.418
24685W        W93026   0.315  12.122  13.542
24686W        W93027   4.240   5.372  11.536
24687W        W93028   4.910  13.726   2.709
24688W        W93029   0.408   0.746  11.391
24689W        W93030   7.283  38.024  12.037
24690W        W93031  23.022  29.116   1.877
24691W        W93032   2.245  22.151   0.909
24692W        W93033  30.541  10.220   3.664
24693W        W93034   3.827  20.246   0.731
24694W        W93035   7.291  20.687   2.401
24695W        W93036   9.352  34.445  10.448
24696W        W93037  41.974  42.881   1.762
24697W        W93038  11.355  29.048   1.241
24698W        W93039  39.535  18.758   2.195
24699W        W93040  34.978  23.134   1.907
24700W        W93041  19.768  21.620   4.205
24701W        W93042  16.643  18.220  14.380
24702W        W93043   8.162  44.011  14.398
24703W        W93044  26.603  23.053  12.052
24704W        W93045   6.760  12.642   0.250
24705W        W93046  14.309   5.224   1.903
24706W        W93047   3.846  14.140  10.518
24707W        W93048  14.206   6.376   0.414
24708W        W93049  14.319   5.387   3.842
24709W        W93050   6.767  40.482   2.378
24710W        W93051  17.238  16.245   1.715
24711W        W93052  28.105  24.214   2.741
24712W        W93053  32.115  35.023  12.520
24713W        W93054  30.523  41.408   0.384
24714W        W93055  29.573  42.377  12.367
24715W        W93056  13.322  22.036  10.920
24716W        W93057  23.522  40.328   1.741
24717W        W93058  26.605   1.923   2.230
24718W        W93059  26.100  26.612  14.293
24719W        W93060  14.654   0.394  13.400
24720W        W93061  32.058  16.235  12.430
24721W        W93062  26.513  31.111   4.234
24722W        W93063  26.481  32.539  13.524
24723W        W93064  34.113  10.195   4.310
24724W        W93065  12.683   6.761  14.388
24725W        W93066   0.964  17.750  10.603
24726W        W93067   0.341  28.550  12.996
24727W        W93068  27.470  29.442  10.639
24728W        W93069  18.259  39.376   3.849
24729W        W93070  17.076  34.040   1.278
24730W        W93071  17.621   7.371  12.497
24731W        W93072  31.533  26.127  14.843
24732W        W93073  29.493   2.423   3.638
24733W        W93074  25.695  12.786   0.752
24734W        W93075  20.734  13.195  11.046
24735W        W93076  24.486  12.321   3.313
24736W        W93077  36.879  36.991   1.322
24737W        W93078  28.151  12.338  14.331
24738W        W93079   0.404  27.964   3.198
24739W        W93080   8.882  44.332  11.884
24740W        W93081   0.968  19.746   4.127
24741W        W93082  40.905  13.119   0.429
24742W        W93083  26.083  44.338   1.764
24743W        W93084  16.175  32.995  12.070
24744W        W93085  19.779  44.917  10.618
24745W        W93086  32.014  11.288   1.768
24746W        W93087  15.117   2.373   4.636
24747W        W93088   6.795  18.658   4.734
24748W        W93089   7.394  16.623   4.655
24749W        W93090  28.999  32.535   0.815
24750W        W93091  20.074  19.256   3.715
24751W        W93092   6.679  42.404   0.733
24752W        W93093   3.380   6.696   0.295
24753W        W93094  15.684  43.865  11.482
24754W        W93095   6.903   2.909   0.914
24755W        W93096  40.438  39.971  11.871
24756W        W93097  18.142  16.572  13.510
24757W        W93098  26.479  28.672   3.278
24758W        W93099  33.053  16.782   4.730
24759W        W93100  42.873  36.425   2.341
24760W        W93101  32.457  26.516  12.958
24761W        W93102  35.051  27.479   2.698
24762W        W93103   9.852  27.010  13.056
24763W        W93104  20.701  14.807  10.612
24764W        W93105  12.165   9.372   0.947
24765W        W93106  21.710  17.217  10.144
24766W        W93107   0.778  17.785   0.444
24767W        W93108  36.084  39.332   3.776
24768W        W93109  28.484  43.017  14.324
24769W        W93110  18.211  18.104  14.364
24770W        W93111  15.780   3.789  10.434
24771W        W93112  34.402  40.818  14.841
24772W        W93113  38.347  35.508  14.339
24773W        W93114  11.202   0.754   0.857
24774W        W93115   9.857  33.944   2.205
24775W        W93116  11.749   9.295  11.091
24776W        W93117   8.310   8.676  12.926
24777W        W93118  25.091  34.884  11.538
24778W        W93119   2.918  27.681  13.924
24779W        W93120  41.871  10.877   3.830
24780W        W93121  32.406  33.424  11.446
24781W        W93122  31.471  31.613  13.490
24782W        W93123  40.998  28.082   2.710
24783W        W93124   1.336  36.970  10.485
24784W        W93125   3.895  17.269  11.922
24785W        W93126   7.245  41.820   2.771
24786W        W93127  35.569  20.685  11.928
24787W        W93128  25.989  39.941  12.993
24788W        W93129   7.287  16.305   3.181
24789W        W93130  44.309  44.852  11.593
24790W        W93131   8.766  32.038   2.406
24791W        W93132   4.745  41.879   1.717
24792W        W93133  13.770   0.325   2.862
24793W        W93134  13.344  34.555  14.331
24794W        W93135  35.853  44.279  14.472
24795W        W93136  16.104  34.066  10.496
24796W        W93137  43.914   3.793   3.663
24797W        W93138  23.507  40.459   4.649
24798W        W93139  25.969  29.130   3.186
24799W        W93140  13.200  18.592  11.473
24800W        W93141  18.564  37.027   1.432
24801W        W93142  35.513  22.226   1.772
24802W        W93143  40.412  12.343   2.414
24803W        W93144  32.940  25.625  12.835
24804W        W93145   5.774  15.657   0.375
24805W        W93146  36.963  19.279  12.538
24806W        W93147  33.420  11.153   3.153
24807W        W93148   9.683  18.775  10.904
24808W        W93149  21.549  26.609   3.313
24809W        W93150   4.930  30.089   2.683
24810W        W93151  29.068  23.075   4.709
24811W        W93152  22.556  35.473  12.862
24812W        W93153  43.870   9.889  14.379
24813W        W93154  22.632  35.948  11.938
24814W        W93155  29.136  28.624  11.085
24815W        W93156   2.758  41.898  14.025
24816W        W93157  15.823  44.966  14.376
24817W        W93158  10.261  36.955   2.885
24818W        W93159  44.324  23.492  13.392
24819W        W93160  25.540   0.423   0.728
24820W        W93161  40.511   1.255   0.729
24821W        W93162   1.463   5.745  14.507
24822W        W93163   6.259  22.533  13.917
24823W        W93164  15.632   9.167  12.987
24824W        W93165   9.330  38.465  12.540
24825W        W93166   3.249  39.557   3.379
24826W        W93167  43.929   2.928   0.769
24827W        W93168  31.082  43.419   3.663
24828W        W93169  18.618  17.096   0.340
24829W        W93170  31.907  21.149  11.601
24830W        W93171  39.479  21.705  13.425
24831W        W93172  35.099  24.581  11.098
24832W        W93173   2.900  40.421   2.868
24833W        W93174  34.404   0.881   0.952
24834W        W93175  29.051  33.116  14.764
24835W        W93176  40.038  34.507  14.465
24836W        W93177  12.187   0.401   2.345
24837W        W93178  23.623  31.470   1.864
24838W        W93179   1.251  21.583  14.485
24839W        W93180  30.462  42.332   0.242
24840W        W93181  21.100  16.638  11.502
24841W        W93182  18.698  36.399   1.702
24842W        W93183  27.178  17.061   0.258
24843W        W93184  30.006   3.305  14.934
24844W        W93185  39.891  39.353  10.603
24845W        W93186  40.834  33.131  13.025
24846W        W93187   1.456  32.142   4.264
24847W        W93188  20.198  15.622  11.531
24848W        W93189  19.753   3.712   5.220
24849W        W93190  28.946   1.300   1.923
24850W        W93191  29.649  26.699  13.916
24851W        W93192  35.050  16.272  14.296
24852W        W93193   9.857  24.621   3.832
24853W        W93194   9.366  19.695  13.885
24854W        W93195  25.617  31.648   3.295
24855W        W93196  28.605  35.541  13.433
24856W        W93197  38.533   1.276   2.696
24857W        W93198  41.878  25.610   0.428
24858W        W93199  25.508  37.536  13.383
24859W        W93200  18.683   4.881   4.116
24860W        W93201  33.590  27.466  11.915
24861W        W93202  25.184  24.631  11.412
24862W        W93203  38.841  31.462   0.792
24863W        W93204   8.814   3.852  13.361
24864W        W93205  24.076  25.196   1.427
24865W        W93206  18.748  29.440  14.445
24866W        W93207   2.933  28.587   0.444
24867W        W93208  25.497  35.988  12.026
24868W        W93209  18.743  29.599   1.322
24869W        W93210  37.474   1.429  14.786
24870W        W93211   8.245  15.294   4.240
24871W        W93212  26.571  15.257   0.370
24872W        W93213   2.767  38.539  11.959
24873W        W93214  17.093  44.953   2.784
24874W        W93215  37.500   2.400  14.911
24875W        W93216  23.202  16.260  11.908
24876W        W93217   4.778   6.253  13.542
24877W        W93218   4.831  11.245   0.276
24878W        W93219   6.265  20.069  10.465
24879W        W93220  12.246  28.502   1.773
24880W        W93221  31.079  10.299  14.904
24881W        W93222  17.281  20.631   0.322
24882W        W93223  41.356  10.219   3.270
24883W        W93224  11.280  35.946   2.674
24884W        W93225   7.368   3.764   2.196
24885W        W93226   6.860  33.607  14.390
24886W        W93227  20.159  16.185   0.936
24887W        W93228  13.664  18.603  11.973
24888W        W93229   6.309  34.452   3.272
24889W        W93230  27.127  34.461   2.827
24890W        W93231  40.895  16.751  13.934
24891W        W93232  44.295  11.687   4.136
24892W        W93233  37.554   0.349   0.340
24893W        W93234   8.405   4.268   3.160
24894W        W93235  35.047  41.439  14.884
24895W        W93236  20.243  25.629   3.213
24896W        W93237  22.541  44.831   3.311
24897W        W93238  44.859  29.457   3.322
24898W        W93239  11.286  11.855   0.920
24899W        W93240  18.762  11.623   1.838
24900W        W93241  41.304  44.345   2.828
24901W        W93242  22.224  34.507   4.276
24902W        W93243  10.147  20.539  10.573
24903W        W93244  38.068  21.212   5.120
24904W        W93245  11.672   7.316   2.408
24905W        W93246  32.053  20.718  12.922
24906W        W93247  29.616  28.516  12.839
24907W        W93248  17.729  12.631   4.774
24908W        W93249  10.380   0.781  13.409
24909W        W93250  15.103  42.811   2.410
24910W        W93251  15.182   5.197   4.711
24911W        W93252  16.641  31.909   5.789
24912W        W93253  12.118  26.163  10.527
24913W        W93254  16.316  14.173   0.458
24914W        W93255  19.096  18.292  12.934
24915W        W93256   4.775  36.054   5.237
24916W        W93257  44.791  44.498  10.571
24917W        W93258  35.923  21.591  14.008
24918W        W93259  41.844  30.164   2.791
24919W        W93260  18.272  12.328   1.235
24920W        W93261  20.170   3.244  13.884
24921W        W93262  20.525  15.247   1.730
24922W        W93263  39.911  43.410   4.318
24923W        W93264   7.269  16.635  11.525
24924W        W93265  14.669   7.876   0.393
24925W        W93266   6.860  22.166   2.725
24926W        W93267   4.367  37.944   4.601
24927W        W93268  36.567   4.254   2.792
24928W        W93269  40.945  26.514   2.669
24929W        W93270  24.153   1.809  13.314
24930W        W93271  28.612  23.635   2.895
24931W        W93272  20.655   6.813  11.610
24932W        W93273  13.338  23.101  14.432
24933W        W93274   5.429  37.363  11.986
24934W        W93275  13.802   3.411   4.773
24935W        W93276  21.530  22.234  13.995
24936W        W93277  15.635  38.445   2.684
24937W        W93278  16.636   0.355  12.984
24938W        W93279  35.026   2.329  10.500
24939W        W93280  23.692  10.372   0.287
24940W        W93281  18.181  14.153  10.526
24941W        W93282  27.597  14.204   4.195
24942W        W93283  17.739   1.810   3.798
24943W        W93284   3.328  41.374   3.368
24944W        W93285  27.588  38.037  11.992
24945W        W93286  28.123  14.285  12.378
24946W        W93287   1.259  28.054  10.634
24947W        W93288  25.058  18.086   4.330
24948W        W93289  30.163  37.512   4.731
24949W        W93290  13.257  24.647  11.105
24950W        W93291  35.953  16.714  11.388
24951W        W93292  13.118  15.806   0.823
24952W        W93293  31.537   1.392   4.731
24953W        W93294  17.183   5.387   2.359
24954W        W93295  30.132  35.556   1.774
24955W        W93296   6.896  10.676   1.430
24956W        W93297  15.171   2.298  12.486
24957W        W93298  36.515  25.172  13.000
24958W        W93299  25.519   1.968   2.781
24959W        W93300  40.816  34.371  13.533
24960W        W93301  41.939  42.832  10.574
24961W        W93302  13.842  18.658  10.530
24962W        W93303  40.435  13.123  11.881
24963W        W93304  17.277  35.572   0.246
24964W        W93305  32.476   0.751  12.533
24965W        W93306  35.395  11.280   4.255
24966W        W93307  26.648  24.193   5.143
24967W        W93308  44.777  36.577  14.464
24968W        W93309  33.610   2.388   2.844
24969W        W93310  35.953  20.731   4.288
24970W        W93311  32.966   2.830   1.228
24971W        W93312  14.822   3.793  10.528
24972W        W93313   5.395   8.673  11.078
24973W        W93314   7.239  39.913   1.268
24974W        W93315   0.924  32.131   3.183
24975W        W93316  37.046  16.233  11.540
24976W        W93317  31.641  27.578  13.035
24977W        W93318  40.992  26.997   2.756
24978W        W93319  25.064   5.933   0.849
24979W        W93320   7.179  12.804  14.019
24980W        W93321  28.515  30.941  11.494
24981W        W93322  31.897  42.832   1.713
24982W        W93323   6.691  10.301   1.911
24983W        W93324  29.644  21.064  10.569
24984W        W93325  29.070  34.410  10.969
24985W        W93326  40.961  37.513  14.020
24986W        W93327  29.022  44.319  13.903
24987W        W93328  29.021   0.369  13.804
24988W        W93329   1.387  21.048  10.546
24989W        W93330  44.273  14.714  13.454
24990W        W93331  42.467  19.228  11.875
24991W        W93332   3.226   1.295   2.188
24992W        W93333  42.945  14.098   2.200
24993W        W93334  22.176  24.003   2.862
24994W        W93335  27.469  20.244   1.889
24995W        W93336  40.320  11.292  11.009
24996W        W93337   0.912  19.672  14.919
24997W        W93338   4.285  16.755  13.997
24998W        W93339  41.313   0.368   3.647
24999W        W93340  38.441  23.135   4.744
25000W        W93341   5.313  13.122   0.863
25001W        W93342  12.772  30.481  13.960
25002W        W93343  28.090  18.156   9.938
25003W        W93344  22.699   1.948  10.034
25004W        W93345  16.177   1.831  11.991
25005W        W93346  34.599  42.919  14.910
25006W        W93347  43.821  40.896  13.043
25007W        W93348  21.199  24.014  13.513
25008W        W93349  41.823   4.944  10.431
25009W        W93350  39.980   9.827  14.973
25010W        W93351  36.351  16.241   3.662
25011W        W93352  15.634  30.517   1.797
25012W        W93353   0.759   9.671  10.044
25013W        W93354   4.911   4.204   1.885
25014W        W93355  29.621  28.024   2.332
25015W        W93356  20.615  11.345   3.247
25016W        W93357   9.204  24.574   2.753
25017W        W93358  17.669  14.295   4.617
25018W        W93359   4.843  28.519  12.956
25019W        W93360  29.666  42.992  14.858
25020W        W93361  35.490  44.504   1.779
25021W        W93362  24.076  34.952  14.286
25022W        W93363  31.518  15.796   3.232
25023W        W93364  12.343  28.930   0.745
25024W        W93365  40.393  25.631  10.896
25025W        W93366  37.995  36.887   4.695
25026W        W93367  34.563  44.392  14.860
25027W        W93368  19.160  36.940   4.667
25028W        W93369  30.429  18.174   2.692
25029W        W93370  19.137  10.671   1.236
25030W        W93371  28.929  12.225  13.792
25031W        W93372   8.802  36.043   3.740
25032W        W93373  13.690  33.912   3.725
25033W        W93374  40.885   4.329   2.729
25034W        W93375  40.831  42.940   0.257
25035W        W93376  24.670  41.028  11.934
25036W        W93377  40.362  17.563   3.298
25037W        W93378  39.963  38.430  14.870
25038W        W93379  25.986   0.762  13.378
25039W        W93380  15.218  22.566  12.035
25040W        W93381  24.666  36.037  12.504
25041W        W93382  41.332  25.472  13.486
25042W        W93383  43.293   8.899  10.510
25043W        W93384  26.205   2.239   4.344
25044W        W93385  32.524   6.845   3.274
25045W        W93386  12.329  40.456  13.875
25046W        W93387  29.920  35.854   4.312
25047W        W93388  38.446  28.074  10.519
25048W        W93389   3.365  28.569   0.834
25049W        W93390  27.617  15.286   1.375
25050W        W93391  10.217  12.328  11.041
25051W        W93392  42.518  32.087  11.485
25052W        W93393  44.453  38.045   4.266
25053W        W93394   4.755  12.699   1.806
25054W        W93395  16.685  41.823   1.377
25055W        W93396   1.430  27.035  12.385
25056W        W93397  22.635   0.494  13.505
25057W        W93398  31.988  29.464  10.991
25058W        W93399  13.778  35.048   3.386
25059W        W93400  10.169  12.173   2.335
25060W        W93401  14.631   7.301  12.396
25061W        W93402  27.025  40.026   2.725
25062W        W93403  26.549  15.150  14.431
25063W        W93404  21.651  19.176  12.372
25064W        W93405   4.450  10.228  14.418
25065W        W93406   3.807  38.409   1.415
25066W        W93407   4.798  19.107   3.240
25067W        W93408   6.290  33.944   4.208
25068W        W93409  14.170  17.213   2.800
25069W        W93410  28.624  29.102  10.909
25070W        W93411  11.316  38.822   0.892
25071W        W93412  20.214  39.527   3.835
25072W        W93413  28.625  16.762   0.418
25073W        W93414  24.514  27.558   3.715
25074W        W93415   2.347  18.732   1.269
25075W        W93416   2.748  42.308   2.895
25076W        W93417  24.658  40.926   4.622
25077W        W93418  38.552  35.437   1.695
25078W        W93419  15.781  23.556   5.630
25079W        W93420   3.279  21.589   1.403
25080W        W93421   9.745  28.504  11.025
25081W        W93422  31.046  31.964  13.007
25082W        W93423  42.391  33.433  13.392
25083W        W93424  25.217  26.516  12.481
25084W        W93425   5.811   2.305   3.196
25085W        W93426  28.648  18.636  10.622
25086W        W93427  21.025  25.626  13.957
25087W        W93428  16.278   2.403   2.368
25088W        W93429  30.053   6.789  12.445
25089W        W93430  34.058  41.009  10.034
25090W        W93431  17.203  18.704   3.374
25091W        W93432  23.669  37.348  13.539
25092W        W93433  16.283  41.814  14.514
25093W        W93434   4.308  36.956  12.040
25094W        W93435  36.457  17.165   1.391
25095W        W93436  35.038   0.305  11.527
25096W        W93437  40.051   7.373   2.832
25097W        W93438  44.811   2.357   2.887
25098W        W93439  41.808   5.902  11.397
25099W        W93440  10.856   3.816   3.631
25100W        W93441   4.337  14.722  11.375
25101W        W93442   3.230  30.094  13.049
25102W        W93443  18.782  44.867   4.139
25103W        W93444  26.648  30.459  14.356
25104W        W93445  12.169   4.434   4.799
25105W        W93446   6.812  23.700  12.897
25106W        W93447   4.887  27.503   1.308
25107W        W93448  32.602  44.978  13.941
25108W        W93449  10.308   0.923  12.530
25109W        W93450  28.038  33.608   2.312
25110W        W93451  16.220   3.938   3.765
25111W        W93452  40.971  44.988   2.838
25112W        W93453  30.597   5.877  12.893
25113W        W93454  35.987   3.397  13.423
25114W        W93455  10.223  43.812  14.445
25115W        W93456  34.487  40.537  14.988
25116W        W93457   8.762   0.776  11.528
25117W        W93458  30.110  43.374   1.880
25118W        W93459  29.657  15.307   4.698
25119W        W93460  17.075  20.654  14.286
25120W        W93461  39.530  32.943   0.926
25121W        W93462  41.410  23.202  14.931
25122W        W93463   7.869   9.841   4.788
25123W        W93464  29.662  42.958  12.026
25124W        W93465  34.608   4.868   3.724
25125W        W93466  12.775   6.680   1.431
25126W        W93467  25.598   5.886  12.341
25127W        W93468   2.267  33.959   4.740
25128W        W93469   9.762   9.779   2.211
25129W        W93470  39.445  24.565   2.672
25130W        W93471  27.007  25.983  10.923
25131W        W93472  28.149  30.564   1.327
25132W        W93473  18.622  28.560   4.125
25133W        W93474  29.635   2.811   4.193
25134W        W93475  10.782  42.886   4.252
25135W        W93476  40.386  13.267   0.965
25136W        W93477  16.241  27.651  10.984
25137W        W93478  28.679  11.860  13.915
25138W        W93479  37.439   0.751  10.893
25139W        W93480  13.629  22.715  11.491
25140W        W93481  17.581   2.929   1.789
25141W        W93482   5.829  18.096   4.198
25142W        W93483  13.680   6.221   1.856
25143W        W93484  16.625  31.058  10.911
25144W        W93485  44.484  24.672  12.533
25145W        W93486   8.739   0.449  13.348
25146W        W93487   9.792  36.415  12.088
25147W        W93488  11.786   4.704  14.310
25148W        W93489   3.860  34.921   3.273
25149W        W93490  16.196  36.383  13.517
25150W        W93491   4.428   8.396   1.798
25151W        W93492  16.145   4.790   3.229
25152W        W93493  35.967  37.531  10.541
25153W        W93494   7.192  17.102  13.950
25154W        W93495  40.351  27.978   0.398
25155W        W93496  14.832  13.130   4.275
25156W        W93497  27.152   3.221   2.414
25157W        W93498   9.383   5.823  11.471
25158W        W93499   4.735  26.153   1.389
25159W        W93500  26.550  41.348  13.882
25160W        W93501   4.247  41.424   3.772
25161W        W93502  22.503  23.734   0.403
25162W        W93503  37.984  27.478   0.902
25163W        W93504  23.989   4.241   2.873
25164W        W93505  37.002  26.027   1.425
25165W        W93506  43.834  34.098  14.901
25166W        W93507  34.031  10.641  13.452
25167W        W93508  41.804   9.292   3.378
25168W        W93509  31.108  28.622   1.705
25169W        W93510   7.252  28.018   3.251
25170W        W93511  44.903  42.806   3.252
25171W        W93512  12.700  37.004   4.772
25172W        W93513  22.505  40.901  10.050
25173W        W93514  34.895  12.187   4.800
25174W        W93515  12.678  33.914   0.810
25175W        W93516  42.787  34.008  10.634
25176W        W93517  39.419  15.148  10.457
25177W        W93518   3.246  23.581  14.333
25178W        W93519  17.306  35.437  10.070
25179W        W93520  23.228  24.631   1.822
25180W        W93521  15.602  25.640   4.804
25181W        W93522   4.824   9.329   5.279
25182W        W93523  40.431   6.256  14.353
25183W        W93524  19.175   9.332   3.330
25184W        W93525  29.010  22.142  11.563
25185W        W93526  43.855  40.422  12.571
25186W        W93527  12.359  16.621  12.576
25187W        W93528  18.129  36.445   2.336
25188W        W93529  30.613  35.952   3.328
25189W        W93530  43.982  17.693   2.225
25190W        W93531   5.217  39.941   0.746
25191W        W93532   0.956  24.978   4.702
25192W        W93533  12.172  19.683   4.641
25193W        W93534   9.799  13.814   4.641
25194W        W93535  18.215  38.460   4.306
25195W        W93536  34.047  15.645  12.456
25196W        W93537  10.759  36.521   4.256
25197W        W93538  17.574   0.268   2.262
25198W        W93539  28.057  41.360  10.071
25199W        W93540  20.740  14.623   3.208
25200W        W93541  30.063  39.459  14.438
25201W        W93542  32.575  31.472   3.338
25202W        W93543   9.859   2.460  10.481
25203W        W93544  16.093  37.040  11.929
25204W        W93545  14.111  24.544   4.798
25205W        W93546  24.707  39.947   1.333
25206W        W93547  41.329  35.865   1.819
25207W        W93548  12.823  13.163   1.360
25208W        W93549  22.147  35.465  12.847
25209W        W93550  42.877   4.311  14.368
25210W        W93551   4.789  34.444  12.021
25211W        W93552  31.629  14.683   1.298
25212W        W93553  25.995  34.870   4.681
25213W        W93554  38.404  36.037  14.294
25214W        W93555   9.855  14.633   2.228
25215W        W93556  28.674   6.314   3.169
25216W        W93557   9.713   4.383   4.808
25217W        W93558  26.994  41.400  11.443
25218W        W93559  41.454  17.302   4.329
25219W        W93560   4.773  29.490  14.485
25220W        W93561  41.377  23.218  12.849
25221W        W93562  34.500  32.079   1.907
25222W        W93563  11.167   8.352   0.428
25223W        W93564  27.002   5.193  12.457
25224W        W93565  44.482  23.076  13.474
25225W        W93566  20.077  11.350  13.441
25226W        W93567  10.651  18.766  12.024
25227W        W93568  14.619  40.937  11.957
25228W        W93569   2.785  22.593   3.853
25229W        W93570  16.207  22.165  10.417
25230W        W93571  35.071   9.762  12.915
25231W        W93572  37.497  31.053   1.877
25232W        W93573  17.658  33.387   5.141
25233W        W93574   2.854  14.806  13.952
25234W        W93575   9.746   1.365   2.401
25235W        W93576  16.177  37.370   0.912
25236W        W93577   1.237  32.061   3.752
25237W        W93578  31.093  14.614   3.725
25238W        W93579  34.423  29.644  14.029
25239W        W93580  18.219  18.771  14.413
25240W        W93581   7.848  15.170  14.766
25241W        W93582   2.267  29.079  14.815
25242W        W93583  17.723  34.881   3.334
25243W        W93584   5.794  29.949   3.237
25244W        W93585   8.873  28.639   1.702
25245W        W93586   1.362  33.525  11.608
25246W        W93587  12.177   0.411  11.129
25247W        W93588  20.693  27.472   3.711
25248W        W93589  35.077  44.987  14.019
25249W        W93590   6.734  38.403   0.768
25250W        W93591  38.374   2.780   1.426
25251W        W93592  21.142  14.675  12.530
25252W        W93593  34.500   5.837   0.371
25253W        W93594  33.520  39.401   4.186
25254W        W93595   6.244  36.907   4.722
25255W        W93596  22.610  20.126  13.815
25256W        W93597   2.776  36.542   0.897
25257W        W93598  23.997  32.134   0.786
25258W        W93599  39.859   4.345   4.773
25259W        W93600  42.985  25.141   1.247
25260W        W93601  22.118   0.829  13.921
25261W        W93602  10.878  18.640  10.906
25262W        W93603  43.892   3.311  14.788
25263W        W93604  37.440  30.982  10.501
25264W        W93605  31.621   6.385   4.680
25265W        W93606  44.005   0.359  12.830
25266W        W93607  17.114  29.021   4.267
25267W        W93608  15.238  43.948   1.300
25268W        W93609  30.911  12.177  10.510
25269W        W93610  22.139   0.905   2.826
25270W        W93611  42.856  20.100   1.808
25271W        W93612  37.454   5.732   2.754
25272W        W93613   9.794  27.616   0.249
25273W        W93614  10.381  20.751  13.048
25274W        W93615  25.541  40.363  10.497
25275W        W93616  21.036   2.426  13.463
25276W        W93617  44.291  21.114   1.712
25277W        W93618  27.128  34.452   4.704
25278W        W93619  33.941  24.481   4.312
25279W        W93620  30.968  19.719  12.999
25280W        W93621  24.054  38.995   2.329
25281W        W93622  22.507   2.753   3.319
25282W        W93623   3.835  29.511   0.372
25283W        W93624  36.568  27.543  12.956
25284W        W93625  10.138  16.575   9.964
25285W        W93626  44.939   4.325  14.788
25286W        W93627  31.585  36.548   2.753
25287W        W93628  11.849  40.522  12.410
25288W        W93629  30.144  21.160   4.838
25289W        W93630  33.419  41.408  13.496
25290W        W93631  25.704  13.185   2.318
25291W        W93632  26.664  41.811  14.501
25292W        W93633  18.276  33.621  14.030
25293W        W93634  12.330  43.416   4.632
25294W        W93635  25.618   6.302  12.065
25295W        W93636  21.097   6.239  11.406
25296W        W93637  28.498  19.678  13.360
25297W        W93638  26.977  42.457  11.058
25298W        W93639  29.571  25.524  14.953
25299W        W93640  37.361  36.446  10.488
25300W        W93641  24.528  29.503   1.888
25301W        W93642   7.749  10.191   1.895
25302W        W93643  23.119   3.743  14.909
25303W        W93644  20.620  37.980   2.772
25304W        W93645  20.090  32.970  13.379
25305W        W93646  25.112  26.459   3.363
25306W        W93647   1.470  40.399  13.500
25307W        W93648   8.340  18.197   3.706
25308W        W93649  30.946  13.222  12.013
25309W        W93650  12.620   4.869   1.935
25310W        W93651  25.579  43.271   2.355
25311W        W93652  16.762  21.211   2.234
25312W        W93653  16.715  42.386  13.525
25313W        W93654  41.979   2.845   2.822
25314W        W93655  18.656  36.454  10.969
25315W        W93656  28.179  22.055   3.215
25316W        W93657  24.216  11.791  14.493
25317W        W93658   1.733  38.958   0.275
25318W        W93659  29.434   8.399   0.849
25319W        W93660  23.713  16.718  13.334
25320W        W93661   4.883  14.634   1.853
25321W        W93662  26.694  35.392   2.368
25322W        W93663  10.759  11.802   1.316
25323W        W93664   9.761  13.347   2.363
25324W        W93665  12.220  11.350   2.358
25325W        W93666  44.441   5.927  10.602
25326W        W93667  19.712  31.955   4.170
25327W        W93668  12.255  44.278   2.681
25328W        W93669  35.585  41.933  11.377
25329W        W93670  18.609  15.322  14.409
25330W        W93671  34.593  17.643   4.314
25331W        W93672  28.079  22.670  12.396
25332W        W93673   9.649  37.847   1.358
25333W        W93674   4.228  43.362   1.717
25334W        W93675  13.678  20.120   4.758
25335W        W93676   2.945  28.501  11.410
25336W        W93677  24.072  38.896   4.175
25337W        W93678  28.121  41.791  12.443
25338W        W93679  30.002  37.461  12.049
25339W        W93680  43.510  20.252   2.761
25340W        W93681  21.023  11.311   1.256
25341W        W93682  22.734  10.254   4.785
25342W        W93683  17.666  43.277   1.800
25343W        W93684  44.447   9.772   4.234
25344W        W93685  10.736   3.919   0.802
25345W        W93686  25.503  28.504   4.709
25346W        W93687   2.829  28.483  11.937
25347W        W93688  18.596  34.113   9.999
25348W        W93689   6.878  42.375   0.274
25349W        W93690  40.383  23.645   4.256
25350W        W93691  20.545  39.028   2.401
25351W        W93692  19.728   4.907  14.420
25352W        W93693  30.577  14.649   0.408
25353W        W93694  17.698   6.830   3.205
25354W        W93695  37.540  39.065  13.985
25355W        W93696  18.093  16.178  12.080
25356W        W93697   7.850  44.308  12.535
25357W        W93698  31.558   5.787   0.386
25358W        W93699   3.437  35.957   2.325
25359W        W93700   2.743  33.534  12.029
25360W        W93701  41.864  31.906  13.343
25361W        W93702   8.710  40.480   2.182
25362W        W93703   6.324  32.091  12.925
25363W        W93704  26.982  44.467  14.956
25364W        W93705  39.494   3.928  14.993
25365W        W93706  43.803  11.249  14.010
25366W        W93707  31.470  27.183  13.053
25367W        W93708  36.043  31.972  12.017
25368W        W93709   6.734   8.263   0.356
25369W        W93710   3.270  18.281  14.374
25370W        W93711  11.744   6.340  14.459
25371W        W93712   3.945   2.442  10.428
25372W        W93713  22.525   7.271   3.342
25373W        W93714  43.893  15.640   2.841
25374W        W93715   0.352  39.032  10.410
25375W        W93716  15.654  17.130   3.153
25376W        W93717  39.516  38.927  14.029
25377W        W93718  16.158  12.288   1.391
25378W        W93719  16.566  11.750  13.409
25379W        W93720  26.203  42.490   4.780
25380W        W93721   9.248  31.497  12.048
25381W        W93722  37.420  43.867   0.460
25382W        W93723  22.580  41.331   3.793
25383W        W93724  37.932  40.528  12.448
25384W        W93725  21.095  10.267  13.839
25385W        W93726  30.564  15.244   3.233
25386W        W93727  32.594   0.260  11.939
25387W        W93728  20.727  39.489  14.356
25388W        W93729   1.246  17.645  14.910
25389W        W93730  44.464  15.259  11.514
25390W        W93731   6.374  15.691   2.368
25391W        W93732  19.173   9.158  11.422
25392W        W93733  29.014  41.828  10.411
25393W        W93734   4.272  39.481  12.543
25394W        W93735   4.295  35.584  14.339
25395W        W93736  22.672  29.516   1.814
25396W        W93737  12.195   5.368  10.958
25397W        W93738  23.174  13.291  13.372
25398W        W93739   5.381   0.836  14.458
25399W        W93740   5.226  32.534  14.379
25400W        W93741   6.742   0.862  10.963
25401W        W93742   9.776  20.097  10.994
25402W        W93743  32.936  31.931   1.708
25403W        W93744  31.581  12.834  10.903
25404W        W93745  30.058  31.941   1.778
25405W        W93746  22.528   8.709   4.816
25406W        W93747  31.591  13.647  12.008
25407W        W93748  35.420  36.475   0.788
25408W        W93749  15.762   4.401  14.327
25409W        W93750   8.863  29.124   1.696
25410W        W93751  25.556   4.228   1.443
25411W        W93752  41.018  18.585   2.817
25412W        W93753  22.532  32.938  12.384
25413W        W93754  10.212  32.082   1.858
25414W        W93755  14.669  38.463  13.949
25415W        W93756  20.209  12.730  11.532
25416W        W93757   9.218  42.327   0.429
25417W        W93758  44.384   4.292   2.300
25418W        W93759  10.379  10.244  14.812
25419W        W93760   7.171  22.041   1.366
25420W        W93761  19.079  37.364  13.488
25421W        W93762  29.452   5.828  13.358
25422W        W93763  38.396  12.730   0.408
25423W        W93764   2.346  37.561   4.221
25424W        W93765   4.211  40.312   0.413
25425W        W93766   6.851  15.251  11.860
25426W        W93767  42.959  13.319   3.359
25427W        W93768  36.469  43.454  11.440
25428W        W93769  44.339  33.899   1.850
25429W        W93770  13.172  37.938   0.884
25430W        W93771  32.415  39.855  13.319
25431W        W93772  38.035  42.291   5.086
25432W        W93773  36.442  12.281   4.793
25433W        W93774  31.579  40.030   4.314
25434W        W93775  29.611  20.153   1.727
25435W        W93776   0.798  40.860  14.297
25436W        W93777  17.583  14.327  11.866
25437W        W93778  22.695   1.382   2.752
25438W        W93779   4.437  33.443  13.335
25439W        W93780  14.745   8.162  13.949
25440W        W93781  36.353  27.598  13.829
25441W        W93782   9.322  38.513  13.866
25442W        W93783  29.946  17.102  12.046
25443W        W93784   8.361  33.970   0.861
25444W        W93785  39.420   8.284   4.784
25445W        W93786  44.499  36.564   1.282
25446W        W93787  27.447  26.469   2.314
25447W        W93788  36.841  38.900   2.789
25448W        W93789  36.988  17.623   4.774
25449W        W93790   5.264  27.566  13.849
25450W        W93791  12.694  20.098  14.942
25451W        W93792   5.284   5.768   3.830
25452W        W93793   7.770  27.567  14.977
25453W        W93794  12.756  22.118  11.995
25454W        W93795  20.663  22.523   2.411
25455W        W93796  23.518  16.283   1.411
25456W        W93797  26.207  44.987  11.951
25457W        W93798  39.823  40.858  10.020
25458W        W93799  33.382  39.453   2.316
25459W        W93800   6.898  23.160   0.809
25460W        W93801   4.861  31.114   4.297
25461W        W93802  15.614  44.806   3.208
25462W        W93803  27.093   0.799   3.731
25463W        W93804  33.978  33.540   1.832
25464W        W93805   3.758  30.017   0.395
25465W        W93806   4.391  14.821   0.247
25466W        W93807  24.595   6.348   2.318
25467W        W93808   9.270  10.688   1.928
25468W        W93809   5.782   4.309   2.813
25469W        W93810  37.959  15.269   1.299
25470W        W93811   9.373  33.012   3.866
25471W        W93812  11.832  21.648  11.088
25472W        W93813   4.420  40.418  10.580
25473W        W93814  37.569  27.664   9.933
25474W        W93815   9.345  12.119   3.813
25475W        W93816  39.920  38.566  12.077
25476W        W93817   8.371  44.947  11.985
25477W        W93818  18.268   6.421   0.439
25478W        W93819  41.431  15.197   1.258
25479W        W93820  41.904  21.187  12.907
25480W        W93821  28.152   0.921   2.860
25481W        W93822  32.556  20.171   2.200
25482W        W93823  30.597  20.570   3.805
25483W        W93824  43.308   5.395  10.487
25484W        W93825  32.895  12.350  14.367
25485W        W93826  23.146  23.612  13.852
25486W        W93827  29.456   4.308  12.017
25487W        W93828  14.791  26.627   0.464
25488W        W93829   7.208  17.114   4.345
25489W        W93830  29.939  26.034  10.555
25490W        W93831  37.021  44.299  13.375
25491W        W93832  41.027  31.999   4.164
25492W        W93833   8.213  33.914   2.730
25493W        W93834  27.600  22.712   4.782
25494W        W93835  15.814  24.032   3.868
25495W        W93836  41.533   7.359   0.828
25496W        W93837  23.736   8.790  10.974
25497W        W93838  24.657  19.181   4.832
25498W        W93839   4.810  21.551   0.438
25499W        W93840  26.073  44.924   0.868
25500W        W93841  11.662  26.672   2.393
25501W        W93842  13.771  24.697  14.823
25502W        W93843  40.928  36.393   1.842
25503W        W93844   9.824  28.634  10.633
25504W        W93845  38.944   5.253   0.323
25505W        W93846  43.918   1.465   0.919
25506W        W93847  21.246  25.707   5.148
25507W        W93848  14.126  40.359   4.332
25508W        W93849  35.962  18.785  12.423
25509W        W93850   1.453  23.628  12.073
25510W        W93851  17.566  11.629   2.409
25511W        W93852  22.025  11.650  13.337
25512W        W93853  34.472  11.204  13.458
25513W        W93854  44.866   8.315   4.182
25514W        W93855  20.067  15.289   3.665
25515W        W93856  26.672   8.761  10.544
25516W        W93857  18.569  23.084  12.963
25517W        W93858  32.021   9.728   9.955
25518W        W93859  14.292   3.412   3.174
25519W        W93860  31.624  18.727   1.430
25520W        W93861  24.493  42.300   3.861
25521W        W93862  11.672  42.935  13.496
25522W        W93863  22.743  26.465  11.578
25523W        W93864  17.285  28.043  14.823
25524W        W93865  10.185  10.272  11.606
25525W        W93866  16.294  41.308   2.890
25526W        W93867  15.298  33.006   2.776
25527W        W93868  19.052  38.566   3.801
25528W        W93869   4.874  33.401   9.936
25529W        W93870  14.617  40.401   2.290
25530W        W93871  33.017   7.672   3.159
25531W        W93872   3.838  16.780  14.315
25532W        W93873  14.702   8.250   3.866
25533W        W93874  18.723  42.981   2.229
25534W        W93875  31.603  31.010  14.845
25535W        W93876  11.716  30.485  14.491
25536W        W93877  20.585  43.010   4.653
25537W        W93878  32.599  30.912   0.350
25538W        W93879  37.083  17.185   4.728
25539W        W93880  23.149  13.725   1.252
25540W        W93881  25.058   9.375   4.292
25541W        W93882  13.271   3.415  12.534
25542W        W93883   7.844  34.417  11.436
25543W        W93884  27.138  29.517  14.352
25544W        W93885  35.068  25.997   4.742
25545W        W93886   2.227  20.566   2.348
25546W        W93887  30.455   1.472  12.998
25547W        W93888   3.915  16.135   0.340
25548W        W93889   2.925  42.931   3.732
25549W        W93890  19.233   9.767  13.031
25550W        W93891   0.987  10.271  12.849
25551W        W93892  10.724  27.160   2.281
25552W        W93893  28.929  30.593   3.348
25553W        W93894  14.138   3.871   1.313
25554W        W93895  24.206  13.130  13.805
25555W        W93896  15.795  39.891   1.407
25556W        W93897  42.485  29.143   3.305
25557W        W93898  10.270   3.226   1.764
25558W        W93899  19.570   3.871  11.444
25559W        W93900  25.477  20.222   1.258
25560W        W93901  22.608  26.179  12.029
25561W        W93902  43.965  37.995   3.247
25562W        W93903  24.118  30.649   0.739
25563W        W93904  31.010  23.504  14.881
25564W        W93905  15.231  23.612   4.772
25565W        W93906  42.899  25.211   3.826
25566W        W93907  17.241   3.797  12.981
25567W        W93908   6.754  36.569  14.003
25568W        W93909   7.252  11.295   4.261
25569W        W93910  17.267  30.487  13.899
25570W        W93911   7.825  42.803   2.201
25571W        W93912  18.103  20.743   4.327
25572W        W93913  23.077   4.826  13.061
25573W        W93914  25.046  28.146   3.855
25574W        W93915  16.148  40.518  13.510
25575W        W93916  44.394  29.966  12.467
25576W        W93917   0.333  30.021   2.686
25577W        W93918  22.534  31.073   0.872
25578W        W93919  42.820   7.776   4.634
25579W        W93920   7.257  10.282  14.027
25580W        W93921   0.492  36.485  13.966
25581W        W93922  32.113  39.494  10.116
25582W        W93923  44.456  16.080   4.169
25583W        W93924  38.843  23.026   0.823
25584W        W93925  37.877  37.870  14.863
25585W        W93926   1.816  28.611   4.145
25586W        W93927   9.669  15.809   3.669
25587W        W93928  29.146  25.484   0.778
25588W        W93929  26.675   5.423  13.375
25589W        W93930  16.708  25.188  13.792
25590W        W93931  24.000   6.825  11.505
25591W        W93932  20.644   2.790   0.779
25592W        W93933  43.964  37.974  13.798
25593W        W93934  25.603  17.128   1.902
25594W        W93935  13.342  42.976  13.466
25595W        W93936   6.223   1.240   2.343
25596W        W93937  16.183  31.551   3.757
25597W        W93938  16.795  31.603   2.417
25598W        W93939  26.091  27.521   3.830
25599W        W93940  12.815   7.887  12.044
25600W        W93941  19.666   5.308  10.628
25601W        W93942  43.351   2.403  12.530
25602W        W93943  42.455  36.003  14.851
25603W        W93944  42.966  44.878  14.974
25604W        W93945  37.973  12.266  11.054
25605W        W93946  43.843  23.160  14.425
25606W        W93947  17.266  42.898  13.046
25607W        W93948  21.645   6.405   2.213
25608W        W93949  23.111  35.426   1.744
25609W        W93950  12.689  41.944  14.770
25610W        W93951  38.986  20.246  13.430
25611W        W93952  10.690   6.885   2.686
25612W        W93953   8.198  32.961  11.464
25613W        W93954  17.076  21.545   1.706
25614W        W93955   6.223  39.824  12.966
25615W        W93956  22.127  27.178  14.408
25616W        W93957  37.933   9.225   3.766
25617W        W93958  22.646  17.686  13.886
25618W        W93959   9.835  44.336   1.353
25619W        W93960  15.633  15.762  14.367
25620W        W93961  11.128  34.037  14.021
25621W        W93962  25.017  23.628  10.528
25622W        W93963  18.588  42.876  13.380
25623W        W93964  40.546  22.245  10.495
25624W        W93965  17.705  24.094  14.944
25625W        W93966  21.594  31.133   0.380
25626W        W93967  28.437   5.718  13.468
25627W        W93968  14.154  39.995   1.333
25628W        W93969  30.525  32.429  13.307
25629W        W93970  36.034  13.636  12.020
25630W        W93971  33.380   7.298  12.447
25631W        W93972  32.440  34.397   4.337
25632W        W93973  20.087  21.233  10.047
25633W        W93974  40.900  12.293   1.298
25634W        W93975  44.266  27.572  12.449
25635W        W93976  13.283  28.507  14.514
25636W        W93977  39.896  17.621  11.478
25637W        W93978   8.703   4.746  10.909
25638W        W93979  22.027  32.628  12.876
25639W        W93980  28.184  27.992  11.996
25640W        W93981  20.747   0.331   2.897
25641W        W93982   8.225  21.594   3.690
25642W        W93983  19.086   1.378  10.938
25643W        W93984  24.201  18.103  10.616
25644W        W93985  32.924  36.490   1.780
25645W        W93986  38.949  16.184   2.682
25646W        W93987   0.444  37.475   3.868
25647W        W93988  19.258   5.739  11.506
25648W        W93989  43.467   1.294  12.990
25649W        W93990  23.004  41.499   1.866
25650W        W93991  17.753  43.906   1.893
25651W        W93992  31.980  44.766  11.110
25652W        W93993   5.236  39.536  10.934
25653W        W93994  22.595  34.480   2.404
25654W        W93995  42.316  17.759   3.800
25655W        W93996  14.741  41.966  14.443
25656W        W93997  41.967  35.867   3.701
25657W        W93998  20.655   1.345  14.869
25658W        W93999   9.837  34.395  10.576
25659W        W94000  13.279  18.243  13.935
25660W        W94001  39.055  34.933  11.027
25661W        W94002  25.045  25.704  14.902
25662W        W94003  31.923   8.206   2.775
25663W        W94004   4.737  28.543  10.484
25664W        W94005   8.354  25.621   4.759
25665W        W94006   6.698   5.211   4.632
25666W        W94007  24.228  30.102  11.932
25667W        W94008  20.223  39.490   2.847
25668W        W94009  16.253   8.856   3.160
25669W        W94010  33.383  39.985  14.327
25670W        W94011  35.107  16.109   1.450
25671W        W94012  44.804  33.444  11.933
25672W        W94013  30.564   9.352   4.638
25673W        W94014  23.627  40.859  14.512
25674W        W94015  12.274  12.316  12.968
25675W        W94016  17.304  10.189   1.406
25676W        W94017  43.793  43.499   3.299
25677W        W94018  39.444   8.812  12.860
25678W        W94019  12.613  42.861  13.430
25679W        W94020  41.806  44.260   0.304
25680W        W94021  24.136   2.891   1.427
25681W        W94022  31.633  10.840  11.901
25682W        W94023  34.080  25.476   4.354
25683W        W94024  31.534   2.855  14.009
25684W        W94025  44.809  39.339  12.413
25685W        W94026  26.060  40.379   3.167
25686W        W94027  33.918  43.431  12.413
25687W        W94028  19.598  42.985  11.127
25688W        W94029  35.911  32.009   2.695
25689W        W94030  25.699  42.856  11.031
25690W        W94031  43.776   3.804  12.871
25691W        W94032  38.010   7.379   4.751
25692W        W94033  37.515   5.238   3.153
25693W        W94034   6.838  19.165  13.820
25694W        W94035  18.647  17.769   4.143
25695W        W94036  30.159  35.437  12.995
25696W        W94037  26.505  21.119  13.853
25697W        W94038  19.116  37.024   3.825
25698W        W94039  22.056   5.328   4.264
25699W        W94040  18.284  44.005  10.411
25700W        W94041  43.330  19.556   1.854
25701W        W94042  43.854   5.725  10.974
25702W        W94043  21.733  18.766  10.894
25703W        W94044  35.077  15.706   9.932
25704W        W94045  12.688  34.499   1.271
25705W        W94046  23.071  24.074   0.376
25706W        W94047  14.332  18.253  11.526
25707W        W94048  24.144  13.205  12.397
25708W        W94049  26.999   1.869   3.695
25709W        W94050  33.403  14.828  14.897
25710W        W94051   5.806  40.487   1.889
25711W        W94052  23.673  35.090  10.515
25712W        W94053  40.868  20.698  12.896
25713W        W94054   1.341  40.814  10.947
25714W        W94055   1.280  34.920  12.529
25715W        W94056  29.435  25.573   0.287
25716W        W94057  37.914  16.724  12.572
25717W        W94058   1.968   8.658  14.409
25718W        W94059  15.206  44.811  10.491
25719W        W94060  25.699  16.778   1.275
25720W        W94061  31.445  24.002   1.378
25721W        W94062  44.439  34.863  11.500
25722W        W94063  30.064  35.101   2.779
25723W        W94064  24.152  21.669   0.887
25724W        W94065  18.708   2.409  14.843
25725W        W94066  34.532  42.799  12.054
25726W        W94067  16.088  41.925  14.777
25727W        W94068  43.957  28.943  14.408
25728W        W94069   1.761  11.137   0.261
25729W        W94070   5.824  40.498   2.322
25730W        W94071  14.635  18.133  14.451
25731W        W94072  18.633   3.948  14.949
25732W        W94073  18.170  14.707  13.328
25733W        W94074   3.394  36.044  10.629
25734W        W94075  33.879   7.414   3.730
25735W        W94076  40.923  35.102   2.776
25736W        W94077  43.509  25.984  11.902
25737W        W94078  42.895  10.371  14.465
25738W        W94079  31.057  34.017   0.398
25739W        W94080   8.806   2.335   3.686
25740W        W94081  25.482   9.188  10.635
25741W        W94082  39.437   6.758   1.377
25742W        W94083  33.534   8.792  12.879
25743W        W94084  41.498  17.303  12.848
25744W        W94085  12.735  10.803   5.765
25745W        W94086   2.898  34.895  11.015
25746W        W94087   8.367  22.585  10.541
25747W        W94088  31.647   6.335  12.956
25748W        W94089   7.206  13.758  12.522
25749W        W94090  21.244  34.468   2.286
25750W        W94091  23.606  26.992   1.834
25751W        W94092  39.029  21.697   2.224
25752W        W94093  27.040  13.675  11.931
25753W        W94094  14.227  35.878   1.812
25754W        W94095   9.808  11.373   0.385
25755W        W94096  43.472  23.133  11.395
25756W        W94097  27.475  15.777   0.951
25757W        W94098  41.307   9.373  12.096
25758W        W94099  10.871   2.893   1.439
25759W        W94100   3.447  15.662  10.487
25760W        W94101  38.867  44.406  13.815
25761W        W94102  39.448   0.938  13.430
25762W        W94103  43.361   2.339  12.897
25763W        W94104  31.028   0.353  13.852
25764W        W94105  31.546  32.586  11.595
25765W        W94106  11.275  37.902  13.052
25766W        W94107  38.982  16.200   4.715
25767W        W94108  13.204  10.838   4.327
25768W        W94109   1.753  18.209  11.004
25769W        W94110  18.603  29.156  10.605
25770W        W94111  21.242  39.028  10.893
25771W        W94112   8.859   2.384  12.520
25772W        W94113  16.081   5.763   4.833
25773W        W94114  15.109  34.020   4.310
25774W        W94115   1.345   4.358  13.953
25775W        W94116  18.091  10.721  12.351
25776W        W94117  25.516  38.026  11.515
25777W        W94118  14.765  44.463  13.379
25778W        W94119   0.406  41.502  13.951
25779W        W94120  29.662  17.676  11.097
25780W        W94121  29.154  30.035  11.042
25781W        W94122  21.696   7.784  14.375
25782W        W94123  21.630  43.422  13.978
25783W        W94124  36.463   6.300  11.977
25784W        W94125  24.667   0.844  12.851
25785W        W94126  33.931   5.391   1.710
25786W        W94127   9.801   1.908  10.565
25787W        W94128  12.219  12.169  13.992
25788W        W94129   1.372  22.099   4.752
25789W        W94130  17.082  23.571   4.155
25790W        W94131  11.326  40.902  12.080
25791W        W94132  31.536   5.740  12.994
25792W        W94133   9.163  11.854  14.954
25793W        W94134  14.158  34.028  14.291
25794W        W94135  28.631   1.937   2.366
25795W        W94136  11.363  41.020   4.124
25796W        W94137  16.717  26.597  14.348
25797W        W94138  16.772   6.890   0.737
25798W        W94139  42.976  17.183  11.015
25799W        W94140  36.846  10.799   2.703
25800W        W94141  31.073  23.099  12.994
25801W        W94142   5.809  31.422   1.236
25802W        W94143   4.900   6.282   1.815
25803W        W94144  20.644  18.074   4.820
25804W        W94145  31.113  10.739  12.495
25805W        W94146  35.535   4.738  12.975
25806W        W94147   1.797   2.748  13.912
25807W        W94148  23.692  16.213  10.607
25808W        W94149  24.576  36.418   4.286
25809W        W94150  38.366  15.696   3.844
25810W        W94151  21.192  38.331  13.381
25811W        W94152  40.944  27.137   4.282
25812W        W94153  25.629  31.574  14.391
25813W        W94154  39.889  12.797  12.829
25814W        W94155  38.365  44.492   4.136
25815W        W94156  12.683  41.381  14.955
25816W        W94157  22.084  24.012  11.382
25817W        W94158  17.580  17.127   2.390
25818W        W94159  10.334  16.170  11.875
25819W        W94160  12.241   7.720   0.344
25820W        W94161   6.295  32.903   2.192
25821W        W94162  33.592  28.104   0.884
25822W        W94163  42.383  37.352   1.793
25823W        W94164  39.525  13.128  14.411
25824W        W94165  43.006  27.666  12.487
25825W        W94166   6.766  37.421  10.502
25826W        W94167  22.116  12.839  12.976
25827W        W94168  11.742  34.418   1.212
25828W        W94169  29.110   7.203  14.914
25829W        W94170  13.751   8.168  11.516
25830W        W94171   9.718  20.528   2.252
25831W        W94172  25.129  19.194  12.850
25832W        W94173  34.523  33.130  13.438
25833W        W94174  40.512  17.591  12.522
25834W        W94175  35.417  28.112  13.942
25835W        W94176  43.515  14.198  11.930
25836W        W94177  24.633  27.510  12.451
25837W        W94178  33.597  11.633  13.944
25838W        W94179  44.873  20.626  12.993
25839W        W94180  15.684  19.270   0.410
25840W        W94181   1.769  22.612   3.665
25841W        W94182  20.191  31.984  14.467
25842W        W94183  28.982  29.591   3.647
25843W        W94184  15.724  21.654  10.047
25844W        W94185  34.391  42.841   2.792
25845W        W94186  25.711  28.473  12.569
25846W        W94187  19.603  31.455   2.873
25847W        W94188  13.241   1.250   0.432
25848W        W94189  31.479  23.729  13.524
25849W        W94190  17.600  18.192  14.285
25850W        W94191  36.995  10.857   0.369
25851W        W94192   1.398  22.232  11.538
25852W        W94193  43.385  38.521   2.375
25853W        W94194  14.612  39.016   4.228
25854W        W94195  38.924   1.279  10.488
25855W        W94196   8.288  40.007  11.008
25856W        W94197   8.891  19.223   3.165
25857W        W94198   7.846  38.441   0.422
25858W        W94199  25.683   5.805   9.965
25859W        W94200  23.574  30.621  10.997
25860W        W94201   9.226  27.996  12.919
25861W        W94202  36.472  16.720   4.326
25862W        W94203  14.175  36.351  10.540
25863W        W94204  25.646  23.154  12.409
25864W        W94205  17.307  20.669  13.487
25865W        W94206  15.125   8.283  12.988
25866W        W94207   9.312  12.202   5.319
25867W        W94208   7.705   3.771   4.823
25868W        W94209  27.015  20.178  14.821
25869W        W94210   3.954  16.757   4.308
25870W        W94211   9.187  36.966   0.421
25871W        W94212   4.261   4.909   4.116
25872W        W94213  31.443   8.255  14.024
25873W        W94214  22.245  11.622   3.667
25874W        W94215  34.089  34.462  11.882
25875W        W94216  23.621  29.586   4.663
25876W        W94217  15.291   9.717   4.267
25877W        W94218  14.786  34.433  14.942
25878W        W94219  22.125  28.952  13.872
25879W        W94220  32.582  34.957   3.250
25880W        W94221  23.224   7.259  12.830
25881W        W94222   6.308  12.845   0.293
25882W        W94223   4.857  32.545   3.759
25883W        W94224  13.180  13.108  12.370
25884W        W94225  19.651  28.134  12.871
25885W        W94226   6.909   0.383  12.067
25886W        W94227  28.520  38.386  10.938
25887W        W94228  27.970   2.951  13.364
25888W        W94229  24.125  35.439  10.522
25889W        W94230  30.956  14.251   0.288
25890W        W94231  34.033  33.131  10.965
25891W        W94232  13.260  38.476  10.642
25892W        W94233  26.539  42.987  13.797
25893W        W94234  16.694  18.197  14.965
25894W        W94235   5.271  14.730  10.555
25895W        W94236  14.313   4.241   3.238
25896W        W94237  33.502  33.121   2.202
25897W        W94238  13.209  14.704  13.350
25898W        W94239  32.122  41.989  14.292
25899W        W94240  10.234   0.761   2.314
25900W        W94241   7.235  33.947  13.815
25901W        W94242   4.733  38.366   2.255
25902W        W94243  24.099   1.774  12.920
25903W        W94244  33.878  37.939   1.812
25904W        W94245  36.024  40.973  11.457
25905W        W94246  30.151  33.452   1.350
25906W        W94247  42.899  29.088   3.739
25907W        W94248  32.136  35.382  11.475
25908W        W94249  31.938   1.903   4.193
25909W        W94250  31.960  32.085  10.412
25910W        W94251  12.238   8.397  12.867
25911W        W94252  30.988  24.560  10.455
25912W        W94253  23.164  36.576   0.305
25913W        W94254  30.631  22.587  14.309
25914W        W94255  31.431  10.309  12.560
25915W        W94256   8.401   3.866  13.511
25916W        W94257   1.974  24.684  11.388
25917W        W94258  20.535   2.782   1.448
25918W        W94259  29.979  26.536   3.154
25919W        W94260  14.331  17.647  14.775
25920W        W94261   5.208  11.155   1.212
25921W        W94262  34.960  44.891  12.573
25922W        W94263   3.271  18.670   0.411
25923W        W94264  13.322  16.204  11.499
25924W        W94265  21.622  21.515  10.524
25925W        W94266   4.273  15.813   0.910
25926W        W94267  36.488  25.154  12.034
25927W        W94268  22.607  35.056   3.304
25928W        W94269  26.603  36.389   1.414
25929W        W94270   7.847   0.928  11.043
25930W        W94271  39.414  30.437  14.382
25931W        W94272  32.562  38.935   0.897
25932W        W94273  33.009  13.814  10.624
25933W        W94274   1.978  42.289   3.250
25934W        W94275  14.789  17.758  11.990
25935W        W94276  40.867  23.712  11.545
25936W        W94277  23.002  44.385   4.318
25937W        W94278  26.703   8.701   1.874
25938W        W94279  11.685  26.474   3.306
25939W        W94280   4.928  20.598  13.542
25940W        W94281  44.905  39.858  12.436
25941W        W94282  16.723  39.049   2.343
25942W        W94283   4.889  20.598   3.255
25943W        W94284  43.903   2.344  10.610
25944W        W94285  23.561  18.143  14.898
25945W        W94286  21.529  41.843  12.909
25946W        W94287  23.689  22.116   0.859
25947W        W94288   9.211  10.859  14.430
25948W        W94289  17.793  33.409  13.484
25949W        W94290  29.585   3.297   3.307
25950W        W94291  10.806  44.434  12.463
25951W        W94292  18.766   5.891   9.989
25952W        W94293  38.894  34.403   0.267
25953W        W94294  25.645  16.169   3.808
25954W        W94295  27.612  40.911  10.562
25955W        W94296  39.995  33.094   3.732
25956W        W94297  37.895  29.921   0.339
25957W        W94298  28.149  13.106  12.369
25958W        W94299  30.933  16.168  10.628
25959W        W94300  19.574  28.653   4.134
25960W        W94301   9.310  12.123   9.959
25961W        W94302  10.792   5.880  14.348
25962W        W94303  33.409  14.153   0.408
25963W        W94304  13.300  16.190   4.777
25964W        W94305  10.653   7.790   0.840
25965W        W94306   3.411  13.798   0.762
25966W        W94307  18.580  37.469  13.815
25967W        W94308  41.508  41.992  12.398
25968W        W94309  19.048  17.223   0.772
25969W        W94310  40.428   2.455   2.754
25970W        W94311  26.063   3.716   3.647
25971W        W94312  24.000  33.036  13.847
25972W        W94313  26.013  27.572   0.279
25973W        W94314   9.839  19.565   2.206
25974W        W94315  42.339  43.786   4.354
25975W        W94316  18.580  17.183  12.509
25976W        W94317  39.408  39.057  12.945
25977W        W94318  28.665  19.581  13.010
25978W        W94319  14.127  19.682  14.511
25979W        W94320  20.624  17.584   0.943
25980W        W94321   8.809  44.359   1.303
25981W        W94322   3.950   2.277  14.307
25982W        W94323   6.185  41.425  14.838
25983W        W94324   7.775  26.481   4.312
25984W        W94325  43.311  36.464  13.929
25985W        W94326  34.120  32.028   1.335
25986W        W94327  28.476  30.021  13.951
25987W        W94328  23.072  23.691  10.915
25988W        W94329  23.182  39.898   3.646
25989W        W94330   5.217  30.163  13.881
25990W        W94331   8.843   7.254   3.331
25991W        W94332  38.440  20.733  12.033
25992W        W94333  36.927  11.299  13.442
25993W        W94334  29.572  41.361  13.996
25994W        W94335   4.918  39.065   2.225
25995W        W94336  26.071  27.015   1.314
25996W        W94337   5.436   2.846  14.296
25997W        W94338  15.787  13.319   3.150
25998W        W94339  36.542  17.617   3.357
25999W        W94340   5.691  19.749  13.993
26000W        W94341  20.579   2.455   0.273
26001W        W94342   4.885   3.855  11.987
26002W        W94343  37.510   4.901   1.738
26003W        W94344  34.440  31.962  12.090
26004W        W94345  18.281  22.172   4.238
26005W        W94346   6.256  21.251  11.589
26006W        W94347  19.215  18.257   3.635
26007W        W94348  42.360  25.611  12.908
26008W        W94349  44.282  28.678  14.933
26009W        W94350   2.328   6.332   1.883
26010W        W94351   4.340  12.176  13.395
26011W        W94352   6.716  39.852   2.220
26012W        W94353  34.508  16.164  11.877
26013W        W94354  18.179  40.931   2.295
26014W        W94355  28.500  16.122   4.660
26015W        W94356  28.030  20.605   0.753
26016W        W94357  32.935  39.506  12.000
26017W        W94358  38.437  29.083  10.629
26018W        W94359  39.526  26.464   0.457
26019W        W94360  21.172  43.906  10.520
26020W        W94361  35.902  17.599  12.386
26021W        W94362  27.065   5.765  14.516
26022W        W94363  27.637  11.274  11.075
26023W        W94364  14.306  27.074   1.311
26024W        W94365   3.262  44.343   3.839
26025W        W94366   9.174  30.021  12.066
26026W        W94367  31.935  32.456  12.503
26027W        W94368  21.575  19.601   3.334
26028W        W94369  14.786  31.454   0.356
26029W        W94370  16.584  29.157   0.360
26030W        W94371  43.306  39.830   3.361
26031W        W94372  38.494  19.230  13.517
26032W        W94373  30.439  14.325  11.894
26033W        W94374  32.406  10.195   0.832
26034W        W94375  22.089  14.241  10.579
26035W        W94376  42.998  22.195   3.319
26036W        W94377  25.988  29.986  11.423
26037W        W94378  15.612  11.850   5.110
26038W        W94379  44.870   8.389  11.456
26039W        W94380  16.306  18.183   5.090
26040W        W94381  23.074  38.335  11.512
26041W        W94382   6.232   4.941  12.063
26042W        W94383  42.317   9.758   2.251
26043W        W94384  41.981   2.842  11.576
26044W        W94385   6.304   8.290  14.497
26045W        W94386   1.976   8.180  12.473
26046W        W94387  39.387  27.094  14.015
26047W        W94388  22.161   6.735   1.882
26048W        W94389  38.961   5.308  10.600
26049W        W94390   7.231  17.142   0.778
26050W        W94391  19.722  16.718   4.353
26051W        W94392  32.510   2.348   3.673
26052W        W94393  20.639  30.587   0.380
26053W        W94394  17.583  22.639  14.953
26054W        W94395  38.010  42.294   0.444
26055W        W94396   0.280  29.119   3.232
26056W        W94397  11.756  26.070  12.874
26057W        W94398  10.715  15.652   2.788
26058W        W94399  23.494  38.856  13.901
26059W        W94400  24.548  15.323  13.317
26060W        W94401   5.925  25.209   4.290
26061W        W94402  33.393  18.740  12.858
26062W        W94403  32.581  35.509   0.321
26063W        W94404  43.424  23.154  10.611
26064W        W94405   7.361  32.124   3.699
26065W        W94406  33.094  26.979   0.781
26066W        W94407   8.161  23.133   1.216
26067W        W94408   4.395  31.611  14.799
26068W        W94409   0.430  41.494  14.990
26069W        W94410  32.614  29.012   0.904
26070W        W94411  43.415  35.884  14.481
26071W        W94412   3.380   8.687   2.201
26072W        W94413   9.873   1.775   2.399
26073W        W94414  22.214  27.456   0.355
26074W        W94415  17.274  41.024  11.930
26075W        W94416  21.022   6.788  12.093
26076W        W94417  24.112  13.301   3.156
26077W        W94418  18.666  17.147   4.819
26078W        W94419   6.211   4.389   2.215
26079W        W94420  16.775  33.471  12.849
26080W        W94421  19.263   4.923   3.155
26081W        W94422  41.292   0.882   1.798
26082W        W94423  22.698  44.313   0.945
26083W        W94424  20.264  17.271  11.009
26084W        W94425  25.688  36.547  13.878
26085W        W94426  24.202  30.133   3.867
26086W        W94427  10.280   0.753  14.402
26087W        W94428  24.095  31.107   1.714
26088W        W94429  10.284  19.160  10.512
26089W        W94430  23.491  30.600  13.320
26090W        W94431  17.738  11.658  13.928
26091W        W94432  44.306  28.184  12.047
26092W        W94433  30.139  34.435  12.481
26093W        W94434  22.072  38.038  14.444
26094W        W94435  16.765  24.097   4.190
26095W        W94436  20.232  19.758  14.804
26096W        W94437   9.694  26.669  13.949
26097W        W94438  41.333  22.564  11.495
26098W        W94439   7.741  19.589   0.760
26099W        W94440  31.015  22.696   0.383
26100W        W94441  36.460  35.101  13.375
26101W        W94442  26.181  35.100  11.092
26102W        W94443  39.947  25.480  11.529
26103W        W94444  41.794  27.140  10.898
26104W        W94445  11.263  25.561  13.322
26105W        W94446  34.969  17.219  14.975
26106W        W94447  17.231  11.293  11.599
26107W        W94448   3.876   1.752  14.792
26108W        W94449  41.849  31.440   2.814
26109W        W94450  42.972  31.099  14.423
26110W        W94451  12.220   5.801   4.245
26111W        W94452  21.172  44.350  11.052
26112W        W94453  38.466  26.077  11.530
26113W        W94454  39.353  35.011  11.024
26114W        W94455  28.540   8.884   4.153
26115W        W94456   6.244   1.302   1.722
26116W        W94457  41.904  31.544   1.385
26117W        W94458  12.613  25.178  11.520
26118W        W94459  23.733  28.445  12.467
26119W        W94460  26.972  22.558  10.018
26120W        W94461   6.716  14.660   3.679
26121W        W94462  17.260  15.708  14.970
26122W        W94463   1.910  14.742  13.949
26123W        W94464  23.036  20.539   3.358
26124W        W94465  38.898  18.085  10.450
26125W        W94466  32.126  10.752   0.256
26126W        W94467   4.797  10.702  11.984
26127W        W94468  35.050  31.450  13.520
26128W        W94469   9.814  28.645  13.924
26129W        W94470  34.540  24.585   4.687
26130W        W94471  23.084  18.190   5.179
26131W        W94472  29.931   3.753   0.772
26132W        W94473  23.207  36.505   2.738
26133W        W94474   6.380   1.410   3.292
26134W        W94475   5.317  26.153   2.734
26135W        W94476  38.900   3.815  12.931
26136W        W94477  22.664  30.988   2.378
26137W        W94478  34.910  25.978   1.915
26138W        W94479   1.272  33.462   4.143
26139W        W94480  24.021   4.252  14.417
26140W        W94481  20.184   9.851   0.414
26141W        W94482   4.918  27.579   1.797
26142W        W94483  29.444  26.605  12.577
26143W        W94484  11.310   3.314  11.463
26144W        W94485  41.386  10.376  14.001
26145W        W94486  25.197  31.613  11.903
26146W        W94487  30.149   8.867  11.952
26147W        W94488  22.640  34.611   4.306
26148W        W94489  29.965  29.512  11.596
26149W        W94490  38.056  36.078  12.575
26150W        W94491  13.724  38.026   0.366
26151W        W94492  33.425  34.448  13.318
26152W        W94493  20.078  20.702   2.754
26153W        W94494  40.454  25.147   4.620
26154W        W94495  18.642  25.044  12.974
26155W        W94496  14.773  18.138  11.450
26156W        W94497  27.126  20.168   4.237
26157W        W94498  37.845  44.971   0.801
26158W        W94499  19.588  27.511   3.850
26159W        W94500  37.416  19.159  13.401
26160W        W94501  28.967   2.332   2.693
26161W        W94502   3.808  35.382   3.201
26162W        W94503  11.207  33.587  12.520
26163W        W94504  43.403  13.121   1.398
26164W        W94505   8.874  22.610  10.561
26165W        W94506  28.608  34.978   0.934
26166W        W94507  19.256   5.874   2.781
26167W        W94508  32.582  27.541  13.310
26168W        W94509  35.082  40.506  11.124
26169W        W94510  32.607  30.607  14.501
26170W        W94511   1.240   7.329   2.887
26171W        W94512  33.130  43.276   1.369
26172W        W94513  25.985  10.215   4.313
26173W        W94514   1.359  19.626  11.992
26174W        W94515  39.507  15.222   4.168
26175W        W94516  39.029   9.822   2.885
26176W        W94517  42.418  43.454   3.326
26177W        W94518  27.634  34.497  12.939
26178W        W94519  28.029  35.421   2.771
26179W        W94520  39.887  27.664  13.929
26180W        W94521  32.431  22.566  10.457
26181W        W94522  33.887  43.943   4.159
26182W        W94523   1.340  12.774   0.435
26183W        W94524  39.531   7.843   0.275
26184W        W94525  15.812   4.835   5.273
26185W        W94526  12.741  27.666   0.949
26186W        W94527  16.754   6.343   3.365
26187W        W94528  32.494  22.630  12.095
26188W        W94529  28.570  42.519   4.124
26189W        W94530  20.527  31.541   3.385
26190W        W94531  19.759  21.636  12.951
26191W        W94532  33.949  35.951  14.427
26192W        W94533   6.273   8.816   4.316
26193W        W94534  16.072   3.866  14.472
26194W        W94535   9.706  29.605  13.969
26195W        W94536  29.604   9.178  14.502
26196W        W94537  13.798   1.330  13.864
26197W        W94538   1.307  24.504  13.019
26198W        W94539   6.188  28.972  12.416
26199W        W94540   7.874  25.588   0.891
26200W        W94541  44.955  44.954  13.464
26201W        W94542  10.311  11.824  14.787
26202W        W94543   9.788   1.755   0.316
26203W        W94544  22.115  13.133  14.307
26204W        W94545   0.261  42.374   0.324
26205W        W94546  14.132  20.141   4.655
26206W        W94547  16.643  19.583   4.230
26207W        W94548   7.908  31.899   0.431
26208W        W94549  14.161  38.433   1.817
26209W        W94550  22.517   9.299  12.860
26210W        W94551  22.504  11.249  12.474
26211W        W94552   0.429  12.727  12.439
26212W        W94553   3.220  24.528   4.245
26213W        W94554  27.047  35.038  10.941
26214W        W94555  22.170   8.874  11.072
26215W        W94556  29.957  27.166  10.632
26216W        W94557  20.664   9.678  12.031
26217W        W94558  44.928  31.025   4.767
26218W        W94559  29.157  16.308   3.690
26219W        W94560  22.101  33.102  13.869
26220W        W94561  28.646  43.280   3.201
26221W        W94562  25.202  36.981  14.307
26222W        W94563  12.248  21.261  10.586
26223W        W94564  11.257   2.775  14.813
26224W        W94565  20.150   7.174   4.297
26225W        W94566  12.321  25.525   1.721
26226W        W94567  17.183   2.794  12.072
26227W        W94568  37.427  24.216  13.944
26228W        W94569  10.731  20.039  12.841
26229W        W94570  42.884  27.548   1.231
26230W        W94571  33.118  20.231   0.275
26231W        W94572   6.297  14.323   2.846
26232W        W94573  27.661  43.826   1.221
26233W        W94574  42.408  37.392   2.309
26234W        W94575  17.193   3.284  13.817
26235W        W94576  37.060  10.287   1.398
26236W        W94577   8.176  43.815  14.005
26237W        W94578  42.840   1.789   2.267
26238W        W94579  38.859  22.238   5.277
26239W        W94580  33.573  27.446   3.823
26240W        W94581  36.095  34.907   0.829
26241W        W94582  12.659   2.730  14.374
26242W        W94583  17.192  31.080  10.940
26243W        W94584  41.368  21.610   4.620
26244W        W94585  14.801   5.719  13.493
26245W        W94586  10.362  36.369  13.951
26246W        W94587  34.491  31.579   1.913
26247W        W94588   3.855  24.156  12.516
26248W        W94589  17.560  25.484  13.879
26249W        W94590  17.799   8.216   3.176
26250W        W94591  33.520  11.707   3.340
26251W        W94592  22.509  12.656  10.115
26252W        W94593  41.493  14.168   2.673
26253W        W94594  43.849   5.778   2.247
26254W        W94595  36.018  22.092   1.847
26255W        W94596  20.032  30.551   9.984
26256W        W94597  13.749  40.456   1.697
26257W        W94598  41.346  33.624  10.535
26258W        W94599   3.360  12.652  10.955
26259W        W94600  22.545   9.843  10.912
26260W        W94601  14.694  19.045  12.071
26261W        W94602  13.703  43.881  13.992
26262W        W94603   4.849  37.015   4.234
26263W        W94604  33.541   5.869   4.134
26264W        W94605  35.428  23.118   2.285
26265W        W94606  19.625   3.771   2.302
26266W        W94607  34.481   4.891  13.889
26267W        W94608  19.252  10.727   4.222
26268W        W94609  29.480  25.084  12.474
26269W        W94610  15.321  23.229   3.815
26270W        W94611  23.490   2.802   2.203
26271W        W94612  30.623   3.430   0.410
26272W        W94613  40.510  41.436  13.839
26273W        W94614   6.226  36.523  10.558
26274W        W94615  27.127  25.060  14.372
26275W        W94616   8.869  39.961   2.793
26276W        W94617  26.568   9.241   3.731
26277W        W94618  18.159  37.356  12.450
26278W        W94619  40.984   6.795  11.999
26279W        W94620  21.724   7.834  11.909
26280W        W94621   7.677  23.519   2.822
26281W        W94622  21.024   5.898  14.388
26282W        W94623  15.285  19.169  13.474
26283W        W94624   3.273  35.516  12.972
26284W        W94625   9.667   5.930  13.349
26285W        W94626  38.381  11.360  10.895
26286W        W94627   4.337   5.260  13.381
26287W        W94628  19.093  33.982  12.850
26288W        W94629  22.589  36.378  10.493
26289W        W94630  36.519  28.464  11.890
26290W        W94631  23.233   5.369   0.368
26291W        W94632   2.395  24.206  11.495
26292W        W94633  34.385  38.416   2.780
26293W        W94634  35.551  44.460  10.471
26294W        W94635  44.373  21.102  12.411
26295W        W94636  23.729  34.119   2.766
26296W        W94637  23.075  14.676   3.340
26297W        W94638  34.959  18.277  14.473
26298W        W94639  36.867   8.872  10.592
26299W        W94640  44.861   7.719  11.906
26300W        W94641  27.160  44.782  13.967
26301W        W94642  42.449  23.685   1.881
26302W        W94643  29.435  37.840   0.850
26303W        W94644  39.842   8.843   0.294
26304W        W94645   5.379  34.489  14.828
26305W        W94646  11.814  23.988   1.342
26306W        W94647  38.366   4.905   2.851
26307W        W94648  20.670  29.650  13.795
26308W        W94649  12.837  35.490  12.360
26309W        W94650   5.276  42.021   1.930
26310W        W94651  30.627  16.804   1.895
26311W        W94652  23.038  11.132   3.757
26312W        W94653  44.931  32.950   0.875
26313W        W94654   4.922  38.929   3.257
26314W        W94655  15.691  26.974   3.324
26315W        W94656  43.788  28.034   4.179
26316W        W94657  42.386  29.505  11.123
26317W        W94658  22.096  31.912   5.153
26318W        W94659  40.508  15.174   1.711
26319W        W94660  26.176  35.429   1.405
26320W        W94661  11.346  30.456  11.975
26321W        W94662  28.438  21.026  13.465
26322W        W94663  20.620  18.288  14.278
26323W        W94664   8.730  13.157   2.321
26324W        W94665   8.668  32.133  11.073
26325W        W94666  37.853  38.463  14.366
26326W        W94667   8.728  15.623   1.828
26327W        W94668  37.931  25.002  12.967
26328W        W94669  23.067  28.552  11.040
26329W        W94670   0.315   0.355   0.731
26330W        W94671  33.099  14.178   4.713
26331W        W94672  22.681  12.764   2.693
26332W        W94673  15.776  36.849   3.158
26333W        W94674  39.413  35.946  10.413
26334W        W94675  31.916  18.791  12.080
26335W        W94676  15.220   5.820   4.344
26336W        W94677  27.944  13.179   1.339
26337W        W94678   3.873  40.892   4.697
26338W        W94679  15.676  34.550  14.011
26339W        W94680  18.729   0.941  11.553
26340W        W94681  36.402  13.144   0.379
26341W        W94682   2.382  17.626   1.309
26342W        W94683  27.106  20.182  12.881
26343W        W94684  35.538  23.185  14.901
26344W        W94685  13.828  13.126   4.287
26345W        W94686  10.697  42.354   0.261
26346W        W94687  36.489  11.692   2.335
26347W        W94688  21.105  41.931  12.046
26348W        W94689   7.232  28.114   3.689
26349W        W94690  35.938  25.541  13.487
26350W        W94691   1.829  15.257   0.802
26351W        W94692  28.956  40.443  14.781
26352W        W94693   9.885  35.365   2.753
26353W        W94694   4.379  39.481   3.786
26354W        W94695  37.400  32.921  13.855
26355W        W94696  17.655  29.941  11.114
26356W        W94697   8.166  15.723   3.263
26357W        W94698  38.854  16.120   1.788
26358W        W94699  29.077   7.335  13.484
26359W        W94700  35.892   6.219  14.813
26360W        W94701   0.286  27.125  11.118
26361W        W94702  43.918  28.153   1.284
26362W        W94703  22.226  33.434  10.465
26363W        W94704   8.689  26.501  11.899
26364W        W94705  11.853   4.824  11.558
26365W        W94706  34.573  18.292   4.820
26366W        W94707  34.380  24.643  10.622
26367W        W94708  19.067  41.441   0.409
26368W        W94709  11.748  10.299   0.876
26369W        W94710  37.046   5.791   3.795
26370W        W94711  12.319  13.151   3.837
26371W        W94712  36.591   2.422  12.517
26372W        W94713  34.968  18.611   5.203
26373W        W94714  20.556   9.361   2.308
26374W        W94715  29.643  15.579   0.296
26375W        W94716  28.511  21.096  11.441
26376W        W94717  28.933   7.293  12.055
26377W        W94718   1.778  37.841   4.140
26378W        W94719  18.583  16.808   1.907
26379W        W94720  30.146  22.027  10.954
26380W        W94721  23.091  41.805  14.383
26381W        W94722   7.255  12.285   1.326
26382W        W94723  16.704  17.622  12.579
26383W        W94724  32.541  19.711   0.348
26384W        W94725  21.567   2.337  13.985
26385W        W94726  40.426   4.367  14.887
26386W        W94727  33.484  15.784  13.532
26387W        W94728  21.175  23.491  12.997
26388W        W94729  18.723  29.027   0.963
26389W        W94730  32.057   4.423   1.445
26390W        W94731  33.113  34.078   4.201
26391W        W94732  43.423  30.110  13.979
26392W        W94733  35.968  14.239   3.307
26393W        W94734  41.407  38.996  13.976
26394W        W94735  43.351  13.149   0.368
26395W        W94736  10.181  27.603   3.820
26396W        W94737  14.273  43.990  10.526
26397W        W94738  42.501  21.112  10.954
26398W        W94739  34.611  44.798   3.240
26399W        W94740  28.468  12.149  14.897
26400W        W94741  41.425  11.635   3.709
26401W        W94742  19.648   5.743  11.531
26402W        W94743  17.566  29.536   1.354
26403W        W94744   0.942  16.137  12.860
26404W        W94745  34.897   5.364  11.108
26405W        W94746  36.452   2.315   1.843
26406W        W94747  10.784  43.481   1.830
26407W        W94748  33.476  35.926  11.492
26408W        W94749  41.399  42.386  11.005
26409W        W94750  17.785  38.848   1.721
26410W        W94751  10.191   8.883  14.441
26411W        W94752   4.791  18.162  10.439
26412W        W94753   4.286  10.680  14.305
26413W        W94754  38.997  36.003   5.306
26414W        W94755  39.841  17.261  14.883
26415W        W94756  10.215  44.483   2.747
26416W        W94757  16.314   6.251  13.321
26417W        W94758  24.130  44.318   0.443
26418W        W94759  43.360  42.986   1.438
26419W        W94760  29.960  15.135   4.688
26420W        W94761  16.173  17.143  13.443
26421W        W94762  33.911  10.783   0.951
26422W        W94763  42.952   2.454  11.038
26423W        W94764   6.326  16.783  13.798
26424W        W94765  29.064   6.238  11.399
26425W        W94766   7.680  25.697  13.873
26426W        W94767   6.877  14.252  13.831
26427W        W94768   1.365   2.469   3.729
26428W        W94769  40.479  12.843   0.961
26429W        W94770  36.578  31.554  14.492
26430W        W94771  39.942  12.302  12.524
26431W        W94772  31.973  37.423   3.815
26432W        W94773  26.542   4.842   3.731
26433W        W94774  27.680  22.571  11.506
26434W        W94775  35.530  11.227   2.804
26435W        W94776  21.613  17.670   3.804
26436W        W94777  39.399  29.038   4.299
26437W        W94778  13.664   2.417   0.857
26438W        W94779  31.492  36.936   4.132
26439W        W94780  32.126   5.880   4.214
26440W        W94781  21.634  40.887   3.782
26441W        W94782  27.563  10.343  11.990
26442W        W94783  23.513  33.961   3.374
26443W        W94784  22.667   7.400  13.893
26444W        W94785   5.857  42.437  14.974
26445W        W94786  42.476  18.564   5.711
26446W        W94787  23.137  42.790  11.588
26447W        W94788  42.290   6.751  12.995
26448W        W94789  38.020   0.364  11.904
26449W        W94790  28.529   5.213  10.617
26450W        W94791   0.463  21.667  14.906
26451W        W94792   0.879   3.221   1.751
26452W        W94793   8.764  33.557   1.712
26453W        W94794  18.180  20.171   4.348
26454W        W94795   4.736   9.651  12.849
26455W        W94796  17.714  29.589   3.692
26456W        W94797  43.406  21.691   0.870
26457W        W94798  25.037  35.480   0.799
26458W        W94799   7.911  34.562  14.357
26459W        W94800  15.756  28.504  11.123
26460W        W94801  32.118  34.070   3.184
26461W        W94802  18.699  36.429  12.865
26462W        W94803  29.170   3.919  14.329
26463W        W94804  22.123  18.667   3.690
26464W        W94805  11.791  36.081   0.343
26465W        W94806  14.283  44.827   4.248
26466W        W94807  20.634  41.885   0.772
26467W        W94808  22.573  35.396   2.389
26468W        W94809  30.094  21.625   2.204
26469W        W94810  35.370  22.209   1.366
26470W        W94811  13.637  24.654   3.283
26471W        W94812   0.791  24.131   3.729
26472W        W94813  41.473  38.363   0.271
26473W        W94814  13.119  30.999   0.254
26474W        W94815  22.686  24.180  13.405
26475W        W94816  18.616  29.423  11.898
26476W        W94817   7.892  44.930  13.040
26477W        W94818  38.836  13.768   1.355
26478W        W94819   9.840  10.364  10.443
26479W        W94820  25.665  26.647   2.383
26480W        W94821  32.082  10.381   1.736
26481W        W94822  20.249   9.366   3.378
26482W        W94823  28.443  32.919   3.349
26483W        W94824  37.508  18.779   4.765
26484W        W94825  32.908  28.566   1.816
26485W        W94826  11.861  25.033  11.963
26486W        W94827  32.513   1.437   1.923
26487W        W94828   1.326  36.950  14.791
26488W        W94829  25.048  25.206  14.402
26489W        W94830  42.825   8.185   0.928
26490W        W94831  43.985  10.237   2.306
26491W        W94832   8.756  38.496  12.508
26492W        W94833  24.976  22.071   4.722
26493W        W94834  27.630   7.861  14.454
26494W        W94835  20.547   4.905  14.295
26495W        W94836  24.652  40.998   0.786
26496W        W94837  12.306  41.989   3.772
26497W        W94838  21.670  18.201  13.475
26498W        W94839  13.619  34.110  12.573
26499W        W94840  17.082  44.938  14.881
26500W        W94841  11.239   0.415  13.481
26501W        W94842  36.528  38.821  11.973
26502W        W94843   5.196  24.178   1.377
26503W        W94844   1.330  30.485   4.340
26504W        W94845  31.440  20.160   3.315
26505W        W94846  36.587  20.722  11.105
26506W        W94847  26.489  16.190  13.547
26507W        W94848  38.393  43.839   0.925
26508W        W94849  30.570   4.280   0.342
26509W        W94850  18.094  20.546   9.655
26510W        W94851  36.048  26.135   3.249
26511W        W94852  17.726  20.703  11.439
26512W        W94853   0.881   7.836   4.628
26513W        W94854  44.870  42.913   4.768
26514W        W94855   5.740  14.154   4.723
26515W        W94856  12.358  22.594  14.850
26516W        W94857  26.524  31.604   1.321
26517W        W94858  28.050  19.256  14.490
26518W        W94859  32.407  28.455  13.420
26519W        W94860   3.255  34.011  13.054
26520W        W94861   6.761  36.946  11.393
26521W        W94862   6.248  17.287   3.748
26522W        W94863  33.945  35.879  12.049
26523W        W94864  15.710  43.461  11.406
26524W        W94865  37.082  16.658   4.213
26525W        W94866  12.681  34.569   4.140
26526W        W94867  42.369  21.564  14.908
26527W        W94868  14.281  40.953   2.825
26528W        W94869  21.540  43.392  14.937
26529W        W94870  23.084   4.216   3.165
26530W        W94871  17.266   7.415   4.247
26531W        W94872  42.393  41.490  14.834
26532W        W94873  10.190  11.857   4.189
26533W        W94874   5.779  38.065   3.869
26534W        W94875   1.779   3.320   0.322
26535W        W94876  25.551  31.964   2.744
26536W        W94877   2.851  15.227  14.879
26537W        W94878  14.157  38.005   5.206
26538W        W94879   6.792  22.663   2.896
26539W        W94880  14.797  10.288   4.597
26540W        W94881  36.882  19.073   3.713
26541W        W94882  27.505  23.189  14.827
26542W        W94883   6.737  33.124   2.803
26543W        W94884  13.271  24.985   1.829
26544W        W94885  16.294  21.094   4.262
26545W        W94886  15.633  11.652   1.245
26546W        W94887   9.643  16.650   1.749
26547W        W94888  19.716  37.428   1.374
26548W        W94889  42.965   0.845  13.354
26549W        W94890   0.834  36.090  12.483
26550W        W94891  19.055  28.546  14.479
26551W        W94892  36.350   0.406  11.006
26552W        W94893  42.784   8.656  12.428
26553W        W94894  25.130  13.706  14.010
26554W        W94895  19.698  24.137  12.970
26555W        W94896  25.076  21.129   0.275
26556W        W94897   2.731  18.191  13.807
26557W        W94898  26.068   1.909   4.231
26558W        W94899  27.578   3.348   1.737
26559W        W94900  30.133  14.710   2.246
26560W        W94901  18.654   2.381   1.322
26561W        W94902  18.622  13.256   4.815
26562W        W94903  11.198  44.785  11.898
26563W        W94904  29.475  32.933   2.860
26564W        W94905  29.423  41.387   1.848
26565W        W94906  25.074  34.073   1.842
26566W        W94907   4.872  22.146  11.080
26567W        W94908   0.323   9.185  12.999
26568W        W94909   7.174  13.113   3.228
26569W        W94910   9.355  34.411   2.797
26570W        W94911  22.704  11.688  14.444
26571W        W94912  44.912  12.217  12.981
26572W        W94913  24.622  30.573   1.219
26573W        W94914  19.693  33.615  11.020
26574W        W94915  25.161  10.339  10.490
26575W        W94916   8.872  41.038  12.475
26576W        W94917  12.268  26.161  13.537
26577W        W94918  22.743  14.198  11.860
26578W        W94919  29.128  18.144   0.364
26579W        W94920  30.475  39.372  14.029
26580W        W94921  27.035  34.527   1.804
26581W        W94922   4.783  39.453   0.730
26582W        W94923  18.660  34.582   2.213
26583W        W94924   9.836   6.896  13.373
26584W        W94925  44.858   7.787  13.879
26585W        W94926  39.831  16.700  14.801
26586W        W94927  10.180  31.617  12.939
26587W        W94928  39.818  21.238  10.436
26588W        W94929  33.577  15.729   2.693
26589W        W94930  43.401   9.842  11.399
26590W        W94931  21.686  37.996  10.608
26591W        W94932  29.163   1.905  10.612
26592W        W94933  24.646   4.837   0.820
26593W        W94934  31.070  10.232  10.102
26594W        W94935  43.459  11.306   0.303
26595W        W94936  14.293   6.224   2.359
26596W        W94937  34.945   7.230   4.166
26597W        W94938  38.387  27.086  14.415
26598W        W94939  42.892  44.781  14.428
26599W        W94940  32.042  44.851   4.315
26600W        W94941  16.103  20.766   5.651
26601W        W94942  19.081   1.310  13.475
26602W        W94943   6.682  34.059   1.898
26603W        W94944  10.344  28.176   4.125
26604W        W94945  42.950  23.073  14.879
26605W        W94946  30.979  26.051   4.790
26606W        W94947  26.597  22.083  10.027
26607W        W94948   6.228  38.951  12.094
26608W        W94949  44.873   6.910   0.841
26609W        W94950  42.515  15.595  13.941
26610W        W94951  38.540   5.820   4.603
26611W        W94952  36.871   2.288   1.426
26612W        W94953  16.112   9.746   4.130
26613W        W94954  25.483  31.052   4.324
26614W        W94955  13.814  40.859  12.871
26615W        W94956   5.260  32.059  13.983
26616W        W94957  22.721  44.949   2.353
26617W        W94958   4.208   4.904   1.227
26618W        W94959  16.276   7.394   3.829
26619W        W94960  13.772  17.291  13.386
26620W        W94961  23.542  23.723   4.719
26621W        W94962  38.554  12.691   4.777
26622W        W94963  27.564  24.495  13.809
26623W        W94964   1.960  11.307   3.378
26624W        W94965  39.445  39.866   3.804
26625W        W94966   9.170  14.275  14.958
26626W        W94967  23.554  19.537  10.969
26627W        W94968  24.616  18.706   3.170
26628W        W94969  10.730  20.768   2.748
26629W        W94970  37.072  36.869   2.191
26630W        W94971  35.554  26.129   1.740
26631W        W94972  38.940   2.795   0.350
26632W        W94973   4.360  10.850   0.468
26633W        W94974   3.406  40.483   4.653
26634W        W94975   0.447  16.136   0.955
26635W        W94976  17.770  12.759  13.343
26636W        W94977  18.259  31.991  12.932
26637W        W94978  12.833  44.484   1.792
26638W        W94979  21.667  35.542  14.495
26639W        W94980  13.632  28.084  10.584
26640W        W94981  42.351  12.288   1.269
26641W        W94982  35.874   7.668  11.402
26642W        W94983   6.410  35.904  11.889
26643W        W94984  44.923  35.415   1.406
26644W        W94985   1.311   3.824   1.344
26645W        W94986  11.731  24.091  13.020
26646W        W94987  27.674   4.829   2.196
26647W        W94988  15.145  42.022   0.454
26648W        W94989   5.784  21.049  10.541
26649W        W94990  23.716   1.474  14.279
26650W        W94991  36.024  23.668  11.506
26651W        W94992   8.719   1.909  10.900
26652W        W94993  19.633   6.743   4.241
26653W        W94994   8.273  27.994   2.669
26654W        W94995   5.780   8.335  10.502
26655W        W94996  19.589   9.810  13.863
26656W        W94997  33.972  31.951  13.479
26657W        W94998   4.417  42.348   0.840
26658W        W94999   1.825  24.201  11.023
26659W        W95000   8.185  31.986   0.730
26660W        W95001  28.046   0.416  12.007
26661W        W95002  32.075   1.747  13.430
26662W        W95003  44.773  22.056   0.262
26663W        W95004  35.040  10.285  13.308
26664W        W95005   7.321  36.357  13.038
26665W        W95006  18.145  29.596  10.524
26666W        W95007  24.131  40.916  14.492
26667W        W95008  22.715  19.264  12.069
26668W        W95009  17.114   6.747   1.367
26669W        W95010  41.983   8.204  11.930
26670W        W95011  42.923  41.899   0.358
26671W        W95012  33.057  34.014   0.305
26672W        W95013  31.938  16.626  13.804
26673W        W95014   1.912  43.800  11.443
26674W        W95015  21.692  22.528  12.367
26675W        W95016  18.700  29.146   4.296
26676W        W95017  10.304  27.146  12.362
26677W        W95018  33.421  19.070   2.372
26678W        W95019  24.706  19.674  11.948
26679W        W95020  22.688  14.786   2.874
26680W        W95021  40.316  12.219  14.477
26681W        W95022  18.570  24.577  11.936
26682W        W95023  10.726  20.588  13.882
26683W        W95024   5.918   9.857  14.299
26684W        W95025  29.089  40.370   3.849
26685W        W95026  33.477  42.397   1.887
26686W        W95027  28.950  20.256  13.852
26687W        W95028  26.607  40.527   3.260
26688W        W95029  23.013  39.469   0.909
26689W        W95030  23.060  42.355  14.301
26690W        W95031  40.875  38.827  13.057
26691W        W95032  25.596  44.811  12.343
26692W        W95033  28.958  10.248   1.791
26693W        W95034   8.223  11.361   4.225
26694W        W95035   3.730  32.071   1.391
26695W        W95036  33.982  41.301  13.371
26696W        W95037   6.800   5.403   3.145
26697W        W95038   3.938  28.435   1.396
26698W        W95039  14.817  36.463   4.123
26699W        W95040  11.275  32.393   2.414
26700W        W95041   2.367  10.758  10.421
26701W        W95042  20.128  31.140   0.891
26702W        W95043  15.293  38.430   4.258
26703W        W95044  17.555  30.938  12.907
26704W        W95045  16.211   8.687   0.348
26705W        W95046  20.578   0.273  14.855
26706W        W95047  27.534  23.225  13.853
26707W        W95048   4.854   1.278  12.475
26708W        W95049  10.724  36.494   2.273
26709W        W95050  26.506  30.583   3.822
26710W        W95051   3.318   8.874   0.409
26711W        W95052  13.719  14.657   2.862
26712W        W95053  28.590  22.613  13.359
26713W        W95054  20.079  28.578   3.349
26714W        W95055  33.979  23.594  11.995
26715W        W95056  26.082   3.892  14.429
26716W        W95057  14.109  17.116  13.353
26717W        W95058  14.115  25.489   0.307
26718W        W95059   7.811  17.108  14.965
26719W        W95060   7.227   0.484  13.380
26720W        W95061   8.337  17.245  10.985
26721W        W95062  10.242  38.953   3.238
26722W        W95063  11.136  42.901   4.831
26723W        W95064  22.132  39.847  12.892
26724W        W95065  27.982  24.988  12.948
26725W        W95066  41.811  30.051   1.352
26726W        W95067  29.610   5.864   2.405
26727W        W95068   8.861  28.154  13.883
26728W        W95069   5.797  18.251  12.072
26729W        W95070   8.235  38.024   0.747
26730W        W95071  10.729  34.608   0.342
26731W        W95072  31.467  40.357   1.252
26732W        W95073  22.007  20.076  12.952
26733W        W95074  23.510  12.232  12.061
26734W        W95075  27.997  33.623  14.899
26735W        W95076  41.906  22.612  10.070
26736W        W95077  37.347  15.811   2.714
26737W        W95078   8.845   5.361   3.719
26738W        W95079   9.862  31.555   4.710
26739W        W95080  38.356  28.163   4.152
26740W        W95081   1.751  21.182  14.355
26741W        W95082  28.091   2.912  12.897
26742W        W95083  16.108  42.848  13.324
26743W        W95084   2.280  36.560   1.806
26744W        W95085   0.946  43.479   2.390
26745W        W95086  26.045  20.219   1.341
26746W        W95087  34.958  13.128   3.834
26747W        W95088  32.090  33.505   1.262
26748W        W95089  37.986   3.724  10.948
26749W        W95090  21.656  13.204  13.014
26750W        W95091  26.558  39.025   5.311
26751W        W95092  33.593  10.779   2.209
26752W        W95093  38.863   8.402  14.783
26753W        W95094  42.028  18.168   0.786
26754W        W95095  37.917  34.108   0.798
26755W        W95096  34.055  12.317  11.539
26756W        W95097  27.123  35.408   1.229
26757W        W95098   2.806  24.634  11.523
26758W        W95099  23.156  30.983   2.832
26759W        W95100  26.600   9.827  11.950
26760W        W95101  37.999  26.642  13.983
26761W        W95102   0.770  13.778  14.480
26762W        W95103  38.493  24.713   0.248
26763W        W95104   0.408  26.015  14.442
26764W        W95105   1.954  15.730  13.952
26765W        W95106   1.405   7.762  11.092
26766W        W95107  26.073  23.228  11.041
26767W        W95108  43.930  11.178   0.819
26768W        W95109  10.706   9.366  11.104
26769W        W95110  13.795  36.057  10.909
26770W        W95111  44.846  26.992   3.856
26771W        W95112  37.998  41.998  14.335
26772W        W95113  14.281  23.566  12.552
26773W        W95114  11.130  10.739  11.867
26774W        W95115  29.098  17.767   2.763
26775W        W95116  32.587  26.618  13.476
26776W        W95117  43.021  44.369  11.889
26777W        W95118  41.487  34.451  12.412
26778W        W95119  24.688  42.527   1.284
26779W        W95120  29.547  28.019   0.800
26780W        W95121  12.182  30.486  11.900
26781W        W95122  28.023  10.676  14.915
26782W        W95123  42.398  41.991   4.647
26783W        W95124  17.304  22.619   0.756
26784W        W95125  40.459  19.122   4.768
26785W        W95126  34.396  43.291   2.790
26786W        W95127  31.111   6.318   1.408
26787W        W95128   0.464  11.271   3.746
26788W        W95129   3.893  32.411   4.182
26789W        W95130  30.934  38.368   3.659
26790W        W95131   7.354  10.297   4.203
26791W        W95132  16.719  30.947  13.482
26792W        W95133  18.212   9.372   3.748
26793W        W95134  18.584  23.517  11.987
26794W        W95135  13.276   1.431  13.031
26795W        W95136  42.384   6.872  12.527
26796W        W95137   7.191  35.945   3.205
26797W        W95138  31.941  19.658  11.596
26798W        W95139  30.439  22.009   3.316
26799W        W95140  23.189  25.674  12.483
26800W        W95141  29.615  41.786   1.251
26801W        W95142  36.085  40.929   2.748
26802W        W95143  14.794  16.128  14.435
26803W        W95144  43.900  44.462  14.798
26804W        W95145  38.912  27.051   2.861
26805W        W95146  27.496   0.750   3.704
26806W        W95147  30.079  14.657  12.038
26807W        W95148  39.352  37.402  10.948
26808W        W95149  42.425  17.159  10.578
26809W        W95150   2.239  36.996  14.412
26810W        W95151  38.828  19.568  12.475
26811W        W95152  29.562  15.770   0.899
26812W        W95153  13.741  25.517   0.287
26813W        W95154  25.159   7.199   0.826
26814W        W95155  39.928   1.786  12.988
26815W        W95156  41.935  30.659   0.274
26816W        W95157  20.634  43.901  11.527
26817W        W95158  30.077  27.588  14.812
26818W        W95159  39.374   7.379   4.194
26819W        W95160  11.702  14.623  14.365
26820W        W95161  14.244  28.088   2.707
26821W        W95162  35.549  42.961   1.348
26822W        W95163  12.131  42.289  13.963
26823W        W95164  33.569  42.974  12.946
26824W        W95165  21.083   4.247  10.040
26825W        W95166  38.411  27.971   2.766
26826W        W95167   0.346  29.575  10.926
26827W        W95168  39.938  24.992  14.012
26828W        W95169   9.191  20.121   4.707
26829W        W95170  20.138  12.340  11.905
26830W        W95171   7.753   8.318  13.821
26831W        W95172  44.776  13.602   3.652
26832W        W95173  22.075  16.603   0.385
26833W        W95174  21.221   3.323  10.467
26834W        W95175  26.637  33.030   2.668
26835W        W95176  39.900   1.974   0.791
26836W        W95177   7.225  44.402   1.254
26837W        W95178  19.053  26.952  12.905
26838W        W95179   4.734   8.350   2.251
26839W        W95180  25.071  18.210  12.840
26840W        W95181  25.972  32.466   3.778
26841W        W95182  34.113  29.473   2.826
26842W        W95183  36.034  42.793   2.356
26843W        W95184  19.616  34.065   4.736
26844W        W95185   7.896  42.507  11.869
26845W        W95186  42.982  44.453  14.868
26846W        W95187  25.552  12.333  14.010
26847W        W95188   3.729  32.971  14.462
26848W        W95189  44.258  43.786  12.056
26849W        W95190  24.144  28.457   0.858
26850W        W95191   6.278   7.804   0.892
26851W        W95192  42.871  12.660   4.634
26852W        W95193   9.250   4.210  12.087
26853W        W95194  15.786   7.831   3.175
26854W        W95195  39.491   5.790   1.698
26855W        W95196   6.788  10.160  13.014
26856W        W95197  39.450  18.727   4.640
26857W        W95198  37.028   5.772  14.794
26858W        W95199  44.290  31.412   3.754
26859W        W95200  42.322   0.316  12.033
26860W        W95201   7.839   6.729  11.528
26861W        W95202  16.580  33.076   3.157
26862W        W95203  29.953  10.862  12.342
26863W        W95204   1.834  11.288   4.681
26864W        W95205   7.415  16.124   4.753
26865W        W95206  19.124  26.625   9.988
26866W        W95207  30.088  43.422   1.319
26867W        W95208  36.909  18.253   4.211
26868W        W95209  40.330  42.998   9.998
26869W        W95210  22.649   9.790   4.279
26870W        W95211  11.129  42.876  11.513
26871W        W95212  28.603   0.861   0.888
26872W        W95213   0.462  43.316   0.794
26873W        W95214   2.402  17.197   5.265
26874W        W95215  26.531  25.210  12.836
26875W        W95216  42.794  12.728   2.855
26876W        W95217  25.054  30.562  13.448
26877W        W95218  30.421  35.597  14.893
26878W        W95219   7.242   4.332  11.532
26879W        W95220   7.672   4.929   3.823
26880W        W95221  36.964  23.601   3.326
26881W        W95222  12.158  21.573   0.395
26882W        W95223  15.624   5.881  11.905
26883W        W95224  30.647  12.661   1.919
26884W        W95225  17.620  44.363  14.761
26885W        W95226   4.727  42.516   2.668
26886W        W95227  23.726  28.176  14.362
26887W        W95228  29.928  22.704  11.599
26888W        W95229   9.698  20.241   0.812
26889W        W95230  17.243  41.015  12.867
26890W        W95231   5.207  12.693  10.486
26891W        W95232  21.062  41.396   3.306
26892W        W95233  38.553  25.572   2.672
26893W        W95234   0.952   9.842  10.600
26894W        W95235  43.004   5.262   0.894
26895W        W95236  13.681  10.232  11.969
26896W        W95237  30.650  40.868   2.225
26897W        W95238  31.930  16.288   3.816
26898W        W95239  37.989  35.876  14.879
26899W        W95240  26.603  43.918  14.778
26900W        W95241  32.591  41.820   9.930
26901W        W95242  17.614   2.907   3.740
26902W        W95243  14.333  12.656   9.983
26903W        W95244  35.519  35.486  10.633
26904W        W95245  23.079   0.778   4.831
26905W        W95246   7.671  16.088  11.459
26906W        W95247  38.913  12.315  13.312
26907W        W95248  16.075  10.763  12.435
26908W        W95249  29.657  29.582   4.219
26909W        W95250  33.395  23.170  10.888
26910W        W95251   6.786  37.466  11.115
26911W        W95252  42.916  20.050  13.329
26912W        W95253  28.172  12.852   5.108
26913W        W95254  36.852  24.643  12.858
26914W        W95255  19.538  41.844  12.059
26915W        W95256  18.153   3.304  10.462
26916W        W95257  25.190  10.288   0.876
26917W        W95258  30.076  23.524   0.264
26918W        W95259  11.643   1.806  10.124
26919W        W95260  23.572  15.661  14.332
26920W        W95261  37.035  21.182   1.435
26921W        W95262   8.290  21.593   3.209
26922W        W95263  14.243   2.914   4.210
26923W        W95264  14.802  14.782  14.864
26924W        W95265   5.837  44.755   3.648
26925W        W95266   8.338  41.319   0.433
26926W        W95267  13.221  24.555   0.378
26927W        W95268   8.876  25.514   2.324
26928W        W95269   4.418   0.935   3.781
26929W        W95270  11.725  25.135   3.204
26930W        W95271  41.950  36.358  14.783
26931W        W95272  35.559  37.561  11.398
26932W        W95273  19.206  41.400   0.873
26933W        W95274  19.780  24.058   0.738
26934W        W95275   7.899  19.164   2.419
26935W        W95276  12.826   0.819  11.104
26936W        W95277  39.049   8.845   4.665
26937W        W95278  38.413  40.432  10.531
26938W        W95279  21.718  25.577   3.199
26939W        W95280  16.687  23.064  11.431
26940W        W95281  24.973  39.058  10.499
26941W        W95282  29.077  38.029   3.674
26942W        W95283  35.382   3.741  10.439
26943W        W95284  28.515  11.169  11.926
26944W        W95285  18.207  13.162   3.310
26945W        W95286  17.687  21.252   0.832
26946W        W95287  39.424   0.378  13.323
26947W        W95288  33.886  35.503  10.505
26948W        W95289  33.974  11.214  12.895
26949W        W95290   3.734  13.787   4.263
26950W        W95291  12.750  17.729   1.254
26951W        W95292   3.369   8.240  14.397
26952W        W95293  33.087  12.837   1.271
26953W        W95294  15.684  19.277   0.759
26954W        W95295  41.304  40.857  14.001
26955W        W95296  32.617   2.939  13.884
26956W        W95297  26.091  25.976   0.337
26957W        W95298  21.139  11.358  12.504
26958W        W95299  29.918  32.425  14.926
26959W        W95300  10.638  19.687  14.409
26960W        W95301  19.073  42.284  12.922
26961W        W95302   1.756  22.723   1.287
26962W        W95303  18.550  14.770  12.944
26963W        W95304  24.712  24.695  14.411
26964W        W95305  25.659  15.240  12.887
26965W        W95306  16.211  36.948   2.847
26966W        W95307   4.944  38.466   0.771
26967W        W95308  40.307  36.947  12.536
26968W        W95309  36.374   8.807   2.410
26969W        W95310  26.112  16.298   1.360
26970W        W95311   0.494  13.316   4.185
26971W        W95312  39.853  22.677  12.347
26972W        W95313  23.140  27.515   3.359
26973W        W95314  18.585  34.373   2.853
26974W        W95315  37.857  29.524   2.844
26975W        W95316  18.596   3.868   2.362
26976W        W95317   9.818  41.787  10.547
26977W        W95318  24.512  38.379   4.246
26978W        W95319  40.944  25.010  11.438
26979W        W95320   9.275  16.675   2.229
26980W        W95321  33.047  35.888   4.315
26981W        W95322  26.188   6.861  14.902
26982W        W95323  18.669   3.289   5.182
26983W        W95324  19.628   7.176   3.849
26984W        W95325  17.214  26.598  10.913
26985W        W95326   0.403  39.548   3.766
26986W        W95327  16.133  36.960   2.334
26987W        W95328  37.960  30.478   4.144
26988W        W95329   7.857  35.935  10.438
26989W        W95330  19.602  18.227  12.980
26990W        W95331  26.970  41.525  12.034
26991W        W95332  21.107  30.946   0.297
26992W        W95333  36.389  22.587   1.915
26993W        W95334  42.953  41.369   4.131
26994W        W95335  28.128  10.661  13.997
26995W        W95336  43.357  13.695   3.629
26996W        W95337  22.532  14.787   0.274
26997W        W95338  32.117  35.462   3.852
26998W        W95339   1.948   3.867   2.178
26999W        W95340  12.679  27.488  10.924
27000W        W95341  30.052  42.844   1.232
27001W        W95342  30.969  30.919  14.424
27002W        W95343  40.499  14.322  13.945
27003W        W95344  12.321   8.223   2.271
27004W        W95345  18.171  32.060  13.951
27005W        W95346   9.670  23.015   4.820
27006W        W95347  30.482   0.844   3.840
27007W        W95348  25.014  31.606  12.877
27008W        W95349  33.964   8.775  11.517
27009W        W95350  11.335  35.365  10.433
27010W        W95351   0.252  21.222   0.946
27011W        W95352  33.065  17.704   1.250
27012W        W95353  29.555   3.427  12.483
27013W        W95354  24.996   1.263  11.600
27014W        W95355   5.341  42.929   4.155
27015W        W95356  18.092   6.193  10.615
27016W        W95357  20.646   7.745   4.757
27017W        W95358  30.504  43.019   1.335
27018W        W95359  20.576  11.840   4.255
27019W        W95360  21.594  16.128  14.445
27020W        W95361  26.651  39.549   2.235
27021W        W95362  39.443  38.456   4.178
27022W        W95363  34.912  33.460   3.682
27023W        W95364  39.549  23.051   1.828
27024W        W95365   4.709  10.806   3.735
27025W        W95366  30.071  25.582  11.493
27026W        W95367   4.276  30.035  14.870
27027W        W95368  32.058  30.503  10.073
27028W        W95369  40.344  13.328   1.255
27029W        W95370   6.826  40.048  11.960
27030W        W95371  15.725   8.765   4.770
27031W        W95372  10.278   0.486  12.028
27032W        W95373  25.595  16.747   2.831
27033W        W95374   9.150  41.824  12.482
27034W        W95375  25.684  10.752  12.837
27035W        W95376  23.724  17.800  11.534
27036W        W95377  33.111  36.061   2.902
27037W        W95378  34.440  32.952   2.723
27038W        W95379   1.852  14.610   2.863
27039W        W95380  33.563   6.344  13.805
27040W        W95381  34.877  36.558   3.686
27041W        W95382  32.441   9.232  10.941
27042W        W95383  42.512  30.945  11.477
27043W        W95384   9.261  12.149   1.785
27044W        W95385  26.549  31.084  13.821
27045W        W95386   2.292  18.251   4.193
27046W        W95387  23.058   1.439  13.878
27047W        W95388  30.137   5.211  14.435
27048W        W95389  40.490  23.098   3.157
27049W        W95390  38.855   1.881  12.976
27050W        W95391  42.464  32.402  12.974
27051W        W95392  38.554  32.988   0.391
27052W        W95393  33.551  44.811  12.894
27053W        W95394  27.987   0.449   0.296
27054W        W95395  31.943  10.647   4.607
27055W        W95396   6.389   1.785  13.547
27056W        W95397   9.364  43.821  11.105
27057W        W95398  39.016  30.492  10.007
27058W        W95399  43.922  10.275  12.014
27059W        W95400  41.508  28.496   4.803
27060W        W95401   0.948  21.512   1.235
27061W        W95402  15.294  12.660  10.994
27062W        W95403   0.269  12.620   0.243
27063W        W95404   6.894  23.525   2.662
27064W        W95405  18.194   1.341   4.721
27065W        W95406   3.923   7.227   0.480
27066W        W95407   4.744  39.518   2.822
27067W        W95408  39.909  30.042  11.034
27068W        W95409  25.537   6.360  13.800
27069W        W95410  43.896   2.255   2.777
27070W        W95411   7.709   9.860  14.943
27071W        W95412  35.410  39.453   3.862
27072W        W95413  24.070  32.918  10.624
27073W        W95414   4.318  35.558   1.288
27074W        W95415  33.036  14.244  11.612
27075W        W95416   6.724   9.694   1.289
27076W        W95417  21.059   3.712  13.404
27077W        W95418   4.798  37.042   1.367
27078W        W95419  29.569  32.528   3.177
27079W        W95420  10.826  18.258  14.827
27080W        W95421   2.261   1.263  11.394
27081W        W95422  41.501  20.680  14.774
27082W        W95423  33.030  21.571  12.437
27083W        W95424  15.805  21.548   3.870
27084W        W95425  13.694  14.679  12.404
27085W        W95426  24.159  39.879   1.258
27086W        W95427  24.197  25.963   2.742
27087W        W95428  21.034  13.694  10.615
27088W        W95429  39.038  21.633  14.948
27089W        W95430  16.794  35.368  12.492
27090W        W95431  21.070  22.673  11.519
27091W        W95432  30.156  36.959   0.866
27092W        W95433  34.116  13.144  14.427
27093W        W95434  18.273   5.812  10.439
27094W        W95435  38.835  32.133   5.253
27095W        W95436   3.717  24.554  14.505
27096W        W95437  27.008  37.396   1.441
27097W        W95438   2.315  29.500  13.339
27098W        W95439   8.831  10.322  12.553
27099W        W95440  39.481  22.193  12.534
27100W        W95441  18.637  17.661  12.930
27101W        W95442  43.955   5.272  10.926
27102W        W95443  20.223   9.757  11.456
27103W        W95444  13.184   4.794  12.406
27104W        W95445  16.093   7.215   0.285
27105W        W95446  19.187  35.090   2.869
27106W        W95447  38.866   1.313   2.766
27107W        W95448  27.679  42.287  12.059
27108W        W95449  24.724   1.887  12.924
27109W        W95450  22.708   0.794   4.758
27110W        W95451   2.303   1.941   3.265
27111W        W95452  23.057   5.206  14.859
27112W        W95453   9.252  10.729   2.250
27113W        W95454   0.774  41.421   2.761
27114W        W95455   4.397  25.632  13.366
27115W        W95456  13.761  33.036  14.974
27116W        W95457  37.582  29.167   4.335
27117W        W95458  30.937  28.087   2.894
27118W        W95459   6.759  22.231   0.743
27119W        W95460   0.353  16.576  12.391
27120W        W95461   6.785  15.667   0.911
27121W        W95462  37.480  25.675   4.139
27122W        W95463  25.625   5.290  11.024
27123W        W95464  11.291  15.293  11.446
27124W        W95465  39.545   1.784  13.474
27125W        W95466  18.156  18.660   0.746
27126W        W95467  34.030  32.538   4.280
27127W        W95468  25.638  31.152  11.517
27128W        W95469  39.406   1.419  14.372
27129W        W95470  10.756   1.273  14.021
27130W        W95471  34.567  30.439   1.730
27131W        W95472   5.687   8.707   3.738
27132W        W95473  31.017  29.167   2.230
27133W        W95474  13.715  44.911   3.786
27134W        W95475  42.009   3.892  14.504
27135W        W95476   1.937  11.747   2.764
27136W        W95477   7.296  42.365  14.002
27137W        W95478  12.315  30.001   3.254
27138W        W95479   7.352  33.026  13.880
27139W        W95480  32.016  16.169  13.431
27140W        W95481  31.451  13.248  14.862
27141W        W95482  12.772   5.312  12.961
27142W        W95483  25.099   0.963   0.302
27143W        W95484  44.933  31.148  14.501
27144W        W95485  31.972  29.430   0.773
27145W        W95486  30.952  31.630   2.347
27146W        W95487  38.325  28.019   3.756
27147W        W95488  26.483  16.648   1.311
27148W        W95489  31.501  43.482  13.836
27149W        W95490  39.508  43.813   0.843
27150W        W95491  32.577  13.198  14.824
27151W        W95492   0.307  27.019   0.883
27152W        W95493  39.511   9.700  13.308
27153W        W95494  29.145  28.572   0.463
27154W        W95495  33.464  37.976   0.456
27155W        W95496  24.694  39.961  14.944
27156W        W95497   7.388  29.433   4.121
27157W        W95498  17.283  14.733   4.214
27158W        W95499  39.921  20.044  14.958
27159W        W95500  17.733  41.984  13.007
27160W        W95501  10.373  43.789  12.049
27161W        W95502  13.191  19.585  14.992
27162W        W95503  21.598  41.416   4.655
27163W        W95504  31.047  10.675  11.094
27164W        W95505  13.717   5.423  13.034
27165W        W95506  34.447   3.312   3.721
27166W        W95507  35.378   0.323  10.964
27167W        W95508  13.807  15.171  12.823
27168W        W95509  30.540  39.012   1.254
27169W        W95510   9.374  23.118   4.136
27170W        W95511  38.995  43.443  13.863
27171W        W95512  44.897  30.946  13.032
27172W        W95513  36.866  41.533  13.877
27173W        W95514  43.919  24.601   1.305
27174W        W95515  24.125  22.053   4.821
27175W        W95516  23.117  44.321   3.244
27176W        W95517  11.706  11.253   5.105
27177W        W95518  20.623  14.157   0.836
27178W        W95519  22.018   3.321  14.345
27179W        W95520  32.455  15.092   4.320
27180W        W95521  29.168  18.057  10.632
27181W        W95522  38.470   5.230  11.601
27182W        W95523  12.614  21.551  13.847
27183W        W95524  12.297  23.646  11.940
27184W        W95525   2.955  43.419   2.788
27185W        W95526   0.849  43.019  10.005
27186W        W95527  10.254  29.591  11.959
27187W        W95528  25.576   1.973  10.494
27188W        W95529  34.483   4.727   2.346
27189W        W95530  17.264  34.588   4.680
27190W        W95531  29.921  38.439   2.224
27191W        W95532   1.464  22.241  12.562
27192W        W95533   7.843  34.073  11.918
27193W        W95534  17.736  13.118  14.422
27194W        W95535   1.263  17.136   1.825
27195W        W95536  11.699   5.261  12.491
27196W        W95537  30.608  42.973  13.433
27197W        W95538   9.244  15.108  12.510
27198W        W95539  36.398   0.758  11.005
27199W        W95540  14.325  11.147  10.418
27200W        W95541  38.937  29.488   1.880
27201W        W95542  11.140  20.697  11.963
27202W        W95543  15.606  37.551  13.381
27203W        W95544   2.428  37.083  11.883
27204W        W95545  14.710  39.439  10.614
27205W        W95546  15.140  14.705  12.854
27206W        W95547   9.211  39.316  12.438
27207W        W95548  11.748   5.783   2.728
27208W        W95549  44.278  14.136   0.362
27209W        W95550   1.801  18.679   0.287
27210W        W95551   4.761  31.412  13.806
27211W        W95552  11.664   5.433   1.218
27212W        W95553  28.998  35.885  14.811
27213W        W95554  24.481   0.864   2.228
27214W        W95555  14.783  18.601  10.888
27215W        W95556  29.461  10.360  14.483
27216W        W95557  34.475  22.642   2.837
27217W        W95558   3.254  34.061   0.898
27218W        W95559  44.960  26.558   3.384
27219W        W95560  23.642  28.525   1.305
27220W        W95561  18.202   7.248   1.868
27221W        W95562  14.207  12.293  12.887
27222W        W95563  38.401  12.341   1.756
27223W        W95564  32.557  36.448  12.567
27224W        W95565  12.238   5.758   2.396
27225W        W95566   5.780  14.095   0.266
27226W        W95567  18.669   1.317   0.393
27227W        W95568   6.398   2.896   2.710
27228W        W95569  42.032  28.604  11.928
27229W        W95570  41.924  25.655  14.021
27230W        W95571  16.242  16.691   2.667
27231W        W95572  43.423   1.273   2.186
27232W        W95573   1.966  10.164  13.514
27233W        W95574  29.504   1.345   2.878
27234W        W95575  33.622  24.574  12.498
27235W        W95576  26.070  17.682  13.489
27236W        W95577   7.321   2.243   2.722
27237W        W95578  25.679  27.176  13.932
27238W        W95579  17.198  43.803   0.781
27239W        W95580  17.569  14.775  13.990
27240W        W95581   3.812  39.041  14.471
27241W        W95582  21.236  13.776   1.425
27242W        W95583  26.054  26.005  14.302
27243W        W95584   9.750  41.511   0.943
27244W        W95585  41.490  41.415   5.596
27245W        W95586   5.240  10.254   1.259
27246W        W95587  30.534  28.996  11.398
27247W        W95588  19.210  32.612   3.805
27248W        W95589  26.590  42.007   3.317
27249W        W95590   5.292  11.315  10.588
27250W        W95591  20.160   5.762   3.207
27251W        W95592  32.941   2.278  11.445
27252W        W95593  30.612  24.214  10.472
27253W        W95594  17.768  31.984   2.233
27254W        W95595  19.277  41.015  11.373
27255W        W95596   8.886   9.643  13.326
27256W        W95597  39.870  36.580   2.769
27257W        W95598  25.976  26.698   2.739
27258W        W95599  17.773  34.375   0.314
27259W        W95600  11.838  28.533  10.072
27260W        W95601  20.670   2.314   3.812
27261W        W95602  30.656  34.064   3.752
27262W        W95603  41.369  38.355   1.721
27263W        W95604  25.672  36.037  13.418
27264W        W95605  17.689  38.856  12.923
27265W        W95606   9.230  26.045   3.215
27266W        W95607  38.453  23.655   3.835
27267W        W95608  42.390  19.249  11.602
27268W        W95609  18.244  25.668  12.383
27269W        W95610  44.941   3.310  10.633
27270W        W95611  33.089  25.483  12.391
27271W        W95612  36.992   0.328   1.748
27272W        W95613  18.647  24.188  14.790
27273W        W95614  29.585   9.165   4.315
27274W        W95615   8.378  42.821   3.770
27275W        W95616  32.572  15.778  13.457
27276W        W95617  25.553  33.606  14.288
27277W        W95618  28.457   7.754  10.949
27278W        W95619  35.480  30.597  11.886
27279W        W95620  19.622  13.789  11.394
27280W        W95621  13.837  28.039   1.368
27281W        W95622  26.998  43.818   1.736
27282W        W95623  17.772  11.196   0.853
27283W        W95624  13.154  37.839   3.186
27284W        W95625  18.265  33.458  11.906
27285W        W95626  18.120   9.384   4.306
27286W        W95627  16.089  11.676   3.149
27287W        W95628  29.995  39.848   2.212
27288W        W95629  34.036  17.288  12.434
27289W        W95630  22.553  23.207   4.676
27290W        W95631  19.776  27.449  11.097
27291W        W95632   8.820  34.982  13.909
27292W        W95633   9.196  39.833  12.026
27293W        W95634  26.626  44.938   1.399
27294W        W95635  10.757  37.388  11.567
27295W        W95636   1.967   2.967   1.428
27296W        W95637  44.455  32.985  11.412
27297W        W95638   9.845  36.996   1.213
27298W        W95639  41.349  40.445   3.304
27299W        W95640  17.174   2.286  14.803
27300W        W95641  29.959  37.428   4.324
27301W        W95642  31.144   9.195   1.353
27302W        W95643   7.229  28.950  10.532
27303W        W95644  18.294  23.193  14.286
27304W        W95645   7.352  29.088  12.083
27305W        W95646  15.786   3.877  13.992
27306W        W95647  43.840  44.935  14.366
27307W        W95648  10.867  35.454  11.568
27308W        W95649  15.600  44.402   0.843
27309W        W95650  39.840  37.560   2.366
27310W        W95651  35.400  30.580   3.649
27311W        W95652  34.053  43.003  14.830
27312W        W95653  24.531  28.600  12.010
27313W        W95654  14.096  37.564   0.398
27314W        W95655  12.786  38.017  11.596
27315W        W95656  32.471  41.993   5.212
27316W        W95657  10.639   8.884   2.703
27317W        W95658  36.588  16.186  14.772
27318W        W95659  27.548  22.702   3.681
27319W        W95660   8.200  31.628  12.463
27320W        W95661  12.830  26.579   1.412
27321W        W95662   8.737  26.466   5.260
27322W        W95663  29.559  33.002  13.803
27323W        W95664  28.084  23.653  12.491
27324W        W95665  38.024   7.749   0.395
27325W        W95666  43.921  19.117  14.356
27326W        W95667  39.331  32.593  11.427
27327W        W95668  11.197  26.591   3.764
27328W        W95669  31.556  16.257   4.326
27329W        W95670   6.353  44.380  12.054
27330W        W95671  25.187  17.139  13.538
27331W        W95672  20.042  30.590  14.356
27332W        W95673  42.491  12.211   4.734
27333W        W95674  35.532  13.211  10.596
27334W        W95675  18.732  33.458  10.006
27335W        W95676  39.910  16.114   4.617
27336W        W95677  24.721  44.941  12.440
27337W        W95678  44.490   3.806  12.952
27338W        W95679  24.660  43.338   2.884
27339W        W95680  20.150  22.648  10.574
27340W        W95681  43.788  44.794  10.558
27341W        W95682  31.567  40.012   3.219
27342W        W95683  18.563  38.819   4.217
27343W        W95684  31.994   9.314   4.121
27344W        W95685  17.558  11.243   2.771
27345W        W95686  13.270   1.845  12.474
27346W        W95687  21.600  36.591   1.292
27347W        W95688   2.351  27.606   4.325
27348W        W95689  37.981  11.143  12.069
27349W        W95690  41.417  24.549  13.514
27350W        W95691  18.613  26.116  13.356
27351W        W95692  36.448  32.972  13.825
27352W        W95693  26.509  35.380   3.229
27353W        W95694   8.702  30.952  11.981
27354W        W95695  12.139  44.375   2.187
27355W        W95696  10.828  16.190   1.247
27356W        W95697  13.734  32.461   3.862
27357W        W95698  13.637  20.148   2.790
27358W        W95699  10.767   3.919   0.424
27359W        W95700  27.500  30.941  13.473
27360W        W95701  41.853   0.948  11.915
27361W        W95702   9.391   1.279  12.895
27362W        W95703  22.685  28.130  11.911
27363W        W95704   6.841   5.817  11.553
27364W        W95705  32.528  41.030   1.930
27365W        W95706  42.023  13.706  14.945
27366W        W95707  40.322  40.893  14.029
27367W        W95708  41.916  37.404   4.745
27368W        W95709   4.876   0.973  14.471
27369W        W95710   8.275  21.725  14.498
27370W        W95711   4.409  25.629   0.248
27371W        W95712  17.658  41.328  14.913
27372W        W95713   0.840  13.249  13.512
27373W        W95714  44.414  23.585  10.604
27374W        W95715  31.968  27.603   1.331
27375W        W95716  26.689  35.382  14.413
27376W        W95717  41.312  40.354   1.870
27377W        W95718   2.809  44.421   0.267
27378W        W95719  30.569  16.276   1.788
27379W        W95720  33.874  44.785  12.520
27380W        W95721  28.001  39.350   4.803
27381W        W95722   8.319  32.087  13.356
27382W        W95723  18.646  13.314   3.856
27383W        W95724  37.376  33.058   1.436
27384W        W95725  13.335   8.770   0.386
27385W        W95726  21.627  36.476  12.975
27386W        W95727  34.371  22.737  11.863
27387W        W95728  18.152  28.161   4.214
27388W        W95729  39.448  13.167   1.752
27389W        W95730  26.197  25.471  13.464
27390W        W95731  20.226  24.676   4.291
27391W        W95732  17.282  33.439   3.343
27392W        W95733  35.415   5.352  12.029
27393W        W95734  10.186  11.696  13.494
27394W        W95735  10.232  40.348   5.153
27395W        W95736  26.465  18.559   5.119
27396W        W95737  40.534  16.264   0.789
27397W        W95738   2.423  37.038   1.304
27398W        W95739  24.033  18.119   0.919
27399W        W95740   6.336  26.511  10.556
27400W        W95741  41.787  15.305   0.351
27401W        W95742   9.194  13.238  14.879
27402W        W95743  11.179  23.084   4.816
27403W        W95744  25.653  36.039  13.044
27404W        W95745   4.383  15.810  14.820
27405W        W95746  27.984   1.469   2.710
27406W        W95747  35.941   2.321   0.389
27407W        W95748  29.065  17.209  13.926
27408W        W95749  31.472  37.909   3.335
27409W        W95750  12.855  29.661   4.603
27410W        W95751  17.181  17.669  12.059
27411W        W95752  30.546  19.251  10.435
27412W        W95753  23.718   1.790   2.745
27413W        W95754   0.483   5.757  12.570
27414W        W95755  41.430  39.039   5.227
27415W        W95756  11.265   5.863  10.890
27416W        W95757  22.597  44.887  12.856
27417W        W95758  33.905  10.207  13.475
27418W        W95759   3.925  22.577  13.351
27419W        W95760  31.031  32.617   1.319
27420W        W95761  18.126  37.834   4.266
27421W        W95762  34.013  16.566   2.365
27422W        W95763  36.091  44.901  14.470
27423W        W95764  41.298  11.652   3.146
27424W        W95765   8.728   4.784   0.854
27425W        W95766  22.056   6.886  14.812
27426W        W95767  15.750  10.146   5.270
27427W        W95768  10.235  18.107  14.941
27428W        W95769  21.747  17.596  14.823
27429W        W95770  15.750   1.326  14.022
27430W        W95771   5.291  31.976   1.765
27431W        W95772   0.258  12.751  13.924
27432W        W95773  11.272   9.383   2.811
27433W        W95774  27.502  16.124  10.985
27434W        W95775  18.689  44.776   2.250
27435W        W95776  14.132  29.565  12.863
27436W        W95777   8.665  24.165   0.467
27437W        W95778  27.599  35.015  11.025
27438W        W95779  36.436  29.457  14.778
27439W        W95780  11.716   3.453   3.240
27440W        W95781  32.897  17.157   3.166
27441W        W95782   3.924   7.316   2.749
27442W        W95783   1.795  19.579   1.390
27443W        W95784   3.864   1.385   2.386
27444W        W95785  10.829  42.302   2.902
27445W        W95786  16.771   0.970  12.002
27446W        W95787   2.265   4.876   1.757
27447W        W95788   8.228  20.036  11.574
27448W        W95789  32.508   9.358   0.871
27449W        W95790  19.114   6.293  12.996
27450W        W95791  11.243  39.550   3.845
27451W        W95792  35.070  38.365  12.540
27452W        W95793  16.653  21.114  12.504
27453W        W95794   6.403   5.749   2.702
27454W        W95795  28.579   9.187   2.725
27455W        W95796  20.176   5.693  14.909
27456W        W95797   6.332  13.312   4.279
27457W        W95798  18.695  43.852  13.975
27458W        W95799  31.093  26.618  10.067
27459W        W95800  40.414  20.742  14.477
27460W        W95801  29.170   7.331   1.218
27461W        W95802  31.982  11.858  12.023
27462W        W95803  10.216  36.466  13.012
27463W        W95804  24.681  20.537  11.373
27464W        W95805   6.790  38.052   3.787
27465W        W95806  43.866   5.745   2.725
27466W        W95807  34.400   4.301  11.875
27467W        W95808  30.133  43.333   2.253
27468W        W95809  18.216  43.913   2.781
27469W        W95810  42.385  28.106  11.869
27470W        W95811  34.097  43.954   2.853
27471W        W95812  36.913   7.768   4.290
27472W        W95813  18.261  42.897   1.450
27473W        W95814   4.222  31.918   1.892
27474W        W95815  16.079  16.307   4.117
27475W        W95816  27.625   4.786   0.862
27476W        W95817  18.738   3.395  11.974
27477W        W95818   3.372  28.614  12.408
27478W        W95819   2.246   4.252   0.386
27479W        W95820  12.123  26.161   0.878
27480W        W95821  23.518  23.568  14.014
27481W        W95822  44.479  15.110  10.419
27482W        W95823  13.776  37.522   2.278
27483W        W95824  41.334  26.632   1.342
27484W        W95825  23.995  28.639  11.486
27485W        W95826  35.945  30.930  14.374
27486W        W95827   2.288  43.868   2.331
27487W        W95828  33.601  22.637  12.490
27488W        W95829  37.455  39.993  12.356
27489W        W95830  30.004   4.766   3.685
27490W        W95831  22.722   2.809  10.909
27491W        W95832  38.842  43.774   4.226
27492W        W95833  16.608  30.461   4.281
27493W        W95834  34.889  11.320   3.385
27494W        W95835  37.536  41.407   2.732
27495W        W95836  33.594   3.269   1.732
27496W        W95837  21.244   4.252  12.553
27497W        W95838  42.785  19.574   3.720
27498W        W95839   3.791  17.644  13.340
27499W        W95840  14.815  40.898   4.140
27500W        W95841   0.454   4.343  11.495
27501W        W95842  24.196   9.235  10.495
27502W        W95843  41.305  25.676  14.484
27503W        W95844   4.424   0.360  10.563
27504W        W95845   4.907   2.399  13.528
27505W        W95846   2.282  15.580   2.327
27506W        W95847  10.807  34.996  10.589
27507W        W95848  30.091  23.519   2.818
27508W        W95849  13.230  14.708   1.777
27509W        W95850  35.397   7.845   1.432
27510W        W95851  30.101  24.140  13.519
27511W        W95852  29.092   0.782  12.960
27512W        W95853  26.006  24.019  14.286
27513W        W95854  10.771  14.096   3.657
27514W        W95855  23.086  43.403  13.966
27515W        W95856   6.257  36.993   2.314
27516W        W95857  17.756   2.830   0.285
27517W        W95858  43.422   0.801  10.959
27518W        W95859  22.094  22.058  11.570
27519W        W95860  24.013  42.960  14.918
27520W        W95861  41.913  19.158  12.503
27521W        W95862  21.541  24.720  11.928
27522W        W95863  18.625  29.986   3.704
27523W        W95864  16.782  23.166  14.005
27524W        W95865  28.992  38.511  12.864
27525W        W95866   3.265  43.899  12.966
27526W        W95867  20.545  13.163  12.403
27527W        W95868  19.675  29.628   1.765
27528W        W95869  11.138  19.234   3.223
27529W        W95870   3.844  10.755   4.714
27530W        W95871  29.532  43.995   4.742
27531W        W95872  41.980  25.701  10.611
27532W        W95873   5.776  11.316   3.638
27533W        W95874   4.752  42.781   4.280
27534W        W95875  13.632  18.106   4.304
27535W        W95876  43.871  21.081   3.856
27536W        W95877   9.308  12.746   0.331
27537W        W95878  25.138  14.328  12.380
27538W        W95879  15.698  33.475   1.323
27539W        W95880   5.854  37.374  13.352
27540W        W95881   6.257  31.953   5.253
27541W        W95882  38.413  34.117  12.364
27542W        W95883  19.754   8.228  14.280
27543W        W95884  16.773  33.466  11.552
27544W        W95885  27.112  25.605   1.727
27545W        W95886  32.084   7.311   0.941
27546W        W95887  19.222  21.248  11.012
27547W        W95888  23.108  42.983  11.929
27548W        W95889  34.904  40.876   2.664
27549W        W95890  42.285  24.034   0.332
27550W        W95891   0.922  11.853  13.919
27551W        W95892  40.438  11.331  13.413
27552W        W95893  34.972  18.660  13.051
27553W        W95894   0.452  39.846   3.743
27554W        W95895  17.703  31.467  12.933
27555W        W95896  37.388  32.026  12.421
27556W        W95897   1.869  19.249  12.545
27557W        W95898   9.724  23.049  11.046
27558W        W95899  39.464  11.334  10.935
27559W        W95900  32.552  22.546  12.962
27560W        W95901  11.771   3.730  13.468
27561W        W95902  36.017   9.210   1.835
27562W        W95903  14.690   1.874  11.029
27563W        W95904  19.544   9.783   1.380
27564W        W95905  10.714  34.044   1.810
27565W        W95906  13.698   2.417  12.383
27566W        W95907  34.060  44.801   1.404
27567W        W95908  10.203  41.350  12.067
27568W        W95909   4.252  26.980   0.885
27569W        W95910  25.041  15.708  12.474
27570W        W95911  12.638  35.549   2.322
27571W        W95912   2.332  24.509   0.284
27572W        W95913  32.406   7.291   3.255
27573W        W95914  36.037  18.275  11.982
27574W        W95915  40.817  38.434  14.901
27575W        W95916  14.252  19.099  14.488
27576W        W95917  11.726  32.027  11.886
27577W        W95918  21.157   5.822   5.133
27578W        W95919  32.506  37.030  11.578
27579W        W95920   3.346  16.139  10.998
27580W        W95921  42.462  16.724   2.715
27581W        W95922  36.005  24.642   4.739
27582W        W95923  30.463  10.692  14.424
27583W        W95924  38.335   2.858   2.782
27584W        W95925  29.477  19.057   4.128
27585W        W95926   5.698  29.649  12.466
27586W        W95927  31.075  32.057   5.175
27587W        W95928  20.105   5.888  12.558
27588W        W95929   7.768  19.084   4.149
27589W        W95930  25.208  27.185   3.805
27590W        W95931  44.995   8.339  13.907
27591W        W95932   4.919  36.500   2.268
27592W        W95933   9.394  25.061   1.213
27593W        W95934  41.014  12.639   0.741
27594W        W95935  24.574  40.540   4.736
27595W        W95936   0.903  18.683   5.722
27596W        W95937  25.545  14.748   2.328
27597W        W95938  37.851   1.919  14.885
27598W        W95939  38.834  11.698   4.753
27599W        W95940   2.383  11.249  13.442
27600W        W95941  41.466  16.732   3.160
27601W        W95942  23.024  15.271   0.942
27602W        W95943  40.978  34.083  11.563
27603W        W95944  34.443  35.521   2.720
27604W        W95945  30.639  30.957   1.231
27605W        W95946   0.342   3.893  12.933
27606W        W95947  36.377  39.832  14.277
27607W        W95948  15.244  32.006   0.759
27608W        W95949  30.007  38.473  12.875
27609W        W95950   4.239  32.495   4.631
27610W        W95951  10.339   4.345   4.182
27611W        W95952  16.169  27.146  12.475
27612W        W95953   7.348   8.677   2.378
27613W        W95954  23.607  44.291  10.069
27614W        W95955  38.424  44.922  12.855
27615W        W95956   7.264  35.563   2.665
27616W        W95957  38.471  21.031   5.128
27617W        W95958  43.981  43.307   4.759
27618W        W95959  34.601   0.491  12.944
27619W        W95960  29.000  20.729   1.398
27620W        W95961  23.106  18.105   4.256
27621W        W95962   9.181   9.186  14.428
27622W        W95963  19.054  28.474  13.903
27623W        W95964  17.760  11.837  13.514
27624W        W95965  33.609   3.289  10.570
27625W        W95966  40.917  22.036  12.996
27626W        W95967  17.641  35.090  12.503
27627W        W95968   9.773  39.369   2.203
27628W        W95969  18.272  25.694   1.377
27629W        W95970  26.660  41.421  12.505
27630W        W95971  36.850  27.969  12.045
27631W        W95972  10.647  18.133  13.452
27632W        W95973  19.242  42.370  10.573
27633W        W95974   1.851  33.893   2.274
27634W        W95975  17.576  20.125   1.282
27635W        W95976  15.761  41.830   1.897
27636W        W95977  17.658   5.408   1.361
27637W        W95978  33.109  28.152  13.375
27638W        W95979   3.848  14.781   1.274
27639W        W95980   4.944  27.600  13.018
27640W        W95981  30.095   8.698   2.240
27641W        W95982  19.188  32.531   0.857
27642W        W95983   6.717   4.266  12.565
27643W        W95984  41.997  10.635  12.013
27644W        W95985  22.727  43.942   1.362
27645W        W95986  21.066  27.692   3.850
27646W        W95987  26.170  42.012   3.783
27647W        W95988  20.039  29.515   2.783
27648W        W95989  34.370  39.463  10.604
27649W        W95990  38.046   7.224  11.372
27650W        W95991   3.229  26.147   1.311
27651W        W95992  42.282  15.131  13.479
27652W        W95993  41.926   0.296  12.080
27653W        W95994  31.119  42.491  11.005
27654W        W95995  22.550  23.712   3.717
27655W        W95996  31.561  16.729   2.298
27656W        W95997  23.999  33.953  12.415
27657W        W95998  44.919  42.948   4.216
27658W        W95999  17.065  14.123  13.997
27659W        W96000  17.773  42.507  11.892
27660W        W96001  17.598  38.937  11.376
27661W        W96002   6.706  11.827  14.398
27662W        W96003  16.754  44.409   4.315
27663W        W96004  23.233   7.342   2.241
27664W        W96005  22.537  21.018   4.681
27665W        W96006  21.166   7.192   4.312
27666W        W96007   7.179  11.259  13.936
27667W        W96008  12.761  40.358   1.748
27668W        W96009  17.152  22.745  13.051
27669W        W96010   1.467   3.219  10.464
27670W        W96011  43.499  12.625  11.970
27671W        W96012  24.202  42.009   2.305
27672W        W96013  24.038   3.826   3.839
27673W        W96014  22.050  13.718   3.755
27674W        W96015   7.833  29.014  13.347
27675W        W96016  35.444  22.192   0.380
27676W        W96017   6.193  20.567   0.250
27677W        W96018   0.306  20.692  14.358
27678W        W96019  10.854  41.319  13.544
27679W        W96020  20.089  26.620  13.467
27680W        W96021  41.000  19.208   0.480
27681W        W96022  26.154  34.371  12.988
27682W        W96023  13.162  20.606   2.893
27683W        W96024  12.276  24.216  10.611
27684W        W96025  12.192  29.008  11.395
27685W        W96026  16.661  11.809  11.969
27686W        W96027  30.950   9.208  11.884
27687W        W96028  25.187  20.077  14.955
27688W        W96029  25.704  44.861  11.512
27689W        W96030  23.205  12.225  12.547
27690W        W96031  44.815  21.047   2.804
27691W        W96032  26.054  36.006  11.872
27692W        W96033  10.267  24.204  10.584
27693W        W96034  11.629  21.181  12.390
27694W        W96035  36.888  20.661  12.556
27695W        W96036  10.156  42.969   0.465
27696W        W96037  12.221  41.925  12.911
27697W        W96038   6.263  28.152   3.826
27698W        W96039  21.176  21.700   3.163
27699W        W96040  36.521  17.713   0.906
27700W        W96041  16.173  25.489   1.240
27701W        W96042   7.708   5.333   1.726
27702W        W96043  12.324  34.506  11.078
27703W        W96044  11.223  43.834  11.415
27704W        W96045  40.374  14.768   1.881
27705W        W96046  30.072  44.931   0.378
27706W        W96047   7.373  43.339  13.386
27707W        W96048   2.310  35.474   3.646
27708W        W96049  29.482  16.676  13.844
27709W        W96050  30.545  22.194   3.761
27710W        W96051  36.022  11.724   1.708
27711W        W96052   1.859  17.639  13.004
27712W        W96053   8.802   9.219  11.528
27713W        W96054   0.341  14.190   2.855
27714W        W96055  36.958   1.743   0.776
27715W        W96056  19.686   1.402   4.190
27716W        W96057  33.545  34.056  10.474
27717W        W96058   3.880  43.392  14.029
27718W        W96059  35.446  33.527   1.222
27719W        W96060   0.367   3.825   2.189
27720W        W96061  23.138  37.880   1.283
27721W        W96062  34.520  37.521   4.738
27722W        W96063  25.978  28.478  12.950
27723W        W96064  18.282  41.788  12.978
27724W        W96065  27.974  30.496   4.208
27725W        W96066  25.651  22.625   1.772
27726W        W96067   8.357  22.171  12.938
27727W        W96068   3.359  27.612   4.830
27728W        W96069  30.937  28.555   0.282
27729W        W96070  17.717  22.218  13.980
27730W        W96071   9.790   3.455   2.203
27731W        W96072  25.980  44.472   3.373
27732W        W96073  31.543   3.290   3.296
27733W        W96074  22.220  29.438   1.255
27734W        W96075  38.545  24.497   1.912
27735W        W96076  12.247  16.229   1.214
27736W        W96077  26.515  17.144   4.646
27737W        W96078  42.929  14.299   1.921
27738W        W96079   6.410  19.094  12.881
27739W        W96080   1.922  42.868  10.952
27740W        W96081  28.152  25.040   4.686
27741W        W96082  24.101  40.960   1.344
27742W        W96083  37.886   8.322  13.803
27743W        W96084  20.642  15.779  12.872
27744W        W96085  15.098   7.368  13.973
27745W        W96086  18.107  37.508  13.499
27746W        W96087  31.405  36.363  11.379
27747W        W96088   6.862  22.097  11.882
27748W        W96089  34.948  23.174  13.446
27749W        W96090  40.052  10.748  10.513
27750W        W96091   3.947   0.867  13.440
27751W        W96092  43.980  14.803   0.381
27752W        W96093  28.964  35.398  14.999
27753W        W96094  16.716  26.680   0.831
27754W        W96095  37.079  17.578   0.887
27755W        W96096  41.980  17.164   4.734
27756W        W96097  29.988   1.941   3.820
27757W        W96098  10.739  26.105  13.952
27758W        W96099   9.300   8.252  12.447
27759W        W96100  37.074  24.482   4.255
27760W        W96101  30.637   6.335  13.998
27761W        W96102  31.108  25.182  10.454
27762W        W96103  22.606  11.719  13.536
27763W        W96104  27.522  38.911   3.715
27764W        W96105  37.002  42.807   4.208
27765W        W96106  21.749  36.063   4.258
27766W        W96107   2.928  31.490  13.997
27767W        W96108  19.250  23.517   1.830
27768W        W96109   2.784  31.589  14.999
27769W        W96110  25.502  16.693   2.348
27770W        W96111  44.835  17.573   5.718
27771W        W96112  32.469  18.215   4.697
27772W        W96113  39.491   4.304  12.044
27773W        W96114   0.443  39.956  13.026
27774W        W96115  25.629  24.717  12.084
27775W        W96116  22.164  18.144  13.481
27776W        W96117  41.488  11.249   1.364
27777W        W96118  30.435  17.247  12.833
27778W        W96119   6.823  27.623  14.424
27779W        W96120   3.316   8.406  11.372
27780W        W96121  28.570   3.295  13.514
27781W        W96122   2.448  13.345  13.527
27782W        W96123   3.382   6.275   4.230
27783W        W96124  40.836  20.239   4.274
27784W        W96125  43.995  18.650   1.306
27785W        W96126  33.949  10.652  14.325
27786W        W96127  29.451  36.876  10.527
27787W        W96128   7.784  36.389   0.841
27788W        W96129  15.168  36.866  14.855
27789W        W96130   9.295   3.294  11.511
27790W        W96131  42.379  32.477   0.941
27791W        W96132  23.633  19.768   2.726
27792W        W96133  25.666   8.170   2.180
27793W        W96134  25.987  21.547  10.498
27794W        W96135   0.424  12.254   3.727
27795W        W96136   1.769  30.534   2.842
27796W        W96137  31.131  22.624   2.385
27797W        W96138  28.471  42.832  14.876
27798W        W96139  21.702  24.481   0.412
27799W        W96140   5.818   4.760  14.936
27800W        W96141  29.075  30.998  14.472
27801W        W96142  17.746  38.903  11.052
27802W        W96143  37.463  34.583  11.558
27803W        W96144  35.469  28.070   4.658
27804W        W96145  23.131  29.481   3.779
27805W        W96146   2.317  12.649  11.421
27806W        W96147  28.941   8.739  11.447
27807W        W96148  16.155  23.105  13.904
27808W        W96149   2.415  11.338   4.188
27809W        W96150  27.664   7.187  11.013
27810W        W96151  37.346   1.312  10.483
27811W        W96152   1.336  16.806  10.506
27812W        W96153   3.771  22.598   3.311
27813W        W96154  12.186  17.169  11.432
27814W        W96155  12.292   8.861  11.499
27815W        W96156  31.559  14.735  12.012
27816W        W96157  12.220  34.069   4.310
27817W        W96158  10.821  18.589  11.528
27818W        W96159  26.581  17.241   1.248
27819W        W96160  24.189  30.982  13.492
27820W        W96161  35.452  17.762   0.370
27821W        W96162  25.149  33.086  11.111
27822W        W96163  29.161  11.704  11.399
27823W        W96164  23.182   9.197   3.751
27824W        W96165  16.748  26.653  14.948
27825W        W96166   5.202  18.138  13.396
27826W        W96167  35.391   8.771  14.493
27827W        W96168  10.669  15.195   4.162
27828W        W96169  34.083  15.304   4.685
27829W        W96170  23.540  32.409  11.386
27830W        W96171  16.106   9.651  12.430
27831W        W96172  39.808  21.245   3.838
27832W        W96173  35.102  40.525  11.961
27833W        W96174  36.965  14.724  12.051
27834W        W96175  15.577  41.316   4.775
27835W        W96176  37.856   6.394  13.057
27836W        W96177  31.416  39.553   1.299
27837W        W96178  30.939   5.295  10.585
27838W        W96179  43.907  37.905   4.350
27839W        W96180   3.715   7.844   4.745
27840W        W96181  26.673   2.923   3.174
27841W        W96182   4.880  38.990  13.534
27842W        W96183  19.668   0.363  12.893
27843W        W96184   3.779  27.040   1.326
27844W        W96185  19.207  20.245   3.202
27845W        W96186   6.206  31.141   3.840
27846W        W96187  32.105  23.213  11.558
27847W        W96188   6.306  32.421   0.845
27848W        W96189  17.127  23.701   9.958
27849W        W96190   3.363  39.345  14.993
27850W        W96191   2.302  38.336   1.925
27851W        W96192  30.458   2.901   3.823
27852W        W96193  43.851   2.928  11.870
27853W        W96194   1.351  32.060   3.235
27854W        W96195  39.062  22.672  10.602
27855W        W96196  36.486  41.466   3.742
27856W        W96197  22.666   3.284  14.424
27857W        W96198  20.161  16.075   2.368
27858W        W96199  23.238  35.546  13.889
27859W        W96200  28.616   2.326   3.165
27860W        W96201  19.051  41.314  11.431
27861W        W96202  34.489  36.975  12.983
27862W        W96203  19.138  21.134   3.150
27863W        W96204  10.236  12.792  10.106
27864W        W96205  44.287  19.576  12.458
27865W        W96206  35.433   1.846   2.718
27866W        W96207  31.940  22.558   2.841
27867W        W96208  11.860  19.544  14.818
27868W        W96209  23.099  11.302  12.418
27869W        W96210  31.611  28.062   2.387
27870W        W96211   2.313  21.576   4.653
27871W        W96212  18.696  27.974   1.732
27872W        W96213  32.924  13.692  11.527
27873W        W96214  20.230  28.092   3.178
27874W        W96215  11.161  21.579   4.354
27875W        W96216   4.408  27.960   4.818
27876W        W96217  27.084  40.318  14.924
27877W        W96218  39.816  28.062   1.783
27878W        W96219  43.974  19.732   2.319
27879W        W96220  13.321  23.081   2.265
27880W        W96221  25.626  27.136  12.909
27881W        W96222  24.692  34.030   2.830
27882W        W96223  29.097  21.088  14.812
27883W        W96224  40.312  12.691   4.333
27884W        W96225  35.545  26.955   4.300
27885W        W96226  27.688   6.774   2.779
27886W        W96227   6.699  40.506  14.335
27887W        W96228   1.401  18.736   1.867
27888W        W96229  27.113   7.861   2.849
27889W        W96230  14.735  32.055   3.315
27890W        W96231  14.728  18.266   4.613
27891W        W96232  35.586  38.069  13.941
27892W        W96233  22.671   9.279   2.249
27893W        W96234  11.331  37.024  12.520
27894W        W96235  20.160   7.353  13.421
27895W        W96236   0.472  19.235  14.305
27896W        W96237  32.585  43.963  10.940
27897W        W96238  24.074  11.228  12.054
27898W        W96239  43.401  34.906   4.249
27899W        W96240  25.219  26.641  10.950
27900W        W96241  21.544  10.846   4.285
27901W        W96242   3.867  18.627  12.440
27902W        W96243   9.153  12.224   3.370
27903W        W96244  42.423   2.443   0.826
27904W        W96245  30.452  22.674   2.805
27905W        W96246  10.844  34.024  14.428
27906W        W96247  34.437  20.712   4.778
27907W        W96248  32.589  16.780   2.290
27908W        W96249  12.180  34.912   2.261
27909W        W96250  12.226  14.826  12.446
27910W        W96251  16.801   7.849  12.473
27911W        W96252  26.552  31.979  12.013
27912W        W96253   1.818  30.023   2.774
27913W        W96254  20.076  20.082   4.248
27914W        W96255  13.340  33.435   2.721
27915W        W96256   3.290   1.479  13.936
27916W        W96257  26.542  41.374   1.783
27917W        W96258  13.278  17.672  10.581
27918W        W96259  25.007  24.114  12.038
27919W        W96260  27.550   8.743  13.480
27920W        W96261  26.569  24.582  13.340
27921W        W96262  26.651  29.437  13.043
27922W        W96263  23.195  33.108   4.682
27923W        W96264  23.041  10.718   3.783
27924W        W96265  43.793  19.696   3.670
27925W        W96266  34.954  16.698   4.605
27926W        W96267  40.485  31.531   1.931
27927W        W96268  38.029  18.152  14.919
27928W        W96269  14.787  44.832  14.365
27929W        W96270  16.273   9.245   3.347
27930W        W96271   1.306  34.603   0.759
27931W        W96272  18.141  34.370   3.741
27932W        W96273  40.378  15.736  14.781
27933W        W96274  17.575  39.919   3.707
27934W        W96275  29.590  42.403   4.824
27935W        W96276  19.771  22.625  14.973
27936W        W96277  33.528  18.079   1.392
27937W        W96278   2.367  33.118   0.277
27938W        W96279  38.002  28.606   0.911
27939W        W96280  10.240  29.167   1.771
27940W        W96281  19.145   4.809   0.304
27941W        W96282  31.118  23.079   1.749
27942W        W96283  29.527  38.850  13.809
27943W        W96284  22.546  15.701  10.919
27944W        W96285   7.884  34.945   2.730
27945W        W96286  31.056  41.379   1.425
27946W        W96287   1.963  23.236   1.854
27947W        W96288  43.916  33.915   1.281
27948W        W96289  33.425   0.919  14.407
27949W        W96290  33.540  30.602  14.005
27950W        W96291   2.815  22.741  11.050
27951W        W96292   4.937  19.200  11.023
27952W        W96293  12.261   9.393  11.394
27953W        W96294  25.700  40.952   1.721
27954W        W96295  29.078  39.022   2.745
27955W        W96296  30.598   9.298   5.173
27956W        W96297  38.924  14.793   2.868
27957W        W96298  40.464  35.866  10.988
27958W        W96299  26.036  34.484   0.781
27959W        W96300  42.776  25.038   0.374
27960W        W96301  42.400  18.665   0.338
27961W        W96302   3.457  41.452   4.661
27962W        W96303  35.545  15.267   2.315
27963W        W96304  35.492  14.170  14.918
27964W        W96305  15.631   2.860  10.583
27965W        W96306   0.450  14.238   0.252
27966W        W96307   9.876   1.809   1.359
27967W        W96308   8.682  10.223   3.687
27968W        W96309  26.473  26.521   4.126
27969W        W96310  27.942  24.697   3.249
27970W        W96311  19.231  14.280  13.380
27971W        W96312   8.221  17.124   3.226
27972W        W96313  38.870  35.860  12.909
27973W        W96314  34.032  37.425   4.211
27974W        W96315  10.210   7.722   1.298
27975W        W96316  16.777  29.119   2.238
27976W        W96317  33.916  25.692  14.286
27977W        W96318   8.278  26.623   4.803
27978W        W96319  33.091  33.488   2.829
27979W        W96320  15.234   6.278   0.375
27980W        W96321  36.901  38.524  11.023
27981W        W96322   6.227  17.587   3.836
27982W        W96323   4.874   1.385   2.385
27983W        W96324  37.865  33.382  10.029
27984W        W96325  43.485   2.346  11.021
27985W        W96326  34.510  41.937   3.368
27986W        W96327  43.460  35.892  11.971
27987W        W96328  14.830   0.860  10.520
27988W        W96329  31.143  40.014  13.395
27989W        W96330  34.428  43.335  14.439
27990W        W96331  18.681  22.663   9.595
27991W        W96332  24.645  28.077  10.997
27992W        W96333   8.361  17.080   4.189
27993W        W96334  18.655  11.216  11.607
27994W        W96335  40.344  24.211   3.308
27995W        W96336  35.444   8.799   3.203
27996W        W96337  11.134   3.451   2.316
27997W        W96338  23.594   2.945   3.316
27998W        W96339  38.007  23.605  11.895
27999W        W96340  21.670  11.255   3.290
28000W        W96341   2.956  13.626   2.761
28001W        W96342  18.751  42.332   2.726
28002W        W96343   3.449   6.417  11.534
28003W        W96344  12.679   3.243   4.695
28004W        W96345  16.276  13.607   1.319
28005W        W96346  39.914  23.988   1.865
28006W        W96347  38.856  41.516  11.097
28007W        W96348  39.893  33.127  13.363
28008W        W96349   2.920  37.045  11.441
28009W        W96350  18.240  39.442  14.453
28010W        W96351  20.145  42.970   1.251
28011W        W96352  39.979  17.133   4.268
28012W        W96353  41.999  33.432   1.312
28013W        W96354  20.670  29.988  13.808
28014W        W96355  35.505  39.988   1.888
28015W        W96356  41.912   3.797  11.422
28016W        W96357  41.817  38.867  14.383
28017W        W96358  31.131  30.483   0.371
28018W        W96359  43.349  40.336   0.262
28019W        W96360  33.036  10.239  13.440
28020W        W96361  25.040  24.703  12.830
28021W        W96362   1.808  29.059   4.218
28022W        W96363  44.327   2.910  13.500
28023W        W96364  38.998   2.882  10.462
28024W        W96365   1.278  26.512  10.564
28025W        W96366  20.249   9.305   1.711
28026W        W96367  35.855   7.844  10.406
28027W        W96368  19.041   2.766  12.078
28028W        W96369  12.323   4.306   1.894
28029W        W96370  28.950  40.485  13.823
28030W        W96371  36.993   0.319  11.468
28031W        W96372  28.528  16.708   4.623
28032W        W96373  40.454   9.200   0.452
28033W        W96374  28.949  38.049  11.962
28034W        W96375  13.699   1.871   3.636
28035W        W96376  22.048  29.926   2.824
28036W        W96377  21.670  35.084  13.308
28037W        W96378  41.811  31.934  11.076
28038W        W96379  11.174  16.225  10.436
28039W        W96380  43.346  31.144   0.248
28040W        W96381  26.588  33.555   4.169
28041W        W96382  18.104  17.182  14.458
28042W        W96383   9.772   0.965  14.916
28043W        W96384  23.683  36.046   1.931
28044W        W96385  22.555  37.390   2.357
28045W        W96386   2.779   6.909  14.998
28046W        W96387   7.209   0.835  12.021
28047W        W96388   9.309  12.271  13.375
28048W        W96389  24.043   4.898   0.349
28049W        W96390  28.169  38.509  13.842
28050W        W96391  14.791  15.264  12.357
28051W        W96392  14.112  25.968   0.311
28052W        W96393  20.063  12.264  11.463
28053W        W96394  24.123  19.706  12.495
28054W        W96395  34.449  33.477  14.822
28055W        W96396   9.857  37.889  13.509
28056W        W96397  29.158   8.797   4.118
28057W        W96398  24.983   6.203   1.399
28058W        W96399  34.059  33.969   4.808
28059W        W96400  38.846  21.752  14.368
28060W        W96401  32.555  28.568   0.247
28061W        W96402   0.967  42.357  11.393
28062W        W96403  12.119  16.755  13.008
28063W        W96404  29.559   0.871  14.476
28064W        W96405   3.271  11.807   4.277
28065W        W96406  10.641   0.393   3.868
28066W        W96407  15.768  28.933   1.774
28067W        W96408  31.645  14.216   2.811
28068W        W96409  40.448  32.593   0.772
28069W        W96410  38.066  10.226  13.991
28070W        W96411   4.861  28.127   5.133
28071W        W96412  13.826  41.955  10.494
28072W        W96413  30.164  41.450   4.645
28073W        W96414   3.347  43.777   0.353
28074W        W96415  36.006   5.318   3.696
28075W        W96416  18.153  11.246   1.443
28076W        W96417  13.173   7.762   4.116
28077W        W96418  37.577  22.728   2.404
28078W        W96419   0.344  10.229  10.029
28079W        W96420  19.673  21.134  11.449
28080W        W96421  25.085  12.639   4.287
28081W        W96422  33.420  12.825   0.287
28082W        W96423  20.187  21.092   0.338
28083W        W96424  37.581  30.020   4.348
28084W        W96425  21.113  13.844   0.272
28085W        W96426   9.772  37.486   1.889
28086W        W96427   4.213  12.155   4.838
28087W        W96428  19.267  27.011   0.376
28088W        W96429  44.495   2.895   2.799
28089W        W96430  19.747  27.069  11.866
28090W        W96431  18.595   4.862  13.903
28091W        W96432   4.215  23.086   3.247
28092W        W96433  23.011  25.068   2.195
28093W        W96434  16.244   0.401  11.601
28094W        W96435  30.970   4.219   4.607
28095W        W96436  21.588  26.998  12.430
28096W        W96437  25.529   2.734  13.329
28097W        W96438   6.398  44.825  14.324
28098W        W96439  11.789  13.608   0.341
28099W        W96440  27.191   4.443   2.800
28100W        W96441  44.812  35.897  10.613
28101W        W96442  22.554  17.202  13.950
28102W        W96443   5.854   0.964  13.012
28103W        W96444  17.220   9.186  12.514
28104W        W96445  21.154  15.604  13.057
28105W        W96446   4.919  33.505   3.352
28106W        W96447  15.325  40.002  10.600
28107W        W96448  18.081  17.610  12.503
28108W        W96449  18.133  31.966  10.945
28109W        W96450  35.018  25.119   3.181
28110W        W96451  15.121  24.610   4.182
28111W        W96452  31.975  28.985   1.842
28112W        W96453  32.557  15.302   3.188
28113W        W96454  33.031  29.152  11.391
28114W        W96455   9.205   1.266  12.369
28115W        W96456   5.394  15.613  11.126
28116W        W96457  31.630  36.439  14.467
28117W        W96458   8.822  14.204   2.242
28118W        W96459  43.289  32.532   1.717
28119W        W96460  44.840  32.040  13.341
28120W        W96461  23.494  43.910  11.983
28121W        W96462   9.257  38.527  13.052
28122W        W96463  14.637  14.243   3.315
28123W        W96464  16.689  35.428   1.735
28124W        W96465  20.108  43.293   1.433
28125W        W96466  13.773  40.333  13.901
28126W        W96467  30.024  39.504   3.701
28127W        W96468  34.602  23.538   1.918
28128W        W96469  31.420  31.546   0.872
28129W        W96470   0.254  34.566  12.508
28130W        W96471  12.842  13.770   2.829
28131W        W96472  21.680  29.628  12.862
28132W        W96473  37.346   1.254   2.750
28133W        W96474  13.254  30.516  13.816
28134W        W96475  17.684  38.829   4.597
28135W        W96476  28.159  29.472  14.479
28136W        W96477  27.092  15.122   4.677
28137W        W96478  27.060  31.521   0.727
28138W        W96479   5.698  28.181   4.607
28139W        W96480  41.505  22.009  13.849
28140W        W96481  15.295  24.501   2.325
28141W        W96482  41.007  40.833  14.297
28142W        W96483  13.758  34.543   4.151
28143W        W96484  42.003  11.808   3.153
28144W        W96485  35.440  40.000  10.554
28145W        W96486  31.641  32.981  12.425
28146W        W96487  41.399   6.235   2.749
28147W        W96488   8.688  21.038   0.923
28148W        W96489  30.918  42.781  14.832
28149W        W96490  44.881  33.563   0.831
28150W        W96491  41.868  15.133   1.355
28151W        W96492  44.851  10.777  13.501
28152W        W96493  39.420   6.852   0.386
28153W        W96494  24.080  36.921  11.512
28154W        W96495  29.095  17.744  13.973
28155W        W96496  26.012  18.203   5.730
28156W        W96497  43.435  13.670   4.215
28157W        W96498   3.719  30.445  12.570
28158W        W96499   4.809  20.249   3.278
28159W        W96500  12.716  31.965  14.799
28160W        W96501  38.453  30.111  13.898
28161W        W96502  30.510  42.030  12.417
28162W        W96503  30.560  26.154   1.815
28163W        W96504  25.980   1.293  12.026
28164W        W96505   8.888  33.455  11.989
28165W        W96506  37.336  26.540   4.141
28166W        W96507  24.134   5.930   2.694
28167W        W96508  31.912  27.093  14.882
28168W        W96509  30.519  21.079  11.867
28169W        W96510  15.172   5.754   4.805
28170W        W96511  17.710  33.053  13.357
28171W        W96512  38.537  14.749  10.632
28172W        W96513  32.017   6.676  13.897
28173W        W96514  11.185  15.583   0.253
28174W        W96515  19.118  11.287   3.832
28175W        W96516  41.995  18.611  14.819
28176W        W96517  23.174   1.368  14.362
28177W        W96518  19.614  43.804  11.590
28178W        W96519  41.321  16.201  13.496
28179W        W96520  18.760  23.138  11.435
28180W        W96521   4.441   9.162   4.167
28181W        W96522  13.613   2.798  13.867
28182W        W96523  15.272  17.077  10.484
28183W        W96524  31.495  29.962  11.101
28184W        W96525  33.934  12.645   3.302
28185W        W96526  11.763   8.865   2.758
28186W        W96527  39.471  42.940  11.858
28187W        W96528  21.184  16.573  10.542
28188W        W96529   2.738   9.151  14.290
28189W        W96530  19.040  26.951   4.643
28190W        W96531  11.144  41.941  13.511
28191W        W96532  16.317   2.247  14.934
28192W        W96533  31.072   8.726   3.637
28193W        W96534  12.358  41.491  11.030
28194W        W96535   8.873  42.524   4.654
28195W        W96536  39.385  27.462  11.970
28196W        W96537  41.857  32.557  12.568
28197W        W96538  17.281  24.689   3.791
28198W        W96539  35.484  10.756   4.174
28199W        W96540  39.558  33.440   3.226
28200W        W96541  32.528  33.482   2.277
28201W        W96542  27.008   5.323  11.102
28202W        W96543  18.080  21.180  13.494
28203W        W96544  11.129   8.292  13.870
28204W        W96545  32.615  16.234   3.268
28205W        W96546  12.343  13.154  11.119
28206W        W96547  36.032  43.019   4.277
28207W        W96548   4.718  29.609  10.512
28208W        W96549  37.924  36.390  12.065
28209W        W96550  25.024  13.617  14.353
28210W        W96551  26.960  38.560   0.882
28211W        W96552  35.048  41.833   1.804
28212W        W96553  12.319  33.987   4.769
28213W        W96554  18.774   7.888   3.833
28214W        W96555  32.031  38.041  14.830
28215W        W96556  39.328  15.327  12.373
28216W        W96557  29.536   4.205  10.506
28217W        W96558  19.204   7.746  10.581
28218W        W96559  24.193  27.058   5.310
28219W        W96560  18.130  37.446  10.634
28220W        W96561   1.432  35.509  12.012
28221W        W96562  37.427  43.436  13.018
28222W        W96563  19.140  20.167  13.810
28223W        W96564  36.920   8.701   3.381
28224W        W96565  40.464  35.371  10.451
28225W        W96566   9.243  22.230  14.991
28226W        W96567   9.762  33.097   1.287
28227W        W96568  22.133  33.604  11.536
28228W        W96569  34.044   5.746   0.246
28229W        W96570  30.924  27.045   4.814
28230W        W96571  21.036  17.199  12.530
28231W        W96572  14.298  30.470   0.445
28232W        W96573  25.653  27.516   0.463
28233W        W96574  38.531  32.075   4.628
28234W        W96575   2.329  18.683  13.528
28235W        W96576   1.353  21.722   2.866
28236W        W96577  25.606   2.877   0.460
28237W        W96578  38.483  11.690  11.428
28238W        W96579  31.479  36.553   4.659
28239W        W96580  27.479   3.897  10.520
28240W        W96581  42.029  44.812  13.844
28241W        W96582  11.194  30.437   1.307
28242W        W96583  39.959   3.271  11.054
28243W        W96584  34.522  25.051  11.889
28244W        W96585  32.021  35.591   1.424
28245W        W96586  44.502  27.031   2.204
28246W        W96587  30.613  27.626   1.695
28247W        W96588  23.030  43.430   1.323
28248W        W96589  19.574  25.970  13.511
28249W        W96590  14.215   5.787   2.786
28250W        W96591   3.815  36.351  14.821
28251W        W96592  40.406   1.760   0.413
28252W        W96593  32.067  25.069   1.367
28253W        W96594  26.651  24.533  10.431
28254W        W96595  14.218  12.774  11.961
28255W        W96596  27.059  28.469   2.277
28256W        W96597   6.238  16.251  11.387
28257W        W96598   7.836  30.028   3.362
28258W        W96599   3.431  18.118  10.990
28259W        W96600   1.308  22.594  14.442
28260W        W96601   0.799  26.108  14.376
28261W        W96602  30.621  16.789  14.316
28262W        W96603  14.213   8.316   4.167
28263W        W96604  26.042  44.884  13.888
28264W        W96605   6.311  28.035  14.800
28265W        W96606  40.899  18.557   4.806
28266W        W96607  22.739  13.212   0.246
28267W        W96608  32.013  34.500   2.731
28268W        W96609  34.879  15.247   2.782
28269W        W96610  32.484  41.345  10.515
28270W        W96611  13.349  21.621   3.255
28271W        W96612  24.591  22.013   2.295
28272W        W96613  43.873  25.676   1.336
28273W        W96614  18.627   7.789   2.739
28274W        W96615   0.460  34.609  14.484
28275W        W96616  20.524  18.260   1.732
28276W        W96617  12.612   9.285   4.700
28277W        W96618  24.024  37.513   4.694
28278W        W96619   7.870  20.669   4.294
28279W        W96620  11.293  34.120   4.793
28280W        W96621  37.379  12.216   4.253
28281W        W96622   5.255   2.868  10.958
28282W        W96623  34.887  23.650  10.573
28283W        W96624   8.710  36.559   2.788
28284W        W96625  12.642  42.938   1.743
28285W        W96626  10.143  41.414   4.809
28286W        W96627  16.174  28.020   3.315
28287W        W96628  36.092  14.793  10.489
28288W        W96629  23.208  10.276  14.999
28289W        W96630  36.564   1.364   3.665
28290W        W96631  11.861  23.162  11.090
28291W        W96632   8.178  30.996   2.815
28292W        W96633   5.253  25.516   1.898
28293W        W96634  31.104  12.337   3.193
28294W        W96635  20.096  34.421   2.795
28295W        W96636   0.815  24.169   0.270
28296W        W96637   3.881  18.262  10.535
28297W        W96638  27.971  37.456  11.596
28298W        W96639  26.649  33.882   3.848
28299W        W96640  12.787   0.876   1.212
28300W        W96641  28.093  21.084   0.248
28301W        W96642  14.675  13.820  14.924
28302W        W96643  20.169  33.386   3.193
28303W        W96644  40.811  38.883   1.899
28304W        W96645  12.702   0.398   1.310
28305W        W96646  18.151  41.413  10.624
28306W        W96647  27.487  33.917   3.304
28307W        W96648  38.524  41.976   1.223
28308W        W96649  37.508   3.806   1.316
28309W        W96650  44.820  14.161   0.396
28310W        W96651  24.156  19.271   3.788
28311W        W96652  10.654   5.777  14.872
28312W        W96653   1.391  13.753   1.265
28313W        W96654  44.788  40.475   3.367
28314W        W96655  44.340  35.017  12.020
28315W        W96656  33.050  27.454  11.561
28316W        W96657   0.383  42.524   1.726
28317W        W96658  34.376  25.653  12.923
28318W        W96659  34.921  30.161   0.426
28319W        W96660   2.789  38.452  12.938
28320W        W96661   1.371   0.389   1.345
28321W        W96662  43.898  43.880   4.672
28322W        W96663   4.790   0.889   2.329
28323W        W96664  12.118  19.640  10.905
28324W        W96665  26.999  15.317  13.063
28325W        W96666  22.637   7.388   4.212
28326W        W96667  25.698   9.379   0.936
28327W        W96668  14.264  31.098  12.898
28328W        W96669   5.413  41.799  12.983
28329W        W96670  43.928   3.910  12.501
28330W        W96671  21.696  29.937  10.517
28331W        W96672  30.127   9.679   1.287
28332W        W96673  29.161  16.088   4.280
28333W        W96674  15.131  27.446   3.245
28334W        W96675  28.062   3.910   1.727
28335W        W96676  41.914  36.952  14.317
28336W        W96677  28.169  28.175   4.118
28337W        W96678  25.175  33.012   0.468
28338W        W96679  29.139  43.397   0.872
28339W        W96680  38.526  13.185   1.408
28340W        W96681  33.888  23.728  11.380
28341W        W96682  35.360  41.916  12.872
28342W        W96683  20.688   8.364   0.454
28343W        W96684  31.987  23.726  11.077
28344W        W96685  27.485  32.929  14.481
28345W        W96686   8.665  17.564   2.802
28346W        W96687  24.221  14.310   3.822
28347W        W96688   7.780  30.040  11.939
28348W        W96689  42.978  43.769   3.832
28349W        W96690   2.353   3.366   3.290
28350W        W96691  21.094  15.124  10.895
28351W        W96692  43.423  22.645   2.744
28352W        W96693  17.088  39.453   2.267
28353W        W96694  41.457  12.851  13.336
28354W        W96695   3.916  17.734  12.958
28355W        W96696  20.560  16.201  11.593
28356W        W96697  43.283  21.699  10.482
28357W        W96698  24.684  41.958   1.286
28358W        W96699   6.385   5.221  10.633
28359W        W96700   1.305  23.496  10.906
28360W        W96701  34.520  39.339   3.717
28361W        W96702  32.942  18.187   3.763
28362W        W96703   0.445  17.712  11.420
28363W        W96704  44.936  12.213   4.822
28364W        W96705  20.739   0.860   4.790
28365W        W96706  31.427  18.751  12.420
28366W        W96707   4.757  11.796   4.829
28367W        W96708   6.209  34.865  11.958
28368W        W96709   5.773  13.723  10.924
28369W        W96710  34.121   8.894   2.390
28370W        W96711   6.212  38.010  11.033
28371W        W96712  19.682   9.305   3.643
28372W        W96713  23.999  23.499   0.440
28373W        W96714   2.460  38.555  12.073
28374W        W96715  34.991  37.411   4.817
28375W        W96716   8.894  13.129  14.779
28376W        W96717  41.376  43.946  11.049
28377W        W96718   0.979  37.996  10.496
28378W        W96719  24.586  23.613   1.274
28379W        W96720  21.037   7.881  11.936
28380W        W96721  10.804  11.161   0.899
28381W        W96722   5.879  30.470   4.781
28382W        W96723  19.623  36.079   3.204
28383W        W96724  37.973   9.237   0.397
28384W        W96725  16.678  32.559   3.652
28385W        W96726  14.296  15.257   4.757
28386W        W96727   4.918   7.368  13.800
28387W        W96728  30.970  30.112   3.354
28388W        W96729  31.970  18.609   4.151
28389W        W96730   7.880  44.356   2.262
28390W        W96731  23.072  14.323  11.435
28391W        W96732  13.639  27.457   1.286
28392W        W96733  31.911  23.560  11.528
28393W        W96734  10.782  37.493   4.323
28394W        W96735  29.025   9.791   2.815
28395W        W96736  38.557  16.570   4.166
28396W        W96737  25.556  18.207  11.599
28397W        W96738  19.167  13.628  10.604
28398W        W96739  42.390  17.254   1.799
28399W        W96740  44.277  26.087   4.136
28400W        W96741   8.249   8.341  13.806
28401W        W96742  15.812  12.692  13.007
28402W        W96743   1.927  22.711   2.739
28403W        W96744  23.993  38.492   1.326
28404W        W96745   2.368  23.596  11.923
28405W        W96746  41.821  19.700   0.870
28406W        W96747   1.954  44.832  12.902
28407W        W96748   5.391  28.546   2.846
28408W        W96749  41.799  22.657  13.027
28409W        W96750  21.741  11.816   1.428
28410W        W96751  13.331  23.672  13.523
28411W        W96752  29.645  21.696   2.352
28412W        W96753  36.001  16.222   1.226
28413W        W96754   6.278  42.459  13.848
28414W        W96755  17.084  26.179  13.007
28415W        W96756  41.973  28.985   9.988
28416W        W96757  37.468   1.846  13.368
28417W        W96758  30.145  35.957  11.513
28418W        W96759   1.308  29.665  14.780
28419W        W96760   3.342  18.741   1.328
28420W        W96761  22.602  28.588  10.483
28421W        W96762  44.285   7.391   2.753
28422W        W96763  33.002  18.208   4.245
28423W        W96764   2.959  41.471  12.055
28424W        W96765  25.503  18.263  14.291
28425W        W96766   1.805  10.375   4.202
28426W        W96767  33.379  18.287   3.215
28427W        W96768  19.247  36.458   4.129
28428W        W96769  43.953  21.597   5.209
28429W        W96770  27.640  11.812   3.216
28430W        W96771  32.543   0.324  13.404
28431W        W96772  42.461  43.324   0.735
28432W        W96773   8.867  34.416   1.805
28433W        W96774  41.816   9.676   4.761
28434W        W96775  44.261   4.377  13.317
28435W        W96776  23.070  42.965   0.278
28436W        W96777  33.502  39.510   1.782
28437W        W96778  43.971  42.311  13.509
28438W        W96779  29.920  37.900   4.262
28439W        W96780   7.795  15.183   4.177
28440W        W96781  33.536  39.913   4.606
28441W        W96782  18.168   7.276   2.750
28442W        W96783   0.959  39.830   3.182
28443W        W96784   7.887   7.197   0.347
28444W        W96785   4.346  26.012  14.359
28445W        W96786  38.075   7.828  13.325
28446W        W96787  23.997  22.245   3.272
28447W        W96788   1.292  38.018  11.551
28448W        W96789  30.068  33.526   2.341
28449W        W96790   2.228  12.135  12.434
28450W        W96791  21.134   0.837  14.418
28451W        W96792  13.833  12.773   1.841
28452W        W96793  15.671  15.169   2.876
28453W        W96794  44.772  14.801  10.930
28454W        W96795  30.136  38.987  11.610
28455W        W96796  28.541  23.728  12.018
28456W        W96797   7.316  19.702  11.538
28457W        W96798  39.925   6.413   0.785
28458W        W96799  13.298  15.156   4.727
28459W        W96800  10.665  26.099   2.723
28460W        W96801   9.772   4.730   0.806
28461W        W96802  28.975  20.038   3.717
28462W        W96803  42.383   7.858   4.215
28463W        W96804   7.802  41.849  14.323
28464W        W96805  42.861  36.513   2.742
28465W        W96806  40.882   1.968  11.957
28466W        W96807   5.225  14.298   0.902
28467W        W96808  41.910  13.159   2.892
28468W        W96809  35.490  24.019   0.862
28469W        W96810  32.022   5.790   4.601
28470W        W96811   7.904  11.309   0.332
28471W        W96812  34.037  40.031   2.762
28472W        W96813  37.875  15.742   1.911
28473W        W96814   6.795  34.072  10.928
28474W        W96815  32.604   5.843   3.687
28475W        W96816  10.357   3.237   4.250
28476W        W96817  39.381  21.097   2.185
28477W        W96818  31.575   2.377  13.869
28478W        W96819  25.062  12.792  12.016
28479W        W96820  30.547  26.559  10.906
28480W        W96821  17.735  23.675  12.408
28481W        W96822  37.920  41.998   0.956
28482W        W96823  36.436  22.625   5.215
28483W        W96824  24.982  23.103   2.362
28484W        W96825  39.521  44.930   2.841
28485W        W96826   5.426  36.522   3.224
28486W        W96827   7.172  17.748   3.871
28487W        W96828  22.240   6.747   3.338
28488W        W96829  44.488  30.562   3.728
28489W        W96830  25.085  25.151  12.024
28490W        W96831   6.759   8.191   3.809
28491W        W96832  35.043  15.693  12.016
28492W        W96833  31.982  37.935   2.788
28493W        W96834   8.809   7.193   0.379
28494W        W96835  18.170  34.077   0.874
28495W        W96836  36.083   9.697  10.521
28496W        W96837  44.999  22.705   3.237
28497W        W96838  23.139  25.628  11.569
28498W        W96839   7.844  24.171  10.129
28499W        W96840  36.506   2.887   3.737
28500W        W96841  37.847   0.255  13.441
28501W        W96842  36.550  12.774  12.980
28502W        W96843   7.240  43.845  13.843
28503W        W96844  23.157  17.227  10.579
28504W        W96845  22.032  18.606   5.292
28505W        W96846   5.924  30.099   1.352
28506W        W96847  44.273  28.935  11.887
28507W        W96848   1.811  27.485  13.508
28508W        W96849  33.971  34.532  14.318
28509W        W96850  40.970  28.486   0.957
28510W        W96851  37.938  12.656  14.422
28511W        W96852  13.111  24.673   2.731
28512W        W96853  41.042  19.711  10.566
28513W        W96854  41.919  35.951  14.381
28514W        W96855  43.480  40.017  10.968
28515W        W96856  43.833   8.379  11.980
28516W        W96857  44.864  10.791   4.796
28517W        W96858  37.870  20.748  14.338
28518W        W96859  14.659  22.703  14.302
28519W        W96860  35.562  15.324  11.569
28520W        W96861  44.006   1.856   3.648
28521W        W96862  41.312   5.410  13.911
28522W        W96863   0.922  31.583  13.908
28523W        W96864  35.552  35.547   1.306
28524W        W96865  19.646  24.989   4.226
28525W        W96866   8.854  34.966   4.159
28526W        W96867  34.993   2.344   2.820
28527W        W96868  34.914  34.467  13.821
28528W        W96869   3.788  26.179  11.519
28529W        W96870  29.611  16.609   3.821
28530W        W96871   6.325  43.913   4.314
28531W        W96872  22.224  18.222   2.767
28532W        W96873  19.605   0.311  14.949
28533W        W96874  22.667  26.511   4.273
28534W        W96875   7.255  21.648  14.842
28535W        W96876  34.983  10.733   1.249
28536W        W96877  43.003  27.067  13.446
28537W        W96878  10.203  32.947  14.949
28538W        W96879  29.569  24.703   0.883
28539W        W96880  25.701  39.951  14.810
28540W        W96881   4.218   4.787   2.694
28541W        W96882  36.981  28.076  13.379
28542W        W96883  31.415   1.406   0.889
28543W        W96884  27.036   6.376   2.830
28544W        W96885  17.671  34.037   5.302
28545W        W96886   2.809  21.513   1.233
28546W        W96887  29.559  37.384   4.246
28547W        W96888  35.506  25.659  12.095
28548W        W96889  34.911   2.766   4.219
28549W        W96890  41.304  21.594   2.380
28550W        W96891   5.222  29.437  14.876
28551W        W96892  10.344  38.064  11.127
28552W        W96893  20.204  28.946  13.496
28553W        W96894  21.024  25.649   3.850
28554W        W96895  37.931  31.420   3.808
28555W        W96896  40.922  29.942  10.898
28556W        W96897  34.540   7.176  13.812
28557W        W96898  16.687   8.243  12.426
28558W        W96899  34.589  12.259   4.238
28559W        W96900  11.184  19.651   0.966
28560W        W96901  44.501  12.222   2.261
28561W        W96902   1.800  35.056  13.882
28562W        W96903  34.400   5.260   0.802
28563W        W96904  25.011   9.294   2.285
28564W        W96905   6.793  15.603   0.395
28565W        W96906  41.794  10.727   3.244
28566W        W96907   7.348  25.050  11.536
28567W        W96908  27.637   8.802  11.552
28568W        W96909  31.041  11.849  11.868
28569W        W96910  18.562  28.637  13.511
28570W        W96911   6.291  23.627   3.382
28571W        W96912  19.583  24.656  12.926
28572W        W96913  37.560  27.485  14.314
28573W        W96914   3.927  39.920  14.758
28574W        W96915  24.992  41.527   1.217
28575W        W96916  43.359  33.129   0.355
28576W        W96917  36.074  19.542  10.581
28577W        W96918  40.520  37.903   3.763
28578W        W96919   5.341  19.648  10.892
28579W        W96920   0.436   5.273  12.561
28580W        W96921   3.728  41.474   2.213
28581W        W96922   1.766  26.535  13.944
28582W        W96923  11.230  26.675  11.049
28583W        W96924  44.949  41.837  10.552
28584W        W96925  44.277   9.759  11.122
28585W        W96926  33.483  19.220  13.830
28586W        W96927  12.146  17.770   4.782
28587W        W96928  13.112  39.413  14.412
28588W        W96929  42.424  17.629  14.292
28589W        W96930  42.981  18.734   5.082
28590W        W96931  23.989  25.173  14.879
28591W        W96932  31.115   4.355   1.333
28592W        W96933  15.190  16.102  11.421
28593W        W96934  30.010  38.851   2.809
28594W        W96935  44.504  28.661  14.366
28595W        W96936  41.328   5.279   3.699
28596W        W96937   4.855   0.435   1.440
28597W        W96938   2.755  30.518   3.289
28598W        W96939  39.831  29.583  10.527
28599W        W96940  25.184  31.506   2.347
28600W        W96941  21.094  39.459   1.221
28601W        W96942   0.256  14.742   4.790
28602W        W96943   8.771   0.918   1.404
28603W        W96944   1.921  37.918   4.811
28604W        W96945   8.809   9.231   0.884
28605W        W96946  38.408  35.877  13.969
28606W        W96947   7.679  43.432  13.897
28607W        W96948  23.108  12.733  12.863
28608W        W96949   6.215  36.436  12.544
28609W        W96950   0.803  36.569  14.449
28610W        W96951  26.479  18.695   4.721
28611W        W96952  37.993   9.197  13.802
28612W        W96953  41.402  31.408   0.363
28613W        W96954  33.942  12.760  13.520
28614W        W96955  10.749   3.763   2.798
28615W        W96956   7.724   4.364   1.230
28616W        W96957  29.500  43.300  13.456
28617W        W96958  18.635  43.816  10.453
28618W        W96959  37.446  44.775  12.998
28619W        W96960  28.137  41.952  13.511
28620W        W96961   8.280  15.730  11.060
28621W        W96962   2.728  24.046   3.718
28622W        W96963  25.589  39.458  13.906
28623W        W96964   0.383   3.732  14.784
28624W        W96965   4.241  37.058   2.825
28625W        W96966  11.651  41.985  12.537
28626W        W96967   3.256  38.347   1.921
28627W        W96968  17.138  15.321  14.334
28628W        W96969   4.784   3.393  10.928
28629W        W96970  12.350   1.402  13.045
28630W        W96971   9.331  34.868   4.325
28631W        W96972  42.514  39.478  13.020
28632W        W96973  21.659  34.017  13.055
28633W        W96974  29.577  38.906   0.776
28634W        W96975  14.737  24.506   0.434
28635W        W96976   8.816  41.538  10.587
28636W        W96977  17.166  42.942   1.211
28637W        W96978  38.944  28.966  11.490
28638W        W96979   8.272  33.490  13.429
28639W        W96980  25.148  13.162   1.439
28640W        W96981   2.829  30.602  13.353
28641W        W96982  14.318  25.160   4.669
28642W        W96983   0.410  38.911   1.865
28643W        W96984   0.333  23.116   4.735
28644W        W96985  30.594  33.947   2.374
28645W        W96986  14.820  13.717   3.792
28646W        W96987  11.655  11.857   0.736
28647W        W96988  38.003  12.334  14.438
28648W        W96989  41.508  21.212  10.470
28649W        W96990  20.042  23.157   3.851
28650W        W96991  12.699  13.648  13.796
28651W        W96992  41.932  24.647  12.572
28652W        W96993  12.124  13.703  13.403
28653W        W96994   4.355  22.180   4.272
28654W        W96995  42.462  34.951   1.821
28655W        W96996  29.466   3.927  10.499
28656W        W96997  37.352  10.725   1.264
28657W        W96998  36.482   0.458   0.481
28658W        W96999  43.835  38.980   4.265
28659W        W97000   9.717  11.648  11.054
28660W        W97001  11.719  41.370   0.755
28661W        W97002  19.134  40.835  13.413
28662W        W97003   6.381   8.179  11.440
28663W        W97004  15.584  30.646  11.526
28664W        W97005   9.328   0.280  14.942
28665W        W97006  24.110  38.989  12.495
28666W        W97007  15.727  21.057  10.069
28667W        W97008  39.051  26.620  13.537
28668W        W97009   0.284  43.292   1.285
28669W        W97010   0.394  32.094  11.609
28670W        W97011   6.366   6.758  13.811
28671W        W97012   2.376   4.344   3.691
28672W        W97013  26.654  21.547  12.003
28673W        W97014  22.583  10.644   2.852
28674W        W97015  31.059  44.894  12.090
28675W        W97016  37.421   9.395   2.182
28676W        W97017  34.431  17.158  14.295
28677W        W97018  43.909  24.988   1.293
28678W        W97019  10.250   1.439   0.422
28679W        W97020  33.974  18.252  14.943
28680W        W97021  29.435  28.657   3.811
28681W        W97022  26.599  24.082   0.726
28682W        W97023  26.026  27.126   2.703
28683W        W97024  39.442  21.708  10.418
28684W        W97025  23.633  21.206  10.410
28685W        W97026   7.381  43.840  11.558
28686W        W97027  13.153  34.494   3.729
28687W        W97028  22.141   2.426  14.814
28688W        W97029   4.339  16.709   2.367
28689W        W97030  13.145  29.622   0.390
28690W        W97031  14.302  18.602   3.818
28691W        W97032  20.670  24.045   4.686
28692W        W97033  43.823   7.705   3.386
28693W        W97034  44.367   5.307   2.248
28694W        W97035   4.391  43.803   4.598
28695W        W97036  17.733  23.649   9.977
28696W        W97037  14.188  31.494  14.492
28697W        W97038  40.408  41.929   2.401
28698W        W97039  43.889   6.872   0.319
28699W        W97040   2.912   1.379   3.649
28700W        W97041  41.916  43.461   4.656
28701W        W97042  35.471   0.986  11.603
28702W        W97043  26.527  35.979  12.994
28703W        W97044  15.757   8.660  10.518
28704W        W97045  10.268  36.854   5.132
28705W        W97046  43.418  34.541   0.309
28706W        W97047  41.351  43.459   2.774
28707W        W97048  11.151   4.273   1.260
28708W        W97049   0.262   9.691   2.307
28709W        W97050  28.074  26.111  12.395
28710W        W97051  21.735  27.487  10.890
28711W        W97052  21.068  25.473  10.522
28712W        W97053  38.861   3.776   2.343
28713W        W97054  39.055  41.042   9.921
28714W        W97055  13.719   0.449   0.791
28715W        W97056  19.058  19.148  12.457
28716W        W97057  23.077  22.152  11.535
28717W        W97058  13.646   4.388   2.270
28718W        W97059  27.149  29.939  14.384
28719W        W97060  33.110  28.485  12.897
28720W        W97061  38.951  41.892   9.946
28721W        W97062  33.878  30.039  12.950
28722W        W97063   7.719  31.424   1.700
28723W        W97064  17.726  38.331   3.247
28724W        W97065  17.675   9.775   2.804
28725W        W97066  31.993   9.749   3.674
28726W        W97067   0.852  18.289   4.710
28727W        W97068  22.528  40.356   4.328
28728W        W97069  40.019   7.207  13.921
28729W        W97070  25.185  35.567   1.716
28730W        W97071  23.998  19.042   4.813
28731W        W97072   9.377  29.640  13.366
28732W        W97073  28.471  11.811  12.948
28733W        W97074  28.505  31.902  14.415
28734W        W97075  44.349  38.350  14.417
28735W        W97076  21.115  19.208  11.962
28736W        W97077  40.435   6.345  10.146
28737W        W97078  35.974   0.946  10.477
28738W        W97079  43.457  21.693  13.491
28739W        W97080   6.184  12.270  10.890
28740W        W97081  38.942  18.779  13.929
28741W        W97082  26.137  42.024   0.339
28742W        W97083  22.539   1.766   1.338
28743W        W97084  10.692   2.318  12.561
28744W        W97085   8.223  34.029  14.495
28745W        W97086  42.410  31.485  14.322
28746W        W97087  17.605  10.828  13.001
28747W        W97088  23.119   4.777   2.879
28748W        W97089   4.372  21.250  13.044
28749W        W97090   5.330   2.274   0.389
28750W        W97091  21.198  40.421  12.384
28751W        W97092  29.961   4.422  10.933
28752W        W97093   5.435   7.205  11.899
28753W        W97094  41.006  34.110   4.160
28754W        W97095   1.808  25.528  13.427
28755W        W97096  34.987   4.449  14.835
28756W        W97097  17.647  29.042   3.191
28757W        W97098  41.531   9.708  11.103
28758W        W97099  12.220  30.942  14.817
28759W        W97100  25.548   9.380  12.359
28760W        W97101  10.829   7.687   0.412
28761W        W97102  43.993   7.173   0.743
28762W        W97103  29.945  10.313   2.336
28763W        W97104   6.820  26.503  13.868
28764W        W97105  24.656  18.581  11.005
28765W        W97106  39.985  40.486   5.197
28766W        W97107  25.214  25.608  12.912
28767W        W97108   1.254  10.283  14.981
28768W        W97109  27.183  23.657   3.227
28769W        W97110   8.266   5.735  12.895
28770W        W97111  26.469  40.314  13.346
28771W        W97112  10.350   1.923  10.423
28772W        W97113  30.505  30.009  11.896
28773W        W97114  17.670  32.009   4.657
28774W        W97115  17.085  18.750   0.320
28775W        W97116  20.202  44.856   3.254
28776W        W97117  40.311   6.878  12.991
28777W        W97118  15.163   7.378  11.445
28778W        W97119  31.974  19.672  12.843
28779W        W97120  34.556  28.949  14.288
28780W        W97121  25.138  22.669  12.020
28781W        W97122  22.579  18.054   1.425
28782W        W97123  13.322  31.458   0.759
28783W        W97124   1.895  33.131   0.411
28784W        W97125  22.568  31.594   4.656
28785W        W97126  42.488  36.467  12.493
28786W        W97127  43.830  10.335   4.353
28787W        W97128  31.016  40.483   4.239
28788W        W97129  20.559  28.673  13.450
28789W        W97130  33.552   1.892  11.374
28790W        W97131  40.327   4.763   4.181
28791W        W97132   2.353  44.875   4.246
28792W        W97133  16.663  39.436  14.443
28793W        W97134  24.178  11.185   1.322
28794W        W97135  40.990  15.301  10.497
28795W        W97136  22.134  21.554  12.892
28796W        W97137  39.507  35.452  14.373
28797W        W97138   8.353  10.863   2.380
28798W        W97139   9.250   5.878  11.985
28799W        W97140  17.113   9.151   3.635
28800W        W97141   7.895   5.731   4.755
28801W        W97142  22.154  36.549   3.270
28802W        W97143  15.197  40.987   5.593
28803W        W97144  32.443  13.727  12.495
28804W        W97145   9.371   8.312  14.380
28805W        W97146  14.666  28.086   4.258
28806W        W97147   9.364  41.984   1.367
28807W        W97148  35.974  33.903   1.389
28808W        W97149  29.927   7.703   3.157
28809W        W97150   1.346  11.720  13.463
28810W        W97151  32.994   0.329  13.936
28811W        W97152  29.452  39.973   4.210
28812W        W97153  40.956  12.131  13.317
28813W        W97154  29.140   7.299   1.813
28814W        W97155  29.463  16.082   4.832
28815W        W97156  26.593  32.054  11.519
28816W        W97157  33.070  22.742   0.768
28817W        W97158  23.097   0.929   2.744
28818W        W97159  32.452   0.748  10.115
28819W        W97160   5.873  14.116   1.378
28820W        W97161   1.937  28.162   1.901
28821W        W97162  23.608  14.818  12.067
28822W        W97163  31.627  33.422   4.141
28823W        W97164   5.927  11.639   3.748
28824W        W97165  20.551   3.279  11.110
28825W        W97166  15.660  21.110   5.169
28826W        W97167  23.156   6.390   3.662
28827W        W97168  29.664  11.826  11.519
28828W        W97169   5.780   9.315   0.378
28829W        W97170  15.142  15.155   4.718
28830W        W97171   6.209   4.742   1.702
28831W        W97172  29.928   3.251  14.355
28832W        W97173   5.435  41.804  11.119
28833W        W97174  14.134   1.831   1.384
28834W        W97175  10.238  28.468  13.393
28835W        W97176   8.752   5.356   2.312
28836W        W97177   1.943  20.731   4.800
28837W        W97178  32.605  10.727   3.687
28838W        W97179  41.035  44.290  11.003
28839W        W97180  43.975  31.609  12.364
28840W        W97181   6.207   7.724  13.814
28841W        W97182  17.093   7.740   3.739
28842W        W97183   6.292  32.109  10.532
28843W        W97184  36.423  20.204   0.751
28844W        W97185  41.445  41.341  12.506
28845W        W97186  28.055   6.352   1.863
28846W        W97187  14.607  39.405  14.397
28847W        W97188  16.789  32.999   0.881
28848W        W97189  36.496  43.921   2.218
28849W        W97190  38.346  42.941   0.735
28850W        W97191  44.897  25.523  12.354
28851W        W97192  40.484  37.924  14.445
28852W        W97193  23.679   0.285   4.727
28853W        W97194  20.699  17.185   2.748
28854W        W97195  15.690  28.047   2.728
28855W        W97196   0.425  35.373  12.366
28856W        W97197  11.652  42.468   0.856
28857W        W97198  14.665  32.447  13.504
28858W        W97199  11.808  42.472   3.343
28859W        W97200  38.936  30.636  10.452
28860W        W97201   1.475  34.408  14.356
28861W        W97202  27.627   9.877   1.300
28862W        W97203  20.732  14.276   3.237
28863W        W97204  33.470   8.323   4.748
28864W        W97205  15.212   7.692  12.420
28865W        W97206  39.440  18.224   0.948
28866W        W97207   0.443  18.201   5.285
28867W        W97208   8.271  43.341  11.031
28868W        W97209  24.724  35.535   1.722
28869W        W97210  35.534   5.402  12.543
28870W        W97211  24.495  28.103   4.792
28871W        W97212   2.817   6.396  12.341
28872W        W97213  11.801  11.340   3.823
28873W        W97214  21.716  23.688   2.742
28874W        W97215  18.060  38.389   3.700
28875W        W97216  37.515  10.855  13.490
28876W        W97217  43.448  13.648   2.821
28877W        W97218  14.291  26.664   3.304
28878W        W97219  29.022   2.739  10.631
28879W        W97220   9.809  36.584  10.409
28880W        W97221   1.909  10.246   3.274
28881W        W97222  10.181   1.337   1.439
28882W        W97223  15.271  40.491  13.928
28883W        W97224  31.591   6.881  11.583
28884W        W97225  23.154   2.833  13.991
28885W        W97226  10.163  33.514   2.371
28886W        W97227  13.307  10.301   4.660
28887W        W97228   9.752  44.298  13.037
28888W        W97229  10.305  19.708  13.942
28889W        W97230  29.459  34.509   1.770
28890W        W97231  34.047  13.337  13.520
28891W        W97232  17.227  15.725   4.717
28892W        W97233  31.016  15.712  11.026
28893W        W97234  10.839  18.213  11.994
28894W        W97235  43.915  15.292  14.019
28895W        W97236  21.752  35.385   4.742
28896W        W97237  12.202  25.172  11.010
28897W        W97238  23.085   7.178  11.051
28898W        W97239   7.372  10.324   4.690
28899W        W97240  20.192  44.925   2.687
28900W        W97241  10.719   2.760  14.471
28901W        W97242  27.109  41.933   0.268
28902W        W97243  24.145   1.331  13.311
28903W        W97244  26.636   1.369   3.199
28904W        W97245  32.530  11.659  11.538
28905W        W97246  42.833  40.315   0.473
28906W        W97247  27.566  40.312   3.296
28907W        W97248  15.268  28.102   4.780
28908W        W97249  36.004  32.480   1.764
28909W        W97250  16.149  37.550  14.776
28910W        W97251  21.191  17.150   5.138
28911W        W97252  43.469  19.592   4.798
28912W        W97253  14.593  32.021  10.038
28913W        W97254  34.036   9.270   4.620
28914W        W97255  32.599  32.135   4.627
28915W        W97256  28.057  34.028  10.904
28916W        W97257   3.784  15.109  14.489
28917W        W97258  35.961  42.000   0.453
28918W        W97259  21.105  17.738  14.958
28919W        W97260  26.690  30.459   2.673
28920W        W97261  23.542  23.535  14.483
28921W        W97262  44.989  36.098   4.310
28922W        W97263  14.204  37.573  13.523
28923W        W97264  22.096  10.636   2.789
28924W        W97265  33.975   2.855   4.259
28925W        W97266  38.880  21.587  10.613
28926W        W97267  28.023   7.865   0.756
28927W        W97268   3.822  33.892  13.042
28928W        W97269  35.550  40.912   2.813
28929W        W97270  13.125   7.695  14.321
28930W        W97271  35.416   6.900  13.473
28931W        W97272  18.150  13.827  11.090
28932W        W97273  43.856  37.516   0.329
28933W        W97274   5.860  27.103   2.898
28934W        W97275  12.667  20.172  13.039
28935W        W97276  21.199  37.069   4.145
28936W        W97277   1.312   8.274   3.246
28937W        W97278  31.588  36.430  13.809
28938W        W97279  18.605  29.655   1.739
28939W        W97280   4.782  34.933  12.951
28940W        W97281   3.881  28.135   4.190
28941W        W97282  34.966  36.463   2.384
28942W        W97283  21.538  17.783   4.667
28943W        W97284   5.805  22.506   4.202
28944W        W97285  10.153  26.970   4.218
28945W        W97286  43.339  19.215  11.081
28946W        W97287   7.912  20.261   0.387
28947W        W97288  11.315  42.362  11.967
28948W        W97289  33.945  23.501   2.758
28949W        W97290  41.010   4.240  13.823
28950W        W97291  33.094   6.191   0.374
28951W        W97292  28.022   3.269   3.773
28952W        W97293  10.246  41.979   4.161
28953W        W97294   2.865  42.490  13.478
28954W        W97295  21.591   5.792   3.692
28955W        W97296  39.838  22.595  11.386
28956W        W97297   2.778   9.282  11.505
28957W        W97298  39.320   3.794   0.433
28958W        W97299  13.628  25.158  13.903
28959W        W97300  17.117  35.872   1.339
28960W        W97301  14.225  36.060  13.806
28961W        W97302   0.318  38.550   1.268
28962W        W97303  14.194  16.092   4.820
28963W        W97304   4.237  31.541  11.897
28964W        W97305  31.645  42.013   0.817
28965W        W97306  22.166  44.826  12.899
28966W        W97307  11.819  41.380   1.798
28967W        W97308  32.902  44.290   4.753
28968W        W97309  22.009  21.204  11.960
28969W        W97310   4.824  22.170  11.485
28970W        W97311  25.199   2.272   3.260
28971W        W97312  21.082  29.002   4.608
28972W        W97313   5.817  40.025   0.452
28973W        W97314  33.952  10.649   2.300
28974W        W97315  36.851  17.203   4.222
28975W        W97316   0.849  37.344  11.497
28976W        W97317  32.986  30.542   0.419
28977W        W97318  29.575  21.090   5.230
28978W        W97319  31.576  20.573   1.272
28979W        W97320  33.010  27.993  14.980
28980W        W97321  19.744  14.785  12.508
28981W        W97322  24.185   0.313  14.421
28982W        W97323  21.202  38.976   3.745
28983W        W97324  24.479  15.778   3.258
28984W        W97325  28.445  11.733  11.985
28985W        W97326  32.948  14.203   0.881
28986W        W97327   0.771  15.146   1.728
28987W        W97328  40.860   2.301   1.279
28988W        W97329  28.640  41.830  14.276
28989W        W97330  16.705  12.200   3.192
28990W        W97331  17.663  12.336  14.275
28991W        W97332   5.821  27.520  12.423
28992W        W97333  19.240  29.156   0.928
28993W        W97334  21.017  29.618  12.897
28994W        W97335  33.981   2.308  13.059
28995W        W97336  19.755   4.427  14.016
28996W        W97337  36.453  28.532  10.423
28997W        W97338   8.327  43.967   4.272
28998W        W97339  10.649  28.486   3.330
28999W        W97340  36.468  14.112   3.359
29000W        W97341   7.391  26.083   0.780
29001W        W97342  39.975  31.905  12.490
29002W        W97343  23.988  12.795  14.350
29003W        W97344  22.112   3.456   2.855
29004W        W97345   8.790   9.818  12.474
29005W        W97346   3.412   9.660   0.460
29006W        W97347  40.520  20.045  14.478
29007W        W97348   5.221  44.893   4.707
29008W        W97349   0.310  33.107   3.265
29009W        W97350  28.075   7.835   1.291
29010W        W97351  24.987   9.706  14.762
29011W        W97352  22.147   0.770   3.166
29012W        W97353  11.357  35.423   3.317
29013W        W97354   4.328  17.264  11.422
29014W        W97355   7.292  14.718   1.263
29015W        W97356   2.315   0.779  14.836
29016W        W97357  17.210   3.815  10.129
29017W        W97358   7.788  24.557   3.319
29018W        W97359  28.082  18.624   3.324
29019W        W97360  12.289  25.207   0.341
29020W        W97361   3.362  37.933   3.325
29021W        W97362  17.185  31.945  10.906
29022W        W97363  13.175  32.041  12.354
29023W        W97364  33.477  40.867  11.080
29024W        W97365  35.484  12.792   3.633
29025W        W97366  32.549   9.657   1.784
29026W        W97367   6.302   7.230  14.841
29027W        W97368  32.127  14.798   3.196
29028W        W97369   2.930   2.814   1.839
29029W        W97370  27.043  27.011  14.287
29030W        W97371  43.286  28.071  13.956
29031W        W97372  27.960  23.196   2.850
29032W        W97373  10.151  28.618   2.782
29033W        W97374  39.395  34.434  11.058
29034W        W97375  23.039  42.388  13.058
29035W        W97376   2.453   8.689   5.248
29036W        W97377   8.223   1.958   0.375
29037W        W97378  33.038  28.449  11.053
29038W        W97379  41.399  27.955  13.343
29039W        W97380   4.838  16.214   0.462
29040W        W97381  11.651  14.272  14.802
29041W        W97382   6.881   9.872   2.868
29042W        W97383  37.529  15.634  10.992
29043W        W97384  29.484  29.486  12.967
29044W        W97385  30.085  40.020  12.833
29045W        W97386  23.041  40.322   4.830
29046W        W97387  14.661  23.065  14.857
29047W        W97388  10.740  16.719  10.410
29048W        W97389  26.126  34.502   2.418
29049W        W97390  43.918  23.642   4.641
29050W        W97391  37.553  24.479  13.884
29051W        W97392  28.992   8.839  12.521
29052W        W97393   1.755  33.519  11.430
29053W        W97394  44.333   5.225  14.848
29054W        W97395  41.934  43.888   1.905
29055W        W97396  42.519  18.248  14.817
29056W        W97397  27.982  10.250   0.818
29057W        W97398  21.660  11.771  12.085
29058W        W97399  14.741  13.263   0.405
29059W        W97400  17.136  10.705  11.935
29060W        W97401  31.639  41.497  13.309
29061W        W97402  43.976  41.341  13.801
29062W        W97403  19.222  19.604   4.324
29063W        W97404   6.317  14.154  12.516
29064W        W97405  33.570  26.204  13.836
29065W        W97406  31.573  25.601  12.957
29066W        W97407  13.346  44.778  11.871
29067W        W97408  14.646  44.799  13.885
29068W        W97409  43.872  36.353   2.272
29069W        W97410  38.364  35.053  10.593
29070W        W97411  33.559   4.858  10.129
29071W        W97412  37.919  16.177  12.440
29072W        W97413  23.733   5.331   0.410
29073W        W97414  44.864  34.426   3.755
29074W        W97415  12.691  20.568   4.769
29075W        W97416   0.844  28.064   2.740
29076W        W97417  41.904   5.393   3.633
29077W        W97418  11.287  25.219   1.829
29078W        W97419   1.418   2.462  12.371
29079W        W97420  20.100  36.029   0.376
29080W        W97421  13.291  26.657  10.925
29081W        W97422  28.994   6.764  14.961
29082W        W97423  29.098  24.047  13.382
29083W        W97424  12.315  31.418   3.778
29084W        W97425   0.445  38.411  14.987
29085W        W97426   2.791  28.450  14.390
29086W        W97427  40.930  43.857   0.280
29087W        W97428   6.239  41.420  11.489
29088W        W97429  14.736   2.818  14.791
29089W        W97430  26.559  10.335   0.745
29090W        W97431  39.823  41.422   3.209
29091W        W97432   6.844  18.790   0.896
29092W        W97433   8.747  28.548  13.855
29093W        W97434   5.711  39.546  11.579
29094W        W97435  38.415  16.600  14.295
29095W        W97436  44.001  10.202   1.824
29096W        W97437  24.055  40.440   1.745
29097W        W97438  22.568   2.425  11.469
29098W        W97439  21.658  17.619  14.468
29099W        W97440  33.592  37.840  10.605
29100W        W97441  17.135  42.787  12.509
29101W        W97442  43.349  34.556   3.322
29102W        W97443  40.511  29.515   1.338
29103W        W97444   7.805  41.443  13.437
29104W        W97445  30.129  30.486  11.034
29105W        W97446   4.321  36.537   2.409
29106W        W97447   5.727   8.841  11.589
29107W        W97448   3.323  25.216  12.974
29108W        W97449  31.952  31.542   1.935
29109W        W97450  24.641   6.393   0.837
29110W        W97451   8.694   7.696   4.324
29111W        W97452  37.529  14.750   0.793
29112W        W97453   8.696  29.565  14.351
29113W        W97454  10.784   0.408   2.806
29114W        W97455  30.136   6.301  11.409
29115W        W97456  20.526  33.942  11.483
29116W        W97457   7.301  43.018   3.719
29117W        W97458   6.834   2.737  11.500
29118W        W97459   5.253   1.884  11.918
29119W        W97460  40.367   3.936   0.887
29120W        W97461   9.203  22.680  10.427
29121W        W97462   6.915  16.198   1.698
29122W        W97463   5.745  24.597   4.333
29123W        W97464   8.373  37.999  13.461
29124W        W97465  30.565  30.651   1.735
29125W        W97466  39.431  44.944  13.981
29126W        W97467   1.940  25.479   4.768
29127W        W97468  10.269   0.355  11.406
29128W        W97469  19.563  11.197  13.799
29129W        W97470   6.357  28.502  12.525
29130W        W97471  10.342   9.717  11.383
29131W        W97472   2.907  22.704   3.364
29132W        W97473  28.077  38.071   3.825
29133W        W97474  36.018  11.177  12.008
29134W        W97475  40.864  10.676  14.375
29135W        W97476  11.786  42.932   0.388
29136W        W97477  20.246  24.715   3.305
29137W        W97478  42.947  42.906  10.925
29138W        W97479  13.140  30.491   0.962
29139W        W97480  27.510  28.551  11.428
29140W        W97481  12.203  28.124  13.523
29141W        W97482  22.554   1.925   3.728
29142W        W97483  41.335   8.714   4.717
29143W        W97484  18.216  36.465  11.944
29144W        W97485  40.832  12.272  12.364
29145W        W97486  15.088   7.206   2.230
29146W        W97487  15.787  19.267  11.973
29147W        W97488  36.011  33.511  12.575
29148W        W97489  27.147  32.003  10.599
29149W        W97490  37.831  21.034  12.002
29150W        W97491   3.912  10.847   0.817
29151W        W97492  34.962   1.324  11.947
29152W        W97493  14.764  23.663  10.992
29153W        W97494  38.543  21.645   3.279
29154W        W97495  11.251   3.783  13.498
29155W        W97496  16.141  44.944  10.501
29156W        W97497  26.168  40.840   3.174
29157W        W97498   7.888  14.818  14.451
29158W        W97499  13.731  28.444   1.318
29159W        W97500   8.881  10.372  14.903
29160W        W97501  30.097   6.822   2.235
29161W        W97502  43.827   0.758   1.249
29162W        W97503  20.246  21.259  13.343
29163W        W97504  15.606  25.973   4.779
29164W        W97505  28.662  10.708  10.505
29165W        W97506  26.661  19.712  10.644
29166W        W97507  36.890  18.059  13.323
29167W        W97508   0.381  42.804  13.030
29168W        W97509  36.912  13.348   1.376
29169W        W97510  19.590  22.679   1.290
29170W        W97511  13.698  37.513  13.791
29171W        W97512   5.763  44.849   1.915
29172W        W97513  26.988  19.671   2.209
29173W        W97514   4.941  29.079  11.964
29174W        W97515  10.768  12.250   1.736
29175W        W97516  29.069  12.239   0.945
29176W        W97517  34.487  13.197   4.151
29177W        W97518  40.041  30.468  13.530
29178W        W97519  26.663  10.839  13.990
29179W        W97520  20.621  38.021  10.413
29180W        W97521  39.940   7.909  11.876
29181W        W97522   0.831  31.524  11.027
29182W        W97523  25.117   9.337  14.474
29183W        W97524   5.723   4.333  11.575
29184W        W97525   6.765  12.785   4.649
29185W        W97526  15.707   3.224  11.582
29186W        W97527   4.209  13.764   1.789
29187W        W97528   9.323  25.542   4.689
29188W        W97529  43.369  38.350   0.422
29189W        W97530  40.885  39.320   3.861
29190W        W97531  25.048  32.058  14.857
29191W        W97532  36.906  38.535   3.313
29192W        W97533  40.441  31.515   0.396
29193W        W97534   7.690   4.429  12.540
29194W        W97535  25.163  21.019   4.789
29195W        W97536  34.034  12.125   2.710
29196W        W97537  36.948  21.189  11.580
29197W        W97538  37.994  22.239   4.123
29198W        W97539  44.453  22.664  12.568
29199W        W97540  16.260  10.235  14.317
29200W        W97541   5.903  12.311   4.330
29201W        W97542  24.636   4.787   4.664
29202W        W97543  18.120  23.191   9.662
29203W        W97544  18.222  16.242  13.385
29204W        W97545  18.563  34.003   1.365
29205W        W97546  25.014  27.658   0.733
29206W        W97547  24.693   8.237   0.784
29207W        W97548  31.550  33.994  14.297
29208W        W97549  25.519  12.720   1.824
29209W        W97550  10.214  34.544   0.828
29210W        W97551  10.640   6.904   1.776
29211W        W97552   4.789  37.971   4.615
29212W        W97553  38.369  11.184  12.846
29213W        W97554  21.036  14.652  14.964
29214W        W97555  43.937  20.594   4.192
29215W        W97556  22.531   1.970  12.035
29216W        W97557   8.267  17.094   2.341
29217W        W97558  34.383   5.351  12.050
29218W        W97559  34.075  32.992   3.726
29219W        W97560  15.582  18.138   3.822
29220W        W97561  34.901  37.014  14.448
29221W        W97562  35.405   0.918   2.206
29222W        W97563  26.586  25.515   2.295
29223W        W97564  15.705  20.242  14.015
29224W        W97565  34.088  26.126  14.821
29225W        W97566  12.715  24.185   4.739
29226W        W97567  14.752  17.174   0.304
29227W        W97568  28.132  42.937  14.792
29228W        W97569  15.095  37.935   1.304
29229W        W97570  22.570   4.713   5.167
29230W        W97571   7.275  13.645   3.382
29231W        W97572  35.430  23.608  11.050
29232W        W97573   1.811  36.847  10.452
29233W        W97574  20.165  15.815   9.968
29234W        W97575  17.171  41.480  10.508
29235W        W97576  10.162  12.281   1.399
29236W        W97577  43.021  35.906   2.312
29237W        W97578  23.013   7.248   1.298
29238W        W97579   6.785  15.648   1.343
29239W        W97580  16.673  44.451   0.442
29240W        W97581  31.539  32.448  10.562
29241W        W97582   8.735  32.065   0.414
29242W        W97583  20.137  44.325   0.822
29243W        W97584  12.162  42.332  11.875
29244W        W97585   4.803  32.102  13.831
29245W        W97586  22.224   4.343   2.254
29246W        W97587  14.810  11.325   1.244
29247W        W97588  10.692   1.369   3.817
29248W        W97589   8.854   6.900  12.093
29249W        W97590   2.923  27.573   0.366
29250W        W97591   8.747  41.953   1.742
29251W        W97592   4.813  29.660   5.305
29252W        W97593  18.058  27.472  12.490
29253W        W97594   8.786  36.067   0.800
29254W        W97595   9.758  25.210   3.838
29255W        W97596  25.106  26.511  12.080
29256W        W97597  40.512  42.395  10.055
29257W        W97598  38.339  34.374  14.792
29258W        W97599  19.107  41.528  12.935
29259W        W97600  41.398  13.290   4.802
29260W        W97601  38.047  41.396   1.815
29261W        W97602  44.424  38.522   3.809
29262W        W97603  24.060   5.758  11.117
29263W        W97604  21.174  34.559  10.511
29264W        W97605  10.818  17.666  12.372
29265W        W97606  44.316   6.414  14.401
29266W        W97607  27.188  43.485  13.039
29267W        W97608   2.924   7.888  12.510
29268W        W97609  23.985  37.849   0.360
29269W        W97610  40.341  30.157  14.955
29270W        W97611  39.882  22.629  13.946
29271W        W97612  41.940  22.017   2.230
29272W        W97613  17.071  42.464   1.324
29273W        W97614  24.689  28.123   4.146
29274W        W97615  17.234  13.253  13.474
29275W        W97616  42.901  42.389  12.921
29276W        W97617  12.359   5.728   2.696
29277W        W97618   6.679  13.232  11.870
29278W        W97619  17.167  34.012  12.034
29279W        W97620  10.317  32.577   4.125
29280W        W97621  28.576  11.252  13.049
29281W        W97622  13.258   7.191   4.215
29282W        W97623  23.033  29.511   4.193
29283W        W97624  16.285  30.537  12.354
29284W        W97625   8.724  33.578  12.533
29285W        W97626   6.301  30.118  12.551
29286W        W97627   8.340   6.357  12.360
29287W        W97628  26.138  31.603   3.663
29288W        W97629  23.667  33.948   4.729
29289W        W97630   1.417  39.343   1.213
29290W        W97631  22.547   6.385   1.722
29291W        W97632  37.469  19.633  11.590
29292W        W97633  10.667   0.289   4.706
29293W        W97634   0.296  32.443  14.495
29294W        W97635  35.508   9.167   2.817
29295W        W97636  24.538  32.568  13.538
29296W        W97637  29.601  21.610   4.732
29297W        W97638   3.805  10.170   1.262
29298W        W97639   5.284  16.317   3.272
29299W        W97640  43.954  17.772   2.662
29300W        W97641  29.602  24.666  10.509
29301W        W97642  25.671  23.671   1.339
29302W        W97643  26.973  42.807   1.277
29303W        W97644  13.606   4.860   4.314
29304W        W97645  32.943  13.197   0.889
29305W        W97646  43.950   3.447   3.375
29306W        W97647  41.963   4.844   2.747
29307W        W97648  18.563  16.107  11.077
29308W        W97649  33.390  40.983  11.606
29309W        W97650  41.966  30.136  11.867
29310W        W97651  11.779  26.611  14.923
29311W        W97652  15.581  10.819   3.166
29312W        W97653  13.186  20.070   1.855
29313W        W97654  31.993  31.081   2.724
29314W        W97655  24.633  14.819  11.948
29315W        W97656  21.637  27.953  13.937
29316W        W97657  23.993  23.035   4.607
29317W        W97658   1.338  41.997  10.634
29318W        W97659  15.728   9.659  14.320
29319W        W97660  17.759  20.125   0.286
29320W        W97661  31.965  26.036  13.906
29321W        W97662   5.830  10.672   4.808
29322W        W97663  15.724   3.803  14.456
29323W        W97664  21.604  14.787   1.353
29324W        W97665  44.345  34.993   3.795
29325W        W97666  20.696  30.926  13.536
29326W        W97667  25.080   8.853  11.039
29327W        W97668  24.117  29.076   1.914
29328W        W97669  34.907  40.835  12.829
29329W        W97670  10.143  44.968  13.367
29330W        W97671   1.320  18.649  13.504
29331W        W97672  23.669   1.283   2.371
29332W        W97673   9.836  26.542  13.351
29333W        W97674   7.241  43.973   1.755
29334W        W97675  37.071  20.127  13.471
29335W        W97676  26.185   2.271  11.922
29336W        W97677  20.247   0.882  12.402
29337W        W97678  21.719  27.494  14.767
29338W        W97679  17.088  36.541   3.678
29339W        W97680  39.323  19.538   1.301
29340W        W97681  39.326  42.877  13.012
29341W        W97682  36.958  28.670  13.524
29342W        W97683  19.045   2.907  13.934
29343W        W97684  12.237  40.975   4.622
29344W        W97685   4.761  25.652   2.896
29345W        W97686  19.655  19.747  12.917
29346W        W97687   5.903  12.831   2.720
29347W        W97688  22.735  10.212   2.812
29348W        W97689  38.494  39.034   1.288
29349W        W97690  38.820  38.341  12.348
29350W        W97691   4.856  29.569   3.722
29351W        W97692  38.884  29.006  12.413
29352W        W97693  44.365  12.760  11.528
29353W        W97694  32.605  26.987   2.396
29354W        W97695   8.200   6.385   3.731
29355W        W97696   4.769  41.998  13.425
29356W        W97697  29.569  36.071  12.469
29357W        W97698   6.835   9.807  13.498
29358W        W97699  31.477   1.392  14.437
29359W        W97700  19.062  39.376   4.696
29360W        W97701  36.588  12.811   4.614
29361W        W97702  24.159  20.265  11.889
29362W        W97703  28.968  41.981   2.796
29363W        W97704   0.472   1.267   0.269
29364W        W97705  44.384  40.818  11.494
29365W        W97706  31.975   8.312   1.843
29366W        W97707   2.470  13.138   4.698
29367W        W97708  42.428  34.957   1.278
29368W        W97709  34.911   8.295   0.256
29369W        W97710  31.078  28.531  10.413
29370W        W97711  39.447   7.773  13.861
29371W        W97712  41.843   3.874   3.209
29372W        W97713  37.917  26.595   2.677
29373W        W97714  36.550  22.597  13.448
29374W        W97715  33.883  22.159   0.386
29375W        W97716  39.503  11.853  10.917
29376W        W97717  36.498  13.718   0.411
29377W        W97718  25.033  15.101   2.772
29378W        W97719   9.831  30.507   1.800
29379W        W97720  38.022  20.226   3.342
29380W        W97721  39.379  41.041  11.503
29381W        W97722  16.773  24.221  11.915
29382W        W97723   4.777  39.337   0.408
29383W        W97724  16.751   3.806  12.470
29384W        W97725   0.908  34.488  11.406
29385W        W97726  42.928  38.565   2.216
29386W        W97727  15.794  22.654  14.959
29387W        W97728   9.685  21.715   2.261
29388W        W97729   8.754  44.953  11.046
29389W        W97730   7.238  41.433  10.985
29390W        W97731   1.798  33.510   2.899
29391W        W97732   1.827  29.030   1.830
29392W        W97733   5.853  31.985   1.426
29393W        W97734  43.473  24.168   1.744
29394W        W97735  32.442  16.636   0.849
29395W        W97736  25.677  39.406   1.720
29396W        W97737  18.235   4.449  10.554
29397W        W97738  13.709  21.581  10.507
29398W        W97739  24.226  18.620   9.584
29399W        W97740  37.336   2.959  11.431
29400W        W97741  10.649  35.584  13.062
29401W        W97742  21.645   6.187   4.745
29402W        W97743  21.082  21.152  14.931
29403W        W97744  39.892  26.648  12.857
29404W        W97745  40.421  22.556  13.342
29405W        W97746  37.872  28.506  11.586
29406W        W97747  44.355  22.105   2.374
29407W        W97748  34.090   5.253  14.394
29408W        W97749  22.213   0.362   2.811
29409W        W97750  27.195  28.064   2.842
29410W        W97751   1.376  38.380   1.316
29411W        W97752  11.806  14.604  10.522
29412W        W97753  35.991  30.091  13.443
29413W        W97754  32.505  18.100   3.677
29414W        W97755  33.441  41.403  14.393
29415W        W97756  35.908   9.253  11.932
29416W        W97757  15.298  42.956   4.265
29417W        W97758  42.888  17.116   4.264
29418W        W97759  12.302  24.576   2.900
29419W        W97760  41.945  33.488  12.552
29420W        W97761  27.139  25.969  13.964
29421W        W97762  10.273  26.000   1.450
29422W        W97763  30.431   6.750  12.849
29423W        W97764  40.414  20.595   2.205
29424W        W97765  13.684  38.434   4.207
29425W        W97766  34.053  36.966  10.981
29426W        W97767  17.691   6.230   0.855
29427W        W97768  21.725  27.642   4.125
29428W        W97769  12.713  31.994  13.527
29429W        W97770  22.594  39.970   1.778
29430W        W97771  15.742  31.443  10.067
29431W        W97772  10.311  21.028  11.937
29432W        W97773  41.457  43.400  12.980
29433W        W97774  18.639  12.636  14.479
29434W        W97775  39.538  28.009   3.267
29435W        W97776  36.036  34.026  12.507
29436W        W97777  15.637  32.569  14.289
29437W        W97778  43.437   1.392  14.777
29438W        W97779  23.497  21.099  14.812
29439W        W97780  44.471  25.043  11.035
29440W        W97781   2.248   8.324  12.993
29441W        W97782  26.681   0.272   0.917
29442W        W97783  37.445  44.941   0.910
29443W        W97784  19.122  26.112  14.784
29444W        W97785  15.165  31.004   3.362
29445W        W97786  17.230  40.982  12.496
29446W        W97787  42.879  17.715   0.456
29447W        W97788  13.825  13.287   3.833
29448W        W97789   8.194  29.654   2.671
29449W        W97790  17.790  19.196  14.508
29450W        W97791   7.802  37.346  11.077
29451W        W97792  10.316  38.956   4.221
29452W        W97793   0.761  42.922   2.212
29453W        W97794  43.435  27.611   1.903
29454W        W97795  38.820  22.669   3.385
29455W        W97796  28.622  38.836  11.068
29456W        W97797  14.763  44.846  11.971
29457W        W97798  26.466   3.948   5.145
29458W        W97799  37.495  26.071  13.991
29459W        W97800   1.819  10.778   1.748
29460W        W97801  30.425  19.196  12.986
29461W        W97802  44.903  31.613  10.414
29462W        W97803   1.406  42.374  12.488
29463W        W97804  26.580  24.072  12.906
29464W        W97805  30.655  19.701  11.029
29465W        W97806  36.381  12.156  14.404
29466W        W97807  25.638  29.077   4.169
29467W        W97808  26.038  39.960   0.927
29468W        W97809  25.626   7.190   3.337
29469W        W97810  41.339  35.919   4.732
29470W        W97811  37.511  42.466  12.043
29471W        W97812  38.982  34.408   1.846
29472W        W97813  30.628  38.009   1.821
29473W        W97814  39.557  37.062   3.701
29474W        W97815  21.621  18.578  14.770
29475W        W97816  36.349  22.561  13.898
29476W        W97817  17.223   3.367  11.921
29477W        W97818  44.889  29.429  11.454
29478W        W97819  32.893   7.324  14.809
29479W        W97820  10.358  26.665  13.993
29480W        W97821  34.077  44.970   0.482
29481W        W97822   7.742  20.135   1.436
29482W        W97823  20.554   9.765   2.847
29483W        W97824  23.626  40.485  14.837
29484W        W97825  34.930  23.996  13.334
29485W        W97826   3.300  31.466   1.789
29486W        W97827   8.826  18.220  10.947
29487W        W97828   1.850  41.917   4.241
29488W        W97829  40.972   4.800   2.405
29489W        W97830  13.324  33.454   1.854
29490W        W97831  24.549  21.172  10.161
29491W        W97832   9.766  36.885  10.918
29492W        W97833  21.711  18.134   0.383
29493W        W97834  39.511  10.279   3.853
29494W        W97835  32.934  42.285  13.987
29495W        W97836  28.933  30.054   1.819
29496W        W97837  20.086  31.963  11.488
29497W        W97838   1.285  44.386   1.357
29498W        W97839  34.893   3.894  11.109
29499W        W97840  36.882   0.763   1.894
29500W        W97841   0.868  13.784  13.385
29501W        W97842  41.410  27.549  12.055
29502W        W97843  18.772  19.080   4.834
29503W        W97844   9.351   8.858   1.704
29504W        W97845   8.304  14.159  12.874
29505W        W97846  26.078  25.215  12.431
29506W        W97847   0.760  44.315   5.225
29507W        W97848  35.550  18.183   4.745
29508W        W97849  16.254  21.243  14.301
29509W        W97850  23.584   7.848  11.902
29510W        W97851  26.596  29.667   0.363
29511W        W97852  17.749  18.618   4.657
29512W        W97853  27.017  42.363  12.496
29513W        W97854  31.517  39.948   0.243
29514W        W97855  30.003  36.511   2.795
29515W        W97856  27.689  27.555  11.392
29516W        W97857  36.386  42.433   4.743
29517W        W97858  41.917  22.104  14.440
29518W        W97859  22.065  36.380  12.868
29519W        W97860  26.492   0.762   1.392
29520W        W97861  44.265  24.660  13.792
29521W        W97862   3.343  15.194  13.964
29522W        W97863  18.081  29.972   4.315
29523W        W97864  15.128  19.707  14.777
29524W        W97865  27.040  44.994   2.283
29525W        W97866  22.519  34.484   0.923
29526W        W97867  13.778  24.070  11.114
29527W        W97868  40.821   5.428  12.932
29528W        W97869  15.748  29.668  11.019
29529W        W97870   3.827  44.402  12.978
29530W        W97871  31.414  13.791   4.141
29531W        W97872  11.205  22.189  14.996
29532W        W97873   5.274   7.791  11.938
29533W        W97874  21.604  24.670   1.824
29534W        W97875  22.244  41.435  12.016
29535W        W97876  29.922  25.071  14.377
29536W        W97877  30.965   0.834   4.771
29537W        W97878   5.694   9.176   2.323
29538W        W97879   3.354  11.827   3.232
29539W        W97880  20.555   3.361  13.818
29540W        W97881  35.902  26.691  13.988
29541W        W97882  22.057  38.541  14.361
29542W        W97883  39.430  18.556  12.847
29543W        W97884   5.919  28.659  11.594
29544W        W97885  14.697  21.111  14.945
29545W        W97886  16.576  37.087  11.549
29546W        W97887  36.038   5.385  12.062
29547W        W97888  26.688   2.826   0.392
29548W        W97889  31.465   3.234  10.449
29549W        W97890   1.480  28.632  13.466
29550W        W97891  39.911  21.151  12.913
29551W        W97892  16.197   9.278   0.763
29552W        W97893  40.963  44.867  11.992
29553W        W97894  39.018   2.867  11.052
29554W        W97895   6.825  14.771   2.302
29555W        W97896  41.361  10.803   4.262
29556W        W97897   9.337  38.872   3.223
29557W        W97898  33.522   7.336   0.411
29558W        W97899  20.703   1.794   4.284
29559W        W97900  16.770  27.554  12.516
29560W        W97901  19.135   9.863  13.390
29561W        W97902  22.745  42.977   1.405
29562W        W97903  26.500  11.218   2.866
29563W        W97904   6.855  43.469  13.375
29564W        W97905   3.715   4.884  11.978
29565W        W97906  35.095  10.834   2.364
29566W        W97907   0.955   0.412  14.990
29567W        W97908  32.085   8.669   2.686
29568W        W97909   9.385  40.357  10.594
29569W        W97910  20.165   0.799   0.315
29570W        W97911  41.980   0.350  11.098
29571W        W97912  23.160  11.167   3.317
29572W        W97913   8.166  16.601   4.683
29573W        W97914   4.327  11.640  11.117
29574W        W97915  28.167   4.252  14.026
29575W        W97916  26.020  26.663   3.739
29576W        W97917   7.267  19.281  12.927
29577W        W97918   8.231  28.949   0.794
29578W        W97919  41.971   6.709   1.255
29579W        W97920   7.730  14.796  12.456
29580W        W97921  42.312  19.100  10.894
29581W        W97922  42.920  32.410   5.124
29582W        W97923  27.080  21.149   4.312
29583W        W97924  14.763   1.366  11.445
29584W        W97925  20.575  35.410  14.974
29585W        W97926  12.157  36.005  12.516
29586W        W97927  29.467  22.072   1.924
29587W        W97928  41.434   1.840  11.910
29588W        W97929   4.278  10.694   1.242
29589W        W97930   8.770  25.159  11.498
29590W        W97931  15.094  21.172   0.347
29591W        W97932  25.710  26.491   3.636
29592W        W97933  16.179  16.780   2.186
29593W        W97934  32.132  23.101   4.681
29594W        W97935  21.684   8.812  14.893
29595W        W97936   9.654  18.765   0.743
29596W        W97937  12.851   0.820  12.365
29597W        W97938   3.900  10.340  13.896
29598W        W97939   8.684  13.345  11.921
29599W        W97940  19.769   4.405   1.220
29600W        W97941  43.437  14.748  12.005
29601W        W97942  34.590  12.147  12.966
29602W        W97943  26.122   5.289   1.708
29603W        W97944   9.336  34.579  13.930
29604W        W97945   1.940  25.985   2.390
29605W        W97946  38.928   2.915  13.921
29606W        W97947  36.050  19.116  10.541
29607W        W97948  36.028   9.370  10.891
29608W        W97949  24.198  25.638  14.986
29609W        W97950  22.111  39.331  12.896
29610W        W97951  12.179  38.369  10.158
29611W        W97952  26.977   4.736  11.011
29612W        W97953  31.551  23.634  12.910
29613W        W97954  21.535  30.552   2.726
29614W        W97955  15.177  17.591   0.248
29615W        W97956  44.343  27.942  10.437
29616W        W97957  31.648   7.697   3.386
29617W        W97958  21.749  29.451   1.876
29618W        W97959  14.157  15.634  14.322
29619W        W97960  29.437  38.430   4.674
29620W        W97961  15.718  42.363   2.698
29621W        W97962  44.945  18.053   5.128
29622W        W97963   7.194  10.271  14.440
29623W        W97964  25.694   0.467   0.450
29624W        W97965   5.726  44.279  12.480
29625W        W97966  21.042  25.687  13.390
29626W        W97967  30.020   8.234  13.321
29627W        W97968  12.730  15.259   1.935
29628W        W97969   2.434  44.948  14.351
29629W        W97970  17.598  10.655   3.270
29630W        W97971   7.800  10.291   0.443
29631W        W97972  12.223  32.449  13.373
29632W        W97973  40.409  38.880  12.565
29633W        W97974  10.240  44.755   4.663
29634W        W97975  12.188  33.555  10.557
29635W        W97976  36.447  32.630  12.511
29636W        W97977   2.254  28.130  12.845
29637W        W97978  19.117  28.102   2.299
29638W        W97979  41.293  22.627   1.742
29639W        W97980  37.345  10.247  12.387
29640W        W97981   3.429  42.872  12.906
29641W        W97982   7.211  41.486   2.368
29642W        W97983  13.614  20.123  12.834
29643W        W97984   0.413  16.221   4.277
29644W        W97985  34.027  31.431   2.670
29645W        W97986  31.535  43.348   2.230
29646W        W97987  14.128  34.098   5.230
29647W        W97988   4.354   2.737   3.792
29648W        W97989  12.671  14.801  11.561
29649W        W97990  17.628  23.072  13.049
29650W        W97991  24.133  29.015   2.282
29651W        W97992  33.465  15.223   4.135
29652W        W97993  18.631  39.060   1.406
29653W        W97994  18.121  11.736   3.213
29654W        W97995  37.525  32.973   4.309
29655W        W97996  19.247  39.472   2.387
29656W        W97997  38.456  27.115   1.831
29657W        W97998  18.218  30.565   2.333
29658W        W97999  15.197   5.933  13.364
29659W        W98000  39.356   1.968   0.891
29660W        W98001   8.214  43.487   2.184
29661W        W98002  31.117   6.390   0.961
29662W        W98003  32.039  23.044   3.187
29663W        W98004  42.312  35.958  14.431
29664W        W98005  10.239  10.807   3.737
29665W        W98006  19.269  27.456  11.102
29666W        W98007  36.960  32.492   4.137
29667W        W98008  11.707  40.941  10.406
29668W        W98009  14.642  44.785  10.490
29669W        W98010  21.540  14.697   1.842
29670W        W98011  24.672  12.168   2.716
29671W        W98012  39.467  28.445  13.383
29672W        W98013  13.316  42.400   0.777
29673W        W98014  31.057  20.036  13.999
29674W        W98015   1.875  13.765   4.722
29675W        W98016  44.884  20.529  14.468
29676W        W98017  44.426  28.100  14.017
29677W        W98018   4.395  17.765  12.480
29678W        W98019  16.669   3.754  12.017
29679W        W98020  21.571  16.789   1.217
29680W        W98021  44.998  32.408  10.539
29681W        W98022  23.732  20.552   2.775
29682W        W98023   9.771   9.788   5.801
29683W        W98024   6.202  21.048  12.563
29684W        W98025  27.591   0.942   2.848
29685W        W98026  18.706   9.793  14.435
29686W        W98027   2.390  33.040  12.076
29687W        W98028  16.746  37.547  13.813
29688W        W98029   1.916   1.772  11.503
29689W        W98030   9.690  12.765  11.511
29690W        W98031  42.006  41.018   2.873
29691W        W98032  28.032  14.101   4.622
29692W        W98033   5.254   9.655   1.274
29693W        W98034  19.237   7.892  11.951
29694W        W98035   1.316  22.124   2.896
29695W        W98036  30.414  36.915  10.563
29696W        W98037  37.882  40.360   2.842
29697W        W98038   5.202   4.865  13.460
29698W        W98039  43.009  14.107   4.765
29699W        W98040  27.065   6.401  14.421
29700W        W98041  29.071  16.281  12.061
29701W        W98042  16.313  15.264   1.758
29702W        W98043  41.472  27.072   0.739
29703W        W98044  18.139   3.323   1.706
29704W        W98045  36.384   5.250   3.807
29705W        W98046   2.448  43.326   0.385
29706W        W98047  40.930   4.830  14.771
29707W        W98048   7.679  38.402   1.856
29708W        W98049  17.212  17.079   5.218
29709W        W98050  40.909  33.044   4.290
29710W        W98051   2.957  38.849  10.623
29711W        W98052   7.853  16.786  11.512
29712W        W98053   6.746   7.260  11.456
29713W        W98054  13.613  40.878  12.381
29714W        W98055  16.145  14.215   3.702
29715W        W98056  12.200  40.799  13.463
29716W        W98057  34.601  16.149   0.450
29717W        W98058  44.379  32.054  11.446
29718W        W98059   8.215  11.209  11.391
29719W        W98060  21.110  20.059   3.262
29720W        W98061  23.492  37.857  12.022
29721W        W98062  44.368  33.893   0.337
29722W        W98063  33.061  17.683  13.978
29723W        W98064  12.681   1.826   0.746
29724W        W98065  29.489  35.927  10.967
29725W        W98066  20.100  21.688  11.609
29726W        W98067  24.205  22.714   3.660
29727W        W98068   5.263  16.585  11.609
29728W        W98069  10.201  20.122  10.998
29729W        W98070  11.776   0.249   1.843
29730W        W98071  34.953  23.084   2.201
29731W        W98072  29.535  12.825  11.990
29732W        W98073  24.084  26.196  12.381
29733W        W98074   8.842  11.836   3.320
29734W        W98075  36.957   5.779   2.292
29735W        W98076  21.655  14.734   0.839
29736W        W98077  10.742  22.636   2.875
29737W        W98078   1.410  42.480   3.865
29738W        W98079  33.010   7.885  12.366
29739W        W98080  31.957  44.293  14.784
29740W        W98081  25.100  24.553  10.612
29741W        W98082  16.706  37.990   1.728
29742W        W98083  41.787  24.479   3.719
29743W        W98084  29.657   9.219  11.017
29744W        W98085   2.325  24.185   3.199
29745W        W98086   6.758  16.088  14.403
29746W        W98087  31.599   6.334  14.309
29747W        W98088  26.580  16.224  11.081
29748W        W98089   4.900   7.299   4.822
29749W        W98090  22.150  30.509  11.602
29750W        W98091  29.984   2.964  13.487
29751W        W98092   4.777  44.305  12.524
29752W        W98093  43.886   0.851   0.963
29753W        W98094   5.412  43.976  14.453
29754W        W98095  28.671  32.121   3.153
29755W        W98096  42.460  16.100   1.269
29756W        W98097   4.806   8.654   2.398
29757W        W98098  23.702  39.472  13.447
29758W        W98099   6.234  22.637  12.895
29759W        W98100   4.294  35.448   0.859
29760W        W98101  19.682   1.938   1.916
29761W        W98102   1.295  44.998   4.337
29762W        W98103  26.159   8.676  13.045
29763W        W98104  32.512  41.994   4.120
29764W        W98105  41.916  15.688  12.447
29765W        W98106  11.153  33.467   2.271
29766W        W98107  34.476   5.436  14.479
29767W        W98108  25.142  44.911  12.559
29768W        W98109  43.882  38.860  12.024
29769W        W98110  27.052   5.840   0.369
29770W        W98111  43.827  16.615   0.315
29771W        W98112   3.313  25.536  13.003
29772W        W98113  20.234  17.162   2.672
29773W        W98114   0.358  19.162  12.485
29774W        W98115  29.144  20.158  13.322
29775W        W98116  36.356   0.947  11.968
29776W        W98117  13.643  39.340   0.930
29777W        W98118  38.960  41.451  10.116
29778W        W98119   4.829  27.094   4.289
29779W        W98120  24.721  18.228  13.442
29780W        W98121  22.141   6.863   4.306
29781W        W98122  33.456  22.611  11.545
29782W        W98123  16.700   0.939  12.353
29783W        W98124   0.398   1.406   2.394
29784W        W98125   0.795   1.835  11.515
29785W        W98126  11.215  17.193   3.299
29786W        W98127  21.667  23.031  11.597
29787W        W98128  38.504  36.024  12.016
29788W        W98129  29.665  29.085   4.185
29789W        W98130  20.220  18.652  13.952
29790W        W98131  21.590   2.416   3.282
29791W        W98132  29.045   7.777  11.965
29792W        W98133  14.150  13.247  11.040
29793W        W98134  15.265  38.009   2.251
29794W        W98135  28.499  39.330  14.000
29795W        W98136   3.417  34.397   1.935
29796W        W98137  43.928  31.974   2.322
29797W        W98138  12.610  40.028  12.849
29798W        W98139  42.527   4.862   1.745
29799W        W98140   8.232   6.256   1.224
29800W        W98141   0.301  43.274   3.285
29801W        W98142  13.647  20.081   0.813
29802W        W98143  24.642   2.815  12.003
29803W        W98144  12.687  27.063  11.418
29804W        W98145  33.409  31.648  11.585
29805W        W98146  36.021  40.910  11.021
29806W        W98147  36.357  37.997  13.903
29807W        W98148  20.164  30.539  12.017
29808W        W98149  44.438  26.539   5.258
29809W        W98150   3.320  23.199   2.664
29810W        W98151   8.310  25.103   4.167
29811W        W98152  31.445  38.825  13.873
29812W        W98153  22.170   5.206   1.879
29813W        W98154  34.072   1.914  12.051
29814W        W98155  10.240   0.947   2.841
29815W        W98156  34.548  44.444  13.857
29816W        W98157  23.692  14.111   1.878
29817W        W98158  10.256  30.520  12.563
29818W        W98159  33.994  44.776   3.824
29819W        W98160  42.497  14.687   3.217
29820W        W98161  35.055  38.841  10.500
29821W        W98162  36.393  20.181   0.368
29822W        W98163  19.768   2.947   0.943
29823W        W98164   2.287   0.973  10.518
29824W        W98165  41.447  44.305  12.413
29825W        W98166  44.488   8.754   2.301
29826W        W98167  42.322  22.186  13.341
29827W        W98168   5.330  30.065   1.252
29828W        W98169  17.221  29.533   2.702
29829W        W98170  30.029   8.660  14.345
29830W        W98171  12.139  12.629   3.269
29831W        W98172  12.725  12.288  12.415
29832W        W98173  22.232   7.837  11.503
29833W        W98174   0.315  11.679  10.430
29834W        W98175  25.693  14.819  13.848
29835W        W98176   2.328  18.082  10.579
29836W        W98177  14.115  41.347  10.605
29837W        W98178  29.104   0.845   3.866
29838W        W98179  18.732  42.401   0.374
29839W        W98180  44.424  43.309   4.600
29840W        W98181  24.533  38.830   2.739
29841W        W98182  36.074  37.412  13.430
29842W        W98183  39.852   8.684   2.879
29843W        W98184   0.376  17.616   3.631
29844W        W98185  40.949  44.848   3.358
29845W        W98186  25.539   9.750   0.247
29846W        W98187  15.093  15.738  10.420
29847W        W98188   1.289  15.315   1.437
29848W        W98189  25.088  28.448   1.363
29849W        W98190  20.671  20.080  10.974
29850W        W98191   3.939  40.818  11.938
29851W        W98192   6.251  43.956   2.198
29852W        W98193   0.346   9.276  12.508
29853W        W98194  27.972  26.956  12.474
29854W        W98195  32.426  39.477   4.821
29855W        W98196  26.547  16.169  10.470
29856W        W98197   8.372  33.024  13.008
29857W        W98198  43.938  40.513   0.355
29858W        W98199  34.101  32.096  14.327
29859W        W98200  41.901  29.963   3.204
29860W        W98201  42.483   3.414  13.528
29861W        W98202  29.114  18.075   2.362
29862W        W98203  37.913  24.153  14.313
29863W        W98204  12.854  11.266  10.488
29864W        W98205  11.191  34.615   3.383
29865W        W98206  34.033  20.578  10.962
29866W        W98207  18.264  22.054   3.680
29867W        W98208   8.890   4.366   0.249
29868W        W98209  15.296   7.400   3.170
29869W        W98210  25.112  11.181  14.814
29870W        W98211   9.289   9.834  12.458
29871W        W98212  21.694  34.541  12.341
29872W        W98213  41.413   4.254  13.385
29873W        W98214   0.311   8.271   0.829
29874W        W98215  41.803  20.161   2.385
29875W        W98216   2.779  19.267   1.865
29876W        W98217  38.054  31.017  14.436
29877W        W98218  11.294  28.434   4.690
29878W        W98219  39.481  38.525  13.435
29879W        W98220  35.898  43.507   2.297
29880W        W98221  22.559  38.442  14.781
29881W        W98222  13.781  30.919   2.776
29882W        W98223  21.243   0.470  12.568
29883W        W98224   4.223  24.077  13.039
29884W        W98225  10.343  17.675  14.448
29885W        W98226  33.118  23.605   4.700
29886W        W98227   1.876  21.228  13.815
29887W        W98228  37.375  18.778   0.335
29888W        W98229   5.261  30.128   4.821
29889W        W98230  32.465  13.214   1.361
29890W        W98231  12.140   6.309  10.923
29891W        W98232  11.727  37.002  14.019
29892W        W98233  16.791  35.456   1.317
29893W        W98234  11.666  12.852   3.227
29894W        W98235   8.374   6.246  13.523
29895W        W98236  16.184  31.075   4.657
29896W        W98237  26.970  17.250  13.380
29897W        W98238  33.404   7.878  11.548
29898W        W98239  26.610  23.128  11.005
29899W        W98240  27.468  30.437  14.919
29900W        W98241   7.384   0.936  13.822
29901W        W98242   0.773   1.482  10.465
29902W        W98243  38.927  38.456   1.805
29903W        W98244  25.119   9.181  13.867
29904W        W98245  41.483   1.788  10.526
29905W        W98246  34.974  18.747   2.218
29906W        W98247  42.027  22.686  11.034
29907W        W98248  19.559  32.441  14.318
29908W        W98249  33.501  29.522   4.823
29909W        W98250  13.842  10.782   2.222
29910W        W98251  33.013   9.647   0.256
29911W        W98252   8.173   9.794  11.381
29912W        W98253   0.889   0.429  14.438
29913W        W98254  32.605  30.967   0.882
29914W        W98255  30.007  29.087   0.914
29915W        W98256  14.204  13.143   5.283
29916W        W98257  10.657  17.631   4.330
29917W        W98258  15.233  38.494   4.734
29918W        W98259  24.714  17.788  13.039
29919W        W98260  28.033  41.847   2.876
29920W        W98261  26.660  39.035  10.132
29921W        W98262  20.689   4.379  11.972
29922W        W98263   1.336   2.269   4.238
29923W        W98264  31.465  25.127   1.331
29924W        W98265   8.255  37.838  10.924
29925W        W98266  35.070  13.810   0.288
29926W        W98267  34.613  16.218  12.488
29927W        W98268   8.687  42.850  11.472
29928W        W98269  40.334   7.417  13.928
29929W        W98270  27.446  38.495  11.402
29930W        W98271  35.477  36.025  13.006
29931W        W98272   1.837   8.690  12.372
29932W        W98273   2.724  26.954  14.766
29933W        W98274  37.492   9.257   2.827
29934W        W98275  11.260  24.028   4.835
29935W        W98276  10.668  40.940   1.235
29936W        W98277  40.498   6.753   0.802
29937W        W98278  28.092  25.585  10.998
29938W        W98279  38.427  26.542  10.909
29939W        W98280  30.092  17.222  12.902
29940W        W98281   0.349  17.224   4.806
29941W        W98282  44.946  14.651  11.521
29942W        W98283  35.511  43.800  12.878
29943W        W98284  28.138   6.279   5.152
29944W        W98285  11.178  25.594  14.898
29945W        W98286   0.292  27.139  12.970
29946W        W98287  36.853  36.040   2.763
29947W        W98288   9.350   9.359   4.221
29948W        W98289  15.773   8.384   0.406
29949W        W98290  28.031  21.181  12.075
29950W        W98291  42.503   8.295   2.326
29951W        W98292  34.882  27.162  14.883
29952W        W98293  20.109  31.920  12.851
29953W        W98294   1.437   6.190   0.311
29954W        W98295  23.526   8.173   4.188
29955W        W98296  42.338  12.823  14.289
29956W        W98297  32.576   4.777   3.755
29957W        W98298   4.756   4.929   3.179
29958W        W98299  15.271   2.768  10.995
29959W        W98300  38.406  18.229   4.146
29960W        W98301  41.295  34.024  14.477
29961W        W98302   2.862  43.942  10.526
29962W        W98303  13.710  39.349  13.984
29963W        W98304  42.474  36.538   1.806
29964W        W98305  24.497  33.460  10.468
29965W        W98306  13.750  32.043  11.932
29966W        W98307   2.720  19.145   3.736
29967W        W98308  40.035  23.517  13.049
29968W        W98309  12.631  15.314   4.678
29969W        W98310  26.012  34.560   4.280
29970W        W98311  28.581  30.161   1.314
29971W        W98312   3.384  39.052   3.706
29972W        W98313   1.402  23.712   3.323
29973W        W98314  16.141   4.433  13.848
29974W        W98315  13.247  12.788   4.129
29975W        W98316   4.337  11.811   4.760
29976W        W98317  32.457  13.772   1.907
29977W        W98318  17.115  12.833   1.710
29978W        W98319  35.399  11.638   4.298
29979W        W98320   1.343   5.877  13.420
29980W        W98321  25.692  41.970  14.775
29981W        W98322  27.632  16.216   2.315
29982W        W98323   8.784  15.611   1.283
29983W        W98324  24.694  37.455  11.520
29984W        W98325  34.589  14.135   1.916
29985W        W98326   8.339  13.182   2.884
29986W        W98327   7.862  12.195  11.519
29987W        W98328  38.996   2.804   2.251
29988W        W98329  26.510  13.730  12.950
29989W        W98330   8.735  28.607   3.156
29990W        W98331  27.099   7.415   2.230
29991W        W98332  14.243  40.496   0.247
29992W        W98333  18.181  36.565   1.746
29993W        W98334  11.622   5.898   3.334
29994W        W98335  22.012   8.889   3.154
29995W        W98336  42.373  12.794   1.351
29996W        W98337  18.737   8.832  12.980
29997W        W98338  43.921   0.379   4.768
29998W        W98339  26.149  38.359  11.119
29999W        W98340  40.341  26.990  13.815
30000W        W98341   8.227  26.569  10.893
30001W        W98342   4.930  40.008   2.697
30002W        W98343  19.536  40.467   3.364
30003W        W98344  19.199  10.727   2.249
30004W        W98345   1.916  26.206  11.610
30005W        W98346  30.965   0.459   4.131
30006W        W98347  31.544  37.933  14.949
30007W        W98348  42.888   4.733   1.879
30008W        W98349  11.715  29.931   0.891
30009W        W98350  39.036  29.503  11.504
30010W        W98351  34.459  16.737   3.278
30011W        W98352  22.998  35.000  10.611
30012W        W98353  32.957  34.389  10.991
30013W        W98354  40.008  32.527  12.093
30014W        W98355  11.790   6.243   2.239
30015W        W98356   9.647  31.138   0.249
30016W        W98357  30.007   2.824  11.963
30017W        W98358   9.748  37.063  11.869
30018W        W98359  31.948   3.741   3.641
30019W        W98360  28.060  33.447   0.402
30020W        W98361  41.318  11.277   2.748
30021W        W98362  26.972  23.578   4.138
30022W        W98363  42.949  38.066   4.651
30023W        W98364  42.421  34.402  12.344
30024W        W98365  44.913  20.652   3.248
30025W        W98366  16.763  32.067  11.860
30026W        W98367  32.636  37.401  10.481
30027W        W98368   7.728  27.593   2.673
30028W        W98369  30.496  32.040  10.485
30029W        W98370  36.400  34.885  12.373
30030W        W98371  35.855  44.930  11.095
30031W        W98372  27.951  38.038   1.239
30032W        W98373  29.120  10.186  11.481
30033W        W98374   1.847  36.405   2.823
30034W        W98375  39.985  17.582   3.218
30035W        W98376   9.328  30.600  14.860
30036W        W98377  42.347  30.970   1.931
30037W        W98378  44.266  16.679   3.294
30038W        W98379  17.269  13.349   1.245
30039W        W98380  12.801  14.718   2.734
30040W        W98381   1.840  13.636   4.325
30041W        W98382  11.181   3.907   0.917
30042W        W98383  34.886  37.896   0.478
30043W        W98384  28.014  30.448  11.078
30044W        W98385  23.086  41.494  12.901
30045W        W98386  42.027  19.567   1.379
30046W        W98387  15.270   2.380  13.906
30047W        W98388  30.529   0.402  14.942
30048W        W98389  29.972  44.954  11.040
30049W        W98390  18.265   7.821   0.319
30050W        W98391   2.936  44.477  12.543
30051W        W98392   0.908  22.039   0.478
30052W        W98393   5.359  33.592  10.937
30053W        W98394  10.336  12.698   0.897
30054W        W98395  10.245   4.853  13.387
30055W        W98396  22.550  20.542  13.979
30056W        W98397   4.819   5.782  14.941
30057W        W98398  32.026  19.180  13.386
30058W        W98399  14.608  15.595   3.250
30059W        W98400  19.540  20.115  11.544
30060W        W98401  22.554  17.282  12.540
30061W        W98402  42.372  33.439   2.853
30062W        W98403  25.523  12.775  10.446
30063W        W98404  30.572  34.953  10.517
30064W        W98405   9.269  35.515   2.757
30065W        W98406  27.613  41.316  12.361
30066W        W98407   9.682   9.248   3.179
30067W        W98408  39.935  34.960   2.767
30068W        W98409  29.163  29.580   3.270
30069W        W98410  38.832  44.815   0.321
30070W        W98411  32.575  14.797   1.277
30071W        W98412  24.506  44.467   3.675
30072W        W98413  39.989   5.792   0.961
30073W        W98414  19.660  28.946  10.526
30074W        W98415  40.356  17.303   4.753
30075W        W98416   9.855  21.157  11.973
30076W        W98417  20.758  10.246  11.585
30077W        W98418   7.844  39.513   4.747
30078W        W98419   8.864  42.984  10.494
30079W        W98420  20.176  40.946   2.723
30080W        W98421  40.969  29.073   2.414
30081W        W98422  16.590   0.947   3.844
30082W        W98423  35.920  24.648   3.372
30083W        W98424  16.672  38.465  13.920
30084W        W98425  16.203  29.985   4.721
30085W        W98426  23.582  28.445   2.254
30086W        W98427  11.637   0.877  12.846
30087W        W98428  23.712  38.348   1.409
30088W        W98429   2.380   0.263  11.590
30089W        W98430  41.386  39.453   3.641
30090W        W98431  36.046  31.947  14.805
30091W        W98432  44.397  25.533   1.309
30092W        W98433  12.331  16.809  13.813
30093W        W98434   3.774   7.301  14.298
30094W        W98435  22.221  24.521  11.941
30095W        W98436  13.831   3.914   1.848
30096W        W98437  41.343  36.393  12.373
30097W        W98438   4.944  25.709  10.949
30098W        W98439  28.499  31.597  13.461
30099W        W98440  38.545   7.265   4.605
30100W        W98441   3.851  21.101   4.635
30101W        W98442  15.736  16.236   2.211
30102W        W98443   2.739  44.281  13.907
30103W        W98444  36.871  34.063   3.814
30104W        W98445  40.916   5.764  13.366
30105W        W98446   2.922  22.159  12.904
30106W        W98447  44.978  38.392   3.845
30107W        W98448  38.382  15.102  12.361
30108W        W98449  25.657  27.450  14.347
30109W        W98450  28.536  24.643   2.298
30110W        W98451  17.088  43.885   1.733
30111W        W98452  41.978  16.194  11.863
30112W        W98453   3.761  35.068   3.824
30113W        W98454  28.043   7.409   4.815
30114W        W98455   7.404   9.395  11.399
30115W        W98456  42.957  42.819  14.914
30116W        W98457  40.385   1.878  11.398
30117W        W98458  17.239   6.410  10.078
30118W        W98459  27.549  15.230   2.187
30119W        W98460  41.452  20.763  10.412
30120W        W98461   8.317   6.221  11.374
30121W        W98462  14.140  30.155  11.500
30122W        W98463  37.891  29.081   2.707
30123W        W98464  22.564  22.153  10.527
30124W        W98465  29.000  37.529   1.248
30125W        W98466  37.896  15.715  11.969
30126W        W98467  17.172  40.018  12.886
30127W        W98468  25.612  41.301   9.939
30128W        W98469  39.411   9.715  14.486
30129W        W98470  27.149   3.215  14.872
30130W        W98471  16.294  40.346   2.712
30131W        W98472  43.854  42.403  10.574
30132W        W98473   4.217  19.252  13.833
30133W        W98474   9.300  19.556  11.524
30134W        W98475  32.614  10.840  10.630
30135W        W98476  39.015   9.659   3.683
30136W        W98477  39.883  36.871  14.848
30137W        W98478  21.071  44.775   3.703
30138W        W98479  31.432  29.159   1.781
30139W        W98480   3.802  44.788   2.374
30140W        W98481  24.605  20.576  13.418
30141W        W98482  21.222   6.342  13.911
30142W        W98483   1.315  37.085  12.456
30143W        W98484   7.224  39.878  13.337
30144W        W98485  16.171  32.945   2.269
30145W        W98486  25.124  21.536   2.720
30146W        W98487  23.662  42.012   4.769
30147W        W98488  37.413  38.515  10.050
30148W        W98489   3.294  19.735   1.297
30149W        W98490  41.035  42.320   4.663
30150W        W98491  30.004   2.794   1.238
30151W        W98492  21.550  17.567  13.809
30152W        W98493  41.993  25.138  14.288
30153W        W98494   6.257  37.578  11.582
30154W        W98495   0.462   7.243  14.385
30155W        W98496  13.311  27.071  10.466
30156W        W98497  35.967  17.129  13.481
30157W        W98498  37.559  41.422  11.493
30158W        W98499  13.714  38.835   4.637
30159W        W98500   6.893  18.291  14.404
30160W        W98501  10.874   7.855  10.607
30161W        W98502  28.505  34.575   4.706
30162W        W98503  26.471  25.993   0.411
30163W        W98504   8.838  30.627  10.896
30164W        W98505  42.307  33.924   4.796
30165W        W98506  16.702  34.034   3.764
30166W        W98507  32.600  15.773  12.925
30167W        W98508  38.010  32.900   1.372
30168W        W98509  42.388   2.916   4.345
30169W        W98510  13.265  41.982  14.388
30170W        W98511  40.511  43.338   5.805
30171W        W98512  44.787   1.301  12.965
30172W        W98513  26.602  38.986  13.499
30173W        W98514  19.112  12.833   0.305
30174W        W98515   3.952   3.283   4.774
30175W        W98516  25.152  32.986  14.763
30176W        W98517  36.586  26.634   3.277
30177W        W98518   3.407  12.775  11.603
30178W        W98519  16.732   7.792  13.941
30179W        W98520  40.511  13.212  14.916
30180W        W98521  38.398   0.420   0.893
30181W        W98522  44.388   8.774  10.406
30182W        W98523  15.687   5.399   0.863
30183W        W98524  12.235  40.523   0.262
30184W        W98525  43.281   5.412   0.922
30185W        W98526  30.040  31.575   2.302
30186W        W98527  36.445  11.349  14.912
30187W        W98528  20.592  18.266   0.357
30188W        W98529   7.710  18.076   4.832
30189W        W98530  41.492  17.781   3.689
30190W        W98531  25.132  24.626   3.713
30191W        W98532  23.153  44.772   2.689
30192W        W98533  41.408  31.004   4.827
30193W        W98534  41.295   3.262   2.795
30194W        W98535   5.775  18.743   3.156
30195W        W98536  32.630  17.206   4.764
30196W        W98537  28.454  20.666  11.006
30197W        W98538  28.578  30.143   1.904
30198W        W98539  19.587   4.889  10.143
30199W        W98540  22.522   1.318   1.220
30200W        W98541   7.175   5.240  11.941
30201W        W98542   4.371  22.128   2.894
30202W        W98543   1.752  20.086  12.551
30203W        W98544   3.452  23.088  11.408
30204W        W98545  39.385  41.381  13.887
30205W        W98546   5.212   5.799   4.269
30206W        W98547   1.240  41.991  11.597
30207W        W98548   1.878  15.698  14.351
30208W        W98549  10.361  11.818   1.821
30209W        W98550   0.780  44.489  11.473
30210W        W98551   2.368  28.097   4.821
30211W        W98552  13.309   7.303  10.583
30212W        W98553  16.702  27.102  12.428
30213W        W98554   4.837   1.823   4.776
30214W        W98555  31.896   3.785  13.858
30215W        W98556  38.454  37.376  14.950
30216W        W98557  12.617   5.916   0.771
30217W        W98558   2.264  32.885   4.720
30218W        W98559  23.085  29.655  13.399
30219W        W98560  34.915  43.500   2.406
30220W        W98561  25.182  22.707  10.490
30221W        W98562  19.712  36.994  14.988
30222W        W98563  28.099  37.456   2.768
30223W        W98564  20.147  29.063  10.559
30224W        W98565  20.645  18.632  14.460
30225W        W98566  17.706  29.618  13.033
30226W        W98567  39.469  29.991   1.302
30227W        W98568  26.966   2.856   3.207
30228W        W98569   2.931   9.727   4.182
30229W        W98570  34.489  24.653   1.340
30230W        W98571  30.527  19.267  14.474
30231W        W98572  22.710   9.781  12.568
30232W        W98573  12.222   9.193  11.927
30233W        W98574  11.308  15.211   0.373
30234W        W98575  41.314  24.098  14.915
30235W        W98576  38.996  18.205  14.999
30236W        W98577  22.152  41.425  14.006
30237W        W98578  22.502  41.491   0.452
30238W        W98579  17.765  32.945   0.245
30239W        W98580  22.086  26.964  10.552
30240W        W98581  37.560  20.740   2.770
30241W        W98582  26.681   7.374   9.958
30242W        W98583  32.560  14.675  14.962
30243W        W98584  23.687  29.482   2.271
30244W        W98585   8.809  34.084  11.433
30245W        W98586  28.153  34.937  11.062
30246W        W98587   5.906  28.507  10.426
30247W        W98588  40.005  22.682   3.288
30248W        W98589  42.794  32.055   1.759
30249W        W98590  32.081  43.430  13.847
30250W        W98591  44.284  43.400  14.991
30251W        W98592  25.617  22.252  14.400
30252W        W98593  31.986  30.444   2.733
30253W        W98594   4.937  22.043  12.907
30254W        W98595  25.502  43.769   2.686
30255W        W98596  34.970  21.064  13.915
30256W        W98597   0.277  15.120  11.484
30257W        W98598  30.489  37.007   2.826
30258W        W98599  11.250  21.047  11.007
30259W        W98600   9.281   5.930  12.504
30260W        W98601  26.590  34.894   5.150
30261W        W98602  39.373  23.167   3.801
30262W        W98603  30.005  43.340   0.464
30263W        W98604  32.885  35.018  14.448
30264W        W98605   9.228  21.071   0.848
30265W        W98606   0.330  22.008   2.365
30266W        W98607   1.469  32.142  10.913
30267W        W98608  36.399  27.045   1.755
30268W        W98609   0.280  27.681  11.002
30269W        W98610  44.861  38.379   0.788
30270W        W98611  15.176  37.956  12.426
30271W        W98612  18.294  39.954   2.673
30272W        W98613   6.337  26.018   0.862
30273W        W98614  39.522  43.970   4.214
30274W        W98615  23.707  25.210  11.539
30275W        W98616   0.466  10.798  14.018
30276W        W98617  22.742  35.430   2.792
30277W        W98618  16.697  41.524  13.954
30278W        W98619   6.906  13.194   3.365
30279W        W98620  33.420  37.377   4.293
30280W        W98621  31.081   7.262   2.839
30281W        W98622  36.454  42.288  10.542
30282W        W98623  39.936  42.512   3.648
30283W        W98624  17.702  19.086  13.853
30284W        W98625  35.497  13.245  14.991
30285W        W98626  20.665  28.468  14.909
30286W        W98627  43.295  28.936   0.757
30287W        W98628  16.146  14.705  14.471
30288W        W98629  18.559  36.932  10.639
30289W        W98630  33.389   1.457   1.920
30290W        W98631  36.453   5.707   1.375
30291W        W98632  14.330   6.283  11.890
30292W        W98633  41.905  27.178   4.335
30293W        W98634  32.967  36.586   2.308
30294W        W98635   8.835  22.578   1.277
30295W        W98636  14.321  22.617  14.365
30296W        W98637  39.370  44.991   4.815
30297W        W98638  19.739  26.955   0.952
30298W        W98639  41.833  15.232  11.890
30299W        W98640  20.152  39.523  14.894
30300W        W98641  10.253  18.072  11.868
30301W        W98642  39.452  39.436   1.391
30302W        W98643  38.029  11.847  13.497
30303W        W98644   4.910   5.877  12.572
30304W        W98645   4.341  36.523   1.889
30305W        W98646  35.455  24.207  10.899
30306W        W98647  24.106  18.231  14.348
30307W        W98648  41.988  35.995  10.591
30308W        W98649  16.751  37.556  12.505
30309W        W98650  24.201  20.049   1.438
30310W        W98651  12.710  11.734   0.872
30311W        W98652   8.164  23.617   0.934
30312W        W98653  14.254  42.857  10.418
30313W        W98654  20.574  36.953   4.736
30314W        W98655  33.483  41.909   4.725
30315W        W98656  17.764  22.703  11.890
30316W        W98657   2.231   6.184   2.417
30317W        W98658   4.444  25.479  14.481
30318W        W98659  23.137  13.282   2.331
30319W        W98660  29.026  21.100   2.824
30320W        W98661  42.428  42.368   0.369
30321W        W98662  17.791  24.052  13.046
30322W        W98663  15.710  19.063   3.333
30323W        W98664  13.161  44.293  11.599
30324W        W98665  24.074   7.742   4.206
30325W        W98666  10.339  23.198   3.343
30326W        W98667  30.527  19.703   0.483
30327W        W98668   9.257  25.039  13.430
30328W        W98669  16.127  20.124  13.002
30329W        W98670  40.476   5.340  12.500
30330W        W98671  22.618  43.406  14.393
30331W        W98672   0.487  25.188   2.306
30332W        W98673   8.869  40.455   3.778
30333W        W98674   6.843  40.901   4.278
30334W        W98675  25.111  39.409  10.469
30335W        W98676  27.143  27.649   3.777
30336W        W98677  16.739   0.917  11.024
30337W        W98678   7.757  31.598  11.980
30338W        W98679  15.614  28.579  13.038
30339W        W98680  37.072  28.524   0.915
30340W        W98681  39.026  42.904   1.853
30341W        W98682  27.525   7.680   3.849
30342W        W98683  39.013  29.432  14.341
30343W        W98684  38.829  39.973  11.917
30344W        W98685  27.642  15.133   3.708
30345W        W98686  26.589   6.396  14.455
30346W        W98687   2.882  40.386   2.416
30347W        W98688  36.886   2.764  11.908
30348W        W98689  36.931  36.364  12.433
30349W        W98690   1.361  43.375   2.325
30350W        W98691  22.715  10.850   1.422
30351W        W98692  12.754  34.478   2.401
30352W        W98693  22.694   5.838  12.380
30353W        W98694  25.639  22.667  11.595
30354W        W98695  34.919   6.691  11.552
30355W        W98696  30.084  10.820  12.026
30356W        W98697   8.215   0.900   0.407
30357W        W98698  42.445   7.328  14.293
30358W        W98699  25.206   1.761   1.230
30359W        W98700  38.992  15.599   1.330
30360W        W98701  42.355  17.766   4.274
30361W        W98702  25.178  12.626  14.424
30362W        W98703  23.105   8.829  10.511
30363W        W98704  27.501  15.616   1.394
30364W        W98705  23.598   7.844  12.844
30365W        W98706  33.916  41.485   9.671
30366W        W98707  22.680   1.330   9.963
30367W        W98708  41.814  34.424   0.753
30368W        W98709  30.058  40.360  13.897
30369W        W98710  43.456   7.726  10.522
30370W        W98711  30.023  22.127  12.852
30371W        W98712   3.806  35.994   2.329
30372W        W98713  35.591  11.179   0.940
30373W        W98714  11.270  27.496   1.883
30374W        W98715   3.761  42.367  14.380
30375W        W98716  29.926  34.955  12.018
30376W        W98717  39.552  38.365   3.726
30377W        W98718   1.816   7.302   1.803
30378W        W98719  31.526   3.230  14.783
30379W        W98720   1.976  35.430   3.295
30380W        W98721  10.303  37.464  11.050
30381W        W98722  24.989  34.102  12.002
30382W        W98723  35.927  29.005  12.395
30383W        W98724  22.010  37.022   1.695
30384W        W98725  34.073  36.502   1.244
30385W        W98726  28.942  16.218  11.598
30386W        W98727  35.392  38.546   4.704
30387W        W98728  27.454  22.506  14.026
30388W        W98729  41.977  16.802  12.057
30389W        W98730   7.407  17.620  13.865
30390W        W98731   1.914  16.797  10.466
30391W        W98732  11.700   7.316  14.784
30392W        W98733  42.948  44.382  11.375
30393W        W98734  32.911  27.539  10.561
30394W        W98735  23.555  26.148  11.067
30395W        W98736  12.303  34.102  14.775
30396W        W98737  40.375  13.666   2.417
30397W        W98738   4.923  40.384   0.411
30398W        W98739   4.884  34.572  13.851
30399W        W98740  42.837  14.764  12.992
30400W        W98741  41.422  28.591  12.459
30401W        W98742  40.418   4.832  12.878
30402W        W98743  41.829  22.236  14.983
30403W        W98744  35.518  31.641  14.336
30404W        W98745  28.517  37.997   1.830
30405W        W98746   2.365  20.632   0.340
30406W        W98747   4.762   0.431  14.929
30407W        W98748   4.237  11.653  13.511
30408W        W98749  17.682  44.419  13.060
30409W        W98750  14.616  27.068  10.624
30410W        W98751  34.031  29.037   2.329
30411W        W98752  22.619   0.854  13.056
30412W        W98753  23.058  33.114  10.497
30413W        W98754   3.844   8.209   3.669
30414W        W98755   8.343   2.818   2.399
30415W        W98756  29.121   5.702  14.939
30416W        W98757  41.308   0.894   4.652
30417W        W98758   6.217  26.500   4.755
30418W        W98759  43.908  35.473   1.719
30419W        W98760  38.819  26.153   4.313
30420W        W98761   4.759   9.178   2.312
30421W        W98762  15.239  34.376   2.369
30422W        W98763  14.595  27.690  13.440
30423W        W98764   5.359   4.270  13.356
30424W        W98765   4.703  10.343   2.705
30425W        W98766  40.335  25.664   0.408
30426W        W98767  41.927  40.808   3.324
30427W        W98768  43.360  15.814  10.629
30428W        W98769  20.579  15.222   0.407
30429W        W98770  37.528  38.475  12.079
30430W        W98771  27.975   2.253  12.864
30431W        W98772   4.270  18.256   5.208
30432W        W98773  12.324   1.863   4.165
30433W        W98774  30.014  37.453   2.267
30434W        W98775  38.456  30.496  11.405
30435W        W98776   7.265   7.677   3.839
30436W        W98777  13.607  41.864   2.407
30437W        W98778  16.812  21.167   9.568
30438W        W98779  25.536  27.164  14.866
30439W        W98780   6.683  13.636  10.894
30440W        W98781  41.996  11.362  12.576
30441W        W98782  19.629  35.987   0.475
30442W        W98783  26.985  23.548   1.794
30443W        W98784  12.128  13.168   4.639
30444W        W98785  24.514  10.233   1.365
30445W        W98786   0.814  36.575   0.848
30446W        W98787  18.227  17.076   3.850
30447W        W98788  25.536  19.765   5.238
30448W        W98789  21.091  20.713   3.696
30449W        W98790  18.695   7.325   1.849
30450W        W98791  39.390   2.890   0.416
30451W        W98792  21.605  25.037  11.482
30452W        W98793  26.457  29.666  11.006
30453W        W98794   0.753  42.343   1.305
30454W        W98795  41.911  37.522   0.372
30455W        W98796  21.224   1.327   0.263
30456W        W98797  12.169  32.071  13.454
30457W        W98798  28.625   7.887   0.833
30458W        W98799  12.777  14.786   0.356
30459W        W98800  38.534  13.628   0.827
30460W        W98801  28.469  36.556   0.325
30461W        W98802   1.799   0.971   4.332
30462W        W98803   3.860  26.971  13.945
30463W        W98804  10.242  21.063  14.291
30464W        W98805   2.472  22.653  12.039
30465W        W98806  20.073  37.988   1.791
30466W        W98807  20.265  42.352  14.948
30467W        W98808  40.970   6.359   0.905
30468W        W98809   0.799  38.513   3.801
30469W        W98810   4.703  17.591   3.750
30470W        W98811  11.222  19.736   1.393
30471W        W98812  18.052   3.824   4.826
30472W        W98813  39.549  33.088   2.229
30473W        W98814  29.114  29.475   0.297
30474W        W98815  31.622  34.119   1.720
30475W        W98816  24.202  34.077   0.867
30476W        W98817   2.424   6.337  12.017
30477W        W98818  30.589  12.824   1.431
30478W        W98819  35.589  26.496   3.662
30479W        W98820  15.629  14.819   1.843
30480W        W98821  42.900  37.963   2.352
30481W        W98822  42.510  37.916   2.746
30482W        W98823  27.092   5.263   3.673
30483W        W98824  14.216  38.341   4.717
30484W        W98825  32.941  11.230   1.378
30485W        W98826  44.357   4.825  11.071
30486W        W98827   5.397  24.555   3.794
30487W        W98828  27.021  16.177  10.496
30488W        W98829  33.625  14.780   0.451
30489W        W98830  36.443  27.145   3.808
30490W        W98831   6.680  27.526   3.261
30491W        W98832  41.971  16.628   4.738
30492W        W98833  31.581   1.791  11.982
30493W        W98834  34.939   5.325   2.322
30494W        W98835  21.069  32.412   3.725
30495W        W98836  38.000   8.169  11.454
30496W        W98837   7.256   4.783  11.003
30497W        W98838  38.448  38.333  13.416
30498W        W98839   6.203  13.311   0.266
30499W        W98840   6.712  36.418   0.246
30500W        W98841  12.616  21.753  14.432
30501W        W98842  15.158  36.485  13.939
30502W        W98843  18.637  25.012  14.019
30503W        W98844   5.201  28.439  12.558
30504W        W98845   4.714   2.789  14.430
30505W        W98846  19.233  23.078   5.651
30506W        W98847  13.278  35.588   4.680
30507W        W98848  41.031  23.017  14.362
30508W        W98849   3.722   4.925   2.665
30509W        W98850  24.528  26.118   1.718
30510W        W98851  11.706  36.082  14.996
30511W        W98852   2.365  20.034  13.931
30512W        W98853  16.783  10.287  11.989
30513W        W98854  24.055  38.468   0.956
30514W        W98855  35.022  34.556  11.528
30515W        W98856  39.939  23.681   3.249
30516W        W98857  12.325  11.266   3.345
30517W        W98858   0.916  20.145   3.751
30518W        W98859  16.654  22.555   0.824
30519W        W98860  26.678  42.395   4.151
30520W        W98861  26.512  38.838  13.043
30521W        W98862  13.843   1.950  12.939
30522W        W98863   4.904  13.811   4.669
30523W        W98864  17.715  28.619  10.525
30524W        W98865  24.656  29.635   3.723
30525W        W98866  15.160  13.279   3.268
30526W        W98867   4.735  10.224   3.355
30527W        W98868  11.236  43.781  14.880
30528W        W98869   8.228  15.619   3.730
30529W        W98870  31.482   3.750  11.107
30530W        W98871  13.138  20.663  14.848
30531W        W98872  41.951   1.241   4.820
30532W        W98873  34.913  13.793  11.036
30533W        W98874   2.447   1.409  10.480
30534W        W98875  42.494  40.400   0.308
30535W        W98876   5.896  34.947   3.235
30536W        W98877  44.373  15.823   0.942
30537W        W98878  26.021   3.753  11.089
30538W        W98879  41.876  12.339  11.376
30539W        W98880  39.502   5.888  13.933
30540W        W98881  11.684  17.215   4.795
30541W        W98882  38.043   2.228  10.438
30542W        W98883  36.456  31.926  10.039
30543W        W98884  34.392  20.614   0.355
30544W        W98885  44.353  17.561  13.349
30545W        W98886  19.074   0.978   0.901
30546W        W98887  32.021  16.631  11.417
30547W        W98888  18.262  20.049  13.437
30548W        W98889  41.857  19.246   1.320
30549W        W98890   2.258  14.110   3.340
30550W        W98891   1.339  33.929  14.029
30551W        W98892  14.738  10.708  13.371
30552W        W98893  15.129  22.220  14.454
30553W        W98894  28.642  39.453   2.215
30554W        W98895  26.203   9.215  12.869
30555W        W98896   8.197  39.426   0.411
30556W        W98897  23.040  23.565   1.246
30557W        W98898  13.164  25.107   0.299
30558W        W98899  41.454  36.415   4.760
30559W        W98900   8.160  40.829   0.445
30560W        W98901  26.116  25.028   4.181
30561W        W98902  34.435  15.321   2.750
30562W        W98903  14.105  33.994   0.839
30563W        W98904  23.679  18.253   3.333
30564W        W98905  18.657  37.376   5.311
30565W        W98906  36.566  16.309  11.415
30566W        W98907  22.014   8.730  11.994
30567W        W98908   3.346  11.270  11.538
30568W        W98909  22.673  34.560  11.524
30569W        W98910  44.403  15.152  14.414
30570W        W98911  29.055   6.855  11.961
30571W        W98912  18.161  41.445   0.838
30572W        W98913  21.628  25.507  11.405
30573W        W98914  27.096  30.595  14.342
30574W        W98915   8.347   5.704   4.126
30575W        W98916  26.584  30.609  11.920
30576W        W98917   7.792   4.706  14.475
30577W        W98918   6.862   5.917  13.415
30578W        W98919  10.252  21.615  13.469
30579W        W98920  15.800  12.190   4.738
30580W        W98921   5.930  20.730   3.357
30581W        W98922  31.497  30.562  12.895
30582W        W98923  14.195   1.951   0.262
30583W        W98924  20.087  19.156  12.059
30584W        W98925   4.888  44.831  13.861
30585W        W98926  37.512   2.758  14.835
30586W        W98927   0.412  17.608   0.745
30587W        W98928   8.846  28.663  10.624
30588W        W98929  16.134  37.430  12.089
30589W        W98930  29.993   9.287  12.044
30590W        W98931   3.306  41.497  12.074
30591W        W98932  19.558  24.544   1.829
30592W        W98933  13.124  42.905   2.706
30593W        W98934   6.293  23.158  12.861
30594W        W98935  19.277  36.570   4.706
30595W        W98936  37.370  44.997   3.690
30596W        W98937  38.553  24.681   4.824
30597W        W98938  13.274   7.220   4.751
30598W        W98939   7.325   8.199  13.005
30599W        W98940   2.739   2.311   2.413
30600W        W98941  34.963  33.517  14.863
30601W        W98942  32.924  25.515  11.893
30602W        W98943  18.279  12.285  12.946
30603W        W98944  17.196  33.401  12.826
30604W        W98945  33.492  14.828  11.956
30605W        W98946  32.888   8.246  12.376
30606W        W98947  35.561  30.085  11.030
30607W        W98948  39.034  36.366   5.283
30608W        W98949   2.919   3.265  13.479
30609W        W98950   9.362   9.298   3.863
30610W        W98951  20.690   1.471  10.980
30611W        W98952  44.454  14.622   4.777
30612W        W98953  37.027  13.634  12.071
30613W        W98954   4.942   8.182  14.463
30614W        W98955  17.669  37.916  11.951
30615W        W98956  33.956  14.831  11.456
30616W        W98957  27.671  26.679  14.011
30617W        W98958   2.397  19.090  11.126
30618W        W98959   3.351  29.610   1.771
30619W        W98960  35.897  35.585   1.382
30620W        W98961  16.784  35.404   3.295
30621W        W98962  26.662  11.135  11.985
30622W        W98963  33.904  37.457   2.867
30623W        W98964   3.884  31.607   2.712
30624W        W98965  38.562  40.433  12.494
30625W        W98966   3.724  22.535  11.020
30626W        W98967  42.336  14.709  14.780
30627W        W98968   5.199   6.399  10.971
30628W        W98969  30.931   2.723  10.611
30629W        W98970  33.942   9.217  11.559
30630W        W98971  34.054  39.983  12.412
30631W        W98972  13.723   4.234   0.392
30632W        W98973  43.899  25.090   0.416
30633W        W98974  24.116   8.211   3.788
30634W        W98975  25.053  12.328  14.339
30635W        W98976  31.053  11.260   4.186
30636W        W98977  44.412  11.784  10.450
30637W        W98978  21.644   1.350  11.401
30638W        W98979  42.377   8.392  11.074
30639W        W98980  35.026   9.857  14.376
30640W        W98981  35.028  14.742   1.246
30641W        W98982   3.293  37.425   4.141
30642W        W98983  37.017  33.612  13.459
30643W        W98984   1.430  44.761  12.555
30644W        W98985   4.208  21.561   4.814
30645W        W98986  30.078  42.790  12.904
30646W        W98987  24.607  12.295  13.888
30647W        W98988  13.300  41.463   1.744
30648W        W98989  13.317  15.194  12.485
30649W        W98990  40.897  37.945  12.998
30650W        W98991  23.079  23.529   1.843
30651W        W98992  24.567  29.627   1.437
30652W        W98993   7.908  39.429   3.193
30653W        W98994  42.900  30.003   4.247
30654W        W98995   5.231  29.665   4.763
30655W        W98996  38.545  39.364  12.537
30656W        W98997  22.127   0.296  12.850
30657W        W98998  23.669  43.873  11.059
30658W        W98999  16.770   2.742  12.932
30659W        W99000   5.794  14.745  13.854
30660W        W99001   0.939   1.333   0.818
30661W        W99002  25.670   8.191  13.519
30662W        W99003  23.544  31.524  12.870
30663W        W99004  33.117  42.882  10.645
30664W        W99005  22.595  20.073  13.063
30665W        W99006  40.515  27.985   0.966
30666W        W99007  22.638  19.233  14.290
30667W        W99008  43.444  16.633  11.420
30668W        W99009  41.478  35.448  11.026
30669W        W99010  17.747  34.429   1.922
30670W        W99011  10.161   8.208   0.256
30671W        W99012  33.115  40.467  14.390
30672W        W99013   1.463  36.850   4.217
30673W        W99014  26.588  24.561   3.255
30674W        W99015  21.622  10.368   2.733
30675W        W99016  38.947   5.261  13.518
30676W        W99017  31.146  26.495   3.337
30677W        W99018  11.148  29.547   1.925
30678W        W99019   1.766   0.887  14.437
30679W        W99020  37.845  15.292   3.739
30680W        W99021  32.949  12.686  11.005
30681W        W99022  11.312  20.688   4.184
30682W        W99023   1.973  37.375   1.754
30683W        W99024  13.155  33.624  12.357
30684W        W99025  15.665   7.204  12.507
30685W        W99026  44.414  37.491  10.564
30686W        W99027  41.476  32.526   2.403
30687W        W99028   2.405  10.345  11.551
30688W        W99029  17.140   2.334   4.803
30689W        W99030   0.372  23.166   1.422
30690W        W99031  25.472  26.697   4.719
30691W        W99032   1.880  17.080   1.765
30692W        W99033  17.064   2.759  10.551
30693W        W99034   2.861  36.477  13.873
30694W        W99035  38.051  26.478   3.810
30695W        W99036   1.825  29.605  14.487
30696W        W99037  39.844   0.491   3.260
30697W        W99038  22.216  31.150  10.984
30698W        W99039   3.775  15.135  12.999
30699W        W99040  15.681  18.639  12.062
30700W        W99041  19.173  33.511   2.318
30701W        W99042   1.878  38.406  12.897
30702W        W99043   4.229   9.693  10.435
30703W        W99044  21.113   3.413  13.465
30704W        W99045  34.013  38.913   3.222
30705W        W99046  41.516  25.190  10.462
30706W        W99047  13.726   2.753   3.754
30707W        W99048   8.897   4.870  10.000
30708W        W99049   7.705  37.549  13.949
30709W        W99050  12.155  38.473  14.508
30710W        W99051   3.923   4.331   0.376
30711W        W99052  13.246  13.211  12.039
30712W        W99053  41.800  19.091  11.073
30713W        W99054  22.250  28.088  12.461
30714W        W99055  17.162  26.979   4.224
30715W        W99056  12.317  19.708   3.835
30716W        W99057  10.148  17.748   0.331
30717W        W99058  35.601  12.137  11.002
30718W        W99059  24.680  15.301   2.382
30719W        W99060   9.680  44.353  13.990
30720W        W99061   2.270   7.808  14.872
30721W        W99062  36.919  10.227  12.476
30722W        W99063  40.342  35.491   4.188
30723W        W99064   8.660  34.092  12.065
30724W        W99065  31.905  34.509  13.434
30725W        W99066  43.391   7.224  12.023
30726W        W99067  33.452  16.130   2.364
30727W        W99068  41.876  28.477  14.003
30728W        W99069  28.649  32.895  11.441
30729W        W99070  14.224   5.266   0.872
30730W        W99071  28.606   7.780  12.956
30731W        W99072  33.925  22.509   0.443
30732W        W99073  16.763  43.348  13.439
30733W        W99074  37.840  25.562   0.731
30734W        W99075  28.016   5.871  14.904
30735W        W99076  26.687  23.732   0.888
30736W        W99077  26.952   9.233  14.922
30737W        W99078  18.713   6.314  11.573
30738W        W99079  39.923  32.943  14.889
30739W        W99080  23.199  44.396  13.950
30740W        W99081  22.098  40.516  12.446
30741W        W99082  16.582  37.467  14.438
30742W        W99083  27.550  27.573  11.880
30743W        W99084   5.741  21.734  12.841
30744W        W99085  22.009  28.633  12.455
30745W        W99086  19.123  11.221  11.899
30746W        W99087  44.346  27.158   2.787
30747W        W99088   9.332  13.621   2.814
30748W        W99089  30.093  23.206  12.531
30749W        W99090  27.185  29.138   3.352
30750W        W99091  30.149  16.310  12.974
30751W        W99092  12.847   5.835  12.031
30752W        W99093  16.753  14.208   4.330
30753W        W99094   3.827   4.293   4.607
30754W        W99095  17.673   4.791   0.879
30755W        W99096  17.761  22.744   4.239
30756W        W99097  12.344   3.364   4.743
30757W        W99098  26.995  43.462   4.297
30758W        W99099  32.627  38.328   0.818
30759W        W99100  31.939  31.478  14.453
30760W        W99101  40.395  26.473   3.827
30761W        W99102  19.113  43.406  10.521
30762W        W99103  19.264   9.873  11.446
30763W        W99104  23.083  37.981   3.774
30764W        W99105  19.752  34.120   1.378
30765W        W99106  14.708  22.155   3.303
30766W        W99107  42.345  29.076   3.815
30767W        W99108  36.589  25.674   0.796
30768W        W99109   0.450  26.136  13.913
30769W        W99110  17.621  26.076  13.060
30770W        W99111   3.222  15.296   0.777
30771W        W99112  33.392  12.710  14.028
30772W        W99113  42.516  42.486   4.156
30773W        W99114  13.221  37.364  12.490
30774W        W99115  25.197  32.512   5.194
30775W        W99116   1.273  32.422  13.053
30776W        W99117  34.519  30.971   0.881
30777W        W99118  33.399  19.219   1.738
30778W        W99119  39.057   9.670  14.322
30779W        W99120  16.733  44.892  13.802
30780W        W99121  12.812  33.380  12.046
30781W        W99122  35.436   6.195  11.968
30782W        W99123  34.045  22.581   3.644
30783W        W99124  31.113  24.028  10.566
30784W        W99125  36.069  26.197  10.959
30785W        W99126  35.883  28.133  10.470
30786W        W99127  37.945  45.000  12.071
30787W        W99128  37.936   3.952  12.388
30788W        W99129  21.517  15.194  12.015
30789W        W99130  36.060  38.849  11.426
30790W        W99131  20.186  10.338  12.400
30791W        W99132  13.114  35.005   2.678
30792W        W99133  25.660  29.131  12.913
30793W        W99134  19.699   7.270   2.863
30794W        W99135  16.770   9.686  11.398
30795W        W99136   5.915   9.376   4.203
30796W        W99137  23.077  11.828   0.919
30797W        W99138  23.192  12.201   0.852
30798W        W99139   5.858  29.617   1.220
30799W        W99140  39.991   1.338   2.749
30800W        W99141  24.679   9.346   3.386
30801W        W99142  25.000   9.824   3.158
30802W        W99143  34.446  35.876  14.901
30803W        W99144  32.938  38.539  12.544
30804W        W99145  20.531  25.548   1.419
30805W        W99146  31.142  38.060   1.893
30806W        W99147  18.158  28.568   4.835
30807W        W99148  44.367  34.527   0.416
30808W        W99149  35.105  24.681   4.265
30809W        W99150   0.453  33.618  10.516
30810W        W99151   0.902  30.581   2.896
30811W        W99152  14.811  21.064   0.469
30812W        W99153  44.468   0.762  13.906
30813W        W99154  23.493   2.957  13.975
30814W        W99155  13.256   4.903   3.758
30815W        W99156   8.861   8.266  14.941
30816W        W99157   3.267  26.122  11.589
30817W        W99158  23.985  39.002   3.662
30818W        W99159  27.054  39.906   2.283
30819W        W99160  26.529  28.564  10.564
30820W        W99161  27.491  41.432   0.763
30821W        W99162   8.797  25.219   1.901
30822W        W99163   7.374  33.443  14.425
30823W        W99164   1.862   1.825   1.353
30824W        W99165  18.274  43.459   2.840
30825W        W99166  23.186  20.647  12.833
30826W        W99167  18.706  27.614  12.823
30827W        W99168  42.830  41.492   3.668
30828W        W99169   3.309  12.276   4.709
30829W        W99170  10.201   7.396   9.985
30830W        W99171   7.884  38.352   3.305
30831W        W99172  24.552  35.545  11.987
30832W        W99173  31.965  24.158   0.422
30833W        W99174  36.953  16.764  14.833
30834W        W99175  12.630  27.473   1.778
30835W        W99176   2.463  10.695   3.718
30836W        W99177  12.188  31.485  10.636
30837W        W99178   4.305  36.083   1.254
30838W        W99179  39.477   3.941   0.812
30839W        W99180  17.273  21.142   9.478
30840W        W99181   1.823  26.550   1.861
30841W        W99182  11.304  29.053   3.201
30842W        W99183  37.500  31.562  12.340
30843W        W99184  24.581  23.173   4.770
30844W        W99185   9.827  13.744   3.252
30845W        W99186   9.379  35.055   1.238
30846W        W99187  19.542  23.504  11.523
30847W        W99188  17.763  33.130   2.419
30848W        W99189  37.477  32.485   3.208
30849W        W99190  10.229  10.855  14.847
30850W        W99191  22.536  30.964  10.457
30851W        W99192  12.214   8.737  13.853
30852W        W99193   9.877  28.493   0.847
30853W        W99194  41.918  10.692   2.185
30854W        W99195   5.806  36.860   1.856
30855W        W99196  36.471   1.289   0.349
30856W        W99197   6.795  24.227   2.272
30857W        W99198  37.582   5.865   3.247
30858W        W99199  15.302  21.135  12.032
30859W        W99200  32.005  10.295  11.498
30860W        W99201   7.793  32.470   3.685
30861W        W99202  17.771  43.936   1.246
30862W        W99203  33.605  29.559  13.844
30863W        W99204  35.996  22.148   0.741
30864W        W99205  28.537  15.586   4.309
30865W        W99206  12.209  39.953  10.095
30866W        W99207   1.363  12.618  14.444
30867W        W99208  30.413  14.593  12.578
30868W        W99209  44.444  19.627  10.601
30869W        W99210  35.931  26.604   0.304
30870W        W99211   9.670  13.303  10.540
30871W        W99212  41.514  27.024  12.832
30872W        W99213  37.992  19.728   2.742
30873W        W99214   9.315  37.476   9.970
30874W        W99215  15.185  34.395  12.524
30875W        W99216  21.122  16.616   2.811
30876W        W99217  17.749  42.311   0.477
30877W        W99218  14.245  32.059   4.696
30878W        W99219  34.038  42.514  11.384
30879W        W99220  23.015   0.950   3.746
30880W        W99221   7.816   5.309   3.644
30881W        W99222   8.364  27.173   1.721
30882W        W99223  40.529   5.890   4.251
30883W        W99224   0.867  14.788   0.863
30884W        W99225  26.071  22.166  10.442
30885W        W99226  13.717  31.140   0.934
30886W        W99227  11.291  34.966  11.448
30887W        W99228   5.823  43.842   4.206
30888W        W99229  44.876  27.468  11.075
30889W        W99230  35.030  19.709   2.841
30890W        W99231  18.703  24.991   3.695
30891W        W99232  40.355  38.535   2.383
30892W        W99233  12.260  18.677  11.443
30893W        W99234  19.573   0.800  13.994
30894W        W99235  20.109   8.722   4.805
30895W        W99236  14.805  14.604  11.876
30896W        W99237  10.805   3.900   2.315
30897W        W99238  24.493   2.883  12.929
30898W        W99239  29.528  25.143   2.361
30899W        W99240   9.181  16.587   0.406
30900W        W99241  19.687  19.674   0.821
30901W        W99242  16.180  34.578  10.986
30902W        W99243  20.637  32.898  10.491
30903W        W99244  39.946  15.214  13.848
30904W        W99245   2.237  26.630  11.128
30905W        W99246  21.227  28.647   2.206
30906W        W99247  25.037  29.168   4.266
30907W        W99248  17.108  18.743   0.789
30908W        W99249  23.736  29.539   1.921
30909W        W99250  40.475   3.246   4.749
30910W        W99251  36.362   5.734   4.129
30911W        W99252  13.774  41.893  13.062
30912W        W99253  12.145   1.863   2.348
30913W        W99254  12.632   6.676  10.897
30914W        W99255  19.176  38.871   2.274
30915W        W99256  15.770   6.783  14.991
30916W        W99257  41.807  29.126  10.428
30917W        W99258  12.164  23.055  14.366
30918W        W99259   0.987  32.584   1.896
30919W        W99260  41.338   1.296  13.392
30920W        W99261  17.146  20.145  11.548
30921W        W99262  18.063  13.173  10.587
30922W        W99263   5.208  37.996   4.803
30923W        W99264   0.357  24.640  11.443
30924W        W99265  39.882   0.384   0.261
30925W        W99266  31.602  27.658   0.422
30926W        W99267  29.436  14.789   4.627
30927W        W99268  42.327  40.982  11.584
30928W        W99269  30.601  12.704  10.533
30929W        W99270  38.076  17.675   2.773
30930W        W99271  36.519  28.183   5.228
30931W        W99272  15.779  30.129  13.408
30932W        W99273   8.345   1.279   2.665
30933W        W99274  25.617  38.925   1.800
30934W        W99275  29.071   3.899  11.872
30935W        W99276  35.592  27.655   3.679
30936W        W99277   0.348  41.851  13.443
30937W        W99278   4.790  38.480   3.712
30938W        W99279  39.815   9.201  14.426
30939W        W99280  22.101  28.547   4.655
30940W        W99281  43.011   9.357   3.159
30941W        W99282  13.310  12.269   3.197
30942W        W99283   9.325  42.399  12.957
30943W        W99284  37.985  32.491   0.378
30944W        W99285   3.719   0.903   4.308
30945W        W99286  24.670  16.794  14.335
30946W        W99287  21.186  12.322  13.795
30947W        W99288   1.967  36.904   4.640
30948W        W99289  22.583  22.547  10.996
30949W        W99290  39.916  14.314  12.936
30950W        W99291  34.581   7.368   2.721
30951W        W99292  21.586  38.566   1.752
30952W        W99293  37.556  10.204   3.784
30953W        W99294  15.646  19.120   2.191
30954W        W99295  17.715   4.312  14.831
30955W        W99296   2.334  34.615   4.835
30956W        W99297   4.416  15.651   5.268
30957W        W99298  44.766  15.632   3.255
30958W        W99299  32.065  26.147   4.229
30959W        W99300  35.552  28.184  13.498
30960W        W99301  28.480  34.068  12.994
30961W        W99302  44.355  29.928   1.340
30962W        W99303  35.883  23.137   4.815
30963W        W99304  27.990  28.585   0.828
30964W        W99305   4.855   1.935  13.317
30965W        W99306   7.736   7.261  12.389
30966W        W99307  17.302  14.125   4.285
30967W        W99308  30.487   0.368  10.988
30968W        W99309   4.327  17.060  10.545
30969W        W99310  12.251   1.307  10.921
30970W        W99311  39.027  22.037   1.754
30971W        W99312  29.518  22.628   1.233
30972W        W99313  44.813   9.843  13.865
30973W        W99314   4.402  11.704   2.273
30974W        W99315  20.632  26.996  12.425
30975W        W99316   1.400  14.300   4.339
30976W        W99317  21.251  24.146  10.900
30977W        W99318  17.134  10.164   3.633
30978W        W99319  40.438   5.899  11.456
30979W        W99320   9.715   3.388   1.321
30980W        W99321  26.952  26.958  10.606
30981W        W99322   2.730  22.601   2.401
30982W        W99323  16.666   5.193  14.912
30983W        W99324  33.529  25.109  10.404
30984W        W99325  28.944  14.202  12.559
30985W        W99326  30.918  32.031   0.780
30986W        W99327  41.411  44.362  14.806
30987W        W99328  18.716  11.134  13.890
30988W        W99329  10.671  35.883   4.215
30989W        W99330   4.706  35.873  11.109
30990W        W99331  28.558  10.219  13.419
30991W        W99332  30.944  25.154   2.331
30992W        W99333  42.402  25.015   2.779
30993W        W99334  27.586  43.488   4.762
30994W        W99335  38.485   7.407   1.246
30995W        W99336  30.080  14.112   5.232
30996W        W99337  21.700   8.748   3.732
30997W        W99338  38.844  32.916   2.787
30998W        W99339  40.380  18.698  10.571
30999W        W99340  15.782  31.002  14.422
31000W        W99341   0.454  43.928  11.068
31001W        W99342  28.113  28.513   1.432
31002W        W99343  39.466  10.287   2.248
31003W        W99344   0.479  19.703   0.404
31004W        W99345   5.836   1.375  14.816
31005W        W99346  38.455  39.545   3.256
31006W        W99347   2.292  29.598  12.067
31007W        W99348  25.677  42.934   3.329
31008W        W99349  40.447   2.277   0.877
31009W        W99350  40.041  30.603   0.283
31010W        W99351  44.344   6.721   4.312
31011W        W99352  27.072  19.541   4.660
31012W        W99353   2.963  24.683   1.241
31013W        W99354   2.417  39.480   0.894
31014W        W99355  34.455  23.593   3.367
31015W        W99356  35.563   7.341   3.298
31016W        W99357   1.294   1.770   2.709
31017W        W99358   9.890  12.800  13.792
31018W        W99359  30.993  20.232   3.192
31019W        W99360  29.116  26.057   3.691
31020W        W99361  14.787   2.389   3.311
31021W        W99362  39.522  16.761  14.440
31022W        W99363  38.899  23.637   0.441
31023W        W99364  18.210  42.922   4.731
31024W        W99365  39.928  32.970  11.025
31025W        W99366   0.337   8.875   2.895
31026W        W99367   0.979  33.081  11.093
31027W        W99368   2.399  18.644  11.420
31028W        W99369  14.188  33.391   5.097
31029W        W99370  14.111   9.705   2.225
31030W        W99371  21.036  24.198  11.602
31031W        W99372  27.006  40.435  13.905
31032W        W99373  43.901   5.387   0.345
31033W        W99374  30.014  13.844  11.460
31034W        W99375  19.269  22.723   4.720
31035W        W99376   1.749  42.003  13.022
31036W        W99377  36.052   4.277   4.707
31037W        W99378  38.014  22.251  12.988
31038W        W99379  35.877  44.293  11.585
31039W        W99380   2.241  25.137  12.882
31040W        W99381  10.762  11.667   2.796
31041W        W99382  42.519  28.444  11.506
31042W        W99383   7.869  40.809   3.383
31043W        W99384   9.875   2.830  12.397
31044W        W99385   1.751  35.929  12.362
31045W        W99386   1.933   2.421   2.839
31046W        W99387  34.463  14.777  10.916
31047W        W99388   6.705  41.827   4.334
31048W        W99389  43.354  31.150  13.034
31049W        W99390  35.598   2.329   3.154
31050W        W99391  15.144  24.526  12.425
31051W        W99392  18.279  11.785  14.446
31052W        W99393  43.273   4.395   1.400
31053W        W99394   7.361  35.366  13.919
31054W        W99395   5.766   5.773   2.818
31055W        W99396  26.617  14.814   1.870
31056W        W99397  18.096   1.797   3.660
31057W        W99398  25.612  17.300  13.453
31058W        W99399  39.910  41.971  14.949
31059W        W99400  10.728  37.933   0.949
31060W        W99401  39.479  33.448  14.822
31061W        W99402  24.525   4.285  11.598
31062W        W99403  24.010  32.893  13.313
31063W        W99404  32.422  22.166  14.886
31064W        W99405   8.841  41.912   0.794
31065W        W99406   8.869  20.063   4.161
31066W        W99407  15.747   7.877  14.343
31067W        W99408  32.459  31.144   4.814
31068W        W99409  24.095  25.657  14.444
31069W        W99410  18.708  17.654  11.031
31070W        W99411   1.252  27.454   0.946
31071W        W99412  39.987  24.134  14.025
31072W        W99413  11.801  42.857   3.375
31073W        W99414  33.542  44.317  12.504
31074W        W99415   7.700  39.025  13.962
31075W        W99416  20.161  28.107  13.418
31076W        W99417  36.936  44.862   3.188
31077W        W99418   6.696   7.200   0.411
31078W        W99419  19.580  12.137  14.331
31079W        W99420   8.729  40.979   1.871
31080W        W99421  28.570  38.400  11.517
31081W        W99422  13.330   0.335  12.079
31082W        W99423   8.214  23.713   4.232
31083W        W99424  32.396   8.204   4.242
31084W        W99425  27.151   3.425   5.292
31085W        W99426  34.476  33.455   1.878
31086W        W99427  19.197  22.701  12.505
31087W        W99428   2.926  37.910  12.506
31088W        W99429   7.280  39.321  10.579
31089W        W99430  26.637  11.348   1.349
31090W        W99431  16.582   1.273  11.981
31091W        W99432   0.853   5.860   1.742
31092W        W99433  24.033  22.152   3.763
31093W        W99434  37.537  10.829   0.780
31094W        W99435  13.761  12.700  14.994
31095W        W99436   0.261  18.622   1.380
31096W        W99437  35.567  36.396   1.840
31097W        W99438  28.572  40.036   2.758
31098W        W99439  19.701  37.930   0.897
31099W        W99440  11.354  27.000  14.986
31100W        W99441  12.838  39.418   5.204
31101W        W99442  42.371  27.126   3.264
31102W        W99443  21.177  15.135  11.490
31103W        W99444   3.899  37.529  12.493
31104W        W99445   3.949   9.873  12.825
31105W        W99446  42.999  15.168   4.290
31106W        W99447  39.975  34.886   1.279
31107W        W99448  11.263  34.563   0.853
31108W        W99449  24.981  34.109  13.472
31109W        W99450  30.132  12.284   1.268
31110W        W99451   3.389  11.167  12.441
31111W        W99452  32.088  33.533  13.983
31112W        W99453  37.462  36.996   0.291
31113W        W99454   8.253  35.512   1.338
31114W        W99455  35.434   1.362   1.758
31115W        W99456  33.430  43.929   0.927
31116W        W99457  24.496  19.690  13.042
31117W        W99458   1.425  31.426  14.401
31118W        W99459  34.439  27.072   3.174
31119W        W99460   6.811  33.578  12.523
31120W        W99461  41.495  27.486   3.148
31121W        W99462  17.184   3.885   1.430
31122W        W99463   6.790  18.701  13.855
31123W        W99464   1.872  12.701  10.619
31124W        W99465   0.877  41.308   0.952
31125W        W99466  32.977  30.458   4.800
31126W        W99467   0.953  32.537  11.521
31127W        W99468  19.677  39.064  14.954
31128W        W99469  28.454  21.132   1.930
31129W        W99470  13.791   8.286  11.885
31130W        W99471  10.661  35.458  11.940
31131W        W99472   7.693   4.784  13.061
31132W        W99473  13.638  30.010   0.852
31133W        W99474  11.776  24.065  14.798
31134W        W99475   9.714  15.772   2.839
31135W        W99476  31.477  34.911   0.353
31136W        W99477  39.345  28.042   4.834
31137W        W99478  38.937  36.007   3.818
31138W        W99479  16.182  17.582  14.413
31139W        W99480   5.723  27.074   1.734
31140W        W99481  37.000   1.876  11.044
31141W        W99482   2.307  41.466  11.014
31142W        W99483  39.025  20.133   1.860
31143W        W99484  22.059  28.532  14.795
31144W        W99485  41.957  32.946   4.295
31145W        W99486  39.964  38.018   0.248
31146W        W99487   4.269  11.207   1.244
31147W        W99488  32.142  20.582  12.446
31148W        W99489  31.070   4.789  10.556
31149W        W99490  32.138  13.624  13.316
31150W        W99491   6.707   3.745  12.010
31151W        W99492   4.277  22.102  14.333
31152W        W99493  36.929  29.655  10.643
31153W        W99494  44.906  37.079  11.435
31154W        W99495  32.462   2.904   0.382
31155W        W99496  17.213  26.959   3.667
31156W        W99497  37.411  34.112  14.954
31157W        W99498   5.297  18.768  13.492
31158W        W99499  14.274  33.482   0.426
31159W        W99500  15.592  37.368  10.005
31160W        W99501  31.525  44.408   0.400
31161W        W99502  35.035  26.698  12.951
31162W        W99503   0.803  37.967  12.451
31163W        W99504  17.111  41.321  14.915
31164W        W99505  32.971   0.248  12.478
31165W        W99506  14.253  15.278   1.698
31166W        W99507  30.000  18.665  10.421
31167W        W99508   8.763  23.540   4.656
31168W        W99509   9.334  44.307  14.298
31169W        W99510   5.845  35.920  12.393
31170W        W99511  15.178  40.846  13.942
31171W        W99512  39.000  12.618   9.996
31172W        W99513  35.998  18.071   3.805
31173W        W99514   2.908  32.898  13.838
31174W        W99515  32.063   5.908  12.861
31175W        W99516  33.962  34.869   4.132
31176W        W99517  18.113  22.546   1.793
31177W        W99518  43.890  10.351  10.909
31178W        W99519  36.470  12.258  13.948
31179W        W99520   9.172  32.138  13.332
31180W        W99521  29.580  35.985  11.902
31181W        W99522  37.339  31.152  11.908
31182W        W99523  31.918   6.331  10.639
31183W        W99524  12.801   8.706   2.690
31184W        W99525  16.138  12.725  13.808
31185W        W99526  37.959  30.003   2.891
31186W        W99527  21.574   5.872   2.693
31187W        W99528  22.526  32.129  12.568
31188W        W99529   9.870   1.921  11.456
31189W        W99530  24.671   1.241   3.266
31190W        W99531  36.920   6.888  14.416
31191W        W99532   3.434  35.075   2.278
31192W        W99533   5.697  14.791  14.413
31193W        W99534   3.950  40.376   1.744
31194W        W99535   7.795  10.811  13.982
31195W        W99536  20.168  14.725   4.681
31196W        W99537  19.653  12.336   4.225
31197W        W99538  42.866  38.047  11.975
31198W        W99539  24.676  34.511  11.920
31199W        W99540  38.525  30.946   4.200
31200W        W99541  16.797   7.269  10.483
31201W        W99542   5.858  37.336   2.205
31202W        W99543  36.897  11.841  14.322
31203W        W99544   2.429  14.830   1.438
31204W        W99545  19.196  31.579  14.462
31205W        W99546  24.518  11.189  14.810
31206W        W99547  16.761  11.719   1.800
31207W        W99548  10.369  40.809   0.734
31208W        W99549  43.008  30.993  10.542
31209W        W99550  23.650  11.344  11.578
31210W        W99551  36.038   4.826  11.528
31211W        W99552   1.781  17.796  11.942
31212W        W99553   9.327  13.621  11.378
31213W        W99554   2.342  14.809   2.735
31214W        W99555  28.120  23.177  10.434
31215W        W99556  19.739  34.053  13.442
31216W        W99557  35.867   9.818  11.531
31217W        W99558  22.745  22.062   0.905
31218W        W99559  11.660  30.971  14.916
31219W        W99560  18.656  12.676  11.561
31220W        W99561   7.400  18.580  10.615
31221W        W99562   1.277  26.558   2.369
31222W        W99563  27.544  19.610  14.313
31223W        W99564  42.884   3.316  11.061
31224W        W99565   9.678  18.597  12.393
31225W        W99566   7.229  10.786   1.876
31226W        W99567  37.464  18.662   1.899
31227W        W99568  23.526   1.860  14.443
31228W        W99569  23.200   5.842   0.421
31229W        W99570  35.400   6.318   0.835
31230W        W99571   9.846  44.339  14.331
31231W        W99572  43.513   6.706  12.001
31232W        W99573  21.757  32.494  12.437
31233W        W99574  30.633  28.545   0.864
31234W        W99575  21.721   5.893  13.014
31235W        W99576  11.251  12.271   1.375
31236W        W99577  29.105  29.936  14.351
31237W        W99578   6.310  10.331   0.460
31238W        W99579   8.711  36.990  14.306
31239W        W99580  12.731  21.125  12.362
31240W        W99581  36.377  35.489   1.333
31241W        W99582  23.672  24.628   1.893
31242W        W99583   2.859   3.442   3.185
31243W        W99584  34.961  30.616   2.221
31244W        W99585  13.605  36.495   1.792
31245W        W99586  13.788  21.251  12.967
31246W        W99587   4.795  39.013  14.373
31247W        W99588  34.567   4.421  13.477
31248W        W99589  21.701  27.621  12.563
31249W        W99590  43.349  43.366  13.371
31250W        W99591  15.098  39.528   5.619
31251W        W99592  39.026  20.040  14.968
31252W        W99593  43.899  25.214  10.547
31253W        W99594  33.455  14.130  12.047
31254W        W99595  28.180  16.107  11.420
31255W        W99596  31.572  41.414  14.294
31256W        W99597   9.194   3.745  14.761
31257W        W99598  26.153   9.659   4.753
31258W        W99599  25.562  25.988  11.065
31259W        W99600  34.511  34.085  13.798
31260W        W99601  35.101   3.404  11.987
31261W        W99602  11.293  32.415   0.304
31262W        W99603  29.169  13.793  10.527
31263W        W99604  29.628  23.621   4.816
31264W        W99605   8.867  15.096  13.310
31265W        W99606   1.946  21.235  10.138
31266W        W99607  13.197   9.670   1.340
31267W        W99608  17.778   1.388  13.409
31268W        W99609  17.638  10.816  14.333
31269W        W99610  25.577  31.939   3.167
31270W        W99611  26.476  17.293  12.085
31271W        W99612  25.012  19.062   3.345
31272W        W99613  42.416  34.560   3.288
31273W        W99614  31.906  26.583   1.697
31274W        W99615  12.663  22.127   1.270
31275W        W99616   4.391  34.928  12.047
31276W        W99617  29.482  15.681   5.314
31277W        W99618  13.215  22.163   2.228
31278W        W99619  15.608  15.665  10.903
31279W        W99620  15.690  13.189  12.036
31280W        W99621  31.064   5.342   0.458
31281W        W99622  44.455  20.642  13.467
31282W        W99623  31.476  25.544  11.042
31283W        W99624  22.167  15.167  14.770
31284W        W99625  29.155   6.699   2.222
31285W        W99626   4.219  26.659   4.314
31286W        W99627  37.924  39.026   1.400
31287W        W99628  18.589  25.582   3.807
31288W        W99629  25.982  27.689   2.407
31289W        W99630  16.173  32.021   1.841
31290W        W99631  15.262  16.811  12.429
31291W        W99632  38.010  38.024   4.805
31292W        W99633  38.939  18.274  12.919
31293W        W99634   7.330   8.298  12.411
31294W        W99635  10.220  13.297   4.205
31295W        W99636  22.042  15.097  10.891
31296W        W99637  17.635  19.192   2.407
31297W        W99638  10.270  42.331   1.805
31298W        W99639  44.304  30.123  13.385
31299W        W99640  11.159  22.060  14.275
31300W        W99641  34.083  15.759   2.816
31301W        W99642  44.780  19.199   4.238
31302W        W99643  19.072  13.294   0.407
31303W        W99644  24.007  37.015   1.307
31304W        W99645  33.996  44.947   0.948
31305W        W99646  13.606  16.200   0.266
31306W        W99647  15.295  40.513  10.447
31307W        W99648   3.940  26.567   1.260
31308W        W99649  39.974  28.087   3.262
31309W        W99650  35.862  33.469   4.146
31310W        W99651  24.218   7.741  11.539
31311W        W99652   0.894  20.058  14.899
31312W        W99653  20.768  35.017   3.651
31313W        W99654  26.586  21.523   3.195
31314W        W99655  38.426  33.487  10.943
31315W        W99656  41.829  25.653   2.192
31316W        W99657  20.274  11.866  13.939
31317W        W99658  42.282  13.725  11.937
31318W        W99659  22.558   4.817   2.285
31319W        W99660  10.204   5.359   1.393
31320W        W99661  36.880   9.208   2.354
31321W        W99662  14.215  22.010  13.808
31322W        W99663  28.073   6.332  12.846
31323W        W99664  10.736   2.261  12.847
31324W        W99665  33.497  29.172  11.909
31325W        W99666  29.103  22.709   4.164
31326W        W99667   5.340  40.882  11.963
31327W        W99668  21.592  17.633  13.057
31328W        W99669  23.215   8.890   3.708
31329W        W99670  41.298  40.945  11.998
31330W        W99671   6.357   2.250   4.796
31331W        W99672  39.031  41.445   1.326
31332W        W99673  37.373  28.023  14.787
31333W        W99674  11.336   3.400  11.024
31334W        W99675   5.231  23.693   4.129
31335W        W99676   6.846  24.226  14.409
31336W        W99677  21.042  22.109   0.901
31337W        W99678  28.571   9.191  12.500
31338W        W99679  16.592  32.474  11.550
31339W        W99680  25.548  22.155   3.288
31340W        W99681  28.176   4.341   1.429
31341W        W99682  15.598  44.284  10.913
31342W        W99683   9.688  20.549  14.400
31343W        W99684  16.763   9.652   3.806
31344W        W99685  13.836  24.531  12.020
31345W        W99686  42.461   3.793  12.995
31346W        W99687  25.966  41.793   2.246
31347W        W99688  30.934  22.230  12.010
31348W        W99689  14.834  15.809   2.192
31349W        W99690  16.705  29.923  11.506
31350W        W99691  12.162  25.558   3.794
31351W        W99692   9.373  32.004  12.052
31352W        W99693  42.371  33.921  14.909
31353W        W99694   2.724  44.364   0.937
31354W        W99695  37.400  28.048  13.454
31355W        W99696  29.037  16.165  12.498
31356W        W99697  40.870  15.583   1.910
31357W        W99698  25.678  27.558  11.005
31358W        W99699   5.766  13.761  13.968
31359W        W99700  33.618  10.351   2.846
31360W        W99701  22.067  10.704  11.879
31361W        W99702   1.825  21.080   3.260
31362W        W99703  10.834  33.915   3.682
31363W        W99704  28.606  31.089   4.146
31364W        W99705   8.221  31.140  12.396
31365W        W99706  34.456  37.026   0.318
31366W        W99707  31.016  35.101   9.924
31367W        W99708  28.550  41.007  14.954
31368W        W99709  25.557  15.685   3.174
31369W        W99710  26.610  10.828  14.792
31370W        W99711  36.979  14.243   3.643
31371W        W99712  36.954  26.201   2.797
31372W        W99713   0.887   0.856  14.302
31373W        W99714  30.108  13.824   1.714
31374W        W99715  28.006  11.265  12.541
31375W        W99716  11.836  25.210   1.888
31376W        W99717  18.599  11.240  14.394
31377W        W99718   7.275  14.178  12.894
31378W        W99719  26.191  41.036  12.949
31379W        W99720  35.065  17.119   4.307
31380W        W99721  13.305   8.323   3.321
31381W        W99722  38.932  16.645  11.372
31382W        W99723  20.603  25.132  12.825
31383W        W99724  23.692  19.280  13.400
31384W        W99725  10.807  35.017   2.276
31385W        W99726  34.385  37.910  10.566
31386W        W99727  36.440  34.503   4.282
31387W        W99728  41.038  27.473   2.730
31388W        W99729  33.002   7.692  10.423
31389W        W99730  34.496   5.397  14.860
31390W        W99731  23.060  27.644  11.612
31391W        W99732  13.221  42.430  12.383
31392W        W99733   9.773  28.524  14.843
31393W        W99734  12.249  25.613  13.948
31394W        W99735  18.643   0.492  12.899
31395W        W99736  26.059  37.952   4.187
31396W        W99737  33.402   8.728   4.773
31397W        W99738  28.079   0.963   3.239
31398W        W99739  40.492  15.745   0.416
31399W        W99740  22.222  14.165   1.322
31400W        W99741  31.105  40.049   3.855
31401W        W99742  39.427  38.380  12.077
31402W        W99743  25.214   5.300  14.904
31403W        W99744  10.202  34.483  14.301
31404W        W99745  17.779  38.556   0.835
31405W        W99746  31.126  16.075  12.348
31406W        W99747   6.361  11.624   2.832
31407W        W99748   8.320   6.401  10.619
31408W        W99749  17.199   4.891   0.880
31409W        W99750  35.866  30.596  13.873
31410W        W99751  28.107  40.348  11.990
31411W        W99752  11.129  23.227  12.407
31412W        W99753  40.972   8.790  13.543
31413W        W99754  25.218   1.759  11.054
31414W        W99755  18.591  10.836   3.264
31415W        W99756  31.528  36.865  10.414
31416W        W99757  18.087  15.257   2.864
31417W        W99758  40.493   7.326  12.090
31418W        W99759  42.415   7.191   4.293
31419W        W99760   3.219  13.829  14.822
31420W        W99761   2.772   7.856   4.142
31421W        W99762  24.514   3.810   2.860
31422W        W99763  42.413  11.321   0.834
31423W        W99764  11.817  35.545  13.521
31424W        W99765   8.381  35.875   1.270
31425W        W99766  31.084  22.045  14.390
31426W        W99767   0.974  31.105  11.382
31427W        W99768  27.518   8.207   4.600
31428W        W99769  27.640  31.462   1.784
31429W        W99770  25.494  30.959   0.858
31430W        W99771  32.920  40.486  10.615
31431W        W99772  27.050  31.602  10.915
31432W        W99773  25.199  16.634   0.747
31433W        W99774  35.096  22.696   1.795
31434W        W99775   8.767  27.036  13.375
31435W        W99776  14.724  25.015   1.310
31436W        W99777  10.771  38.837   3.799
31437W        W99778  14.137  32.931  14.807
31438W        W99779  43.467  31.467  13.382
31439W        W99780  15.303  12.824  12.575
31440W        W99781   3.837  15.785   0.301
31441W        W99782   3.728  23.164   2.337
31442W        W99783   6.862  35.364  12.066
31443W        W99784   3.857  25.642   1.768
31444W        W99785  18.688  24.041  11.009
31445W        W99786   8.806  31.595   1.364
31446W        W99787  39.409  24.654   2.269
31447W        W99788  42.475  14.818   0.258
31448W        W99789  16.181   2.255  12.994
31449W        W99790  17.115   3.326  10.104
31450W        W99791   6.210  14.600  14.931
31451W        W99792   0.765  13.743   2.241
31452W        W99793  29.972  20.632   4.797
31453W        W99794   2.728  21.688  12.078
31454W        W99795  43.876  19.671  13.467
31455W        W99796   4.232  21.075   4.171
31456W        W99797  33.121  10.638   4.247
31457W        W99798  22.107  28.680   3.783
31458W        W99799  36.930   4.276  11.552
31459W        W99800  17.621  25.122   3.275
31460W        W99801  44.902  42.361   4.668
31461W        W99802  29.110  33.495  10.625
31462W        W99803   8.383  16.625   2.226
31463W        W99804  35.545  12.822  13.946
31464W        W99805  44.400  28.603  13.522
31465W        W99806  27.013   1.436  12.949
31466W        W99807   9.151  31.041   1.782
31467W        W99808  42.975  19.056   2.831
31468W        W99809  29.004   3.336  14.856
31469W        W99810  17.588  12.747  12.982
31470W        W99811  38.063  32.603   1.322
31471W        W99812   3.368  42.465  13.376
31472W        W99813  14.287  10.228  12.838
31473W        W99814  28.544   8.688   5.269
31474W        W99815   9.685  38.985  10.489
31475W        W99816  18.281   3.383  12.951
31476W        W99817  42.397  28.109   4.216
31477W        W99818   7.735  18.278  11.374
31478W        W99819   2.881   8.748   4.158
31479W        W99820  25.050  19.604   1.331
31480W        W99821  18.247  25.097  14.876
31481W        W99822  22.708  43.280   1.812
31482W        W99823  14.317   9.679   1.451
31483W        W99824   7.836  33.473  12.960
31484W        W99825   1.952  40.958  14.990
31485W        W99826  29.612   2.748  13.031
31486W        W99827  22.713   1.942   1.713
31487W        W99828   6.229   3.931  12.568
31488W        W99829   7.700  29.002   4.293
31489W        W99830  18.178  29.557  12.965
31490W        W99831  23.692  23.222   2.397
31491W        W99832  16.219  10.359   3.671
31492W        W99833  14.227  34.431  11.382
31493W        W99834  18.724  23.077   0.432
31494W        W99835  36.442  43.363   4.127
31495W        W99836   1.750  20.144   0.760
31496W        W99837  41.959   8.853  14.280
31497W        W99838  43.963  42.849   2.265
31498W        W99839  30.105  34.423   4.723
31499W        W99840  38.952   1.857   4.303
31500W        W99841  17.683  37.467  12.445
31501W        W99842   7.333  13.186   2.241
31502W        W99843  13.832  38.850  13.452
31503W        W99844   6.918  24.668   3.707
31504W        W99845  13.286  18.079  14.498
31505W        W99846  19.588  23.569   0.407
31506W        W99847   0.259  35.369   3.691
31507W        W99848  38.512  38.479   2.825
31508W        W99849  10.330   9.263   3.664
31509W        W99850  14.770  11.298  13.935
31510W        W99851  13.176  24.655  12.462
31511W        W99852  40.531  21.110  12.963
31512W        W99853  38.399   8.763  13.477
31513W        W99854  18.737   7.895   0.798
31514W        W99855  30.446  32.889  10.995
31515W        W99856  27.969  27.122   4.278
31516W        W99857  24.001  38.019  14.763
31517W        W99858  27.563  10.694   1.350
31518W        W99859  39.019   6.404   3.685
31519W        W99860   6.735   0.798   1.224
31520W        W99861  44.435  42.471  13.791
31521W        W99862  28.031   1.421  11.404
31522W        W99863   3.824  19.621  14.509
31523W        W99864  36.968  20.246   0.908
31524W        W99865  14.153  14.314   3.232
31525W        W99866  24.147  39.983   3.858
31526W        W99867  30.515   6.731   3.807
31527W        W99868   6.423   6.694   4.717
31528W        W99869  19.540  22.194   0.469
31529W        W99870  28.038  43.772   3.354
31530W        W99871   5.384   6.734   1.258
31531W        W99872   3.888  34.427   2.242
31532W        W99873  37.447  43.828  10.050
31533W        W99874  25.096  12.656   3.157
31534W        W99875  19.227  24.621   2.702
31535W        W99876  22.021  32.610  11.068
31536W        W99877  28.085  15.111  14.350
31537W        W99878  44.795   9.830   3.730
31538W        W99879   9.851  43.453  14.784
31539W        W99880  36.421  38.963   1.782
31540W        W99881  10.348  24.547   9.948
31541W        W99882   9.727  14.139  14.471
31542W        W99883  10.289  41.006  11.533
31543W        W99884   1.928  29.970   3.850
31544W        W99885   8.683  18.236   3.764
31545W        W99886  11.860   8.794   0.917
31546W        W99887  16.645  28.552   2.275
31547W        W99888  15.674   9.380  13.802
31548W        W99889  27.617  16.303  13.864
31549W        W99890  15.754  39.023   4.772
31550W        W99891  22.731  43.427   3.700
31551W        W99892   5.795  41.421  11.504
31552W        W99893  39.833  24.091   4.685
31553W        W99894  44.466  34.534   1.265
31554W        W99895  14.659   0.381  11.580
31555W        W99896  13.701  43.771   0.884
31556W        W99897  32.061   0.403   2.205
31557W        W99898  21.736  34.938   3.321
31558W        W99899  13.706   0.474   2.307
31559W        W99900  22.564   6.870   4.813
31560W        W99901  20.757  32.497  11.607
31561W        W99902  26.178  40.981  11.122
31562W        W99903   8.163  35.977   4.309
31563W        W99904   4.368   8.692   4.830
31564W        W99905  30.605  31.644   0.298
31565W        W99906  11.179  19.742   4.306
31566W        W99907   7.208  12.665   4.229
31567W        W99908   7.691  28.479  13.859
31568W        W99909  15.242  44.004  11.023
31569W        W99910  34.117  20.664   2.229
31570W        W99911   4.771   3.219   1.355
31571W        W99912  27.990  13.109   4.315
31572W        W99913  34.412  11.650   0.756
31573W        W99914  17.620  43.941  10.618
31574W        W99915   5.414  39.524  12.397
31575W        W99916  30.628  12.660  14.472
31576W        W99917  16.307   3.805   2.243
31577W        W99918  29.630   0.337  13.797
31578W        W99919  17.582  42.880   3.708
31579W        W99920  39.885   0.372  12.829
31580W        W99921  42.400  23.126  12.074
31581W        W99922  15.167  29.472  14.352
31582W        W99923  11.736  41.371   1.406
31583W        W99924  23.574  19.070  12.446
31584W        W99925  17.642  40.481  10.941
31585W        W99926  15.227  39.465  14.401
31586W        W99927  29.943  25.165  11.427
31587W        W99928  27.586  15.095   1.721
31588W        W99929  33.619   2.365   1.903
31589W        W99930  31.442  11.623   4.723
31590W        W99931  10.226  24.595   1.840
31591W        W99932  35.051  37.577   2.818
31592W        W99933  23.076   4.389  14.904
31593W        W99934   8.349  26.033   1.370
31594W        W99935  17.100  21.251  13.374
31595W        W99936  13.744  18.602  13.530
31596W        W99937  24.182   3.446   1.751
31597W        W99938  16.599  36.931  14.813
31598W        W99939   9.863   3.395   0.468
31599W        W99940  11.815  25.150  12.864
31600W        W99941  10.180  31.579   0.303
31601W        W99942  34.447  16.128   1.753
31602W        W99943   1.483  35.546  12.509
31603W        W99944  35.898  13.687  13.979
31604W        W99945  14.293  11.749   3.221
31605W        W99946  22.632  26.601  10.610
31606W        W99947  10.350  36.072   4.229
31607W        W99948  26.633  26.536   5.650
31608W        W99949  35.937  18.706  10.520
31609W        W99950  28.018  40.486  14.002
31610W        W99951   3.316   2.447  11.599
31611W        W99952  42.901  26.154  13.371
31612W        W99953   9.686   7.673   2.826
31613W        W99954  19.718  27.003   2.712
31614W        W99955  44.499  21.170   1.325
31615W        W99956   7.283  40.403   1.921
31616W        W99957  35.515  24.159  13.468
31617W        W99958  38.841  21.032   0.277
31618W        W99959  40.052  10.710  14.006
31619W        W99960  42.008  29.603  13.503
31620W        W99961  16.632   5.212  11.036
31621W        W99962  10.657   3.932   1.765
31622W        W99963  25.652  36.360   1.695
31623W        W99964   9.356  35.597  12.914
31624W        W99965   2.817   2.791   1.413
31625W        W99966  17.556  26.524  14.976
31626W        W99967  31.921   0.457  14.429
31627W        W99968  38.990  36.354  12.370
31628W        W99969  22.034  21.096   3.333
31629W        W99970  44.998  20.073  13.402
31630W        W99971  43.363   7.876   0.361
31631W        W99972  25.668   9.281   4.340
31632W        W99973  40.353  40.371   2.253
31633W        W99974  32.111  25.605  12.496
31634W        W99975  24.231   0.435  14.831
31635W        W99976   5.244  13.716   0.336
31636W        W99977  35.047  20.246   3.384
31637W        W99978  32.887  40.975   4.140
31638W        W99979  41.865  30.957   3.683
31639W        W99980  34.593   7.317  12.346
31640W        W99981  16.201  31.544  14.992
31641W        W99982  16.291  28.151   9.974
31642W        W99983  44.898  20.749   4.230
31643W        W99984  13.322   0.937   4.155
31644W        W99985  37.557  36.914  11.486
31645W        W99986  25.215   9.649  12.450
31646W        W99987   2.229   8.802   4.703
31647W        W99988  38.871  10.873   0.392
31648W        W99989  25.474  39.051   2.849
31649W        W99990  31.589  17.735   0.865
31650W        W99991  32.557  26.579  14.779
31651W        W99992  43.880  27.117   4.598
31652W        W99993  33.969  20.699   3.690
31653W        W99994  33.446   2.259  14.390
31654W        W99995  38.872   7.694  11.881
31655W        W99996  38.542  30.565   0.750
31656W        W99997  40.949  11.662   0.869
31657W        W99998   2.347  27.048   1.374
31658W        W99999  44.328   7.807  11.463
31659W        W    0   1.336  39.994   4.218
31660W        W    1  25.690  21.668  12.375
31661W        W    2   6.849  36.501  12.952
31662W        W    3  16.750   8.794   2.827
31663W        W    4   9.152  42.904  13.386
31664W        W    5  19.260  22.038  12.488
31665W        W    6  43.272  22.515   9.959
31666W        W    7  44.344  29.625  14.019
31667W        W    8  22.041  30.098   3.374
31668W        W    9  35.991  32.081  13.454
31669W        W   10  10.179  44.310   1.843
31670W        W   11   5.793   5.849  12.058
31671W        W   12   1.274  43.484   0.951
31672W        W   13  44.956  17.795   5.120
31673W        W   14  22.589  44.341   0.244
31674W        W   15  28.665   4.294  12.979
31675W        W   16  32.436  19.193   0.384
31676W        W   17  44.946  29.975  14.300
31677W        W   18   6.340  41.460   1.374
31678W        W   19  33.533  17.236   3.795
31679W        W   20   0.788  37.361  14.858
31680W        W   21   6.912  10.720  10.610
31681W        W   22  42.820  44.498   4.709
31682W        W   23  12.344  15.686  11.879
31683W        W   24  40.020  34.520  12.043
31684W        W   25  18.721  13.629   0.483
31685W        W   26  23.562  21.621   1.858
31686W        W   27   3.803  18.093   9.631
31687W        W   28   8.223  17.719   1.865
31688W        W   29  16.215  41.296   0.812
31689W        W   30  38.476  23.077   0.883
31690W        W   31   8.780  20.214  10.892
31691W        W   32  15.621  42.965   0.315
31692W        W   33   6.885  30.568  10.949
31693W        W   34  21.231   1.238   1.843
31694W        W   35  34.000  15.804   0.334
31695W        W   36   7.379  11.762  13.345
31696W        W   37  25.965  42.911  12.413
31697W        W   38  42.790  18.554   1.849
31698W        W   39  33.034  43.914   3.668
31699W        W   40  43.417   0.922   0.784
31700W        W   41  44.477  24.136  13.057
31701W        W   42  36.841  30.137  12.853
31702W        W   43   5.836  25.559   4.761
31703W        W   44   2.298   5.821   0.292
31704W        W   45  14.105  16.581  14.890
31705W        W   46  29.075  20.267   0.896
31706W        W   47  33.591   2.300   0.963
31707W        W   48  19.102   5.243   3.239
31708W        W   49  26.101  24.188   2.862
31709W        W   50   5.755  18.190  10.508
31710W        W   51  11.369  37.414   2.826
31711W        W   52   2.253  37.484   2.403
31712W        W   53  39.969  16.656  13.385
31713W        W   54  24.688  15.727  14.511
31714W        W   55   0.413  20.586  13.025
31715W        W   56   5.868   6.761   2.357
31716W        W   57  15.628  35.487   4.333
31717W        W   58  41.525  26.639   2.290
31718W        W   59  16.274  31.115  13.023
31719W        W   60  15.269   8.352   1.847
31720W        W   61  17.693   5.377   4.801
31721W        W   62  41.993  24.531  14.443
31722W        W   63  32.987   8.245   3.323
31723W        W   64   0.329   1.846  12.096
31724W        W   65  31.960   2.867   1.764
31725W        W   66  29.093  42.337  14.760
31726W        W   67  44.353  12.187  11.468
31727W        W   68  39.534  26.482   2.669
31728W        W   69  39.881  15.594  12.887
31729W        W   70  14.104  42.893   3.868
31730W        W   71  12.264  13.237  13.534
31731W        W   72  19.239  26.668  12.423
31732W        W   73  42.843   0.329   0.727
31733W        W   74  33.445   4.843   3.719
31734W        W   75  26.985  31.645   2.357
31735W        W   76   5.715  29.667   4.286
31736W        W   77   3.354  37.389  11.948
31737W        W   78  11.320  12.203   3.173
31738W        W   79  19.739   9.386   5.081
31739W        W   80   1.772  16.186   4.199
31740W        W   81  13.192   3.303   4.194
31741W        W   82  28.509  34.410  12.442
31742W        W   83  14.244  27.596  12.834
31743W        W   84  12.316  11.828   3.357
31744W        W   85  44.980  22.676   0.841
31745W        W   86  34.510   2.778  10.629
31746W        W   87  20.045  16.179  14.981
31747W        W   88  35.510  27.176  12.901
31748W        W   89  40.830   6.912   2.682
31749W        W   90  37.922  39.372  13.418
31750W        W   91  44.877  35.012   2.663
31751W        W   92  12.686  25.578  10.547
31752W        W   93  13.105  14.754  12.490
31753W        W   94   4.210   2.298  11.108
31754W        W   95   7.881  19.638  10.113
31755W        W   96  22.596  13.126  14.988
31756W        W   97  16.761  25.105   4.690
31757W        W   98   6.292  44.753   1.815
31758W        W   99   4.771   8.832  12.960
31759W        W  100  18.744  14.761  12.008
31760W        W  101  19.163   3.910  12.529
31761W        W  102  19.069  11.758   3.304
31762W        W  103  36.573  15.241  14.295
31763W        W  104  24.181   7.695  11.991
31764W        W  105  17.224  20.638   5.569
31765W        W  106  24.666   1.331  14.896
31766W        W  107  10.762  30.626  13.504
31767W        W  108   4.851  29.611   2.839
31768W        W  109  22.153  41.482   2.853
31769W        W  110  39.418  28.935  11.117
31770W        W  111   8.820  31.050   0.761
31771W        W  112  24.514  38.327   0.266
31772W        W  113  44.420  34.538   3.236
31773W        W  114  18.287  10.688  12.837
31774W        W  115  41.849   4.259  10.475
31775W        W  116  29.158   0.412  11.972
31776W        W  117  31.520  32.005  12.962
31777W        W  118   4.793  32.530   2.777
31778W        W  119  15.643  21.208  11.978
31779W        W  120  10.275  37.423   2.221
31780W        W  121  43.352  35.946   2.708
31781W        W  122  29.540   9.649  13.390
31782W        W  123   6.716  12.277  13.913
31783W        W  124   3.298  22.678   2.230
31784W        W  125  19.665  17.233   0.819
31785W        W  126   4.347  42.831   1.770
31786W        W  127  28.561  44.895   2.258
31787W        W  128  22.098  23.500   3.814
31788W        W  129  39.042  14.166   0.354
31789W        W  130  13.213  19.667   4.764
31790W        W  131  39.049  43.358   3.244
31791W        W  132   2.840  38.867   1.407
31792W        W  133  36.992  14.145   1.441
31793W        W  134  17.685  31.577  14.340
31794W        W  135   4.848  11.269   4.187
31795W        W  136   4.853  24.663  12.522
31796W        W  137  34.453  36.423  14.960
31797W        W  138  18.170   1.938  12.899
31798W        W  139   8.716  37.995   0.925
31799W        W  140   7.190  10.814   0.315
31800W        W  141  28.979  28.999  13.982
31801W        W  142  38.502  29.605  12.484
31802W        W  143  35.888  37.379   3.790
31803W        W  144   7.318  19.700  13.497
31804W        W  145  38.962   6.872  10.412
31805W        W  146  14.789  28.620   2.681
31806W        W  147  21.685  17.227  12.942
31807W        W  148  38.011  39.482  11.442
31808W        W  149  26.053   9.661  12.083
31809W        W  150  21.752  38.941   0.734
31810W        W  151  32.558  18.644   1.323
31811W        W  152  27.680  33.957   1.274
31812W        W  153  40.032  15.636   0.299
31813W        W  154  35.592  17.771  14.779
31814W        W  155  21.227  31.962   0.927
31815W        W  156  43.277  37.993   4.304
31816W        W  157   8.656   3.941  10.991
31817W        W  158  27.646  19.691   5.119
31818W        W  159  18.757  37.848   3.303
31819W        W  160  19.150  40.331   3.360
31820W        W  161  39.375  19.599   1.823
31821W        W  162  31.502  38.392   1.320
31822W        W  163  18.588   8.295  13.848
31823W        W  164  17.665   9.748  12.885
31824W        W  165  43.496   0.286  13.021
31825W        W  166   0.831  36.965   0.278
31826W        W  167  36.863  44.493  13.014
31827W        W  168  41.909  38.393  10.993
31828W        W  169  13.808  14.280  13.932
31829W        W  170  12.168  16.658  12.020
31830W        W  171   1.301  25.081   4.331
31831W        W  172   0.877  24.105   2.177
31832W        W  173  12.272  30.591   4.265
31833W        W  174  13.244  42.847   0.931
31834W        W  175  11.286  12.773  12.894
31835W        W  176  22.209  38.567   1.830
31836W        W  177  22.526  28.585  11.959
31837W        W  178  27.161  11.325   3.773
31838W        W  179  26.519  15.291   3.784
31839W        W  180  14.622  10.780  12.995
31840W        W  181   8.282  17.584   3.245
31841W        W  182  42.869  17.120   0.359
31842W        W  183  19.180  12.265  14.960
31843W        W  184  35.099  22.234   1.284
31844W        W  185  13.197   0.975  14.805
31845W        W  186  12.264  44.413   0.276
31846W        W  187  18.669  33.462  12.875
31847W        W  188  43.007   5.711   3.684
31848W        W  189  29.430   1.951  14.337
31849W        W  190  23.006  34.450  13.941
31850W        W  191  30.912  39.931   0.463
31851W        W  192  36.501   2.235   2.200
31852W        W  193  14.607   6.831  13.457
31853W        W  194   6.731  22.242   4.137
31854W        W  195  19.127  22.010  10.546
31855W        W  196   9.317  11.862  14.488
31856W        W  197   9.873   0.253  10.973
31857W        W  198  28.008  12.204  13.937
31858W        W  199   8.240  18.255  10.499
31859W        W  200  31.627  18.074   3.823
31860W        W  201  13.260  25.119   3.781
31861W        W  202  18.661   2.428   1.792
31862W        W  203  12.188  32.074   1.924
31863W        W  204  12.128  14.702  14.952
31864W        W  205   8.725  14.802   2.260
31865W        W  206  12.186  10.779  10.623
31866W        W  207  10.665  40.312   0.783
31867W        W  208   5.365  25.118  12.914
31868W        W  209  14.605  17.105  13.817
31869W        W  210  37.943  40.524  13.048
31870W        W  211  19.153  27.539  12.080
31871W        W  212  16.708  24.508  11.916
31872W        W  213  42.479   4.318   4.257
31873W        W  214  39.959   1.433  11.887
31874W        W  215   9.696   1.356  12.979
31875W        W  216  16.106  18.638  11.915
31876W        W  217  40.819   9.811   2.894
31877W        W  218  31.083  40.930  12.006
31878W        W  219  15.229  18.609   1.224
31879W        W  220  39.961  25.115   3.283
31880W        W  221  37.833  35.370   2.382
31881W        W  222  10.681   7.703   2.787
31882W        W  223  41.437  27.184   0.246
31883W        W  224  44.426  22.543  13.387
31884W        W  225   8.695  23.057   2.265
31885W        W  226  31.535   4.939   4.683
31886W        W  227  44.869  40.847  10.913
31887W        W  228  36.951  42.403   3.240
31888W        W  229  37.887  30.130  10.988
31889W        W  230  13.731  27.544  13.831
31890W        W  231  15.746   1.887  12.067
31891W        W  232  32.454  31.583  14.878
31892W        W  233  37.085  30.438   4.669
31893W        W  234  11.833  13.293   3.843
31894W        W  235   2.372  13.736   1.800
31895W        W  236  36.058  29.018  11.103
31896W        W  237  21.087  21.689  12.516
31897W        W  238  22.553  35.989   3.779
31898W        W  239  25.013  16.160   9.612
31899W        W  240  32.489  36.543  14.881
31900W        W  241  37.082  33.964   2.348
31901W        W  242  24.608  23.166  11.881
31902W        W  243   2.844  23.010   4.654
31903W        W  244  30.029  28.016   0.936
31904W        W  245  43.916  22.101   0.349
31905W        W  246  26.991   7.751   3.857
31906W        W  247  30.076  39.880   3.187
31907W        W  248  18.194   5.720   3.350
31908W        W  249  23.031  24.613  14.918
31909W        W  250  26.649  11.747  10.930
31910W        W  251  43.872  15.611   4.276
31911W        W  252  18.132  42.835  11.044
31912W        W  253   1.767  44.365   0.309
31913W        W  254   7.296  35.567  12.570
31914W        W  255  26.685  21.710  12.940
31915W        W  256   2.421  35.904   4.704
31916W        W  257  42.920  11.678  14.849
31917W        W  258  26.590  19.121  14.947
31918W        W  259   2.722  29.059  14.902
31919W        W  260  22.691  35.902  12.559
31920W        W  261  14.108   8.368   1.715
31921W        W  262  38.498   3.766   1.319
31922W        W  263   0.757   2.415   0.772
31923W        W  264  21.093   3.461  13.056
31924W        W  265  34.508  42.510  14.845
31925W        W  266  13.758  17.562  13.307
31926W        W  267   5.761  19.096   4.272
31927W        W  268   5.739  41.306  10.461
31928W        W  269  29.464  15.753   3.150
31929W        W  270  41.989  12.682   1.273
31930W        W  271  37.858  25.183   4.695
31931W        W  272  43.839   2.448  12.918
31932W        W  273  13.679  41.363  14.385
31933W        W  274   1.394  32.902   2.862
31934W        W  275  34.493  43.790   4.598
31935W        W  276  16.142  31.535  13.911
31936W        W  277   1.253  26.508  11.004
31937W        W  278  44.805   1.420  10.644
31938W        W  279  42.851   2.791   0.419
31939W        W  280  27.668  29.048  13.419
31940W        W  281   3.926  17.081   5.256
31941W        W  282  19.196  35.034   2.400
31942W        W  283  24.492  40.805   3.700
31943W        W  284  36.485  25.616   1.450
31944W        W  285  31.489  31.610   4.249
31945W        W  286  35.416   1.414   4.788
31946W        W  287   5.437   8.765  13.911
31947W        W  288  22.192  32.602   3.743
31948W        W  289  42.881   7.851  11.985
31949W        W  290  11.341   0.838  12.933
31950W        W  291  36.058  32.438   2.851
31951W        W  292   8.335   5.803   3.801
31952W        W  293   2.787  19.594  13.325
31953W        W  294   5.743  19.150  12.907
31954W        W  295  41.871  10.224   2.662
31955W        W  296  21.570   4.253   4.299
31956W        W  297  11.283  32.055  12.535
31957W        W  298  32.970  22.024  13.514
31958W        W  299  31.558   5.713   0.924
31959W        W  300  31.460  12.765  13.046
31960W        W  301  38.465  22.718   1.704
31961W        W  302  44.444   6.683  12.363
31962W        W  303  17.766   3.316  12.340
31963W        W  304  24.215  29.133  13.828
31964W        W  305  23.235   8.402  11.946
31965W        W  306  15.164  22.155   2.279
31966W        W  307   1.826  13.805   3.850
31967W        W  308  38.553  32.984  10.987
31968W        W  309  35.967  28.603  11.885
31969W        W  310   7.912  41.387   4.225
31970W        W  311  18.598  10.222   0.390
31971W        W  312  32.970  29.093   2.842
31972W        W  313  28.672   5.379   1.401
31973W        W  314  27.098  10.708   4.128
31974W        W  315  21.630  39.038  11.997
31975W        W  316  35.023  10.384   0.883
31976W        W  317  12.690  27.629   3.354
31977W        W  318   6.783  17.197   4.699
31978W        W  319  39.886  19.750  13.539
31979W        W  320   9.699  20.070  12.519
31980W        W  321  27.593   8.887  10.478
31981W        W  322  21.203  14.131   5.256
31982W        W  323  25.537   8.295  11.534
31983W        W  324  30.627  30.562  10.592
31984W        W  325   6.840  12.347  14.411
31985W        W  326   3.296  28.468  13.355
31986W        W  327  27.502  24.527   3.191
31987W        W  328   1.362  29.939   0.367
31988W        W  329  38.411   8.887   4.735
31989W        W  330  25.656  36.049   3.843
31990W        W  331  17.301   5.695   4.117
31991W        W  332  27.138  17.557  14.361
31992W        W  333   9.792  34.518   3.818
31993W        W  334   0.331  42.474   4.702
31994W        W  335  33.082   7.239   0.390
31995W        W  336  35.371  25.647  11.063
31996W        W  337  44.902   4.772   3.643
31997W        W  338  31.998  44.761   2.188
31998W        W  339  24.119   8.208   1.716
31999W        W  340  35.034  25.107  12.449
32000W        W  341  36.532  22.574  13.062
32001W        W  342  44.903  15.299   0.956
32002W        W  343   1.864   1.443   0.782
32003W        W  344  15.733  43.408  11.082
32004W        W  345  11.796  37.446   0.811
32005W        W  346  31.968  35.008   0.283
32006W        W  347   5.809  43.388  13.837
32007W        W  348  13.343  32.014  12.989
32008W        W  349  13.114  39.880  13.868
32009W        W  350  31.569  13.269  13.033
32010W        W  351   8.391   8.171   0.340
32011W        W  352  33.892  34.412   2.701
32012W        W  353  33.910  22.612  12.380
32013W        W  354  33.391  15.259   1.785
32014W        W  355   9.233  19.731   3.777
32015W        W  356  38.464  20.215   1.256
32016W        W  357  39.490   5.410   0.384
32017W        W  358  11.196   3.722  13.988
32018W        W  359  11.757  28.472   0.286
32019W        W  360  37.900  11.220  14.866
32020W        W  361  17.167  18.736  14.475
32021W        W  362  15.092   2.459  14.452
32022W        W  363  39.013  34.579  12.880
32023W        W  364   0.368  41.893   1.309
32024W        W  365  11.816  14.220  13.014
32025W        W  366  42.399   9.708   0.462
32026W        W  367  42.330   4.217   0.933
32027W        W  368  13.330   8.762   1.869
32028W        W  369  11.264  11.225   0.965
32029W        W  370   9.260  10.870   2.727
32030W        W  371  19.575  41.349  10.466
32031W        W  372  39.356  40.944   4.291
32032W        W  373  18.114  16.196  14.375
32033W        W  374   4.257  41.488   4.740
32034W        W  375  30.083  24.688   2.387
32035W        W  376  44.860   6.822   2.697
32036W        W  377   7.182  34.380   2.853
32037W        W  378  12.783  15.239  14.348
32038W        W  379  40.963  39.880  12.991
32039W        W  380  38.905  15.242  12.371
32040W        W  381  20.074   8.398   0.344
32041W        W  382  33.079  24.603   3.193
32042W        W  383  15.686  14.620  11.401
32043W        W  384  38.501  19.042   2.869
32044W        W  385  44.479  25.663  10.489
32045W        W  386  32.468  11.240   4.658
32046W        W  387  29.000  23.533   2.726
32047W        W  388  44.403  40.952   0.313
32048W        W  389   6.226   0.955  11.424
32049W        W  390   4.381  17.595   2.679
32050W        W  391  27.004  26.122  14.415
32051W        W  392  40.438   9.801  10.529
32052W        W  393  18.700   4.872  13.465
32053W        W  394  33.096  33.506  13.889
32054W        W  395  35.410  33.073   1.894
32055W        W  396  42.377   0.876  10.463
32056W        W  397  11.291  24.008   2.851
32057W        W  398   7.387  21.691   0.865
32058W        W  399  10.861  27.580   3.239
32059W        W  400  13.668   7.219  11.580
32060W        W  401   5.723   4.240  11.059
32061W        W  402   1.822  13.199   1.768
32062W        W  403  41.891  36.094   2.895
32063W        W  404   1.838  29.494  12.908
32064W        W  405  26.141  30.957  10.924
32065W        W  406  30.129  43.420  11.118
32066W        W  407  11.658   9.213   4.693
32067W        W  408  12.730   8.161   4.339
32068W        W  409   3.931   6.767   3.824
32069W        W  410  32.900  15.211  14.495
32070W        W  411  12.830   0.398  13.954
32071W        W  412  18.104  10.878   0.420
32072W        W  413  44.870   8.274   0.754
32073W        W  414  22.020  11.712   1.717
32074W        W  415   4.399  36.404   4.296
32075W        W  416  23.633  32.888   0.321
32076W        W  417  24.100  43.413  10.909
32077W        W  418  20.532  29.573   0.281
32078W        W  419  23.577   6.867   3.234
32079W        W  420  23.536  35.947   3.279
32080W        W  421  31.123  37.837   4.792
32081W        W  422  20.067  11.365  12.875
32082W        W  423  16.633   4.720   0.346
32083W        W  424   0.447   4.272   2.221
32084W        W  425  23.215  13.661   2.225
32085W        W  426  17.111  18.680  11.933
32086W        W  427   0.416  39.881   2.880
32087W        W  428  13.711  36.894  10.530
32088W        W  429  24.597  32.049  14.030
32089W        W  430  15.672  18.616   3.802
32090W        W  431  36.096  22.033   3.192
32091W        W  432   7.885  32.568  13.978
32092W        W  433  31.094  19.734  11.448
32093W        W  434  43.822  40.850  11.493
32094W        W  435  36.511  23.165  13.045
32095W        W  436   2.312  36.546  11.951
32096W        W  437   2.248   9.750  11.429
32097W        W  438  28.968  25.127   3.800
32098W        W  439  36.980  38.407   4.699
32099W        W  440  22.537  32.394   0.787
32100W        W  441  11.713  10.249  11.499
32101W        W  442  24.224  17.228  13.327
32102W        W  443  31.987  26.634  12.032
32103W        W  444  12.627   5.809  12.972
32104W        W  445  16.181  29.092   3.170
32105W        W  446  20.576  29.999  12.985
32106W        W  447  10.680   9.260   9.534
32107W        W  448  32.464  39.540   3.798
32108W        W  449  44.296   9.299   2.324
32109W        W  450  28.463  35.493  14.357
32110W        W  451  16.760  38.347   2.334
32111W        W  452  27.151  17.104   2.875
32112W        W  453  43.458   2.420   1.332
32113W        W  454   0.840  26.677  14.967
32114W        W  455  38.444  20.541   1.787
32115W        W  456  25.470  11.365   1.739
32116W        W  457   6.219  33.586  12.826
32117W        W  458   1.451   3.814  13.396
32118W        W  459  43.482  33.887  10.919
32119W        W  460  28.155  13.256  12.851
32120W        W  461  15.108   8.316  12.423
32121W        W  462   7.204  11.242  12.972
32122W        W  463   3.885   7.811  11.053
32123W        W  464  44.008  43.475   4.349
32124W        W  465  34.423  16.644  13.352
32125W        W  466  14.211  40.866   3.815
32126W        W  467   6.311  13.135  12.089
32127W        W  468  27.522  26.053   4.157
32128W        W  469  37.412  44.453   0.904
32129W        W  470  34.446  33.550   4.776
32130W        W  471  23.984   4.210   4.807
32131W        W  472   0.340  26.568  11.973
32132W        W  473  11.653  44.424   2.876
32133W        W  474  24.144  25.469   0.324
32134W        W  475   1.810  39.474  12.094
32135W        W  476  34.984  18.682  14.028
32136W        W  477  38.330  13.656  11.540
32137W        W  478  44.779  26.495  11.992
32138W        W  479  44.960  26.204   0.748
32139W        W  480  43.867  14.216  13.918
32140W        W  481  44.268   0.987  14.946
32141W        W  482  23.178   5.820   4.144
32142W        W  483  38.455   4.881  10.595
32143W        W  484  27.578  37.873   2.225
32144W        W  485  14.665  28.539   3.351
32145W        W  486   2.788  42.433   0.382
32146W        W  487  28.991  34.373   1.863
32147W        W  488   0.409   1.314  11.373
32148W        W  489  14.265  44.340   5.090
32149W        W  490  16.716  38.069  12.881
32150W        W  491   9.818   1.802  14.370
32151W        W  492  37.463  21.114  14.001
32152W        W  493  13.715  23.497   0.381
32153W        W  494  18.571   7.246   0.738
32154W        W  495  35.919   1.434  10.435
32155W        W  496   6.205  15.807  12.902
32156W        W  497  28.170  37.930   2.849
32157W        W  498   3.732  24.686  13.371
32158W        W  499   2.806  16.233   3.820
32159W        W  500  19.180  37.923  12.074
32160W        W  501   7.371  26.074  10.475
32161W        W  502  18.559  26.127   4.152
32162W        W  503  32.547  32.998  14.930
32163W        W  504  24.683  43.412  12.530
32164W        W  505  24.585   9.195  12.910
32165W        W  506  14.127   1.321  12.461
32166W        W  507  12.812  24.638  10.429
32167W        W  508  16.198  22.075   5.211
32168W        W  509  17.638  13.757   1.412
32169W        W  510  40.926  32.983   1.722
32170W        W  511  26.991   9.720  13.365
32171W        W  512  39.044  26.025  11.389
32172W        W  513  21.069  39.990   0.440
32173W        W  514   5.272   0.451  12.443
32174W        W  515  13.701  31.954  13.327
32175W        W  516  38.367  13.798   1.785
32176W        W  517  16.158  17.708   4.760
32177W        W  518  32.942  13.672   1.347
32178W        W  519  12.321  16.691   1.311
32179W        W  520  10.725  24.572  12.471
32180W        W  521  32.423  28.171  10.410
32181W        W  522  16.784  22.151  10.509
32182W        W  523  42.960  18.155   3.179
32183W        W  524  38.939  41.922  14.985
32184W        W  525  42.467  33.394   1.728
32185W        W  526  23.531  18.182  10.158
32186W        W  527  23.003  18.659  11.466
32187W        W  528  42.030  33.454   0.400
32188W        W  529  29.528  44.396  11.017
32189W        W  530   5.882   2.726  10.957
32190W        W  531  35.526  12.679  11.960
32191W        W  532  30.456  40.944   4.349
32192W        W  533   0.462  35.901  13.438
32193W        W  534  14.208  40.342   0.875
32194W        W  535  15.623  39.007   1.378
32195W        W  536   9.232  42.363   3.636
32196W        W  537   2.398  24.486  13.405
32197W        W  538  11.858  13.665   2.767
32198W        W  539  11.288   3.888   4.195
32199W        W  540  32.412  26.648  13.983
32200W        W  541  18.236  13.707  13.037
32201W        W  542  28.100  22.124  11.111
32202W        W  543  39.902   4.795   4.191
32203W        W  544  30.059  19.622   4.622
32204W        W  545  23.599  15.235   4.731
32205W        W  546  12.294   9.699  10.040
32206W        W  547  41.868  12.854   3.788
32207W        W  548  18.777   7.237  11.082
32208W        W  549  22.573  29.163  10.993
32209W        W  550  36.951  25.669   4.180
32210W        W  551  11.672   5.837   4.261
32211W        W  552  13.699  44.335   0.947
32212W        W  553   2.226  19.583   1.851
32213W        W  554  28.019  13.683   4.130
32214W        W  555  28.154  12.195   2.200
32215W        W  556   1.285  20.261  12.959
32216W        W  557  13.303  20.613   1.245
32217W        W  558  40.842   7.825  11.393
32218W        W  559  15.632  34.984   4.191
32219W        W  560   0.927  44.800  10.971
32220W        W  561  10.202  26.159  13.962
32221W        W  562  12.629  20.545  14.949
32222W        W  563  38.998  41.818  14.322
32223W        W  564   0.812   6.877  13.548
32224W        W  565   7.833   5.869  13.852
32225W        W  566   5.721  26.203  11.463
32226W        W  567  42.926   7.681  14.016
32227W        W  568  27.459  35.461  13.354
32228W        W  569   8.233  34.377  14.806
32229W        W  570  21.580  11.303  13.830
32230W        W  571   0.434  25.550   1.435
32231W        W  572  11.252  13.690   1.428
32232W        W  573  13.190  26.052   3.151
32233W        W  574  28.096  27.999   1.418
32234W        W  575  42.783  21.071  11.011
32235W        W  576   3.225  25.008   2.312
32236W        W  577  42.822  27.628  11.943
32237W        W  578  22.556  41.384  12.973
32238W        W  579  27.576  29.111   3.659
32239W        W  580  13.119  26.960  14.321
32240W        W  581  37.359  16.108   4.673
32241W        W  582  16.660  10.696  12.519
32242W        W  583  15.245  36.937   2.229
32243W        W  584  43.347  21.168  13.905
32244W        W  585  18.633  43.774  12.409
32245W        W  586   6.201   5.196  11.600
32246W        W  587  15.623   6.199   4.127
32247W        W  588  17.771  18.595   1.318
32248W        W  589  11.814  21.516   4.284
32249W        W  590   5.214  34.424   3.635
32250W        W  591  10.859  18.233   1.364
32251W        W  592  37.069  31.476   0.916
32252W        W  593   2.769   2.427   3.804
32253W        W  594  13.344  29.998  14.466
32254W        W  595  32.960  18.592  12.366
32255W        W  596  14.315   9.313   4.776
32256W        W  597  19.702   0.824   4.127
32257W        W  598  36.515  17.099  12.535
32258W        W  599  35.596  29.626  11.911
32259W        W  600  21.193  29.064  11.380
32260W        W  601  44.369  37.400   4.324
32261W        W  602   8.888  35.370  12.512
32262W        W  603  11.190  31.919   1.761
32263W        W  604   0.804  14.111  12.834
32264W        W  605   4.804  26.689  12.093
32265W        W  606  16.771   0.851  14.940
32266W        W  607  25.612  40.920  13.900
32267W        W  608  28.499  37.066   1.252
32268W        W  609  41.538  28.643  13.854
32269W        W  610  26.687  19.152   1.845
32270W        W  611  19.614  33.879   1.706
32271W        W  612   1.930  28.951   2.221
32272W        W  613   9.766  29.515   4.231
32273W        W  614  42.366  34.060  12.956
32274W        W  615  18.229  14.829   1.293
32275W        W  616  24.120  12.850  11.037
32276W        W  617  37.873   2.424  13.023
32277W        W  618  36.425  25.045  10.588
32278W        W  619  18.613  41.970   0.291
32279W        W  620  44.911  34.586   2.783
32280W        W  621  42.935  24.722  11.892
32281W        W  622   1.911  19.604  14.811
32282W        W  623  42.371   7.786   3.728
32283W        W  624  43.460  17.243  12.500
32284W        W  625   9.175  43.508   4.736
32285W        W  626   2.421  32.128  12.482
32286W        W  627  19.561   6.347  11.550
32287W        W  628  23.132  32.521  14.351
32288W        W  629  35.495  21.024   4.723
32289W        W  630  31.630  43.320  11.461
32290W        W  631  37.946   4.321  12.462
32291W        W  632  18.241   9.744   4.606
32292W        W  633  15.309   7.276   2.881
32293W        W  634  11.849  19.061   1.299
32294W        W  635  20.210  16.711  10.429
32295W        W  636   4.337   8.403  14.942
32296W        W  637  36.381  13.742   4.181
32297W        W  638  27.632   2.881   2.863
32298W        W  639   8.766  19.159  10.594
32299W        W  640  42.924  19.202  11.098
32300W        W  641  30.628  24.482   0.318
32301W        W  642  36.043  39.439   1.899
32302W        W  643  44.470  23.551   2.859
32303W        W  644   1.916   3.352  14.774
32304W        W  645   8.676   3.925  14.441
32305W        W  646  10.142  27.469  13.338
32306W        W  647  27.691  18.189  11.538
32307W        W  648  22.525  24.220   0.449
32308W        W  649  43.837  24.052  12.373
32309W        W  650  23.228   1.837   2.862
32310W        W  651  13.177  25.639  12.043
32311W        W  652   9.669  17.604  13.469
32312W        W  653   0.976  16.282  13.825
32313W        W  654  27.140  13.642   0.276
32314W        W  655  11.131  23.013   3.330
32315W        W  656  39.363   6.303  13.008
32316W        W  657   8.727   0.900   3.791
32317W        W  658  41.790  33.550   5.145
32318W        W  659  22.061  21.252   2.675
32319W        W  660   3.401   1.923   2.343
32320W        W  661  19.175  37.500   4.149
32321W        W  662   3.366  37.010  14.840
32322W        W  663  35.582  19.534   0.320
32323W        W  664  28.507   8.331  12.069
32324W        W  665   6.696  11.307  14.274
32325W        W  666  27.635  40.035   3.324
32326W        W  667   3.862  35.855   1.424
32327W        W  668   7.712  36.037  12.553
32328W        W  669   0.450  19.679  12.937
32329W        W  670  19.705  35.595  14.863
32330W        W  671   1.433  15.161   0.431
32331W        W  672  13.844  28.516   2.835
32332W        W  673  10.858  44.799   4.811
32333W        W  674   9.376   9.683   0.446
32334W        W  675  12.786  17.573  11.375
32335W        W  676  11.286  30.572  12.501
32336W        W  677  33.907   4.242   3.171
32337W        W  678   6.758   6.851  14.357
32338W        W  679  15.140  23.046  10.571
32339W        W  680   1.926  15.661   4.341
32340W        W  681  17.786  28.991  13.370
32341W        W  682  43.891  16.664  14.851
32342W        W  683  25.023   1.236   0.479
32343W        W  684   4.390  10.187   4.245
32344W        W  685  44.762  37.945  14.836
32345W        W  686  14.681  33.896   2.266
32346W        W  687   0.284  34.075   2.854
32347W        W  688  44.412   2.350  13.829
32348W        W  689  21.197  29.560   4.722
32349W        W  690  29.972   7.222  11.893
32350W        W  691  40.960  40.464   4.753
32351W        W  692  13.695   7.739   3.698
32352W        W  693   3.399  18.092   2.761
32353W        W  694  41.899  32.461   4.748
32354W        W  695  29.624  35.937  10.155
32355W        W  696  24.551  30.926  11.001
32356W        W  697   1.813  37.366  13.005
32357W        W  698  13.604  17.585  10.934
32358W        W  699  28.056  38.918   3.369
32359W        W  700   5.234  37.478   5.109
32360W        W  701  40.449   2.348   3.827
32361W        W  702   6.183  39.551  12.080
32362W        W  703  42.927  33.550   4.307
32363W        W  704  11.204   7.869   0.851
32364W        W  705  27.666  19.251   3.325
32365W        W  706  20.595  34.553  11.604
32366W        W  707  39.368  34.900  13.043
32367W        W  708   9.867   8.303  13.043
32368W        W  709  16.698  22.125   3.226
32369W        W  710  19.574  25.682  12.851
32370W        W  711  36.360  31.570   4.606
32371W        W  712  40.333   6.724  11.874
32372W        W  713  11.234  32.003  13.848
32373W        W  714  44.397  22.504   0.733
32374W        W  715  11.136  12.658  14.396
32375W        W  716  28.007  11.207  13.023
32376W        W  717  19.064  22.651  10.404
32377W        W  718  41.880  37.921  12.344
32378W        W  719  18.068   6.188   1.842
32379W        W  720  40.513  10.317   4.321
32380W        W  721  14.296  29.501   5.151
32381W        W  722  20.621  32.433  13.974
32382W        W  723  42.954  11.815   5.299
32383W        W  724  42.826   2.309  14.379
32384W        W  725  32.044  41.395   5.309
32385W        W  726  18.237  17.563   1.300
32386W        W  727  38.977  31.591  11.450
32387W        W  728  10.636  39.841  14.961
32388W        W  729  15.161  28.535  14.897
32389W        W  730  44.302  11.205  14.833
32390W        W  731  24.145  35.590  14.938
32391W        W  732   8.784  43.281   3.800
32392W        W  733  40.379   0.829   4.264
32393W        W  734   9.356  40.457   1.419
32394W        W  735  22.252  37.956   1.396
32395W        W  736   7.224  13.339  14.291
32396W        W  737  16.154  36.585  13.963
32397W        W  738   0.773  44.858  10.010
32398W        W  739  14.672  17.647  11.126
32399W        W  740  25.527   9.219   2.241
32400W        W  741  15.760  44.881  11.450
32401W        W  742  32.083  11.328  10.508
32402W        W  743  15.259  28.056   1.349
32403W        W  744  23.011   9.669  12.911
32404W        W  745  17.714  16.190   1.741
32405W        W  746  27.450   6.831  13.922
32406W        W  747  29.661  13.315  12.857
32407W        W  748  28.963  42.432  10.545
32408W        W  749  44.278  32.478  12.572
32409W        W  750   4.291  42.488  13.538
32410W        W  751   3.892   1.941  11.599
32411W        W  752  41.803   8.750  11.077
32412W        W  753   6.725  28.988  14.362
32413W        W  754  14.822  10.291  11.499
32414W        W  755  37.376  21.540  12.379
32415W        W  756  15.110  38.985   5.653
32416W        W  757  14.627  41.006  10.485
32417W        W  758  23.136  14.648   4.693
32418W        W  759  29.999  14.780  10.926
32419W        W  760  28.934  37.899   2.206
32420W        W  761  16.280   5.774  10.990
32421W        W  762  19.103  43.508  14.927
32422W        W  763   4.214  41.430   0.352
32423W        W  764  41.821   5.901   0.759
32424W        W  765  39.411  21.143  14.836
32425W        W  766   8.853   7.778   1.344
32426W        W  767   3.277  23.167   0.813
32427W        W  768  23.524  28.529   3.235
32428W        W  769   9.302  35.051   1.740
32429W        W  770  34.544   7.903  13.393
32430W        W  771  28.436   9.291  11.079
32431W        W  772  16.774  39.890   4.183
32432W        W  773  30.659  29.504  11.421
32433W        W  774  22.122  15.211  10.418
32434W        W  775   7.870  22.139  13.375
32435W        W  776  39.052  24.587  14.274
32436W        W  777  25.970  15.213  12.853
32437W        W  778  35.872  11.817   0.370
32438W        W  779  17.652  42.999   1.715
32439W        W  780  18.646   6.919  10.557
32440W        W  781  27.116  41.871   2.826
32441W        W  782  34.594  35.490  14.802
32442W        W  783  29.131  36.937   4.296
32443W        W  784  38.052  36.546   1.878
32444W        W  785  35.084  12.771   2.738
32445W        W  786  14.729  41.372   2.337
32446W        W  787   8.400  26.118  12.990
32447W        W  788   3.363  22.221   2.232
32448W        W  789   0.745  15.728   0.885
32449W        W  790  41.009  40.957   3.312
32450W        W  791  16.231  28.010  10.898
32451W        W  792  35.098   0.939  13.050
32452W        W  793  37.889  43.801  12.541
32453W        W  794  35.928  14.316  13.830
32454W        W  795  43.859  35.381   0.342
32455W        W  796  38.515   8.390   3.853
32456W        W  797  33.906  23.217   3.197
32457W        W  798  21.108  43.854  12.903
32458W        W  799  19.570  36.911   3.299
32459W        W  800  25.156  24.710  12.538
32460W        W  801  20.679  12.264  14.390
32461W        W  802   5.783  26.540   2.884
32462W        W  803  28.599  37.856  11.600
32463W        W  804  39.458   8.215  13.043
32464W        W  805  16.743  12.259  10.456
32465W        W  806  27.601   0.823  13.313
32466W        W  807  28.115  32.025   3.697
32467W        W  808  27.618  37.338  11.514
32468W        W  809  29.132  37.528   4.124
32469W        W  810  24.175   1.771  11.424
32470W        W  811   9.679  24.626   4.647
32471W        W  812  32.907  18.076  12.841
32472W        W  813  24.129  21.019   0.350
32473W        W  814  31.467  37.572  10.998
32474W        W  815  19.117  10.707  12.448
32475W        W  816  39.342  11.679  11.403
32476W        W  817  28.172   1.813  11.589
32477W        W  818  30.985  15.658  11.407
32478W        W  819   2.762  40.522  12.852
32479W        W  820  24.715   9.168  10.905
32480W        W  821  16.183  10.787  10.600
32481W        W  822  34.906  23.202  11.901
32482W        W  823  10.808   7.394   4.121
32483W        W  824  21.630  10.641   0.368
32484W        W  825   6.287  33.525   4.787
32485W        W  826  27.529  11.726  13.057
32486W        W  827   8.384   1.860  11.378
32487W        W  828  15.703  36.923  10.914
32488W        W  829  31.425  17.744  14.011
32489W        W  830  29.029  19.652  12.417
32490W        W  831  10.798  30.657  10.617
32491W        W  832  31.611  26.560   1.347
32492W        W  833  14.288  19.779  10.630
32493W        W  834  26.497  29.660   1.739
32494W        W  835  39.917  21.057  10.156
32495W        W  836   2.315  33.949  13.320
32496W        W  837  36.579   2.310   3.786
32497W        W  838  32.045  19.586  14.300
32498W        W  839  17.693   2.837  13.350
32499W        W  840  38.832  39.331  10.955
32500W        W  841  12.190  19.643  12.379
32501W        W  842  21.102   9.256   4.638
32502W        W  843  26.193  18.715  10.075
32503W        W  844   0.325  31.008  12.972
32504W        W  845   7.842  20.547   3.192
32505W        W  846   5.229  10.296   1.831
32506W        W  847  33.618  39.369   2.830
32507W        W  848  35.913  43.349   0.242
32508W        W  849  15.716  31.968   0.413
32509W        W  850  32.971  16.687   1.370
32510W        W  851   9.153   4.915  12.496
32511W        W  852  12.671  15.170   2.202
32512W        W  853  40.431  19.164   2.856
32513W        W  854   7.225  41.807   3.205
32514W        W  855  21.136  43.935   2.811
32515W        W  856  41.352   6.234   2.224
32516W        W  857  27.997  19.104   3.808
32517W        W  858  41.900  21.260   4.189
32518W        W  859  33.966  24.515   1.807
32519W        W  860   2.384  31.923   0.794
32520W        W  861  11.324  36.354   4.744
32521W        W  862  13.310  25.547  11.090
32522W        W  863  42.852  34.944  13.964
32523W        W  864   6.285  28.079  10.076
32524W        W  865  10.171  20.257  11.870
32525W        W  866  31.430   0.336   4.780
32526W        W  867  17.590  25.056  11.017
32527W        W  868  42.465  43.958   1.885
32528W        W  869  24.132  11.127   4.643
32529W        W  870  10.647  41.490  11.044
32530W        W  871  15.269  31.587  10.634
32531W        W  872  36.480  16.150   3.251
32532W        W  873  24.198  36.898  13.003
32533W        W  874  26.607  35.525   3.728
32534W        W  875  20.140   4.351   2.868
32535W        W  876   5.381  42.423  12.012
32536W        W  877  41.999  22.017   4.203
32537W        W  878  23.564   7.308   4.223
32538W        W  879  27.519   3.339   2.673
32539W        W  880  14.695   2.323  10.976
32540W        W  881  34.080  40.914  11.395
32541W        W  882   7.894  27.539  13.923
32542W        W  883  35.503  12.300  13.505
32543W        W  884  11.867   0.367   1.444
32544W        W  885   1.777  14.122  14.859
32545W        W  886  15.224  15.705  11.046
32546W        W  887  20.236  13.770   1.291
32547W        W  888  17.274  25.054   1.902
32548W        W  889  38.931   8.390  13.525
32549W        W  890  41.340  39.910  12.998
32550W        W  891   5.741  25.070  14.962
32551W        W  892   7.306  19.592   2.224
32552W        W  893  44.986  30.597  11.913
32553W        W  894  11.766   4.835  11.860
32554W        W  895   5.375   6.723   0.291
32555W        W  896  24.512  36.423  11.569
32556W        W  897  37.073   9.769   1.873
32557W        W  898  33.879  21.588  13.924
32558W        W  899  44.811  11.289   1.771
32559W        W  900   4.334  30.415  14.470
32560W        W  901  33.439  29.491   2.667
32561W        W  902  25.567  25.542   0.877
32562W        W  903   8.862   3.431   4.779
32563W        W  904  22.241   1.895   2.262
32564W        W  905  43.871  38.822   3.641
32565W        W  906  36.453  18.053  14.457
32566W        W  907  19.716  37.962   3.656
32567W        W  908   2.879   5.901   4.141
32568W        W  909   5.781   1.977  14.772
32569W        W  910  16.721   3.376   1.248
32570W        W  911  34.962  22.650  12.097
32571W        W  912  22.684  37.944   1.309
32572W        W  913   7.196  36.577   0.853
32573W        W  914  24.192  23.504  13.453
32574W        W  915  13.699  44.978   2.738
32575W        W  916  14.797  33.058  13.939
32576W        W  917  35.425  18.724   3.380
32577W        W  918  39.376  44.956  10.501
32578W        W  919   6.235  18.056  13.872
32579W        W  920  37.426  10.799  11.038
32580W        W  921  20.731  40.342   2.182
32581W        W  922  40.050  43.785   1.925
32582W        W  923  35.078  29.086  11.472
32583W        W  924  14.230   0.922  13.831
32584W        W  925   4.776  35.567  14.996
32585W        W  926   5.309  28.985  11.489
32586W        W  927  11.695   6.874  13.923
32587W        W  928  25.084  31.050   0.268
32588W        W  929   0.322  15.272  14.374
32589W        W  930  30.075  20.217  14.419
32590W        W  931  25.176  12.622   1.763
32591W        W  932  24.597  16.186  10.137
32592W        W  933  43.281  26.994  14.991
32593W        W  934  25.048  10.849   1.908
32594W        W  935  24.635  32.075   2.266
32595W        W  936  37.496  22.687   0.388
32596W        W  937  11.158  39.002   4.324
32597W        W  938  19.128  31.461  13.377
32598W        W  939   0.807   7.320   1.740
32599W        W  940   9.789  41.033  13.498
32600W        W  941  32.041  33.423   4.342
32601W        W  942  19.722  36.931  10.517
32602W        W  943  15.699  35.399   3.351
32603W        W  944   6.415   1.966   0.764
32604W        W  945  39.845  36.593  10.569
32605W        W  946  43.832  21.736  11.420
32606W        W  947  32.489   4.737  10.573
32607W        W  948  13.332   6.217  12.498
32608W        W  949  44.871  24.170  14.368
32609W        W  950  23.234   9.169   4.207
32610W        W  951  33.974  25.027   0.319
32611W        W  952  14.113  14.112   4.264
32612W        W  953  40.530   6.746  13.833
32613W        W  954  14.108  38.410   1.368
32614W        W  955  27.639  40.486   1.353
32615W        W  956  26.999  35.960  11.424
32616W        W  957  31.008  30.498   3.640
32617W        W  958   9.287   8.699  12.396
32618W        W  959  13.274  12.706  10.584
32619W        W  960  36.590  16.116   2.394
32620W        W  961   1.382   5.427   1.930
32621W        W  962   7.288  29.984  14.303
32622W        W  963  21.068   5.308  14.443
32623W        W  964  19.741  16.784  11.880
32624W        W  965  32.064  28.667   0.759
32625W        W  966   2.928  35.560  14.920
32626W        W  967  41.337   3.895  12.849
32627W        W  968  15.582  25.099   1.885
32628W        W  969  16.084   0.292  12.515
32629W        W  970   1.308  23.734   0.764
32630W        W  971  10.370  40.007  11.420
32631W        W  972  15.104   5.811  11.463
32632W        W  973  28.145  30.581  11.980
32633W        W  974  36.563  20.069   4.761
32634W        W  975  39.864  31.058  12.085
32635W        W  976  39.865  19.058   1.729
32636W        W  977  30.058   0.847  12.551
32637W        W  978   9.704  43.014  14.894
32638W        W  979  12.326  36.956  13.319
32639W        W  980   9.684  38.874   4.814
32640W        W  981  42.872  30.037   2.887
32641W        W  982   0.441   7.765  14.015
32642W        W  983  31.595  12.726  14.996
32643W        W  984  38.924  18.155   1.929
32644W        W  985  37.512  17.304  13.881
32645W        W  986  23.035  31.445   1.760
32646W        W  987   8.171   2.723   0.741
32647W        W  988  36.575  22.631   4.245
32648W        W  989  19.111  10.709   1.866
32649W        W  990   4.313   5.831  12.872
32650W        W  991  21.029  17.228  12.061
32651W        W  992  35.492  15.261   1.915
32652W        W  993  23.665  17.258  13.802
32653W        W  994   6.908   1.908  13.309
32654W        W  995  18.742  40.891   2.687
32655W        W  996   0.273   6.811   3.776
32656W        W  997  41.444   1.825   4.192
32657W        W  998  29.530  39.020   1.731
32658W        W  999  37.883  25.142  10.588
32659W        W 1000  17.771  40.012   0.802
32660W        W 1001  38.459   3.922   3.858
32661W        W 1002  42.802  31.070  13.940
32662W        W 1003  42.027  22.722   2.223
32663W        W 1004  28.165  33.523   2.684
32664W        W 1005   8.312  20.079   1.782
32665W        W 1006  20.731  15.157   3.355
32666W        W 1007  18.739  13.630   1.369
32667W        W 1008  40.020  10.211  10.979
32668W        W 1009  38.867  34.906  12.924
32669W        W 1010   1.395  33.435  13.322
32670W        W 1011  29.428   1.350  14.424
32671W        W 1012  15.688  33.074  13.500
32672W        W 1013  15.760  35.543  14.276
32673W        W 1014  21.224  30.987   3.195
32674W        W 1015  23.518  35.441   3.334
32675W        W 1016  11.733  40.503  11.074
32676W        W 1017   4.405  33.395   2.883
32677W        W 1018  21.102  39.007   4.817
32678W        W 1019  17.102   9.674  10.476
32679W        W 1020  43.427  32.931   3.216
32680W        W 1021  17.751   5.415   3.341
32681W        W 1022   2.872  20.037  12.045
32682W        W 1023  15.202  22.022  10.907
32683W        W 1024  40.937  38.457   1.713
32684W        W 1025  17.564  37.066  11.116
32685W        W 1026  20.274   7.258   3.161
32686W        W 1027  20.590  35.086  11.592
32687W        W 1028  36.084   0.476  14.396
32688W        W 1029  10.800   8.258   2.860
32689W        W 1030  10.378  34.571   1.432
32690W        W 1031  17.167  22.029   4.336
32691W        W 1032  37.475   4.915  12.847
32692W        W 1033  13.831  14.700   1.859
32693W        W 1034  42.447  18.710  13.500
32694W        W 1035  39.375   3.820  12.436
32695W        W 1036  12.236   4.305   2.832
32696W        W 1037  44.817  15.197   4.600
32697W        W 1038  27.025  39.456   1.368
32698W        W 1039  27.942   8.717  10.534
32699W        W 1040  25.134  11.857   3.193
32700W        W 1041   5.841   0.333   0.752
32701W        W 1042   9.179  12.758  11.021
32702W        W 1043  27.021  26.525  11.532
32703W        W 1044  23.701  44.324  14.901
32704W        W 1045  27.940  43.852   2.203
32705W        W 1046  11.164  13.837  11.085
32706W        W 1047  34.997  12.191  14.857
32707W        W 1048   7.317  36.562   0.468
32708W        W 1049  41.465  34.462  11.053
32709W        W 1050  37.381   5.358  13.475
32710W        W 1051  41.867  17.133  10.642
32711W        W 1052  42.930  39.954  12.035
32712W        W 1053  13.213  19.724   2.348
32713W        W 1054   0.757  21.166  10.133
32714W        W 1055   9.219   1.847  14.426
32715W        W 1056  11.815   2.407   2.226
32716W        W 1057  28.627  13.685  14.775
32717W        W 1058  34.474  18.256  14.765
32718W        W 1059   5.292   4.364  10.597
32719W        W 1060  43.348  14.785  10.436
32720W        W 1061  24.029  24.505   2.393
32721W        W 1062  24.540   6.770  10.536
32722W        W 1063  31.904  43.408  10.488
32723W        W 1064  19.172  18.167   0.254
32724W        W 1065  20.628  31.421   0.889
32725W        W 1066  41.040  10.369  13.320
32726W        W 1067  28.467  35.999  12.434
32727W        W 1068   4.945  21.566  12.019
32728W        W 1069  29.457   2.857  13.530
32729W        W 1070  44.836  44.933   1.777
32730W        W 1071  13.760  43.333  14.926
32731W        W 1072  33.877  31.470   1.346
32732W        W 1073  40.857  22.641  11.398
32733W        W 1074  31.451  38.968   3.300
32734W        W 1075  27.191  12.248   4.172
32735W        W 1076   5.268   7.698  12.576
32736W        W 1077   0.968  30.560   5.290
32737W        W 1078  35.499  34.585  11.976
32738W        W 1079   9.890  40.926   3.657
32739W        W 1080  25.665  28.680   2.783
32740W        W 1081  18.056  20.639   5.219
32741W        W 1082  38.019  41.838  12.074
32742W        W 1083  37.395  19.570  12.376
32743W        W 1084   6.184  42.369   2.871
32744W        W 1085  40.315  25.686   1.387
32745W        W 1086  11.764  35.093  12.865
32746W        W 1087   0.846  29.584  10.526
32747W        W 1088  27.064  14.812   2.304
32748W        W 1089  31.504  21.177   2.352
32749W        W 1090  29.637  10.244   1.414
32750W        W 1091  26.470   5.320  12.870
32751W        W 1092  17.748  25.149   2.851
32752W        W 1093  15.147  30.106   3.336
32753W        W 1094   5.279   6.390   3.771
32754W        W 1095   9.843  15.263   1.842
32755W        W 1096  20.677  32.579   0.872
32756W        W 1097  37.870  35.431   0.755
32757W        W 1098   3.909  13.351   0.849
32758W        W 1099  39.528   5.217  10.508
32759W        W 1100  18.679  15.634  14.351
32760W        W 1101  27.093  16.095  14.857
32761W        W 1102   5.281  35.592  10.433
32762W        W 1103  17.710  28.507  12.948
32763W        W 1104  42.017  43.468  13.383
32764W        W 1105  12.707  24.092  12.928
32765W        W 1106  13.666  21.697   0.832
32766W        W 1107  19.665  12.712   0.790
32767W        W 1108  38.053  42.968  10.594
32768W        W 1109  28.501  29.007   3.229
32769W        W 1110  35.990  25.611   1.341
32770W        W 1111  27.463  38.893   1.743
32771W        W 1112  18.286  28.137  12.968
32772W        W 1113  37.431  23.050   2.796
32773W        W 1114  44.003  28.027   2.270
32774W        W 1115  11.721  17.650   3.787
32775W        W 1116  12.328   1.799  13.856
32776W        W 1117  41.353   4.866   2.724
32777W        W 1118  32.595  30.518   2.270
32778W        W 1119  11.211  23.591   2.329
32779W        W 1120  21.662  17.609  11.488
32780W        W 1121  23.613  40.354   4.259
32781W        W 1122  41.891   1.733   4.826
32782W        W 1123  19.535  39.913  13.882
32783W        W 1124  43.978  21.205   3.222
32784W        W 1125   4.269  24.609  11.089
32785W        W 1126  11.860  38.327  11.612
32786W        W 1127   9.736   5.698  10.518
32787W        W 1128  39.950   2.794   0.478
32788W        W 1129  17.155  29.580   2.271
32789W        W 1130  34.070   7.332   2.197
32790W        W 1131  33.077  13.205   4.745
32791W        W 1132   3.879  33.515   9.932
32792W        W 1133   0.947  32.398  13.987
32793W        W 1134  30.553  19.612   4.741
32794W        W 1135  23.731   8.860  10.638
32795W        W 1136  16.196  22.569  13.447
32796W        W 1137  26.678  12.843  12.562
32797W        W 1138  12.147  38.336   5.139
32798W        W 1139  35.564  40.966   0.779
32799W        W 1140   1.740   6.361   0.953
32800W        W 1141   5.305   8.790   4.319
32801W        W 1142  12.355   8.867   0.289
32802W        W 1143  12.654  21.547   1.881
32803W        W 1144  20.709  11.307  12.047
32804W        W 1145  27.447  36.405  12.086
32805W        W 1146  24.231   3.383   4.720
32806W        W 1147  27.092  25.561  11.415
32807W        W 1148  19.639  19.041   1.808
32808W        W 1149   7.402   0.980   0.877
32809W        W 1150  19.077   2.431   4.779
32810W        W 1151  21.059  31.647  14.026
32811W        W 1152  37.838  11.202   1.406
32812W        W 1153  33.098  18.203  10.437
32813W        W 1154  36.961  28.965  11.102
32814W        W 1155  25.606   6.313   1.445
32815W        W 1156  37.374  39.819   4.295
32816W        W 1157  18.649  37.502   0.283
32817W        W 1158  25.668  16.583   5.687
32818W        W 1159  25.981  16.241   2.209
32819W        W 1160  40.012  39.063   2.239
32820W        W 1161  18.678   6.207   3.847
32821W        W 1162  41.944  13.843  10.515
32822W        W 1163  39.412  13.232  12.939
32823W        W 1164  33.128  42.781   4.737
32824W        W 1165  13.628  43.806   0.295
32825W        W 1166   4.849  42.930   3.862
32826W        W 1167  17.653  21.241  14.454
32827W        W 1168  24.557   5.747   4.823
32828W        W 1169  23.168  11.172  13.876
32829W        W 1170  41.302  14.125  11.856
32830W        W 1171  15.593  15.646   3.835
32831W        W 1172  17.795  32.097  10.142
32832W        W 1173   9.181  15.703   1.331
32833W        W 1174  23.683  39.448  12.865
32834W        W 1175  23.727  35.535  13.957
32835W        W 1176  32.885  31.025  13.812
32836W        W 1177   1.737  34.559  14.866
32837W        W 1178  39.009  13.130  13.031
32838W        W 1179  41.403  26.108   4.792
32839W        W 1180  13.820  32.140   1.694
32840W        W 1181  44.950  17.158  11.881
32841W        W 1182  26.643  39.412   1.367
32842W        W 1183  10.697  15.213  14.763
32843W        W 1184  14.316  26.547   2.797
32844W        W 1185   8.719   4.274  13.488
32845W        W 1186   4.375   3.909   1.427
32846W        W 1187  31.427  42.439   9.500
32847W        W 1188  20.672  20.604  14.416
32848W        W 1189   2.279  35.040  13.828
32849W        W 1190   7.813  36.581  11.927
32850W        W 1191  21.614   7.277   2.353
32851W        W 1192  12.273  39.496   0.477
32852W        W 1193  42.473  25.032  10.915
32853W        W 1194   9.707   6.780   4.749
32854W        W 1195  36.035  30.469   2.895
32855W        W 1196  30.947   7.770  12.922
32856W        W 1197  14.701  14.161  10.496
32857W        W 1198  19.751  41.397   1.220
32858W        W 1199  38.427  19.102  12.912
32859W        W 1200  37.073  39.359   0.933
32860W        W 1201   9.165  22.616  14.348
32861W        W 1202  40.443  37.570  12.847
32862W        W 1203  13.788  36.938  12.356
32863W        W 1204  33.531  40.849   4.800
32864W        W 1205  11.154  36.417   2.232
32865W        W 1206  14.299  41.330   1.845
32866W        W 1207  38.540  28.482   1.858
32867W        W 1208  18.111  13.601   4.768
32868W        W 1209  17.299  26.636  14.368
32869W        W 1210  41.396  28.545  13.442
32870W        W 1211  40.513  26.693  10.945
32871W        W 1212  24.150  30.010  13.841
32872W        W 1213  39.008  11.860   3.232
32873W        W 1214  39.985  15.228  10.479
32874W        W 1215   8.719  28.645   2.274
32875W        W 1216   9.656  20.688   4.732
32876W        W 1217  29.457  35.014   3.312
32877W        W 1218  16.186  25.551  14.028
32878W        W 1219  37.997  18.240   1.827
32879W        W 1220  23.013  41.809   3.351
32880W        W 1221   9.873  39.365  12.552
32881W        W 1222   1.970  43.970  14.316
32882W        W 1223   0.835  29.575  11.552
32883W        W 1224  28.528  17.715  11.021
32884W        W 1225  16.596  38.976   3.821
32885W        W 1226   5.778  16.802  10.521
32886W        W 1227   0.832  32.393   1.407
32887W        W 1228  18.657   4.418  14.899
32888W        W 1229  22.650  27.059   3.842
32889W        W 1230  18.693   9.297   0.791
32890W        W 1231  23.633   4.704  14.832
32891W        W 1232  34.415   9.655  10.643
32892W        W 1233  13.153  14.675  10.476
32893W        W 1234  14.693   4.259   2.713
32894W        W 1235  16.605   8.798  12.004
32895W        W 1236  21.123  31.029  14.500
32896W        W 1237  40.436  13.210  13.432
32897W        W 1238  24.158  42.368   0.252
32898W        W 1239  14.646   5.259  13.830
32899W        W 1240   9.162  24.141  11.487
32900W        W 1241  15.612  29.937   1.724
32901W        W 1242  28.044  35.054  12.546
32902W        W 1243   3.338  32.446  12.352
32903W        W 1244  11.744  17.200  14.409
32904W        W 1245   7.692  30.486   0.265
32905W        W 1246  43.795  32.467  12.888
32906W        W 1247  10.724  43.791  14.017
32907W        W 1248  12.193  23.520   3.268
32908W        W 1249  44.431  20.588   1.449
32909W        W 1250   8.665  25.505   2.875
32910W        W 1251  15.671   9.826  12.488
32911W        W 1252  26.509  28.129  13.854
32912W        W 1253  26.974  16.202   2.870
32913W        W 1254   6.249  32.621   3.721
32914W        W 1255   5.726  22.584  11.015
32915W        W 1256  10.255  36.878   3.289
32916W        W 1257   4.252  18.199   1.314
32917W        W 1258  10.705  14.633  13.311
32918W        W 1259  29.617  31.040  11.432
32919W        W 1260  37.886  19.641  13.887
32920W        W 1261   2.811  34.478  12.375
32921W        W 1262  24.695  30.415   0.946
32922W        W 1263  11.854  17.240   5.220
32923W        W 1264  18.051   2.933   1.929
32924W        W 1265   0.824  36.547  10.479
32925W        W 1266   9.355   8.246  13.813
32926W        W 1267  18.117  31.521   0.943
32927W        W 1268  12.144  26.060   1.347
32928W        W 1269  41.786   3.342   1.413
32929W        W 1270  10.703  34.019  14.967
32930W        W 1271  12.135   0.452  13.982
32931W        W 1272  24.061  33.904  14.322
32932W        W 1273  27.187   6.806   1.791
32933W        W 1274  44.504   3.405  12.902
32934W        W 1275  18.571  43.471  13.387
32935W        W 1276   1.464  30.633  11.936
32936W        W 1277  19.086  36.847  11.371
32937W        W 1278  29.030  20.528   0.870
32938W        W 1279  40.471  38.404   0.848
32939W        W 1280  17.610   5.810  11.042
32940W        W 1281  34.081  34.973  12.484
32941W        W 1282   2.393  40.969  10.541
32942W        W 1283  28.947  28.967  14.817
32943W        W 1284   8.736  32.127  13.448
32944W        W 1285  17.770  16.294   3.768
32945W        W 1286  18.777   2.873   1.318
32946W        W 1287  33.981   7.731  11.538
32947W        W 1288  35.596   3.454  12.071
32948W        W 1289   5.819  20.605  12.870
32949W        W 1290  24.498  26.201   9.436
32950W        W 1291  18.092  33.536  12.339
32951W        W 1292  42.527   6.843  14.317
32952W        W 1293  10.363   2.269  10.423
32953W        W 1294  16.304  25.672  10.551
32954W        W 1295  27.637  17.597   1.370
32955W        W 1296  11.191   3.303   2.733
32956W        W 1297   7.895  15.692  11.943
32957W        W 1298   4.709  14.178   4.349
32958W        W 1299  32.903   3.309  12.854
32959W        W 1300  44.429  31.042  11.980
32960W        W 1301  37.539  30.557   3.730
32961W        W 1302  33.890  44.404   2.899
32962W        W 1303   2.392  16.574   0.392
32963W        W 1304   6.891  13.222   4.289
32964W        W 1305  12.337  34.434   1.382
32965W        W 1306  22.534  41.368  14.803
32966W        W 1307  32.591   4.277   3.850
32967W        W 1308  28.117  23.227  13.926
32968W        W 1309  16.754  36.547  10.404
32969W        W 1310  31.505  26.701   0.811
32970W        W 1311  28.446  29.146  12.057
32971W        W 1312   5.361  42.459  11.380
32972W        W 1313  44.969  38.479   2.316
32973W        W 1314  28.083  17.132  13.006
32974W        W 1315  26.111  37.508   4.153
32975W        W 1316  11.642  14.327  13.368
32976W        W 1317  24.180  39.363   2.671
32977W        W 1318  36.059  34.019   0.464
32978W        W 1319  44.760  20.524   9.543
32979W        W 1320  26.595   5.395   3.151
32980W        W 1321   3.458  42.496   1.853
32981W        W 1322  39.529  39.343   4.281
32982W        W 1323  40.480  21.598  14.413
32983W        W 1324  42.971  23.711   3.154
32984W        W 1325  28.441  30.607  12.846
32985W        W 1326  35.057  25.169   4.262
32986W        W 1327  36.379  24.208  13.977
32987W        W 1328  19.707  36.524  11.989
32988W        W 1329  21.737  39.883  11.414
32989W        W 1330  33.062   2.804   4.838
32990W        W 1331  14.316  40.479   4.704
32991W        W 1332  39.015  28.963  11.015
32992W        W 1333  19.757  21.198   3.835
32993W        W 1334  15.209  13.284  12.973
32994W        W 1335   3.781  11.718  12.026
32995W        W 1336  38.346  29.654   4.304
32996W        W 1337  39.477  15.150  14.819
32997W        W 1338  37.900  36.921  13.052
32998W        W 1339  19.088  36.436  13.845
32999W        W 1340   4.839  39.459   1.250
33000W        W 1341  34.937  10.876  13.382
33001W        W 1342   6.752  18.693   2.843
33002W        W 1343  20.557   6.916  14.793
33003W        W 1344  37.944  20.239   4.246
33004W        W 1345  42.526  23.060  11.544
33005W        W 1346   2.261  37.390  12.915
33006W        W 1347  32.947   9.776  14.426
33007W        W 1348   7.306  32.948   2.832
33008W        W 1349  21.135  27.692   4.187
33009W        W 1350  14.790  37.840  14.810
33010W        W 1351   2.322  40.960  13.392
33011W        W 1352  21.566   9.736   0.939
33012W        W 1353  30.920   8.868  11.897
33013W        W 1354  32.567  43.272  10.945
33014W        W 1355  24.706   7.665  14.816
33015W        W 1356  31.574  21.587   4.287
33016W        W 1357  12.733   9.674   1.277
33017W        W 1358  40.928  15.171  13.949
33018W        W 1359  18.218  43.862   3.831
33019W        W 1360   3.800  42.861  11.567
33020W        W 1361  28.137  20.545   3.845
33021W        W 1362  41.506  42.508   3.701
33022W        W 1363  13.730   1.311  11.913
33023W        W 1364  14.241  27.633   1.729
33024W        W 1365   3.340  33.043  10.551
33025W        W 1366   9.822  28.471   2.211
33026W        W 1367  20.740  28.091   2.888
33027W        W 1368   8.818   4.727   1.852
33028W        W 1369  24.513  28.949  12.841
33029W        W 1370  34.449   5.703  12.420
33030W        W 1371  31.530  42.804   1.776
33031W        W 1372  36.560  14.802   3.727
33032W        W 1373  38.060  18.774   0.923
33033W        W 1374  43.852  28.063   3.699
33034W        W 1375  27.584  17.664   1.874
33035W        W 1376   7.735  31.046   1.381
33036W        W 1377  35.091  17.639   4.808
33037W        W 1378  11.732   0.256  13.499
33038W        W 1379  22.705  29.145  10.413
33039W        W 1380  12.753  20.127  11.904
33040W        W 1381  31.436  26.005   1.759
33041W        W 1382  33.548   5.907   3.246
33042W        W 1383  18.182  22.664   3.777
33043W        W 1384  20.265   7.353   2.792
33044W        W 1385  35.985  39.032  10.931
33045W        W 1386  11.193  39.820   5.570
33046W        W 1387   0.982  28.160   3.816
33047W        W 1388  17.083   3.434   2.205
33048W        W 1389  26.506  44.348  11.998
33049W        W 1390  32.546  27.984  14.383
33050W        W 1391  15.587  12.286  10.483
33051W        W 1392  13.641   6.352  12.340
33052W        W 1393  22.203  42.303  10.469
33053W        W 1394  21.019  16.687   9.983
33054W        W 1395  17.719  40.839   2.267
33055W        W 1396  21.041  11.371   2.359
33056W        W 1397  18.772  24.588  14.013
33057W        W 1398   2.827  27.178   3.298
33058W        W 1399  21.088  43.877   3.803
33059W        W 1400  17.182  16.753  10.557
33060W        W 1401  26.605  44.435  14.490
33061W        W 1402  26.491   3.327  12.384
33062W        W 1403  22.604  30.156  12.483
33063W        W 1404  41.291  32.900   3.829
33064W        W 1405  23.234  28.063   4.641
33065W        W 1406  23.154  25.708   1.312
33066W        W 1407  23.188   3.390   1.765
33067W        W 1408  38.330  33.962   2.196
33068W        W 1409  24.995  40.351   2.218
33069W        W 1410  15.327  18.050   0.467
33070W        W 1411  24.094  27.017   2.884
33071W        W 1412  27.624   1.761   0.244
33072W        W 1413   4.348  31.590   2.370
33073W        W 1414   2.278  18.294  13.514
33074W        W 1415   9.800   0.393   2.336
33075W        W 1416  16.178   9.314  12.506
33076W        W 1417  17.110   7.286  13.463
33077W        W 1418   6.316  42.435  11.407
33078W        W 1419  22.518  31.573  14.430
33079W        W 1420  11.305   6.838   1.210
33080W        W 1421  28.081  14.129   5.276
33081W        W 1422  16.614   0.750  14.015
33082W        W 1423   3.305  31.553   0.733
33083W        W 1424  19.105   4.732  12.973
33084W        W 1425  29.667   1.425  13.351
33085W        W 1426  17.652  30.976   2.299
33086W        W 1427   2.410   8.291  14.326
33087W        W 1428  33.590  28.035  14.320
33088W        W 1429  23.517  23.216   3.694
33089W        W 1430   7.752  10.870  11.924
33090W        W 1431   1.821  39.484   3.672
33091W        W 1432  40.003  12.845   2.380
33092W        W 1433  32.067  13.623  12.077
33093W        W 1434   3.813  19.184  14.788
33094W        W 1435  36.943  32.061   4.637
33095W        W 1436  31.648   3.799   4.125
33096W        W 1437  43.825  27.124   2.708
33097W        W 1438  38.452  25.713  13.386
33098W        W 1439  18.099  32.531   1.437
33099W        W 1440  21.675  19.721  13.846
33100W        W 1441  10.298  11.347  12.887
33101W        W 1442   5.733  44.804  13.828
33102W        W 1443  28.473  20.642   4.815
33103W        W 1444  24.645   8.738  11.093
33104W        W 1445  28.635  10.694   1.290
33105W        W 1446  36.572  16.103  11.875
33106W        W 1447  33.449  23.607  12.027
33107W        W 1448  16.794  36.489  13.517
33108W        W 1449  36.880  31.482  14.328
33109W        W 1450  38.986  36.844  13.902
33110W        W 1451   0.440  39.367  13.369
33111W        W 1452   8.716  27.501  12.526
33112W        W 1453  38.462  13.211   3.668
33113W        W 1454   9.217   0.340   4.744
33114W        W 1455   2.362   0.436  14.458
33115W        W 1456  20.682  16.213  14.355
33116W        W 1457  11.171  43.447   3.786
33117W        W 1458   0.902  13.163   2.259
33118W        W 1459  11.639   9.289  13.866
33119W        W 1460  35.464  19.538   2.689
33120W        W 1461  15.085  37.943   0.852
33121W        W 1462  12.649  39.815   1.750
33122W        W 1463  44.488  37.916   3.202
33123W        W 1464   4.318  17.131  14.282
33124W        W 1465  37.473  37.571  10.892
33125W        W 1466  11.371  33.037  13.985
33126W        W 1467  41.852  25.053   3.227
33127W        W 1468  11.638  44.285  14.406
33128W        W 1469  29.136  39.008   4.687
33129W        W 1470  22.132  39.026  13.800
33130W        W 1471  14.672  30.047   0.831
33131W        W 1472  17.249  35.460  13.346
33132W        W 1473  13.638  25.195   0.770
33133W        W 1474  30.011   0.902   4.833
33134W        W 1475  43.827  29.507   1.234
33135W        W 1476  27.099   2.383  12.380
33136W        W 1477  20.642   3.840   3.677
33137W        W 1478   7.782  42.397   3.330
33138W        W 1479  35.504  44.861   0.908
33139W        W 1480  33.033  11.796  10.982
33140W        W 1481  23.113  33.878   4.764
33141W        W 1482  41.820   1.836   1.318
33142W        W 1483  19.279   9.778  13.886
33143W        W 1484  39.973  24.486  10.921
33144W        W 1485  20.081  36.909   0.475
33145W        W 1486  21.588  41.510   2.379
33146W        W 1487  18.279  11.190  10.956
33147W        W 1488  14.653   1.305   4.704
33148W        W 1489   9.244   5.294   2.354
33149W        W 1490  44.920  18.745   5.804
33150W        W 1491   8.758  14.633   0.945
33151W        W 1492  28.605  18.160  12.089
33152W        W 1493  13.267  23.113  11.391
33153W        W 1494  11.695  21.152  10.608
33154W        W 1495  37.519   3.236  10.001
33155W        W 1496  35.011  31.418  13.837
33156W        W 1497  15.130  32.534   5.169
33157W        W 1498  13.627  12.217   0.756
33158W        W 1499  41.023  22.109   2.356
33159W        W 1500  41.943  29.112   4.665
33160W        W 1501   1.780  42.879   2.881
33161W        W 1502  26.020  42.349  10.578
33162W        W 1503  26.575  20.246  14.472
33163W        W 1504  35.923  25.666  14.278
33164W        W 1505  21.526   2.731  14.411
33165W        W 1506  42.880  30.612   1.346
33166W        W 1507  35.481  33.943  10.579
33167W        W 1508   4.217  20.076   3.697
33168W        W 1509  37.015  16.258   4.631
33169W        W 1510   1.919   0.959  12.979
33170W        W 1511  33.435  10.807   4.168
33171W        W 1512  21.260   0.835  12.853
33172W        W 1513  32.102  10.866  10.532
33173W        W 1514  13.708  37.501   1.280
33174W        W 1515  21.093  41.986   3.695
33175W        W 1516  23.623  23.026  14.873
33176W        W 1517  16.125  31.105  13.456
33177W        W 1518  11.650  35.553  11.070
33178W        W 1519  12.155  40.877   2.664
33179W        W 1520   0.846  11.279   4.222
33180W        W 1521  31.415   6.838   3.762
33181W        W 1522  39.848  22.237  11.514
33182W        W 1523  39.973  43.770   4.674
33183W        W 1524  19.631  40.838   3.739
33184W        W 1525  28.156  16.258  10.589
33185W        W 1526  18.060  21.546  10.045
33186W        W 1527  28.009  43.950   0.888
33187W        W 1528  33.040  38.547   2.294
33188W        W 1529  31.091   9.805   2.417
33189W        W 1530  18.204  20.225   3.184
33190W        W 1531   2.795  16.622  12.519
33191W        W 1532  11.267   3.432  14.322
33192W        W 1533  29.609  14.241  11.055
33193W        W 1534  15.174   7.669   1.338
33194W        W 1535  31.000   3.271   1.438
33195W        W 1536  13.789  27.013   4.618
33196W        W 1537  24.069  18.750  13.323
33197W        W 1538  35.873  38.905  14.986
33198W        W 1539  28.087  43.789  14.493
33199W        W 1540  22.236  29.113   4.806
33200W        W 1541  40.406  37.343  12.006
33201W        W 1542  11.135  40.822   3.305
33202W        W 1543  29.502  27.571  13.365
33203W        W 1544  16.271  27.614   4.601
33204W        W 1545  18.648   9.384  14.974
33205W        W 1546  32.606  41.018   3.870
33206W        W 1547  27.009  22.032  11.025
33207W        W 1548  11.354  26.182  12.526
33208W        W 1549  18.753  10.248   4.210
33209W        W 1550  13.231   3.773   1.398
33210W        W 1551  27.007  42.380  12.082
33211W        W 1552  12.156   6.803  11.450
33212W        W 1553  26.558  33.948  14.847
33213W        W 1554  18.648  16.738   0.361
33214W        W 1555  43.373  41.461   2.343
33215W        W 1556   9.746  24.659  14.479
33216W        W 1557   7.415  40.804  13.380
33217W        W 1558  11.849   1.260   1.901
33218W        W 1559  12.676  25.165  10.427
33219W        W 1560  38.858  42.794   4.213
33220W        W 1561  16.166  39.355  10.957
33221W        W 1562   3.431  14.281   1.911
33222W        W 1563  43.371  44.903   1.318
33223W        W 1564  28.565  28.018   2.797
33224W        W 1565  43.340  43.834  14.814
33225W        W 1566   1.465   0.488   1.783
33226W        W 1567  26.492  31.599   0.395
33227W        W 1568  26.587   0.840   2.239
33228W        W 1569  35.418  28.045   2.733
33229W        W 1570  13.682  35.969   4.301
33230W        W 1571  33.541  10.296  11.033
33231W        W 1572  29.502  34.082   2.356
33232W        W 1573  15.083  25.053   1.878
33233W        W 1574   1.872  28.569   1.320
33234W        W 1575   4.702  15.817  13.339
33235W        W 1576   9.151   2.282  14.887
33236W        W 1577  43.411   2.403   3.216
33237W        W 1578  10.219  20.697  11.071
33238W        W 1579  34.978  17.634  10.556
33239W        W 1580   1.905  26.021   3.814
33240W        W 1581  19.634   1.945  14.774
33241W        W 1582   8.192  14.656  12.886
33242W        W 1583  33.997   5.303   1.220
33243W        W 1584  18.242  44.799  11.885
33244W        W 1585   1.267  29.075   1.887
33245W        W 1586  39.335  12.695  11.083
33246W        W 1587  27.632   0.295  12.081
33247W        W 1588   0.860  35.882  10.434
33248W        W 1589   2.336   0.333  14.815
33249W        W 1590  37.039  42.299  12.839
33250W        W 1591  27.197   5.921  11.970
33251W        W 1592  33.618  11.205   9.972
33252W        W 1593  43.783  12.659  11.979
33253W        W 1594   9.827  10.375   5.667
33254W        W 1595  25.638  17.799  11.117
33255W        W 1596   1.341   3.901   1.829
33256W        W 1597  27.090  27.167   1.749
33257W        W 1598  43.796  31.028   1.293
33258W        W 1599   2.796  40.868  11.458
33259W        W 1600  43.292  30.939   2.235
33260W        W 1601  13.722  30.563  14.301
33261W        W 1602  23.044  40.357   3.217
33262W        W 1603  39.340   3.951  11.049
33263W        W 1604  37.017   0.383   0.270
33264W        W 1605  24.682  28.990  11.022
33265W        W 1606  19.632  41.997  13.343
33266W        W 1607  28.940  15.724  10.893
33267W        W 1608  37.999   8.878  12.548
33268W        W 1609   2.945  12.840   1.410
33269W        W 1610   4.385   0.802  13.473
33270W        W 1611  39.547  16.252  14.829
33271W        W 1612  29.007   5.317  14.485
33272W        W 1613  31.529   9.832   2.900
33273W        W 1614   1.261  43.859   3.770
33274W        W 1615   7.895  34.065  11.463
33275W        W 1616   8.333  13.689   0.923
33276W        W 1617  39.813  10.173  13.823
33277W        W 1618  12.794  12.192   5.742
33278W        W 1619   0.446   3.353  12.972
33279W        W 1620   8.341  28.091   0.272
33280W        W 1621  24.101  41.413   2.209
33281W        W 1622  22.707  31.551  11.510
33282W        W 1623  20.718  26.059   1.901
33283W        W 1624  31.130  26.626  10.984
33284W        W 1625   2.845  24.583  10.618
33285W        W 1626  35.491  36.098   1.841
33286W        W 1627  13.178  11.335   1.897
33287W        W 1628  21.079   0.782   1.276
33288W        W 1629  20.523  15.675  12.579
33289W        W 1630  17.709  33.478   3.270
33290W        W 1631   8.170  12.673  13.438
33291W        W 1632  34.569   0.427  13.829
33292W        W 1633  13.285  31.630   3.219
33293W        W 1634  11.780  24.629  11.953
33294W        W 1635  17.095  23.607  12.846
33295W        W 1636  25.470   0.796  13.795
33296W        W 1637  30.492   2.314  12.825
33297W        W 1638  43.285  41.352   1.852
33298W        W 1639  35.427  29.423   2.881
33299W        W 1640  37.987  24.598  12.542
33300W        W 1641  10.847  30.143   0.841
33301W        W 1642   9.717  25.217   2.246
33302W        W 1643  12.286  26.490   0.892
33303W        W 1644  39.402   7.343   1.236
33304W        W 1645  41.377   5.312  12.942
33305W        W 1646   9.723  32.519  14.843
33306W        W 1647  34.940   6.818  14.368
33307W        W 1648  11.341   8.320   2.733
33308W        W 1649  16.105  29.668  10.905
33309W        W 1650  14.648  11.365   3.187
33310W        W 1651  26.511  12.727  10.585
33311W        W 1652   3.914   3.728  13.939
33312W        W 1653  13.633  23.148   1.797
33313W        W 1654  23.101   3.772   0.309
33314W        W 1655   0.872   7.734  11.545
33315W        W 1656  16.794  18.095  13.823
33316W        W 1657  16.812  40.915   4.133
33317W        W 1658  29.142  32.447  12.572
33318W        W 1659  19.049   4.364   4.213
33319W        W 1660  12.157  34.558  13.382
33320W        W 1661   5.388  30.927   3.292
33321W        W 1662  34.074   4.745   4.812
33322W        W 1663  26.184   0.865   3.181
33323W        W 1664  23.072  31.582  12.971
33324W        W 1665  38.512  10.241   4.808
33325W        W 1666  31.096  28.478   2.281
33326W        W 1667  37.965  29.945   2.282
33327W        W 1668  20.188   1.956  12.417
33328W        W 1669  39.402  41.392  14.771
33329W        W 1670  37.540   9.656   0.755
33330W        W 1671  21.643  22.704  10.404
33331W        W 1672  19.625  35.472  12.027
33332W        W 1673  13.650  28.489  14.851
33333W        W 1674  15.114  41.027  11.996
33334W        W 1675   4.323  35.934  12.916
33335W        W 1676  30.021  11.319  13.791
33336W        W 1677  16.314  21.516  10.018
33337W        W 1678  39.825  23.645  12.449
33338W        W 1679  44.981  35.363  10.424
33339W        W 1680   3.757   7.676   1.832
33340W        W 1681   0.782   0.860   1.409
33341W        W 1682  17.092  39.943  14.015
33342W        W 1683  21.574  38.829  12.565
33343W        W 1684  38.560  27.658  14.951
33344W        W 1685  21.602  38.874  13.380
33345W        W 1686   3.289  14.231   2.694
33346W        W 1687  36.513  13.233  11.935
33347W        W 1688  23.493  27.990   1.847
33348W        W 1689  24.628   2.914  14.453
33349W        W 1690  31.478  29.997   1.437
33350W        W 1691  10.677  18.156   0.795
33351W        W 1692  40.406   1.272   4.604
33352W        W 1693  16.178  11.359  11.580
33353W        W 1694   8.744  20.167  11.862
33354W        W 1695  38.962  38.970   0.306
33355W        W 1696   2.794  18.122   3.344
33356W        W 1697  42.004  32.934  13.926
33357W        W 1698   8.243  43.413  12.363
33358W        W 1699   9.762  24.212   1.396
33359W        W 1700  29.609  28.575  10.491
33360W        W 1701  15.182  20.133   0.345
33361W        W 1702  39.375  34.917   2.199
33362W        W 1703   1.364  27.521  10.463
33363W        W 1704  42.304  25.504  13.981
33364W        W 1705  33.946  32.530   2.372
33365W        W 1706  41.999  17.253   1.807
33366W        W 1707   9.745  34.530  14.889
33367W        W 1708  42.433  19.193  13.517
33368W        W 1709  13.609  42.377  13.010
33369W        W 1710   5.410  37.864   0.845
33370W        W 1711  17.135  18.116  13.423
33371W        W 1712  16.167  41.988  11.988
33372W        W 1713  14.746  44.286   2.792
33373W        W 1714  22.051  31.077  12.026
33374W        W 1715   0.349  34.024  10.473
33375W        W 1716  15.609  29.638   3.269
33376W        W 1717  33.589  24.025   5.122
33377W        W 1718  30.914  32.447  10.590
33378W        W 1719  14.660  23.682  13.489
33379W        W 1720   2.456  32.457   4.618
33380W        W 1721   1.911  11.734   5.149
33381W        W 1722  41.479   9.820  13.903
33382W        W 1723  12.220  11.268   9.965
33383W        W 1724  43.311  14.117   0.347
33384W        W 1725  19.662   0.394   3.825
33385W        W 1726  35.585  15.591  11.961
33386W        W 1727  42.961  26.499   0.430
33387W        W 1728  33.025  41.887  10.899
33388W        W 1729  16.793  13.607  10.956
33389W        W 1730  13.178  21.726   0.819
33390W        W 1731  11.183  12.131   4.826
33391W        W 1732  30.474   3.227   4.811
33392W        W 1733   1.915  20.080   4.670
33393W        W 1734  30.639  22.149  11.569
33394W        W 1735  41.005  26.178  14.464
33395W        W 1736  18.730  41.379   2.214
33396W        W 1737  25.034  13.163   0.933
33397W        W 1738  20.080   0.327   3.341
33398W        W 1739  22.161  23.125  11.075
33399W        W 1740  12.615  30.419   4.353
33400W        W 1741  28.113  11.710   3.666
33401W        W 1742  22.143  36.411   1.729
33402W        W 1743   5.786  39.918  10.606
33403W        W 1744  15.193  28.944   1.313
33404W        W 1745  30.517  28.576   4.624
33405W        W 1746  42.925  44.890   2.879
33406W        W 1747   7.683  41.885   2.409
33407W        W 1748  18.572  20.064   1.253
33408W        W 1749  14.731  21.547  12.879
33409W        W 1750  13.150  32.896   4.668
33410W        W 1751   0.833  24.131   1.276
33411W        W 1752  42.869  19.726  12.927
33412W        W 1753  23.709  35.025   0.923
33413W        W 1754  21.235  11.679   2.871
33414W        W 1755  31.119  31.622   1.275
33415W        W 1756  39.427   6.181  12.529
33416W        W 1757  11.755  44.401   5.195
33417W        W 1758  22.501   1.887   2.754
33418W        W 1759  33.922   8.869  13.397
33419W        W 1760  15.087  27.969   3.692
33420W        W 1761   0.476  15.679   0.476
33421W        W 1762  18.783  37.466  13.508
33422W        W 1763  12.276  42.452   3.179
33423W        W 1764  38.077  20.184   1.697
33424W        W 1765  43.421   6.381  12.895
33425W        W 1766  38.494   2.329   1.341
33426W        W 1767  14.163  25.646  14.289
33427W        W 1768  11.245  35.874   0.362
33428W        W 1769  34.949  22.730  13.473
33429W        W 1770   2.435  17.273  11.492
33430W        W 1771  10.269  16.071  11.587
33431W        W 1772   1.823  24.629  11.059
33432W        W 1773  28.122  27.648   4.177
33433W        W 1774  15.266  26.110  14.415
33434W        W 1775  10.356   0.429  12.943
33435W        W 1776  17.065  42.976  11.433
33436W        W 1777  35.924  10.873  13.538
33437W        W 1778   8.316  29.955   3.833
33438W        W 1779  28.145  23.613  10.037
33439W        W 1780   5.874   5.369   4.625
33440W        W 1781  15.634  26.159  11.082
33441W        W 1782  36.065  28.066  13.023
33442W        W 1783  12.789   8.770  13.358
33443W        W 1784  41.301  42.791   5.790
33444W        W 1785  32.539  10.879   2.271
33445W        W 1786   6.872  11.800   3.172
33446W        W 1787  24.541  39.808  13.049
33447W        W 1788  44.916   8.706   2.264
33448W        W 1789  11.724  13.768   1.273
33449W        W 1790  41.974  19.731  13.372
33450W        W 1791   6.894   3.274  13.520
33451W        W 1792  29.515  31.912   0.458
33452W        W 1793  11.177  20.050  14.286
33453W        W 1794  11.645  31.048  13.942
33454W        W 1795  27.506   1.824   4.182
33455W        W 1796  25.142  37.399   1.296
33456W        W 1797  40.419   0.256  12.827
33457W        W 1798  15.603  36.096   4.706
33458W        W 1799  23.560  19.594  13.367
33459W        W 1800   5.847   5.837   4.794
33460W        W 1801  11.220  15.303   3.352
33461W        W 1802  23.164  33.515  13.410
33462W        W 1803   5.354  38.512  13.523
33463W        W 1804  38.469  22.089  13.485
33464W        W 1805  10.712  43.008  11.551
33465W        W 1806  39.493  20.726  12.058
33466W        W 1807  27.136  34.530   1.443
33467W        W 1808  40.332  33.500  11.607
33468W        W 1809  21.748  21.657   0.317
33469W        W 1810  29.566   3.335   2.873
33470W        W 1811  13.203   2.925  11.038
33471W        W 1812  38.905  25.109  13.985
33472W        W 1813   9.199  17.627  12.353
33473W        W 1814  26.168  24.988  14.959
33474W        W 1815  37.425  37.979  14.807
33475W        W 1816   2.827  15.209  11.104
33476W        W 1817  11.280  22.083  11.392
33477W        W 1818   0.324   0.824   0.323
33478W        W 1819  34.425  26.986  12.383
33479W        W 1820  41.963  10.221   4.185
33480W        W 1821   0.290  40.881  12.381
33481W        W 1822  12.677  17.218  10.525
33482W        W 1823  13.759  11.237   1.726
33483W        W 1824  16.307  17.700  11.510
33484W        W 1825  14.800   7.217   0.344
33485W        W 1826  11.234  43.376  14.872
33486W        W 1827   6.417   6.322   3.244
33487W        W 1828  34.963  35.520   4.278
33488W        W 1829  25.502  19.222  11.911
33489W        W 1830   1.467  14.175   2.191
33490W        W 1831  34.393  31.505   4.621
33491W        W 1832  26.984   7.861  12.895
33492W        W 1833  19.663  38.380   0.394
33493W        W 1834   0.364  22.504  11.988
33494W        W 1835  31.008  37.499  14.320
33495W        W 1836  41.291  42.317  11.436
33496W        W 1837  15.732  30.522   0.957
33497W        W 1838  35.987  11.326  11.461
33498W        W 1839  28.003  19.150   0.466
33499W        W 1840  20.084  14.715   1.767
33500W        W 1841  32.594  42.807  11.538
33501W        W 1842  31.148  19.676  10.974
33502W        W 1843  37.015   3.942   0.789
33503W        W 1844   0.750  17.740  11.935
33504W        W 1845  27.994  20.735  10.590
33505W        W 1846   1.265  35.081   2.332
33506W        W 1847   4.898  32.428  13.791
33507W        W 1848  23.062  11.176   4.209
33508W        W 1849  38.409  33.007   1.850
33509W        W 1850  26.190  33.100  12.374
33510W        W 1851  41.034  37.026  13.380
33511W        W 1852   9.288  14.290   0.890
33512W        W 1853  16.108  25.057  14.869
33513W        W 1854  27.024  29.506   0.302
33514W        W 1855  23.046  23.518   2.868
33515W        W 1856  21.725   3.368  12.878
33516W        W 1857  36.025   4.412   4.353
33517W        W 1858  15.310  28.610  11.006
33518W        W 1859   4.409   8.259   4.617
33519W        W 1860  28.019  34.546  13.056
33520W        W 1861  25.055  24.555  14.370
33521W        W 1862  41.879  40.975   1.783
33522W        W 1863  37.561  37.077   0.793
33523W        W 1864  28.024   9.386  13.347
33524W        W 1865   0.935  25.563   4.226
33525W        W 1866  26.050  41.455   2.863
33526W        W 1867  39.386   5.356   4.746
33527W        W 1868  34.991  20.080   0.818
33528W        W 1869   3.348  27.499  11.041
33529W        W 1870  13.775  40.810   5.157
33530W        W 1871  37.891  43.388  12.983
33531W        W 1872  21.575  34.971  10.892
33532W        W 1873   5.764  11.721  12.414
33533W        W 1874  42.796   3.216   4.831
33534W        W 1875  22.649   4.869  14.418
33535W        W 1876  10.143  19.708   0.884
33536W        W 1877  13.756  24.190   1.743
33537W        W 1878  14.607   6.383   2.313
33538W        W 1879  11.136  40.341  12.975
33539W        W 1880  10.213   1.891  11.457
33540W        W 1881   2.755  12.161   4.208
33541W        W 1882  23.510   3.887   1.792
33542W        W 1883  28.122  20.034   2.694
33543W        W 1884   8.717  22.235   1.817
33544W        W 1885  24.531   7.769   1.864
33545W        W 1886   9.173  28.561  13.310
33546W        W 1887  36.506   0.268   3.305
33547W        W 1888  22.635  35.953  14.354
33548W        W 1889   5.908  10.645  14.480
33549W        W 1890   3.378  36.093  12.535
33550W        W 1891   2.236  40.364  14.975
33551W        W 1892  19.235   7.222  10.436
33552W        W 1893  17.244  17.149  10.410
33553W        W 1894  44.294  36.880  14.491
33554W        W 1895  21.743  26.647   1.396
33555W        W 1896  38.429  11.228  12.352
33556W        W 1897  36.528  28.484  14.945
33557W        W 1898   1.746  24.575   1.711
33558W        W 1899   1.389  24.506   4.623
33559W        W 1900  21.693  11.840   1.922
33560W        W 1901  27.943  23.664   4.686
33561W        W 1902  13.660  16.622   1.246
33562W        W 1903  41.371  17.600  10.619
33563W        W 1904  35.401  16.261  10.492
33564W        W 1905  21.026  24.006   5.280
33565W        W 1906  36.429  36.022  10.552
33566W        W 1907  39.962  13.208  13.795
33567W        W 1908  38.068   9.678  14.963
33568W        W 1909  19.194  39.408  14.991
33569W        W 1910  23.605  18.577  11.439
33570W        W 1911  38.528  43.325   2.346
33571W        W 1912  31.579  44.407   3.851
33572W        W 1913  31.950  40.459  13.548
33573W        W 1914  23.152  21.599   0.942
33574W        W 1915  38.999  19.582   0.415
33575W        W 1916  25.609   5.438   1.731
33576W        W 1917  16.174  43.770   4.621
33577W        W 1918  31.947   3.846   0.914
33578W        W 1919  28.963  40.934  13.499
33579W        W 1920  18.066  44.860  10.933
33580W        W 1921   0.365  11.217  13.307
33581W        W 1922  28.005  40.871  10.487
33582W        W 1923  12.770   5.836   4.814
33583W        W 1924  44.270   1.444  13.513
33584W        W 1925   6.323  28.610   0.836
33585W        W 1926  29.488  28.142  11.939
33586W        W 1927   5.209  37.358   0.905
33587W        W 1928  28.152  26.486   1.443
33588W        W 1929  38.503  23.009  12.861
33589W        W 1930  31.914  34.526  11.506
33590W        W 1931  12.330   1.920   2.798
33591W        W 1932  43.843   4.354  13.350
33592W        W 1933  37.001  43.374   3.696
33593W        W 1934  44.367  33.938  11.020
33594W        W 1935  24.644  32.024   5.189
33595W        W 1936  19.265   0.802   1.812
33596W        W 1937  22.226  14.707  11.417
33597W        W 1938  14.319  11.201   4.277
33598W        W 1939  42.311  13.715   2.347
33599W        W 1940  38.371  21.189  13.797
33600W        W 1941   7.827  16.083   1.248
33601W        W 1942   0.979  17.170  10.966
33602W        W 1943  29.955  28.596  10.974
33603W        W 1944   7.256   7.841  14.766
33604W        W 1945  40.303   0.978  14.295
33605W        W 1946  39.861  10.200  13.052
33606W        W 1947  19.173  23.124   3.637
33607W        W 1948  25.640   7.733   2.668
33608W        W 1949  14.153   9.807  11.427
33609W        W 1950  20.087  38.486  11.981
33610W        W 1951  35.431  17.128   1.866
33611W        W 1952  26.477   5.240   4.725
33612W        W 1953   8.210  43.933   4.838
33613W        W 1954  42.918  38.394  12.871
33614W        W 1955  22.192  13.615   1.342
33615W        W 1956  35.525  29.980   3.841
33616W        W 1957  11.242  31.552  12.992
33617W        W 1958  33.025   9.383   0.802
33618W        W 1959  18.757  37.381  14.482
33619W        W 1960  15.293  30.456  14.474
33620W        W 1961  13.162  14.133  14.457
33621W        W 1962  24.154  28.073   1.253
33622W        W 1963  26.558  17.705   4.829
33623W        W 1964  18.133  12.237   0.442
33624W        W 1965  43.508  15.636  11.014
33625W        W 1966  22.058   4.354  11.029
33626W        W 1967  38.880   5.773   0.353
33627W        W 1968  19.704   6.246   4.762
33628W        W 1969  41.460  16.175  10.591
33629W        W 1970  42.812   6.334   3.648
33630W        W 1971  35.093  12.801  14.436
33631W        W 1972  35.366  17.252  14.379
33632W        W 1973  39.030  30.469   0.310
33633W        W 1974   0.464   2.836   3.368
33634W        W 1975   3.830  30.577  11.117
33635W        W 1976  16.152  35.402   1.338
33636W        W 1977  38.418   9.260  14.346
33637W        W 1978  44.792  23.578   2.675
33638W        W 1979  21.193  43.304   3.685
33639W        W 1980  18.218  42.438  14.021
33640W        W 1981  12.712  23.536  11.574
33641W        W 1982  34.937  35.018  13.489
33642W        W 1983  16.644  10.295  10.445
33643W        W 1984  41.034  28.099  14.442
33644W        W 1985  35.975  20.204  13.982
33645W        W 1986   2.850  33.109  13.334
33646W        W 1987   7.285  42.963   9.982
33647W        W 1988  22.233  23.141  11.434
33648W        W 1989  29.160  23.515  13.929
33649W        W 1990  27.157  41.353  14.774
33650W        W 1991   2.773  22.573  14.310
33651W        W 1992  26.066  15.717  13.378
33652W        W 1993  41.864  33.929  12.917
33653W        W 1994  27.978  21.062   2.770
33654W        W 1995  10.684  31.007   4.229
33655W        W 1996  41.894  25.648   1.264
33656W        W 1997  18.764  39.037  10.916
33657W        W 1998  33.041  29.632  12.567
33658W        W 1999  26.689  12.189  12.902
33659W        W 2000   0.291  26.520  12.890
33660W        W 2001   9.662  33.105   3.754
33661W        W 2002  34.590  39.847  14.940
33662W        W 2003  36.429  18.176  12.529
33663W        W 2004  32.439  12.330  10.938
33664W        W 2005  32.929  21.174  14.877
33665W        W 2006  40.327  40.926   1.888
33666W        W 2007  44.823  36.501   3.149
33667W        W 2008   3.860  43.808   0.848
33668W        W 2009  13.778   8.175   2.278
33669W        W 2010  17.696  31.501  10.974
33670W        W 2011  22.098  40.925  11.473
33671W        W 2012  36.905  28.080   2.352
33672W        W 2013  39.818  24.155  12.095
33673W        W 2014  27.639   3.439   3.759
33674W        W 2015  37.424  40.406  10.975
33675W        W 2016   9.249  32.998   0.728
33676W        W 2017   7.744  21.578   3.242
33677W        W 2018  39.024  27.100   0.424
33678W        W 2019  42.827  31.083  11.596
33679W        W 2020  23.049   9.795   2.839
33680W        W 2021  26.657  33.479   4.656
33681W        W 2022  35.944  37.428   4.267
33682W        W 2023   6.353  21.192   2.388
33683W        W 2024  44.378  26.203  14.337
33684W        W 2025  23.525   2.805  14.875
33685W        W 2026  39.379  29.613   1.437
33686W        W 2027  32.091  27.955   0.818
33687W        W 2028   3.738  32.957   3.231
33688W        W 2029  21.705  44.475  12.032
33689W        W 2030  19.550  20.713  12.342
33690W        W 2031  24.481   6.676   1.800
33691W        W 2032   0.298  32.505   0.812
33692W        W 2033  32.576   9.215   4.128
33693W        W 2034  34.400   7.687  12.434
33694W        W 2035   0.436  18.562  11.066
33695W        W 2036  27.118   4.908  12.560
33696W        W 2037  39.038  26.166  14.453
33697W        W 2038   0.400   6.828   1.234
33698W        W 2039  16.179   7.709  14.316
33699W        W 2040  27.544   7.800   2.404
33700W        W 2041  36.913  11.298   2.788
33701W        W 2042  31.437   4.939   2.763
33702W        W 2043  16.739  36.980   0.365
33703W        W 2044  41.934  29.617   2.263
33704W        W 2045  43.381   8.759   1.317
33705W        W 2046   4.945   9.676   3.301
33706W        W 2047   8.404  10.687  13.320
33707W        W 2048  34.386   2.813   3.866
33708W        W 2049  10.350  24.995   2.743
33709W        W 2050  19.220  15.734   1.709
33710W        W 2051  19.743   4.861   5.273
33711W        W 2052   7.848  30.095  13.392
33712W        W 2053   7.790  22.063  12.516
33713W        W 2054  29.021  32.939  12.359
33714W        W 2055  42.002  17.752   4.275
33715W        W 2056  29.123   2.910  14.294
33716W        W 2057  10.827   6.838  10.977
33717W        W 2058  38.059  21.710  12.093
33718W        W 2059  34.554  11.722  12.485
33719W        W 2060   1.840  16.075  13.453
33720W        W 2061  43.310  28.051  11.935
33721W        W 2062  24.129  43.957  12.917
33722W        W 2063  26.951  13.314   0.919
33723W        W 2064  36.093  12.235   3.343
33724W        W 2065   3.873  32.953  12.990
33725W        W 2066  27.600   0.772  11.520
33726W        W 2067  37.572  23.101  12.556
33727W        W 2068  22.083  38.828   4.202
33728W        W 2069  14.774  40.941   0.878
33729W        W 2070  27.572  34.037  13.377
33730W        W 2071  27.177  37.536   2.362
33731W        W 2072   9.213  31.010  13.999
33732W        W 2073  32.040  36.997  11.018
33733W        W 2074  26.031  15.278  14.891
33734W        W 2075  44.449  22.662  12.925
33735W        W 2076  41.511  31.437  14.344
33736W        W 2077  37.572  20.174   5.096
33737W        W 2078  21.029  40.434  13.323
33738W        W 2079   0.933  21.625  13.833
33739W        W 2080   5.234  13.766  14.341
33740W        W 2081  16.097  15.311   2.178
33741W        W 2082  40.469  13.150   5.274
33742W        W 2083   9.236   9.203  11.882
33743W        W 2084  32.458  17.135  12.014
33744W        W 2085  40.332   9.362   1.447
33745W        W 2086  15.674  26.531  12.841
33746W        W 2087  20.162  38.901   4.126
33747W        W 2088  23.036  17.691   0.756
33748W        W 2089  42.997   3.303   1.886
33749W        W 2090  21.756  23.648   3.285
33750W        W 2091   3.874  30.537  11.963
33751W        W 2092  23.626   6.740  13.525
33752W        W 2093  27.027   1.811  11.948
33753W        W 2094  36.426  13.230  11.530
33754W        W 2095  42.501   5.374  11.029
33755W        W 2096  28.670  17.755   2.324
33756W        W 2097  39.841  14.595   3.337
33757W        W 2098  31.950  15.256  12.913
33758W        W 2099   7.716  33.881   2.688
33759W        W 2100  35.427  30.956  13.882
33760W        W 2101  11.809  14.605   0.847
33761W        W 2102  21.613  17.304   1.885
33762W        W 2103   3.755  21.203  11.491
33763W        W 2104  11.622   5.311   0.421
33764W        W 2105  39.948  18.137  14.838
33765W        W 2106  27.081  11.627  13.824
33766W        W 2107  14.100  42.321  11.124
33767W        W 2108  28.945  12.125   4.169
33768W        W 2109   1.827  34.923   3.716
33769W        W 2110  19.572  21.577   3.254
33770W        W 2111  34.120   7.889  14.298
33771W        W 2112  41.847   1.910  12.534
33772W        W 2113  39.897  32.046  11.573
33773W        W 2114  20.584  40.324  10.478
33774W        W 2115  44.923  37.048  13.869
33775W        W 2116   5.304  12.832  14.349
33776W        W 2117   4.268   7.342   0.348
33777W        W 2118   0.778   6.263   0.888
33778W        W 2119   2.256  17.196   3.735
33779W        W 2120  35.015  26.073   3.211
33780W        W 2121   8.900   1.471  11.449
33781W        W 2122  26.653  13.686   3.240
33782W        W 2123  24.498  31.459  13.545
33783W        W 2124  37.906  20.604  13.375
33784W        W 2125  15.206  27.628   2.823
33785W        W 2126  14.711   4.272  14.287
33786W        W 2127  14.309   9.831  14.294
33787W        W 2128   1.825   7.856   0.876
33788W        W 2129  11.715  36.365  11.008
33789W        W 2130  41.942  43.803  11.395
33790W        W 2131   3.822  33.004   4.283
33791W        W 2132  11.264  41.808  13.804
33792W        W 2133   5.778  30.437   2.874
33793W        W 2134  15.672  36.588   0.842
33794W        W 2135  10.212  13.231   5.100
33795W        W 2136  13.680  17.156   2.839
33796W        W 2137   6.312  19.258  12.032
33797W        W 2138  22.110  37.555  10.487
33798W        W 2139  13.283   8.253   1.342
33799W        W 2140  36.483  44.476  14.862
33800W        W 2141  30.028  22.006   0.322
33801W        W 2142  14.236  23.718  14.491
33802W        W 2143  42.416   5.898  12.977
33803W        W 2144  10.310  40.332  11.460
33804W        W 2145  41.862  29.066  13.995
33805W        W 2146  23.066  38.862   0.461
33806W        W 2147  27.942  40.978   3.319
33807W        W 2148   4.353  43.957  12.923
33808W        W 2149  14.809  23.646   1.736
33809W        W 2150  27.470  25.996  14.889
33810W        W 2151  17.715  37.532   3.792
33811W        W 2152   4.403  31.015  12.018
33812W        W 2153  29.954   3.243   0.903
33813W        W 2154   3.830  34.090  10.953
33814W        W 2155  41.964  44.772   0.467
33815W        W 2156  34.405   4.370   1.723
33816W        W 2157  34.021  37.076  13.986
33817W        W 2158  41.021  11.224   4.805
33818W        W 2159  21.210  24.686  11.033
33819W        W 2160   3.325   0.348   1.934
33820W        W 2161  22.045  21.198   3.757
33821W        W 2162   1.864   8.832   4.839
33822W        W 2163  36.859  43.269  12.346
33823W        W 2164  26.591  10.697  12.962
33824W        W 2165   1.855  20.556  12.012
33825W        W 2166  32.518  12.617   5.171
33826W        W 2167  22.565  38.354  12.468
33827W        W 2168   3.421  26.120  13.844
33828W        W 2169  24.153  25.706   1.216
33829W        W 2170   7.834  27.128   1.794
33830W        W 2171  24.096  36.868   1.785
33831W        W 2172   8.354   8.849   2.786
33832W        W 2173  35.873  31.633   2.745
33833W        W 2174  17.260   8.366  11.128
33834W        W 2175  12.293  43.457   3.730
33835W        W 2176  10.228  27.117  13.547
33836W        W 2177  11.203  30.950   1.415
33837W        W 2178  25.539  37.391   3.767
33838W        W 2179  37.517  19.248  14.796
33839W        W 2180  19.277   6.720  13.911
33840W        W 2181  30.118  26.200  11.019
33841W        W 2182   5.286  20.219   4.159
33842W        W 2183  22.095  39.385  11.570
33843W        W 2184  44.895  33.960   4.156
33844W        W 2185  17.067  16.774   3.685
33845W        W 2186   1.847  41.383  13.020
33846W        W 2187   5.719  29.508   3.831
33847W        W 2188   3.366  12.197  11.602
33848W        W 2189  36.555  16.185   0.356
33849W        W 2190  10.278   3.878   3.288
33850W        W 2191  44.278  37.935   4.646
33851W        W 2192  28.184   0.946   4.331
33852W        W 2193   2.745  10.647   0.317
33853W        W 2194  26.172  26.142   0.743
33854W        W 2195   5.704  43.374   1.216
33855W        W 2196  17.090  14.827  13.917
33856W        W 2197  35.524   1.758  13.422
33857W        W 2198  17.139  24.688  13.335
33858W        W 2199  16.204  44.477   4.256
33859W        W 2200  28.071  31.099  13.345
33860W        W 2201  32.446  42.923  14.459
33861W        W 2202  16.208  11.780  13.463
33862W        W 2203  36.471  24.993   1.226
33863W        W 2204  39.461  30.998  13.977
33864W        W 2205  38.510   5.716  12.953
33865W        W 2206   3.318   4.853  11.514
33866W        W 2207  37.571  12.728   0.765
33867W        W 2208   7.716   3.328   1.323
33868W        W 2209  16.665  19.707  14.407
33869W        W 2210  21.598  10.301   3.217
33870W        W 2211  29.520   8.840   2.394
33871W        W 2212  19.178  11.252   1.358
33872W        W 2213  16.205  18.658  12.989
33873W        W 2214  16.231   1.775   4.788
33874W        W 2215  24.161   0.964   0.291
33875W        W 2216  30.149  31.151   4.777
33876W        W 2217   3.862  14.707   4.173
33877W        W 2218  44.358   9.203  14.971
33878W        W 2219  29.996  43.821   0.958
33879W        W 2220  32.014  11.658   4.317
33880W        W 2221  31.488  30.533   2.762
33881W        W 2222  40.886  20.734   2.891
33882W        W 2223  18.224  43.347  13.326
33883W        W 2224  26.036  41.436  11.409
33884W        W 2225  23.067  37.006   4.346
33885W        W 2226  42.981  33.006  11.902
33886W        W 2227  24.483  17.186   0.256
33887W        W 2228  14.609  11.719  12.015
33888W        W 2229  14.748  14.646  11.582
33889W        W 2230  16.295   8.856  12.825
33890W        W 2231   8.341  37.075  10.909
33891W        W 2232  26.591   4.921  12.088
33892W        W 2233  37.364   5.282  12.376
33893W        W 2234  39.407  40.347   3.846
33894W        W 2235   7.879   1.817  10.632
33895W        W 2236  31.540  37.885  13.921
33896W        W 2237   2.914  43.908   4.694
33897W        W 2238  37.338  24.099   2.718
33898W        W 2239  27.490  41.999  14.780
33899W        W 2240   0.471  19.078   3.197
33900W        W 2241   3.904   2.857   1.862
33901W        W 2242  11.354  41.538  13.898
33902W        W 2243  30.974  31.597   0.254
33903W        W 2244  38.051  24.132  12.867
33904W        W 2245  30.103  17.082   0.858
33905W        W 2246  11.760  40.438   3.154
33906W        W 2247  26.493  17.766  12.973
33907W        W 2248  11.828   8.343   0.834
33908W        W 2249  11.221  35.433  14.458
33909W        W 2250  31.504   2.284   3.646
33910W        W 2251   9.184  12.648  13.324
33911W        W 2252  43.270  25.162  13.906
33912W        W 2253   3.920  15.220  13.369
33913W        W 2254  35.973  44.343   3.232
33914W        W 2255  42.840  40.935   2.255
33915W        W 2256  14.193  20.766  12.897
33916W        W 2257  11.864  18.584   2.222
33917W        W 2258   0.425  38.533   3.340
33918W        W 2259  35.897  26.477  11.968
33919W        W 2260  24.491  39.350   2.673
33920W        W 2261  42.786  21.601  11.989
33921W        W 2262   0.372  41.879   3.276
33922W        W 2263  38.917  43.818   1.240
33923W        W 2264  34.028  15.150  10.492
33924W        W 2265  28.027   6.407   4.135
33925W        W 2266   4.807  11.775   3.636
33926W        W 2267  17.091  26.633   5.227
33927W        W 2268  16.168   1.811  13.435
33928W        W 2269  39.809  15.137   2.734
33929W        W 2270   2.824  12.319  10.471
33930W        W 2271  39.448  27.066   0.349
33931W        W 2272  39.883  31.580   2.724
33932W        W 2273  42.394   7.766  13.448
33933W        W 2274  29.040  36.577   1.835
33934W        W 2275  37.893  37.450   2.414
33935W        W 2276  30.920  43.401  11.376
33936W        W 2277  37.368  25.143  11.913
33937W        W 2278  41.817   1.851   0.331
33938W        W 2279  27.611  18.756   4.164
33939W        W 2280   6.790   5.858   3.636
33940W        W 2281   0.250   9.801   0.778
33941W        W 2282  10.708  12.295   5.239
33942W        W 2283   1.360  10.268  11.127
33943W        W 2284  32.403  10.651   4.691
33944W        W 2285   3.334   1.865  10.606
33945W        W 2286   6.383  17.762   0.748
33946W        W 2287  39.434  12.701  14.986
33947W        W 2288  14.193  24.593  11.925
33948W        W 2289  24.203   0.844  10.639
33949W        W 2290  20.090   0.821   3.328
33950W        W 2291   2.371  14.761  11.451
33951W        W 2292  40.870  25.524   4.229
33952W        W 2293   5.284  30.659   0.919
33953W        W 2294  10.789  25.195  12.947
33954W        W 2295  30.049   4.401  12.546
33955W        W 2296  20.142  33.471  10.955
33956W        W 2297   8.383  24.165  14.957
33957W        W 2298   7.849  36.422  13.955
33958W        W 2299  36.088  41.392  12.985
33959W        W 2300  21.089  15.098  12.569
33960W        W 2301  17.287  40.525  11.974
33961W        W 2302  42.286  26.048   1.237
33962W        W 2303   1.391  33.029   3.805
33963W        W 2304  17.111  44.817   3.176
33964W        W 2305  39.855  27.624  12.996
33965W        W 2306  10.818   0.943   0.361
33966W        W 2307  15.702  26.972   1.313
33967W        W 2308  43.929   1.467   4.115
33968W        W 2309  40.819   8.195   2.221
33969W        W 2310  10.163   6.845  13.502
33970W        W 2311  31.967  22.199  13.045
33971W        W 2312  12.725  28.630  12.416
33972W        W 2313  24.605  18.159  14.495
33973W        W 2314   8.355  33.494  13.845
33974W        W 2315   5.219  10.662   1.411
33975W        W 2316  16.568  29.054   3.658
33976W        W 2317  23.083  14.835  11.933
33977W        W 2318  42.946  15.743  10.905
33978W        W 2319  15.283  19.599   4.322
33979W        W 2320  13.623   1.801  10.932
33980W        W 2321  13.139  27.469   0.245
33981W        W 2322  19.118   3.827   1.378
33982W        W 2323   4.935   3.411  13.828
33983W        W 2324  27.464  28.123   3.304
33984W        W 2325  24.499   8.160   2.805
33985W        W 2326   9.871  18.707   4.830
33986W        W 2327  12.338   6.195   4.816
33987W        W 2328  19.190  43.398   2.825
33988W        W 2329  41.406  35.529   1.273
33989W        W 2330   8.801  18.262   1.392
33990W        W 2331  11.863  26.160   4.229
33991W        W 2332  13.338  20.246   0.453
33992W        W 2333  16.607  27.168  14.864
33993W        W 2334  32.967  31.553   3.185
33994W        W 2335  13.631  12.236   4.638
33995W        W 2336  31.969  28.440  11.951
33996W        W 2337  10.332  44.009   0.910
33997W        W 2338  25.068  28.502  10.999
33998W        W 2339  40.426  34.087  14.948
33999W        W 2340   0.915  10.263   4.830
34000W        W 2341   7.217   8.877  12.947
34001W        W 2342  17.680   5.706   4.699
34002W        W 2343   6.190  32.409   2.217
34003W        W 2344  35.891  21.633   4.752
34004W        W 2345  42.807  16.072  13.025
34005W        W 2346  13.111  16.772  10.458
34006W        W 2347  30.024  39.899  12.003
34007W        W 2348  26.633  27.450   4.202
34008W        W 2349   8.824   3.768  12.023
34009W        W 2350  22.031  25.974  11.020
34010W        W 2351  38.495  13.242   4.690
34011W        W 2352  18.101  19.753  14.349
34012W        W 2353  34.000  41.430   2.795
34013W        W 2354  29.664  33.448   2.373
34014W        W 2355  33.982  12.227  13.336
34015W        W 2356  11.233   5.697  13.536
34016W        W 2357  14.146  18.225  13.414
34017W        W 2358   6.911  32.425  12.053
34018W        W 2359  11.766  42.452  13.320
34019W        W 2360  10.842   0.840   3.242
34020W        W 2361  23.070  29.943  14.970
34021W        W 2362   0.426  36.575   1.308
34022W        W 2363  23.725  18.596   2.283
34023W        W 2364  39.326  33.537  12.057
34024W        W 2365   0.975  42.296   4.599
34025W        W 2366  24.127  24.108  12.368
34026W        W 2367   6.916  26.017   3.217
34027W        W 2368   0.919   4.285   1.212
34028W        W 2369   7.412   2.853  10.958
34029W        W 2370  10.720   8.897  12.969
34030W        W 2371  19.104  14.127  11.934
34031W        W 2372  26.688  28.580   1.822
34032W        W 2373  35.861  19.598   3.264
34033W        W 2374  31.086   6.369  10.032
34034W        W 2375   7.890  23.553  13.474
34035W        W 2376  13.827  33.894   0.261
34036W        W 2377  38.835  12.714   3.867
34037W        W 2378   2.837  16.206   1.844
34038W        W 2379  13.251  44.863  14.506
34039W        W 2380  18.252  27.658  14.856
34040W        W 2381   0.843  44.948  14.423
34041W        W 2382  10.312  44.802  14.820
34042W        W 2383  25.600  31.596  13.063
34043W        W 2384  33.083  25.203  11.486
34044W        W 2385  39.504  15.257  14.363
34045W        W 2386  20.121   8.358   3.246
34046W        W 2387  42.857  32.916   4.125
34047W        W 2388  31.911  29.062  13.539
34048W        W 2389  16.584  25.095   4.256
34049W        W 2390  41.953  40.537   1.293
34050W        W 2391  24.532   0.844  14.436
34051W        W 2392  13.267  17.702   2.364
34052W        W 2393  18.107  14.704   0.364
34053W        W 2394  10.634  11.310   1.845
34054W        W 2395  13.288  34.532  14.836
34055W        W 2396  12.769  20.119  13.865
34056W        W 2397  21.223  23.025  13.967
34057W        W 2398  43.326   5.277   4.620
34058W        W 2399  33.008  35.537  14.804
34059W        W 2400   4.237  14.778  10.999
34060W        W 2401  40.945   8.160   0.296
34061W        W 2402  42.356  27.574  14.363
34062W        W 2403  36.885  36.487   4.125
34063W        W 2404  44.831  24.982  14.442
34064W        W 2405  44.345  27.575  12.860
34065W        W 2406  13.339  42.406   4.834
34066W        W 2407  15.115  34.423   2.819
34067W        W 2408   1.812  28.456   2.882
34068W        W 2409   7.740   3.437  10.624
34069W        W 2410  15.137  15.128  12.413
34070W        W 2411  39.979  17.207   0.413
34071W        W 2412  40.493   4.924  13.404
34072W        W 2413  44.475  23.077   1.932
34073W        W 2414  30.068  44.390  13.026
34074W        W 2415   6.216  44.872   2.868
34075W        W 2416  26.594  13.192  12.376
34076W        W 2417   0.758   4.426  11.476
34077W        W 2418  28.623  19.617  12.567
34078W        W 2419   8.251  35.595   1.694
34079W        W 2420  11.213  43.448  13.540
34080W        W 2421   1.333  16.786  12.840
34081W        W 2422   6.786  33.055  12.927
34082W        W 2423  39.398   0.797   2.782
34083W        W 2424  40.406  42.972  12.092
34084W        W 2425  16.636  39.337  10.405
34085W        W 2426  17.294  30.963  11.966
34086W        W 2427  37.374  22.064  12.934
34087W        W 2428   6.279   4.848  13.872
34088W        W 2429  21.254   1.828   3.269
34089W        W 2430   9.150  42.447  13.437
34090W        W 2431  33.450   2.876   0.255
34091W        W 2432  13.683  38.383   9.620
34092W        W 2433  40.989  15.221   0.477
34093W        W 2434  36.853   2.453   2.215
34094W        W 2435  42.837  20.619  10.004
34095W        W 2436  33.588   8.251  11.860
34096W        W 2437  13.269  27.137   2.899
34097W        W 2438  28.025  27.956  14.284
34098W        W 2439  44.382  16.771  10.041
34099W        W 2440  16.803  21.558   0.758
34100W        W 2441  35.101  19.109  14.392
34101W        W 2442  39.554  21.169   3.779
34102W        W 2443  42.025  41.328  13.915
34103W        W 2444  25.708  37.518  11.862
34104W        W 2445   4.709   3.822  12.353
34105W        W 2446   4.349  15.298  10.564
34106W        W 2447   9.725   0.363  12.886
34107W        W 2448   8.808  17.705  12.575
34108W        W 2449  37.873  22.746   1.888
34109W        W 2450  16.268  30.520  14.883
34110W        W 2451  36.905  31.578   1.254
34111W        W 2452   9.329   8.389  14.910
34112W        W 2453  12.693   3.385  11.965
34113W        W 2454  35.442   1.967  10.440
34114W        W 2455   8.696  15.708  12.469
34115W        W 2456  33.909  33.398   0.458
34116W        W 2457  26.019   5.244   4.272
34117W        W 2458  21.727  15.711   4.340
34118W        W 2459  22.242  19.259   2.760
34119W        W 2460  42.797   7.282  11.409
34120W        W 2461  13.599  26.585  12.378
34121W        W 2462  25.526  19.561  14.832
34122W        W 2463  18.287  16.582   1.331
34123W        W 2464  17.174  10.303  14.928
34124W        W 2465  19.750  34.948  13.444
34125W        W 2466  11.218  24.096   3.796
34126W        W 2467  15.598  15.190  12.579
34127W        W 2468  33.959   0.945  13.313
34128W        W 2469  30.480  40.355  13.015
34129W        W 2470  14.278   8.714  10.925
34130W        W 2471  13.319   6.237  14.869
34131W        W 2472  44.951   5.399  13.520
34132W        W 2473  22.642  26.516   1.299
34133W        W 2474  44.313   8.748  12.988
34134W        W 2475  20.112  13.215   3.643
34135W        W 2476  30.501  27.090   0.377
34136W        W 2477  34.039  25.213  11.123
34137W        W 2478  24.219   2.888   4.246
34138W        W 2479   5.762  20.210   2.819
34139W        W 2480  14.206  39.343   4.287
34140W        W 2481  25.209   0.356  14.959
34141W        W 2482  28.037  21.108  12.341
34142W        W 2483  26.102   3.828  13.893
34143W        W 2484   4.293  20.751  13.452
34144W        W 2485   5.275  29.667   3.196
34145W        W 2486  29.503  34.428   3.642
34146W        W 2487  12.829   6.836  13.955
34147W        W 2488  10.831  24.047  14.299
34148W        W 2489  26.091  26.125  13.368
34149W        W 2490  36.900   1.746   1.274
34150W        W 2491  13.294  16.644   1.785
34151W        W 2492  27.672  39.448   1.704
34152W        W 2493  36.992  44.849   2.663
34153W        W 2494   6.912  30.960   0.316
34154W        W 2495  18.148   1.476  11.451
34155W        W 2496  31.106  21.752  11.924
34156W        W 2497   7.721  18.105  13.365
34157W        W 2498  27.183  15.738  10.016
34158W        W 2499  27.529   2.303   4.628
34159W        W 2500  20.531  29.495   4.723
34160W        W 2501  12.148  28.630   0.936
34161W        W 2502   7.240  34.972  14.503
34162W        W 2503   6.737  33.943   2.299
34163W        W 2504  35.421   3.730   4.768
34164W        W 2505  25.662  30.492  14.952
34165W        W 2506  35.864  26.597   4.227
34166W        W 2507   8.180  32.042   1.244
34167W        W 2508  36.433   1.801  14.987
34168W        W 2509  34.995  39.843  10.047
34169W        W 2510  42.990  29.060   2.728
34170W        W 2511  20.726  43.011   2.895
34171W        W 2512   4.834  31.907  14.414
34172W        W 2513  42.441  18.586  12.427
34173W        W 2514  24.096  24.670  11.935
34174W        W 2515  12.207  29.423   0.304
34175W        W 2516   5.701  10.654   2.781
34176W        W 2517  29.428  27.177  11.037
34177W        W 2518  19.168  25.145   4.174
34178W        W 2519  12.326  41.978   0.823
34179W        W 2520  18.232  40.490   1.760
34180W        W 2521   3.769  22.575   0.434
34181W        W 2522  39.374  42.457  12.884
34182W        W 2523  11.815  10.306   9.583
34183W        W 2524   5.329   7.902   1.374
34184W        W 2525  13.795  11.185   4.241
34185W        W 2526  33.909  17.671  13.958
34186W        W 2527   0.956  22.196   2.408
34187W        W 2528  16.713  28.440   0.461
34188W        W 2529  39.986  30.491   1.266
34189W        W 2530  31.950  20.644  13.796
34190W        W 2531   8.700  42.497   0.383
34191W        W 2532  35.001  26.103  12.841
34192W        W 2533  23.728  41.867   3.222
34193W        W 2534  13.710  26.150   3.262
34194W        W 2535  10.294  41.324   4.245
34195W        W 2536   4.747  16.628   3.239
34196W        W 2537  13.128  11.720  13.901
34197W        W 2538  40.910  40.375   4.311
34198W        W 2539   3.354  25.176   3.215
34199W        W 2540   1.953  25.029  11.043
34200W        W 2541   8.806  44.990  13.053
34201W        W 2542  33.496  19.243   1.239
34202W        W 2543  19.274  30.021  13.998
34203W        W 2544  41.365  18.255  13.513
34204W        W 2545  36.061  21.212   5.216
34205W        W 2546  35.955  34.981   1.384
34206W        W 2547  12.779   0.491  14.990
34207W        W 2548  10.172  36.564  10.952
34208W        W 2549  43.391  23.040   2.348
34209W        W 2550  14.278   4.744  14.412
34210W        W 2551   0.949  12.736   0.254
34211W        W 2552  40.427  10.217   1.281
34212W        W 2553  24.485  28.003  10.446
34213W        W 2554  19.756   8.339   3.364
34214W        W 2555  16.110  35.386   2.310
34215W        W 2556  16.665  44.956   3.768
34216W        W 2557  22.566  35.109  11.979
34217W        W 2558  29.495  28.136  11.514
34218W        W 2559   5.713  36.940  14.431
34219W        W 2560  26.174  24.627   0.266
34220W        W 2561  25.967  18.208   3.828
34221W        W 2562  24.656  16.648   0.929
34222W        W 2563   5.715  43.878   4.780
34223W        W 2564  17.198  19.102  10.069
34224W        W 2565   2.839  36.550  12.026
34225W        W 2566   0.756  28.620  13.894
34226W        W 2567  38.488  38.940  10.506
34227W        W 2568  12.248   3.780   1.354
34228W        W 2569   4.861   6.844  10.119
34229W        W 2570  38.379  17.080   2.713
34230W        W 2571  28.604  17.179  12.939
34231W        W 2572  35.956  30.087  14.400
34232W        W 2573  15.619  27.066   2.187
34233W        W 2574  29.983   8.267   4.703
34234W        W 2575   7.675  33.896  13.038
34235W        W 2576  36.579   9.244  12.424
34236W        W 2577  31.916  23.219  12.508
34237W        W 2578  34.600  36.362   4.741
34238W        W 2579   7.306  35.890  11.030
34239W        W 2580  15.814  33.527  14.463
34240W        W 2581  23.197   3.835  10.618
34241W        W 2582  19.778  21.603   1.816
34242W        W 2583   7.717  33.908   0.730
34243W        W 2584  33.422  41.992   0.442
34244W        W 2585  19.662  11.200  10.489
34245W        W 2586  20.071   5.739  10.441
34246W        W 2587   3.875   6.286  13.431
34247W        W 2588  25.503  42.848  12.447
34248W        W 2589   9.189   3.916   1.265
34249W        W 2590   1.342   8.250   1.425
34250W        W 2591  44.798  20.038   3.700
34251W        W 2592  15.581  18.146   1.275
34252W        W 2593  33.489  37.351  14.312
34253W        W 2594  14.783  43.515  11.106
34254W        W 2595  31.564  24.529  13.994
34255W        W 2596  40.400  26.049  12.573
34256W        W 2597  27.174  26.601  13.357
34257W        W 2598  38.562  31.639   4.606
34258W        W 2599  10.637  29.979   4.347
34259W        W 2600  42.306  20.209  10.147
34260W        W 2601   3.873  18.656   2.283
34261W        W 2602  12.261  21.239  12.543
34262W        W 2603   7.288  13.815   2.277
34263W        W 2604  40.010  14.832  12.552
34264W        W 2605  43.424   8.197   0.308
34265W        W 2606  23.697  15.698  13.025
34266W        W 2607   6.903  10.640   2.707
34267W        W 2608  36.531  28.164   3.833
34268W        W 2609   1.382  42.416   0.888
34269W        W 2610   8.348  36.429   4.243
34270W        W 2611  13.167  13.123   2.392
34271W        W 2612  17.742  28.578   4.779
34272W        W 2613   4.879  26.015  13.463
34273W        W 2614  38.971  37.937  11.124
34274W        W 2615  28.508  22.679   0.334
34275W        W 2616  42.839  16.622   4.779
34276W        W 2617   2.346   5.728   2.793
34277W        W 2618  34.880  41.322   2.883
34278W        W 2619  41.423  14.182  12.517
34279W        W 2620  35.853  29.484   1.427
34280W        W 2621  37.383   9.284  14.805
34281W        W 2622  15.172  22.616   5.161
34282W        W 2623  12.153  38.496  10.535
34283W        W 2624  29.120   7.902   1.232
34284W        W 2625  19.072   0.446  13.482
34285W        W 2626   3.325   6.284   2.746
34286W        W 2627  10.189   2.926   4.219
34287W        W 2628  30.514  39.974  11.027
34288W        W 2629  20.090   6.221   5.139
34289W        W 2630   1.793  12.212  12.914
34290W        W 2631  44.378  37.874  13.799
34291W        W 2632  28.620   8.191  14.787
34292W        W 2633  44.402  36.844   4.129
34293W        W 2634  34.497  14.330  11.921
34294W        W 2635  44.415  41.363   3.359
34295W        W 2636  16.770   8.743   2.264
34296W        W 2637  23.123  17.800   1.803
34297W        W 2638   9.655  23.032   3.834
34298W        W 2639   6.284  37.557   0.745
34299W        W 2640  22.709  11.261   0.423
34300W        W 2641  25.053  20.185   1.251
34301W        W 2642  23.106  37.951  13.996
34302W        W 2643   1.468   9.754  13.875
34303W        W 2644   6.682   5.211   2.675
34304W        W 2645   1.469  10.809  13.903
34305W        W 2646   8.257  19.568   0.911
34306W        W 2647  13.248  23.003  10.490
34307W        W 2648  12.734  14.653   1.736
34308W        W 2649  41.021  41.787   0.345
34309W        W 2650  44.264  38.524   1.704
34310W        W 2651  41.359   7.908   3.713
34311W        W 2652   6.313  42.435  13.384
34312W        W 2653  26.052  22.567   2.299
34313W        W 2654  13.840  31.011   2.298
34314W        W 2655  33.079   1.856   2.189
34315W        W 2656  24.587  39.939  13.839
34316W        W 2657  21.616  38.353   4.273
34317W        W 2658  34.377  27.978   3.683
34318W        W 2659  30.444  18.702   3.835
34319W        W 2660  11.852  21.068   4.159
34320W        W 2661  22.030  23.175   0.791
34321W        W 2662   6.423  16.216   2.179
34322W        W 2663  13.116   1.891   3.151
34323W        W 2664  27.161  40.929  14.322
34324W        W 2665  37.393  41.384  10.000
34325W        W 2666   0.891  38.050   1.715
34326W        W 2667  27.639   8.272   0.819
34327W        W 2668  39.995  44.457   1.393
34328W        W 2669  35.470   0.378  14.450
34329W        W 2670   2.338   4.894  12.521
34330W        W 2671  20.676  10.769   1.361
34331W        W 2672  12.221  42.026   2.826
34332W        W 2673  23.547  39.945  14.299
34333W        W 2674  39.381   3.325   4.723
34334W        W 2675  17.788   6.793   4.737
34335W        W 2676  16.599   9.716   0.351
34336W        W 2677   6.326  28.141  13.967
34337W        W 2678  13.295  24.976  14.850
34338W        W 2679  25.163  30.608  12.937
34339W        W 2680  22.137  23.057   2.790
34340W        W 2681  31.551  15.655   3.761
34341W        W 2682   8.679  35.399   1.884
34342W        W 2683  38.045   4.722   9.934
34343W        W 2684  40.440  11.216   4.303
34344W        W 2685   5.910  42.019  12.063
34345W        W 2686  17.080  28.461   1.707
34346W        W 2687  13.115  27.491   3.639
34347W        W 2688  28.591   7.693   3.248
34348W        W 2689  44.374  19.177  14.939
34349W        W 2690   4.212  15.643   2.345
34350W        W 2691  40.861   3.300   3.324
34351W        W 2692  16.740  16.134   0.868
34352W        W 2693   8.890  38.471   3.179
34353W        W 2694  38.551  20.168   3.763
34354W        W 2695   6.880  40.030   1.430
34355W        W 2696  42.838  23.177  11.396
34356W        W 2697  24.554   6.786  12.927
34357W        W 2698  29.534  36.438  13.938
34358W        W 2699  37.357  20.625  13.322
34359W        W 2700  11.251  38.943  10.545
34360W        W 2701  23.724  18.741   3.761
34361W        W 2702  15.163   5.694  11.086
34362W        W 2703  27.520  20.674   4.282
34363W        W 2704  16.156  36.856  14.481
34364W        W 2705   3.352  15.610  13.334
34365W        W 2706   2.267   2.871   3.353
34366W        W 2707  37.468   4.923  11.061
34367W        W 2708   5.334  27.552  11.119
34368W        W 2709  24.698  25.080   0.257
34369W        W 2710  27.979  20.255  10.430
34370W        W 2711  36.556  29.515  10.546
34371W        W 2712  41.483  30.981  14.999
34372W        W 2713  44.343  21.653  10.508
34373W        W 2714  17.754  25.711  11.977
34374W        W 2715  35.410   5.253   2.255
34375W        W 2716   1.395  20.562   1.268
34376W        W 2717  22.060  38.839  11.471
34377W        W 2718  15.207  30.138  10.603
34378W        W 2719  41.343   6.725   2.254
34379W        W 2720  43.772  18.556   5.758
34380W        W 2721  26.202  26.955   0.891
34381W        W 2722  12.199  23.667  11.021
34382W        W 2723  20.576  25.176  12.556
34383W        W 2724   3.240   7.909  14.508
34384W        W 2725  43.420  16.231  10.471
34385W        W 2726  36.512  37.358  10.608
34386W        W 2727  21.076   5.892  13.539
34387W        W 2728  33.033  37.053   4.783
34388W        W 2729  25.654  44.874   2.330
34389W        W 2730  43.787  35.374   4.802
34390W        W 2731  33.925  16.803   2.780
34391W        W 2732  27.608  41.950  11.422
34392W        W 2733  24.101  23.511   4.723
34393W        W 2734  16.192  25.083   0.906
34394W        W 2735   3.229  26.699   2.672
34395W        W 2736  14.328  26.559  10.951
34396W        W 2737  10.220  24.680  12.543
34397W        W 2738   7.881  27.116   1.240
34398W        W 2739  17.177   2.232  10.615
34399W        W 2740   1.303  19.693   4.808
34400W        W 2741  10.309  13.342   0.250
34401W        W 2742  22.232  21.242   0.902
34402W        W 2743  27.562  34.457   0.868
34403W        W 2744   0.907  16.091  10.497
34404W        W 2745   5.393  38.525   2.346
34405W        W 2746  12.765  12.182   4.157
34406W        W 2747  12.793  22.045   4.350
34407W        W 2748  32.982  12.823  11.418
34408W        W 2749   2.798  37.509  14.334
34409W        W 2750   1.303   6.369  13.967
34410W        W 2751  33.503  27.545  10.413
34411W        W 2752  16.084  31.020  12.009
34412W        W 2753  14.319  33.536  11.388
34413W        W 2754  17.174   2.828  14.447
34414W        W 2755  25.521  33.540   5.139
34415W        W 2756  16.126   1.896  13.861
34416W        W 2757  14.679   6.204  14.861
34417W        W 2758  38.929  26.694   4.739
34418W        W 2759  11.640  24.060   1.823
34419W        W 2760  42.942  19.069   5.185
34420W        W 2761  39.064  41.027  12.502
34421W        W 2762  31.535   3.301  11.405
34422W        W 2763  14.094   4.369  13.526
34423W        W 2764  19.742  30.481   2.774
34424W        W 2765  42.968  34.491   2.885
34425W        W 2766   3.712   2.780  13.387
34426W        W 2767  41.475  37.010  14.015
34427W        W 2768  33.073  12.116   0.738
34428W        W 2769  22.146  37.941   0.886
34429W        W 2770  33.571   4.737   2.721
34430W        W 2771  31.590  25.181  14.026
34431W        W 2772  16.132  34.475   2.249
34432W        W 2773  28.130  25.220   2.346
34433W        W 2774  34.068   3.817   1.262
34434W        W 2775  37.386  11.822  14.002
34435W        W 2776  39.408  31.614  11.970
34436W        W 2777  33.578  17.070   2.227
34437W        W 2778  42.406   4.298  10.478
34438W        W 2779  10.245  19.737  10.127
34439W        W 2780   7.748  40.031  12.538
34440W        W 2781  37.339   9.789   3.258
34441W        W 2782   0.464  30.113   3.241
34442W        W 2783  31.002   7.877   1.302
34443W        W 2784  37.514  40.369  11.604
34444W        W 2785   1.298  35.422  13.417
34445W        W 2786  12.847  27.980  13.353
34446W        W 2787  44.886  22.148  14.446
34447W        W 2788  11.143  16.693   4.216
34448W        W 2789  32.419  40.369   2.839
34449W        W 2790  34.893  13.177   2.321
34450W        W 2791  41.953  34.938   0.835
34451W        W 2792  22.167  39.840   2.337
34452W        W 2793   3.799  19.649   1.440
34453W        W 2794  22.116  40.005   0.922
34454W        W 2795   8.832  10.733  10.069
34455W        W 2796  21.066  37.049   1.701
34456W        W 2797   2.270   5.356  12.447
34457W        W 2798  33.466  41.926   5.133
34458W        W 2799  44.441  39.418   3.358
34459W        W 2800   9.368  16.675   3.707
34460W        W 2801  38.557  34.375  14.009
34461W        W 2802   2.879  19.543   2.360
34462W        W 2803  43.841  10.849  11.040
34463W        W 2804   5.242   2.745   1.370
34464W        W 2805  27.480   5.341   2.293
34465W        W 2806  23.124  35.013  12.957
34466W        W 2807  37.032  12.265  12.452
34467W        W 2808  31.930  27.145   0.891
34468W        W 2809  21.621  34.604   0.856
34469W        W 2810  37.069  19.185  13.907
34470W        W 2811  35.031   9.326   4.785
34471W        W 2812  42.447  18.698   1.338
34472W        W 2813   0.921  19.180   3.219
34473W        W 2814   8.283  26.531   1.931
34474W        W 2815  42.004   4.942  10.152
34475W        W 2816   5.285  34.449  11.930
34476W        W 2817  22.650  22.683   2.323
34477W        W 2818  15.756  14.174  12.936
34478W        W 2819  42.032  27.670   2.291
34479W        W 2820  32.403  34.475  12.861
34480W        W 2821  41.997   8.815  13.023
34481W        W 2822  32.469  26.537   4.711
34482W        W 2823  40.344  12.141   4.698
34483W        W 2824  36.003  30.975   4.760
34484W        W 2825   0.748  17.203  12.093
34485W        W 2826  20.635   8.392  12.834
34486W        W 2827  19.252  37.942   4.720
34487W        W 2828  31.620  36.355   2.400
34488W        W 2829   5.810  20.050  13.046
34489W        W 2830   3.833  32.482  10.443
34490W        W 2831   4.363  16.187  13.315
34491W        W 2832  31.567  41.445  14.817
34492W        W 2833  25.140   3.844  10.898
34493W        W 2834  35.473  25.542  14.010
34494W        W 2835  23.713  41.957  12.078
34495W        W 2836   4.332  10.694  12.095
34496W        W 2837  27.489  19.126  14.404
34497W        W 2838  11.735  22.663   4.304
34498W        W 2839  33.450  35.011   4.696
34499W        W 2840  34.051  39.516  13.392
34500W        W 2841  26.640  14.138   1.927
34501W        W 2842  32.126  43.002  11.497
34502W        W 2843  18.613  31.085  14.990
34503W        W 2844  16.770  20.226   3.203
34504W        W 2845  26.037  37.422  11.897
34505W        W 2846  41.981  32.036  14.344
34506W        W 2847  43.875  41.411   2.253
34507W        W 2848  13.841  33.122  14.029
34508W        W 2849  43.957  22.611   4.165
34509W        W 2850   5.228  40.425  10.631
34510W        W 2851   2.753  24.175   2.334
34511W        W 2852   6.301   1.976  10.443
34512W        W 2853  26.618  40.923   2.769
34513W        W 2854  27.542  44.936  12.558
34514W        W 2855  33.401   0.808  13.356
34515W        W 2856  18.214  25.570   4.123
34516W        W 2857  31.507  36.490   1.434
34517W        W 2858   9.781  16.214   4.330
34518W        W 2859  24.622  16.286  11.976
34519W        W 2860  11.845  40.838   0.850
34520W        W 2861   2.765   5.309   0.405
34521W        W 2862   3.878  22.240   1.798
34522W        W 2863  35.475  24.717   0.833
34523W        W 2864  34.052  26.668  11.374
34524W        W 2865  32.631   0.957  14.952
34525W        W 2866  11.153  10.815   2.819
34526W        W 2867  43.973  39.442   0.782
34527W        W 2868  31.091  12.778   2.402
34528W        W 2869  17.143  32.992  10.903
34529W        W 2870  12.210  19.721  13.043
34530W        W 2871   3.416  38.338  13.878
34531W        W 2872  15.113  30.014   3.845
34532W        W 2873  13.176  43.298  10.479
34533W        W 2874  44.825  14.718   4.649
34534W        W 2875   7.814   3.951   1.901
34535W        W 2876  19.123  23.201  11.493
34536W        W 2877  34.044   8.396   4.714
34537W        W 2878   5.873  14.740   0.885
34538W        W 2879  19.093  34.883   1.428
34539W        W 2880   6.687   5.799  13.831
34540W        W 2881   1.771   5.753   3.172
34541W        W 2882   1.777   5.904  10.407
34542W        W 2883   3.378  38.847  11.433
34543W        W 2884  34.050   4.762  12.888
34544W        W 2885  17.686  23.152  10.011
34545W        W 2886  28.658  22.672   4.350
34546W        W 2887  22.612   9.149  11.877
34547W        W 2888  26.479  34.476  14.915
34548W        W 2889  36.052   2.789  11.941
34549W        W 2890  19.642  23.591   4.234
34550W        W 2891  44.841  22.221  10.942
34551W        W 2892  27.058   4.356   1.330
34552W        W 2893  42.354  25.040  10.507
34553W        W 2894  38.401   6.716   4.811
34554W        W 2895  11.256  20.633  14.823
34555W        W 2896  19.678  22.534   3.232
34556W        W 2897  18.288  29.467   0.284
34557W        W 2898  22.157  29.516  14.444
34558W        W 2899  28.116  14.331  14.394
34559W        W 2900  17.238  32.102   5.664
34560W        W 2901  31.930  42.281  12.544
34561W        W 2902   0.840  35.972   4.268
34562W        W 2903  28.053   4.859   1.278
34563W        W 2904  33.012  31.551  11.883
34564W        W 2905   6.888  39.055   2.721
34565W        W 2906  34.371  37.532  10.477
34566W        W 2907   0.283  27.504  13.938
34567W        W 2908   8.699   7.322  10.987
34568W        W 2909  36.067  13.651   0.920
34569W        W 2910  13.111  28.979   2.229
34570W        W 2911   2.892  18.275  11.523
34571W        W 2912  39.914   5.713  13.061
34572W        W 2913   4.766  31.624   0.938
34573W        W 2914   4.743   6.798   4.253
34574W        W 2915  14.664  35.950   4.665
34575W        W 2916  33.593  31.458   2.358
34576W        W 2917   1.438  27.024  14.433
34577W        W 2918  39.852  37.084  10.910
34578W        W 2919  28.017  22.585   3.166
34579W        W 2920  43.785  36.538   0.825
34580W        W 2921  44.805  28.947   3.840
34581W        W 2922   3.420  20.759  12.871
34582W        W 2923  33.472   3.439   2.191
34583W        W 2924  31.477  39.527  10.904
34584W        W 2925  33.931  17.801  14.376
34585W        W 2926  40.412  33.577  14.917
34586W        W 2927  17.188  24.194   1.698
34587W        W 2928  34.577  37.466   3.204
34588W        W 2929   4.901  26.577  13.017
34589W        W 2930  10.380  26.151  13.504
34590W        W 2931  28.137  19.679  11.079
34591W        W 2932   0.319  20.254  13.464
34592W        W 2933   0.343  42.399   2.369
34593W        W 2934  35.551  23.690  12.872
34594W        W 2935  28.642  39.921  13.450
34595W        W 2936  43.928  10.196  14.013
34596W        W 2937   9.182   8.707   0.930
34597W        W 2938  14.316  21.709   2.197
34598W        W 2939  15.265  43.355   4.612
34599W        W 2940  41.377  44.958   4.230
34600W        W 2941  25.533   3.316  14.284
34601W        W 2942   8.343  39.453  11.100
34602W        W 2943   5.245  43.923  12.450
34603W        W 2944   2.381  24.505  14.021
34604W        W 2945  30.098  30.495  14.329
34605W        W 2946  20.128   1.775  11.590
34606W        W 2947  20.217  27.150   3.286
34607W        W 2948  25.629  39.899  14.377
34608W        W 2949   9.686  14.683   3.349
34609W        W 2950   9.868  34.442   4.147
34610W        W 2951  32.526   6.209  14.497
34611W        W 2952  19.723  10.323   3.343
34612W        W 2953   5.251   1.773  11.000
34613W        W 2954   5.270   6.767  11.005
34614W        W 2955  37.034  21.226  14.470
34615W        W 2956  12.673  28.085   0.873
34616W        W 2957  30.025   6.369   3.653
34617W        W 2958  25.513   5.755  11.111
34618W        W 2959  15.301   4.218   2.901
34619W        W 2960  43.964  16.713  14.315
34620W        W 2961  41.948  32.965  10.639
34621W        W 2962   9.733  37.043   2.679
34622W        W 2963   8.340  42.378   0.319
34623W        W 2964  15.638  10.200  12.971
34624W        W 2965  36.433  26.023   2.329
34625W        W 2966  21.755  12.362  14.510
34626W        W 2967  11.802  26.125  14.459
34627W        W 2968   6.376  14.647  10.508
34628W        W 2969   6.417  19.056  14.947
34629W        W 2970  12.276  24.613  10.946
34630W        W 2971  11.747  39.840   2.828
34631W        W 2972   6.325   8.355   4.144
34632W        W 2973  30.971  27.635   0.847
34633W        W 2974  22.738  41.531  12.469
34634W        W 2975  18.734  13.335   0.299
34635W        W 2976   1.416  17.191  10.963
34636W        W 2977  26.078  18.057   5.152
34637W        W 2978  21.138   2.447  10.621
34638W        W 2979  23.640  11.804   3.261
34639W        W 2980  35.959  26.051   1.391
34640W        W 2981  42.802  17.788  14.971
34641W        W 2982  13.271  17.726  13.002
34642W        W 2983  21.178  16.770  12.487
34643W        W 2984  30.618   4.363  14.768
34644W        W 2985  38.871  31.488  10.054
34645W        W 2986   5.768   8.200   0.792
34646W        W 2987  22.644  25.049   3.167
34647W        W 2988  21.250  41.872  12.833
34648W        W 2989  20.599  28.087   0.430
34649W        W 2990  19.556  27.005  12.834
34650W        W 2991  28.091  34.103   0.250
34651W        W 2992  38.534  29.569  14.327
34652W        W 2993  15.123  41.843   1.844
34653W        W 2994  30.506  38.501   0.452
34654W        W 2995  13.222  16.686  11.482
34655W        W 2996  27.967  16.648   3.214
34656W        W 2997  34.461   3.397   4.785
34657W        W 2998  24.204  20.563  14.494
34658W        W 2999  14.801  43.429   0.423
34659W        W 3000  42.392  43.356  14.408
34660W        W 3001  43.410  14.112   0.770
34661W        W 3002  23.072  11.845   2.237
34662W        W 3003  24.093   9.158  10.909
34663W        W 3004   0.945  41.468  13.984
34664W        W 3005  18.175  24.077   1.424
34665W        W 3006  28.030  30.623  10.465
34666W        W 3007  41.029   6.825  14.899
34667W        W 3008   5.894   1.315   0.322
34668W        W 3009  15.209   0.936   4.196
34669W        W 3010   2.266   2.258  10.503
34670W        W 3011  22.664   7.414   3.704
34671W        W 3012   6.864  39.972  11.578
34672W        W 3013  10.812  14.597  14.470
34673W        W 3014  20.121  13.280  14.015
34674W        W 3015   4.206  30.655  14.031
34675W        W 3016   1.849  30.009  12.072
34676W        W 3017   0.887   0.372  11.386
34677W        W 3018  10.199  43.413  11.446
34678W        W 3019  34.453   5.803  14.903
34679W        W 3020  31.106   9.662  10.506
34680W        W 3021  40.469  31.970   3.148
34681W        W 3022   1.389  23.701   2.269
34682W        W 3023   2.778  21.198  13.857
34683W        W 3024   7.372  17.629  12.475
34684W        W 3025  11.232  29.620  13.925
34685W        W 3026  42.418  14.252   2.824
34686W        W 3027  35.906  12.695   0.965
34687W        W 3028   9.258  19.063   3.208
34688W        W 3029   2.870  23.505  11.512
34689W        W 3030  32.996   1.357  13.886
34690W        W 3031  19.609   5.422   3.870
34691W        W 3032  16.293  38.022  14.840
34692W        W 3033  44.435  38.971   0.958
34693W        W 3034  12.228  20.125  10.958
34694W        W 3035  18.272  24.163   4.319
34695W        W 3036   9.199  36.032   2.265
34696W        W 3037  33.613  29.492   1.907
34697W        W 3038  22.222  24.570  14.360
34698W        W 3039  23.611   2.467  11.112
34699W        W 3040  31.431   4.855  14.948
34700W        W 3041  44.304   2.940   1.727
34701W        W 3042  10.212  25.172  13.989
34702W        W 3043   1.925  20.599   1.835
34703W        W 3044   3.368   8.262   3.272
34704W        W 3045  43.921  35.092  11.087
34705W        W 3046  29.620  16.139  10.618
34706W        W 3047   0.936   9.228   2.240
34707W        W 3048  27.491  42.358   3.775
34708W        W 3049  43.450  43.343   1.773
34709W        W 3050  26.475  10.192  11.986
34710W        W 3051  42.810  20.142  13.918
34711W        W 3052  44.432   1.879  10.982
34712W        W 3053   3.244  38.941   0.839
34713W        W 3054  43.955  16.669   3.219
34714W        W 3055  12.768  16.271  11.400
34715W        W 3056  42.296   5.354  13.383
34716W        W 3057  24.065  10.794  11.002
34717W        W 3058   7.408  23.641   2.232
34718W        W 3059  14.736   5.218  10.607
34719W        W 3060  11.849  40.025  13.811
34720W        W 3061  43.821  42.983   2.695
34721W        W 3062  36.470  40.457   3.305
34722W        W 3063   5.433  32.467   1.315
34723W        W 3064  35.518  35.415  11.551
34724W        W 3065  10.145   3.741   2.698
34725W        W 3066  37.545  12.698   2.748
34726W        W 3067  32.399  35.453  13.407
34727W        W 3068   6.736  22.559  13.421
34728W        W 3069  41.982  21.131   3.336
34729W        W 3070  37.339  22.149   1.927
34730W        W 3071   2.335  25.983   1.310
34731W        W 3072  31.918   1.885   3.631
34732W        W 3073  16.095   8.175  10.536
34733W        W 3074   3.381  18.752  13.494
34734W        W 3075  29.625  20.088   2.863
34735W        W 3076   3.899  19.215   4.690
34736W        W 3077  43.969  37.556  11.959
34737W        W 3078  10.292  39.916   4.612
34738W        W 3079  27.077  19.052  13.044
34739W        W 3080  44.494  22.629   1.712
34740W        W 3081  25.112   6.907  12.072
34741W        W 3082  34.084  22.617   0.743
34742W        W 3083  19.208  37.493  12.073
34743W        W 3084  30.976  16.780   4.197
34744W        W 3085  41.305   7.899  10.945
34745W        W 3086  22.561  38.067   4.296
34746W        W 3087  16.140  28.973   4.631
34747W        W 3088  44.450  36.034   4.270
34748W        W 3089   9.353  19.179  11.464
34749W        W 3090   1.427  24.702  13.888
34750W        W 3091   9.878  42.015  11.548
34751W        W 3092  44.764  34.080  11.584
34752W        W 3093  16.153  11.248  13.938
34753W        W 3094   3.324  38.076   0.424
34754W        W 3095   4.753   5.427  11.575
34755W        W 3096  38.381  28.508   3.649
34756W        W 3097  33.899  10.254   2.737
34757W        W 3098  29.564   8.253  12.396
34758W        W 3099  32.052  43.812  13.820
34759W        W 3100  25.971  32.085   3.328
34760W        W 3101  39.816  37.975  14.910
34761W        W 3102  40.860  37.885  11.372
34762W        W 3103  18.295  30.442  12.486
34763W        W 3104   7.797  43.311   4.700
34764W        W 3105  21.130  15.804   1.293
34765W        W 3106  18.219  38.859   4.810
34766W        W 3107  17.801   5.271   2.700
34767W        W 3108  32.042  17.212   0.872
34768W        W 3109  10.837  31.526  13.811
34769W        W 3110  36.875  18.729   1.844
34770W        W 3111  10.879  27.511  14.468
34771W        W 3112  28.517  28.568   1.263
34772W        W 3113  37.087   7.392   0.844
34773W        W 3114  10.327  14.280  12.072
34774W        W 3115  15.186  21.194  14.491
34775W        W 3116  13.693   7.855   0.465
34776W        W 3117  43.323  22.084  10.464
34777W        W 3118  21.043  22.131  13.463
34778W        W 3119   8.781   9.858  11.000
34779W        W 3120  36.842  36.549  14.284
34780W        W 3121  30.635   3.950  12.347
34781W        W 3122  39.877   2.905   1.271
34782W        W 3123  11.133   3.238   0.252
34783W        W 3124   4.932  18.199   3.279
34784W        W 3125  28.172   4.241   4.661
34785W        W 3126  16.606  23.539  14.508
34786W        W 3127   0.271  17.298  12.938
34787W        W 3128   9.171  35.405  14.336
34788W        W 3129  39.511  37.485   0.746
34789W        W 3130  43.824  30.459   1.861
34790W        W 3131  44.411  25.200  13.472
34791W        W 3132  31.965  39.494  13.983
34792W        W 3133  34.552  29.023  13.345
34793W        W 3134  35.883  38.509   2.415
34794W        W 3135  30.555   6.814  11.053
34795W        W 3136  19.768  19.629  13.344
34796W        W 3137  12.184  18.229  10.585
34797W        W 3138  15.703  40.417   2.225
34798W        W 3139   0.412  19.617  14.028
34799W        W 3140  43.884  36.535  14.428
34800W        W 3141  40.969   2.828  14.913
34801W        W 3142  21.614  22.692   0.251
34802W        W 3143  22.711  32.594  14.822
34803W        W 3144  22.617   5.234   1.437
34804W        W 3145  11.682  15.275  12.057
34805W        W 3146  36.098  43.860   3.698
34806W        W 3147  15.207   6.885  12.362
34807W        W 3148   5.368  12.854  13.933
34808W        W 3149  31.577  41.510  12.962
34809W        W 3150  32.992   4.321   0.844
34810W        W 3151  11.809  21.747   1.420
34811W        W 3152  39.550  24.006   1.881
34812W        W 3153  10.274  13.339  12.043
34813W        W 3154  20.231   5.737   1.837
34814W        W 3155   9.159  38.921  10.973
34815W        W 3156  24.129   1.940   3.364
34816W        W 3157   0.776  12.731   0.754
34817W        W 3158  10.339   1.942  14.809
34818W        W 3159   3.944  27.169   1.755
34819W        W 3160  43.388  30.092   2.286
34820W        W 3161   5.210   6.782   3.637
34821W        W 3162   2.268  16.299  12.010
34822W        W 3163  43.357  16.267   4.255
34823W        W 3164   7.324  43.792  12.381
34824W        W 3165   9.155  13.350   0.898
34825W        W 3166   2.450  23.542  12.486
34826W        W 3167  37.861  31.411  12.842
34827W        W 3168  37.422  25.042   1.247
34828W        W 3169   8.663   1.247  12.028
34829W        W 3170  11.716   7.880   4.296
34830W        W 3171  19.157   6.829  14.955
34831W        W 3172  14.243  30.572  12.380
34832W        W 3173   0.291   4.228   4.805
34833W        W 3174  12.219  22.706  11.575
34834W        W 3175   3.757  42.339  10.441
34835W        W 3176  16.116  41.035   3.228
34836W        W 3177  12.628  39.421   3.291
34837W        W 3178   0.475  30.150   2.234
34838W        W 3179  35.526  13.153  11.078
34839W        W 3180  31.454  27.029  13.988
34840W        W 3181  26.649  43.770  12.443
34841W        W 3182  36.926  22.729  13.047
34842W        W 3183  40.806   8.824   3.766
34843W        W 3184   9.220  11.747  12.061
34844W        W 3185  31.439  12.624   2.825
34845W        W 3186  17.629  30.989  12.540
34846W        W 3187  27.599  29.589   4.178
34847W        W 3188  41.938   1.844  11.027
34848W        W 3189  21.150  42.425  10.910
34849W        W 3190  41.883   7.841   4.618
34850W        W 3191  14.622  28.175  12.559
34851W        W 3192  19.574  15.645  11.085
34852W        W 3193  11.259  25.202   3.633
34853W        W 3194  40.808  13.196   1.444
34854W        W 3195   3.281  26.486  10.645
34855W        W 3196  37.391  35.872  11.480
34856W        W 3197  22.022  20.531   2.706
34857W        W 3198  13.767  16.294   3.290
34858W        W 3199   6.271  34.031   0.861
34859W        W 3200  32.633  40.992   0.347
34860W        W 3201  38.919  40.465  14.996
34861W        W 3202  24.133  44.968   4.179
34862W        W 3203  38.394   3.356  10.991
34863W        W 3204  42.411   2.755  14.979
34864W        W 3205   1.405  18.789   1.339
34865W        W 3206  23.585  28.545  12.831
34866W        W 3207  15.092  37.379  14.463
34867W        W 3208  28.011  19.621  10.556
34868W        W 3209  26.476   7.744   4.303
34869W        W 3210  18.233  41.884   0.803
34870W        W 3211  12.276  21.229  10.095
34871W        W 3212   5.772  25.584  14.837
34872W        W 3213  40.926  14.159  13.954
34873W        W 3214  38.066  35.411  13.518
34874W        W 3215   7.688   2.857  10.415
34875W        W 3216  42.383  11.787   2.786
34876W        W 3217  11.852  16.271   1.277
34877W        W 3218  43.399  34.467  14.812
34878W        W 3219  24.174  10.786   4.608
34879W        W 3220  18.720  25.539  12.907
34880W        W 3221  24.512  13.326  10.416
34881W        W 3222  31.095  42.495   4.207
34882W        W 3223  38.005  21.583   1.340
34883W        W 3224  34.425  42.448  10.625
34884W        W 3225  10.257  37.041   3.667
34885W        W 3226  42.029  36.850  13.466
34886W        W 3227   0.410   5.746  10.635
34887W        W 3228  13.273   6.324  14.497
34888W        W 3229  34.407  19.580   1.769
34889W        W 3230  20.029  31.034  14.341
34890W        W 3231  21.700  29.647   4.826
34891W        W 3232  38.401  13.191  14.931
34892W        W 3233  41.348  25.092  13.032
34893W        W 3234  38.844  15.605  14.482
34894W        W 3235  34.077  42.875   1.870
34895W        W 3236  35.568  16.625  10.579
34896W        W 3237  18.636   6.198  13.437
34897W        W 3238  39.996   2.345  14.028
34898W        W 3239  15.154  20.052   3.637
34899W        W 3240  41.466  32.444  12.395
34900W        W 3241   6.697   5.395  10.570
34901W        W 3242  18.680  34.602   4.655
34902W        W 3243  17.263  18.723   2.335
34903W        W 3244   8.177   4.917   3.303
34904W        W 3245  20.188  13.162   4.653
34905W        W 3246  35.879  42.890   0.401
34906W        W 3247  30.505  35.090   0.778
34907W        W 3248  31.563  30.438  13.329
34908W        W 3249  27.092  32.104   0.748
34909W        W 3250  24.516  35.875  11.903
34910W        W 3251  44.282   6.308  11.087
34911W        W 3252  13.336  13.600  12.505
34912W        W 3253  17.572  28.547  11.909
34913W        W 3254  16.654  40.383   1.416
34914W        W 3255   0.403  35.102   3.330
34915W        W 3256  21.253  20.739  14.845
34916W        W 3257  39.035  10.736   3.791
34917W        W 3258  15.599  22.030   1.756
34918W        W 3259   7.414  38.334  14.029
34919W        W 3260  11.188  30.544   4.118
34920W        W 3261  43.302   3.898   4.210
34921W        W 3262  34.561  22.199  11.977
34922W        W 3263  18.727   7.826   4.211
34923W        W 3264  37.415  24.157  11.579
34924W        W 3265  13.272  12.316   5.223
34925W        W 3266   1.756  34.493  12.859
34926W        W 3267  10.826   4.840  13.452
34927W        W 3268  43.831  20.713  11.889
34928W        W 3269  43.887  30.015   3.641
34929W        W 3270  14.680  42.289   3.167
34930W        W 3271  10.698  17.705   2.354
34931W        W 3272  28.983  11.153  12.537
34932W        W 3273  34.441  17.797  14.312
34933W        W 3274  31.150  33.892  11.528
34934W        W 3275  12.680  35.510  11.419
34935W        W 3276  43.987  20.156  10.435
34936W        W 3277  24.046   6.219  10.079
34937W        W 3278  38.492  41.492  14.408
34938W        W 3279  23.677  14.673   0.901
34939W        W 3280   1.962  44.452   4.241
34940W        W 3281  29.476  32.125  12.500
34941W        W 3282  38.482   1.758  13.926
34942W        W 3283   8.797  41.510  12.448
34943W        W 3284  19.175  34.974  14.776
34944W        W 3285  14.743  10.178   3.676
34945W        W 3286  39.919   8.845  12.565
34946W        W 3287  41.508  13.190  13.431
34947W        W 3288  29.619  11.220   2.666
34948W        W 3289  11.715  30.656   3.641
34949W        W 3290   5.836  24.027   3.371
34950W        W 3291  37.038  14.736  11.114
34951W        W 3292  36.468  25.134  13.999
34952W        W 3293   3.373  33.106   0.279
34953W        W 3294  27.122   8.203   0.830
34954W        W 3295  29.067   9.677  13.401
34955W        W 3296   7.812  31.449  13.322
34956W        W 3297   7.400   4.864   0.432
34957W        W 3298   6.365   6.201  11.961
34958W        W 3299  22.205  41.962   2.258
34959W        W 3300  31.474  32.615   3.317
34960W        W 3301   6.804  43.886  11.858
34961W        W 3302   5.395  40.376  12.502
34962W        W 3303  24.123  12.318  12.341
34963W        W 3304  17.303  27.110  13.514
34964W        W 3305  17.195   1.790   0.819
34965W        W 3306  20.618  33.894  13.413
34966W        W 3307  14.792  38.371  12.080
34967W        W 3308  21.607  22.632   1.794
34968W        W 3309  32.444  12.762   0.776
34969W        W 3310   9.178   8.675   3.638
34970W        W 3311  26.580  36.527   4.216
34971W        W 3312  13.801  44.999  11.376
34972W        W 3313  33.617  36.480   2.313
34973W        W 3314  26.076  21.722   0.480
34974W        W 3315  10.868  32.137  14.782
34975W        W 3316  44.308  11.821  13.821
34976W        W 3317  22.068   1.290   4.612
34977W        W 3318  21.084  44.403  13.405
34978W        W 3319  28.147  24.974  13.897
34979W        W 3320  28.566  36.391   4.243
34980W        W 3321   3.844   3.424   0.966
34981W        W 3322  34.468  43.988  14.879
34982W        W 3323  18.594  24.689   4.786
34983W        W 3324  32.481  43.875  14.923
34984W        W 3325  29.041  17.598   4.277
34985W        W 3326  21.688  10.860   2.317
34986W        W 3327  21.084   1.286   1.303
34987W        W 3328  40.851  36.994   2.361
34988W        W 3329  38.961  40.010   2.837
34989W        W 3330   2.940  12.686   3.292
34990W        W 3331  18.251  41.034  13.317
34991W        W 3332  37.875  20.187  12.539
34992W        W 3333  32.605  33.546  12.417
34993W        W 3334   6.787   0.867   2.395
34994W        W 3335  33.552  12.169  14.349
34995W        W 3336  32.131  34.390  10.068
34996W        W 3337  10.257  27.580   1.881
34997W        W 3338   2.800   1.269   4.155
34998W        W 3339  44.458  41.925  10.089
34999W        W 3340   1.453  24.481   1.809
35000W        W 3341  19.142  35.967   1.870
35001W        W 3342  43.507  32.890   4.225
35002W        W 3343   3.876  13.761  10.458
35003W        W 3344   4.420  10.842   1.726
35004W        W 3345  16.253   1.437  12.861
35005W        W 3346   8.661  11.334   0.312
35006W        W 3347   3.758  15.604  11.994
35007W        W 3348  20.545  26.632   0.778
35008W        W 3349  15.306  30.932   1.324
35009W        W 3350  29.989  12.704  14.767
35010W        W 3351  29.136   6.401   1.436
35011W        W 3352  37.529  16.310   1.887
35012W        W 3353   0.832   6.417  13.020
35013W        W 3354  23.494   9.889   2.253
35014W        W 3355   7.183  32.101  11.507
35015W        W 3356  40.011   9.367  13.936
35016W        W 3357  17.143   4.298   4.682
35017W        W 3358  42.525   1.873  12.028
35018W        W 3359  33.398  20.262  13.978
35019W        W 3360  29.632  32.537  14.322
35020W        W 3361   2.421   2.277  11.540
35021W        W 3362  37.408  19.125  12.854
35022W        W 3363  26.189  23.989   3.830
35023W        W 3364   9.189   0.444  13.815
35024W        W 3365   3.953  41.450  13.891
35025W        W 3366  15.822  39.944   0.905
35026W        W 3367   3.286   4.268  12.092
35027W        W 3368  37.861  26.582   4.196
35028W        W 3369   8.268  38.030   4.138
35029W        W 3370  39.527  23.546   4.620
35030W        W 3371  32.594  10.202  12.884
35031W        W 3372   6.745   0.935   3.748
35032W        W 3373   9.319  22.029   2.314
35033W        W 3374  18.108   5.778  13.844
35034W        W 3375  12.765  26.192   3.163
35035W        W 3376  22.582  43.495  14.017
35036W        W 3377  33.048   6.913   4.747
35037W        W 3378  22.132   9.183   2.343
35038W        W 3379  25.133  43.419   3.664
35039W        W 3380  16.647  39.401   0.404
35040W        W 3381  37.844  28.177   3.192
35041W        W 3382  17.577   9.302   1.748
35042W        W 3383  39.955  18.609  11.870
35043W        W 3384  10.284  33.519  14.434
35044W        W 3385   3.413  25.570  11.503
35045W        W 3386  29.961  23.135   3.248
35046W        W 3387  10.348  10.750   4.206
35047W        W 3388   5.869  27.957  11.879
35048W        W 3389  37.832  44.862  11.372
35049W        W 3390  31.433  34.614  11.579
35050W        W 3391  37.992  31.457  13.544
35051W        W 3392  26.662   3.787  14.317
35052W        W 3393   8.744  37.477   1.854
35053W        W 3394  21.637  36.052   3.166
35054W        W 3395  12.347   2.841  14.438
35055W        W 3396  37.343  36.569  10.893
35056W        W 3397  31.433   6.325   3.212
35057W        W 3398  43.854  10.636  14.419
35058W        W 3399   4.224  40.000  11.103
35059W        W 3400  15.290  35.888   0.406
35060W        W 3401  37.391   1.798   2.751
35061W        W 3402  18.757  22.510   4.741
35062W        W 3403   3.938  12.737  11.122
35063W        W 3404   7.203   4.787   4.247
35064W        W 3405  19.738  11.801   3.817
35065W        W 3406  36.527  25.963   3.690
35066W        W 3407   3.789  10.796  14.832
35067W        W 3408  34.477  32.127  13.352
35068W        W 3409  23.206  35.603  14.367
35069W        W 3410  35.556   5.201   4.723
35070W        W 3411  36.383  21.161   4.650
35071W        W 3412  18.273  39.964   4.261
35072W        W 3413  39.843   8.765   4.781
35073W        W 3414  24.191  30.114  12.890
35074W        W 3415  26.652  27.606  12.398
35075W        W 3416  36.864  36.360   1.440
35076W        W 3417   8.655   5.730   2.725
35077W        W 3418  21.712  44.358   0.293
35078W        W 3419  29.064  24.623  11.417
35079W        W 3420   9.382   2.790   1.434
35080W        W 3421  39.894   5.332   4.250
35081W        W 3422  13.310  31.055  11.945
35082W        W 3423  13.678   5.226  13.814
35083W        W 3424   6.700  43.931   3.764
35084W        W 3425  24.704  24.080  10.533
35085W        W 3426  14.196  28.095  10.896
35086W        W 3427  43.278  20.589  14.414
35087W        W 3428   5.763   5.437   4.176
35088W        W 3429  20.031   9.221   0.803
35089W        W 3430  31.550  34.483   0.884
35090W        W 3431  41.969  40.410  14.944
35091W        W 3432  31.127  39.521   0.957
35092W        W 3433  44.977   9.882  10.520
35093W        W 3434  44.997  11.754   4.649
35094W        W 3435  40.881  29.926   4.350
35095W        W 3436  34.614  17.149   1.786
35096W        W 3437   5.266  31.444  10.529
35097W        W 3438  22.570   0.380  14.001
35098W        W 3439  36.497  35.075   2.229
35099W        W 3440  19.135  44.380  12.845
35100W        W 3441  15.097  44.308   0.289
35101W        W 3442  26.528  11.838   2.333
35102W        W 3443   3.327  11.364   3.180
35103W        W 3444  13.612  28.545  13.367
35104W        W 3445   0.848  20.160  13.474
35105W        W 3446  37.362  20.567  14.347
35106W        W 3447   9.785  21.055  10.631
35107W        W 3448   8.706  43.354  13.381
35108W        W 3449  12.829  32.490  10.604
35109W        W 3450  16.647  44.424  11.945
35110W        W 3451  30.580   2.955  11.406
35111W        W 3452  15.698   2.263  13.000
35112W        W 3453  21.090  41.534  10.972
35113W        W 3454  23.127  29.564   2.749
35114W        W 3455  28.949  27.994   2.338
35115W        W 3456  33.098  17.682   2.415
35116W        W 3457  17.625  16.099   0.774
35117W        W 3458  35.565  20.252   1.803
35118W        W 3459  32.952  43.833   4.127
35119W        W 3460  37.854  32.557   1.843
35120W        W 3461  36.954  16.569   2.292
35121W        W 3462  17.169  32.916   2.319
35122W        W 3463   6.771   2.422   2.293
35123W        W 3464   1.273  28.061  10.960
35124W        W 3465  24.513  25.502   3.280
35125W        W 3466  17.613  41.443  12.844
35126W        W 3467  24.151  18.632   3.249
35127W        W 3468   8.310  35.900   0.908
35128W        W 3469  43.393  32.495   1.375
35129W        W 3470  30.594  33.603   4.638
35130W        W 3471  17.688  11.260  13.520
35131W        W 3472  37.337   7.190  11.928
35132W        W 3473   7.744  39.449  10.477
35133W        W 3474   6.695  28.162   2.386
35134W        W 3475  39.057  13.332  10.516
35135W        W 3476  43.987  10.206  10.612
35136W        W 3477  22.506   7.258  11.459
35137W        W 3478   9.664   5.281  14.455
35138W        W 3479  30.618  35.370  14.421
35139W        W 3480   2.358  12.668   2.816
35140W        W 3481  23.665  32.506   2.270
35141W        W 3482  12.189  34.074  11.098
35142W        W 3483  44.369  10.321   1.435
35143W        W 3484  28.957  22.540  14.862
35144W        W 3485   0.361  16.717  12.095
35145W        W 3486  44.352  10.309  12.371
35146W        W 3487  23.617  13.248  11.411
35147W        W 3488  35.028  31.513   4.613
35148W        W 3489  42.452  10.847   4.615
35149W        W 3490  21.132  33.011   0.390
35150W        W 3491   6.842  21.081  11.485
35151W        W 3492  38.972  40.505  13.426
35152W        W 3493  22.695  31.506   1.316
35153W        W 3494   3.814  25.069   3.191
35154W        W 3495  36.988  41.438   3.675
35155W        W 3496  33.933  12.211  14.779
35156W        W 3497  10.680  20.637  11.556
35157W        W 3498  11.127  26.093  13.053
35158W        W 3499  29.034  41.843   1.245
35159W        W 3500  35.923  21.739  11.084
35160W        W 3501  24.111  39.536   2.231
35161W        W 3502  36.482  19.159  14.904
35162W        W 3503  34.026  13.757  14.485
35163W        W 3504  30.088  27.649   4.787
35164W        W 3505  27.629   0.393  10.531
35165W        W 3506  24.572  29.430  14.863
35166W        W 3507  21.513  17.574  12.501
35167W        W 3508  34.548  40.856   3.643
35168W        W 3509   7.321  41.012   1.807
35169W        W 3510  26.536  34.016  14.374
35170W        W 3511  10.281  43.446   1.389
35171W        W 3512  14.285   3.903  13.442
35172W        W 3513   4.296  15.790   3.813
35173W        W 3514   0.485  39.875   3.252
35174W        W 3515   4.835  35.987  13.007
35175W        W 3516  20.737  37.855   3.184
35176W        W 3517  40.901  14.240  11.399
35177W        W 3518   3.908   9.287   0.290
35178W        W 3519  24.569  39.812  10.923
35179W        W 3520  42.817   1.437   0.338
35180W        W 3521  38.825   9.756  11.464
35181W        W 3522  12.274  10.706   4.777
35182W        W 3523   1.480  36.925   0.909
35183W        W 3524  32.105  21.197   2.846
35184W        W 3525  28.645   3.409   1.737
35185W        W 3526  33.892  28.146  10.510
35186W        W 3527  25.491  38.847   4.290
35187W        W 3528  19.584  24.072   4.296
35188W        W 3529  35.969  21.722   1.248
35189W        W 3530  39.418  10.693  13.972
35190W        W 3531  35.091  35.598   3.359
35191W        W 3532  22.060  27.684  12.452
35192W        W 3533  33.527  39.013  10.644
35193W        W 3534  10.231  37.435  14.925
35194W        W 3535   6.825  36.964   4.308
35195W        W 3536  31.950  42.843  12.078
35196W        W 3537  21.528  40.902  12.890
35197W        W 3538  17.244  20.251   2.662
35198W        W 3539  19.613  39.539  12.554
35199W        W 3540   7.898  11.868  13.312
35200W        W 3541  42.292  20.611  13.842
35201W        W 3542  20.570  41.360   3.821
35202W        W 3543  12.207  32.973   3.380
35203W        W 3544  26.483  10.190   9.975
35204W        W 3545  41.830  31.557  13.463
35205W        W 3546  30.104  41.897  14.956
35206W        W 3547  23.219  36.486  14.410
35207W        W 3548   7.682  11.698   1.294
35208W        W 3549  37.885  40.029   4.219
35209W        W 3550  11.688  31.628  12.867
35210W        W 3551  26.145  37.008   0.246
35211W        W 3552  40.321  21.579   1.410
35212W        W 3553  43.805  23.508  11.940
35213W        W 3554   1.907  18.573  10.106
35214W        W 3555  32.010  36.586  14.005
35215W        W 3556  40.415  32.424   0.407
35216W        W 3557  43.325  32.072   1.376
35217W        W 3558  32.122  35.976   3.735
35218W        W 3559  13.676   2.434  14.305
35219W        W 3560  35.108   6.225   2.817
35220W        W 3561  11.191  23.122  14.857
35221W        W 3562   4.851  42.485  12.831
35222W        W 3563  43.878  22.208  10.634
35223W        W 3564  37.468  44.961  14.012
35224W        W 3565  42.882  19.744  12.383
35225W        W 3566  11.319  26.061  14.023
35226W        W 3567  33.009  27.183   2.813
35227W        W 3568   4.269   2.247   3.848
35228W        W 3569  38.985  32.075   4.699
35229W        W 3570  20.132   3.831  12.846
35230W        W 3571  40.027  14.768  13.034
35231W        W 3572  25.488  34.560   5.250
35232W        W 3573  37.890  34.004  11.572
35233W        W 3574  23.646  23.185   1.341
35234W        W 3575  36.902  14.227  12.534
35235W        W 3576  40.806  28.050  12.439
35236W        W 3577   9.364  29.958   4.353
35237W        W 3578  16.286  17.698  13.001
35238W        W 3579  10.186  19.764  12.388
35239W        W 3580   7.214  15.640  12.475
35240W        W 3581  12.668   1.867  13.944
35241W        W 3582  13.245  24.138  14.398
35242W        W 3583  28.008   7.907  14.485
35243W        W 3584  40.472   2.365  11.018
35244W        W 3585  27.164  38.060  12.062
35245W        W 3586  32.067   9.882   4.608
35246W        W 3587  24.526  31.968   4.732
35247W        W 3588   6.745  29.487   2.334
35248W        W 3589  19.634  11.307  14.983
35249W        W 3590  30.912  24.040   0.306
35250W        W 3591  37.947   6.269   0.320
35251W        W 3592  27.034  32.448  14.450
35252W        W 3593  26.524  23.691   3.223
35253W        W 3594  10.307  10.223  10.412
35254W        W 3595  37.873  41.319  12.995
35255W        W 3596  13.339  25.560   1.871
35256W        W 3597  38.061  32.068   0.273
35257W        W 3598  22.076  10.330  13.335
35258W        W 3599  30.533  34.534  11.107
35259W        W 3600  40.476  10.256  14.976
35260W        W 3601   3.828  25.714  14.504
35261W        W 3602  18.681  23.147   1.290
35262W        W 3603   7.743   3.871  12.538
35263W        W 3604  28.498   7.223  12.423
35264W        W 3605  41.860   7.821  13.402
35265W        W 3606   2.753   3.851  10.448
35266W        W 3607  28.092  13.204   0.930
35267W        W 3608   2.860  35.459  12.835
35268W        W 3609  20.747  23.630   1.335
35269W        W 3610  34.950  36.938  13.814
35270W        W 3611  22.013  28.517  11.928
35271W        W 3612  19.538  35.994   3.834
35272W        W 3613  13.147  40.497   9.602
35273W        W 3614  13.304  41.370   2.385
35274W        W 3615   4.362  15.688  13.855
35275W        W 3616  30.153  20.555  11.099
35276W        W 3617  13.349  31.635  12.508
35277W        W 3618  11.639  17.076  12.443
35278W        W 3619   6.811  23.127   3.649
35279W        W 3620  23.591  43.767   3.832
35280W        W 3621  11.718  32.400   1.706
35281W        W 3622   5.873  26.677   2.392
35282W        W 3623  34.510  22.614   3.246
35283W        W 3624  18.684   3.907   0.836
35284W        W 3625  11.751  44.992   3.292
35285W        W 3626  11.862   3.944  10.133
35286W        W 3627  20.106  19.245  12.487
35287W        W 3628  42.357   0.352  12.363
35288W        W 3629  12.814   9.682  13.009
35289W        W 3630  31.535   9.779   2.300
35290W        W 3631  33.515   7.882   0.761
35291W        W 3632  32.050  39.439  11.880
35292W        W 3633  26.648   6.728  12.977
35293W        W 3634  33.547   4.337   2.888
35294W        W 3635  31.433  18.267  11.607
35295W        W 3636  23.209   1.324  13.335
35296W        W 3637  33.388  38.913   3.188
35297W        W 3638   7.882  20.166   3.731
35298W        W 3639  12.280   3.919  14.338
35299W        W 3640  37.981  43.474  11.908
35300W        W 3641  23.029  39.040   4.727
35301W        W 3642  11.373   9.825   0.772
35302W        W 3643   9.726  28.575   3.381
35303W        W 3644  22.588  29.522  12.427
35304W        W 3645  33.033  16.188   1.334
35305W        W 3646  21.171  35.384  12.981
35306W        W 3647   0.776  28.986  12.047
35307W        W 3648  37.434  43.506   1.865
35308W        W 3649  15.170  42.324   1.763
35309W        W 3650  32.989  24.591  12.976
35310W        W 3651  41.866  44.387  10.992
35311W        W 3652  34.495  11.794  14.345
35312W        W 3653  24.549  37.377   3.785
35313W        W 3654  40.453  40.030  14.442
35314W        W 3655  35.490  40.034   0.376
35315W        W 3656  15.687   6.783   2.340
35316W        W 3657   6.205  26.065  10.520
35317W        W 3658  17.069  23.555  14.388
35318W        W 3659  21.715   8.348   0.897
35319W        W 3660   8.795  28.563   0.303
35320W        W 3661  32.573  35.906   4.196
35321W        W 3662  13.844  40.403  10.086
35322W        W 3663  14.219   5.341   3.219
35323W        W 3664   3.871  32.020  12.840
35324W        W 3665  37.087   9.218  14.889
35325W        W 3666  12.205  10.221   3.805
35326W        W 3667   4.743  11.750   0.441
35327W        W 3668   1.358  13.241   1.435
35328W        W 3669   7.890  15.611  11.529
35329W        W 3670  28.551   3.388   1.445
35330W        W 3671  21.672  44.844   3.852
35331W        W 3672  38.369  42.385   3.687
35332W        W 3673  25.174  42.498  13.870
35333W        W 3674  38.354  16.239   3.284
35334W        W 3675  18.729   6.215  10.593
35335W        W 3676  17.600  11.311   3.818
35336W        W 3677  35.103  25.978   1.395
35337W        W 3678   1.905  43.332  12.019
35338W        W 3679   7.716  15.595   1.933
35339W        W 3680   1.457   2.471   2.355
35340W        W 3681  39.909  19.563  11.044
35341W        W 3682   0.329  13.336   4.620
35342W        W 3683  18.065   0.772  13.063
35343W        W 3684  36.042  13.255  10.912
35344W        W 3685  11.137  16.716  11.379
35345W        W 3686  37.913   2.788  12.014
35346W        W 3687  36.394  16.623   1.891
35347W        W 3688  39.840  22.672   4.701
35348W        W 3689  26.151  32.393  13.828
35349W        W 3690  15.278  41.429   2.303
35350W        W 3691  34.120   0.927  14.441
35351W        W 3692  26.078  40.000  14.470
35352W        W 3693  33.067   1.782  14.931
35353W        W 3694  38.367  10.729   3.343
35354W        W 3695   9.805  18.565  12.835
35355W        W 3696  33.106  27.987   4.352
35356W        W 3697   4.344  30.094  14.377
35357W        W 3698  14.096  40.964  13.417
35358W        W 3699   9.381  14.242   9.920
35359W        W 3700   0.384   5.206  12.946
35360W        W 3701  30.132  34.936  13.412
35361W        W 3702  18.186  25.030   0.922
35362W        W 3703  24.723  34.513  13.953
35363W        W 3704  10.635  14.122  10.937
35364W        W 3705  24.661  19.206   5.697
35365W        W 3706  17.199  36.401   1.774
35366W        W 3707  21.561   4.918   0.414
35367W        W 3708  41.461  29.648  12.874
35368W        W 3709   2.264   2.356  12.497
35369W        W 3710   5.236  22.554  13.483
35370W        W 3711   3.915  14.247   0.887
35371W        W 3712  31.481  16.590   4.339
35372W        W 3713  35.530  10.805  14.942
35373W        W 3714   6.380  11.823  11.427
35374W        W 3715  21.095  44.942   4.751
35375W        W 3716  33.124  13.697   0.424
35376W        W 3717  19.664  42.313  13.059
35377W        W 3718  37.023  20.554   1.361
35378W        W 3719  24.664  10.673  11.126
35379W        W 3720  23.710  22.147   0.250
35380W        W 3721  40.355  31.561  10.612
35381W        W 3722  28.631  10.815  14.433
35382W        W 3723  28.678  18.163   3.696
35383W        W 3724  29.026   8.307   0.328
35384W        W 3725  34.941  12.714  12.079
35385W        W 3726  38.998   4.711  13.422
35386W        W 3727  23.238  36.349   1.788
35387W        W 3728  43.765   1.311  11.116
35388W        W 3729  25.152  33.542   0.292
35389W        W 3730  19.690   4.837  10.999
35390W        W 3731   5.370  21.575   0.886
35391W        W 3732  17.162  22.173  11.547
35392W        W 3733  10.168   0.449   2.845
35393W        W 3734   5.846   9.263  13.422
35394W        W 3735  10.286  40.513  12.079
35395W        W 3736  44.468  24.086   1.694
35396W        W 3737  32.134  37.434  14.952
35397W        W 3738  33.536  26.512  12.549
35398W        W 3739  40.042  37.070  12.949
35399W        W 3740  23.693  26.022  13.799
35400W        W 3741  19.127  29.919   2.377
35401W        W 3742  17.626   2.780   4.794
35402W        W 3743  36.375  15.215   3.182
35403W        W 3744  41.950  22.034   2.745
35404W        W 3745  14.612  40.447   3.760
35405W        W 3746  12.716  18.267  11.100
35406W        W 3747  42.014  32.577  10.598
35407W        W 3748  35.878  18.132   4.321
35408W        W 3749  37.072  40.521   4.334
35409W        W 3750  38.936  18.666  11.094
35410W        W 3751  12.149   6.321   4.306
35411W        W 3752  43.917  32.486   3.363
35412W        W 3753  22.718   9.237  14.842
35413W        W 3754   7.214   7.809  14.000
35414W        W 3755  14.287  16.300   0.274
35415W        W 3756  26.992  10.672  13.804
35416W        W 3757  38.847  27.621   1.401
35417W        W 3758  19.150  42.360   2.181
35418W        W 3759  33.883  12.620  13.963
35419W        W 3760   2.807  32.449   1.369
35420W        W 3761  21.758  29.123   2.380
35421W        W 3762  32.940  19.559  12.385
35422W        W 3763  44.344  22.132   0.767
35423W        W 3764  39.890   6.699   3.763
35424W        W 3765  24.995  12.252  14.802
35425W        W 3766  35.510  11.642  10.951
35426W        W 3767  30.032  38.396  10.943
35427W        W 3768  22.178  22.538   4.808
35428W        W 3769  18.615  16.661  12.436
35429W        W 3770  35.362  26.139  13.888
35430W        W 3771   1.467  30.644   1.725
35431W        W 3772  20.144  12.754  14.920
35432W        W 3773  17.234   4.711   1.278
35433W        W 3774  20.561  28.611  11.122
35434W        W 3775  34.584  22.518   0.814
35435W        W 3776   4.789  28.032  10.937
35436W        W 3777  32.022  43.311   0.436
35437W        W 3778   5.721  11.159   0.482
35438W        W 3779   4.428  29.665  12.892
35439W        W 3780   5.333  16.302  12.402
35440W        W 3781  18.731  21.261   3.192
35441W        W 3782  39.524  23.497  14.976
35442W        W 3783  28.114  39.060   0.797
35443W        W 3784  28.155  24.115   1.410
35444W        W 3785  44.305  40.454   2.351
35445W        W 3786   9.250  44.410   1.827
35446W        W 3787  15.264   4.294  11.930
35447W        W 3788  38.828  11.805   0.882
35448W        W 3789  15.706  10.239   0.848
35449W        W 3790  38.927  39.064   4.185
35450W        W 3791   4.275  30.548  11.999
35451W        W 3792  14.713  10.640   3.175
35452W        W 3793  35.979  32.076   2.376
35453W        W 3794   1.832   1.416   1.363
35454W        W 3795  32.394  26.971  13.921
35455W        W 3796  19.110  23.691  14.935
35456W        W 3797  37.404   1.774  11.590
35457W        W 3798  30.991  36.027  11.495
35458W        W 3799  27.005  12.657   5.112
35459W        W 3800  38.837  43.977  10.418
35460W        W 3801  21.028  22.601   0.787
35461W        W 3802  26.061  11.835  10.607
35462W        W 3803   2.920  19.760   5.724
35463W        W 3804  44.316   0.365   3.308
35464W        W 3805  43.871   7.818   1.274
35465W        W 3806  30.442  36.033   2.333
35466W        W 3807  33.512  23.523   9.967
35467W        W 3808   3.718  36.999  11.069
35468W        W 3809  35.487  37.487   2.807
35469W        W 3810  33.054  42.938  11.050
35470W        W 3811  31.959  33.983   4.149
35471W        W 3812  11.258   7.709   4.317
35472W        W 3813   2.877  27.954   2.733
35473W        W 3814  26.980   1.774  14.355
35474W        W 3815  40.973  43.856   4.686
35475W        W 3816   3.846  18.728   3.794
35476W        W 3817  17.243  26.700   4.252
35477W        W 3818  27.098   6.733  11.083
35478W        W 3819  12.722   1.930  11.483
35479W        W 3820  42.398  30.628  12.573
35480W        W 3821  36.063  43.317  13.048
35481W        W 3822  10.352  36.916   4.667
35482W        W 3823  25.538  24.069  10.928
35483W        W 3824  35.544   0.405   2.276
35484W        W 3825  30.594  15.282  11.472
35485W        W 3826   4.799   9.176  13.934
35486W        W 3827  28.466  10.683  11.495
35487W        W 3828  19.052  37.346   2.760
35488W        W 3829  17.786   3.394  14.971
35489W        W 3830  16.102   2.728   3.273
35490W        W 3831  19.152  30.476  11.521
35491W        W 3832  41.371   0.414  14.850
35492W        W 3833   0.918  41.374   3.310
35493W        W 3834   4.290  39.966   2.266
35494W        W 3835  24.566   1.256  13.449
35495W        W 3836  18.166  32.612   4.265
35496W        W 3837  19.122  26.193   2.686
35497W        W 3838  39.905  31.050   2.264
35498W        W 3839  30.928  11.364   1.376
35499W        W 3840  41.968  42.373  10.499
35500W        W 3841   9.694   3.257   4.228
35501W        W 3842   2.723   5.774  13.446
35502W        W 3843  39.907  33.455  11.048
35503W        W 3844   5.797  25.629  11.501
35504W        W 3845  17.286  18.258  13.956
35505W        W 3846  11.293  29.436  10.581
35506W        W 3847  22.165   1.931  12.831
35507W        W 3848  36.037   5.357   2.874
35508W        W 3849   4.382  16.577   3.213
35509W        W 3850   1.266  16.166   1.842
35510W        W 3851  26.080   1.746  14.023
35511W        W 3852  11.299  22.166  10.500
35512W        W 3853  13.171  18.168  11.897
35513W        W 3854  22.560  18.168   1.752
35514W        W 3855  17.091  17.663  14.767
35515W        W 3856  40.967  11.292  14.006
35516W        W 3857   8.803  24.095  10.932
35517W        W 3858  18.748  42.518  13.971
35518W        W 3859   6.391  41.402  10.532
35519W        W 3860  36.054  37.940   4.786
35520W        W 3861  20.153  42.030  11.393
35521W        W 3862   5.753  32.095  13.948
35522W        W 3863  10.217  30.026  14.490
35523W        W 3864  10.657  43.889   1.899
35524W        W 3865   8.210  29.935   4.145
35525W        W 3866   8.329  22.566   0.896
35526W        W 3867  36.483  44.961   3.301
35527W        W 3868  35.444   2.252   4.616
35528W        W 3869  38.040  38.411   4.115
35529W        W 3870  44.451  20.719  11.102
35530W        W 3871  42.963   5.315  14.787
35531W        W 3872   7.323  27.682  13.048
35532W        W 3873  31.568  29.981  14.386
35533W        W 3874  34.912   7.680   1.808
35534W        W 3875  39.991  24.603   3.248
35535W        W 3876  23.705  13.687   2.178
35536W        W 3877  31.995   8.660  14.367
35537W        W 3878  24.068  19.552  14.442
35538W        W 3879  34.893  33.102  14.782
35539W        W 3880  34.994  21.114   3.664
35540W        W 3881  18.152  15.628   0.252
35541W        W 3882  13.351   2.282   1.252
35542W        W 3883  14.233  29.128  13.967
35543W        W 3884  31.409  32.597  13.879
35544W        W 3885  44.966  43.399   3.637
35545W        W 3886   1.807   8.282   4.233
35546W        W 3887  31.440  19.777   1.420
35547W        W 3888  44.933   7.826   2.354
35548W        W 3889  27.983  17.180  13.442
35549W        W 3890  29.942   7.328  14.998
35550W        W 3891  29.036   4.776  13.370
35551W        W 3892   0.273  36.050  14.958
35552W        W 3893   5.371  30.942  12.917
35553W        W 3894  27.187  13.823   1.850
35554W        W 3895  30.963  44.392   3.710
35555W        W 3896  41.994  41.472   1.419
35556W        W 3897   7.884  30.973   2.867
35557W        W 3898   6.216   4.839  11.114
35558W        W 3899  38.066  38.830  10.051
35559W        W 3900  11.330  36.848   2.668
35560W        W 3901  44.788  15.206   3.262
35561W        W 3902  28.080  20.541   2.818
35562W        W 3903  20.214  17.736   1.887
35563W        W 3904   6.299  32.091   1.694
35564W        W 3905   0.377  40.935  14.990
35565W        W 3906  10.727  20.148   2.826
35566W        W 3907  39.480  18.260  14.961
35567W        W 3908   7.738   2.243  14.010
35568W        W 3909  14.728   6.838   3.775
35569W        W 3910  21.079  44.933   0.318
35570W        W 3911  10.724   6.254   3.332
35571W        W 3912  43.369  35.939   3.321
35572W        W 3913  37.028  10.707  14.508
35573W        W 3914  23.213  44.454   2.704
35574W        W 3915   0.866   4.762   0.773
35575W        W 3916   1.766  41.423   1.349
35576W        W 3917  33.002   2.237  12.829
35577W        W 3918  37.521  23.616   2.198
35578W        W 3919  35.104  27.102   0.845
35579W        W 3920  24.134  12.757  13.853
35580W        W 3921  27.014   3.927  11.063
35581W        W 3922   7.388  10.859   3.765
35582W        W 3923  31.001   3.811   1.309
35583W        W 3924  13.792  33.057   1.921
35584W        W 3925  27.545  37.572  10.422
35585W        W 3926  33.899  22.520  12.897
35586W        W 3927  10.286  41.526  12.546
35587W        W 3928   2.311  17.756  14.983
35588W        W 3929  42.801   3.872  11.460
35589W        W 3930   3.338  25.692  12.019
35590W        W 3931   3.297  29.140   9.924
35591W        W 3932  41.942  17.106   3.276
35592W        W 3933  33.080  34.910   0.423
35593W        W 3934   6.302  12.844   5.168
35594W        W 3935  31.548  42.836   0.776
35595W        W 3936  30.425  37.484   4.677
35596W        W 3937  22.123   0.391  11.572
35597W        W 3938  33.910  20.536   1.356
35598W        W 3939  19.180   1.297  14.334
35599W        W 3940  44.987   3.272  12.837
35600W        W 3941  11.351  19.171   3.705
35601W        W 3942   1.243  34.513   4.776
35602W        W 3943   4.298  21.111   4.709
35603W        W 3944   2.842   5.862   1.754
35604W        W 3945  26.466  31.416  12.344
35605W        W 3946  25.968  16.111   3.680
35606W        W 3947  42.312   5.708   4.267
35607W        W 3948   6.212  21.198   1.771
35608W        W 3949  14.722  34.373   2.811
35609W        W 3950  18.098  22.091   3.265
35610W        W 3951  16.263  21.730  14.281
35611W        W 3952   7.763  33.923  10.442
35612W        W 3953  38.057   7.288  14.961
35613W        W 3954  24.031   1.967   1.923
35614W        W 3955  35.979  24.225   2.896
35615W        W 3956  24.542  22.233   3.336
35616W        W 3957  16.084   1.771  14.361
35617W        W 3958  10.300  15.610  12.924
35618W        W 3959   5.343  22.043   4.181
35619W        W 3960  29.450  35.550  11.458
35620W        W 3961  35.043  38.900  13.519
35621W        W 3962  26.984  29.492  11.484
35622W        W 3963   7.912   5.370   2.878
35623W        W 3964  23.579  20.748   1.699
35624W        W 3965  32.563  17.780  13.412
35625W        W 3966  14.144   8.880  13.986
35626W        W 3967  29.117  19.571   5.254
35627W        W 3968   0.836  10.841   2.251
35628W        W 3969  32.587  20.057   0.365
35629W        W 3970  33.962  40.332   2.304
35630W        W 3971  11.209  16.263  13.395
35631W        W 3972   5.429  15.709  12.557
35632W        W 3973  36.501  19.197  11.021
35633W        W 3974   4.349  44.959  14.501
35634W        W 3975  23.201   3.897  13.004
35635W        W 3976   4.324  26.175   0.287
35636W        W 3977  41.382  11.136  11.067
35637W        W 3978  11.373  28.983  13.492
35638W        W 3979  16.696  29.983   3.660
35639W        W 3980  33.388  20.270   3.814
35640W        W 3981  42.493  23.561  13.527
35641W        W 3982   0.891  26.607   2.780
35642W        W 3983  20.253  15.760  10.482
35643W        W 3984   7.886  12.177  11.902
35644W        W 3985  38.045  20.086  10.894
35645W        W 3986  23.645  31.026  14.298
35646W        W 3987  28.446  29.481   3.701
35647W        W 3988  31.900  19.572   4.166
35648W        W 3989  17.070  18.260  14.798
35649W        W 3990  44.494  14.224  11.527
35650W        W 3991  31.467   9.287  12.909
35651W        W 3992  11.301  35.586  11.452
35652W        W 3993  30.048  36.027   1.779
35653W        W 3994  28.988  43.923   2.379
35654W        W 3995  16.076  34.546   0.738
35655W        W 3996  27.948   5.322  12.028
35656W        W 3997   5.879  24.056   4.289
35657W        W 3998  28.631  25.015  13.055
35658W        W 3999  14.340  24.164   1.797
35659W        W 4000   3.760  41.474  12.932
35660W        W 4001  12.698  33.093  13.904
35661W        W 4002  37.014   2.732   0.458
35662W        W 4003  20.733  19.089  11.410
35663W        W 4004  36.892  37.469   2.277
35664W        W 4005  40.906  16.681  13.525
35665W        W 4006  14.614  18.624   4.669
35666W        W 4007   9.245   5.876  10.518
35667W        W 4008  21.124   9.661   4.116
35668W        W 4009  20.207  40.331   4.766
35669W        W 4010  16.141  24.080   0.946
35670W        W 4011   3.380  40.905  13.441
35671W        W 4012  26.091  16.196  13.957
35672W        W 4013  14.595  11.777   4.750
35673W        W 4014  17.103  33.589  14.975
35674W        W 4015  10.316   2.456   0.314
35675W        W 4016   3.741  44.399  11.479
35676W        W 4017  17.569  22.146   2.882
35677W        W 4018  35.077  42.952  13.487
35678W        W 4019  22.185   3.262   4.640
35679W        W 4020  14.256  12.262   2.871
35680W        W 4021  24.046  12.681  10.561
35681W        W 4022   0.379  36.927   0.887
35682W        W 4023  11.246  17.281  12.387
35683W        W 4024  24.981  21.094  13.037
35684W        W 4025  13.309  14.287   0.322
35685W        W 4026  29.056  15.321   2.727
35686W        W 4027  12.641   3.795  11.982
35687W        W 4028  17.594  41.341   1.343
35688W        W 4029  17.103   8.804  13.941
35689W        W 4030  12.224  15.674  10.977
35690W        W 4031  35.086  16.715  11.865
35691W        W 4032  25.664   1.897  12.926
35692W        W 4033  42.410  31.608   1.830
35693W        W 4034  19.591   3.418  13.979
35694W        W 4035  17.304   1.853   4.684
35695W        W 4036  16.765   9.742   2.848
35696W        W 4037  30.152  18.765   4.638
35697W        W 4038  10.213   4.893   0.294
35698W        W 4039  29.476   2.273  13.866
35699W        W 4040   1.799  26.005  13.453
35700W        W 4041  15.279  17.584  13.539
35701W        W 4042  15.254  32.139   0.445
35702W        W 4043   7.868  32.456   4.284
35703W        W 4044  27.969  30.138  11.992
35704W        W 4045  43.479   6.243  10.415
35705W        W 4046   5.390   9.657   1.837
35706W        W 4047  35.472  26.997  14.864
35707W        W 4048  28.468   3.894  13.922
35708W        W 4049  38.559  19.611   1.765
35709W        W 4050  10.706  26.095   4.782
35710W        W 4051  33.418  19.769   0.257
35711W        W 4052  34.024  13.689  14.026
35712W        W 4053  12.324  19.613   2.722
35713W        W 4054  42.030  12.174  10.968
35714W        W 4055  25.476   9.844   4.169
35715W        W 4056   8.710  26.157  10.086
35716W        W 4057  40.918  33.417  10.895
35717W        W 4058  11.793   4.386   3.861
35718W        W 4059  44.839  42.921  11.998
35719W        W 4060  39.027  35.931  14.970
35720W        W 4061  18.266   1.837   1.374
35721W        W 4062  43.430  23.635  13.518
35722W        W 4063  42.019  44.505  13.920
35723W        W 4064  13.637   9.717   4.166
35724W        W 4065  10.234  15.249  13.015
35725W        W 4066  18.097  42.455   2.409
35726W        W 4067  19.546  18.572   2.888
35727W        W 4068  20.118  21.556  12.470
35728W        W 4069  10.308  36.456  10.499
35729W        W 4070  32.483  26.188  12.375
35730W        W 4071  13.110  18.257  12.449
35731W        W 4072  40.501  36.389   1.897
35732W        W 4073  29.498  42.336   3.275
35733W        W 4074   9.328  23.724  11.605
35734W        W 4075  44.942  33.054   0.411
35735W        W 4076  19.238   7.271   0.311
35736W        W 4077  41.383  43.887  13.381
35737W        W 4078  22.188   3.844  13.856
35738W        W 4079  17.767  37.876  10.464
35739W        W 4080  44.451  29.605   0.271
35740W        W 4081   7.381  44.293  12.872
35741W        W 4082  36.968   0.780   0.929
35742W        W 4083  14.231  16.231   3.293
35743W        W 4084   9.815  31.524  10.436
35744W        W 4085  12.753  28.651  11.488
35745W        W 4086  25.193  10.318  12.541
35746W        W 4087  37.990   0.765   1.755
35747W        W 4088  35.491  28.472   0.344
35748W        W 4089   5.347   3.890   1.227
35749W        W 4090   2.748  11.221   2.240
35750W        W 4091  15.229   0.300  12.895
35751W        W 4092  26.145  18.050   3.306
35752W        W 4093  24.000  41.952   3.836
35753W        W 4094   2.825  25.142  14.314
35754W        W 4095  30.919  18.100   2.869
35755W        W 4096  25.679   5.879  13.350
35756W        W 4097  31.637  41.312   2.780
35757W        W 4098  44.939  37.918   2.690
35758W        W 4099  15.783  25.677  10.470
35759W        W 4100  25.679  39.350   2.754
35760W        W 4101  24.041  34.957   4.690
35761W        W 4102  37.857  35.452  11.601
35762W        W 4103  10.351   5.220   1.782
35763W        W 4104  12.341  13.679   3.230
35764W        W 4105  40.969  21.752   2.716
35765W        W 4106  31.421   8.683   5.093
35766W        W 4107  17.264  42.970   1.815
35767W        W 4108  10.346  25.700   2.683
35768W        W 4109  18.750  40.380   4.687
35769W        W 4110  41.383  10.270  12.042
35770W        W 4111  41.846  28.474  12.578
35771W        W 4112   9.211  35.495   1.899
35772W        W 4113  22.014  44.271  11.078
35773W        W 4114  11.132  10.655   1.239
35774W        W 4115  14.772  30.601  13.467
35775W        W 4116  40.520  18.720  10.941
35776W        W 4117  39.547  34.007  13.465
35777W        W 4118  19.741   6.428   1.357
35778W        W 4119  22.129  14.327   0.921
35779W        W 4120  17.199  19.683   1.259
35780W        W 4121  30.915  11.740  14.331
35781W        W 4122  40.332  10.372   5.257
35782W        W 4123  44.883  21.094   4.805
35783W        W 4124  32.081  28.997   3.842
35784W        W 4125  41.914  28.150  14.797
35785W        W 4126  21.178  35.064  12.910
35786W        W 4127   9.196   0.752   3.764
35787W        W 4128  22.153  21.730   4.669
35788W        W 4129  30.609  37.012   0.840
35789W        W 4130  38.916  12.244   2.876
35790W        W 4131  42.440  20.562   1.433
35791W        W 4132  17.184  43.373  14.334
35792W        W 4133  43.770  35.424  10.439
35793W        W 4134   9.160  40.444  12.949
35794W        W 4135  19.041  22.545   1.826
35795W        W 4136  10.822  41.327   4.316
35796W        W 4137  20.751  34.114   0.738
35797W        W 4138   9.810   6.908  11.897
35798W        W 4139  44.772   3.385  12.430
35799W        W 4140  44.383  35.597   1.361
35800W        W 4141  43.924  42.782   3.313
35801W        W 4142  39.426  42.830  10.585
35802W        W 4143  18.172  22.251   5.252
35803W        W 4144  31.491  14.603   2.265
35804W        W 4145  19.114  19.276   3.725
35805W        W 4146  15.634   0.851  14.438
35806W        W 4147   4.275  18.209   2.204
35807W        W 4148  30.634  37.563   4.241
35808W        W 4149  42.803  30.617  13.823
35809W        W 4150   3.733  35.895  10.613
35810W        W 4151   5.754  27.017  13.436
35811W        W 4152  35.026  10.862   3.844
35812W        W 4153  20.530   2.338  12.873
35813W        W 4154  15.672  26.146   3.846
35814W        W 4155   2.894  41.984  14.417
35815W        W 4156  43.921  31.509  13.453
35816W        W 4157   2.888  28.972  12.476
35817W        W 4158   0.392  14.611  12.480
35818W        W 4159  33.997   4.360   1.277
35819W        W 4160  38.521  32.123  13.478
35820W        W 4161   0.821  43.889  11.605
35821W        W 4162  31.406  20.574   3.734
35822W        W 4163   0.906  18.242  14.976
35823W        W 4164  27.510  27.476   2.296
35824W        W 4165  38.984   8.887   4.301
35825W        W 4166  14.670  21.261   1.718
35826W        W 4167  41.397  10.861  14.824
35827W        W 4168  25.649  22.588  11.868
35828W        W 4169  35.096  35.029  10.098
35829W        W 4170  37.910  12.732   3.371
35830W        W 4171  20.102  20.063  11.434
35831W        W 4172  18.755  15.786   1.395
35832W        W 4173  10.846  18.196   3.641
35833W        W 4174  15.124  39.827  14.337
35834W        W 4175   6.876  16.216   3.636
35835W        W 4176  32.113  22.721   0.304
35836W        W 4177  39.916  13.313  10.582
35837W        W 4178  12.326   8.704   2.680
35838W        W 4179  29.019  34.077   1.768
35839W        W 4180  23.519   6.676   4.775
35840W        W 4181  41.308  36.513   2.292
35841W        W 4182  39.470   5.844  14.367
35842W        W 4183   9.746  33.057  10.437
35843W        W 4184  28.551  28.047  13.476
35844W        W 4185  10.845   9.224   4.753
35845W        W 4186  38.527  17.107   2.350
35846W        W 4187  41.321  33.989   4.725
35847W        W 4188  12.661  25.156   3.706
35848W        W 4189  35.529  24.686  13.956
35849W        W 4190  12.239  12.340   1.850
35850W        W 4191  10.646  40.517   2.376
35851W        W 4192  28.592  43.014   4.227
35852W        W 4193  29.489  26.515   1.887
35853W        W 4194  38.373  31.940   1.856
35854W        W 4195   8.257   5.345  13.996
35855W        W 4196  32.032  20.697   0.748
35856W        W 4197  35.975  32.589  12.932
35857W        W 4198   5.226  35.918   1.906
35858W        W 4199  42.029  21.567   1.282
35859W        W 4200  37.869  13.822   4.303
35860W        W 4201  27.077  15.761  12.439
35861W        W 4202  40.997  27.525   3.748
35862W        W 4203  41.334   4.337   2.257
35863W        W 4204  35.955  38.048  14.802
35864W        W 4205  14.681  15.617  11.383
35865W        W 4206  42.849  15.724  13.813
35866W        W 4207  24.702  26.208  12.578
35867W        W 4208  24.973  13.729   1.217
35868W        W 4209  19.698  29.631   1.393
35869W        W 4210   7.775  16.669   0.441
35870W        W 4211  40.320  25.076   0.254
35871W        W 4212  36.405   7.362  10.464
35872W        W 4213  33.390  40.898  12.050
35873W        W 4214  35.918  19.060   3.870
35874W        W 4215  25.705   4.267   3.796
35875W        W 4216  34.473  22.610  10.911
35876W        W 4217  31.052  37.445  10.623
35877W        W 4218  23.159  35.395   4.307
35878W        W 4219  20.547  18.722   1.842
35879W        W 4220  12.238  25.577   3.222
35880W        W 4221  17.159   9.305  11.861
35881W        W 4222  21.644   4.395  10.999
35882W        W 4223  28.153  24.021   2.325
35883W        W 4224  36.491  44.797   2.812
35884W        W 4225  26.159  41.923  11.549
35885W        W 4226   7.182  41.946  11.128
35886W        W 4227  30.056  20.035   0.824
35887W        W 4228  19.109  13.682  11.029
35888W        W 4229  43.348   1.287  13.369
35889W        W 4230  40.047   2.400  10.511
35890W        W 4231  26.154  25.664   2.683
35891W        W 4232  25.495  25.990  13.036
35892W        W 4233  44.426  14.636  11.958
35893W        W 4234  23.062  17.791   2.371
35894W        W 4235  10.301  14.591   2.703
35895W        W 4236  20.032  25.122  11.977
35896W        W 4237   4.938  19.650   2.756
35897W        W 4238  33.896   4.336  14.981
35898W        W 4239  31.949  30.064   4.179
35899W        W 4240   0.888  30.562  14.297
35900W        W 4241  10.356  33.625  12.850
35901W        W 4242   1.379  33.093   1.448
35902W        W 4243  43.962  33.934  11.980
35903W        W 4244  13.822  11.836   3.301
35904W        W 4245  35.988  44.291   2.265
35905W        W 4246  42.992  38.864   3.839
35906W        W 4247  27.683   7.800  12.530
35907W        W 4248  13.622  22.021  13.876
35908W        W 4249  21.649  21.584   3.833
35909W        W 4250  42.029   4.842  11.465
35910W        W 4251   0.977  25.470  12.994
35911W        W 4252  29.463  40.364  10.963
35912W        W 4253  17.104  22.730  11.950
35913W        W 4254  27.492  15.746   2.337
35914W        W 4255  31.069  44.844   1.446
35915W        W 4256   5.371  12.842  12.513
35916W        W 4257  19.101  30.937   2.736
35917W        W 4258  21.106  26.135  11.882
35918W        W 4259  12.841  41.855   2.774
35919W        W 4260  12.704  32.557   3.200
35920W        W 4261  42.458   2.863  12.878
35921W        W 4262   3.351  44.978   3.769
35922W        W 4263   4.798  27.611   2.349
35923W        W 4264  27.184  20.164   2.363
35924W        W 4265  32.564   7.861  14.017
35925W        W 4266  30.075  33.451   1.815
35926W        W 4267  35.031  38.430   3.864
35927W        W 4268   6.286  10.219   4.736
35928W        W 4269  41.390  15.164  11.389
35929W        W 4270  42.334  10.221  11.925
35930W        W 4271  10.730  18.288   1.701
35931W        W 4272  25.115  22.692   1.285
35932W        W 4273  12.117  30.508  11.098
35933W        W 4274  24.538  42.913  11.388
35934W        W 4275  29.537  34.024  10.959
35935W        W 4276   9.378  17.084   2.666
35936W        W 4277   7.736  12.755   0.950
35937W        W 4278   8.202  41.879  11.506
35938W        W 4279  10.140  22.581  12.952
35939W        W 4280  26.676  18.063  13.025
35940W        W 4281  17.203  44.290   4.701
35941W        W 4282   0.413  24.204  11.091
35942W        W 4283  19.775  42.302  11.455
35943W        W 4284   4.224  42.827  14.396
35944W        W 4285  43.881  36.860  11.560
35945W        W 4286   4.312  11.147  14.802
35946W        W 4287  14.762  36.487   2.379
35947W        W 4288   5.811  13.836  13.389
35948W        W 4289  37.419  33.992   0.803
35949W        W 4290  23.038   2.349   1.722
35950W        W 4291   0.970  44.468   0.292
35951W        W 4292  38.974  30.949  13.521
35952W        W 4293  15.755  22.114   2.786
35953W        W 4294   5.348   2.327   1.694
35954W        W 4295  29.951   4.819   0.790
35955W        W 4296  44.989  19.752   2.822
35956W        W 4297  44.942  13.349  12.948
35957W        W 4298  22.609  44.991   2.792
35958W        W 4299   2.396  18.684  12.057
35959W        W 4300  43.454  31.054  11.489
35960W        W 4301  12.704  26.041  14.813
35961W        W 4302  35.025   8.287   1.213
35962W        W 4303  30.050  27.472  14.474
35963W        W 4304  29.953   0.376  11.448
35964W        W 4305  43.383  43.346  10.551
35965W        W 4306  26.014   7.852  14.292
35966W        W 4307  32.042   7.744   1.446
35967W        W 4308  24.659  23.549  12.001
35968W        W 4309  40.978  35.574  12.007
35969W        W 4310  20.737   3.753  13.424
35970W        W 4311  31.975  39.472  13.526
35971W        W 4312  30.140  32.019   3.234
35972W        W 4313   4.213  36.562  11.873
35973W        W 4314  25.541  19.198  10.142
35974W        W 4315   3.733  35.392   1.431
35975W        W 4316  41.980  19.207   3.351
35976W        W 4317  16.642  11.311  14.763
35977W        W 4318  29.172  41.438  12.408
35978W        W 4319  29.087  30.584  11.952
35979W        W 4320   6.221  19.249  10.966
35980W        W 4321  14.773  31.647   2.902
35981W        W 4322  30.024  22.586  11.014
35982W        W 4323  43.417  32.502  10.963
35983W        W 4324   7.795  36.466  14.345
35984W        W 4325  29.556  23.049   2.685
35985W        W 4326   7.267  41.938  11.473
35986W        W 4327  21.131  32.952   4.703
35987W        W 4328   9.302  15.754   3.255
35988W        W 4329  42.885   3.429  11.386
35989W        W 4330  28.010  27.009   1.432
35990W        W 4331  16.658  31.953   9.659
35991W        W 4332  17.257  40.816  10.415
35992W        W 4333  13.658  20.700   2.845
35993W        W 4334  13.822  10.381  10.502
35994W        W 4335  13.308  36.468   2.242
35995W        W 4336  41.324  13.246   2.817
35996W        W 4337  22.542   2.466  12.353
35997W        W 4338  38.864  24.079   0.827
35998W        W 4339   6.916  30.922  10.941
35999W        W 4340   8.275  40.525  13.308
36000W        W 4341  28.631  30.477   4.304
36001W        W 4342  27.518  28.174   4.290
36002W        W 4343  23.133  28.666  14.463
36003W        W 4344  37.931  33.079  14.506
36004W        W 4345  28.600  25.037   2.373
36005W        W 4346  41.965  25.520  12.049
36006W        W 4347   1.300  21.214  11.005
36007W        W 4348   2.290  19.683   0.369
36008W        W 4349  27.595  29.152  10.921
36009W        W 4350  23.592  31.451  12.525
36010W        W 4351  29.001  41.944  13.843
36011W        W 4352  27.995  14.102   2.320
36012W        W 4353   6.918  41.022   3.731
36013W        W 4354  11.366  35.994  10.419
36014W        W 4355  24.202  31.624   2.881
36015W        W 4356  33.953   8.340   0.475
36016W        W 4357   2.404  36.922  14.928
36017W        W 4358  32.107   2.227   3.335
36018W        W 4359  35.521  10.674   3.336
36019W        W 4360  15.605  42.797  10.127
36020W        W 4361  20.744   1.390   0.832
36021W        W 4362   3.231   4.374   0.962
36022W        W 4363  11.280   3.932  11.894
36023W        W 4364  29.641  44.848   0.807
36024W        W 4365  26.978  19.673   1.843
36025W        W 4366  44.781  34.583  14.322
36026W        W 4367  35.994   2.361  13.524
36027W        W 4368  23.494  16.236  11.033
36028W        W 4369  27.689  34.498   4.274
36029W        W 4370  43.381  22.557  14.492
36030W        W 4371  27.652  30.930   2.702
36031W        W 4372  21.696  41.856   1.930
36032W        W 4373  26.029  40.363   4.787
36033W        W 4374   7.854  21.589  13.993
36034W        W 4375  24.564  18.271  14.993
36035W        W 4376  28.145  26.208  11.580
36036W        W 4377  39.903  12.161   3.855
36037W        W 4378  25.654   4.334   3.329
36038W        W 4379  44.315  19.201  11.976
36039W        W 4380  31.565  10.838  14.896
36040W        W 4381  23.022   8.813  11.034
36041W        W 4382   9.877   3.313   3.820
36042W        W 4383  42.984  19.080   2.305
36043W        W 4384  33.455  31.590   2.702
36044W        W 4385  24.218   4.781  12.901
36045W        W 4386  11.127   3.298   4.186
36046W        W 4387  38.855  31.434  14.764
36047W        W 4388   1.752  23.218   0.821
36048W        W 4389  37.512  16.586   4.296
36049W        W 4390  13.158  20.695  11.552
36050W        W 4391  12.788  11.751  12.540
36051W        W 4392  34.098  26.976   3.694
36052W        W 4393  36.422   3.292   5.270
36053W        W 4394  42.814  19.185   4.657
36054W        W 4395   1.324   6.749   1.748
36055W        W 4396  18.630  25.122  11.966
36056W        W 4397  38.978  15.241   3.161
36057W        W 4398   9.818   3.303  13.857
36058W        W 4399   6.230  30.165  12.012
36059W        W 4400  21.681  44.333  14.383
36060W        W 4401   3.713  30.086  14.921
36061W        W 4402  26.665   1.927  10.959
36062W        W 4403  36.891  27.992   3.314
36063W        W 4404  38.950  15.127   0.853
36064W        W 4405  23.636  14.805  14.809
36065W        W 4406  25.606  17.168   2.186
36066W        W 4407  17.654  33.977  10.518
36067W        W 4408  15.718   8.840   0.381
36068W        W 4409   4.255   0.287  13.858
36069W        W 4410  22.032  18.717   3.344
36070W        W 4411   8.402  41.353  13.880
36071W        W 4412  30.126  34.545  13.965
36072W        W 4413  27.976  22.512  10.527
36073W        W 4414  39.425  23.526  14.000
36074W        W 4415  26.567  18.214  10.103
36075W        W 4416  10.372  13.643   3.776
36076W        W 4417  22.739  17.080   3.684
36077W        W 4418  14.333  14.274  10.079
36078W        W 4419  39.974  12.720  14.957
36079W        W 4420  22.566  14.766   4.234
36080W        W 4421   8.838   7.864  11.404
36081W        W 4422  42.975  30.459  14.514
36082W        W 4423   2.397   9.770   3.299
36083W        W 4424  30.521  35.514  12.885
36084W        W 4425  24.153  17.722  11.474
36085W        W 4426  32.072  30.636   0.385
36086W        W 4427  34.985  12.206  11.378
36087W        W 4428   9.716  18.780   1.924
36088W        W 4429   0.763  36.842   1.271
36089W        W 4430  40.966  16.726   4.835
36090W        W 4431  31.500  30.952   1.240
36091W        W 4432  13.286   8.814  14.463
36092W        W 4433  23.684  12.623  14.026
36093W        W 4434  15.589  29.143   1.336
36094W        W 4435   4.411   2.882   0.269
36095W        W 4436  24.695   9.815  13.439
36096W        W 4437  41.019  41.827   1.829
36097W        W 4438  14.791  18.787  14.348
36098W        W 4439  29.456  32.078  11.512
36099W        W 4440   6.851  37.051   4.701
36100W        W 4441  33.438  43.477  11.451
36101W        W 4442  40.815  38.419  14.304
36102W        W 4443  33.041  29.990  14.510
36103W        W 4444  29.550  14.828   1.418
36104W        W 4445  14.318   0.823  14.779
36105W        W 4446  38.943  14.244   3.795
36106W        W 4447  44.781  29.472   0.308
36107W        W 4448  10.679  10.159   1.916
36108W        W 4449   6.191  44.896   1.404
36109W        W 4450  26.970  11.833  10.949
36110W        W 4451   8.717  15.583   4.758
36111W        W 4452  28.944  14.822   4.625
36112W        W 4453  34.874  38.471  10.952
36113W        W 4454  21.688  39.537   4.303
36114W        W 4455  40.328  37.032  14.818
36115W        W 4456  44.327  10.332   3.651
36116W        W 4457   5.690  36.015  14.015
36117W        W 4458  41.871   0.983   3.360
36118W        W 4459   9.802  13.279  11.503
36119W        W 4460   3.909  12.270   1.879
36120W        W 4461  33.452   9.253  14.983
36121W        W 4462  15.234  20.677  10.449
36122W        W 4463  37.503   9.216  13.344
36123W        W 4464  25.637   7.714  12.344
36124W        W 4465   1.474   8.769  11.509
36125W        W 4466   2.908  17.633   4.139
36126W        W 4467  35.547  34.557   0.931
36127W        W 4468  28.930  14.313  12.846
36128W        W 4469  41.946  11.861  10.956
36129W        W 4470  22.583  30.650  12.949
36130W        W 4471  40.965  36.408   0.836
36131W        W 4472  42.873  28.177   0.869
36132W        W 4473  12.343  16.136  13.378
36133W        W 4474  34.066  40.304   3.301
36134W        W 4475  41.535  12.812   3.647
36135W        W 4476  16.271   4.390   4.260
36136W        W 4477  38.370  25.178   5.164
36137W        W 4478  42.835  27.103   1.360
36138W        W 4479  16.643  10.364   2.787
36139W        W 4480  14.692  33.530   4.302
36140W        W 4481  16.176  41.816   1.720
36141W        W 4482  32.574   1.937   4.678
36142W        W 4483  12.340   9.271  10.442
36143W        W 4484  12.752  28.463  11.944
36144W        W 4485  19.273  12.283  10.955
36145W        W 4486  13.239  32.405  12.429
36146W        W 4487  38.512  18.092   3.725
36147W        W 4488  18.062  42.496   3.299
36148W        W 4489  13.290  10.176   0.377
36149W        W 4490  32.500  23.149   0.308
36150W        W 4491  23.527  14.654   3.358
36151W        W 4492  30.567  40.387  13.839
36152W        W 4493  18.271   2.900  14.864
36153W        W 4494  34.502  28.115   3.199
36154W        W 4495  17.142   0.987   2.899
36155W        W 4496  26.554  20.739   3.192
36156W        W 4497  26.046  31.914  12.865
36157W        W 4498  23.083  22.564  14.314
36158W        W 4499  17.678  15.322  13.502
36159W        W 4500   1.807  43.386   1.431
36160W        W 4501   8.330   5.846   0.844
36161W        W 4502   9.759  27.652  11.074
36162W        W 4503  36.513  11.757   3.750
36163W        W 4504  38.397   9.153  13.856
36164W        W 4505  40.346   7.718   1.882
36165W        W 4506  35.402   3.729  12.993
36166W        W 4507  19.746  25.064  13.830
36167W        W 4508  35.855  26.980  12.352
36168W        W 4509  13.148   2.787   0.869
36169W        W 4510  30.555  43.408   3.328
36170W        W 4511  28.082  23.512   2.347
36171W        W 4512  33.058   0.359   3.213
36172W        W 4513   6.356  37.343  13.437
36173W        W 4514  14.102  34.496   0.923
36174W        W 4515  28.680  20.668  12.906
36175W        W 4516  22.630  44.965  14.499
36176W        W 4517   5.414  37.065  11.906
36177W        W 4518  16.275  30.569  13.004
36178W        W 4519  19.553  24.007   3.151
36179W        W 4520  22.084  33.123   1.745
36180W        W 4521   9.148  32.633   3.327
36181W        W 4522  13.620  41.454  13.011
36182W        W 4523  32.981  29.586   4.182
36183W        W 4524   9.805  37.011  10.608
36184W        W 4525  28.461   0.275   1.769
36185W        W 4526  37.475  21.065   4.149
36186W        W 4527   4.353  31.943   2.697
36187W        W 4528  26.000  13.291  13.934
36188W        W 4529   4.813   9.338  14.283
36189W        W 4530  11.192  28.136  11.449
36190W        W 4531  28.648  17.797  13.312
36191W        W 4532  22.579   6.338   5.300
36192W        W 4533  16.717  19.681   1.260
36193W        W 4534  36.360  15.774  14.816
36194W        W 4535  22.130  10.307   4.790
36195W        W 4536   7.299  35.873   4.749
36196W        W 4537  23.985  16.708  13.875
36197W        W 4538  42.516  43.792  12.446
36198W        W 4539  43.858  22.658   0.370
36199W        W 4540   9.169  35.050  11.941
36200W        W 4541  32.972  32.921  14.508
36201W        W 4542   0.426  19.209   1.864
36202W        W 4543   5.844   7.703  12.485
36203W        W 4544  21.094  22.644  12.836
36204W        W 4545  23.116  36.856   4.774
36205W        W 4546  43.458  19.607   2.299
36206W        W 4547   3.729  14.632   4.773
36207W        W 4548  23.516  36.452   0.420
36208W        W 4549  12.321  26.106  14.022
36209W        W 4550  10.680  42.849  12.440
36210W        W 4551   7.668  16.279  11.994
36211W        W 4552  43.874  15.151   3.859
36212W        W 4553  31.482  24.033  12.367
36213W        W 4554  43.855  11.727   2.754
36214W        W 4555  18.250  21.088   9.481
36215W        W 4556  39.975  26.087   3.260
36216W        W 4557   7.768  30.971  11.102
36217W        W 4558  37.539  36.457  11.380
36218W        W 4559  16.093   4.318  10.515
36219W        W 4560  12.718   2.375   2.219
36220W        W 4561  10.219   8.320   0.848
36221W        W 4562  22.158  29.569   4.203
36222W        W 4563  22.512  14.120  11.071
36223W        W 4564  23.657   6.411   4.264
36224W        W 4565  21.642  10.191  11.450
36225W        W 4566  28.945  25.694  13.474
36226W        W 4567   3.953   5.355  12.365
36227W        W 4568  12.789  22.529   4.712
36228W        W 4569  33.563  13.701  13.821
36229W        W 4570  13.777  32.094   0.861
36230W        W 4571  32.909   5.824  11.547
36231W        W 4572  38.876  17.635  11.395
36232W        W 4573  41.788  43.370  14.984
36233W        W 4574  33.968  18.083  12.455
36234W        W 4575  11.839  34.410   0.461
36235W        W 4576  34.903  24.661  12.949
36236W        W 4577  33.949  14.282   4.120
36237W        W 4578  35.000  17.090   5.167
36238W        W 4579  26.657  18.143   4.760
36239W        W 4580  14.154  13.256  13.914
36240W        W 4581  42.808  21.205  10.638
36241W        W 4582   2.965  18.234  12.983
36242W        W 4583  42.353  16.717   0.246
36243W        W 4584  12.191  11.337  11.878
36244W        W 4585  40.946  42.977  10.930
36245W        W 4586  24.204  40.823   3.305
36246W        W 4587  25.969  38.013   3.363
36247W        W 4588  11.685  28.630   2.247
36248W        W 4589  40.407  13.605  13.939
36249W        W 4590  32.579  39.519   2.223
36250W        W 4591  16.702  31.552   9.526
36251W        W 4592  11.626  29.518   2.738
36252W        W 4593  34.111   4.298  12.836
36253W        W 4594  28.171  20.601   4.203
36254W        W 4595  43.364   0.378  14.515
36255W        W 4596   7.288  22.165  12.924
36256W        W 4597  22.586  44.961  14.957
36257W        W 4598  21.123   1.422  11.461
36258W        W 4599  33.095   5.823   1.222
36259W        W 4600  32.462   4.214  12.479
36260W        W 4601   5.389  27.032   4.829
36261W        W 4602  35.067  30.016  14.030
36262W        W 4603  34.120  44.289  10.904
36263W        W 4604  43.501  32.401   2.199
36264W        W 4605  19.270   2.318   2.366
36265W        W 4606  31.410   3.711   1.928
36266W        W 4607  44.913  33.980  13.401
36267W        W 4608   6.885  26.543   1.269
36268W        W 4609  25.213  10.357   1.226
36269W        W 4610  12.855   6.338   4.720
36270W        W 4611  12.796  33.437  11.107
36271W        W 4612  12.798  12.262   0.468
36272W        W 4613  32.462  29.148   4.720
36273W        W 4614   5.838  40.010   4.163
36274W        W 4615  17.722   2.963  12.065
36275W        W 4616   4.926  40.967   0.467
36276W        W 4617   8.776  22.628  13.050
36277W        W 4618  29.549  25.984   0.902
36278W        W 4619  21.740  40.457  10.576
36279W        W 4620   1.269  41.318   2.316
36280W        W 4621  10.855  10.642   3.821
36281W        W 4622   6.811  39.384   3.351
36282W        W 4623  39.066  41.899   5.708
36283W        W 4624   6.698  24.620  13.519
36284W        W 4625  26.641   3.849  14.768
36285W        W 4626  17.142   5.916  12.414
36286W        W 4627  21.692  28.472  10.509
36287W        W 4628  23.060   9.212   3.374
36288W        W 4629  10.145  20.544   3.720
36289W        W 4630  31.992  16.658   1.272
36290W        W 4631  13.331  29.098  11.587
36291W        W 4632  41.023  34.892   3.695
36292W        W 4633  22.726   2.443  14.811
36293W        W 4634  40.402  33.431  12.886
36294W        W 4635  11.851   9.314   9.988
36295W        W 4636  40.879  42.965   2.902
36296W        W 4637  30.540  12.179   1.883
36297W        W 4638  34.551  22.529   1.362
36298W        W 4639  31.563  42.502  11.044
36299W        W 4640  14.735  39.841   1.913
36300W        W 4641  19.701   2.433   4.760
36301W        W 4642  16.691  29.557   3.757
36302W        W 4643   9.341  38.034   2.276
36303W        W 4644  30.043  29.553  14.982
36304W        W 4645  38.385  35.983   4.731
36305W        W 4646   4.374  30.050  10.407
36306W        W 4647   6.378   7.204  12.386
36307W        W 4648  43.409  18.107  13.926
36308W        W 4649   8.711  43.864   2.321
36309W        W 4650  12.781   5.749  11.110
36310W        W 4651  19.537  25.519   2.737
36311W        W 4652  34.484   6.751  11.520
36312W        W 4653  40.936  18.161  11.509
36313W        W 4654  27.505   6.229  13.806
36314W        W 4655  37.919  13.273  12.881
36315W        W 4656   1.762   1.746  11.863
36316W        W 4657  43.482  24.071  14.858
36317W        W 4658  28.600  38.397   3.631
36318W        W 4659  37.042  25.634  14.467
36319W        W 4660   0.820  16.076  11.884
36320W        W 4661  20.061   2.397  10.591
36321W        W 4662  10.319  43.009  13.802
36322W        W 4663  16.096  16.700  12.033
36323W        W 4664   7.866  15.822  12.977
36324W        W 4665  25.021  14.644   4.668
36325W        W 4666  40.994  33.437  12.848
36326W        W 4667  43.386  29.505  12.953
36327W        W 4668  14.294  39.334   1.230
36328W        W 4669  25.100  39.505  11.500
36329W        W 4670  34.056  37.531   0.892
36330W        W 4671  44.403  11.687   3.686
36331W        W 4672  30.949  34.457   2.410
36332W        W 4673  16.288  37.364   4.254
36333W        W 4674   3.264  39.541   1.887
36334W        W 4675  11.764  15.106  13.890
36335W        W 4676  42.984  27.067   0.844
36336W        W 4677   9.289   1.842  13.818
36337W        W 4678   2.290  41.878   2.742
36338W        W 4679  37.400  33.973  14.295
36339W        W 4680  18.068  30.117  14.509
36340W        W 4681   8.796  12.848   3.234
36341W        W 4682  13.635  17.695   3.294
36342W        W 4683  15.210  37.576  14.890
36343W        W 4684   2.355  23.068  14.882
36344W        W 4685  15.633  32.936  10.627
36345W        W 4686   0.871   7.758  14.386
36346W        W 4687  24.060  22.675  10.913
36347W        W 4688  22.067  22.010   3.678
36348W        W 4689   8.337   2.870   3.725
36349W        W 4690  35.919  32.128   1.398
36350W        W 4691  43.382  13.724   3.318
36351W        W 4692  30.556  28.487  11.890
36352W        W 4693   0.754  41.379  14.782
36353W        W 4694  37.431   0.959   2.847
36354W        W 4695  41.042  23.699   4.656
36355W        W 4696  32.420  25.151  14.759
36356W        W 4697  18.255   4.869   0.812
36357W        W 4698  40.476  41.393   4.805
36358W        W 4699  25.004  16.635  13.000
36359W        W 4700  38.967  42.419  10.929
36360W        W 4701  15.269  13.766   3.833
36361W        W 4702  11.821   3.717  11.043
36362W        W 4703   5.322  25.976  13.956
36363W        W 4704  18.728  39.886  13.819
36364W        W 4705  37.530  38.020  10.578
36365W        W 4706  29.999  14.098   2.346
36366W        W 4707   0.423  33.904  12.925
36367W        W 4708  31.607  19.546   0.248
36368W        W 4709   4.265  21.052  14.388
36369W        W 4710  22.185   3.729  11.525
36370W        W 4711  34.898  32.018   1.253
36371W        W 4712  42.972  22.564   3.685
36372W        W 4713  18.067   7.245  11.907
36373W        W 4714  15.809   1.873  13.529
36374W        W 4715  21.050  43.007   4.351
36375W        W 4716  39.913  32.575  10.598
36376W        W 4717  33.440  18.197   1.703
36377W        W 4718   1.838  43.001  12.889
36378W        W 4719  23.600   1.731   4.684
36379W        W 4720  37.361  37.875  10.957
36380W        W 4721  22.071  16.312   0.394
36381W        W 4722   2.825  14.831  10.922
36382W        W 4723  21.034   2.859  12.949
36383W        W 4724  23.175  23.558   4.183
36384W        W 4725  38.357  19.204   4.791
36385W        W 4726  15.257  40.876   4.603
36386W        W 4727  27.994  34.400   0.955
36387W        W 4728   0.954   6.404  13.460
36388W        W 4729  39.543  19.085  12.359
36389W        W 4730  17.609   8.237   2.313
36390W        W 4731  15.760  17.746  11.093
36391W        W 4732   0.419  43.429  11.432
36392W        W 4733  10.367  11.731   3.221
36393W        W 4734   8.831  10.771  14.982
36394W        W 4735  18.183  34.019  13.857
36395W        W 4736  40.432  16.264  11.408
36396W        W 4737  10.819  40.029   1.308
36397W        W 4738  23.611   3.717   0.900
36398W        W 4739  20.599  25.584   4.767
36399W        W 4740   1.849  37.435  11.945
36400W        W 4741  11.346  37.365  13.509
36401W        W 4742  28.586  18.067   3.183
36402W        W 4743  12.736  17.582   2.725
36403W        W 4744  43.999  38.826  12.942
36404W        W 4745  35.047   6.388   5.316
36405W        W 4746  23.616  24.226   2.408
36406W        W 4747  37.378  23.984  11.108
36407W        W 4748  26.015   1.753   1.291
36408W        W 4749  27.487  32.909  12.065
36409W        W 4750  29.952  23.238  10.992
36410W        W 4751  10.859  29.532  14.422
36411W        W 4752  18.717  27.629  12.056
36412W        W 4753  39.853  32.621   0.904
36413W        W 4754  42.955  31.523   0.944
36414W        W 4755  16.686  31.409   4.124
36415W        W 4756  24.127  44.843  14.998
36416W        W 4757  41.821  27.020   4.675
36417W        W 4758   7.745  44.340  11.089
36418W        W 4759  24.663  15.658  12.513
36419W        W 4760  23.139  13.330   3.771
36420W        W 4761  28.128  21.178  14.766
36421W        W 4762  16.286  34.400   5.299
36422W        W 4763  33.922  37.512  12.470
36423W        W 4764  32.502  22.576   3.724
36424W        W 4765  14.655   7.760   1.801
36425W        W 4766  17.671  35.854  11.533
36426W        W 4767  24.681  13.148   3.196
36427W        W 4768  28.455  44.368   3.634
36428W        W 4769  20.727  31.067  14.276
36429W        W 4770  22.123  42.429  13.055
36430W        W 4771   3.872   9.743   4.838
36431W        W 4772  30.922  44.795  14.889
36432W        W 4773  24.057  39.407   1.430
36433W        W 4774  37.036   5.798   4.797
36434W        W 4775  28.987  27.974   2.779
36435W        W 4776  10.775   3.392   2.814
36436W        W 4777  32.885   2.878  12.064
36437W        W 4778  27.074  34.423  12.446
36438W        W 4779  19.089  24.531   0.258
36439W        W 4780   4.776   7.184   3.650
36440W        W 4781   9.881  35.384  11.909
36441W        W 4782  44.810  39.475   4.193
36442W        W 4783   7.748   5.281   0.361
36443W        W 4784  30.152  35.985  13.917
36444W        W 4785  20.221  13.131   3.260
36445W        W 4786  20.707  26.964  14.959
36446W        W 4787  16.208  34.443   0.366
36447W        W 4788   4.935   8.202  13.802
36448W        W 4789  30.067  26.204   3.289
36449W        W 4790  20.755  20.530  11.870
36450W        W 4791   0.405  24.646  13.309
36451W        W 4792  28.932  32.059  14.973
36452W        W 4793  14.175  26.645   0.961
36453W        W 4794  30.605   5.776  11.502
36454W        W 4795   8.257  33.580  14.927
36455W        W 4796   1.318  38.352  14.865
36456W        W 4797   3.406  18.051   5.304
36457W        W 4798  17.193  20.620  12.350
36458W        W 4799  21.252  27.535  12.881
36459W        W 4800  11.772  11.337   0.451
36460W        W 4801  32.996  19.669  11.072
36461W        W 4802  22.621  33.575  14.321
36462W        W 4803   9.681  34.435   1.708
36463W        W 4804  34.064   4.418  12.441
36464W        W 4805  25.539  16.119   3.178
36465W        W 4806  32.480   5.258  14.868
36466W        W 4807   4.893  26.689   0.906
36467W        W 4808  13.261  26.968  11.431
36468W        W 4809  29.641   0.795   4.192
36469W        W 4810  29.938  38.975  13.465
36470W        W 4811  44.905  43.963   1.355
36471W        W 4812  11.228  39.373   5.667
36472W        W 4813  43.378  31.963  12.365
36473W        W 4814  37.038  42.025  12.826
36474W        W 4815  31.152  28.016  14.291
36475W        W 4816   9.293  33.503  13.314
36476W        W 4817  38.013  25.005   0.444
36477W        W 4818  18.658  31.455   2.874
36478W        W 4819  10.813  40.349  10.150
36479W        W 4820   5.870   7.366   0.251
36480W        W 4821  32.449  32.010   2.862
36481W        W 4822  30.997  27.107  13.449
36482W        W 4823   8.320  43.800  12.881
36483W        W 4824   0.473  34.485   2.802
36484W        W 4825  16.124   7.206  14.286
36485W        W 4826   7.330   3.388  13.815
36486W        W 4827  21.514  29.003   1.400
36487W        W 4828  38.510  19.138  12.467
36488W        W 4829  30.453  12.241   4.174
36489W        W 4830   8.376  21.136  11.936
36490W        W 4831   3.342  16.314  12.915
36491W        W 4832  21.073  35.438  10.623
36492W        W 4833  22.075  31.072  12.559
36493W        W 4834  14.306   9.266  12.361
36494W        W 4835  26.542   4.853  14.432
36495W        W 4836  39.918  23.984  10.423
36496W        W 4837  37.551   9.377   4.275
36497W        W 4838  13.707  31.499  10.450
36498W        W 4839  21.210   4.708  14.849
36499W        W 4840   3.382   2.948  11.031
36500W        W 4841  27.043  37.946  10.905
36501W        W 4842  42.474  28.997  10.999
36502W        W 4843  28.573   5.885  11.397
36503W        W 4844   9.208   8.724  10.979
36504W        W 4845  11.310  13.680   0.901
36505W        W 4846   5.742  18.606  13.346
36506W        W 4847  37.571   2.239  14.030
36507W        W 4848  30.458  40.304   4.341
36508W        W 4849  42.823  38.965  12.470
36509W        W 4850  25.149  41.813  14.961
36510W        W 4851   2.835   0.285  11.603
36511W        W 4852  38.438  10.825  12.823
36512W        W 4853   8.391   9.814   1.304
36513W        W 4854  36.501  13.820   3.218
36514W        W 4855  38.331   3.420  11.418
36515W        W 4856  14.245  17.798   1.887
36516W        W 4857  21.198  34.001  14.915
36517W        W 4858   6.812  36.853  14.803
36518W        W 4859  41.795   2.449  11.455
36519W        W 4860  11.653  29.085   3.273
36520W        W 4861   0.409  33.883   1.729
36521W        W 4862  15.635  23.188  13.440
36522W        W 4863  33.105  22.709   4.197
36523W        W 4864  17.586  44.811  14.786
36524W        W 4865  44.904  22.599  12.452
36525W        W 4866  36.955  37.476  13.874
36526W        W 4867  12.278  32.137   0.429
36527W        W 4868  24.141  20.676   3.802
36528W        W 4869  27.678  29.588   1.312
36529W        W 4870  34.534  26.509   3.810
36530W        W 4871  33.458  24.111  14.484
36531W        W 4872   3.456   1.376   3.308
36532W        W 4873  21.590   2.789   1.932
36533W        W 4874  15.719   6.915  12.351
36534W        W 4875   0.842  31.641  11.484
36535W        W 4876  29.505  36.459  12.078
36536W        W 4877  38.556   1.777   1.931
36537W        W 4878  10.786  39.319  11.067
36538W        W 4879  23.030  34.104  14.474
36539W        W 4880  29.001  38.955   1.733
36540W        W 4881  24.546  14.695   1.371
36541W        W 4882  12.251   8.827   4.156
36542W        W 4883   6.690  17.279  12.073
36543W        W 4884   3.290  19.711  10.569
36544W        W 4885  16.310  33.405  10.463
36545W        W 4886  44.481  28.952  13.807
36546W        W 4887  36.418  32.898  12.423
36547W        W 4888  31.578   0.776   0.806
36548W        W 4889  31.903   3.438   3.789
36549W        W 4890  30.551   7.285  14.343
36550W        W 4891  23.234  30.487   4.771
36551W        W 4892  30.995   2.340  11.609
36552W        W 4893  38.476  37.839   3.638
36553W        W 4894  43.411  35.423   3.245
36554W        W 4895  34.606  37.336  14.293
36555W        W 4896  28.483  31.509  10.552
36556W        W 4897   4.780  30.433   3.289
36557W        W 4898  42.875  41.458  13.812
36558W        W 4899  15.726  28.503  14.814
36559W        W 4900  11.143   6.366   4.622
36560W        W 4901  36.901  16.193  11.925
36561W        W 4902   5.343   2.410  13.417
36562W        W 4903  40.885  29.444  12.907
36563W        W 4904  36.884  21.612   0.366
36564W        W 4905   3.329  28.566  14.871
36565W        W 4906  24.102  31.578   1.759
36566W        W 4907  36.508  36.981  13.998
36567W        W 4908  15.220  26.051   1.422
36568W        W 4909  20.174  30.138   4.136
36569W        W 4910  43.290  24.554  14.934
36570W        W 4911   7.885   6.333   4.197
36571W        W 4912   0.858   5.860  11.867
36572W        W 4913   1.404  10.370   2.884
36573W        W 4914  34.522  15.135   1.832
36574W        W 4915  27.663  30.540   4.168
36575W        W 4916  14.340  28.973   3.742
36576W        W 4917  28.637  35.919  12.094
36577W        W 4918  10.639   1.800  14.858
36578W        W 4919  12.186  44.771   1.392
36579W        W 4920   1.759   7.892  12.047
36580W        W 4921   3.874  42.962   1.753
36581W        W 4922  17.627  41.449   2.877
36582W        W 4923   7.404  33.029  11.600
36583W        W 4924  17.298  38.454  12.394
36584W        W 4925  24.574  32.126   3.730
36585W        W 4926  36.899  40.049   2.211
36586W        W 4927  30.514  32.453  11.507
36587W        W 4928   9.806   5.732   2.228
36588W        W 4929  18.737   9.647  10.902
36589W        W 4930  22.685  42.019  11.020
36590W        W 4931  27.535  31.153   0.929
36591W        W 4932  11.797  38.571  14.970
36592W        W 4933  34.532  33.077   0.439
36593W        W 4934  43.865  30.439   0.309
36594W        W 4935   2.844  24.086   2.769
36595W        W 4936  23.659  10.184   5.188
36596W        W 4937   8.266   8.335  12.876
36597W        W 4938  40.419  12.809   9.978
36598W        W 4939   6.322  24.627  11.471
36599W        W 4940   2.861  16.659   2.267
36600W        W 4941  41.012  23.190  14.009
36601W        W 4942  13.242  25.667  11.507
36602W        W 4943   6.804  30.922   3.233
36603W        W 4944  27.147   0.952  10.977
36604W        W 4945   8.778   7.223   1.251
36605W        W 4946   8.817  31.062   3.854
36606W        W 4947   1.427  17.271  12.992
36607W        W 4948  27.505  20.268  11.008
36608W        W 4949  34.458  33.925  11.440
36609W        W 4950  28.507  11.831   0.853
36610W        W 4951   5.813  19.574   4.227
36611W        W 4952  21.138  30.581  14.021
36612W        W 4953  20.662  21.132  13.995
36613W        W 4954  16.583  43.960   4.609
36614W        W 4955   4.446  36.537  13.876
36615W        W 4956  41.795  30.594   1.883
36616W        W 4957  29.152   4.776  10.090
36617W        W 4958  41.036  28.185   3.384
36618W        W 4959  20.201  16.812   2.291
36619W        W 4960   9.189  21.540   4.718
36620W        W 4961  23.617  42.477  14.796
36621W        W 4962  36.039   8.405  12.521
36622W        W 4963   8.858  33.587   4.254
36623W        W 4964   8.166   5.203   0.374
36624W        W 4965  20.028  44.845  14.992
36625W        W 4966   7.255  31.141  13.897
36626W        W 4967   2.725  26.633  12.368
36627W        W 4968  29.074  41.478  13.474
36628W        W 4969  28.077  33.453  10.990
36629W        W 4970  31.421  22.038  10.585
36630W        W 4971   2.470   4.226   0.855
36631W        W 4972  30.937  23.683  13.513
36632W        W 4973  37.347  15.143  14.465
36633W        W 4974   6.887  28.977   0.890
36634W        W 4975  18.281  28.186   1.922
36635W        W 4976  43.419  28.491  12.937
36636W        W 4977  29.921  31.425  14.291
36637W        W 4978  19.779  31.417   3.179
36638W        W 4979  17.291  30.144   4.779
36639W        W 4980  41.985  30.537   4.760
36640W        W 4981  31.139   7.835  11.413
36641W        W 4982   7.171   2.455  13.906
36642W        W 4983  40.481  33.491  11.944
36643W        W 4984  35.105  11.317  13.311
36644W        W 4985  33.572  24.565  12.952
36645W        W 4986  40.544  24.062  12.885
36646W        W 4987   4.249  20.189   2.663
36647W        W 4988  35.473  20.694   1.326
36648W        W 4989  14.747  39.874  11.072
36649W        W 4990  26.064  43.337   4.820
36650W        W 4991  34.919  20.580   3.855
36651W        W 4992  40.338   2.847   4.258
36652W        W 4993  23.070  20.043   3.631
36653W        W 4994  34.902  12.200  14.013
36654W        W 4995  27.183  13.627  12.966
36655W        W 4996  22.615   2.453  14.360
36656W        W 4997   0.449   7.171   0.733
36657W        W 4998  28.604  35.069   3.737
36658W        W 4999  14.774  43.512  11.492
36659W        W 5000  20.115  31.559  11.381
36660W        W 5001  30.957  10.252  14.020
36661W        W 5002  11.704  13.629  10.521
36662W        W 5003  43.472  34.474   1.852
36663W        W 5004  41.018  40.939  10.957
36664W        W 5005  16.574  19.642   1.803
36665W        W 5006  21.207  12.848  13.329
36666W        W 5007  37.559   3.950   4.328
36667W        W 5008  21.060   4.763  13.961
36668W        W 5009   2.394  10.260  11.911
36669W        W 5010  13.689   5.851  14.763
36670W        W 5011  44.399  43.297   2.230
36671W        W 5012  39.813  32.414  14.403
36672W        W 5013   9.214  27.660  10.444
36673W        W 5014  20.071  41.038   2.270
36674W        W 5015   6.776   4.253  14.906
36675W        W 5016  37.515   4.771  12.094
36676W        W 5017  34.962  30.549  12.411
36677W        W 5018   8.659   8.205  12.383
36678W        W 5019  30.456  30.062  11.013
36679W        W 5020  32.085   7.800   4.243
36680W        W 5021  40.357  14.293   3.866
36681W        W 5022  10.834  25.103  11.042
36682W        W 5023  10.694  12.661  10.529
36683W        W 5024  34.929  22.083   3.232
36684W        W 5025  13.822  33.579  10.990
36685W        W 5026  22.085  39.965   1.810
36686W        W 5027  43.991  26.551  10.950
36687W        W 5028   7.858  41.914   3.274
36688W        W 5029  31.534  17.791   3.268
36689W        W 5030  21.535  30.496   3.740
36690W        W 5031  35.888  35.506  11.879
36691W        W 5032  17.608  26.643   4.778
36692W        W 5033  12.257   6.339  10.465
36693W        W 5034   1.884  28.450  13.849
36694W        W 5035  24.049  30.498   2.241
36695W        W 5036  21.703   9.302  12.488
36696W        W 5037  31.590   2.896   2.671
36697W        W 5038  23.112  36.018   1.755
36698W        W 5039  35.943  29.996   2.741
36699W        W 5040  41.972  26.006  14.842
36700W        W 5041  32.050  14.734  11.478
36701W        W 5042  40.820  10.662  11.464
36702W        W 5043  33.623  30.952  14.846
36703W        W 5044   1.254  42.407  11.532
36704W        W 5045   7.785  34.045   1.369
36705W        W 5046  22.114  44.290   1.782
36706W        W 5047  39.495  14.192  12.885
36707W        W 5048  41.472   3.797   3.660
36708W        W 5049  31.589  38.845  11.050
36709W        W 5050  29.096  15.316   4.195
36710W        W 5051  11.209  36.082   2.256
36711W        W 5052  44.278  41.445  13.422
36712W        W 5053  17.724  15.211   2.263
36713W        W 5054  18.734  11.809  14.960
36714W        W 5055  31.460  12.158   3.288
36715W        W 5056  17.620  24.118  11.589
36716W        W 5057  19.761  16.188  13.960
36717W        W 5058  28.478  10.746   4.688
36718W        W 5059  14.673  36.939  11.009
36719W        W 5060   3.361  26.540  11.451
36720W        W 5061  14.816   5.312  12.425
36721W        W 5062  27.151  15.765   2.186
36722W        W 5063  36.420  10.695  12.955
36723W        W 5064   9.725  39.972  12.957
36724W        W 5065  11.751  37.433   1.364
36725W        W 5066  32.494  21.215   3.835
36726W        W 5067  32.611  16.265  11.880
36727W        W 5068  14.835   0.837  10.006
36728W        W 5069  32.561  27.489   2.698
36729W        W 5070  13.799  26.473  13.797
36730W        W 5071  41.943  42.813   3.261
36731W        W 5072  28.025  20.583   4.824
36732W        W 5073  26.477  26.581   3.379
36733W        W 5074  42.802  24.193   1.821
36734W        W 5075  32.961  27.111   4.795
36735W        W 5076  25.597  28.043  12.535
36736W        W 5077  10.356  44.414   1.252
36737W        W 5078  31.640  34.498   1.393
36738W        W 5079   1.843   8.333  14.942
36739W        W 5080   7.712  13.802  11.432
36740W        W 5081  30.017  27.550  13.041
36741W        W 5082  11.866   4.378  12.080
36742W        W 5083   5.710  14.101  14.310
36743W        W 5084  32.987  23.559   1.872
36744W        W 5085  15.137  22.561  11.533
36745W        W 5086  32.967   3.796  13.341
36746W        W 5087   2.835   6.857   3.703
36747W        W 5088  44.371  23.573   0.371
36748W        W 5089  25.129  39.506   1.929
36749W        W 5090  41.331   6.751   4.707
36750W        W 5091  39.381   3.336  12.539
36751W        W 5092  35.540  30.458   2.256
36752W        W 5093  41.911  36.354  10.928
36753W        W 5094  16.769  18.571  13.388
36754W        W 5095  31.621  32.469   4.243
36755W        W 5096  27.655  28.144  10.407
36756W        W 5097  15.580  32.096   1.761
36757W        W 5098  26.971  44.924  14.826
36758W        W 5099   5.876   7.724   1.407
36759W        W 5100  15.702  40.803   0.405
36760W        W 5101  38.981  38.994  14.026
36761W        W 5102  32.909  43.364   2.348
36762W        W 5103  17.304  32.435  10.546
36763W        W 5104  19.756  24.989  13.396
36764W        W 5105  35.025  35.070   4.311
36765W        W 5106  19.070  35.511   1.897
36766W        W 5107   7.397   9.185  12.070
36767W        W 5108  22.574  13.147  11.525
36768W        W 5109  28.980  44.361  11.057
36769W        W 5110  35.394  26.967  13.477
36770W        W 5111  28.543   1.823  11.598
36771W        W 5112  18.780  44.450   4.645
36772W        W 5113   3.321  44.985   1.852
36773W        W 5114  19.264  25.053   1.371
36774W        W 5115  18.274  30.913   3.270
36775W        W 5116   1.732  13.256  11.104
36776W        W 5117  10.717   5.371  10.627
36777W        W 5118   0.974   4.901  12.835
36778W        W 5119  28.934  19.644  11.041
36779W        W 5120  19.597   2.843  13.793
36780W        W 5121  40.023   9.845   3.201
36781W        W 5122  30.515   9.239   4.220
36782W        W 5123  19.710  13.745   3.715
36783W        W 5124  39.545  14.772  10.524
36784W        W 5125  44.380   6.824   3.737
36785W        W 5126   8.260   4.378  14.876
36786W        W 5127   0.309   2.254  12.369
36787W        W 5128  26.164  33.510   1.857
36788W        W 5129  10.723  18.190   3.350
36789W        W 5130  20.533  31.112  11.475
36790W        W 5131  29.428   6.691  12.387
36791W        W 5132   7.305   2.726   2.755
36792W        W 5133  41.417   4.345  13.057
36793W        W 5134  20.731  41.801   4.733
36794W        W 5135  18.569  26.968  13.538
36795W        W 5136  10.322  23.531  10.513
36796W        W 5137  24.219  29.569   1.356
36797W        W 5138   8.306  29.033   3.287
36798W        W 5139  31.521  26.086   0.262
36799W        W 5140  30.042  35.986   3.262
36800W        W 5141  44.776   6.803   1.744
36801W        W 5142  35.493  23.194  11.910
36802W        W 5143  18.708  41.971  13.812
36803W        W 5144  28.156  43.849   4.288
36804W        W 5145   5.812  32.946   3.309
36805W        W 5146  17.690  26.579  13.884
36806W        W 5147  44.875   9.367  11.488
36807W        W 5148   1.459  18.718   4.765
36808W        W 5149  44.876  23.000  12.954
36809W        W 5150  11.228  40.341  14.989
36810W        W 5151  38.930  37.067   4.289
36811W        W 5152  19.146  25.026   4.776
36812W        W 5153   4.423  34.465   0.347
36813W        W 5154  35.976  41.936  11.425
36814W        W 5155  35.601   3.808   3.382
36815W        W 5156   0.801  32.916  10.474
36816W        W 5157  15.129   6.786   2.684
36817W        W 5158  19.128   1.956   1.210
36818W        W 5159  16.104   1.347   2.409
36819W        W 5160   8.802  42.917   3.682
36820W        W 5161  28.085  44.842  14.300
36821W        W 5162  23.239  33.459  14.836
36822W        W 5163  38.388  17.696   3.715
36823W        W 5164  15.696  19.614   2.215
36824W        W 5165   0.451  13.255  11.433
36825W        W 5166  26.595  17.627   1.257
36826W        W 5167  22.738  34.905   3.672
36827W        W 5168   3.269  18.174   4.720
36828W        W 5169  36.355  15.770  11.386
36829W        W 5170  36.899  31.497  11.590
36830W        W 5171  40.882   9.246   3.150
36831W        W 5172  28.642  10.811  13.971
36832W        W 5173  13.225  33.092   3.665
36833W        W 5174  33.091  42.515   3.760
36834W        W 5175  15.128  44.344   3.800
36835W        W 5176  14.157  42.518   0.898
36836W        W 5177   7.372  16.616  11.098
36837W        W 5178  10.262   4.329  13.435
36838W        W 5179  10.200  31.963  14.865
36839W        W 5180   1.276  12.620  11.529
36840W        W 5181  40.448  30.518   2.225
36841W        W 5182  11.863   4.770   4.229
36842W        W 5183   0.451  30.554  11.432
36843W        W 5184  32.957  27.473   2.838
36844W        W 5185  21.542  40.443   2.247
36845W        W 5186  23.671  11.643  14.032
36846W        W 5187  12.184  25.970   4.832
36847W        W 5188  42.388  39.030   0.370
36848W        W 5189  40.825  12.755   1.761
36849W        W 5190  35.904   7.252   0.810
36850W        W 5191   9.828  25.182   4.753
36851W        W 5192   4.791  14.331  13.876
36852W        W 5193  23.202  27.649   4.621
36853W        W 5194  30.133  32.114   0.866
36854W        W 5195  36.541  31.436  11.993
36855W        W 5196  12.141  23.494   1.218
36856W        W 5197   4.444  27.480   3.805
36857W        W 5198  26.586  31.625  11.086
36858W        W 5199   4.416  41.917   4.275
36859W        W 5200  28.952  43.955  13.523
36860W        W 5201  19.274  27.623   0.907
36861W        W 5202  44.414  14.818   0.957
36862W        W 5203   2.299  19.243   5.598
36863W        W 5204  33.413  29.638   5.146
36864W        W 5205  30.111  34.424   1.746
36865W        W 5206  27.469  16.174  11.907
36866W        W 5207   2.828   2.854  10.911
36867W        W 5208  42.927  26.622   3.182
36868W        W 5209   2.322  16.081  13.320
36869W        W 5210  20.571   4.232   1.739
36870W        W 5211  41.407  40.535   3.846
36871W        W 5212  41.527   0.967  11.009
36872W        W 5213  36.995   9.313  12.058
36873W        W 5214  44.466  15.099  13.027
36874W        W 5215  37.578  20.243  14.371
36875W        W 5216  36.388   5.793  14.867
36876W        W 5217   1.298  27.512   1.405
36877W        W 5218   5.805  18.664   4.342
36878W        W 5219  15.117   1.922  13.309
36879W        W 5220  34.551   7.209   0.799
36880W        W 5221  36.037  27.610  14.809
36881W        W 5222  33.121   1.368   2.200
36882W        W 5223   9.721   2.952   1.431
36883W        W 5224  41.338  31.645  10.612
36884W        W 5225  21.163   8.739   3.779
36885W        W 5226  18.090  12.265  10.486
36886W        W 5227  17.265  39.005  12.459
36887W        W 5228  43.897  43.277  13.497
36888W        W 5229  14.711  24.167   0.743
36889W        W 5230  22.088  42.423  14.432
36890W        W 5231  10.335  36.510  13.466
36891W        W 5232  19.164  22.549   4.299
36892W        W 5233   2.862  36.874  12.450
36893W        W 5234  30.001  19.664  10.441
36894W        W 5235  22.684  40.973   1.211
36895W        W 5236  28.098  16.703   2.402
36896W        W 5237  34.086  26.179  13.052
36897W        W 5238  40.338  23.673   4.793
36898W        W 5239  41.292  21.145   1.401
36899W        W 5240   1.864   3.218   4.826
36900W        W 5241  33.025   0.449   0.896
36901W        W 5242  28.148  37.856   1.851
36902W        W 5243  37.052  36.512   2.239
36903W        W 5244  13.106   1.261  13.349
36904W        W 5245  28.021  31.496   1.863
36905W        W 5246  37.879  33.493   2.777
36906W        W 5247  28.530   8.696   2.784
36907W        W 5248  20.706  17.296   0.737
36908W        W 5249  20.592  33.112   1.762
36909W        W 5250   6.183  22.238   0.352
36910W        W 5251  12.287  29.976   0.911
36911W        W 5252   4.877  27.548  13.417
36912W        W 5253  38.855   0.443   4.182
36913W        W 5254  22.119  31.409   4.672
36914W        W 5255   2.285   2.935   0.785
36915W        W 5256  12.771  29.972  12.381
36916W        W 5257  26.203   6.776   2.364
36917W        W 5258   8.309   7.755   0.449
36918W        W 5259   2.889  13.210   3.635
36919W        W 5260  13.835  17.742  12.382
36920W        W 5261   1.253  11.861  14.451
36921W        W 5262   8.725  18.194  12.517
36922W        W 5263  36.069  27.515   3.853
36923W        W 5264  18.623  11.850   0.940
36924W        W 5265  18.275   3.727  10.463
36925W        W 5266  16.163  22.101   2.740
36926W        W 5267  37.945  17.620   4.812
36927W        W 5268  39.447  17.095   0.476
36928W        W 5269  14.300  12.143  10.630
36929W        W 5270  38.431  19.765   2.675
36930W        W 5271  25.071   5.312  14.491
36931W        W 5272   3.779  28.947  10.980
36932W        W 5273  30.581  28.113   1.880
36933W        W 5274  13.794  24.525  14.327
36934W        W 5275  26.479  26.971  14.501
36935W        W 5276  15.209  35.027   2.817
36936W        W 5277   1.428  38.902  13.909
36937W        W 5278   6.331  18.123   0.848
36938W        W 5279  28.182  29.532  13.039
36939W        W 5280  34.987  15.631  14.499
36940W        W 5281   1.446   3.346   2.757
36941W        W 5282  11.148  12.175  13.822
36942W        W 5283   4.340  41.359   0.740
36943W        W 5284  40.535  44.452  14.344
36944W        W 5285  44.479   8.735  11.417
36945W        W 5286  31.023  15.317  11.930
36946W        W 5287  19.093  39.384  13.367
36947W        W 5288  34.423   9.682   2.229
36948W        W 5289  28.013  13.321  14.282
36949W        W 5290  29.618  20.036  13.501
36950W        W 5291  22.209   3.858  14.930
36951W        W 5292   7.851   8.326  12.373
36952W        W 5293  40.851   7.403   4.125
36953W        W 5294  33.953  43.379  13.910
36954W        W 5295  18.726  43.402  11.075
36955W        W 5296  38.064  24.620  11.411
36956W        W 5297  24.031  20.181   9.466
36957W        W 5298  38.858   6.888  13.442
36958W        W 5299  18.293   0.872  13.924
36959W        W 5300   9.840  26.980   3.165
36960W        W 5301  34.895  16.787  14.949
36961W        W 5302  11.666  38.343  14.361
36962W        W 5303   4.818  23.078   4.244
36963W        W 5304  25.577  22.225  12.402
36964W        W 5305  17.680  32.407  14.837
36965W        W 5306  12.298  33.609   2.197
36966W        W 5307  44.314  44.899  14.492
36967W        W 5308  22.730   8.671  11.594
36968W        W 5309  18.612  14.253  14.465
36969W        W 5310  39.036  24.704   3.155
36970W        W 5311   8.185  43.790   0.404
36971W        W 5312  38.405  31.985  10.447
36972W        W 5313   9.215  25.068  11.584
36973W        W 5314   5.247  31.130  14.412
36974W        W 5315  27.472  16.724  14.468
36975W        W 5316  25.628  27.567   0.917
36976W        W 5317  15.154  33.462  12.876
36977W        W 5318  44.839  20.274   0.290
36978W        W 5319   3.364   4.890   4.271
36979W        W 5320  29.464  41.307  13.024
36980W        W 5321  26.673  38.034   4.618
36981W        W 5322  39.419  22.610  11.452
36982W        W 5323  23.090  24.114  11.447
36983W        W 5324  38.013  35.027   0.847
36984W        W 5325  44.328  18.240   5.153
36985W        W 5326   1.408  16.796  12.445
36986W        W 5327   2.310  10.633  11.978
36987W        W 5328  24.033  11.621   0.381
36988W        W 5329  36.491  20.709  14.009
36989W        W 5330  39.517  36.549   2.697
36990W        W 5331  12.610  21.042  12.026
36991W        W 5332  34.934  37.039   4.311
36992W        W 5333  14.257   2.814  12.476
36993W        W 5334  34.549  25.133   3.819
36994W        W 5335  21.558  31.109   1.759
36995W        W 5336  20.139  25.123   3.721
36996W        W 5337   4.229  16.607   4.349
36997W        W 5338   6.696  36.488   1.845
36998W        W 5339   1.861  40.470  11.561
36999W        W 5340  27.077  12.143  11.898
37000W        W 5341   1.965  38.498   3.276
37001W        W 5342  22.218  44.373   0.253
37002W        W 5343  29.519  32.398  12.828
37003W        W 5344  16.271  27.643  10.541
37004W        W 5345  17.069  30.623   2.850
37005W        W 5346  41.949  21.743  11.080
37006W        W 5347  15.103  39.465  11.937
37007W        W 5348  15.281  35.050   0.321
37008W        W 5349  35.021   4.874  14.412
37009W        W 5350  41.489  33.937   1.900
37010W        W 5351  28.086   6.855   3.836
37011W        W 5352  16.785   5.764   2.285
37012W        W 5353  14.308  43.963   1.849
37013W        W 5354   5.718  10.377   1.751
37014W        W 5355  23.660  27.463   0.356
37015W        W 5356  27.588   6.399   3.677
37016W        W 5357   1.956  30.581   1.739
37017W        W 5358   2.385   5.824  13.459
37018W        W 5359  32.084  24.151  13.433
37019W        W 5360   9.217  30.420  12.434
37020W        W 5361  21.657  18.758   0.451
37021W        W 5362  35.021  14.231   4.717
37022W        W 5363   7.748  27.181   2.223
37023W        W 5364  39.539  33.577   2.852
37024W        W 5365   8.888  43.328   1.244
37025W        W 5366  22.547  28.992   3.308
37026W        W 5367  24.208  34.017   3.153
37027W        W 5368  38.355  29.536  13.411
37028W        W 5369   0.750  36.371  11.479
37029W        W 5370  35.405  31.041   0.461
37030W        W 5371   8.391  44.770  13.946
37031W        W 5372  36.985   7.710   1.220
37032W        W 5373  20.629  28.605   2.390
37033W        W 5374  17.642  24.087   5.154
37034W        W 5375  43.906  36.497   4.173
37035W        W 5376  34.522  31.497  12.033
37036W        W 5377  15.784  18.083  12.370
37037W        W 5378  18.666  14.247  13.438
37038W        W 5379   0.961  41.808  14.500
37039W        W 5380  42.807  44.003   2.819
37040W        W 5381  34.615  43.773   2.183
37041W        W 5382  11.296  13.193  12.411
37042W        W 5383  24.647  23.715  12.988
37043W        W 5384  17.258  18.610  11.405
37044W        W 5385  35.562   9.747  14.912
37045W        W 5386  31.608   3.764  14.977
37046W        W 5387  12.181  15.141   0.792
37047W        W 5388  27.446  19.191  13.318
37048W        W 5389  39.825   0.401   1.251
37049W        W 5390  40.026  20.526   3.210
37050W        W 5391   7.366   3.387  11.863
37051W        W 5392  38.939  15.650   4.611
37052W        W 5393   1.445  44.295  12.981
37053W        W 5394  10.699  29.575   2.301
37054W        W 5395  21.604  14.759  14.920
37055W        W 5396  20.539   7.874  13.334
37056W        W 5397  27.019   9.737   3.743
37057W        W 5398   9.282  23.076   0.730
37058W        W 5399  32.507  23.114  14.978
37059W        W 5400  33.024  15.741  13.914
37060W        W 5401  43.343  33.068  12.347
37061W        W 5402  44.331  20.215  14.944
37062W        W 5403   7.416  39.908   0.740
37063W        W 5404  17.600   3.867   4.664
37064W        W 5405  35.109  24.514  12.011
37065W        W 5406  30.464  26.697   5.092
37066W        W 5407  36.388  20.579   0.968
37067W        W 5408  15.265  12.731   3.298
37068W        W 5409   6.914   1.371  12.842
37069W        W 5410  22.532  26.518  13.389
37070W        W 5411  33.512  44.844  11.564
37071W        W 5412  22.697   4.400  13.376
37072W        W 5413  14.592  34.106   0.894
37073W        W 5414  29.579  33.537  12.916
37074W        W 5415   3.422  40.910  10.920
37075W        W 5416  15.736  44.384  13.403
37076W        W 5417  21.023  22.161   3.682
37077W        W 5418  39.459  10.146   2.685
37078W        W 5419  11.697  21.677  11.600
37079W        W 5420  21.579  20.219  11.103
37080W        W 5421   8.197  24.657  13.854
37081W        W 5422  39.002  33.479   3.278
37082W        W 5423  31.434   7.715  12.358
37083W        W 5424  35.430  34.041   2.777
37084W        W 5425   5.324  23.133   0.364
37085W        W 5426  41.461  15.678  11.397
37086W        W 5427   5.270   9.832  12.441
37087W        W 5428  27.127  23.168  11.534
37088W        W 5429  25.976  17.779   2.248
37089W        W 5430   5.265   1.381  13.442
37090W        W 5431  44.935  21.733  11.080
37091W        W 5432  32.130  15.192   4.339
37092W        W 5433  24.167  22.549  14.916
37093W        W 5434  26.457   0.772  14.820
37094W        W 5435  23.647  10.664   0.414
37095W        W 5436  25.023  25.990   1.764
37096W        W 5437  25.674  29.637  13.854
37097W        W 5438  21.688  40.524  13.825
37098W        W 5439  19.696  29.593  14.874
37099W        W 5440  16.197  43.766  11.571
37100W        W 5441  18.583  14.646  11.602
37101W        W 5442  19.092   6.705   4.172
37102W        W 5443   0.396  12.806  13.532
37103W        W 5444   4.840  43.395   0.273
37104W        W 5445  44.783  41.039   2.273
37105W        W 5446  36.564  39.383   4.299
37106W        W 5447  26.161   3.855   0.446
37107W        W 5448   6.765  15.259   0.248
37108W        W 5449  27.056  38.360  14.488
37109W        W 5450  23.069  31.571  13.887
37110W        W 5451  41.512   0.452  11.055
37111W        W 5452  32.526  15.683  10.086
37112W        W 5453  29.643  21.602  10.447
37113W        W 5454  19.646   9.842  14.933
37114W        W 5455  37.960   7.225   4.271
37115W        W 5456   8.287  34.905   4.663
37116W        W 5457  21.209  15.744   3.189
37117W        W 5458  41.916  41.520   2.338
37118W        W 5459   0.845  43.308   4.128
37119W        W 5460  14.667  42.452   3.854
37120W        W 5461   6.309  32.581  13.814
37121W        W 5462  30.077   6.271  11.917
37122W        W 5463  41.483   3.941  10.484
37123W        W 5464  44.460  25.100   1.795
37124W        W 5465  13.151  32.401   4.226
37125W        W 5466  25.488  36.383   1.345
37126W        W 5467  25.583   0.259   2.727
37127W        W 5468  28.150  39.843   3.745
37128W        W 5469  30.482   9.194  14.021
37129W        W 5470  12.329  18.589  12.034
37130W        W 5471  30.916  10.755  11.396
37131W        W 5472  14.709   8.761  10.618
37132W        W 5473  17.571   2.804  11.058
37133W        W 5474  28.628  44.905  14.796
37134W        W 5475  26.647  37.851   4.296
37135W        W 5476  20.531  23.542   2.664
37136W        W 5477  30.911   6.376  11.075
37137W        W 5478  29.477  24.135  11.903
37138W        W 5479  33.384  43.387   4.802
37139W        W 5480  12.798  15.616  13.478
37140W        W 5481  37.499  19.604   3.836
37141W        W 5482  34.490  38.471  11.946
37142W        W 5483   1.775  13.846  12.573
37143W        W 5484  30.124   3.295   0.346
37144W        W 5485  11.359  41.021   1.314
37145W        W 5486   3.452  35.403  11.480
37146W        W 5487  16.584   8.797   4.217
37147W        W 5488  41.994  33.093  11.944
37148W        W 5489  12.622  37.404  10.491
37149W        W 5490   2.441   2.893   1.842
37150W        W 5491  42.390  16.108  13.855
37151W        W 5492  41.324  40.494   2.792
37152W        W 5493  32.992  32.931  11.886
37153W        W 5494  18.737  30.997  13.846
37154W        W 5495  16.198  33.506   2.823
37155W        W 5496  36.075  15.591  14.876
37156W        W 5497  33.948  32.609  10.913
37157W        W 5498   5.233  44.771  11.916
37158W        W 5499   9.229  12.336   1.242
37159W        W 5500  27.003  20.653   0.924
37160W        W 5501  20.657   8.272   2.246
37161W        W 5502  28.576  19.591  10.997
37162W        W 5503  43.354  23.512   2.874
37163W        W 5504  19.557   0.768   2.257
37164W        W 5505   1.359  44.468   4.754
37165W        W 5506  30.094  25.197  13.844
37166W        W 5507  35.949  32.472  11.948
37167W        W 5508   8.347  40.006  14.957
37168W        W 5509  43.478  18.643   2.756
37169W        W 5510  13.254  18.106   3.214
37170W        W 5511   5.361  37.445   1.897
37171W        W 5512  12.172  19.536  14.314
37172W        W 5513  11.790  44.984  10.637
37173W        W 5514  34.955   1.402   1.869
37174W        W 5515  30.008  32.905  12.439
37175W        W 5516  39.851   1.360  13.425
37176W        W 5517  17.263  33.893   0.365
37177W        W 5518  29.517  30.457  14.435
37178W        W 5519  41.961  19.754   3.322
37179W        W 5520  43.827  28.651   4.144
37180W        W 5521  25.544  13.630   4.139
37181W        W 5522  40.926  27.089   3.802
37182W        W 5523   7.354  12.141   4.752
37183W        W 5524  17.210  41.321  13.424
37184W        W 5525  44.860  33.115   1.730
37185W        W 5526   7.196  23.594   3.343
37186W        W 5527  15.215  21.199  13.886
37187W        W 5528  42.456  30.638   0.914
37188W        W 5529  11.204  35.934   1.831
37189W        W 5530   6.805  24.180   1.350
37190W        W 5531  26.672  13.830  10.942
37191W        W 5532  43.954  39.021  12.456
37192W        W 5533   7.778  32.038   1.892
37193W        W 5534  43.827  35.042  14.991
37194W        W 5535   6.845  12.263   3.632
37195W        W 5536  23.047  35.581   3.693
37196W        W 5537  31.462   6.340   1.800
37197W        W 5538  31.577  10.841  12.567
37198W        W 5539   2.277  37.410  13.425
37199W        W 5540  33.939  44.471   3.718
37200W        W 5541  26.582  40.012   5.267
37201W        W 5542  28.975  11.358  13.041
37202W        W 5543  17.307  30.101  10.603
37203W        W 5544  40.390  29.602  10.526
37204W        W 5545  13.697  26.647  10.563
37205W        W 5546  15.713  14.648   2.793
37206W        W 5547  21.193  40.021   4.800
37207W        W 5548  37.368  13.821   2.742
37208W        W 5549  20.262  31.450   1.780
37209W        W 5550  41.982  36.351   4.790
37210W        W 5551  25.584  34.038  11.991
37211W        W 5552  14.189  12.791   2.215
37212W        W 5553  14.638  42.360  14.803
37213W        W 5554  14.095  39.952  10.473
37214W        W 5555  36.484   7.876  11.938
37215W        W 5556  42.337  29.087   0.789
37216W        W 5557   1.907  42.936   0.445
37217W        W 5558  28.512  43.353  13.031
37218W        W 5559  14.211  21.253   4.818
37219W        W 5560  33.094  23.566  12.047
37220W        W 5561  39.946   4.243  13.859
37221W        W 5562  41.954  39.488   4.754
37222W        W 5563  40.802  22.708  12.832
37223W        W 5564   9.335   4.244   0.380
37224W        W 5565   5.791  39.532   1.358
37225W        W 5566  26.629  33.898   4.288
37226W        W 5567  39.983  41.916  11.939
37227W        W 5568   8.202  14.724  13.318
37228W        W 5569  38.526  42.936   3.630
37229W        W 5570   0.841  19.114  14.287
37230W        W 5571  42.857  10.661   4.223
37231W        W 5572  43.347  38.995  12.001
37232W        W 5573  31.995  41.849  12.421
37233W        W 5574  17.204   2.320  12.541
37234W        W 5575  16.130   8.378   1.426
37235W        W 5576  22.063  42.517   4.764
37236W        W 5577  41.979  12.652   4.121
37237W        W 5578  19.760  20.759  12.875
37238W        W 5579  44.902   5.710  12.456
37239W        W 5580  38.410  12.161   3.229
37240W        W 5581  19.119  36.901  13.472
37241W        W 5582  40.971  10.340   1.888
37242W        W 5583  40.983  21.738  12.408
37243W        W 5584  26.044  34.476  11.591
37244W        W 5585  11.281  10.320   2.713
37245W        W 5586  14.335   3.780  13.026
37246W        W 5587  38.911  39.410   3.761
37247W        W 5588  17.711   3.284  14.465
37248W        W 5589  35.586  16.811  13.547
37249W        W 5590  12.255   4.914  11.116
37250W        W 5591  20.713  25.479  13.961
37251W        W 5592  42.309  32.093  10.481
37252W        W 5593  26.468  12.778   2.195
37253W        W 5594  33.934  24.636  11.520
37254W        W 5595  22.087  39.972  11.110
37255W        W 5596  41.347  27.196  10.548
37256W        W 5597  32.115   5.905   3.147
37257W        W 5598  43.429   8.692  11.859
37258W        W 5599  40.308  39.815  10.945
37259W        W 5600   4.361   5.251  14.786
37260W        W 5601  28.602  35.970  10.445
37261W        W 5602  44.308  37.546   0.364
37262W        W 5603  36.466  39.022  10.970
37263W        W 5604  17.795  14.204   5.208
37264W        W 5605  17.138  24.701   5.238
37265W        W 5606  38.957  14.099  10.420
37266W        W 5607   1.286  35.520  14.764
37267W        W 5608  41.501  43.969   0.729
37268W        W 5609   3.768   7.680   2.801
37269W        W 5610  32.142  38.077  11.448
37270W        W 5611  42.485  33.438   0.745
37271W        W 5612  32.095  25.027  11.098
37272W        W 5613  31.945   3.242   3.233
37273W        W 5614   9.386  42.812   4.717
37274W        W 5615  41.522  37.568  11.856
37275W        W 5616  25.672   1.954   2.361
37276W        W 5617  15.791   8.344   3.825
37277W        W 5618  40.797  22.689   3.829
37278W        W 5619  43.294  30.063   0.463
37279W        W 5620  17.090  16.194   0.399
37280W        W 5621   5.388  13.625  10.514
37281W        W 5622  12.620   2.795  12.416
37282W        W 5623  23.636   8.794  12.908
37283W        W 5624   4.886   5.798  14.427
37284W        W 5625  17.232  17.212   3.159
37285W        W 5626   9.326  20.155  12.854
37286W        W 5627   9.867   4.369   0.801
37287W        W 5628   2.726  19.608   4.643
37288W        W 5629  29.604  26.124  14.871
37289W        W 5630  18.215  21.112   4.133
37290W        W 5631  17.611  10.875   0.831
37291W        W 5632  30.952  39.008   2.893
37292W        W 5633  29.510  37.992  13.898
37293W        W 5634  29.460  36.435   3.377
37294W        W 5635  15.133  25.085   3.748
37295W        W 5636   4.377   6.215   2.359
37296W        W 5637   4.388  39.380   4.647
37297W        W 5638  15.156  44.872   1.343
37298W        W 5639  30.024  20.091   2.825
37299W        W 5640  27.170  19.724  11.605
37300W        W 5641  40.883  31.032   0.895
37301W        W 5642  15.298  25.604   2.402
37302W        W 5643  33.937  19.105   1.779
37303W        W 5644  35.542  19.690   3.167
37304W        W 5645  19.198  31.588   3.745
37305W        W 5646  14.715  15.201  14.296
37306W        W 5647  34.609  43.012  11.532
37307W        W 5648  11.165  44.404  12.492
37308W        W 5649  18.177  37.021  12.528
37309W        W 5650  43.459  33.901  12.991
37310W        W 5651  10.143   5.766   5.160
37311W        W 5652  22.670  16.725  12.470
37312W        W 5653  18.728  16.088   1.326
37313W        W 5654  28.105  28.930   1.313
37314W        W 5655  33.062  26.034   2.195
37315W        W 5656  20.160  39.542   0.455
37316W        W 5657  38.495  37.416   1.221
37317W        W 5658  37.851  12.701  10.487
37318W        W 5659   5.223  37.921  12.096
37319W        W 5660  13.640   1.962   2.285
37320W        W 5661   5.421  16.694  13.887
37321W        W 5662  44.835  10.283  10.640
37322W        W 5663  21.673  41.532  13.364
37323W        W 5664  23.625  36.430  11.937
37324W        W 5665  24.724  30.525   4.731
37325W        W 5666  32.029  23.707   4.318
37326W        W 5667  30.479   6.193  14.867
37327W        W 5668  16.191  23.078   4.701
37328W        W 5669  41.388  17.287  13.525
37329W        W 5670  22.693   1.746  13.383
37330W        W 5671  39.850   1.782   1.308
37331W        W 5672  38.046  14.315   2.862
37332W        W 5673  40.995  27.458   0.415
37333W        W 5674  22.180  41.461  14.282
37334W        W 5675  24.103  10.280  10.073
37335W        W 5676  23.199  18.682  10.083
37336W        W 5677  26.984  10.708   0.960
37337W        W 5678   3.260  26.994   1.721
37338W        W 5679   7.758  12.809   0.427
37339W        W 5680  33.572  29.090  12.384
37340W        W 5681   0.941  37.372  12.971
37341W        W 5682  33.392  20.591  13.364
37342W        W 5683  24.018  32.560  12.946
37343W        W 5684  11.812  15.324   0.924
37344W        W 5685   5.886  21.041  11.482
37345W        W 5686  19.131  32.910   0.854
37346W        W 5687  19.241  31.474   0.860
37347W        W 5688  13.601  25.219  14.996
37348W        W 5689  31.580  40.496  12.917
37349W        W 5690  27.466  20.109   3.217
37350W        W 5691  22.173  25.474  10.404
37351W        W 5692  33.468   7.763  12.046
37352W        W 5693  13.745   3.952  11.405
37353W        W 5694  42.911  25.530   4.725
37354W        W 5695  32.617  42.878   1.235
37355W        W 5696   8.337  12.173   3.695
37356W        W 5697  20.562  29.019   4.311
37357W        W 5698  31.899   2.395  14.386
37358W        W 5699   9.885  31.976   0.791
37359W        W 5700  19.598   3.437   1.307
37360W        W 5701   7.846  31.488   3.869
37361W        W 5702  42.871  42.998   4.604
37362W        W 5703   4.305  23.045  13.961
37363W        W 5704  26.163  25.678   4.258
37364W        W 5705  19.183  14.794  11.468
37365W        W 5706  12.777  31.536   0.759
37366W        W 5707  35.980  16.767   2.328
37367W        W 5708   5.835  27.196  12.095
37368W        W 5709  11.675   9.728  11.526
37369W        W 5710  26.624  27.687   3.386
37370W        W 5711  28.641  39.884  11.006
37371W        W 5712  35.475   5.818  12.538
37372W        W 5713  39.826  16.696  10.461
37373W        W 5714  21.545  18.119   0.793
37374W        W 5715  10.672  26.962  11.052
37375W        W 5716   9.716  36.014   3.304
37376W        W 5717  19.614  12.812  14.373
37377W        W 5718  34.460  33.966   4.125
37378W        W 5719  21.750   8.364  12.339
37379W        W 5720  33.562  34.470  12.847
37380W        W 5721  33.957  43.861   3.171
37381W        W 5722  26.526   6.916   1.242
37382W        W 5723  30.631  29.642   1.842
37383W        W 5724  38.396  38.895  14.838
37384W        W 5725  41.022  28.103  11.389
37385W        W 5726   3.907   3.714   3.296
37386W        W 5727  20.536  11.779  14.980
37387W        W 5728  27.579  39.026   3.324
37388W        W 5729   8.671   6.182  12.546
37389W        W 5730  25.648   8.833   4.664
37390W        W 5731  38.947   9.187  13.468
37391W        W 5732  28.524  33.880  13.380
37392W        W 5733  10.712  23.627   0.744
37393W        W 5734  20.665  21.221  14.780
37394W        W 5735  30.442  14.685  11.867
37395W        W 5736  39.975  42.317  13.797
37396W        W 5737  13.729  40.844  10.593
37397W        W 5738  44.828   6.244   0.261
37398W        W 5739   4.776  27.492  13.967
37399W        W 5740   0.783  11.701  12.540
37400W        W 5741  43.389  15.654   0.801
37401W        W 5742  29.475  40.305  10.135
37402W        W 5743   8.323  19.535   2.222
37403W        W 5744  16.735  22.612   0.337
37404W        W 5745  41.973  10.186   5.216
37405W        W 5746   4.701  24.715   3.761
37406W        W 5747  28.159  42.873  13.060
37407W        W 5748  36.065  24.499   1.820
37408W        W 5749  17.140   1.791   1.731
37409W        W 5750   9.348  41.427  10.103
37410W        W 5751  12.272   1.939  11.989
37411W        W 5752  26.635  19.220  14.010
37412W        W 5753  41.832  24.216   3.258
37413W        W 5754  43.459   7.374  10.642
37414W        W 5755  29.063   0.255  12.468
37415W        W 5756  27.070  29.607   4.238
37416W        W 5757   6.374  20.715  11.548
37417W        W 5758  39.940  21.707  12.407
37418W        W 5759  26.605  16.691   2.237
37419W        W 5760  17.096   3.439  10.443
37420W        W 5761  41.386  24.065   0.880
37421W        W 5762  13.820  37.059   0.902
37422W        W 5763  13.219  27.480  13.910
37423W        W 5764  10.830  31.505   0.306
37424W        W 5765  36.021   5.905  11.532
37425W        W 5766   4.445  30.540   3.725
37426W        W 5767  33.935  35.397  11.983
37427W        W 5768   9.791  35.945   2.901
37428W        W 5769  21.733  22.165  11.069
37429W        W 5770  38.414  33.104  11.608
37430W        W 5771  16.664  40.327  12.048
37431W        W 5772  38.425   9.221  12.532
37432W        W 5773  22.669  33.484   4.164
37433W        W 5774  14.274  38.398  10.099
37434W        W 5775  15.715  43.397   4.833
37435W        W 5776  18.199  40.050   3.810
37436W        W 5777  18.645  19.264   1.405
37437W        W 5778  11.655  36.979   1.363
37438W        W 5779  40.351  18.624   1.312
37439W        W 5780   7.805  13.243  11.908
37440W        W 5781  12.719  29.958   3.362
37441W        W 5782  33.970  31.141  14.430
37442W        W 5783  16.664  29.469   1.299
37443W        W 5784  41.414  23.117   0.874
37444W        W 5785  41.451  40.549  11.579
37445W        W 5786  36.581  11.185   4.133
37446W        W 5787  35.443  15.811   4.777
37447W        W 5788  36.530  28.654   0.942
37448W        W 5789  28.674  33.109  11.028
37449W        W 5790  23.131  35.441  11.993
37450W        W 5791   1.838  19.088   3.235
37451W        W 5792  21.749  34.445  13.970
37452W        W 5793  31.585  41.004  14.976
37453W        W 5794  17.205  10.356   4.268
37454W        W 5795  20.067   1.868  14.902
37455W        W 5796  33.026  14.760  13.366
37456W        W 5797  42.816  33.552  11.894
37457W        W 5798  37.894  30.645  13.949
37458W        W 5799   2.265  15.670  10.570
37459W        W 5800  41.309   4.812  10.888
37460W        W 5801  18.157  24.029  12.879
37461W        W 5802  15.585  40.403   1.711
37462W        W 5803  38.553  31.456  11.923
37463W        W 5804  25.069  35.578   1.377
37464W        W 5805  20.041  21.695  11.923
37465W        W 5806  35.388   3.869  13.350
37466W        W 5807  28.452  20.754   0.881
37467W        W 5808  21.617  34.553  14.945
37468W        W 5809  30.070   7.839   0.899
37469W        W 5810   1.779  43.361  12.939
37470W        W 5811  27.971  36.014   0.926
37471W        W 5812  16.701  28.104  11.018
37472W        W 5813  14.828  34.478  14.288
37473W        W 5814   2.365  32.564  14.363
37474W        W 5815   8.753  14.313   1.817
37475W        W 5816   0.866  37.009  12.899
37476W        W 5817  39.351  23.055   3.342
37477W        W 5818  19.751  36.985  10.932
37478W        W 5819  17.715  17.792  13.432
37479W        W 5820  44.367  42.019  14.992
37480W        W 5821  34.961  11.270   2.341
37481W        W 5822  24.046  19.665   9.472
37482W        W 5823   3.731  19.608   3.218
37483W        W 5824  28.633  44.264  11.582
37484W        W 5825  40.352  20.586   3.296
37485W        W 5826  43.314  14.105  13.314
37486W        W 5827  27.621   7.402  12.957
37487W        W 5828   1.905  31.109   4.250
37488W        W 5829  29.090  22.027   2.662
37489W        W 5830  15.788  33.030  10.942
37490W        W 5831   7.407  26.052  14.020
37491W        W 5832  41.920   7.344   2.876
37492W        W 5833  18.611   9.331   1.715
37493W        W 5834  16.315  23.717   2.680
37494W        W 5835  30.424  41.945   2.368
37495W        W 5836  24.196  39.326  10.895
37496W        W 5837  16.659  36.403   1.281
37497W        W 5838  42.354  17.111   4.691
37498W        W 5839  28.503  10.201   3.637
37499W        W 5840  37.920  14.604   0.878
37500W        W 5841   4.251  28.437   1.822
37501W        W 5842  20.067   4.428  14.886
37502W        W 5843  33.083   3.892   0.943
37503W        W 5844  18.121  14.675  12.472
37504W        W 5845   9.803  19.598   3.831
37505W        W 5846  13.217  10.362  12.374
37506W        W 5847  33.576  18.280   0.944
37507W        W 5848  25.984  10.253   2.840
37508W        W 5849  35.419  16.167   3.746
37509W        W 5850   1.907  33.438   0.312
37510W        W 5851  13.602  10.140  13.530
37511W        W 5852  15.205   7.172  12.528
37512W        W 5853  21.104  26.062  10.491
37513W        W 5854  15.253  11.790   0.416
37514W        W 5855  35.575  37.893  10.918
37515W        W 5856  23.075  42.856   3.236
37516W        W 5857  37.534  41.906  11.394
37517W        W 5858  40.871  26.987  12.475
37518W        W 5859  41.801  15.659  12.890
37519W        W 5860  25.080  40.321  12.981
37520W        W 5861   9.275  31.420  13.346
37521W        W 5862  39.373  32.548   0.910
37522W        W 5863  31.588  10.316  11.386
37523W        W 5864  30.509  19.769   1.852
37524W        W 5865   5.708  26.519  13.543
37525W        W 5866  23.622  35.888  11.916
37526W        W 5867  18.143  42.851   2.716
37527W        W 5868  19.764  15.212   2.670
37528W        W 5869  27.541  36.874   1.830
37529W        W 5870   7.415  43.387   2.413
37530W        W 5871   1.459  31.443   0.767
37531W        W 5872   0.779  19.552   3.841
37532W        W 5873  44.452  44.795  14.798
37533W        W 5874   1.759  23.636   3.800
37534W        W 5875  12.330  27.948  11.938
37535W        W 5876  34.483  42.450   0.354
37536W        W 5877  35.084  41.814  14.431
37537W        W 5878   0.938   8.706  14.488
37538W        W 5879   8.352   0.876   2.804
37539W        W 5880  11.864   4.813   4.704
37540W        W 5881  40.931  36.527  13.890
37541W        W 5882  18.746   3.717  12.513
37542W        W 5883   4.417  16.748   1.219
37543W        W 5884  31.009  40.514   5.139
37544W        W 5885  11.628  14.330   3.239
37545W        W 5886  10.848   4.295   3.201
37546W        W 5887  26.973   8.337   3.259
37547W        W 5888  40.830  30.511  14.312
37548W        W 5889   2.744  19.753  13.842
37549W        W 5890  24.695  10.361  12.371
37550W        W 5891  37.913   9.331  11.595
37551W        W 5892  20.195  14.149  10.997
37552W        W 5893  19.179  36.857   4.252
37553W        W 5894  27.954  22.582   3.786
37554W        W 5895  24.161  43.871   3.744
37555W        W 5896   8.680  40.479  12.916
37556W        W 5897   3.253  22.202   1.277
37557W        W 5898  16.638  28.516   3.775
37558W        W 5899  23.722  11.788   0.790
37559W        W 5900  27.183  17.787   3.827
37560W        W 5901  16.150  15.215   4.136
37561W        W 5902   8.394  37.982   3.169
37562W        W 5903  25.498   1.380   1.932
37563W        W 5904  19.101  28.505  12.973
37564W        W 5905  11.770  33.568  10.907
37565W        W 5906   9.162   6.298  14.781
37566W        W 5907  14.806   3.817   2.834
37567W        W 5908   7.803  25.472   4.733
37568W        W 5909  35.054  19.167  13.005
37569W        W 5910  40.927  15.797  11.447
37570W        W 5911   8.739  43.984   0.836
37571W        W 5912  44.486  29.021   1.897
37572W        W 5913   4.731   0.376  13.958
37573W        W 5914  12.148  15.703   1.874
37574W        W 5915  35.385   5.750   2.221
37575W        W 5916   0.384   1.335   1.858
37576W        W 5917  26.530  41.933   1.867
37577W        W 5918  18.623  20.667  11.903
37578W        W 5919  31.475   0.921  14.925
37579W        W 5920  28.554  39.419  10.948
37580W        W 5921   3.436   9.266  11.593
37581W        W 5922   8.275  14.673   3.680
37582W        W 5923   8.734  28.989  13.868
37583W        W 5924  13.315  16.569  13.361
37584W        W 5925  20.219   5.228   4.653
37585W        W 5926  10.871  22.611  14.816
37586W        W 5927  19.611  31.094  11.452
37587W        W 5928  31.123  38.344   2.767
37588W        W 5929  11.296  33.403  13.547
37589W        W 5930  11.675  28.935  10.951
37590W        W 5931  33.103  31.427  13.923
37591W        W 5932  16.688  16.270  14.979
37592W        W 5933  10.717  23.234   2.319
37593W        W 5934  27.050   8.266   2.383
37594W        W 5935  20.078   2.937  12.047
37595W        W 5936  28.672  41.469  12.910
37596W        W 5937   3.787  34.991  11.978
37597W        W 5938  24.581  38.332  13.927
37598W        W 5939  21.588  23.234  13.497
37599W        W 5940  23.652  23.184  11.504
37600W        W 5941  19.242  15.744  12.852
37601W        W 5942   9.713  25.511  14.339
37602W        W 5943  44.895   8.707   3.702
37603W        W 5944  42.331   2.326  13.941
37604W        W 5945  13.302  37.402  11.964
37605W        W 5946  16.567  33.110   1.288
37606W        W 5947   1.812   2.905  11.087
37607W        W 5948  18.120   7.269   1.414
37608W        W 5949  44.381  40.826   1.280
37609W        W 5950   5.238  13.765  10.999
37610W        W 5951  15.725  39.355   5.138
37611W        W 5952   6.248  25.484  13.449
37612W        W 5953   8.754  20.040   1.426
37613W        W 5954  10.759   3.763  12.974
37614W        W 5955   1.302  19.129   0.331
37615W        W 5956  17.275   6.217   3.839
37616W        W 5957   2.751   3.823   2.232
37617W        W 5958  15.208  36.033   3.825
37618W        W 5959  23.004  21.516  13.391
37619W        W 5960  42.389  14.159   1.445
37620W        W 5961   6.219  11.336   2.671
37621W        W 5962   2.937  10.345   1.763
37622W        W 5963  40.381   8.206  10.466
37623W        W 5964   7.844   5.905   1.247
37624W        W 5965  26.997  39.506  11.029
37625W        W 5966   4.350  42.298   2.272
37626W        W 5967  24.555  24.222   3.378
37627W        W 5968  25.971  28.007  12.979
37628W        W 5969  23.189  41.006   3.170
37629W        W 5970  41.027  42.471   1.414
37630W        W 5971  23.134  33.995  11.577
37631W        W 5972  25.533   8.711   1.391
37632W        W 5973  32.543  32.570   4.752
37633W        W 5974  37.999  17.086  13.496
37634W        W 5975  30.006   9.254  14.281
37635W        W 5976  40.954   8.793  11.425
37636W        W 5977  29.144   1.746   4.263
37637W        W 5978  39.048  27.595  14.933
37638W        W 5979  34.892  28.649   3.870
37639W        W 5980  32.626  34.915   0.881
37640W        W 5981  20.238   3.450  12.576
37641W        W 5982  27.053   5.766  12.823
37642W        W 5983  31.573   4.329  12.916
37643W        W 5984  10.734  41.892  12.054
37644W        W 5985  23.686  27.652  14.935
37645W        W 5986  14.208   6.872   1.333
37646W        W 5987  36.398  27.685  13.449
37647W        W 5988   8.382  22.152  10.963
37648W        W 5989  22.152  33.567  12.492
37649W        W 5990  41.523   0.742   4.134
37650W        W 5991  16.710  21.559  10.960
37651W        W 5992  38.413   6.695  11.434
37652W        W 5993  23.039  17.168   3.680
37653W        W 5994  15.662  25.195  13.452
37654W        W 5995  16.299   9.254  10.964
37655W        W 5996  40.049  38.921  12.542
37656W        W 5997  26.546  10.666  12.460
37657W        W 5998  11.221  34.568  12.439
37658W        W 5999  44.847  21.049  14.484
37659W        W 6000  26.061  23.239   0.762
37660W        W 6001  35.873  17.194  14.361
37661W        W 6002  22.162   0.452  10.504
37662W        W 6003  35.056  24.644  14.937
37663W        W 6004  43.421  18.101   2.326
37664W        W 6005  37.468   4.739   0.355
37665W        W 6006  24.719  39.964  10.441
37666W        W 6007  29.944  42.414   0.356
37667W        W 6008  36.847  13.265  10.467
37668W        W 6009  22.161  12.232   1.330
37669W        W 6010  42.891  37.075   4.168
37670W        W 6011  32.612   2.460  11.478
37671W        W 6012  13.119  13.233   3.724
37672W        W 6013   4.341   3.344  12.903
37673W        W 6014  35.533  43.012  13.950
37674W        W 6015   0.271  15.765  10.935
37675W        W 6016  32.441  23.510   3.809
37676W        W 6017   3.885   0.316  11.859
37677W        W 6018  19.612  33.391   4.692
37678W        W 6019  20.712  25.541   0.392
37679W        W 6020  13.651  13.745   4.836
37680W        W 6021  22.037  21.745   1.312
37681W        W 6022  42.519  37.836  13.463
37682W        W 6023  20.114  24.629  10.985
37683W        W 6024  28.445  25.989   3.376
37684W        W 6025  26.671   3.742  10.420
37685W        W 6026  15.768  22.232   0.413
37686W        W 6027  16.806  15.796   3.690
37687W        W 6028  16.590   2.825  13.320
37688W        W 6029   1.457  39.856   1.800
37689W        W 6030  43.485  39.841   2.707
37690W        W 6031  30.157  20.107   1.861
37691W        W 6032  22.652  39.356  14.859
37692W        W 6033  28.532  13.165   2.823
37693W        W 6034  41.342   3.727  13.399
37694W        W 6035  36.504   0.902  12.985
37695W        W 6036   1.765  11.319  12.987
37696W        W 6037   7.414  18.680   3.236
37697W        W 6038  11.294   5.811   2.754
37698W        W 6039  21.671  16.612  10.576
37699W        W 6040   5.316  23.662   1.219
37700W        W 6041  28.590  31.484   2.898
37701W        W 6042  32.512  35.454   2.668
37702W        W 6043   1.430  25.030  11.026
37703W        W 6044  12.723  40.428   3.675
37704W        W 6045   8.786  41.983   0.404
37705W        W 6046   6.183  31.455   3.201
37706W        W 6047  44.883  22.504  12.053
37707W        W 6048  28.949  27.533   4.291
37708W        W 6049  43.366  32.113   3.357
37709W        W 6050  39.987  11.329   1.256
37710W        W 6051   6.243  14.704   1.915
37711W        W 6052  14.748   3.415  14.468
37712W        W 6053  10.727   0.812   0.819
37713W        W 6054  31.922  37.369  10.161
37714W        W 6055  22.662  12.615   4.780
37715W        W 6056  21.548  20.130   1.776
37716W        W 6057  43.792  44.900  11.920
37717W        W 6058  38.379  43.279  12.080
37718W        W 6059  13.738   6.832   3.324
37719W        W 6060  30.622  31.433  11.985
37720W        W 6061  35.880  18.145  14.917
37721W        W 6062  28.940  28.632   1.767
37722W        W 6063  33.109  43.005  13.906
37723W        W 6064  29.645   1.731   1.869
37724W        W 6065  28.504  37.870  12.447
37725W        W 6066  18.158  33.496   1.794
37726W        W 6067  17.796  25.568   4.744
37727W        W 6068  22.039  34.084   2.686
37728W        W 6069  38.409  34.052   3.664
37729W        W 6070  41.792  42.357  13.332
37730W        W 6071   0.936  36.873  12.383
37731W        W 6072  10.270  32.035  14.511
37732W        W 6073  20.653   6.354  12.521
37733W        W 6074  11.849  43.354   0.322
37734W        W 6075   1.812  34.011  12.442
37735W        W 6076  24.083  10.329   4.355
37736W        W 6077  26.189   6.194  11.019
37737W        W 6078  31.637   7.770   2.200
37738W        W 6079  30.626  23.710  12.856
37739W        W 6080  15.795  13.239   3.737
37740W        W 6081  30.084  12.799   1.358
37741W        W 6082  27.137  30.923   3.148
37742W        W 6083  15.123   8.168  11.392
37743W        W 6084  15.655  39.824   2.414
37744W        W 6085  29.981  10.779   4.317
37745W        W 6086  42.981   4.841   0.324
37746W        W 6087   6.866  21.242   4.199
37747W        W 6088  39.895  34.913   1.837
37748W        W 6089  36.531  27.181  13.932
37749W        W 6090  16.798  41.798  11.563
37750W        W 6091  38.443  28.989   4.311
37751W        W 6092  18.745  25.040   1.745
37752W        W 6093  17.650  38.839   1.365
37753W        W 6094  10.307  17.785  11.557
37754W        W 6095   5.759  19.644   1.889
37755W        W 6096  29.941  33.593  10.448
37756W        W 6097  37.353  23.993   1.356
37757W        W 6098  35.460   6.806  14.431
37758W        W 6099  32.937  19.166  10.907
37759W        W 6100  11.793  24.974  13.381
37760W        W 6101  23.546  17.228  12.537
37761W        W 6102  34.599  36.044  11.902
37762W        W 6103  43.468  24.685   1.763
37763W        W 6104  33.044  39.924   4.647
37764W        W 6105  28.605  40.042   0.272
37765W        W 6106  30.594  42.516  12.564
37766W        W 6107  21.689  21.616   1.342
37767W        W 6108  15.635  34.571   1.754
37768W        W 6109  18.057  19.192  14.982
37769W        W 6110  17.215  11.691   5.213
37770W        W 6111  16.131  33.547   0.807
37771W        W 6112   7.863   3.375  11.037
37772W        W 6113  37.008  40.549   1.841
37773W        W 6114  18.200   7.893  14.770
37774W        W 6115  34.424   6.391  11.105
37775W        W 6116  10.288  42.376   2.245
37776W        W 6117   0.357  23.717  14.414
37777W        W 6118  44.835  13.252   2.847
37778W        W 6119  21.634  25.081   1.425
37779W        W 6120  23.578  33.475   1.338
37780W        W 6121   6.869  35.070  12.896
37781W        W 6122  25.062  12.136   3.368
37782W        W 6123   3.346  31.927  12.864
37783W        W 6124   1.865  11.237  12.493
37784W        W 6125   6.231  34.543   0.438
37785W        W 6126  40.346   6.852  11.070
37786W        W 6127  26.024  28.022   4.633
37787W        W 6128  15.199  25.108  13.311
37788W        W 6129  18.086  39.902  10.586
37789W        W 6130  29.137  24.149  11.864
37790W        W 6131  13.708   1.812  11.880
37791W        W 6132   4.936   7.340   1.353
37792W        W 6133  13.342   2.424   2.854
37793W        W 6134  44.327  13.157  13.348
37794W        W 6135  28.508  37.912   2.341
37795W        W 6136  44.820  39.049  14.971
37796W        W 6137  13.627   0.289  13.322
37797W        W 6138  16.704  27.620   4.257
37798W        W 6139  22.131  19.630  13.539
37799W        W 6140  19.201   2.911   2.380
37800W        W 6141   6.194  23.709   0.395
37801W        W 6142   6.334  38.951  14.328
37802W        W 6143   9.865  44.307  11.099
37803W        W 6144   5.688  31.479   4.834
37804W        W 6145  25.026  44.988  12.976
37805W        W 6146   4.713  13.654  13.364
37806W        W 6147  27.555  30.960  13.047
37807W        W 6148  29.569   9.368  13.533
37808W        W 6149  39.556  27.613   4.641
37809W        W 6150  30.527  12.822   2.872
37810W        W 6151  10.149  21.749   0.378
37811W        W 6152  35.418  13.260   2.390
37812W        W 6153  35.979  39.335   0.904
37813W        W 6154  28.568  38.567   0.416
37814W        W 6155  20.706  35.987  11.930
37815W        W 6156   2.330  22.550   4.286
37816W        W 6157  22.708  38.881   2.760
37817W        W 6158  25.963  38.948   4.787
37818W        W 6159  41.004  26.120  11.417
37819W        W 6160  20.715  40.454   0.463
37820W        W 6161  17.073  21.213   1.700
37821W        W 6162  40.924   9.859   1.710
37822W        W 6163  17.700  34.369  10.888
37823W        W 6164   3.771  40.928   1.873
37824W        W 6165  26.529  20.741  13.897
37825W        W 6166  28.464  31.913   1.339
37826W        W 6167  28.996   7.206  10.614
37827W        W 6168  36.464   4.325   1.352
37828W        W 6169  27.123  34.455  10.521
37829W        W 6170  19.239  40.489   2.288
37830W        W 6171   1.422  14.703   3.300
37831W        W 6172  28.518  19.263  10.444
37832W        W 6173  44.437  35.505  11.888
37833W        W 6174  21.034  43.459   4.662
37834W        W 6175  42.876  23.216   2.874
37835W        W 6176   1.936  28.651   0.932
37836W        W 6177  19.148   0.988  11.502
37837W        W 6178  11.852  41.469  11.938
37838W        W 6179  34.493  25.149   0.924
37839W        W 6180   9.223  15.326   4.149
37840W        W 6181  13.790   4.396  10.466
37841W        W 6182  26.113  18.738   1.215
37842W        W 6183  19.112   6.844   1.309
37843W        W 6184  12.700  38.410  14.902
37844W        W 6185  32.509  14.711  13.873
37845W        W 6186  16.290  23.697   0.255
37846W        W 6187  43.420   1.446  14.009
37847W        W 6188  33.900  37.384  11.011
37848W        W 6189  27.653  40.869  11.960
37849W        W 6190  39.480  28.990   2.857
37850W        W 6191  34.977  39.460  11.091
37851W        W 6192   1.265  23.110  14.025
37852W        W 6193  15.308  23.138   5.655
37853W        W 6194  36.912  18.053   1.369
37854W        W 6195  29.130  35.099  11.120
37855W        W 6196   8.383  19.194  11.400
37856W        W 6197  28.545  26.510  12.921
37857W        W 6198  30.068   9.730   3.672
37858W        W 6199  18.183  26.054   1.352
37859W        W 6200  40.440  44.918  14.348
37860W        W 6201  12.155  17.593  14.928
37861W        W 6202  16.584  30.109  14.852
37862W        W 6203  41.493  15.280  10.442
37863W        W 6204  39.339  28.566   0.734
37864W        W 6205   9.309  39.881   1.259
37865W        W 6206  18.665   0.391  12.477
37866W        W 6207   1.845  25.510  13.833
37867W        W 6208  41.384  39.430  11.027
37868W        W 6209  44.368  43.502   0.373
37869W        W 6210  36.933  37.351  12.564
37870W        W 6211  28.028  36.069  13.016
37871W        W 6212  29.022   1.773   1.413
37872W        W 6213  40.888  16.207   3.378
37873W        W 6214   9.760  41.307   4.622
37874W        W 6215  22.055  25.974  10.545
37875W        W 6216  23.735  35.515   4.714
37876W        W 6217  28.092   0.264   2.765
37877W        W 6218   8.860  28.993   1.332
37878W        W 6219   2.725  29.606   4.246
37879W        W 6220  22.084  35.017  12.864
37880W        W 6221  13.266   4.419   2.227
37881W        W 6222  27.111  19.577   2.793
37882W        W 6223  12.138  39.468  12.005
37883W        W 6224   5.255  24.621  13.958
37884W        W 6225  15.094   1.953   0.276
37885W        W 6226  43.392   8.162   1.897
37886W        W 6227  39.428  11.136   1.814
37887W        W 6228  15.645   9.781   0.730
37888W        W 6229  38.995  39.499   1.304
37889W        W 6230  22.193  18.287  14.331
37890W        W 6231  13.663  25.546   1.810
37891W        W 6232  38.474  28.987   2.224
37892W        W 6233  41.010  30.111   3.753
37893W        W 6234  17.728  16.691  12.535
37894W        W 6235  12.754   4.233   3.242
37895W        W 6236  19.090  13.134   1.422
37896W        W 6237  18.566  33.525   4.243
37897W        W 6238  28.110  15.266   4.300
37898W        W 6239  18.694  35.936   3.801
37899W        W 6240  16.265   0.252   3.797
37900W        W 6241  21.664   4.848  10.529
37901W        W 6242  38.355  31.129  12.452
37902W        W 6243   7.875   5.372  12.073
37903W        W 6244  43.464   9.222   4.123
37904W        W 6245   9.188  21.257  14.950
37905W        W 6246  23.206  30.056   0.309
37906W        W 6247  28.539  28.107  11.402
37907W        W 6248   4.932  11.653   3.235
37908W        W 6249  24.081   0.861   3.817
37909W        W 6250  22.153  35.557  14.862
37910W        W 6251  30.040  31.451  13.033
37911W        W 6252  39.438  37.532   2.262
37912W        W 6253  17.174   0.745  12.578
37913W        W 6254  24.723  16.156  13.034
37914W        W 6255  20.152  19.574  11.520
37915W        W 6256  34.870  21.528   1.255
37916W        W 6257  31.965  19.649   5.087
37917W        W 6258  34.962  38.418   0.916
37918W        W 6259   1.940  30.954   2.223
37919W        W 6260  30.048   8.262  14.509
37920W        W 6261  14.318  23.037  13.875
37921W        W 6262  15.659  36.944   0.747
37922W        W 6263  35.053  19.647   5.154
37923W        W 6264  16.157  43.856   0.250
37924W        W 6265  10.170   7.209   3.709
37925W        W 6266  39.974  26.564   0.290
37926W        W 6267  11.727  32.976   3.800
37927W        W 6268  26.087  10.872   1.698
37928W        W 6269  14.729  29.530   1.831
37929W        W 6270   2.255  25.512  14.500
37930W        W 6271  16.636   6.806   2.747
37931W        W 6272  11.322  25.558  12.466
37932W        W 6273   5.255  10.807   0.316
37933W        W 6274  19.773  31.952  12.863
37934W        W 6275  35.051  37.876   2.762
37935W        W 6276  19.136  28.002   3.754
37936W        W 6277  41.334  43.019  14.001
37937W        W 6278  21.029  43.851   3.323
37938W        W 6279  22.228  10.704  11.545
37939W        W 6280  28.677  41.360  14.374
37940W        W 6281   4.740  15.247   4.233
37941W        W 6282  26.979   1.289  10.960
37942W        W 6283   9.180   5.263  14.456
37943W        W 6284  24.656   6.428   4.759
37944W        W 6285  39.825  27.953  10.949
37945W        W 6286  44.934  21.062   0.353
37946W        W 6287  19.587  32.090   0.786
37947W        W 6288   6.250   4.865   9.994
37948W        W 6289  37.528  23.045   4.164
37949W        W 6290   2.247  20.582  13.345
37950W        W 6291   3.282  14.338   1.431
37951W        W 6292  41.033  17.770   2.793
37952W        W 6293   0.755  14.282  11.580
37953W        W 6294  18.290  39.926   0.341
37954W        W 6295  22.191  29.445  10.891
37955W        W 6296   8.209   1.770   2.294
37956W        W 6297  31.008  19.215  12.094
37957W        W 6298  32.002  13.142  12.845
37958W        W 6299  39.461  34.976   0.787
37959W        W 6300  14.325  20.603   0.249
37960W        W 6301  17.761  39.947   1.738
37961W        W 6302  42.937  11.209  10.986
37962W        W 6303  23.721  36.364  11.084
37963W        W 6304  40.490  14.636   1.230
37964W        W 6305  21.097  39.364  13.308
37965W        W 6306  30.512   8.329   1.359
37966W        W 6307  43.462  29.534  10.428
37967W        W 6308  11.862  28.595  11.970
37968W        W 6309  40.819  32.046   2.374
37969W        W 6310  17.736  44.448  10.983
37970W        W 6311  34.975   8.281   3.219
37971W        W 6312  13.799  16.794  10.501
37972W        W 6313  10.676  19.743   0.787
37973W        W 6314   5.328  19.541   1.726
37974W        W 6315  39.530  30.016   2.743
37975W        W 6316  16.208  25.121   3.182
37976W        W 6317  34.982  14.291   2.231
37977W        W 6318  13.336  41.489   2.817
37978W        W 6319  17.681  22.611   3.727
37979W        W 6320  30.611  26.120  13.893
37980W        W 6321   3.386  27.957  14.985
37981W        W 6322  27.092  29.068  10.640
37982W        W 6323  31.114  31.425   3.296
37983W        W 6324  21.689   6.792   2.206
37984W        W 6325  17.693  34.912   4.313
37985W        W 6326   8.265   2.332  14.388
37986W        W 6327   6.755  31.015   2.742
37987W        W 6328  10.188  22.037   3.760
37988W        W 6329  11.798  37.022  11.057
37989W        W 6330  35.371  30.557  14.415
37990W        W 6331  17.187   0.294  14.025
37991W        W 6332  31.032   5.386  13.958
37992W        W 6333  35.598  17.192   1.254
37993W        W 6334   9.838  37.492  11.608
37994W        W 6335  11.367  12.732   3.869
37995W        W 6336  25.179  27.533   0.276
37996W        W 6337  17.193   8.304  12.496
37997W        W 6338  20.613  26.498   4.664
37998W        W 6339   7.186  30.035  12.428
37999W        W 6340   5.748   2.435   4.673
38000W        W 6341   8.787  42.970   3.229
38001W        W 6342   6.223   8.162  13.901
38002W        W 6343  42.485   7.241  12.342
38003W        W 6344  33.064  39.817   4.306
38004W        W 6345  44.915  27.112  13.974
38005W        W 6346  25.665  22.147   1.351
38006W        W 6347   2.839   8.286   4.805
38007W        W 6348  28.091  38.551  11.000
38008W        W 6349  25.644   6.190   0.396
38009W        W 6350  10.184  40.535   4.610
38010W        W 6351  27.554  37.078  11.014
38011W        W 6352  13.342  40.490   2.747
38012W        W 6353   7.346   6.190   3.756
38013W        W 6354  35.919   4.248  12.490
38014W        W 6355  22.150  27.543   4.601
38015W        W 6356   1.737  25.679   2.805
38016W        W 6357  15.749  28.513   2.893
38017W        W 6358   0.313  32.513  11.527
38018W        W 6359  19.184  26.680   1.837
38019W        W 6360   8.350  30.163  14.496
38020W        W 6361  38.401  20.743   4.763
38021W        W 6362  33.483  20.702   0.365
38022W        W 6363  14.737   3.221   4.807
38023W        W 6364  20.271   6.755   0.481
38024W        W 6365   5.771  35.943   4.835
38025W        W 6366   0.859  35.492   1.767
38026W        W 6367  11.298   1.252  13.943
38027W        W 6368  14.798  25.526   4.277
38028W        W 6369  42.487  20.224   3.324
38029W        W 6370  28.464  40.490   1.764
38030W        W 6371  21.679  24.160  12.484
38031W        W 6372  23.087  15.645  10.421
38032W        W 6373   9.294  31.597  14.327
38033W        W 6374  44.430  11.761   3.198
38034W        W 6375  13.282   6.872   4.166
38035W        W 6376  29.978   6.871   0.920
38036W        W 6377  15.232  28.117  10.592
38037W        W 6378  23.105  21.100   3.383
38038W        W 6379  27.568   3.768  11.520
38039W        W 6380  29.506  41.843  12.415
38040W        W 6381  35.556  44.301   3.375
38041W        W 6382  38.883  19.194   1.828
38042W        W 6383  17.146  24.546  12.363
38043W        W 6384  11.790  32.961  11.991
38044W        W 6385  10.775  18.762   1.884
38045W        W 6386  43.368  21.044   3.660
38046W        W 6387  14.759  27.976   5.101
38047W        W 6388  26.967  39.848  14.777
38048W        W 6389  35.504   6.395   4.147
38049W        W 6390  25.532  18.229  10.972
38050W        W 6391  33.928  11.329  13.879
38051W        W 6392   2.317   8.292   4.651
38052W        W 6393  24.653  34.014   3.826
38053W        W 6394  32.454  12.811  13.018
38054W        W 6395  44.276  41.374  12.885
38055W        W 6396  38.518  21.236   2.289
38056W        W 6397  40.377   8.247   3.793
38057W        W 6398  34.403  37.908  14.376
38058W        W 6399  24.101  17.210  11.462
38059W        W 6400  12.851  41.919  13.533
38060W        W 6401   9.178  11.729   3.742
38061W        W 6402  12.295   1.958  12.999
38062W        W 6403  20.041  10.743   3.671
38063W        W 6404   2.326  21.068  10.996
38064W        W 6405  36.082   1.744   4.731
38065W        W 6406  41.343  30.635   4.735
38066W        W 6407  16.792  13.729   4.319
38067W        W 6408  17.797  21.619  14.515
38068W        W 6409  33.032  29.956   0.916
38069W        W 6410  18.737  22.075  14.334
38070W        W 6411   5.242  18.665   0.277
38071W        W 6412  13.127   7.777   0.776
38072W        W 6413  27.615  39.940   0.783
38073W        W 6414  19.163   8.297  11.881
38074W        W 6415  21.644  24.680   4.606
38075W        W 6416  34.574  12.731   1.751
38076W        W 6417  25.124  40.441   3.689
38077W        W 6418  14.099   1.890   4.730
38078W        W 6419  21.177  24.542  13.952
38079W        W 6420  15.586  17.786   2.196
38080W        W 6421  33.433  19.192   4.233
38081W        W 6422  10.241   1.414  14.516
38082W        W 6423  18.237  31.052  14.866
38083W        W 6424   9.293   8.725  14.780
38084W        W 6425  37.401  14.319   3.167
38085W        W 6426  24.165  33.917   4.325
38086W        W 6427   9.860  42.019   4.717
38087W        W 6428  37.901  33.596   1.881
38088W        W 6429  39.363  24.058  13.915
38089W        W 6430  34.439  18.696   4.262
38090W        W 6431   1.838   7.234  12.545
38091W        W 6432  15.151  19.103   0.326
38092W        W 6433   6.738  42.410   1.446
38093W        W 6434  24.511  39.897   4.152
38094W        W 6435  38.020  13.209  12.564
38095W        W 6436  28.500   7.851   3.737
38096W        W 6437   0.412  40.845  13.818
38097W        W 6438  25.174   7.334   2.834
38098W        W 6439  41.005  27.166   0.807
38099W        W 6440   3.397  23.651   2.230
38100W        W 6441  38.948  41.009   0.453
38101W        W 6442  19.258  40.836   4.167
38102W        W 6443   5.876   2.433   0.395
38103W        W 6444  27.535  12.631  12.442
38104W        W 6445  28.020  38.831   4.698
38105W        W 6446   4.921   7.244   2.277
38106W        W 6447   5.789  14.110  12.868
38107W        W 6448  33.038  19.068   3.154
38108W        W 6449  13.145  39.329  11.582
38109W        W 6450   5.319  19.215  10.928
38110W        W 6451   6.271  31.055  14.965
38111W        W 6452  19.164  26.136   1.410
38112W        W 6453  18.217  16.226  13.846
38113W        W 6454  41.424  42.907   4.700
38114W        W 6455   4.798   9.748   2.816
38115W        W 6456   5.391  13.347  11.916
38116W        W 6457  26.530  42.891  14.510
38117W        W 6458   0.276  21.051   4.834
38118W        W 6459  38.857  13.634   4.624
38119W        W 6460   1.452  39.863   1.312
38120W        W 6461   6.193  23.207   2.305
38121W        W 6462  15.745   4.807   3.152
38122W        W 6463  30.141   7.911  11.606
38123W        W 6464  16.790  24.656   3.681
38124W        W 6465  38.982  33.387  12.041
38125W        W 6466  25.545  19.684   9.972
38126W        W 6467  31.041  28.991  11.024
38127W        W 6468  17.571  12.183  13.334
38128W        W 6469  36.874  24.094  12.084
38129W        W 6470  26.560  15.091  13.454
38130W        W 6471   6.768   8.658  12.950
38131W        W 6472  11.850  39.486  12.416
38132W        W 6473  43.808  29.556  11.121
38133W        W 6474  18.567   4.886   0.842
38134W        W 6475  24.115  21.244  11.915
38135W        W 6476  17.187  39.481   1.729
38136W        W 6477  29.008   4.298   3.201
38137W        W 6478  37.413  23.678  14.782
38138W        W 6479  19.770   6.363  13.452
38139W        W 6480   9.765   5.924  11.022
38140W        W 6481  33.614   2.959  10.935
38141W        W 6482  34.016  31.509  12.432
38142W        W 6483  10.688  40.442  14.806
38143W        W 6484  37.363  39.560  12.016
38144W        W 6485  40.329  17.187  11.503
38145W        W 6486  14.770  28.028  13.853
38146W        W 6487  37.357  37.024   1.703
38147W        W 6488  32.130  13.260   4.719
38148W        W 6489  37.539  21.097   1.826
38149W        W 6490   0.822  44.263  10.452
38150W        W 6491  33.380   4.899   0.787
38151W        W 6492  36.976   4.212  13.535
38152W        W 6493  26.030  16.693   1.794
38153W        W 6494  32.591  27.134   0.292
38154W        W 6495  37.993  37.029  13.951
38155W        W 6496  40.440   2.740   1.399
38156W        W 6497  36.887   3.805   0.447
38157W        W 6498  15.622  26.964  12.893
38158W        W 6499  18.617  23.528  12.433
38159W        W 6500   3.858  22.529  14.454
38160W        W 6501   4.822  23.582   5.177
38161W        W 6502  33.506  42.514  14.960
38162W        W 6503   8.243  42.282  11.943
38163W        W 6504  43.918  14.135  11.506
38164W        W 6505   2.728  17.068   4.755
38165W        W 6506  17.147   9.229   2.697
38166W        W 6507  30.025  31.617   4.205
38167W        W 6508  12.743  13.294  11.467
38168W        W 6509  38.405  20.551  11.036
38169W        W 6510  40.340  17.743   0.322
38170W        W 6511  36.934  43.901   4.794
38171W        W 6512  23.608  29.522  14.857
38172W        W 6513  25.083  29.151   3.178
38173W        W 6514  13.677  10.737  11.025
38174W        W 6515  34.373   5.904  11.934
38175W        W 6516  19.573  34.404  13.383
38176W        W 6517  25.705  42.437  12.012
38177W        W 6518   4.918  14.750  11.504
38178W        W 6519  42.791  44.286   0.741
38179W        W 6520  25.144  21.029   2.831
38180W        W 6521  32.013   6.754   2.308
38181W        W 6522  11.290  42.383   2.679
38182W        W 6523  42.445  41.852  10.979
38183W        W 6524  43.433  18.717  14.339
38184W        W 6525  27.076  26.188  11.993
38185W        W 6526  15.743  24.059  14.875
38186W        W 6527  18.163  31.016  13.914
38187W        W 6528  38.960  21.025   5.210
38188W        W 6529  39.555  10.261  13.431
38189W        W 6530  20.754  31.019  14.026
38190W        W 6531   4.823  31.129   1.378
38191W        W 6532  33.100   7.205   2.678
38192W        W 6533  26.115   1.256   1.888
38193W        W 6534  25.625   2.463   0.878
38194W        W 6535  12.264  24.186  11.936
38195W        W 6536  15.143  32.635   1.921
38196W        W 6537   8.337   6.843  12.403
38197W        W 6538  24.696  11.738  10.627
38198W        W 6539  40.470  34.418   0.351
38199W        W 6540  21.726   6.288   1.836
38200W        W 6541  28.642  31.575   4.154
38201W        W 6542   3.860  12.813  10.112
38202W        W 6543   2.780  24.204   1.248
38203W        W 6544   1.304  16.273   4.182
38204W        W 6545  36.857  13.265   3.866
38205W        W 6546  29.569   8.661  14.943
38206W        W 6547  36.586  23.674   3.644
38207W        W 6548  18.090  23.510   9.923
38208W        W 6549  28.664   2.362  13.020
38209W        W 6550  31.140  13.173  10.976
38210W        W 6551  24.148  23.053   1.800
38211W        W 6552  43.867   5.222  12.851
38212W        W 6553  17.598  30.650   2.686
38213W        W 6554  32.548  38.525   0.481
38214W        W 6555   0.349  10.857  13.038
38215W        W 6556   7.306   5.774   3.280
38216W        W 6557  27.564  34.054  12.461
38217W        W 6558  34.010   0.259  11.855
38218W        W 6559  12.289  41.949  11.474
38219W        W 6560  34.596  39.952   5.092
38220W        W 6561  35.860  12.820  12.081
38221W        W 6562  21.551  13.281   0.401
38222W        W 6563  33.086  25.676   3.855
38223W        W 6564   4.701  37.423   3.720
38224W        W 6565  17.161  22.612   2.680
38225W        W 6566   0.306  37.988   3.675
38226W        W 6567  26.535   6.366   1.273
38227W        W 6568  19.550  30.475  13.859
38228W        W 6569  25.192  10.807   2.862
38229W        W 6570   2.286  41.028  14.985
38230W        W 6571  20.070  40.861  11.116
38231W        W 6572   1.749   4.275   3.249
38232W        W 6573  23.725   4.929  13.351
38233W        W 6574  36.926  35.901   0.257
38234W        W 6575  31.436  44.768   0.332
38235W        W 6576  35.065  24.184  12.425
38236W        W 6577   1.827   3.281  10.446
38237W        W 6578  42.493  18.781  12.998
38238W        W 6579  10.215  26.682  14.910
38239W        W 6580  25.573  23.109  14.487
38240W        W 6581  12.763  17.723  13.901
38241W        W 6582   4.299  39.497  12.937
38242W        W 6583   7.180  21.198  14.350
38243W        W 6584  14.653   9.749   2.840
38244W        W 6585  25.071  28.600   1.915
38245W        W 6586   2.946  19.543   3.295
38246W        W 6587  38.856  19.076  12.547
38247W        W 6588  23.521  17.716   1.933
38248W        W 6589  31.013  32.502   3.216
38249W        W 6590  38.982  44.937  12.036
38250W        W 6591  38.391  35.086  14.351
38251W        W 6592  34.915   4.707  12.974
38252W        W 6593  11.642  36.359  14.888
38253W        W 6594  39.032  37.926  10.419
38254W        W 6595  41.530  13.786   0.801
38255W        W 6596   6.724  21.691   1.865
38256W        W 6597  34.561  22.046  13.870
38257W        W 6598  28.101  11.153  11.999
38258W        W 6599  41.988   8.207  12.525
38259W        W 6600  10.322  21.724   2.290
38260W        W 6601   6.882  11.720  10.443
38261W        W 6602  19.080   3.434   1.406
38262W        W 6603  44.004  27.478   3.255
38263W        W 6604  33.880  30.932  12.481
38264W        W 6605  44.936  29.464   3.836
38265W        W 6606   2.348   5.419   1.850
38266W        W 6607  12.319   7.732  11.042
38267W        W 6608  35.565  27.070   3.799
38268W        W 6609  28.679  29.546  10.500
38269W        W 6610  14.286  26.097  12.507
38270W        W 6611  26.117  25.510   3.180
38271W        W 6612  12.615  10.864  10.521
38272W        W 6613  40.469  19.560   5.176
38273W        W 6614  44.793  11.216   3.181
38274W        W 6615   5.754   5.354   0.390
38275W        W 6616   5.705  26.009   3.762
38276W        W 6617  18.581   6.410   2.325
38277W        W 6618   5.742   7.791   1.743
38278W        W 6619  15.248  22.199  12.925
38279W        W 6620  35.887  44.382  10.139
38280W        W 6621  21.594  41.902  13.388
38281W        W 6622   0.346   9.805   1.826
38282W        W 6623   7.273  21.076  14.984
38283W        W 6624  38.534  11.312   4.274
38284W        W 6625  43.504  29.960   0.805
38285W        W 6626  24.069  24.228  10.952
38286W        W 6627  23.098  19.610  13.456
38287W        W 6628   0.402  25.032   1.394
38288W        W 6629   4.827  16.621  10.049
38289W        W 6630   2.365   2.326   2.879
38290W        W 6631  32.922  18.113   0.332
38291W        W 6632   9.820  42.433   0.765
38292W        W 6633  19.597  26.457   0.729
38293W        W 6634  32.947  41.452   4.143
38294W        W 6635  18.732  32.938  12.390
38295W        W 6636  28.556   4.450  12.031
38296W        W 6637  21.570  11.777   4.613
38297W        W 6638  31.474  25.177  11.582
38298W        W 6639  30.044  12.310   3.758
38299W        W 6640  40.381   8.231  11.962
38300W        W 6641  19.062  24.637  14.498
38301W        W 6642  38.472  16.190   4.263
38302W        W 6643  40.548   6.334  10.405
38303W        W 6644  15.800  25.076  14.383
38304W        W 6645  39.374   4.817  11.379
38305W        W 6646  19.244  12.846   3.658
38306W        W 6647  44.382   4.754  10.075
38307W        W 6648   9.656   0.438   3.281
38308W        W 6649  15.678  38.046  14.877
38309W        W 6650  32.914  19.117  12.532
38310W        W 6651  14.217  36.369  14.429
38311W        W 6652  11.743  27.069   0.807
38312W        W 6653  32.964  39.044  12.014
38313W        W 6654   7.675  39.356  11.996
38314W        W 6655  26.608   5.759  10.589
38315W        W 6656   3.337  16.567   9.493
38316W        W 6657  43.937  39.364   0.273
38317W        W 6658   1.347  21.194   0.274
38318W        W 6659  15.282  27.479  13.855
38319W        W 6660  13.611   7.706  12.947
38320W        W 6661  40.488   4.850   2.746
38321W        W 6662  10.286  14.619  13.437
38322W        W 6663  33.085  16.719   0.905
38323W        W 6664  33.510  24.525   0.743
38324W        W 6665  30.636  30.501  11.560
38325W        W 6666   5.324   8.774   2.388
38326W        W 6667  16.243   4.912   1.710
38327W        W 6668  29.161  43.857   4.788
38328W        W 6669  16.215  13.238   2.397
38329W        W 6670  25.606  13.160   1.853
38330W        W 6671   8.220  26.027   3.234
38331W        W 6672  36.868  32.032  12.867
38332W        W 6673  21.228  19.556   3.242
38333W        W 6674  23.668  44.395   0.251
38334W        W 6675  34.456  43.949  10.505
38335W        W 6676  29.101  12.617  13.033
38336W        W 6677  31.948  13.757   2.813
38337W        W 6678  34.394   5.378   4.145
38338W        W 6679  36.960  20.072   4.788
38339W        W 6680  15.675  32.052   5.185
38340W        W 6681  22.121  16.662   5.109
38341W        W 6682  28.947  40.847   4.299
38342W        W 6683  22.668   0.397  10.951
38343W        W 6684  20.084   1.400   3.216
38344W        W 6685  16.766  24.587   1.791
38345W        W 6686  14.234  38.354   3.653
38346W        W 6687  16.092  28.154   4.767
38347W        W 6688  21.537  26.617  14.503
38348W        W 6689   6.872  24.078  10.601
38349W        W 6690  14.175  27.966  10.571
38350W        W 6691  38.003  41.497   4.161
38351W        W 6692  37.463  23.499  12.977
38352W        W 6693  28.517  37.426   4.647
38353W        W 6694  24.125   8.802  12.367
38354W        W 6695  20.605  24.017  11.530
38355W        W 6696   4.703  33.013  11.911
38356W        W 6697   3.275  26.490   4.834
38357W        W 6698   9.367  25.091   4.293
38358W        W 6699  17.226   0.359  11.563
38359W        W 6700  40.342  37.372  13.870
38360W        W 6701  39.456  32.627   3.755
38361W        W 6702  21.555  32.616   0.467
38362W        W 6703  14.754  43.911   4.810
38363W        W 6704  12.130   7.745  11.924
38364W        W 6705   3.357  17.214  11.958
38365W        W 6706  32.609  24.656  12.925
38366W        W 6707  32.621  10.147  10.577
38367W        W 6708  31.517  20.682  14.867
38368W        W 6709  30.516  14.597   4.623
38369W        W 6710   9.285  28.605  11.937
38370W        W 6711   4.245  16.135   0.451
38371W        W 6712  24.647  21.061  10.468
38372W        W 6713   4.382  31.545   3.823
38373W        W 6714  22.663  28.018   1.298
38374W        W 6715  22.504  24.497  12.444
38375W        W 6716  18.067  21.566  11.879
38376W        W 6717  22.214  13.184  11.984
38377W        W 6718   4.323   3.367  11.480
38378W        W 6719  10.675  19.620   3.198
38379W        W 6720  38.448  20.696  12.845
38380W        W 6721  23.186  29.042   2.347
38381W        W 6722   3.730   6.271  12.449
38382W        W 6723  26.599   4.396  10.143
38383W        W 6724  10.259  19.674  13.361
38384W        W 6725  27.989  29.443  13.856
38385W        W 6726  12.762  34.087  14.906
38386W        W 6727  29.580  38.350   0.307
38387W        W 6728  29.000   6.914  12.536
38388W        W 6729  16.219   0.451  13.959
38389W        W 6730   4.734  13.336   1.817
38390W        W 6731  27.573  10.852  12.986
38391W        W 6732  33.047  42.489  10.621
38392W        W 6733   6.869  31.501  13.317
38393W        W 6734  28.174  43.360   3.363
38394W        W 6735  21.122  40.402  10.438
38395W        W 6736   8.333  23.569  14.025
38396W        W 6737   6.224  44.941   2.252
38397W        W 6738  38.407  28.183   2.376
38398W        W 6739  28.970  33.602   4.170
38399W        W 6740  25.680  43.863   0.962
38400W        W 6741  33.466  11.868   1.271
38401W        W 6742   8.403   7.210   0.437
38402W        W 6743  39.894  34.516   2.208
38403W        W 6744  29.435  19.132  12.979
38404W        W 6745   4.865  14.145  10.452
38405W        W 6746  16.162  27.579  12.986
38406W        W 6747  18.087  32.890   3.210
38407W        W 6748   4.426  26.966   4.756
38408W        W 6749  44.268   8.383  12.891
38409W        W 6750  16.781  31.976  14.963
38410W        W 6751  31.561  40.391  14.421
38411W        W 6752   6.880   0.749   4.183
38412W        W 6753  38.045   4.267   1.326
38413W        W 6754  44.917  15.275  13.935
38414W        W 6755  22.544  42.923   4.823
38415W        W 6756  23.070  36.440  11.525
38416W        W 6757  39.398  29.139  13.327
38417W        W 6758   8.306   8.210   2.695
38418W        W 6759  37.076  20.641   3.163
38419W        W 6760   5.756  23.227   0.745
38420W        W 6761  23.657  42.400   1.415
38421W        W 6762  27.970  12.179   2.878
38422W        W 6763   6.350  40.387  12.367
38423W        W 6764  14.243  42.956   1.211
38424W        W 6765  28.500  11.639  10.609
38425W        W 6766  16.136  26.523  12.062
38426W        W 6767  20.029  26.481   3.729
38427W        W 6768  18.051   5.688   1.447
38428W        W 6769  19.654  35.004   4.220
38429W        W 6770   5.284  24.066   4.702
38430W        W 6771  25.574   3.774   1.246
38431W        W 6772  16.233  43.821   1.303
38432W        W 6773  33.093  14.279   2.211
38433W        W 6774  31.496  35.490  13.865
38434W        W 6775  15.242   3.287   3.195
38435W        W 6776  32.519  30.149   0.312
38436W        W 6777  15.793  26.488  10.511
38437W        W 6778  32.562  14.701   2.886
38438W        W 6779  42.435  37.396  10.560
38439W        W 6780   9.786  40.823   4.298
38440W        W 6781  39.522  13.599  10.480
38441W        W 6782  19.176   9.740   4.234
38442W        W 6783  10.870  24.666  10.613
38443W        W 6784  11.848  19.258   3.656
38444W        W 6785  24.524  16.788  11.002
38445W        W 6786  31.938   4.781   0.961
38446W        W 6787  35.858  22.585   1.920
38447W        W 6788  40.999  20.226  12.488
38448W        W 6789  12.354   3.405   2.877
38449W        W 6790  39.995  20.533   1.219
38450W        W 6791   6.688  35.969  10.558
38451W        W 6792  37.015  26.022   2.255
38452W        W 6793   5.739  43.909  14.010
38453W        W 6794  11.241  32.585   3.188
38454W        W 6795  21.024  38.992  14.976
38455W        W 6796  19.696  34.099  12.493
38456W        W 6797   9.784  25.694   2.859
38457W        W 6798   1.961  40.949   4.747
38458W        W 6799  36.506  10.221   4.283
38459W        W 6800  12.826  39.966   3.319
38460W        W 6801  27.535  23.524  12.050
38461W        W 6802   3.272  23.538  13.519
38462W        W 6803  26.204   4.768  12.880
38463W        W 6804  31.530  13.239   4.132
38464W        W 6805  28.487   1.747  14.448
38465W        W 6806   8.847  17.765  11.101
38466W        W 6807  42.397  21.621   4.800
38467W        W 6808   1.959  43.865   2.272
38468W        W 6809  40.921  24.653  13.343
38469W        W 6810  11.819  12.332  13.977
38470W        W 6811   3.821  38.850   9.945
38471W        W 6812  14.679   0.780   2.286
38472W        W 6813  19.590   2.826  10.419
38473W        W 6814  36.841  14.243  10.584
38474W        W 6815  35.473  38.938  11.376
38475W        W 6816   1.897   8.791  10.977
38476W        W 6817  21.208  40.382  11.948
38477W        W 6818  37.377  14.699   4.252
38478W        W 6819  18.593   6.357   0.738
38479W        W 6820   4.757  21.716  13.338
38480W        W 6821  17.297  25.571   3.666
38481W        W 6822  23.734  22.087  10.427
38482W        W 6823  18.220  17.154  12.835
38483W        W 6824   1.859  23.003   2.199
38484W        W 6825  21.616  13.624  13.968
38485W        W 6826  14.218  30.081  13.955
38486W        W 6827  38.563  32.110  14.009
38487W        W 6828   2.871   8.682  10.895
38488W        W 6829  11.764   3.375  14.935
38489W        W 6830  10.750  43.775  13.466
38490W        W 6831  13.679   4.844  14.010
38491W        W 6832  34.950  21.517  11.480
38492W        W 6833   7.865  18.234   3.378
38493W        W 6834   6.316  12.245   4.306
38494W        W 6835  10.852  11.689  12.463
38495W        W 6836  37.340   8.227   1.739
38496W        W 6837  30.458   1.843   2.223
38497W        W 6838  22.524  17.211  13.492
38498W        W 6839  27.516   3.221  13.937
38499W        W 6840  30.008   0.389  13.975
38500W        W 6841  11.749  18.553   1.429
38501W        W 6842  39.548  37.529   4.341
38502W        W 6843  34.414   4.450  12.449
38503W        W 6844  11.662  14.698   3.235
38504W        W 6845   5.289  40.494  14.865
38505W        W 6846  14.242  37.918  12.513
38506W        W 6847  39.389  14.768   4.140
38507W        W 6848  32.424  34.608  14.321
38508W        W 6849  27.654  22.088   3.741
38509W        W 6850  44.789   1.955   3.817
38510W        W 6851   8.771   3.450   2.223
38511W        W 6852   8.332  17.217   0.785
38512W        W 6853  24.680  34.867   3.291
38513W        W 6854   9.304  13.726   4.787
38514W        W 6855  24.499  39.987  13.401
38515W        W 6856  27.464  44.911   4.826
38516W        W 6857  30.045  17.649  13.532
38517W        W 6858  28.434  12.705  12.578
38518W        W 6859  26.645  21.025   1.888
38519W        W 6860  28.445  35.602   0.925
38520W        W 6861  38.536  15.674  10.896
38521W        W 6862  44.379  30.921   4.771
38522W        W 6863  33.408  30.493  10.048
38523W        W 6864  24.076  40.895   0.474
38524W        W 6865  11.284  34.036   3.160
38525W        W 6866  29.635  12.357  12.552
38526W        W 6867  40.471  42.502  13.865
38527W        W 6868   5.421  41.443  14.330
38528W        W 6869  43.823  26.135  13.495
38529W        W 6870   4.349  23.085   4.836
38530W        W 6871  37.012  37.372  14.505
38531W        W 6872   9.304  21.546   3.202
38532W        W 6873  14.722  26.152  13.847
38533W        W 6874  18.220  23.089  14.828
38534W        W 6875  43.019   1.749  12.513
38535W        W 6876   4.220  31.407   0.457
38536W        W 6877  11.309  32.127   3.645
38537W        W 6878  44.984  19.244   0.839
38538W        W 6879  10.848  25.682   3.320
38539W        W 6880   3.762   5.342  14.992
38540W        W 6881  10.241  30.088   2.800
38541W        W 6882  21.263   5.395   2.853
38542W        W 6883  37.518  43.442  14.477
38543W        W 6884  44.896  28.509  11.014
38544W        W 6885  12.202   1.341   0.831
38545W        W 6886  30.607  18.260  14.001
38546W        W 6887   3.355  24.097  13.395
38547W        W 6888  10.784  38.844   1.837
38548W        W 6889   8.404  35.037   4.182
38549W        W 6890  21.731  40.937   0.866
38550W        W 6891  15.766  13.735   3.156
38551W        W 6892  38.035   7.760  11.579
38552W        W 6893  15.246  31.913  12.958
38553W        W 6894  25.030  10.197   0.263
38554W        W 6895   5.819  31.133  12.499
38555W        W 6896  11.633  38.454  13.998
38556W        W 6897   4.896  18.158  11.536
38557W        W 6898  39.014   3.378   1.813
38558W        W 6899   1.266  25.088  11.919
38559W        W 6900  20.168  11.850   1.888
38560W        W 6901  35.089   1.856  13.366
38561W        W 6902  15.117  23.207  12.390
38562W        W 6903  23.583  17.695   3.698
38563W        W 6904  16.720   6.404  10.484
38564W        W 6905   1.748  21.208  14.848
38565W        W 6906  32.945  41.336   3.187
38566W        W 6907  32.507  25.469   1.352
38567W        W 6908  39.900  27.493  10.960
38568W        W 6909  38.523  40.448   2.342
38569W        W 6910  11.311  10.233   5.293
38570W        W 6911  21.747  40.375   3.796
38571W        W 6912  37.439  25.111   9.961
38572W        W 6913  35.878  29.040   4.290
38573W        W 6914   0.985  17.700  14.503
38574W        W 6915  11.271  36.889  14.306
38575W        W 6916  27.073  22.549  13.999
38576W        W 6917  16.602  18.559   4.119
38577W        W 6918  29.016  35.592  11.491
38578W        W 6919  42.329   8.898   1.900
38579W        W 6920  10.820  18.221  12.407
38580W        W 6921   3.425   8.764  14.883
38581W        W 6922   9.180  23.694   1.873
38582W        W 6923  32.998  28.534  13.427
38583W        W 6924  10.316  20.037  11.381
38584W        W 6925  14.250  15.807  13.950
38585W        W 6926  21.043  38.028  12.979
38586W        W 6927  41.517  41.347   4.780
38587W        W 6928  22.644  41.480   5.180
38588W        W 6929  15.727  10.289  14.833
38589W        W 6930  39.397  27.070   3.771
38590W        W 6931   7.383  39.834   4.323
38591W        W 6932  29.429  26.089  13.533
38592W        W 6933  39.463  44.439  14.959
38593W        W 6934  16.287  38.555   3.335
38594W        W 6935   4.299  23.153  11.508
38595W        W 6936  43.971  24.038  13.536
38596W        W 6937  18.296  21.590  13.014
38597W        W 6938  17.101  10.869   4.818
38598W        W 6939  43.947   6.765   4.251
38599W        W 6940   8.213  35.094   3.855
38600W        W 6941   7.186   7.289   4.246
38601W        W 6942  30.140   2.724   0.317
38602W        W 6943  29.659  25.678   3.215
38603W        W 6944  21.262  36.405   0.336
38604W        W 6945  33.491  35.592  14.415
38605W        W 6946   1.941  44.277  11.963
38606W        W 6947  16.317   0.817  12.408
38607W        W 6948  33.439   6.402  12.366
38608W        W 6949  42.957  18.780  14.403
38609W        W 6950  33.082  25.622  13.479
38610W        W 6951   6.188  33.086  10.569
38611W        W 6952  10.859  11.201   0.284
38612W        W 6953  20.030  39.394  12.504
38613W        W 6954   3.871  39.012   1.394
38614W        W 6955  34.521  33.421  12.445
38615W        W 6956  21.580   7.346  14.802
38616W        W 6957  44.846  26.528  11.554
38617W        W 6958  35.369  23.202   4.618
38618W        W 6959  40.829  24.665   2.726
38619W        W 6960  14.276  33.414   4.238
38620W        W 6961  16.238  26.469   3.256
38621W        W 6962  43.324  10.181  13.363
38622W        W 6963  40.328  16.736  13.015
38623W        W 6964   1.379  17.142   2.188
38624W        W 6965  42.459  32.526   1.806
38625W        W 6966  32.898  12.816   4.208
38626W        W 6967  38.327  40.403  14.937
38627W        W 6968  21.250  28.673   4.632
38628W        W 6969  14.713  35.866   0.452
38629W        W 6970  12.135  29.530   3.270
38630W        W 6971  37.364  12.340  10.642
38631W        W 6972  14.613  31.479  10.543
38632W        W 6973  31.561  29.599   3.847
38633W        W 6974  17.068  34.603   3.777
38634W        W 6975  15.264  40.349   9.985
38635W        W 6976  13.841   0.336  13.034
38636W        W 6977  23.086  32.960  12.480
38637W        W 6978   1.260  22.579   0.917
38638W        W 6979  28.535  16.309  14.834
38639W        W 6980  35.980  21.569  14.331
38640W        W 6981  20.208  41.308   3.760
38641W        W 6982  38.360  39.467   4.763
38642W        W 6983  30.965  37.909   4.265
38643W        W 6984  21.201  43.363   0.434
38644W        W 6985  35.084  40.501   5.250
38645W        W 6986  20.554   9.809  10.946
38646W        W 6987  38.560  17.693   3.291
38647W        W 6988  18.056   9.715  14.766
38648W        W 6989  26.136  16.689   4.698
38649W        W 6990  21.720  23.516  14.899
38650W        W 6991  11.156  30.611  10.445
38651W        W 6992  10.298  37.362  12.473
38652W        W 6993  40.870  26.993  13.893
38653W        W 6994  19.763   6.799  10.595
38654W        W 6995   2.761   2.858  11.591
38655W        W 6996   4.770  11.172  11.944
38656W        W 6997  28.493  37.494  12.954
38657W        W 6998  12.281  36.352   1.732
38658W        W 6999  11.223  32.568  10.941
38659W        W 7000  26.167  40.877   2.223
38660W        W 7001  35.934  24.061  11.063
38661W        W 7002   5.425  33.486  11.564
38662W        W 7003  33.621   1.844  14.971
38663W        W 7004  15.748  25.005   4.174
38664W        W 7005  31.121   7.352   2.300
38665W        W 7006  18.760   0.939   1.342
38666W        W 7007   2.731  19.744  12.474
38667W        W 7008   5.206  16.660  11.123
38668W        W 7009   2.725  26.131   2.273
38669W        W 7010   5.216  43.438  12.505
38670W        W 7011   8.233  39.888   0.372
38671W        W 7012  20.548  33.063   0.924
38672W        W 7013  10.369   4.208   0.314
38673W        W 7014  15.175  34.925  14.777
38674W        W 7015  35.555  33.928  12.846
38675W        W 7016  20.220  24.593   0.929
38676W        W 7017  39.871  30.573   4.789
38677W        W 7018  42.960  19.736  11.933
38678W        W 7019  38.367  36.841  13.492
38679W        W 7020  31.102  14.606  10.469
38680W        W 7021  17.137  35.894   3.707
38681W        W 7022  25.670  40.987   4.150
38682W        W 7023  25.537  37.507   4.698
38683W        W 7024  10.758  30.119  14.853
38684W        W 7025  26.055  16.797  11.581
38685W        W 7026  14.186  39.402  12.570
38686W        W 7027   4.747   1.960   9.962
38687W        W 7028   0.399  39.384   4.770
38688W        W 7029  10.226  43.278  12.550
38689W        W 7030   8.810   0.443   1.213
38690W        W 7031  34.588  23.634  12.388
38691W        W 7032   2.300  11.136  11.949
38692W        W 7033  26.492   0.473  12.962
38693W        W 7034  42.349  17.288  11.038
38694W        W 7035  23.582  19.667   0.276
38695W        W 7036   8.893  32.977  12.940
38696W        W 7037  34.899  15.254  12.959
38697W        W 7038  28.121  37.426   1.809
38698W        W 7039   9.844   0.479  14.297
38699W        W 7040  34.107  20.234  11.376
38700W        W 7041   7.879  36.047   4.346
38701W        W 7042   1.960  43.274   2.852
38702W        W 7043  42.468  10.279  10.407
38703W        W 7044  25.504  24.198   4.122
38704W        W 7045  36.565  22.178  14.836
38705W        W 7046  37.888  35.857   3.847
38706W        W 7047  43.506  20.545  13.955
38707W        W 7048  36.972  37.039  14.438
38708W        W 7049  19.755  32.120  11.118
38709W        W 7050  27.571  30.612  13.450
38710W        W 7051  32.900  38.531   1.819
38711W        W 7052  42.337  23.533   0.438
38712W        W 7053  10.172  35.903  13.402
38713W        W 7054   0.431  23.628   2.850
38714W        W 7055  19.564   7.285  13.971
38715W        W 7056  41.816   2.262   0.754
38716W        W 7057  43.000  27.453   4.326
38717W        W 7058  17.158   3.941   4.203
38718W        W 7059  29.655  24.632   4.321
38719W        W 7060   0.828   1.806   0.967
38720W        W 7061   3.872  44.839  13.380
38721W        W 7062  21.081   0.846  13.991
38722W        W 7063  42.467  23.593   4.134
38723W        W 7064  24.656  11.219   3.821
38724W        W 7065  34.008  33.575   0.774
38725W        W 7066  19.751   1.747  13.994
38726W        W 7067  35.509  36.941  12.007
38727W        W 7068  41.037  32.466  12.530
38728W        W 7069  21.714  23.537   1.867
38729W        W 7070   3.345  20.609   1.295
38730W        W 7071  15.672  22.054  13.852
38731W        W 7072  15.189  24.566  12.901
38732W        W 7073  35.063  28.445  11.497
38733W        W 7074  31.112  28.471  14.912
38734W        W 7075  39.923  17.233  12.425
38735W        W 7076  42.963  18.664   4.331
38736W        W 7077  17.230  10.871  10.987
38737W        W 7078  19.193   5.301   2.673
38738W        W 7079   8.808  23.208   2.814
38739W        W 7080   5.743  31.531   3.858
38740W        W 7081  22.714   2.777   3.741
38741W        W 7082   1.454  43.949  14.843
38742W        W 7083  37.505  35.990   0.820
38743W        W 7084  37.552  25.501  12.345
38744W        W 7085  44.961  25.114   1.885
38745W        W 7086  40.544  24.706   0.418
38746W        W 7087  22.231  42.526   0.751
38747W        W 7088   6.185   2.787   3.867
38748W        W 7089   6.323  12.206   1.729
38749W        W 7090  31.130   9.229   2.278
38750W        W 7091  26.654  39.948   4.121
38751W        W 7092  11.767  41.313   4.772
38752W        W 7093   2.349   3.349  13.986
38753W        W 7094  33.556  38.053   4.239
38754W        W 7095  15.326  13.192  11.083
38755W        W 7096  25.189  14.307  11.909
38756W        W 7097  35.476   1.931  12.579
38757W        W 7098  34.524  16.270   3.869
38758W        W 7099  22.243  33.113  11.915
38759W        W 7100  27.599   0.250   4.761
38760W        W 7101   3.406  37.037  11.879
38761W        W 7102  19.184   9.730   1.838
38762W        W 7103  26.468   2.773   1.397
38763W        W 7104  11.253  14.609   2.395
38764W        W 7105  11.261  28.027  10.458
38765W        W 7106   3.925  30.481   3.702
38766W        W 7107  12.152  44.925  13.923
38767W        W 7108  14.111  42.919   3.267
38768W        W 7109  25.038  30.011  11.509
38769W        W 7110  15.591  24.554   0.468
38770W        W 7111  20.640   3.260   4.824
38771W        W 7112  38.957  23.104  10.048
38772W        W 7113  16.093   7.201   2.693
38773W        W 7114  25.601  40.308  13.329
38774W        W 7115   5.292  42.997   3.777
38775W        W 7116  29.030  38.888   3.779
38776W        W 7117  29.518  40.395   1.362
38777W        W 7118  10.840  37.999   1.746
38778W        W 7119  25.193  19.096   2.298
38779W        W 7120  17.708   9.316  10.546
38780W        W 7121  19.678  30.151  14.850
38781W        W 7122  25.474  43.851  11.902
38782W        W 7123  38.075  34.986  10.456
38783W        W 7124   1.860   9.645   2.703
38784W        W 7125  31.973   4.698   4.189
38785W        W 7126  38.443   9.724   3.655
38786W        W 7127  14.719  38.412   0.813
38787W        W 7128   8.782   5.311   4.765
38788W        W 7129  42.030  36.055  13.012
38789W        W 7130  42.017  10.304  12.370
38790W        W 7131  34.981  26.583   3.218
38791W        W 7132  36.491  44.847  14.418
38792W        W 7133  18.714   0.750   4.750
38793W        W 7134  19.540   8.194   3.752
38794W        W 7135   0.835  37.963   2.861
38795W        W 7136  18.654  41.375  11.473
38796W        W 7137  20.197   5.797   4.681
38797W        W 7138   3.909   8.815  12.511
38798W        W 7139  14.121  22.746  11.888
38799W        W 7140  34.443  31.934  12.486
38800W        W 7141  34.466  38.504   1.222
38801W        W 7142  32.495  19.673  11.127
38802W        W 7143  34.100   2.273   0.369
38803W        W 7144  40.844  38.824   1.219
38804W        W 7145  28.074   8.856  14.471
38805W        W 7146  31.488  30.619   0.873
38806W        W 7147  17.644  36.083   3.722
38807W        W 7148  42.481  15.210  11.871
38808W        W 7149  31.621  29.958  13.461
38809W        W 7150   5.828   2.919  10.567
38810W        W 7151  40.400  44.997  13.390
38811W        W 7152  22.705  42.843  12.410
38812W        W 7153   9.810  21.572  12.882
38813W        W 7154   8.289  29.046  11.418
38814W        W 7155  26.095  39.394  14.345
38815W        W 7156  30.579   8.388   1.902
38816W        W 7157  41.357   5.397   2.385
38817W        W 7158  36.929  27.946  11.382
38818W        W 7159   9.255  24.519  11.024
38819W        W 7160  20.151  12.336  13.503
38820W        W 7161  22.577   9.885   1.381
38821W        W 7162  14.185   2.890  10.633
38822W        W 7163   9.685  38.993   1.222
38823W        W 7164  11.242  13.666  11.913
38824W        W 7165   4.802  40.447   1.226
38825W        W 7166  16.299  26.536  14.277
38826W        W 7167   7.762  13.127  12.344
38827W        W 7168  15.222  19.730  11.944
38828W        W 7169   4.388  11.277  12.001
38829W        W 7170  29.094   8.364   4.137
38830W        W 7171  37.404  27.949   4.162
38831W        W 7172  44.919  35.360  14.948
38832W        W 7173  33.503   0.469   0.243
38833W        W 7174  41.983  43.287   4.196
38834W        W 7175  22.996  31.624  10.912
38835W        W 7176   4.343  19.765   2.888
38836W        W 7177   5.800   0.944   2.799
38837W        W 7178  40.992  21.152  14.449
38838W        W 7179  27.541  20.145   4.636
38839W        W 7180  21.729  19.253   3.856
38840W        W 7181   6.213  39.376   2.863
38841W        W 7182   9.257   3.450  11.059
38842W        W 7183  35.093  15.265   0.783
38843W        W 7184  24.171   6.715   2.833
38844W        W 7185   4.219  16.076   4.189
38845W        W 7186  32.547   9.731  14.841
38846W        W 7187  17.307  15.733  11.541
38847W        W 7188   0.401  38.366   0.794
38848W        W 7189  12.719  32.481   2.222
38849W        W 7190  26.119  38.327  12.923
38850W        W 7191  14.756  42.361   1.378
38851W        W 7192  21.657   1.821   4.829
38852W        W 7193  15.109  37.857  10.585
38853W        W 7194  10.142  25.019  12.376
38854W        W 7195  42.846  14.682   2.300
38855W        W 7196   1.476   6.820   4.603
38856W        W 7197  17.307  19.654  14.480
38857W        W 7198  40.991  40.514  13.429
38858W        W 7199  18.640  24.055  12.829
38859W        W 7200  32.608  26.521  11.887
38860W        W 7201  34.566  42.325  14.438
38861W        W 7202  14.592   1.388   2.898
38862W        W 7203  18.765  37.556  11.905
38863W        W 7204  42.866  11.365  13.443
38864W        W 7205  25.018   1.466  11.026
38865W        W 7206  37.897   6.344   1.437
38866W        W 7207  16.290   4.903  12.047
38867W        W 7208  14.602  44.363   0.736
38868W        W 7209  12.823  25.551   3.296
38869W        W 7210  17.123   6.762   2.415
38870W        W 7211  40.365  29.964   1.334
38871W        W 7212  16.615  42.986  14.838
38872W        W 7213  15.740  26.568  11.589
38873W        W 7214  10.255   2.400   4.814
38874W        W 7215  17.130  19.108  12.869
38875W        W 7216  36.452  19.567   0.770
38876W        W 7217   1.329  27.003   1.413
38877W        W 7218  30.546  18.270   4.621
38878W        W 7219  30.993  36.079   4.616
38879W        W 7220  31.463  32.012  11.380
38880W        W 7221   3.335  35.038   5.236
38881W        W 7222  37.886  39.915  11.998
38882W        W 7223  11.814  39.950   4.130
38883W        W 7224  28.562   7.245  14.876
38884W        W 7225  22.651  39.454  13.059
38885W        W 7226  25.521  33.489  11.602
38886W        W 7227  27.680  38.067   4.147
38887W        W 7228  36.953   1.330   1.841
38888W        W 7229   2.896  15.149  13.341
38889W        W 7230  37.848   0.829  11.406
38890W        W 7231  24.551  19.165   3.356
38891W        W 7232  17.163   7.300   0.844
38892W        W 7233   8.784  13.167   1.231
38893W        W 7234  11.731  17.082  12.906
38894W        W 7235  39.919  26.123  13.383
38895W        W 7236  34.044  38.067  13.352
38896W        W 7237  21.224   1.731   0.426
38897W        W 7238  15.643  17.149   2.767
38898W        W 7239  36.968   7.240   4.621
38899W        W 7240   7.684  13.177   3.692
38900W        W 7241  16.210   3.316  12.922
38901W        W 7242  28.075   0.384  13.318
38902W        W 7243  38.349  36.980  11.885
38903W        W 7244   2.461  34.528  12.911
38904W        W 7245  33.384  13.616  11.864
38905W        W 7246   1.324   9.163   1.451
38906W        W 7247   4.861  12.832   2.871
38907W        W 7248   6.377   5.424  10.889
38908W        W 7249  24.602  11.199  10.906
38909W        W 7250  27.472  35.585  10.460
38910W        W 7251  17.174  33.506   2.810
38911W        W 7252  17.265  26.156   0.354
38912W        W 7253   4.773   7.851  13.995
38913W        W 7254  39.325  26.133   3.709
38914W        W 7255   4.423  43.870   0.340
38915W        W 7256   6.890  33.446   1.217
38916W        W 7257   7.390  35.557  10.467
38917W        W 7258  13.643  37.028  11.895
38918W        W 7259   8.749  15.582  13.874
38919W        W 7260  33.620   3.906   3.276
38920W        W 7261  24.711  41.847   3.214
38921W        W 7262  17.087   2.255   3.830
38922W        W 7263  40.408  13.808   3.343
38923W        W 7264  35.097  22.674  11.403
38924W        W 7265  36.951  36.052   3.208
38925W        W 7266  18.623  24.124  13.974
38926W        W 7267   1.384   0.923   4.630
38927W        W 7268  22.725  22.697   2.825
38928W        W 7269  13.806   0.847   1.934
38929W        W 7270  44.999  26.145   4.230
38930W        W 7271  16.185  18.132   2.665
38931W        W 7272  12.301  39.928  12.460
38932W        W 7273  11.746  26.155  10.548
38933W        W 7274  25.704  32.957   4.121
38934W        W 7275  27.456   5.837   3.634
38935W        W 7276   7.775  34.382   0.397
38936W        W 7277   9.699  29.113  12.478
38937W        W 7278  34.550  30.440   2.243
38938W        W 7279  10.310  28.470  10.555
38939W        W 7280  38.510  22.053  14.382
38940W        W 7281  33.497  11.355   1.279
38941W        W 7282  37.480   0.981  14.404
38942W        W 7283  40.920  13.217  11.489
38943W        W 7284  17.185  43.870   3.710
38944W        W 7285  40.897   9.692   3.785
38945W        W 7286  15.214   9.838   1.933
38946W        W 7287  10.731  25.010   3.672
38947W        W 7288  16.692  25.530  12.901
38948W        W 7289  33.467  26.492  13.524
38949W        W 7290  10.195   3.336  12.910
38950W        W 7291  27.110  32.630   0.415
38951W        W 7292  10.264   5.234   2.875
38952W        W 7293  12.160  31.615  11.442
38953W        W 7294  31.406  15.673  13.445
38954W        W 7295  40.509  11.855  14.323
38955W        W 7296  37.516  18.780  13.856
38956W        W 7297  26.512  11.803   3.160
38957W        W 7298  28.072  32.593   2.753
38958W        W 7299  27.011  43.281  13.935
38959W        W 7300  26.692   3.722   0.453
38960W        W 7301  16.162   2.437  12.355
38961W        W 7302  33.014  26.533  11.977
38962W        W 7303  12.837  19.559  11.862
38963W        W 7304  31.137  41.962   3.304
38964W        W 7305  40.367  30.027  13.545
38965W        W 7306  41.472   6.198   1.778
38966W        W 7307  36.949  36.409   4.662
38967W        W 7308  29.145   9.305   1.758
38968W        W 7309   5.753  42.804  13.400
38969W        W 7310  39.557   1.429  14.892
38970W        W 7311   0.255  43.287  12.036
38971W        W 7312   0.456   3.797  12.509
38972W        W 7313  13.194  41.845   1.256
38973W        W 7314  38.345  41.408  10.919
38974W        W 7315  33.097  38.922  11.585
38975W        W 7316  13.115   7.734  13.967
38976W        W 7317  30.032  12.741   0.248
38977W        W 7318  17.629  39.358   1.788
38978W        W 7319  12.205  35.405  12.389
38979W        W 7320  32.894  34.608   0.833
38980W        W 7321  41.991  28.178  12.971
38981W        W 7322  12.765  24.026  11.124
38982W        W 7323  38.028  12.283  10.562
38983W        W 7324  12.298  44.306  14.836
38984W        W 7325  25.099  16.255  14.303
38985W        W 7326   0.292  23.164  13.463
38986W        W 7327  27.626  14.741   4.635
38987W        W 7328  35.509   1.317  14.483
38988W        W 7329  20.196  40.001  10.966
38989W        W 7330   0.747  16.765  11.422
38990W        W 7331  16.221  32.955   5.111
38991W        W 7332  40.017  29.646   4.318
38992W        W 7333  26.483  43.414  13.908
38993W        W 7334  16.717   6.899   1.320
38994W        W 7335  13.245  23.041  11.991
38995W        W 7336  35.073   4.240   1.284
38996W        W 7337  41.887  43.936   4.276
38997W        W 7338  28.471   7.817  11.519
38998W        W 7339  40.440  44.857  11.024
38999W        W 7340  38.965   8.205  13.920
39000W        W 7341   0.835  12.293  11.933
39001W        W 7342  27.084  31.912  10.957
39002W        W 7343  43.442  10.649  10.525
39003W        W 7344   2.826  28.628  12.855
39004W        W 7345  43.817  29.020  12.501
39005W        W 7346   3.933  36.953  14.860
39006W        W 7347  12.204  42.409  14.343
39007W        W 7348   7.292   9.393  13.325
39008W        W 7349  14.775  38.325   4.693
39009W        W 7350  25.019  36.856  13.017
39010W        W 7351   3.882  26.478  14.295
39011W        W 7352   9.267  40.434  13.319
39012W        W 7353  29.009  35.519  10.470
39013W        W 7354  28.465  20.045   2.251
39014W        W 7355  16.315  24.643   2.825
39015W        W 7356  39.864  23.221   2.777
39016W        W 7357   5.351  37.007  13.454
39017W        W 7358   6.874  13.714   1.928
39018W        W 7359  30.427  39.050   4.752
39019W        W 7360  35.376  22.743  13.864
39020W        W 7361   1.821  29.982  12.509
39021W        W 7362  31.897   3.818  13.420
39022W        W 7363  29.098   0.421  10.904
39023W        W 7364  29.048  18.741   1.787
39024W        W 7365   6.422  31.512  10.613
39025W        W 7366  17.269   1.941  10.499
39026W        W 7367  12.702  28.662  13.875
39027W        W 7368  19.737  23.637   4.805
39028W        W 7369  41.021  14.336   0.360
39029W        W 7370  18.633  12.325  14.497
39030W        W 7371  31.030  27.486   4.747
39031W        W 7372  33.456  11.277  10.478
39032W        W 7373  23.050  32.440   3.746
39033W        W 7374  28.584   8.768   3.271
39034W        W 7375  43.336  40.432  13.502
39035W        W 7376  39.036   0.459   1.258
39036W        W 7377  30.046  44.976  11.599
39037W        W 7378  12.623  41.849   1.444
39038W        W 7379  34.427  33.581   2.671
39039W        W 7380  35.003  14.827  12.361
39040W        W 7381  22.177   6.364   1.711
39041W        W 7382  33.426  27.498   3.212
39042W        W 7383  15.274  16.163  13.473
39043W        W 7384  32.923  18.730   3.251
39044W        W 7385  23.208   7.282   3.344
39045W        W 7386  32.985  10.350  14.287
39046W        W 7387   8.830  18.560  10.473
39047W        W 7388  28.521  13.325  10.599
39048W        W 7389   0.353  23.623  13.461
39049W        W 7390  15.586   4.447   3.379
39050W        W 7391   5.345  21.698   2.745
39051W        W 7392  20.689  13.612  13.898
39052W        W 7393  35.984  33.021   1.850
39053W        W 7394  29.975  38.512   3.161
39054W        W 7395  28.060  44.906   2.195
39055W        W 7396  12.162  33.938   1.320
39056W        W 7397   3.903   7.234   3.735
39057W        W 7398  20.165   3.850  12.438
39058W        W 7399  18.189  19.224   2.805
39059W        W 7400  34.961  38.882  10.902
39060W        W 7401  20.208  12.183   4.163
39061W        W 7402  17.629  19.556  14.443
39062W        W 7403  22.503  22.166   3.303
39063W        W 7404   7.247   3.279   4.215
39064W        W 7405  22.511   4.247   3.773
39065W        W 7406   8.715  17.089   3.666
39066W        W 7407  14.831  20.672  13.944
39067W        W 7408  17.627   2.843   3.176
39068W        W 7409  37.555  41.365  14.349
39069W        W 7410  28.493   1.358   2.700
39070W        W 7411   7.738  44.320  10.497
39071W        W 7412  44.441  14.757   1.855
39072W        W 7413   5.902   2.334   3.810
39073W        W 7414  35.402   1.409   3.232
39074W        W 7415   3.434   6.315   0.748
39075W        W 7416  18.565   4.320   4.320
39076W        W 7417  12.625  13.342   0.894
39077W        W 7418  19.747  16.736   0.797
39078W        W 7419  24.221  23.632  12.026
39079W        W 7420   7.790  39.031   3.317
39080W        W 7421  23.164   6.760  12.486
39081W        W 7422  16.268  35.532  10.051
39082W        W 7423   6.288  33.012  13.429
39083W        W 7424  13.167  10.328   2.183
39084W        W 7425  37.427  40.925  13.971
39085W        W 7426   3.261  16.708  12.022
39086W        W 7427  27.545  16.665  14.823
39087W        W 7428  19.689  34.922  12.085
39088W        W 7429  24.686  10.777  14.927
39089W        W 7430  15.272  33.061  13.984
39090W        W 7431  10.718  22.673   1.891
39091W        W 7432  28.647  43.304   4.164
39092W        W 7433   6.825  42.796  11.039
39093W        W 7434   8.792   8.727   1.435
39094W        W 7435  16.593  32.627   3.271
39095W        W 7436  27.118  21.216  10.594
39096W        W 7437   3.949  39.834   4.230
39097W        W 7438  32.628  18.650   0.285
39098W        W 7439  32.411  23.517  13.518
39099W        W 7440  35.493  23.198  11.601
39100W        W 7441  36.591  29.067   2.213
39101W        W 7442  38.524  27.647   4.652
39102W        W 7443   5.711  18.670  12.828
39103W        W 7444   3.916  10.339   4.749
39104W        W 7445  35.498  32.483   2.350
39105W        W 7446  21.261  29.506   4.165
39106W        W 7447  11.837   1.973   1.281
39107W        W 7448  26.106  43.471  12.952
39108W        W 7449  20.734  23.722  10.975
39109W        W 7450   5.710  22.040  14.438
39110W        W 7451  12.658  33.908  11.888
39111W        W 7452  16.676  29.536   1.839
39112W        W 7453  31.134  18.155   0.459
39113W        W 7454  22.207  29.102   0.778
39114W        W 7455  13.169  29.060  12.029
39115W        W 7456  37.918  20.269   3.813
39116W        W 7457   6.220  15.781  12.433
39117W        W 7458  24.153  43.853  13.538
39118W        W 7459  33.126  35.014  10.562
39119W        W 7460   0.808  22.506  10.574
39120W        W 7461  20.060  29.959  13.893
39121W        W 7462  21.099   1.870  14.501
39122W        W 7463  10.859  29.035   4.295
39123W        W 7464  20.098  42.969   2.327
39124W        W 7465   3.377  26.635  14.963
39125W        W 7466  17.606  33.570   2.333
39126W        W 7467   9.689  43.783   2.805
39127W        W 7468  35.857   0.306  12.094
39128W        W 7469  16.276  34.445   4.624
39129W        W 7470  17.557  30.561  12.470
39130W        W 7471  36.056   6.361   4.205
39131W        W 7472   0.757  44.924   4.664
39132W        W 7473  26.651  17.099  10.612
39133W        W 7474   2.923  42.316   3.835
39134W        W 7475  23.577  25.618  13.032
39135W        W 7476   5.402  22.092  10.584
39136W        W 7477  10.874  32.067   4.250
39137W        W 7478  20.098  33.131   1.928
39138W        W 7479  34.992   7.684   0.953
39139W        W 7480  21.659  26.501   3.721
39140W        W 7481   9.370  42.331  10.615
39141W        W 7482   6.363   5.777   3.293
39142W        W 7483  42.954  22.142   3.722
39143W        W 7484   7.371   8.241   0.873
39144W        W 7485  23.023  39.415  11.390
39145W        W 7486  19.618   7.202   3.181
39146W        W 7487   1.834  32.059   1.881
39147W        W 7488  36.086  13.778   2.840
39148W        W 7489  20.204  16.657   0.785
39149W        W 7490  23.496   2.425   0.726
39150W        W 7491  19.080  15.682   4.259
39151W        W 7492  39.349  24.090   4.706
39152W        W 7493   7.201  33.494   0.798
39153W        W 7494  26.648  23.000  12.531
39154W        W 7495   3.755  11.822   3.237
39155W        W 7496  35.953   5.328   3.333
39156W        W 7497  11.677  32.605  13.338
39157W        W 7498  21.569   8.875   0.730
39158W        W 7499  38.928   0.964  12.457
39159W        W 7500  23.067  17.592   3.370
39160W        W 7501  33.065  29.528   0.461
39161W        W 7502   4.727   4.283  12.368
39162W        W 7503  18.067  21.686   5.194
39163W        W 7504  11.800  15.207  10.905
39164W        W 7505  18.709  11.366   1.253
39165W        W 7506  37.560  43.404   5.315
39166W        W 7507   3.836   4.333   0.750
39167W        W 7508  24.722   2.811  10.450
39168W        W 7509  43.825  17.741   0.343
39169W        W 7510  21.682  17.105  10.643
39170W        W 7511   0.405  32.966   2.317
39171W        W 7512  11.303  23.210  13.863
39172W        W 7513  44.005  31.617   0.314
39173W        W 7514  22.103  26.581  13.064
39174W        W 7515  23.499  28.933  12.479
39175W        W 7516   7.793  38.507  12.346
39176W        W 7517   2.906  25.046   3.819
39177W        W 7518  26.594  10.868  11.995
39178W        W 7519  22.669   0.317   0.252
39179W        W 7520  19.579  44.794  11.401
39180W        W 7521  44.260   9.755   0.411
39181W        W 7522  20.274  38.914   2.759
39182W        W 7523  13.796   3.716   2.826
39183W        W 7524  27.598  12.298  11.959
39184W        W 7525   3.420  36.506  11.516
39185W        W 7526  42.365  28.572   4.709
39186W        W 7527  40.316  20.051   0.457
39187W        W 7528  33.565  12.345   0.960
39188W        W 7529  28.077   6.860  11.475
39189W        W 7530  19.194  21.185   2.399
39190W        W 7531   1.860   6.808  14.772
39191W        W 7532   2.340   3.319   1.395
39192W        W 7533  27.462   1.934  14.465
39193W        W 7534  43.476  44.480  12.459
39194W        W 7535  30.068  29.033  10.899
39195W        W 7536  42.875  17.590   2.381
39196W        W 7537   9.875  28.100   2.828
39197W        W 7538  21.260  35.876  11.089
39198W        W 7539  29.592  41.507  13.400
39199W        W 7540  10.693   4.377   1.919
39200W        W 7541  37.563  14.171  10.142
39201W        W 7542  31.592  34.578   4.725
39202W        W 7543  33.408  34.080  12.866
39203W        W 7544  10.741  33.387  14.896
39204W        W 7545  28.166  10.327   9.930
39205W        W 7546  23.680  15.258  10.635
39206W        W 7547   4.748  14.106  12.886
39207W        W 7548  33.901   3.847   3.374
39208W        W 7549  31.945  39.021  10.610
39209W        W 7550  41.513  18.673  13.952
39210W        W 7551  27.683   0.414  14.795
39211W        W 7552  39.336  20.689   1.915
39212W        W 7553   1.417  34.547  14.904
39213W        W 7554  37.449  19.596  10.596
39214W        W 7555  39.522  13.307   2.678
39215W        W 7556   3.372  10.767  13.012
39216W        W 7557  36.079   3.238   3.735
39217W        W 7558  23.153  18.649  14.493
39218W        W 7559  23.144  34.086   0.796
39219W        W 7560  20.253  28.591   0.763
39220W        W 7561  22.720  19.752   1.376
39221W        W 7562  17.592  30.573   0.375
39222W        W 7563  23.711  43.424  12.479
39223W        W 7564  32.498  44.846   0.410
39224W        W 7565  41.038  40.323  11.530
39225W        W 7566  27.953  26.979   4.608
39226W        W 7567  25.032   5.232   4.302
39227W        W 7568  36.860  39.448   4.671
39228W        W 7569  20.214   7.389  12.387
39229W        W 7570   1.851   3.750  12.573
39230W        W 7571  15.634  34.038  10.989
39231W        W 7572   8.673  43.846   1.340
39232W        W 7573  28.083   1.928  12.886
39233W        W 7574  35.483  41.882   2.685
39234W        W 7575  15.592  42.793   3.331
39235W        W 7576  34.390   9.730   4.792
39236W        W 7577   6.794  40.890  11.052
39237W        W 7578  40.419  44.454  10.981
39238W        W 7579   8.683  38.070  11.013
39239W        W 7580  31.020  32.610   1.842
39240W        W 7581  21.078  34.065  11.057
39241W        W 7582  36.903  35.044   4.248
39242W        W 7583  28.607   6.689   1.797
39243W        W 7584  19.097  38.904  13.801
39244W        W 7585  31.042   3.869  13.914
39245W        W 7586  44.385  29.136  11.379
39246W        W 7587  31.472  34.967  11.539
39247W        W 7588  26.060  15.622  13.996
39248W        W 7589  43.801  20.265   1.909
39249W        W 7590  20.113  34.425  12.065
39250W        W 7591  17.778   0.770   2.408
39251W        W 7592  22.242  22.724   3.790
39252W        W 7593  15.291  43.961  12.526
39253W        W 7594  35.034  41.329  13.828
39254W        W 7595   5.349   9.283  13.932
39255W        W 7596   5.923  41.966  10.433
39256W        W 7597  28.508  39.420  14.921
39257W        W 7598   1.781  23.989   0.245
39258W        W 7599   7.249   9.361  13.795
39259W        W 7600  30.638   5.917   0.428
39260W        W 7601  23.057  22.066  14.288
39261W        W 7602  44.431  31.904   4.250
39262W        W 7603  15.119  34.584   3.314
39263W        W 7604  15.802  33.057   9.959
39264W        W 7605  13.212  16.749   4.326
39265W        W 7606  10.758  35.564  10.447
39266W        W 7607  44.353  20.713   0.292
39267W        W 7608  18.213  33.475   1.387
39268W        W 7609  36.490   7.855   3.360
39269W        W 7610  44.477  12.143   2.826
39270W        W 7611  12.744   0.771   3.325
39271W        W 7612   8.284  20.095   4.759
39272W        W 7613  37.472  21.659   3.230
39273W        W 7614   2.457  14.287  10.936
39274W        W 7615  11.854  27.675   4.239
39275W        W 7616  38.546  19.202  12.058
39276W        W 7617  36.920  31.133   1.827
39277W        W 7618   3.387  13.836   0.266
39278W        W 7619  21.051  24.559   4.815
39279W        W 7620  11.668  44.480   1.773
39280W        W 7621  30.512   4.360  10.616
39281W        W 7622  30.559   8.807  14.846
39282W        W 7623  23.215   8.707  13.929
39283W        W 7624  26.190   5.252  11.499
39284W        W 7625  37.961   3.306  10.470
39285W        W 7626   2.727  10.338   2.848
39286W        W 7627   1.408  20.063  11.093
39287W        W 7628  21.067  29.129   2.319
39288W        W 7629  25.003  42.801   4.831
39289W        W 7630  29.448  18.772   2.416
39290W        W 7631  25.990  41.362  14.803
39291W        W 7632  21.563  37.423   2.263
39292W        W 7633  32.079  42.954   3.844
39293W        W 7634  35.030  26.603   0.434
39294W        W 7635   8.270  28.660  12.896
39295W        W 7636  23.563  28.576   1.759
39296W        W 7637  17.166   8.782   1.862
39297W        W 7638   1.375  18.065  12.492
39298W        W 7639  19.130  27.120  12.544
39299W        W 7640   6.872  38.406   4.660
39300W        W 7641   7.747  21.710  10.987
39301W        W 7642  25.116  40.949   0.295
39302W        W 7643  30.528   4.798  14.510
39303W        W 7644  20.114  36.512   3.764
39304W        W 7645  21.623  25.170   0.851
39305W        W 7646  27.126   9.809   2.319
39306W        W 7647   2.304  35.397   4.699
39307W        W 7648  44.834  26.468   3.757
39308W        W 7649  27.960  18.656   0.460
39309W        W 7650   7.176  13.727  12.028
39310W        W 7651  37.356  32.495  14.449
39311W        W 7652   0.980  25.065  14.974
39312W        W 7653  33.592   0.449   4.348
39313W        W 7654  38.499   1.950  12.379
39314W        W 7655  37.044  18.690  12.026
39315W        W 7656  16.204  34.871   3.383
39316W        W 7657  12.623   9.360   0.815
39317W        W 7658  43.456   5.282  12.052
39318W        W 7659  32.555  36.957   2.870
39319W        W 7660  12.833  33.530   2.236
39320W        W 7661  27.477  29.175   0.359
39321W        W 7662  43.956   9.214   1.792
39322W        W 7663   2.260  40.962  14.495
39323W        W 7664  24.223  19.224   1.305
39324W        W 7665  25.067  20.728  14.363
39325W        W 7666  11.800  20.670  14.989
39326W        W 7667  44.813  18.771  11.952
39327W        W 7668  11.369   7.696  13.866
39328W        W 7669   5.797  36.063  13.483
39329W        W 7670  34.459  12.187  10.566
39330W        W 7671  22.598  33.116   3.372
39331W        W 7672  18.119  30.659   0.263
39332W        W 7673  10.341  10.256   0.903
39333W        W 7674  16.607  35.560   2.817
39334W        W 7675   1.907   0.319   1.252
39335W        W 7676   3.917  30.573   0.818
39336W        W 7677  25.476  38.964  10.933
39337W        W 7678   8.180   5.264   4.680
39338W        W 7679  44.860  36.869  14.980
39339W        W 7680  21.579  27.162   4.832
39340W        W 7681  18.058   7.879   0.875
39341W        W 7682   8.275  21.715  11.590
39342W        W 7683  35.416  14.128   4.309
39343W        W 7684  43.484  10.194  13.792
39344W        W 7685  25.171  25.508  13.312
39345W        W 7686  33.380  16.652   4.183
39346W        W 7687  36.872   1.423  12.363
39347W        W 7688  11.141   0.909  13.418
39348W        W 7689  29.013  39.995  13.394
39349W        W 7690   7.388   0.417   3.712
39350W        W 7691   4.303  18.607  13.523
39351W        W 7692  31.419  29.594   0.370
39352W        W 7693  34.864  13.263  10.924
39353W        W 7694  35.877   9.810   4.327
39354W        W 7695   2.339  32.000   0.345
39355W        W 7696  22.041  28.147   1.792
39356W        W 7697  39.986   5.328   3.314
39357W        W 7698  42.282  42.852  12.460
39358W        W 7699   0.913   6.877   3.315
39359W        W 7700  41.314  12.851   1.343
39360W        W 7701  37.578  40.431  14.444
39361W        W 7702  21.185  33.492   3.836
39362W        W 7703  26.151  17.752   3.680
39363W        W 7704  17.685   6.742   1.858
39364W        W 7705   8.189  43.375  12.932
39365W        W 7706  13.833  23.210   3.809
39366W        W 7707  26.173  14.635  13.412
39367W        W 7708   8.813  17.221   4.339
39368W        W 7709  15.755  12.689  10.159
39369W        W 7710  37.496  43.938  14.818
39370W        W 7711  37.389  20.670  13.808
39371W        W 7712  25.184  16.704   1.233
39372W        W 7713   0.473  15.711   4.159
39373W        W 7714   9.774   8.737  11.935
39374W        W 7715  25.209  35.028   0.450
39375W        W 7716  38.042  26.460  14.900
39376W        W 7717  32.507  20.608  14.032
39377W        W 7718  44.828  21.253  12.349
39378W        W 7719  29.149  10.649  12.575
39379W        W 7720   4.380  21.514   0.815
39380W        W 7721  28.105  23.130  14.401
39381W        W 7722   9.296   0.468  11.935
39382W        W 7723  18.054  12.343   4.231
39383W        W 7724  22.199  13.634  11.509
39384W        W 7725  38.528  40.389   0.802
39385W        W 7726  25.687   0.753   2.769
39386W        W 7727  35.969  43.288  13.842
39387W        W 7728  22.653  26.047  14.443
39388W        W 7729  38.534  14.701  14.482
39389W        W 7730  11.217  10.223  13.522
39390W        W 7731   3.219  21.201  14.765
39391W        W 7732  26.652  17.794  13.941
39392W        W 7733   4.438  37.920   0.424
39393W        W 7734  15.818  39.474   3.849
39394W        W 7735  29.598  14.690   1.915
39395W        W 7736  25.033  27.546  11.947
39396W        W 7737  40.846  22.618   4.801
39397W        W 7738  35.528  29.587   1.797
39398W        W 7739  44.280  10.703  10.947
39399W        W 7740  40.901  23.109   0.366
39400W        W 7741  40.039  43.971  14.408
39401W        W 7742  27.607  43.491  13.935
39402W        W 7743  10.262   2.266   2.834
39403W        W 7744  34.452  28.452   2.881
39404W        W 7745   5.789  32.409  14.353
39405W        W 7746  28.671  37.845  11.985
39406W        W 7747  18.094  36.428  14.286
39407W        W 7748   0.976   0.880   3.855
39408W        W 7749  34.474   0.423   2.405
39409W        W 7750  28.092  25.510   3.329
39410W        W 7751  34.506  25.095   4.699
39411W        W 7752  42.351  16.796  13.315
39412W        W 7753  33.513  28.965  10.143
39413W        W 7754  42.396  39.970  14.819
39414W        W 7755   7.736  29.952   0.337
39415W        W 7756  20.062  32.440   3.675
39416W        W 7757  43.904  15.657   1.293
39417W        W 7758  43.279  13.632   1.917
39418W        W 7759  33.618  44.302   4.346
39419W        W 7760  35.094  34.446  10.553
39420W        W 7761  31.454  39.386  11.457
39421W        W 7762  25.587  13.617  10.895
39422W        W 7763  29.952   6.684   4.707
39423W        W 7764  15.144  24.503  10.601
39424W        W 7765  36.979  22.583   4.200
39425W        W 7766  25.563  31.977  11.104
39426W        W 7767  23.502  29.106   3.365
39427W        W 7768  24.144  11.772  10.533
39428W        W 7769   5.809   2.809   2.797
39429W        W 7770  22.669  31.622   3.217
39430W        W 7771  24.001  10.788   1.236
39431W        W 7772  44.332   0.324   1.934
39432W        W 7773  37.883  26.547   0.751
39433W        W 7774  44.428  17.694  10.561
39434W        W 7775  12.285   2.332   4.662
39435W        W 7776  29.105  11.289  14.804
39436W        W 7777  31.146  22.176   3.338
39437W        W 7778  17.192  27.051   2.270
39438W        W 7779  28.436  31.432  13.946
39439W        W 7780  23.240   7.775   0.788
39440W        W 7781  28.043  16.680  12.025
39441W        W 7782  23.540  39.822   3.167
39442W        W 7783  21.585  22.225  14.425
39443W        W 7784  11.178  31.114  13.838
39444W        W 7785  25.544  11.221   3.787
39445W        W 7786  41.979  43.907  12.044
39446W        W 7787  20.767  28.551   2.841
39447W        W 7788   6.686  21.092   0.310
39448W        W 7789  12.192   0.425  14.983
39449W        W 7790   1.480  39.909   4.782
39450W        W 7791  21.244  21.062   0.739
39451W        W 7792  12.790   2.342  13.006
39452W        W 7793   0.431  23.031   4.156
39453W        W 7794  11.127  22.672  13.527
39454W        W 7795  30.580   1.823   0.374
39455W        W 7796  36.426  13.222   4.646
39456W        W 7797  14.761  43.402   3.313
39457W        W 7798  16.315   4.257  13.442
39458W        W 7799  36.474  17.093  10.054
39459W        W 7800   8.343   8.846   1.378
39460W        W 7801   7.224  18.698  11.920
39461W        W 7802  15.124   8.716   4.782
39462W        W 7803   2.733   2.770  10.437
39463W        W 7804   6.702   1.273  10.532
39464W        W 7805  32.543   9.845   1.438
39465W        W 7806  28.960  25.049   4.619
39466W        W 7807  26.679  33.588   3.181
39467W        W 7808   6.705  13.331  11.043
39468W        W 7809  28.496  23.589  12.887
39469W        W 7810  31.997   9.298  12.469
39470W        W 7811  31.572  23.614   4.665
39471W        W 7812   1.806  43.880  14.902
39472W        W 7813  40.326  36.442  10.917
39473W        W 7814   9.363   1.814  11.446
39474W        W 7815  33.119  33.941  11.040
39475W        W 7816   1.450  21.203   4.267
39476W        W 7817  11.216   1.414  14.510
39477W        W 7818  11.216  21.653   3.753
39478W        W 7819  15.649   3.271   2.874
39479W        W 7820  16.597  35.470  10.915
39480W        W 7821  26.642   9.225  12.508
39481W        W 7822  32.140  20.693   1.236
39482W        W 7823  35.360  28.171  12.914
39483W        W 7824  28.172  31.554   5.225
39484W        W 7825  17.209  24.602  11.383
39485W        W 7826  31.111  38.968   0.356
39486W        W 7827  20.143  43.433   1.927
39487W        W 7828  32.600  27.682   1.288
39488W        W 7829   0.434  30.645  12.519
39489W        W 7830  34.491  17.110   3.655
39490W        W 7831   7.353  38.356  10.525
39491W        W 7832   9.230   4.857   2.206
39492W        W 7833  43.796  40.985  10.459
39493W        W 7834  12.855   8.363   3.824
39494W        W 7835  41.485  10.751   0.894
39495W        W 7836  32.082   8.399  13.528
39496W        W 7837  26.089  31.927  11.938
39497W        W 7838  10.147  26.117  12.092
39498W        W 7839  24.520  30.449  12.925
39499W        W 7840  36.467  29.538   1.424
39500W        W 7841  36.934  28.439   0.348
39501W        W 7842  36.026  18.583  11.980
39502W        W 7843  19.082  24.188   0.438
39503W        W 7844  40.863  19.634  11.504
39504W        W 7845  40.378  21.715  13.059
39505W        W 7846   4.251  32.568  12.541
39506W        W 7847   2.259   3.920   2.234
39507W        W 7848  24.534  39.389  14.931
39508W        W 7849  39.413  38.486  13.869
39509W        W 7850   2.269  17.682  13.440
39510W        W 7851  42.524   0.253   0.735
39511W        W 7852  37.391  32.025   0.370
39512W        W 7853  37.957  11.768   4.299
39513W        W 7854  18.145  35.957  13.923
39514W        W 7855  28.646  36.908   1.724
39515W        W 7856  18.054   8.383  12.067
39516W        W 7857  31.927  26.115   1.343
39517W        W 7858  41.803  35.858   5.296
39518W        W 7859  44.955  19.227  11.924
39519W        W 7860  22.165  38.835   3.754
39520W        W 7861  22.596  29.153   5.091
39521W        W 7862  15.266  24.174  13.480
39522W        W 7863  15.584  19.605   2.874
39523W        W 7864  29.174  16.592  11.105
39524W        W 7865   2.303  20.743  10.964
39525W        W 7866  40.508  21.700   0.943
39526W        W 7867   0.481  29.964  14.343
39527W        W 7868  11.848  18.070   1.338
39528W        W 7869  11.674  18.084   4.323
39529W        W 7870   1.894  15.108   4.195
39530W        W 7871  18.595  24.583  10.935
39531W        W 7872  24.204  20.036   1.791
39532W        W 7873  33.590   8.372  10.453
39533W        W 7874   4.814  14.109   3.181
39534W        W 7875  29.014  20.641  14.313
39535W        W 7876  37.975  44.842  14.449
39536W        W 7877  35.935   1.750   0.390
39537W        W 7878  44.375   5.714   2.222
39538W        W 7879  39.845   2.796  14.927
39539W        W 7880  31.435   9.734   4.777
39540W        W 7881  30.511  22.166  10.414
39541W        W 7882  44.758   1.465   2.681
39542W        W 7883  37.073  29.057  11.894
39543W        W 7884  13.146  22.635   0.264
39544W        W 7885  18.558  38.524   2.304
39545W        W 7886   8.228  16.619   1.398
39546W        W 7887  32.451  18.184   0.359
39547W        W 7888  36.405  18.767  13.819
39548W        W 7889  29.601   8.733   5.270
39549W        W 7890  36.997   5.357  11.041
39550W        W 7891  40.409  10.258  11.430
39551W        W 7892  20.209   2.286  11.508
39552W        W 7893  34.111   5.360  11.112
39553W        W 7894   9.185  27.174  11.957
39554W        W 7895  16.226   7.813   2.738
39555W        W 7896  14.306  28.169  12.575
39556W        W 7897  32.139   6.889  12.946
39557W        W 7898  21.566  39.926  14.470
39558W        W 7899  19.210   6.822   1.891
39559W        W 7900  20.702  21.694  13.942
39560W        W 7901  24.152  32.006  10.921
39561W        W 7902  44.885  31.950   3.146
39562W        W 7903   6.395  35.977   3.739
39563W        W 7904  38.873  27.584  11.942
39564W        W 7905  13.216  34.035   0.814
39565W        W 7906  28.638   8.876  14.337
39566W        W 7907  41.912  10.335   1.884
39567W        W 7908  21.622  26.665  10.503
39568W        W 7909   4.829  33.957  11.580
39569W        W 7910  14.120  27.624  10.413
39570W        W 7911   8.310   9.248  11.504
39571W        W 7912   8.308  28.614  13.375
39572W        W 7913  42.336  40.972   2.781
39573W        W 7914   6.234   2.770   2.362
39574W        W 7915  10.217  36.945   0.296
39575W        W 7916  41.850  20.117   3.643
39576W        W 7917  36.398   4.738  10.559
39577W        W 7918   8.195  39.062   0.483
39578W        W 7919  38.552  19.778   3.778
39579W        W 7920  25.124  29.093  12.511
39580W        W 7921  44.335  14.726  12.900
39581W        W 7922  43.016  27.991   4.296
39582W        W 7923  43.431  25.143   1.236
39583W        W 7924  14.688  14.335  13.859
39584W        W 7925  12.263  13.308  14.761
39585W        W 7926  32.012  22.119   0.750
39586W        W 7927  18.587  19.159   3.770
39587W        W 7928  33.110  23.122   1.732
39588W        W 7929  35.975  19.594  14.275
39589W        W 7930   1.970   7.365  14.759
39590W        W 7931   2.368  36.081   3.813
39591W        W 7932   8.269   5.413   3.185
39592W        W 7933  27.473  10.641   4.115
39593W        W 7934  14.635  43.488  14.385
39594W        W 7935   7.838   8.783   1.238
39595W        W 7936  12.213   4.380  11.110
39596W        W 7937  25.996  20.182  11.601
39597W        W 7938  41.950  44.398   4.236
39598W        W 7939  10.179  17.112   2.384
39599W        W 7940  43.012  35.541  14.953
39600W        W 7941  21.689  40.804  10.904
39601W        W 7942  15.295  33.569  11.557
39602W        W 7943   9.251  38.047   1.781
39603W        W 7944  28.536  34.589  13.012
39604W        W 7945  25.052  24.201   1.228
39605W        W 7946  29.929  44.322  13.453
39606W        W 7947  16.605   6.412   2.676
39607W        W 7948  28.021  21.748  10.618
39608W        W 7949  22.537  43.967   2.325
39609W        W 7950  29.947  34.083   4.786
39610W        W 7951  16.784   4.940  13.387
39611W        W 7952  40.017  19.240  11.035
39612W        W 7953  13.344  26.992   4.814
39613W        W 7954   4.247  18.217   0.957
39614W        W 7955   6.875  10.241   4.659
39615W        W 7956  12.297  43.425  11.445
39616W        W 7957  27.546  30.522  12.916
39617W        W 7958  43.512   8.391   4.167
39618W        W 7959  22.684   9.318  14.020
39619W        W 7960  11.339  18.165  11.930
39620W        W 7961   8.784  31.965  13.838
39621W        W 7962  23.109  19.713   2.752
39622W        W 7963  41.335  37.051   0.403
39623W        W 7964  25.078  19.646   3.787
39624W        W 7965  33.528  36.964  13.544
39625W        W 7966  20.685  19.635  11.959
39626W        W 7967  31.087   4.744  12.444
39627W        W 7968   4.867  33.421   3.739
39628W        W 7969  34.099  24.022  10.608
39629W        W 7970  29.936   4.413   0.254
39630W        W 7971  23.701  43.494   1.337
39631W        W 7972   5.824  28.008  10.599
39632W        W 7973  40.305  31.560   3.707
39633W        W 7974   2.788  29.614  13.446
39634W        W 7975  40.329  34.969   3.793
39635W        W 7976  35.868  17.072   1.892
39636W        W 7977  29.021   3.356  13.055
39637W        W 7978  17.118  36.383  10.612
39638W        W 7979  41.403  15.156   3.682
39639W        W 7980  16.241  10.847   2.389
39640W        W 7981  14.179  41.865  13.017
39641W        W 7982  34.542  11.657  12.094
39642W        W 7983  17.707  32.519   0.454
39643W        W 7984  35.969   4.238  14.506
39644W        W 7985  27.069  21.569   2.258
39645W        W 7986   9.790  11.156  14.975
39646W        W 7987  12.152   5.376   2.896
39647W        W 7988  15.247  24.045   2.698
39648W        W 7989  39.359  14.637  11.977
39649W        W 7990  34.980   9.682  10.942
39650W        W 7991  14.614  39.829   1.276
39651W        W 7992   2.887   3.793  14.784
39652W        W 7993  37.883  19.153   2.361
39653W        W 7994  19.585   1.909   0.932
39654W        W 7995  40.442  35.556  14.307
39655W        W 7996  18.790  28.138  11.126
39656W        W 7997  31.042  21.076   9.991
39657W        W 7998  40.379   1.936  11.984
39658W        W 7999  15.592  43.321   1.406
39659W        W 8000  36.374   4.725  13.865
39660W        W 8001  43.393  30.530   5.317
39661W        W 8002  15.710   2.339   1.433
39662W        W 8003  36.436  30.925  14.797
39663W        W 8004  25.204  23.662   1.870
39664W        W 8005  19.729   5.220  12.884
39665W        W 8006  39.364   6.291  13.897
39666W        W 8007  29.468  35.476   1.425
39667W        W 8008  37.919  34.598   3.747
39668W        W 8009  36.929   9.793  12.579
39669W        W 8010  25.651  43.911   1.846
39670W        W 8011  38.548  23.624   3.314
39671W        W 8012  11.826  24.044   2.763
39672W        W 8013  15.685   4.319  10.957
39673W        W 8014  17.663  30.922   4.718
39674W        W 8015  22.186  26.578   0.279
39675W        W 8016  35.527   2.948  11.032
39676W        W 8017  12.294   7.319   0.395
39677W        W 8018  38.072  34.415   0.822
39678W        W 8019  23.241  12.712  13.867
39679W        W 8020  17.606  23.683   3.344
39680W        W 8021  27.055  25.649   2.752
39681W        W 8022  34.610  23.614  10.531
39682W        W 8023  20.091   1.338   0.328
39683W        W 8024   9.652   3.261   4.614
39684W        W 8025   5.905  39.868  12.537
39685W        W 8026  22.076  33.944   0.824
39686W        W 8027   6.245  36.037  11.443
39687W        W 8028  29.093  44.326   2.199
39688W        W 8029   7.270   3.919  10.985
39689W        W 8030  28.546  24.660  11.540
39690W        W 8031   9.243  26.540  14.917
39691W        W 8032  39.333   0.324  14.927
39692W        W 8033   4.284  25.700   0.917
39693W        W 8034  16.759  30.135   2.744
39694W        W 8035  39.842  10.858  14.458
39695W        W 8036  30.599  28.962  10.155
39696W        W 8037  41.392  12.267   2.888
39697W        W 8038  32.472   2.789   3.688
39698W        W 8039  22.248  40.849  12.023
39699W        W 8040  14.229  35.559   4.240
39700W        W 8041  20.671  16.172  11.974
39701W        W 8042  22.105  30.504  13.870
39702W        W 8043  14.781  20.123   0.301
39703W        W 8044  20.767  39.368  13.848
39704W        W 8045   9.273  26.682  14.394
39705W        W 8046  33.950  12.680  13.046
39706W        W 8047  33.964  21.711  14.292
39707W        W 8048  25.193  44.455  13.387
39708W        W 8049  27.445  43.854   3.187
39709W        W 8050  22.652  39.997  12.392
39710W        W 8051  36.846  30.002   4.283
39711W        W 8052  32.926  32.080   3.251
39712W        W 8053   6.399  30.451  14.877
39713W        W 8054   2.262  17.745  10.478
39714W        W 8055  35.929   6.210  12.845
39715W        W 8056   8.213  30.563   3.344
39716W        W 8057  11.629   4.315   1.279
39717W        W 8058  17.085  11.199   4.182
39718W        W 8059  16.251   8.372  13.999
39719W        W 8060  23.610  21.511   3.703
39720W        W 8061  41.966  21.223  13.815
39721W        W 8062  11.188   1.329  11.858
39722W        W 8063  41.473   7.719   4.649
39723W        W 8064  43.282   8.208   2.736
39724W        W 8065  15.243   5.356  14.853
39725W        W 8066  44.347  15.779  11.535
39726W        W 8067   0.903  43.414  11.917
39727W        W 8068  18.573   0.785   0.749
39728W        W 8069   7.271   5.900   2.365
39729W        W 8070  25.644  25.549  13.346
39730W        W 8071  21.667  16.234   4.188
39731W        W 8072  16.623   3.852  12.991
39732W        W 8073   2.831   1.825   2.738
39733W        W 8074  19.746  32.015  14.807
39734W        W 8075  22.634  39.022  13.962
39735W        W 8076   3.353  33.121   1.759
39736W        W 8077  40.904  41.316  13.463
39737W        W 8078  30.569  27.583   3.785
39738W        W 8079  15.096  44.851  10.947
39739W        W 8080  15.669   3.258   3.350
39740W        W 8081  25.981  25.616  12.878
39741W        W 8082  23.173  43.357   2.346
39742W        W 8083  36.418  12.612  10.923
39743W        W 8084  14.176  21.689   0.409
39744W        W 8085   6.309  16.751   1.268
39745W        W 8086  44.963  41.912   3.714
39746W        W 8087  14.121   8.792  11.598
39747W        W 8088  15.292  39.478   2.794
39748W        W 8089  41.508  23.208  13.957
39749W        W 8090   2.327  19.645   3.192
39750W        W 8091  28.018  24.724   4.630
39751W        W 8092   0.335  35.920  11.416
39752W        W 8093  20.142   0.329  10.155
39753W        W 8094  33.568  31.421   1.337
39754W        W 8095  19.768  41.503  10.980
39755W        W 8096   0.432  13.678  12.451
39756W        W 8097   6.749  36.549  10.477
39757W        W 8098   6.838   8.398   0.856
39758W        W 8099   3.248   1.451  11.447
39759W        W 8100  37.999  25.606   3.324
39760W        W 8101  12.233   4.227  12.938
39761W        W 8102  24.092  42.465  12.502
39762W        W 8103  42.491  38.049   4.604
39763W        W 8104  23.146  12.157   4.680
39764W        W 8105   0.469  37.023  14.431
39765W        W 8106  39.036  44.403   0.379
39766W        W 8107  29.050  32.395  13.001
39767W        W 8108  19.698  23.210  11.891
39768W        W 8109  24.486  36.573   2.680
39769W        W 8110  26.649   5.248  14.875
39770W        W 8111  39.513   4.205   2.228
39771W        W 8112   8.237  41.029   2.254
39772W        W 8113  10.330  15.307   0.948
39773W        W 8114  38.891  43.342   1.434
39774W        W 8115  35.871  27.646  11.883
39775W        W 8116  26.975  25.468   1.329
39776W        W 8117  34.914  40.365   4.134
39777W        W 8118  42.965  21.056   3.699
39778W        W 8119  15.733  15.298  14.429
39779W        W 8120  16.292  36.398  10.509
39780W        W 8121  34.910  36.436   0.306
39781W        W 8122  16.576  17.790  10.961
39782W        W 8123  10.756  31.961  11.992
39783W        W 8124  22.558  11.303   4.337
39784W        W 8125   3.823  18.569  14.336
39785W        W 8126  14.602  36.537  11.386
39786W        W 8127  27.649   1.297  10.933
39787W        W 8128   1.876   0.478  13.522
39788W        W 8129   6.743  34.497  13.904
39789W        W 8130  38.422  39.983  10.576
39790W        W 8131  20.153  35.986   1.804
39791W        W 8132  19.556   1.803   0.252
39792W        W 8133  26.061  26.103   4.619
39793W        W 8134  19.272  19.688   3.715
39794W        W 8135  42.781  26.575  14.942
39795W        W 8136  37.356  27.674   1.874
39796W        W 8137  25.075   0.760   5.172
39797W        W 8138  24.072   6.905  10.495
39798W        W 8139  31.640  37.995  13.332
39799W        W 8140  40.377  11.297   2.360
39800W        W 8141  30.598  19.193  11.404
39801W        W 8142  28.950  14.696   2.186
39802W        W 8143  18.583   9.747  10.629
39803W        W 8144  13.278  12.359   4.648
39804W        W 8145   0.417  44.794   0.735
39805W        W 8146   9.715   6.828  10.573
39806W        W 8147   2.861  27.069  11.490
39807W        W 8148  15.271  44.883   1.706
39808W        W 8149  27.551  28.540  10.994
39809W        W 8150  16.702  43.475  12.388
39810W        W 8151   3.808  37.900  13.361
39811W        W 8152  13.701  20.669   4.836
39812W        W 8153   1.449  18.089   3.737
39813W        W 8154  40.461  14.798   0.828
39814W        W 8155  18.162  10.789   4.835
39815W        W 8156  16.278   1.382   3.715
39816W        W 8157  16.695  16.735  12.439
39817W        W 8158   8.347  40.522   0.348
39818W        W 8159  34.581  25.128   1.357
39819W        W 8160   2.281  43.980   4.775
39820W        W 8161  41.864  16.792  14.413
39821W        W 8162  38.058  14.756  14.997
39822W        W 8163   5.870  21.260  13.321
39823W        W 8164  12.287  36.850  11.974
39824W        W 8165  44.928  37.474  11.032
39825W        W 8166  35.393  33.030   0.810
39826W        W 8167   5.844   9.183   3.662
39827W        W 8168  43.422  29.965   4.130
39828W        W 8169  19.632  23.607  12.353
39829W        W 8170  10.653  10.337   0.847
39830W        W 8171  26.075  20.035  14.462
39831W        W 8172  37.989  39.389  11.927
39832W        W 8173  29.002  40.798  11.049
39833W        W 8174  42.878  10.665   1.239
39834W        W 8175  41.899  38.455  13.366
39835W        W 8176  34.524  44.855   4.781
39836W        W 8177   8.852  44.423   2.811
39837W        W 8178  19.592   1.331  13.022
39838W        W 8179  26.700  35.597  14.992
39839W        W 8180  38.411  11.860   0.258
39840W        W 8181   7.777  28.670   1.781
39841W        W 8182  19.135  40.808   0.735
39842W        W 8183  12.650   5.253   4.768
39843W        W 8184  29.921  37.909   3.312
39844W        W 8185  31.467  31.966   4.301
39845W        W 8186  16.116   2.282  13.440
39846W        W 8187   7.261  27.448  13.844
39847W        W 8188  29.436  22.228  13.525
39848W        W 8189  33.453   3.447  14.452
39849W        W 8190  40.826  13.126   0.785
39850W        W 8191  10.783   2.957  10.421
39851W        W 8192  24.190  42.448  11.963
39852W        W 8193  44.898  37.050   2.828
39853W        W 8194  33.995  13.764  10.478
39854W        W 8195  35.451  20.193   0.478
39855W        W 8196  14.787  44.001   0.462
39856W        W 8197  41.521  27.502  13.878
39857W        W 8198   4.828  13.239  14.336
39858W        W 8199  28.605  13.761  11.089
39859W        W 8200   5.204  11.734  12.420
39860W        W 8201   8.382  13.280   1.764
39861W        W 8202  12.214   7.229   4.699
39862W        W 8203  43.302  23.204   1.446
39863W        W 8204  16.616  22.502  12.878
39864W        W 8205  20.031  39.855   3.180
39865W        W 8206   0.360  29.649  14.921
39866W        W 8207   6.219  23.541   9.993
39867W        W 8208   1.737  15.820   4.808
39868W        W 8209  24.581  42.994  10.611
39869W        W 8210  36.357   6.710  12.903
39870W        W 8211  26.999  16.145   4.672
39871W        W 8212   8.898  32.498   0.359
39872W        W 8213  42.330  27.022  12.484
39873W        W 8214  17.280   2.795   2.668
39874W        W 8215  10.703  30.052   2.676
39875W        W 8216   0.956   4.823   4.208
39876W        W 8217   0.847   8.871   3.805
39877W        W 8218  18.264  27.561  14.469
39878W        W 8219   7.333  42.403   1.383
39879W        W 8220   7.692  35.927   5.294
39880W        W 8221  17.192  40.420  10.596
39881W        W 8222  15.685  15.631  10.423
39882W        W 8223  28.944  14.685   1.870
39883W        W 8224  43.407  33.490   1.860
39884W        W 8225  43.447  20.137   3.286
39885W        W 8226  25.528   5.422  14.465
39886W        W 8227  28.930  29.948   1.412
39887W        W 8228  24.164   0.825  12.554
39888W        W 8229  22.084   1.436   3.154
39889W        W 8230   7.278   2.356   0.841
39890W        W 8231  12.147  36.996  13.052
39891W        W 8232  14.769  40.843   1.817
39892W        W 8233   2.425  40.917   1.361
39893W        W 8234   6.899  29.980   3.760
39894W        W 8235   1.846  10.757   2.331
39895W        W 8236  22.200  20.088   2.727
39896W        W 8237   2.812  23.180   2.297
39897W        W 8238   0.808  43.930   2.300
39898W        W 8239   8.161  28.076   3.250
39899W        W 8240  21.100  28.445   1.282
39900W        W 8241  33.419  41.995  11.547
39901W        W 8242  39.377  42.918  14.449
39902W        W 8243   2.437   6.373   2.764
39903W        W 8244  26.620  20.686  12.971
39904W        W 8245  13.755  16.783  13.505
39905W        W 8246  26.177  35.516   2.258
39906W        W 8247  42.949   9.199  14.995
39907W        W 8248   4.250  39.033   0.807
39908W        W 8249  15.651  35.011  11.091
39909W        W 8250  43.290   2.963   2.299
39910W        W 8251  27.638  39.060  10.588
39911W        W 8252  34.531   8.884   1.737
39912W        W 8253  17.194   1.324   4.760
39913W        W 8254   3.435  20.671   4.142
39914W        W 8255  25.671  10.797  11.065
39915W        W 8256  20.589  17.774   0.313
39916W        W 8257  22.598   5.887   0.285
39917W        W 8258  17.774  28.463   0.904
39918W        W 8259  25.047   1.939   4.199
39919W        W 8260  34.886   7.705  14.332
39920W        W 8261  36.072   6.853  11.931
39921W        W 8262   3.246  33.127  13.881
39922W        W 8263  20.159  42.013   3.800
39923W        W 8264  28.076  11.814   0.444
39924W        W 8265  31.636   9.386  10.446
39925W        W 8266  33.470  34.884   5.148
39926W        W 8267  19.615  10.752  11.586
39927W        W 8268  14.293  22.730   2.790
39928W        W 8269   6.393  15.096  13.490
39929W        W 8270   3.775  38.048  12.493
39930W        W 8271  33.407  11.322  13.461
39931W        W 8272  42.446  18.168   4.722
39932W        W 8273  43.325  24.092  10.050
39933W        W 8274   5.692  30.588  14.863
39934W        W 8275  38.931   4.384  14.912
39935W        W 8276   2.845   6.685   1.819
39936W        W 8277  22.559   8.855   5.308
39937W        W 8278   1.422   6.197   3.315
39938W        W 8279  23.709  21.655   2.183
39939W        W 8280  35.501   6.714  12.381
39940W        W 8281   0.774  35.008   9.973
39941W        W 8282  23.221  15.622  14.293
39942W        W 8283   1.437  44.774  11.605
39943W        W 8284   0.374  30.495  10.920
39944W        W 8285  24.043  38.027   0.760
39945W        W 8286  16.080  41.868  13.468
39946W        W 8287  25.123  21.660  11.124
39947W        W 8288  18.764  31.430  11.477
39948W        W 8289  32.059  41.968  10.518
39949W        W 8290  20.738  13.226  13.958
39950W        W 8291  12.751  29.617   0.364
39951W        W 8292  38.935  43.806   2.825
39952W        W 8293  29.625   0.922   2.333
39953W        W 8294   0.384  29.429  10.405
39954W        W 8295  27.032  31.608  11.938
39955W        W 8296  20.533  42.396  12.981
39956W        W 8297  15.751  27.169  11.452
39957W        W 8298  22.056  37.473  14.839
39958W        W 8299  44.754  31.583  13.464
39959W        W 8300  18.665   5.348   1.356
39960W        W 8301  10.720  35.080  10.933
39961W        W 8302  21.726  33.419   3.690
39962W        W 8303   2.921  35.461   1.295
39963W        W 8304  11.167  43.284  10.951
39964W        W 8305  40.484  41.920   1.395
39965W        W 8306  32.939   8.768  11.863
39966W        W 8307   2.274   2.863  13.816
39967W        W 8308  38.399   0.933  14.858
39968W        W 8309  38.055  18.580   4.334
39969W        W 8310  36.906  40.035   0.925
39970W        W 8311   8.269  27.988   3.826
39971W        W 8312  13.715  41.307  11.087
39972W        W 8313  17.065   2.827  11.110
39973W        W 8314  44.838  16.268   3.206
39974W        W 8315   5.406   1.333   1.706
39975W        W 8316  20.211   1.943   0.926
39976W        W 8317   4.856  20.664   1.741
39977W        W 8318  21.572  35.083  12.445
39978W        W 8319  26.030  29.111  14.817
39979W        W 8320  33.951  37.001   2.728
39980W        W 8321  14.630  44.006   4.321
39981W        W 8322  13.176  35.973   3.227
39982W        W 8323  23.154   9.836   0.734
39983W        W 8324   0.334  33.930   1.233
39984W        W 8325  22.164   6.832   3.850
39985W        W 8326  13.758  10.195  13.063
39986W        W 8327  13.784  16.803  12.080
39987W        W 8328   8.232  35.984  13.433
39988W        W 8329  13.801  19.560   3.211
39989W        W 8330  13.675  32.961  11.424
39990W        W 8331  18.145  17.616  11.946
39991W        W 8332  30.961  16.764   0.787
39992W        W 8333   7.831   2.305  14.507
39993W        W 8334  30.138   0.385  14.824
39994W        W 8335  24.209  36.978  13.488
39995W        W 8336   1.251  42.465  11.050
39996W        W 8337  19.567  25.559   1.424
39997W        W 8338  11.235  36.056   1.336
39998W        W 8339   1.253  36.943   4.645
39999W        W 8340  20.270  40.387   1.811
40000W        W 8341  16.162  36.492   2.683
40001W        W 8342  15.693  11.253  12.412
40002W        W 8343  26.590   3.286  13.895
40003W        W 8344   2.399   7.258  12.565
40004W        W 8345   5.439   0.292   0.353
40005W        W 8346   3.813   3.447   3.774
40006W        W 8347   2.902  44.797   3.714
40007W        W 8348  16.760  27.133  13.346
40008W        W 8349  34.565  31.543   0.735
40009W        W 8350  22.198  42.942   4.813
40010W        W 8351  14.648  16.752   3.232
40011W        W 8352  35.990  18.653   3.272
40012W        W 8353  38.483  40.915   9.955
40013W        W 8354  34.485  31.479  14.499
40014W        W 8355  21.159   3.800   0.400
40015W        W 8356  27.638  25.655   2.261
40016W        W 8357  17.297  14.668   3.154
40017W        W 8358  21.548   8.242  10.476
40018W        W 8359  16.685  43.779  13.837
40019W        W 8360   6.753  13.163   2.840
40020W        W 8361  34.118  25.979   3.796
40021W        W 8362  35.900  27.531  10.423
40022W        W 8363  27.602  12.839  12.031
40023W        W 8364  12.714  26.695   4.700
40024W        W 8365  38.016  41.852   3.801
40025W        W 8366  16.658  42.987   0.245
40026W        W 8367   1.428   4.899  11.605
40027W        W 8368   3.254  15.315   3.662
40028W        W 8369   1.328   7.731   3.278
40029W        W 8370  27.051   1.878  10.899
40030W        W 8371  41.375  39.023   4.324
40031W        W 8372  18.180  16.583   4.217
40032W        W 8373  16.677  22.677   3.753
40033W        W 8374  36.074   7.396   1.765
40034W        W 8375  32.558  27.638   3.731
40035W        W 8376   6.347  21.683   4.756
40036W        W 8377  34.981  20.208  11.025
40037W        W 8378  26.026  36.490  14.414
40038W        W 8379  33.963  24.154  13.816
40039W        W 8380  18.572  38.358  13.538
40040W        W 8381  33.458  12.195   1.877
40041W        W 8382  37.931  23.569   3.846
40042W        W 8383  36.570  42.828   3.662
40043W        W 8384   2.762  20.267   1.225
40044W        W 8385   0.763  16.695  14.868
40045W        W 8386  36.558  36.386  12.063
40046W        W 8387  37.443   9.650  13.519
40047W        W 8388  38.360  29.941  14.415
40048W        W 8389  31.500  12.638  12.349
40049W        W 8390  11.337  14.099  13.969
40050W        W 8391   2.266  42.793  12.452
40051W        W 8392  39.511  10.150  11.038
40052W        W 8393  41.006   0.409  12.088
40053W        W 8394  33.502   8.810   1.361
40054W        W 8395  18.156  39.855   3.226
40055W        W 8396  15.293   4.342  13.947
40056W        W 8397  13.689  18.569   1.427
40057W        W 8398  16.158  37.979  14.366
40058W        W 8399  34.089  18.657   1.811
40059W        W 8400  29.091  19.678  12.928
40060W        W 8401   7.801  23.618   4.635
40061W        W 8402  26.111  39.523   4.252
40062W        W 8403  18.654  17.590  12.558
40063W        W 8404  29.106  32.033  10.585
40064W        W 8405  15.784  43.292  11.955
40065W        W 8406  13.157  28.653  12.404
40066W        W 8407  22.718   3.221   0.953
40067W        W 8408  38.504  44.943  12.083
40068W        W 8409  30.422  13.714  12.343
40069W        W 8410  20.630   7.414  11.520
40070W        W 8411  10.802   0.275  12.031
40071W        W 8412  10.669  27.596   3.690
40072W        W 8413  31.061  42.970   1.824
40073W        W 8414  38.550   5.846  12.443
40074W        W 8415  17.097  12.148   3.644
40075W        W 8416  23.988  12.780   1.891
40076W        W 8417  20.707  30.123  11.107
40077W        W 8418   4.887  28.502  14.979
40078W        W 8419   4.732  21.065  13.434
40079W        W 8420   7.394  35.922  11.483
40080W        W 8421  13.269  14.235  10.898
40081W        W 8422  43.384  18.732  10.637
40082W        W 8423  28.177  14.823   1.440
40083W        W 8424  29.109  33.015   2.372
40084W        W 8425  41.361  23.565  12.048
40085W        W 8426  25.573  33.384  14.937
40086W        W 8427   9.729  39.486   3.816
40087W        W 8428   5.746  15.150   3.814
40088W        W 8429  30.421   1.784  10.962
40089W        W 8430  12.729  34.458  10.425
40090W        W 8431   6.384   0.341   4.328
40091W        W 8432  28.141   3.777  11.964
40092W        W 8433  16.274  12.824   1.253
40093W        W 8434  42.303   2.393   2.831
40094W        W 8435  31.060  32.441  12.895
40095W        W 8436  39.004   3.910   2.711
40096W        W 8437  39.032  18.220   4.715
40097W        W 8438  17.202  28.101  11.463
40098W        W 8439  37.495  30.427  12.953
40099W        W 8440  37.373  13.171  12.847
40100W        W 8441   1.406  44.327  13.823
40101W        W 8442  39.928   4.926  11.128
40102W        W 8443  22.201  41.940   0.257
40103W        W 8444   7.377  35.066   3.819
40104W        W 8445   7.195  10.678   2.835
40105W        W 8446   5.733  25.475   0.470
40106W        W 8447  10.657   8.775   0.735
40107W        W 8448  17.243  12.766   2.880
40108W        W 8449  14.650  18.216  13.458
40109W        W 8450  24.591  11.137  14.455
40110W        W 8451   7.300  20.208  11.958
40111W        W 8452  17.123  23.497   0.805
40112W        W 8453   6.341   6.843   2.323
40113W        W 8454  12.689  33.965  11.060
40114W        W 8455  27.472  39.368   0.827
40115W        W 8456  22.155  22.222   2.392
40116W        W 8457  29.116  13.115   3.340
40117W        W 8458  14.173  27.060   2.706
40118W        W 8459   3.864  39.515   4.201
40119W        W 8460  40.384  35.919   4.323
40120W        W 8461  33.583  41.362  14.820
40121W        W 8462  18.122  11.266   1.725
40122W        W 8463  15.638  44.778  10.903
40123W        W 8464   2.746  25.668   2.874
40124W        W 8465   9.883   6.688  13.936
40125W        W 8466  37.068  21.543   3.191
40126W        W 8467  20.125  25.656  14.401
40127W        W 8468  32.073  23.069  14.515
40128W        W 8469   7.827   6.271   2.767
40129W        W 8470  34.424  10.686   3.264
40130W        W 8471  19.182   1.789   3.726
40131W        W 8472   1.837  40.420   0.750
40132W        W 8473  41.879  35.017  11.603
40133W        W 8474  21.154  35.508  14.418
40134W        W 8475  21.021   5.352   4.210
40135W        W 8476  27.631  11.283  12.923
40136W        W 8477   1.943   7.349   0.898
40137W        W 8478  41.990  12.821  10.148
40138W        W 8479  14.120  41.922  12.505
40139W        W 8480  33.593  15.707   2.342
40140W        W 8481  39.338   1.834  10.997
40141W        W 8482  17.799  25.675  12.544
40142W        W 8483  20.213  17.292  13.964
40143W        W 8484  43.341   6.885  14.460
40144W        W 8485  15.812  22.038  13.021
40145W        W 8486  21.660   7.395   0.447
40146W        W 8487  18.210   3.788   3.676
40147W        W 8488  41.470   5.806  12.064
40148W        W 8489  42.476  11.260  11.874
40149W        W 8490  22.631  22.122   2.237
40150W        W 8491  37.854   2.383  13.797
40151W        W 8492  27.177  34.934   0.771
40152W        W 8493  41.937  18.685  12.930
40153W        W 8494  17.788  33.081   4.788
40154W        W 8495  15.791  19.687  10.632
40155W        W 8496   1.454   4.382  10.956
40156W        W 8497   6.254  36.559   3.164
40157W        W 8498  29.610  43.485  12.843
40158W        W 8499  20.626   6.400  11.374
40159W        W 8500   2.261  11.296  14.907
40160W        W 8501  36.872   7.720   3.260
40161W        W 8502  26.187  16.704   5.654
40162W        W 8503  42.993  11.267   4.338
40163W        W 8504   0.457  22.153  13.962
40164W        W 8505   7.767   0.438   4.727
40165W        W 8506  19.656   5.743   2.328
40166W        W 8507  44.489  12.245  14.438
40167W        W 8508   3.876  34.574   1.428
40168W        W 8509  11.213  22.599  10.573
40169W        W 8510  43.969  30.994  14.905
40170W        W 8511  14.722  11.325  11.906
40171W        W 8512  40.460   5.272   3.188
40172W        W 8513   9.167  32.562   2.362
40173W        W 8514  37.357  24.508   3.736
40174W        W 8515  36.457   8.712  13.547
40175W        W 8516  41.899   1.356  13.413
40176W        W 8517  26.037   9.718   2.347
40177W        W 8518  14.193  20.059   3.356
40178W        W 8519   4.291  35.858  10.438
40179W        W 8520  29.049  21.235   4.603
40180W        W 8521  12.671  30.960  12.827
40181W        W 8522   0.977  15.633  14.908
40182W        W 8523   1.389  24.057  13.037
40183W        W 8524  25.687  19.752  13.507
40184W        W 8525  12.802  35.932   0.784
40185W        W 8526   2.347  16.748  13.060
40186W        W 8527  44.762  36.850   3.741
40187W        W 8528  17.640  27.473  11.599
40188W        W 8529  32.458  12.217   0.876
40189W        W 8530  13.283   2.720  14.340
40190W        W 8531  30.481  31.566  13.336
40191W        W 8532   8.752  22.231   0.906
40192W        W 8533  26.507  29.548  14.488
40193W        W 8534  30.027  42.902  12.491
40194W        W 8535  39.829  19.761   2.215
40195W        W 8536  16.768   4.802  13.060
40196W        W 8537  11.284  13.645   4.284
40197W        W 8538  20.153   0.424  14.312
40198W        W 8539  27.503  34.879  13.971
40199W        W 8540   9.318   7.228  11.855
40200W        W 8541   6.753  21.094   4.778
40201W        W 8542   5.796  20.758  14.938
40202W        W 8543  17.620  33.960  11.932
40203W        W 8544   3.320   7.273   2.411
40204W        W 8545  11.338  12.722  10.418
40205W        W 8546  34.525  18.668   3.272
40206W        W 8547  36.584  30.917  10.542
40207W        W 8548  32.966   3.364  10.520
40208W        W 8549  39.412  31.023   1.914
40209W        W 8550   6.324  33.507  10.026
40210W        W 8551  20.270  34.384  13.335
40211W        W 8552   3.242  18.724  14.430
40212W        W 8553  31.598  38.531  12.828
40213W        W 8554  37.487  15.258   2.812
40214W        W 8555  13.336  11.181  10.054
40215W        W 8556  24.495  18.269  11.550
40216W        W 8557  43.418  42.914   2.232
40217W        W 8558  40.886  18.595   3.632
40218W        W 8559  41.510  25.609  11.513
40219W        W 8560   1.744  24.485   2.252
40220W        W 8561  34.463  42.286   1.848
40221W        W 8562   4.226  34.419  12.916
40222W        W 8563  11.302  31.137  14.771
40223W        W 8564  17.126  31.569   0.844
40224W        W 8565  17.212  28.179  11.914
40225W        W 8566  35.374  26.126   3.855
40226W        W 8567  28.064   3.280   1.378
40227W        W 8568  22.212   4.397   0.810
40228W        W 8569  32.626   1.826   5.159
40229W        W 8570  43.427  41.489   2.829
40230W        W 8571  43.966  32.918  14.763
40231W        W 8572   9.784  43.315   0.481
40232W        W 8573  29.439   0.461   3.240
40233W        W 8574   6.851   6.878   1.845
40234W        W 8575  36.979  20.093   1.773
40235W        W 8576  18.628  24.625   1.297
40236W        W 8577  37.847  40.407  11.441
40237W        W 8578   6.907  36.486  14.807
40238W        W 8579  30.538  34.411   2.811
40239W        W 8580   6.703  32.139   0.900
40240W        W 8581   0.449  18.599  11.583
40241W        W 8582   4.787  15.824  13.932
40242W        W 8583   3.721   3.913  12.563
40243W        W 8584  17.602  44.315  14.303
40244W        W 8585  26.104  33.101   1.869
40245W        W 8586   9.790  12.345  11.890
40246W        W 8587   0.927  37.066  13.997
40247W        W 8588  12.613  35.389  14.282
40248W        W 8589  22.110  26.168   2.668
40249W        W 8590  28.184  24.070   0.747
40250W        W 8591  44.931  22.638   1.704
40251W        W 8592   7.234   8.280  12.036
40252W        W 8593   7.685  11.345  10.546
40253W        W 8594  10.169  24.978   4.776
40254W        W 8595  44.956  21.731  12.988
40255W        W 8596   3.851   1.769   0.459
40256W        W 8597  27.605  34.067   3.844
40257W        W 8598  26.953  36.516   2.799
40258W        W 8599  10.170   5.882   0.818
40259W        W 8600   6.361  26.590  14.397
40260W        W 8601  15.665   8.396  10.508
40261W        W 8602   8.215  14.130  11.588
40262W        W 8603  21.113  36.950   4.773
40263W        W 8604  13.698  31.424   0.753
40264W        W 8605  42.473  38.857   2.339
40265W        W 8606  32.911   1.898  11.403
40266W        W 8607   4.221  23.594  13.908
40267W        W 8608  28.480  34.507  14.469
40268W        W 8609  43.820  10.775  13.484
40269W        W 8610  15.200   4.415   3.254
40270W        W 8611  43.772  22.013   3.219
40271W        W 8612  27.163  43.912  12.012
40272W        W 8613  11.765  23.657   0.737
40273W        W 8614  10.296  13.165   3.183
40274W        W 8615   8.400   4.418  14.324
40275W        W 8616  13.334  19.635  13.829
40276W        W 8617  13.340   7.705  13.015
40277W        W 8618  26.061  25.037  11.033
40278W        W 8619  41.327   5.901  12.571
40279W        W 8620   0.856  28.074  13.912
40280W        W 8621  36.893  29.614   4.137
40281W        W 8622  44.763   8.282   4.754
40282W        W 8623  36.524  25.037   0.929
40283W        W 8624  21.066  39.006  13.993
40284W        W 8625  24.495  17.123  10.979
40285W        W 8626  39.040  19.109   1.211
40286W        W 8627  14.812  29.087   1.235
40287W        W 8628   0.824  43.478  11.470
40288W        W 8629  11.215   4.430  11.104
40289W        W 8630   5.350  32.981   2.778
40290W        W 8631  25.482  18.749   2.726
40291W        W 8632  29.452  16.146   4.319
40292W        W 8633   2.720  25.486  10.445
40293W        W 8634  15.120  39.529  14.951
40294W        W 8635  19.205  31.510   2.695
40295W        W 8636  33.610  26.174   2.791
40296W        W 8637  44.500  28.174  13.031
40297W        W 8638   9.286  32.126  12.955
40298W        W 8639   2.230   9.791   2.238
40299W        W 8640  11.736  41.349  14.956
40300W        W 8641  31.474   0.794   1.825
40301W        W 8642  32.493  19.239  11.555
40302W        W 8643  15.150  22.516  14.017
40303W        W 8644  14.620   2.911   4.835
40304W        W 8645  23.697   4.228   3.324
40305W        W 8646   0.922   3.825  14.844
40306W        W 8647  35.562   9.717  11.877
40307W        W 8648  31.433  30.650  11.011
40308W        W 8649   0.888  14.732  12.577
40309W        W 8650  35.506  20.739   4.352
40310W        W 8651   6.249  30.657  12.505
40311W        W 8652  29.040  15.125  13.937
40312W        W 8653  33.047  35.389   3.319
40313W        W 8654   6.323  28.075   4.725
40314W        W 8655  23.612  14.651  11.468
40315W        W 8656  30.629  24.230   2.876
40316W        W 8657  12.280  29.926   2.397
40317W        W 8658  24.997  38.423  11.581
40318W        W 8659  11.835  11.251   4.833
40319W        W 8660   0.821  28.666   2.381
40320W        W 8661  15.802  40.516   2.790
40321W        W 8662  38.996  38.351   3.696
40322W        W 8663  16.613  24.683   0.265
40323W        W 8664  11.133  12.808   9.530
40324W        W 8665  19.144   9.869   3.378
40325W        W 8666  18.786  10.327   1.333
40326W        W 8667  37.529  43.494  11.013
40327W        W 8668  30.444  27.475   2.842
40328W        W 8669  10.351  12.829   1.834
40329W        W 8670  12.304   1.288  13.855
40330W        W 8671  27.144  30.635  11.429
40331W        W 8672  16.589   3.864   2.755
40332W        W 8673   9.697  29.015   3.230
40333W        W 8674  33.601  32.608  10.920
40334W        W 8675  27.178  13.150   2.337
40335W        W 8676   6.254  21.110  11.899
40336W        W 8677  31.492  25.608   3.263
40337W        W 8678  10.654  40.534  14.387
40338W        W 8679  36.504   2.417   0.917
40339W        W 8680  38.907  11.213   4.132
40340W        W 8681  24.040  16.204   0.875
40341W        W 8682   6.867  31.945  12.892
40342W        W 8683   6.208  23.522   4.142
40343W        W 8684  12.190  29.614  13.469
40344W        W 8685  41.993   2.303   2.337
40345W        W 8686  17.792  24.588   4.255
40346W        W 8687  40.989  20.164   0.804
40347W        W 8688  34.375  40.817   1.866
40348W        W 8689  19.138   3.342   0.483
40349W        W 8690   9.847   7.872  14.407
40350W        W 8691  33.553  25.976   0.305
40351W        W 8692  18.781  34.590  13.030
40352W        W 8693  13.343  40.931  10.015
40353W        W 8694  35.365   8.289   4.632
40354W        W 8695  26.573  11.276  13.514
40355W        W 8696  40.323  19.648   2.284
40356W        W 8697  21.724  20.579   1.232
40357W        W 8698  32.421  43.306   1.410
40358W        W 8699   9.695  31.577   3.248
40359W        W 8700  44.495  11.362   4.689
40360W        W 8701  28.444  30.971  14.871
40361W        W 8702   5.346  11.822  10.594
40362W        W 8703  31.040   8.195   4.772
40363W        W 8704  18.217  43.950  13.901
40364W        W 8705  26.472  40.517  10.470
40365W        W 8706  31.647  37.912   0.771
40366W        W 8707   5.867  26.646  10.900
40367W        W 8708  25.671   5.216   3.345
40368W        W 8709  14.174   4.733   2.247
40369W        W 8710  34.394  28.653   3.669
40370W        W 8711  20.156  42.987   5.127
40371W        W 8712  18.130   2.423  14.300
40372W        W 8713  14.299  28.566   4.768
40373W        W 8714  44.881  36.949   4.207
40374W        W 8715   1.917  22.162  10.560
40375W        W 8716  36.470   6.317  11.082
40376W        W 8717  28.523  42.519   3.299
40377W        W 8718  12.763   3.365   1.259
40378W        W 8719  21.259   8.274   1.326
40379W        W 8720  34.941   1.321  13.500
40380W        W 8721  20.662  13.780   0.901
40381W        W 8722   8.324  16.078   0.930
40382W        W 8723  41.429  38.074   2.215
40383W        W 8724  22.717  43.301   3.309
40384W        W 8725  28.434  13.712   1.793
40385W        W 8726   8.702   7.750   5.114
40386W        W 8727   0.757  29.609   0.907
40387W        W 8728   6.376  33.574   0.905
40388W        W 8729  42.304  39.991  10.429
40389W        W 8730  10.859  42.909  14.790
40390W        W 8731  21.603   1.879   3.670
40391W        W 8732  34.382  41.449  10.603
40392W        W 8733   4.874  32.892  14.421
40393W        W 8734  34.866  39.555   0.403
40394W        W 8735   1.389   3.329  11.878
40395W        W 8736  16.255  28.172   2.840
40396W        W 8737  36.530  15.717   2.887
40397W        W 8738   3.428   2.370   3.344
40398W        W 8739  15.606  18.767  13.916
40399W        W 8740   6.384  10.254  12.570
40400W        W 8741  24.665  29.942  12.529
40401W        W 8742  38.437  39.555  11.076
40402W        W 8743  19.246  29.174   2.209
40403W        W 8744  14.815   2.279  10.485
40404W        W 8745  12.281   5.869  14.312
40405W        W 8746  28.600  11.708  10.996
40406W        W 8747  11.268   7.337   3.375
40407W        W 8748  10.822  29.932  10.977
40408W        W 8749   7.834   1.317  12.999
40409W        W 8750  20.594  17.174   2.230
40410W        W 8751  22.086  40.925  14.911
40411W        W 8752  16.120  13.205  11.477
40412W        W 8753  33.553  16.142   0.806
40413W        W 8754  12.286   0.774   4.120
40414W        W 8755   5.268  25.218   4.732
40415W        W 8756  31.452  16.696   1.277
40416W        W 8757  21.212  40.456   3.235
40417W        W 8758   9.275  10.786  11.109
40418W        W 8759  37.853   3.750   4.712
40419W        W 8760  28.138  21.527   1.700
40420W        W 8761  29.071  30.022  12.543
40421W        W 8762  33.480   5.806   1.416
40422W        W 8763  33.999  40.016  10.966
40423W        W 8764   8.882  42.462   4.313
40424W        W 8765   1.437  39.016  14.320
40425W        W 8766  33.005  17.193   3.830
40426W        W 8767  23.590   6.353  13.940
40427W        W 8768  38.998  22.251  13.916
40428W        W 8769  27.063  15.771   0.908
40429W        W 8770   2.962  41.378  13.902
40430W        W 8771  33.552  23.620  12.566
40431W        W 8772  20.129  17.199  14.801
40432W        W 8773  42.499  19.552   3.649
40433W        W 8774  24.615  33.594  14.852
40434W        W 8775  27.617  10.865   2.407
40435W        W 8776  15.096   8.807  14.008
40436W        W 8777  39.475  17.734  14.798
40437W        W 8778  30.979  35.362  12.382
40438W        W 8779  33.949  42.017  12.829
40439W        W 8780   3.830   1.309   0.956
40440W        W 8781  24.127  44.953   0.848
40441W        W 8782   3.827  28.947  12.865
40442W        W 8783  12.295  20.149  11.955
40443W        W 8784  38.854   7.275   0.777
40444W        W 8785  25.073  12.299  11.055
40445W        W 8786  15.312  35.572  11.415
40446W        W 8787  35.058  39.923   2.864
40447W        W 8788   6.404  34.877   5.170
40448W        W 8789  35.862  30.156   0.438
40449W        W 8790  31.555   7.789   0.288
40450W        W 8791  12.158  33.577  11.442
40451W        W 8792   0.751   6.919   0.848
40452W        W 8793   7.887  35.067  13.882
40453W        W 8794  11.860  29.510   9.950
40454W        W 8795  39.016   9.165   4.752
40455W        W 8796  20.128   7.773   0.437
40456W        W 8797  37.060  36.504   2.726
40457W        W 8798  19.547  15.140  12.993
40458W        W 8799  43.442  18.629   5.762
40459W        W 8800  37.570  12.230   3.729
40460W        W 8801   8.685  26.031  10.622
40461W        W 8802   0.347   1.454   0.806
40462W        W 8803   2.461  34.985   0.789
40463W        W 8804   2.892  42.829  14.464
40464W        W 8805  32.069  15.611   4.311
40465W        W 8806   3.720  35.581  14.511
40466W        W 8807  20.714  34.568   0.859
40467W        W 8808   1.961  33.058  13.949
40468W        W 8809   7.876  29.117   1.749
40469W        W 8810  41.425   7.391   0.326
40470W        W 8811  34.503  21.203  12.876
40471W        W 8812  20.262  23.565   0.395
40472W        W 8813  21.744  36.484   0.247
40473W        W 8814   8.866   6.361  14.841
40474W        W 8815  37.550  25.087  12.464
40475W        W 8816   3.296  26.658  12.383
40476W        W 8817  30.587  29.670   2.200
40477W        W 8818  34.500  22.034  11.410
40478W        W 8819  20.258  34.490  10.477
40479W        W 8820  18.687  38.920   3.849
40480W        W 8821  15.723  22.223  10.160
40481W        W 8822  13.139  39.039  12.563
40482W        W 8823  13.268  35.475  14.007
40483W        W 8824  15.761  26.113  11.406
40484W        W 8825  17.695   9.202  11.894
40485W        W 8826  29.610  34.883   1.443
40486W        W 8827   6.193  29.438  14.892
40487W        W 8828  26.643  13.316   0.444
40488W        W 8829   5.335  11.268   3.709
40489W        W 8830  15.143  30.977  13.465
40490W        W 8831   8.175  21.262  14.812
40491W        W 8832  27.018  26.583   2.804
40492W        W 8833  30.478  33.490  13.349
40493W        W 8834  17.641  13.109  12.843
40494W        W 8835   7.894  26.692   0.294
40495W        W 8836  33.612  42.889  14.823
40496W        W 8837  38.925  37.512  12.341
40497W        W 8838  10.307  44.851  11.419
40498W        W 8839  31.635   1.791   4.209
40499W        W 8840   3.744  22.068   4.715
40500W        W 8841  40.473   4.942   2.390
40501W        W 8842  16.760  35.942   4.160
40502W        W 8843  39.932  18.553   4.638
40503W        W 8844  24.054   5.812  10.463
40504W        W 8845  35.406  35.952   0.262
40505W        W 8846  25.067  40.038  12.069
40506W        W 8847  10.295  44.828   2.835
40507W        W 8848   0.742  44.312   0.857
40508W        W 8849   3.324  25.219   1.913
40509W        W 8850  35.424  10.761  12.526
40510W        W 8851  33.390  14.825  14.282
40511W        W 8852  44.311   2.380  11.581
40512W        W 8853   0.414  12.116   1.767
40513W        W 8854  40.019  15.731  14.327
40514W        W 8855  25.482  43.864   3.636
40515W        W 8856  41.823  35.549   4.300
40516W        W 8857  33.512  13.826   3.153
40517W        W 8858  33.393  33.428  10.638
40518W        W 8859   7.376  22.562   2.798
40519W        W 8860  27.531  36.937  11.914
40520W        W 8861  41.036  35.381  13.865
40521W        W 8862  24.015   5.920   4.191
40522W        W 8863  25.074   9.726  13.421
40523W        W 8864  44.266   2.299   4.784
40524W        W 8865   8.740  14.753  13.034
40525W        W 8866  41.294  32.434   2.771
40526W        W 8867  10.243  19.608  14.763
40527W        W 8868  30.498   9.717  12.923
40528W        W 8869  16.147  37.547   3.289
40529W        W 8870  28.062  19.226   2.199
40530W        W 8871  41.367  19.188  13.032
40531W        W 8872  21.584   5.927  10.621
40532W        W 8873  40.482  40.390  11.875
40533W        W 8874  41.831  16.253   1.841
40534W        W 8875  29.124  11.698   3.794
40535W        W 8876   9.862  32.059  14.295
40536W        W 8877   6.402   5.896  11.921
40537W        W 8878  10.228  30.945  14.943
40538W        W 8879  40.544  44.466  13.015
40539W        W 8880  29.475   5.711   4.675
40540W        W 8881  10.672  19.660   1.397
40541W        W 8882   8.806   8.820  13.968
40542W        W 8883  44.391  36.458   0.469
40543W        W 8884  43.383  21.652   2.203
40544W        W 8885  37.497   5.748  10.601
40545W        W 8886   9.837   7.186  12.994
40546W        W 8887  38.516  22.096   2.882
40547W        W 8888   3.271  20.193  10.905
40548W        W 8889   4.782  39.353   4.316
40549W        W 8890  28.978  38.901  13.523
40550W        W 8891   0.337  13.723  12.895
40551W        W 8892  27.615  13.285   2.212
40552W        W 8893  29.525   8.404  11.988
40553W        W 8894  10.685  28.591   1.713
40554W        W 8895  27.009  32.520   2.419
40555W        W 8896   8.790  25.648   1.280
40556W        W 8897  39.458  22.054   1.728
40557W        W 8898  37.464  24.626   4.144
40558W        W 8899  40.318  10.712   2.760
40559W        W 8900  23.592  17.741   0.841
40560W        W 8901   2.941  36.922  13.308
40561W        W 8902  27.551  22.570  14.416
40562W        W 8903   9.646  13.725   3.636
40563W        W 8904  41.386  15.822  14.430
40564W        W 8905   3.791  42.326   2.801
40565W        W 8906  37.853  37.488   5.177
40566W        W 8907  18.606  15.670  10.458
40567W        W 8908  36.027  29.554  11.035
40568W        W 8909  12.712  11.356   9.954
40569W        W 8910  33.076  20.075   1.288
40570W        W 8911  24.625  28.434   2.345
40571W        W 8912  15.725  43.001   2.752
40572W        W 8913  33.055  39.420  10.908
40573W        W 8914   1.780  34.890  11.537
40574W        W 8915  38.853   7.851  12.890
40575W        W 8916  36.911  41.791   2.328
40576W        W 8917  34.598  12.786   0.899
40577W        W 8918  40.373  42.953  14.979
40578W        W 8919  30.927   4.298  11.856
40579W        W 8920  39.825  44.465  14.381
40580W        W 8921  41.876  11.760  11.914
40581W        W 8922  23.035  35.580  11.098
40582W        W 8923  41.419  41.847   5.136
40583W        W 8924  16.317  37.848  12.926
40584W        W 8925   8.187   4.377   1.753
40585W        W 8926  32.001  40.482  14.833
40586W        W 8927  42.445  37.952  12.543
40587W        W 8928  32.405   9.369  13.446
40588W        W 8929  35.454  31.994  10.003
40589W        W 8930  40.311   6.262   1.877
40590W        W 8931  19.277  39.885   0.803
40591W        W 8932  11.774  29.922  14.914
40592W        W 8933  30.617  16.601   2.390
40593W        W 8934   3.246  41.886   3.291
40594W        W 8935  25.621  40.343  13.938
40595W        W 8936  35.539  25.614   2.866
40596W        W 8937   7.238  12.142   0.447
40597W        W 8938   2.406  25.684   4.816
40598W        W 8939   3.918  20.108   3.797
40599W        W 8940  34.488  24.492   1.883
40600W        W 8941  19.154  29.097  14.309
40601W        W 8942  12.644   8.796   1.717
40602W        W 8943  40.021  10.695   4.273
40603W        W 8944   8.659  34.381  11.085
40604W        W 8945  25.111   2.873  10.524
40605W        W 8946  26.063  30.980  12.839
40606W        W 8947  33.948  30.082  11.923
40607W        W 8948  34.008  16.589   1.722
40608W        W 8949  12.842  33.090   0.306
40609W        W 8950  34.391  15.092  13.030
40610W        W 8951  12.137   8.268  14.375
40611W        W 8952  27.490  17.242  13.952
40612W        W 8953  21.653  19.699  14.368
40613W        W 8954  21.197  27.097  11.375
40614W        W 8955  16.082  14.207  10.560
40615W        W 8956  29.450  11.638   1.385
40616W        W 8957  14.679  22.250   0.350
40617W        W 8958   0.984  33.984  14.392
40618W        W 8959  38.839  40.345  13.010
40619W        W 8960  10.255  24.633   4.829
40620W        W 8961   5.892  44.306   2.256
40621W        W 8962  30.115  31.612   3.228
40622W        W 8963  44.870  24.600   0.821
40623W        W 8964  31.901  21.675  12.935
40624W        W 8965  29.035  37.367  11.995
40625W        W 8966   6.795   4.939   0.735
40626W        W 8967  24.663  34.049  14.889
40627W        W 8968  13.267  34.577   5.259
40628W        W 8969   3.932  12.657  13.843
40629W        W 8970  31.906   4.372   2.732
40630W        W 8971  38.508  39.849  13.981
40631W        W 8972  35.866   3.885  11.095
40632W        W 8973  28.942   8.753   2.885
40633W        W 8974  11.710  27.099  14.294
40634W        W 8975  17.259  34.390  13.312
40635W        W 8976  13.784  35.366   4.728
40636W        W 8977  36.569  35.856   5.161
40637W        W 8978   1.252  10.852  11.041
40638W        W 8979  41.836  20.607  14.759
40639W        W 8980   8.384  19.157   4.760
40640W        W 8981  40.382  32.572  10.955
40641W        W 8982  13.691  24.581   2.283
40642W        W 8983  44.957  41.932   3.250
40643W        W 8984  11.208  21.633   4.688
40644W        W 8985  12.320  38.509   0.822
40645W        W 8986  23.103   2.779  12.460
40646W        W 8987  12.681  34.432  12.933
40647W        W 8988  34.992  17.689   0.894
40648W        W 8989  41.335  38.889   1.724
40649W        W 8990  39.352  18.212   3.724
40650W        W 8991  31.640  37.507   3.362
40651W        W 8992  15.740  12.183  11.119
40652W        W 8993   2.737  40.806   0.852
40653W        W 8994  41.035  33.550  12.421
40654W        W 8995  26.057   5.814  12.979
40655W        W 8996  15.772  18.791  12.876
40656W        W 8997  25.650  24.021   0.377
40657W        W 8998   4.419  27.680   4.638
40658W        W 8999  18.782  28.511  13.053
40659W        W 9000  34.036  31.119   4.292
40660W        W 9001  27.534   4.902   3.256
40661W        W 9002  34.094  16.805   4.246
40662W        W 9003  11.835  22.722   5.159
40663W        W 9004  24.629  30.424   4.325
40664W        W 9005  40.524  34.077   1.271
40665W        W 9006  39.465  21.674  11.052
40666W        W 9007  16.754  32.014  13.472
40667W        W 9008  33.073  42.021   4.691
40668W        W 9009   4.402  32.027   3.740
40669W        W 9010  27.049  23.115  10.442
40670W        W 9011  41.471  11.159   3.701
40671W        W 9012  29.174  16.570  13.831
40672W        W 9013  43.446   4.834   0.951
40673W        W 9014  23.554  20.543  14.937
40674W        W 9015  42.417  41.383   2.216
40675W        W 9016  22.178  35.563  14.339
40676W        W 9017   7.384  18.072   3.321
40677W        W 9018  12.236   6.887   3.859
40678W        W 9019  43.490  18.664   0.901
40679W        W 9020  31.581   8.703  14.372
40680W        W 9021  25.649  16.774  11.442
40681W        W 9022  27.195  15.648  11.437
40682W        W 9023   5.821  34.914   1.338
40683W        W 9024  40.474  23.616  12.460
40684W        W 9025  40.912  13.744  14.384
40685W        W 9026   1.972  21.710   1.384
40686W        W 9027  43.447  13.114  13.973
40687W        W 9028   9.745  21.524  12.033
40688W        W 9029  20.582  24.043  13.516
40689W        W 9030  27.581   6.703  11.460
40690W        W 9031   8.751  22.174   2.890
40691W        W 9032  29.172  38.382   1.746
40692W        W 9033   6.405   8.685  12.488
40693W        W 9034  22.120  35.043  10.641
40694W        W 9035  13.118  40.960  13.947
40695W        W 9036  41.536  43.794  12.860
40696W        W 9037  32.031  44.343   4.672
40697W        W 9038  18.269   2.935  10.551
40698W        W 9039  30.952  20.051  12.545
40699W        W 9040  35.508  37.568  14.954
40700W        W 9041  17.614  39.940   4.307
40701W        W 9042  16.692  25.971   3.842
40702W        W 9043   4.297  28.125   0.423
40703W        W 9044  41.306  10.652  11.015
40704W        W 9045  26.567  16.665   4.121
40705W        W 9046  39.449  38.376   1.359
40706W        W 9047  15.651  43.491   2.746
40707W        W 9048  28.019  36.430  12.992
40708W        W 9049   9.363  30.576   0.927
40709W        W 9050  28.504  29.159   1.319
40710W        W 9051  31.902  37.419   0.800
40711W        W 9052  10.337  40.347  13.309
40712W        W 9053  12.776   1.913  13.457
40713W        W 9054  40.977   5.729  14.302
40714W        W 9055  22.118  39.948  14.973
40715W        W 9056   6.337   5.761   3.707
40716W        W 9057  10.636  14.211  12.055
40717W        W 9058   7.175   8.269   2.831
40718W        W 9059   6.856   1.834  11.088
40719W        W 9060  40.960  25.595  12.339
40720W        W 9061  37.939  36.988   0.255
40721W        W 9062  24.718  36.510  12.838
40722W        W 9063   4.939  27.174   4.637
40723W        W 9064  22.584  37.852  11.099
40724W        W 9065  18.240  19.651   4.245
40725W        W 9066  20.612  17.091   4.699
40726W        W 9067  43.951  42.890   3.778
40727W        W 9068  27.660  26.546   4.641
40728W        W 9069   6.800  19.207  11.383
40729W        W 9070  35.070  37.526   1.422
40730W        W 9071  24.525   4.786   1.231
40731W        W 9072   4.924  26.101  13.996
40732W        W 9073  15.296  37.880  13.987
40733W        W 9074   5.801  44.924  14.364
40734W        W 9075  11.347  16.305   2.291
40735W        W 9076  21.686  21.180  14.312
40736W        W 9077  12.658  37.880  10.468
40737W        W 9078  43.885  41.932   3.218
40738W        W 9079  29.435   9.379   2.759
40739W        W 9080  44.983  19.267   9.520
40740W        W 9081  15.086   2.902   3.659
40741W        W 9082  17.649   7.365   2.794
40742W        W 9083  26.953  33.544   1.715
40743W        W 9084  43.458  21.597  14.786
40744W        W 9085   9.166  40.411   3.747
40745W        W 9086  19.713   1.348  12.423
40746W        W 9087  31.029  20.212   1.381
40747W        W 9088  24.167  25.584  13.494
40748W        W 9089  34.474  32.559   3.671
40749W        W 9090  25.080  33.419   2.267
40750W        W 9091  44.897  31.136   3.834
40751W        W 9092   7.292  28.035   2.715
40752W        W 9093   4.933  19.200   3.686
40753W        W 9094  13.277  31.992   1.301
40754W        W 9095  17.107  34.889   3.383
40755W        W 9096  30.964  12.143   1.340
40756W        W 9097  26.073  43.477  14.491
40757W        W 9098  30.519  39.335  11.597
40758W        W 9099  41.350  41.513   5.300
40759W        W 9100   7.187  22.217   1.814
40760W        W 9101  36.884  30.031  13.322
40761W        W 9102  13.682  38.434  11.114
40762W        W 9103  36.584   9.160   3.299
40763W        W 9104  21.593  41.975  14.397
40764W        W 9105  23.622  39.490   4.810
40765W        W 9106   3.798  17.149   2.400
40766W        W 9107   0.491   4.436  13.324
40767W        W 9108  36.506   9.221   4.635
40768W        W 9109  44.435  17.263  12.367
40769W        W 9110  14.254  41.350  11.576
40770W        W 9111  11.194  26.680  13.326
40771W        W 9112  30.953  27.962   1.213
40772W        W 9113  16.611  38.508  14.768
40773W        W 9114  20.668  14.179   4.305
40774W        W 9115   2.772  20.139   5.148
40775W        W 9116  29.441  20.546  13.853
40776W        W 9117  14.118   0.252   2.795
40777W        W 9118  21.666   6.368  12.493
40778W        W 9119  39.827  43.417   3.844
40779W        W 9120  29.533   9.168  12.003
40780W        W 9121  38.364   3.884   0.402
40781W        W 9122   0.903  25.984   2.752
40782W        W 9123  15.622  22.549   2.698
40783W        W 9124  19.196  35.585  11.454
40784W        W 9125  20.741   1.890  14.956
40785W        W 9126  11.698  17.656  10.574
40786W        W 9127  15.097  21.642   5.720
40787W        W 9128  41.377  13.719  13.502
40788W        W 9129  29.583  41.820   1.930
40789W        W 9130   9.757  16.628  12.980
40790W        W 9131  23.225   9.848   0.268
40791W        W 9132  35.497   5.730  11.885
40792W        W 9133   7.252   4.245   3.387
40793W        W 9134  16.650  42.475  12.436
40794W        W 9135  40.346  40.995   4.639
40795W        W 9136  40.808  26.209  14.911
40796W        W 9137  34.097  10.775   4.750
40797W        W 9138   5.785  41.441  13.337
40798W        W 9139  41.001  15.740  14.286
40799W        W 9140   3.358  30.129  12.484
40800W        W 9141  24.515  31.470  10.551
40801W        W 9142  13.159  21.107   4.687
40802W        W 9143  39.539  17.571   4.257
40803W        W 9144  43.316   0.971  11.961
40804W        W 9145   7.191  31.094   1.869
40805W        W 9146  15.650  35.441   5.281
40806W        W 9147  41.330  11.646  11.584
40807W        W 9148  26.492  31.104  13.036
40808W        W 9149   9.313  28.986  12.094
40809W        W 9150  24.484  13.689  10.986
40810W        W 9151  25.062  20.036  11.425
40811W        W 9152   8.336  21.565   4.327
40812W        W 9153   1.400  30.991   0.758
40813W        W 9154  27.137  16.802   3.801
40814W        W 9155  40.897  25.075   1.719
40815W        W 9156  38.827  23.126  14.019
40816W        W 9157  38.519  21.033   2.890
40817W        W 9158  27.048  24.213   0.927
40818W        W 9159  23.194  28.545   3.300
40819W        W 9160  44.862  15.327  14.779
40820W        W 9161   0.323  32.411  10.627
40821W        W 9162  30.578  23.193   3.187
40822W        W 9163  41.456   4.804  10.424
40823W        W 9164  34.957   3.311   2.694
40824W        W 9165  29.095  34.580  11.405
40825W        W 9166  24.525  22.513  11.083
40826W        W 9167   1.368  43.981   1.423
40827W        W 9168  38.838  42.883  14.969
40828W        W 9169  21.056  32.135  11.011
40829W        W 9170   5.228  27.463   4.177
40830W        W 9171   3.362  28.989  12.046
40831W        W 9172  10.284  14.326  11.429
40832W        W 9173  22.112  38.932   2.226
40833W        W 9174  28.484   3.825  14.890
40834W        W 9175  33.380  11.813  14.323
40835W        W 9176  34.495   9.345   2.410
40836W        W 9177  38.022  42.938  13.857
40837W        W 9178  12.351   0.804  12.968
40838W        W 9179  20.052  16.588  14.881
40839W        W 9180   9.327  31.612  11.433
40840W        W 9181  11.736  29.140   4.132
40841W        W 9182  39.904  30.028  14.867
40842W        W 9183  23.200  32.086   2.293
40843W        W 9184  25.035  23.711  11.456
40844W        W 9185  20.037  15.644  13.324
40845W        W 9186   2.284  32.954   4.332
40846W        W 9187  38.442  29.147  14.366
40847W        W 9188   9.208   3.280   2.741
40848W        W 9189  38.882  24.006  12.488
40849W        W 9190  18.784  22.662   3.645
40850W        W 9191  15.122  19.239  12.992
40851W        W 9192  20.556   6.845  11.078
40852W        W 9193   3.312  10.762  10.504
40853W        W 9194  18.767  42.825   0.924
40854W        W 9195   3.415  19.189   2.888
40855W        W 9196  26.517  12.844  10.898
40856W        W 9197  35.555   4.295  14.486
40857W        W 9198  15.707   2.290   2.405
40858W        W 9199  39.461   3.942  11.533
40859W        W 9200  25.555  22.246  11.563
40860W        W 9201  10.158  41.318   2.354
40861W        W 9202   2.763  39.372   4.833
40862W        W 9203  44.276  18.122   9.484
40863W        W 9204  31.121  10.354   4.800
40864W        W 9205  28.518  38.503   3.179
40865W        W 9206  42.921  27.171  13.835
40866W        W 9207  18.749  13.843   4.783
40867W        W 9208  21.185   2.903   1.400
40868W        W 9209  41.462  12.642  12.369
40869W        W 9210  33.875  27.952  14.925
40870W        W 9211   7.360  28.978  13.352
40871W        W 9212   6.296  41.308  13.999
40872W        W 9213  21.669   4.366  14.382
40873W        W 9214  12.152  27.644  12.912
40874W        W 9215  42.778  10.670  14.935
40875W        W 9216  24.067   7.686  12.936
40876W        W 9217  10.246  43.445   0.330
40877W        W 9218   5.254  32.543   2.785
40878W        W 9219  14.225  33.623  14.282
40879W        W 9220  17.186  29.000  13.810
40880W        W 9221  22.600  27.112  10.624
40881W        W 9222  17.613  27.589  13.490
40882W        W 9223  21.049  26.151   0.965
40883W        W 9224  34.519   9.748  12.506
40884W        W 9225  13.665  24.625  13.898
40885W        W 9226  41.496   1.926   2.226
40886W        W 9227  28.144  28.462   3.343
40887W        W 9228  11.131  31.421  13.802
40888W        W 9229  35.375  10.237   0.354
40889W        W 9230   7.414   5.348   4.764
40890W        W 9231  42.291  35.497  12.366
40891W        W 9232   8.339  11.794  14.928
40892W        W 9233  33.419   7.764  14.849
40893W        W 9234  16.314  23.528   1.783
40894W        W 9235  26.478  25.980   5.164
40895W        W 9236  27.601  42.979   2.673
40896W        W 9237   4.209  17.289   2.720
40897W        W 9238  10.642  10.296   4.320
40898W        W 9239  12.642  41.416   3.205
40899W        W 9240  10.726  32.583  10.426
40900W        W 9241  31.489  22.625  13.064
40901W        W 9242  26.137  31.551   3.170
40902W        W 9243  25.688  15.815  14.881
40903W        W 9244  31.069  39.951   4.185
40904W        W 9245  38.449  44.996   0.938
40905W        W 9246   2.344  18.639   4.659
40906W        W 9247  33.606  27.043  12.997
40907W        W 9248  23.005  24.197   3.655
40908W        W 9249  44.453   7.809   5.081
40909W        W 9250  13.599  34.393  13.411
40910W        W 9251  42.320   3.257   4.600
40911W        W 9252  35.094   1.781  11.117
40912W        W 9253  42.410  43.440   0.348
40913W        W 9254  12.318  40.054   3.254
40914W        W 9255  28.097   2.333  14.332
40915W        W 9256   2.240  36.028   1.277
40916W        W 9257  36.523  30.471  11.604
40917W        W 9258  27.067  24.530   1.763
40918W        W 9259  37.977  42.791   3.197
40919W        W 9260  26.692   8.780  14.921
40920W        W 9261  31.408  34.017  12.430
40921W        W 9262  33.590  43.481  10.890
40922W        W 9263  16.243   2.228  11.529
40923W        W 9264   3.232  11.371  14.291
40924W        W 9265  14.720  13.301  10.425
40925W        W 9266  28.177  26.588  13.796
40926W        W 9267  40.004   9.164   4.765
40927W        W 9268  15.090   0.309   1.898
40928W        W 9269  11.830  38.013  12.391
40929W        W 9270   8.827  41.013   1.210
40930W        W 9271  10.200   5.436  11.371
40931W        W 9272  27.155  33.415   2.267
40932W        W 9273  43.333  34.026   1.846
40933W        W 9274   4.359   7.302   3.852
40934W        W 9275  26.043  37.897  13.990
40935W        W 9276  36.462  44.445   9.965
40936W        W 9277  38.824  28.035  12.470
40937W        W 9278  22.522   4.357  10.572
40938W        W 9279  40.415  25.116  13.868
40939W        W 9280  26.974  28.577   4.198
40940W        W 9281  34.995  25.611  12.402
40941W        W 9282   0.329  33.071  13.853
40942W        W 9283   5.893  20.159  10.510
40943W        W 9284   2.908   1.482  12.414
40944W        W 9285  22.189  13.252   2.313
40945W        W 9286  26.176  12.701  12.448
40946W        W 9287  38.565  42.447   5.773
40947W        W 9288  27.954  41.002  14.291
40948W        W 9289  20.201  44.842   4.253
40949W        W 9290  44.830  32.044   3.722
40950W        W 9291  38.833  23.689  11.406
40951W        W 9292   4.720  27.037   1.885
40952W        W 9293  22.241  43.280   0.391
40953W        W 9294   3.449  30.092  10.604
40954W        W 9295  34.483   8.217   1.749
40955W        W 9296  12.702  31.069   4.761
40956W        W 9297  38.336  14.622  13.320
40957W        W 9298  41.022  15.628   3.867
40958W        W 9299   3.816   6.233   3.735
40959W        W 9300  37.830  30.008   0.783
40960W        W 9301  33.564  38.426  13.348
40961W        W 9302   1.385   0.921  12.094
40962W        W 9303   9.393  36.945   2.411
40963W        W 9304  28.589  27.619   2.680
40964W        W 9305  42.931  10.639  13.978
40965W        W 9306  11.665  22.081   2.274
40966W        W 9307  31.547  40.944  10.474
40967W        W 9308  34.479  39.853  14.420
40968W        W 9309   5.226  21.184   4.741
40969W        W 9310  28.670  14.715  14.342
40970W        W 9311  40.430  23.518  13.806
40971W        W 9312  13.318  25.696   4.695
40972W        W 9313  37.497  35.545   4.795
40973W        W 9314   9.282  10.319   2.859
40974W        W 9315  11.701  27.511   0.946
40975W        W 9316   1.964  15.692   1.392
40976W        W 9317  44.412  25.196   3.204
40977W        W 9318  42.936  29.962   1.292
40978W        W 9319  23.610  31.574   2.314
40979W        W 9320  33.101  35.060   2.342
40980W        W 9321  29.952  33.535  14.975
40981W        W 9322   5.758  44.328   3.345
40982W        W 9323  17.240  10.278   5.197
40983W        W 9324  25.656  10.310   2.816
40984W        W 9325  38.894  34.019  11.054
40985W        W 9326  25.168  32.523   3.366
40986W        W 9327  28.580  23.702  11.100
40987W        W 9328  43.799  27.066  11.385
40988W        W 9329   7.211  37.455   3.269
40989W        W 9330  12.150  11.313  13.910
40990W        W 9331   1.425   3.782   4.828
40991W        W 9332  32.610   1.357   3.186
40992W        W 9333   4.934  43.805  10.416
40993W        W 9334  29.032  27.123  11.085
40994W        W 9335   3.284  44.429  12.400
40995W        W 9336   8.171  38.011  13.931
40996W        W 9337  22.216  21.715   3.812
40997W        W 9338  34.873  11.352  12.897
40998W        W 9339  14.812  43.387  13.866
40999W        W 9340   9.198  40.533   0.745
41000W        W 9341   9.660  27.482  12.984
41001W        W 9342  28.175  24.133  13.347
41002W        W 9343  15.190   5.420  14.006
41003W        W 9344  15.274  13.116  13.965
41004W        W 9345  28.995  40.807   0.376
41005W        W 9346  38.939  44.932   2.211
41006W        W 9347   4.221  22.660   1.230
41007W        W 9348   6.720  29.991  14.389
41008W        W 9349  42.014   6.379  14.938
41009W        W 9350  33.034  13.135  12.973
41010W        W 9351  38.851   9.189  10.987
41011W        W 9352   2.249  38.551   4.253
41012W        W 9353  39.861  34.474  14.977
41013W        W 9354  30.911  19.666  13.815
41014W        W 9355  26.462   5.742   2.222
41015W        W 9356  16.597  43.893  14.981
41016W        W 9357  21.232  10.365   4.761
41017W        W 9358  36.858  32.493  13.362
41018W        W 9359  21.666   0.401  14.892
41019W        W 9360   6.204  33.486  14.505
41020W        W 9361  13.829  38.954   5.256
41021W        W 9362   7.835  42.304   0.856
41022W        W 9363   1.820  40.851  13.454
41023W        W 9364  25.982  26.601   4.715
41024W        W 9365   8.305  43.505   0.764
41025W        W 9366  11.742  44.291  10.130
41026W        W 9367   2.349   9.222  12.940
41027W        W 9368   6.812   4.720  11.513
41028W        W 9369   6.867  10.653  11.915
41029W        W 9370   4.921  42.401   1.897
41030W        W 9371  14.129  24.511  14.464
41031W        W 9372  17.116  41.497  12.522
41032W        W 9373  41.398  23.706   3.341
41033W        W 9374  12.327  39.489  11.025
41034W        W 9375  24.575  36.581   3.164
41035W        W 9376  42.845  34.573  12.053
41036W        W 9377   7.816   4.853  12.085
41037W        W 9378  27.083  41.372   1.241
41038W        W 9379  36.061   1.734  11.504
41039W        W 9380  32.101  39.042   5.193
41040W        W 9381  42.424  30.654  14.404
41041W        W 9382  38.942  18.243  13.338
41042W        W 9383  29.112   6.730  11.436
41043W        W 9384  19.689  29.535  12.093
41044W        W 9385  36.030   2.778  11.392
41045W        W 9386  33.036  39.890   1.352
41046W        W 9387  20.134  18.093  13.030
41047W        W 9388  27.642   9.355  13.316
41048W        W 9389   8.896  31.077  13.049
41049W        W 9390   7.270  33.427  10.979
41050W        W 9391  22.124  15.746  14.824
41051W        W 9392  35.560  42.869  14.788
41052W        W 9393  30.477  11.359   2.368
41053W        W 9394  22.008  33.427   1.252
41054W        W 9395  13.218  38.556  11.573
41055W        W 9396  40.999  34.930   2.324
41056W        W 9397   3.358  25.049   0.276
41057W        W 9398  19.558  21.540   2.188
41058W        W 9399  14.300  18.092   3.812
41059W        W 9400  37.950  44.404  10.550
41060W        W 9401  21.215   1.846   4.717
41061W        W 9402  35.861   4.241   0.921
41062W        W 9403  25.503  15.659   1.805
41063W        W 9404  44.380  16.806  14.824
41064W        W 9405  13.685  29.614   3.350
41065W        W 9406  30.985  31.015  12.398
41066W        W 9407  21.229  23.683   1.701
41067W        W 9408  22.117  36.856  14.476
41068W        W 9409  12.305  26.007   3.845
41069W        W 9410   7.362  43.421   3.747
41070W        W 9411  13.774  20.584  12.385
41071W        W 9412  28.584  24.725  13.439
41072W        W 9413  42.357  20.203   4.275
41073W        W 9414  16.730  15.685  11.482
41074W        W 9415  18.666   5.842  14.873
41075W        W 9416  19.210  42.969  10.150
41076W        W 9417  10.666  44.364  13.350
41077W        W 9418   6.270  42.776   3.163
41078W        W 9419  24.611  22.737  14.442
41079W        W 9420  15.095  24.145  14.393
41080W        W 9421  19.641   5.849  11.909
41081W        W 9422   6.410  29.648   1.875
41082W        W 9423   2.337  19.095   0.796
41083W        W 9424  30.499  14.773  14.003
41084W        W 9425  34.931   9.212   2.203
41085W        W 9426   8.339  33.551   2.667
41086W        W 9427  42.437  12.279  12.438
41087W        W 9428  35.498  13.671   2.236
41088W        W 9429  42.971   4.762   4.676
41089W        W 9430  19.066   3.374   2.399
41090W        W 9431  44.393   9.245  12.400
41091W        W 9432   8.339  34.879   1.751
41092W        W 9433  14.237  12.258   0.790
41093W        W 9434  26.206  38.842  10.909
41094W        W 9435  10.277   5.330   4.612
41095W        W 9436  12.749  35.048   0.299
41096W        W 9437  11.370  15.131  13.315
41097W        W 9438  18.232  33.517   0.276
41098W        W 9439  25.657  16.168  12.503
41099W        W 9440  26.664  39.835   1.323
41100W        W 9441  10.763  19.064  12.017
41101W        W 9442  43.007  43.910  12.414
41102W        W 9443   8.707   3.947   4.722
41103W        W 9444  28.177   2.432  13.382
41104W        W 9445  36.466  20.102  13.794
41105W        W 9446   3.774  18.627  12.832
41106W        W 9447   4.769   0.848   1.756
41107W        W 9448  25.665  38.916  13.045
41108W        W 9449  23.593  18.161  11.890
41109W        W 9450  25.109   7.841   4.719
41110W        W 9451  38.900   0.265  11.864
41111W        W 9452  37.357  42.859  10.642
41112W        W 9453  39.436  14.648   3.258
41113W        W 9454  16.150  27.475   3.323
41114W        W 9455   1.763  37.395  13.882
41115W        W 9456  14.157  23.102  12.964
41116W        W 9457  37.917  12.224  12.054
41117W        W 9458  10.340  13.188   1.712
41118W        W 9459  38.382  35.590   1.304
41119W        W 9460  12.291  39.048   9.542
41120W        W 9461  27.075  42.425   0.321
41121W        W 9462  16.649  34.091   1.837
41122W        W 9463   6.411  11.275  10.500
41123W        W 9464  16.637   7.705   3.682
41124W        W 9465   6.904  10.860  14.310
41125W        W 9466  20.744  30.035   1.723
41126W        W 9467   6.802   9.340  12.497
41127W        W 9468   3.448  35.370  13.867
41128W        W 9469  22.693  10.328   0.401
41129W        W 9470  10.294  22.704   5.154
41130W        W 9471  17.628   0.299   3.713
41131W        W 9472  30.002  30.108   4.833
41132W        W 9473  18.548  37.941  12.892
41133W        W 9474  39.492  30.525  13.520
41134W        W 9475  28.158  23.004  14.826
41135W        W 9476   6.426  16.731  11.516
41136W        W 9477   4.343   1.898   1.866
41137W        W 9478  31.553  22.746   4.341
41138W        W 9479  23.579   6.912   0.818
41139W        W 9480   6.760   0.951   4.598
41140W        W 9481   3.380  17.735  12.512
41141W        W 9482  32.610  35.951   4.699
41142W        W 9483  25.042  39.320   0.795
41143W        W 9484  21.513  16.268  11.941
41144W        W 9485  27.471   8.836  14.294
41145W        W 9486  21.155  15.731  12.457
41146W        W 9487  40.459   7.342  14.845
41147W        W 9488   5.781   0.403  10.503
41148W        W 9489  36.479   0.444  12.087
41149W        W 9490  26.183  33.513   4.291
41150W        W 9491  32.912  21.109  10.502
41151W        W 9492  29.545  29.158  12.905
41152W        W 9493  38.888  11.237  10.441
41153W        W 9494  41.964  15.715  13.429
41154W        W 9495  16.588  38.365   3.700
41155W        W 9496  18.766  10.682   4.727
41156W        W 9497  26.643  43.918  10.519
41157W        W 9498  15.150  36.093   3.167
41158W        W 9499  43.398  34.967   0.292
41159W        W 9500  15.161  32.999  11.983
41160W        W 9501  44.425   8.243  10.994
41161W        W 9502  44.990   3.461   0.278
41162W        W 9503  13.197  33.007   2.274
41163W        W 9504  17.207  42.441  12.891
41164W        W 9505  32.636   0.315   1.439
41165W        W 9506  24.643  25.151  10.632
41166W        W 9507   6.889   6.321  10.424
41167W        W 9508  14.155  19.074  13.818
41168W        W 9509  42.934  42.523  14.374
41169W        W 9510   8.800  37.015   0.860
41170W        W 9511  43.788  40.381   2.729
41171W        W 9512  33.415  36.880   0.271
41172W        W 9513  19.136   4.217  14.012
41173W        W 9514  38.479  14.618   0.392
41174W        W 9515  28.125  37.073  14.770
41175W        W 9516  22.079   7.352  14.954
41176W        W 9517  13.166  35.050  13.386
41177W        W 9518  27.556  27.076  14.480
41178W        W 9519  43.928  24.163  10.473
41179W        W 9520  20.102  33.517   0.922
41180W        W 9521  33.528  25.605   3.656
41181W        W 9522  18.669  12.121  14.799
41182W        W 9523   3.720  42.800   3.811
41183W        W 9524  44.492   2.371  12.534
41184W        W 9525   3.724  34.552  10.491
41185W        W 9526   2.291  27.469  11.886
41186W        W 9527   5.844  37.013   0.334
41187W        W 9528  31.980   6.224  13.399
41188W        W 9529   8.170  39.535  12.059
41189W        W 9530   2.345  32.403  12.372
41190W        W 9531   3.335  26.691   1.214
41191W        W 9532  26.668  30.453   1.812
41192W        W 9533  43.396  32.637  10.544
41193W        W 9534  40.316  23.232   1.387
41194W        W 9535  34.449  14.812  10.636
41195W        W 9536   6.706  25.504   3.366
41196W        W 9537  40.494  35.481   2.294
41197W        W 9538  13.340   0.847   1.804
41198W        W 9539   9.706  35.459  14.358
41199W        W 9540  29.142  30.644   2.837
41200W        W 9541  16.087  25.187  12.363
41201W        W 9542  22.122  40.473   2.298
41202W        W 9543  17.560   4.866  13.014
41203W        W 9544   1.887  15.117   3.206
41204W        W 9545  44.811  27.448   2.682
41205W        W 9546  10.253  13.216  11.096
41206W        W 9547  30.655  11.342   0.311
41207W        W 9548  35.398   9.303   3.159
41208W        W 9549  17.230   4.387   2.845
41209W        W 9550   3.382  10.232   2.834
41210W        W 9551  42.808  22.190   1.372
41211W        W 9552  30.946   7.221  14.476
41212W        W 9553  41.954   1.937   1.818
41213W        W 9554  39.956  25.518  10.546
41214W        W 9555  39.342  18.265   3.312
41215W        W 9556  13.690  29.921   2.869
41216W        W 9557  19.618   6.839   0.267
41217W        W 9558  25.055  34.603  11.102
41218W        W 9559  44.899  18.747   0.364
41219W        W 9560   2.747  23.023   1.902
41220W        W 9561  11.708  34.534  12.868
41221W        W 9562   5.282  28.580  12.025
41222W        W 9563  31.995  32.593   0.344
41223W        W 9564  18.637  31.150   4.330
41224W        W 9565  40.530  38.960   2.670
41225W        W 9566  14.180  29.044  11.904
41226W        W 9567   7.870  26.132  13.515
41227W        W 9568  32.477  39.045  10.031
41228W        W 9569  40.841   5.427  13.381
41229W        W 9570  24.713  43.903   0.401
41230W        W 9571  10.722   3.766  12.462
41231W        W 9572   7.872  35.553  14.003
41232W        W 9573  29.078  10.379   4.671
41233W        W 9574  13.748  29.530  13.914
41234W        W 9575  42.868  15.098   3.869
41235W        W 9576  27.151  20.604  12.341
41236W        W 9577   1.926  38.409   4.288
41237W        W 9578   9.236   0.421   1.887
41238W        W 9579  11.321   9.659  13.961
41239W        W 9580  38.550  27.113  12.936
41240W        W 9581  37.419  29.171   0.388
41241W        W 9582  30.966  29.451   0.266
41242W        W 9583  19.583  11.205  14.311
41243W        W 9584  32.038  14.154   4.697
41244W        W 9585  31.461  18.685  13.928
41245W        W 9586  33.964   7.809  12.995
41246W        W 9587  32.097  12.213   0.937
41247W        W 9588  24.037  42.449   2.838
41248W        W 9589  27.666  33.530   3.283
41249W        W 9590  28.569   2.446   3.670
41250W        W 9591  38.524  38.506  13.014
41251W        W 9592  19.557  44.832  11.073
41252W        W 9593   8.840  42.440  13.360
41253W        W 9594  31.526  44.353  13.812
41254W        W 9595  13.789  33.473  12.051
41255W        W 9596  33.408  43.016  10.994
41256W        W 9597  19.093  41.382   1.852
41257W        W 9598  36.026   1.977   2.268
41258W        W 9599  26.959   1.271   2.889
41259W        W 9600  31.989  20.266  13.493
41260W        W 9601  40.402  17.738  14.472
41261W        W 9602   6.336   8.809  11.989
41262W        W 9603  27.554   0.903  13.037
41263W        W 9604  21.091  17.633   1.811
41264W        W 9605  15.161  13.665  11.427
41265W        W 9606   3.296   4.388   1.807
41266W        W 9607  40.824   2.749   1.442
41267W        W 9608  10.356  13.628  11.905
41268W        W 9609  28.114  25.599   0.363
41269W        W 9610  37.044  39.025   0.942
41270W        W 9611  17.151  10.175   0.255
41271W        W 9612   5.840  22.547  11.410
41272W        W 9613  35.395  10.250   2.860
41273W        W 9614  15.276   0.919  10.606
41274W        W 9615   7.865  32.886   4.816
41275W        W 9616  10.692  15.578   3.280
41276W        W 9617  20.139   6.732  13.514
41277W        W 9618  15.597  33.595  12.461
41278W        W 9619  33.509  20.203  13.311
41279W        W 9620  25.651  37.026   1.811
41280W        W 9621  28.563  38.899   1.240
41281W        W 9622   7.729  12.330  10.536
41282W        W 9623  21.116  18.698  13.881
41283W        W 9624  18.593  22.578  13.812
41284W        W 9625  24.205  26.155   2.324
41285W        W 9626  42.892  14.238  14.906
41286W        W 9627  32.892  34.467  13.414
41287W        W 9628  22.522  40.040   3.635
41288W        W 9629  39.485  43.959  10.026
41289W        W 9630  36.963  27.140   0.939
41290W        W 9631  39.330  30.422   3.733
41291W        W 9632  40.360  37.873   3.150
41292W        W 9633  10.165  26.202   0.429
41293W        W 9634  21.249  12.259   2.833
41294W        W 9635  23.719  34.913  11.935
41295W        W 9636   7.412  11.299   3.785
41296W        W 9637  23.499  32.617  12.407
41297W        W 9638  27.042  28.648   4.779
41298W        W 9639   0.850  22.099   3.848
41299W        W 9640  36.930   4.275   0.810
41300W        W 9641  40.394  32.047  10.604
41301W        W 9642   0.279  10.177   0.388
41302W        W 9643  38.874  11.715   5.321
41303W        W 9644  34.093  15.266  14.480
41304W        W 9645  43.339  19.268   0.436
41305W        W 9646  40.493  31.045  11.014
41306W        W 9647   7.202  17.593   4.276
41307W        W 9648  14.646   1.341  10.949
41308W        W 9649  19.218  36.424   0.298
41309W        W 9650  16.761  38.883  14.355
41310W        W 9651  43.914  39.931  13.055
41311W        W 9652  12.302  34.914  12.032
41312W        W 9653  40.312  21.046   2.757
41313W        W 9654   5.691  29.460  11.045
41314W        W 9655  29.581   5.846   3.373
41315W        W 9656  15.673   0.941  14.838
41316W        W 9657  20.690  40.912   1.883
41317W        W 9658  36.849  18.598  14.022
41318W        W 9659  24.670   7.377   3.802
41319W        W 9660  27.639  44.861  14.861
41320W        W 9661  24.720  40.960  12.495
41321W        W 9662   2.927  18.635   0.837
41322W        W 9663  30.042  38.555  11.503
41323W        W 9664  10.664   1.351  11.048
41324W        W 9665  17.187  28.934   0.423
41325W        W 9666  20.223   8.879  11.013
41326W        W 9667   7.781  36.587   1.302
41327W        W 9668  28.564  25.169  11.102
41328W        W 9669  17.225   2.306   0.906
41329W        W 9670  31.094  25.174  13.792
41330W        W 9671  23.556  39.860  13.385
41331W        W 9672   4.436   7.355   2.324
41332W        W 9673  37.066  32.565  11.884
41333W        W 9674  32.523   6.368   3.809
41334W        W 9675  41.787  12.646  13.983
41335W        W 9676   4.268  13.258   2.723
41336W        W 9677  26.197  35.060   2.870
41337W        W 9678  22.201  11.720   4.675
41338W        W 9679  10.169   7.896  14.307
41339W        W 9680  14.222  40.009  14.992
41340W        W 9681   5.742   5.197  10.614
41341W        W 9682  43.427  26.020   3.810
41342W        W 9683  24.979  27.556  10.626
41343W        W 9684   4.320  39.557   1.748
41344W        W 9685  20.721  34.384  13.873
41345W        W 9686  14.108  32.082   4.223
41346W        W 9687   6.910  11.633   3.685
41347W        W 9688  18.119  16.310   4.228
41348W        W 9689   8.769   2.770   2.289
41349W        W 9690  20.065   0.473  12.058
41350W        W 9691  23.580  38.912  13.458
41351W        W 9692  31.139  31.531  10.955
41352W        W 9693  10.669  25.539  10.498
41353W        W 9694  17.080  22.198  14.320
41354W        W 9695  22.131  10.267   1.302
41355W        W 9696  27.668  26.540  14.761
41356W        W 9697  41.436  27.988   2.338
41357W        W 9698  42.968   4.802   4.143
41358W        W 9699  14.635  11.133  14.492
41359W        W 9700  10.366  10.149  14.004
41360W        W 9701  39.472  27.087  13.028
41361W        W 9702  12.229  12.270   2.366
41362W        W 9703  15.771  22.707   4.727
41363W        W 9704  17.189  22.009  14.870
41364W        W 9705  38.914  33.533  14.812
41365W        W 9706  27.157  30.569   1.268
41366W        W 9707   3.266  43.390  11.430
41367W        W 9708  42.320  35.970   4.193
41368W        W 9709   7.185  20.116  13.327
41369W        W 9710  41.451  20.163  14.293
41370W        W 9711   7.285  14.663  14.768
41371W        W 9712   8.868  32.935   2.218
41372W        W 9713  32.454   1.908   4.191
41373W        W 9714  44.867  13.151   2.287
41374W        W 9715  42.936  23.057  10.954
41375W        W 9716  23.685  15.281   2.265
41376W        W 9717  18.575  15.233   2.769
41377W        W 9718  33.945  26.993  13.943
41378W        W 9719  34.369  25.627  11.922
41379W        W 9720  18.292  11.148  14.418
41380W        W 9721  23.607  19.048   5.169
41381W        W 9722  22.233  35.560   3.859
41382W        W 9723   6.385  26.976   4.246
41383W        W 9724  32.574  39.931   4.136
41384W        W 9725  16.644  23.107   4.160
41385W        W 9726   9.211   6.697   2.868
41386W        W 9727  14.694  18.107   1.272
41387W        W 9728  30.949  38.983  14.991
41388W        W 9729  26.540   6.327  12.372
41389W        W 9730  22.508   6.836  13.519
41390W        W 9731  27.630  31.060   0.259
41391W        W 9732  13.246  39.035   2.755
41392W        W 9733  23.622  24.166  10.929
41393W        W 9734  38.929  44.955   5.116
41394W        W 9735  30.968  34.537   3.647
41395W        W 9736  12.339  39.035  12.563
41396W        W 9737   1.810  20.240   2.395
41397W        W 9738  37.417  40.468   5.211
41398W        W 9739  16.688  21.234  12.831
41399W        W 9740  44.270   1.783  13.531
41400W        W 9741   0.770  43.283  10.535
41401W        W 9742  30.972  40.433   0.832
41402W        W 9743  35.396  20.623  12.912
41403W        W 9744   9.726   9.791   4.742
41404W        W 9745   3.454  34.018   3.765
41405W        W 9746   9.183  30.965  12.928
41406W        W 9747   7.769  44.299   1.832
41407W        W 9748  24.211  11.622  12.037
41408W        W 9749   3.317  27.180  12.840
41409W        W 9750  43.354  15.750   2.403
41410W        W 9751  40.797  27.997   3.862
41411W        W 9752   6.742  38.948   4.774
41412W        W 9753  17.592  21.067   3.277
41413W        W 9754  35.869  22.188   0.477
41414W        W 9755  44.991  10.219  10.057
41415W        W 9756  28.081  31.419   0.963
41416W        W 9757   7.244   8.828   5.129
41417W        W 9758   0.930   3.774   3.322
41418W        W 9759  38.054   5.353  11.098
41419W        W 9760  43.018  41.892   2.234
41420W        W 9761   8.287  36.546   1.814
41421W        W 9762  19.139  37.357  14.032
41422W        W 9763   8.232  40.836   1.928
41423W        W 9764  29.171  44.310   4.752
41424W        W 9765   6.307  41.792   2.704
41425W        W 9766   0.971   2.244  11.952
41426W        W 9767  14.769  18.728  12.400
41427W        W 9768  20.176  28.003   0.406
41428W        W 9769  21.036  17.568   2.404
41429W        W 9770   3.865   1.845   4.168
41430W        W 9771  44.394  30.940   3.349
41431W        W 9772  43.360   6.889  11.034
41432W        W 9773   5.871  15.304  10.474
41433W        W 9774  16.669  35.983   1.899
41434W        W 9775   5.899  28.122   2.183
41435W        W 9776   3.799  20.672  11.587
41436W        W 9777  27.475  27.575   4.745
41437W        W 9778   6.315   1.908   5.091
41438W        W 9779  35.020   7.205  10.951
41439W        W 9780  26.003   2.428   1.699
41440W        W 9781  11.693   0.845   3.663
41441W        W 9782  24.481  25.658   0.382
41442W        W 9783   9.701  43.455   4.119
41443W        W 9784  26.167  13.780  14.874
41444W        W 9785   4.219  18.134  10.106
41445W        W 9786  18.119  34.010   2.365
41446W        W 9787   7.754  20.639   2.760
41447W        W 9788   5.349  12.822   0.966
41448W        W 9789  21.603  13.682   1.823
41449W        W 9790   4.788   4.922   3.649
41450W        W 9791  12.763   0.433  12.838
41451W        W 9792   8.659   3.736  10.563
41452W        W 9793  19.676  40.500   3.702
41453W        W 9794  33.603  23.716   4.316
41454W        W 9795  20.530  36.010   3.214
41455W        W 9796  31.010  25.621  14.310
41456W        W 9797  15.591  11.241  14.821
41457W        W 9798  10.208  15.799  10.940
41458W        W 9799  39.329  21.518  11.904
41459W        W 9800   1.337  23.062   4.785
41460W        W 9801  40.435  10.694   4.669
41461W        W 9802   0.343  16.672   5.307
41462W        W 9803   2.404  29.462   0.816
41463W        W 9804  26.468  32.141   2.676
41464W        W 9805   9.801  20.743  11.476
41465W        W 9806   5.291   2.238   2.231
41466W        W 9807  37.503  10.695   2.303
41467W        W 9808  39.914   5.849   1.289
41468W        W 9809   1.411  27.551   0.416
41469W        W 9810  11.204  43.005   4.141
41470W        W 9811   8.182  32.926   1.741
41471W        W 9812  12.302  10.296   4.277
41472W        W 9813  34.899  14.135  13.447
41473W        W 9814  17.729  43.462   3.746
41474W        W 9815  36.486  10.353   3.688
41475W        W 9816  29.145   8.164  10.889
41476W        W 9817  16.287  30.082   1.428
41477W        W 9818  33.040  34.440  14.897
41478W        W 9819  19.206  16.576   1.398
41479W        W 9820  43.918   0.754  10.630
41480W        W 9821  44.001  41.537   1.257
41481W        W 9822   2.364   3.353  14.984
41482W        W 9823   5.348   6.253   1.721
41483W        W 9824  11.361  27.138  12.467
41484W        W 9825  11.185  27.610   1.425
41485W        W 9826   0.478  34.593  11.045
41486W        W 9827   0.915   3.304  13.461
41487W        W 9828   9.358  41.362   1.277
41488W        W 9829  42.496  40.885   4.287
41489W        W 9830  44.011   7.888  11.508
41490W        W 9831   9.806  32.895  12.465
41491W        W 9832  27.677  37.411  11.029
41492W        W 9833  32.558   9.249  14.417
41493W        W 9834   1.249  33.100   4.780
41494W        W 9835  21.526  22.545  15.000
41495W        W 9836   1.236  25.708   3.252
41496W        W 9837  16.698  24.716   4.348
41497W        W 9838  42.853   6.322   0.912
41498W        W 9839   4.359  13.832   0.919
41499W        W 9840  32.138  25.621  10.989
41500W        W 9841  12.630  23.036  12.936
41501W        W 9842   9.673  39.825   4.230
41502W        W 9843   3.284  30.042   3.385
41503W        W 9844   7.789  14.759   2.667
41504W        W 9845  41.015  43.773   2.190
41505W        W 9846   5.316   2.919   2.695
41506W        W 9847  12.789  44.793   1.770
41507W        W 9848  13.782   6.200  11.415
41508W        W 9849  25.526  18.270   1.872
41509W        W 9850  10.281  32.107  11.020
41510W        W 9851   8.381  32.634  12.010
41511W        W 9852  44.324  12.683   4.661
41512W        W 9853  21.735   8.798  13.473
41513W        W 9854  14.772  39.407   3.762
41514W        W 9855   1.478   5.885  10.987
41515W        W 9856  34.024  36.361  12.557
41516W        W 9857   1.346   7.217  11.392
41517W        W 9858   5.196  41.908  12.072
41518W        W 9859   9.343  13.677  13.348
41519W        W 9860   4.307   0.927   0.758
41520W        W 9861  39.381  25.195   0.367
41521W        W 9862  24.672  15.151  11.110
41522W        W 9863  41.894  27.639  11.392
41523W        W 9864  44.863  32.551   1.887
41524W        W 9865   9.873  30.130   0.802
41525W        W 9866  18.586  20.250  10.984
41526W        W 9867  15.272  33.046   9.991
41527W        W 9868  14.282  38.432  13.868
41528W        W 9869  11.219  27.653  13.421
41529W        W 9870  24.616  20.111  10.009
41530W        W 9871  28.152  12.270   1.264
41531W        W 9872  33.049  25.047   1.271
41532W        W 9873   8.352  37.069  10.541
41533W        W 9874  38.557  21.685  11.881
41534W        W 9875  38.841   0.812  11.570
41535W        W 9876  22.553  35.045  10.577
41536W        W 9877  32.635  22.153  10.417
41537W        W 9878   7.807  22.157  11.997
41538W        W 9879  40.506   4.438   2.345
41539W        W 9880   0.387  25.511  14.797
41540W        W 9881  15.162  10.311  12.971
41541W        W 9882  37.957  33.065  10.477
41542W        W 9883  27.453  14.209  14.506
41543W        W 9884  25.132  39.347  11.987
41544W        W 9885  21.108   0.250   1.355
41545W        W 9886   4.759  28.055   4.782
41546W        W 9887  40.313  30.473   0.905
41547W        W 9888   5.816   0.464  14.885
41548W        W 9889  40.456  29.945  14.384
41549W        W 9890   1.965  31.961   2.369
41550W        W 9891   1.472  35.966  12.554
41551W        W 9892   8.233  32.627  14.411
41552W        W 9893   7.773   7.791   0.308
41553W        W 9894  31.149  15.701  13.829
41554W        W 9895  25.142   3.440  13.325
41555W        W 9896  11.768  38.423   3.861
41556W        W 9897  14.171  21.099   2.829
41557W        W 9898   7.170  31.109  10.991
41558W        W 9899  40.540  30.617  11.891
41559W        W 9900   9.198  26.702   1.733
41560W        W 9901  17.695  17.691   3.176
41561W        W 9902  28.137  37.907  10.938
41562W        W 9903  43.404   1.412  14.479
41563W        W 9904  18.058  33.913  14.965
41564W        W 9905  27.559   4.266   3.170
41565W        W 9906  10.755   6.766   2.405
41566W        W 9907  15.663  40.543  11.509
41567W        W 9908  15.722  43.823  13.502
41568W        W 9909  13.282  24.620  14.326
41569W        W 9910  21.637  31.420   3.326
41570W        W 9911  33.478  36.443  13.890
41571W        W 9912   1.866  40.858   0.379
41572W        W 9913  33.914  43.997  13.034
41573W        W 9914  35.061  27.055  13.368
41574W        W 9915   0.799  20.677  14.454
41575W        W 9916  18.062  23.215   0.871
41576W        W 9917  15.650  43.790   2.218
41577W        W 9918  27.655  15.186  12.429
41578W        W 9919  18.290   2.772   1.322
41579W        W 9920  25.996  37.545  12.920
41580W        W 9921  25.198  44.997   3.713
41581W        W 9922  35.079   4.714   3.375
41582W        W 9923  32.504  33.591   3.685
41583W        W 9924  43.310   0.793  12.382
41584W        W 9925  37.345  37.472  10.645
41585W        W 9926  23.230  28.952  14.452
41586W        W 9927   6.810  30.625  10.483
41587W        W 9928   7.681  14.313   9.981
41588W        W 9929  27.179  32.104   4.756
41589W        W 9930  22.107  27.194  11.875
41590W        W 9931  10.829  26.191   4.323
41591W        W 9932   7.668   7.795  11.864
41592W        W 9933  38.970   3.943   4.698
41593W        W 9934  12.807  30.096   0.419
41594W        W 9935  22.015  26.184  14.400
41595W        W 9936  18.271  22.116   1.822
41596W        W 9937  32.411  42.389   0.450
41597W        W 9938   5.336   0.866   4.115
41598W        W 9939  23.198  29.665   3.270
41599W        W 9940  26.610  41.863   3.711
41600W        W 9941  34.541   6.392   2.408
41601W        W 9942  12.133  30.458  10.481
41602W        W 9943   5.830   9.658  14.829
41603W        W 9944  40.469   1.927  13.849
41604W        W 9945   3.225  11.716   1.903
41605W        W 9946  29.159   5.761  12.930
41606W        W 9947  34.085  11.639   0.861
41607W        W 9948  25.983  23.025  14.790
41608W        W 9949  10.251  15.193  10.439
41609W        W 9950  24.187  38.495   4.290
41610W        W 9951   5.778  33.571  11.080
41611W        W 9952  35.949  42.826  12.493
41612W        W 9953  31.957  32.117   3.713
41613W        W 9954  16.224   9.190   1.309
41614W        W 9955   5.433  11.771  14.431
41615W        W 9956  17.611  26.158   2.801
41616W        W 9957  38.565  41.383   0.803
41617W        W 9958  25.104  44.893  14.420
41618W        W 9959  43.947  41.892  14.901
41619W        W 9960  13.184  28.527  10.493
41620W        W 9961  34.944  39.901   1.399
41621W        W 9962  25.207  27.135   1.299
41622W        W 9963  39.895  20.733  13.057
41623W        W 9964   0.744  18.781   4.225
41624W        W 9965   5.383  13.647  12.864
41625W        W 9966  38.369  20.560   0.438
41626W        W 9967  12.271  10.868   9.954
41627W        W 9968  21.532  43.998  10.499
41628W        W 9969  20.734   3.720  14.880
41629W        W 9970   9.781  32.416   2.882
41630W        W 9971  36.033  29.457  12.497
41631W        W 9972   8.768  11.867  14.985
41632W        W 9973  31.513  21.644   1.899
41633W        W 9974  27.559  16.787  14.002
41634W        W 9975   6.856  44.771  13.533
41635W        W 9976  13.262  41.808  11.414
41636W        W 9977  40.030   2.876  10.455
41637W        W 9978  30.548  17.299  10.543
41638W        W 9979  19.536  39.499  13.964
41639W        W 9980  18.671  42.851  12.881
41640W        W 9981  31.495  17.793  11.584
41641W        W 9982  15.122  39.018  14.914
41642W        W 9983  18.777  14.643  11.009
41643W        W 9984  41.437  13.342   0.429
41644W        W 9985   1.901  41.869  11.082
41645W        W 9986   8.241  15.193  11.467
41646W        W 9987  32.113  19.607   4.598
41647W        W 9988   4.848   9.364   4.655
41648W        W 9989  39.816  31.629   1.431
41649W        W 9990  37.011   4.282  12.056
41650W        W 9991  13.213  11.345  14.869
41651W        W 9992  39.880  22.027  10.975
41652W        W 9993  25.142  11.753  11.029
41653W        W 9994  14.823   9.354  10.641
41654W        W 9995  38.025  18.615  11.039
41655W        W 9996  12.702  10.782   0.783
41656W        W 9997   6.337   0.946   1.419
41657W        W 9998  23.113  36.576   1.300
41658W        W 9999   4.744  41.424  12.860
41659W        W10000  33.120   0.417   2.200
41660W        W10001  23.160  18.218   0.909
41661W        W10002   5.774   2.841  13.390
41662W        W10003  34.503  19.541  13.811
41663W        W10004  34.099   9.359   4.332
41664W        W10005  26.106  42.466   1.407
41665W        W10006  43.979  32.052  10.445
41666W        W10007  36.915   2.867  10.922
41667W        W10008  12.326  30.938  11.936
41668W        W10009  21.737  42.802  14.794
41669W        W10010  19.750   6.375   3.632
41670W        W10011   1.751   6.321  10.543
41671W        W10012  32.995   8.380   0.825
41672W        W10013  13.778  16.608   3.687
41673W        W10014  44.994  21.074   5.273
41674W        W10015  29.122  43.339   4.203
41675W        W10016  22.027  28.961  11.123
41676W        W10017  12.746  33.966  13.813
41677W        W10018  38.854  22.702  13.882
41678W        W10019  41.012  38.466   4.113
41679W        W10020  15.271  32.957   2.372
41680W        W10021  19.159  38.921   3.156
41681W        W10022  23.690  39.421  10.570
41682W        W10023  13.292  27.133  11.040
41683W        W10024   6.894  16.248  13.009
41684W        W10025  33.008   4.934  12.358
41685W        W10026  39.482  40.307  10.627
41686W        W10027  12.250  43.509  14.966
41687W        W10028  27.026   6.390   4.135
41688W        W10029  29.990  17.737  12.894
41689W        W10030   5.392  24.628   3.235
41690W        W10031  24.164  15.091  10.921
41691W        W10032  22.540  22.162   4.116
41692W        W10033  30.545  26.540   0.396
41693W        W10034  19.150  19.598  12.996
41694W        W10035  41.801  23.568  11.001
41695W        W10036   5.835   9.648   3.822
41696W        W10037   8.746  21.617  13.359
41697W        W10038  15.273  41.041   3.867
41698W        W10039   9.870  23.523  14.025
41699W        W10040  18.701  38.854   5.119
41700W        W10041  19.681  44.368   5.185
41701W        W10042   1.298  39.047  13.035
41702W        W10043  24.988  12.842  14.887
41703W        W10044   7.384  35.550   3.830
41704W        W10045  11.804   6.187  10.644
41705W        W10046  30.141   0.316   3.375
41706W        W10047  14.727   2.283  12.069
41707W        W10048  32.118  37.511   5.150
41708W        W10049  11.158  12.681  13.922
41709W        W10050  21.188  15.685   2.289
41710W        W10051  24.674  39.387  11.881
41711W        W10052  24.181   2.929   0.316
41712W        W10053  44.451  12.247  14.947
41713W        W10054  25.030  42.902   0.786
41714W        W10055  18.264   0.354   2.419
41715W        W10056   8.337  29.141   1.421
41716W        W10057  38.395  17.797   2.879
41717W        W10058  39.946  40.971   5.206
41718W        W10059  33.428  21.653   0.743
41719W        W10060   5.806   8.195   3.798
41720W        W10061  35.369   6.396  12.366
41721W        W10062  12.847   7.320   4.166
41722W        W10063  34.056  41.349   3.672
41723W        W10064  25.083  14.608   0.437
41724W        W10065  22.505  34.102   2.364
41725W        W10066  33.610  37.342   2.688
41726W        W10067  14.823  40.915   2.198
41727W        W10068  25.682  25.567   3.281
41728W        W10069  22.586  30.048   1.432
41729W        W10070   5.934  39.409  14.334
41730W        W10071  16.241  13.238  11.884
41731W        W10072  40.539  39.836  10.490
41732W        W10073   4.419  10.159   1.339
41733W        W10074  27.074   4.416  13.500
41734W        W10075  32.930  18.679  12.964
41735W        W10076   9.373  11.685  12.524
41736W        W10077  24.489  37.428   0.784
41737W        W10078  26.043  37.019   3.788
41738W        W10079   2.740  24.601   4.743
41739W        W10080  11.238  15.701   3.354
41740W        W10081  31.153  26.659  14.359
41741W        W10082  10.218   3.272  10.116
41742W        W10083  32.471  23.694   0.819
41743W        W10084  37.426  42.515  10.925
41744W        W10085  24.196   7.854   2.877
41745W        W10086  30.525   5.271  13.020
41746W        W10087  10.685  27.130  14.370
41747W        W10088  39.509  22.192   0.915
41748W        W10089   0.474   3.283   0.882
41749W        W10090  13.801  31.431  12.090
41750W        W10091  10.727  28.062   2.295
41751W        W10092  38.043  13.663   0.297
41752W        W10093  40.488  12.725  13.978
41753W        W10094  32.020  20.166   3.353
41754W        W10095  40.879  41.793   4.780
41755W        W10096  10.869   5.769  11.523
41756W        W10097  21.523   1.952   2.339
41757W        W10098   6.745  34.575  12.039
41758W        W10099  37.060  25.022  14.459
41759W        W10100   7.375  23.544  11.608
41760W        W10101  19.138  18.549  14.439
41761W        W10102  27.613  23.004   2.214
41762W        W10103   8.202  15.303   1.279
41763W        W10104  17.114   4.886  13.360
41764W        W10105  10.150   5.728  11.543
41765W        W10106  38.350  40.361   3.838
41766W        W10107   6.317  25.485  11.066
41767W        W10108  33.075   1.293   4.351
41768W        W10109  36.001  10.779  10.572
41769W        W10110  28.023  31.100   9.985
41770W        W10111  26.205  27.482  14.787
41771W        W10112  26.502   4.784  11.106
41772W        W10113  17.645  15.698  11.012
41773W        W10114  14.158  11.198  13.818
41774W        W10115  15.220  32.563  12.394
41775W        W10116  36.378  13.207   1.444
41776W        W10117  14.096  29.034  13.503
41777W        W10118   3.224  29.969  12.096
41778W        W10119  30.423  17.140  11.438
41779W        W10120  17.282   5.205   3.660
41780W        W10121   3.713  38.560   3.746
41781W        W10122  26.026  42.337  14.883
41782W        W10123  40.872  40.898  11.405
41783W        W10124  32.600  41.824   0.395
41784W        W10125  24.493  33.120  12.470
41785W        W10126  18.292   5.208  12.472
41786W        W10127  39.353   2.874  14.463
41787W        W10128  41.313  44.883  10.449
41788W        W10129  44.843  28.554   0.944
41789W        W10130  33.385  17.632  13.309
41790W        W10131  23.666  41.519  12.004
41791W        W10132   0.751  33.036  11.608
41792W        W10133   5.806  42.293   2.369
41793W        W10134   1.460   6.754  12.408
41794W        W10135  22.238  25.534  12.401
41795W        W10136  24.496  16.799   9.568
41796W        W10137  43.439  42.445   0.795
41797W        W10138   9.775  29.053   4.788
41798W        W10139  15.195  38.010  11.996
41799W        W10140  35.555  22.214  14.997
41800W        W10141  12.763  43.512   1.822
41801W        W10142  16.182  15.136   4.795
41802W        W10143  44.307  17.140   4.253
41803W        W10144  19.590   9.831   4.226
41804W        W10145  23.598   4.855  13.996
41805W        W10146  36.034  15.781  11.121
41806W        W10147  16.128  33.105   1.317
41807W        W10148  17.144  20.619   3.232
41808W        W10149  17.676  32.630   3.296
41809W        W10150  15.631   1.873   1.252
41810W        W10151   3.831  18.739   0.470
41811W        W10152  13.776  35.565  14.959
41812W        W10153  25.200  29.127  11.494
41813W        W10154  15.116  23.499   0.305
41814W        W10155  12.325  30.567   1.756
41815W        W10156  22.551   0.821   1.819
41816W        W10157   5.788   2.277  14.951
41817W        W10158  11.762  35.919  12.470
41818W        W10159   4.215  20.578  11.866
41819W        W10160   9.770  43.972   4.830
41820W        W10161  34.999   7.365   2.191
41821W        W10162  13.776  24.997   1.386
41822W        W10163   8.204  35.062  11.904
41823W        W10164  36.873  43.435  14.942
41824W        W10165  15.133  32.917  11.586
41825W        W10166  13.139  40.468  14.781
41826W        W10167  12.170  11.638   2.369
41827W        W10168   2.827  42.828   2.804
41828W        W10169   7.892  21.202   2.842
41829W        W10170  43.825  40.421  14.004
41830W        W10171  38.480  33.565  14.014
41831W        W10172  10.301  35.917  10.949
41832W        W10173   4.443  38.453  11.527
41833W        W10174  25.150   1.838  13.898
41834W        W10175  30.553   1.848   4.297
41835W        W10176  11.346  31.455   1.733
41836W        W10177  34.051  29.068  11.071
41837W        W10178  28.530  39.011  12.023
41838W        W10179  38.025  28.101  12.923
41839W        W10180  17.574  36.878   2.347
41840W        W10181  22.021   1.849   4.629
41841W        W10182  22.026  31.988   4.322
41842W        W10183  37.012  18.105   3.786
41843W        W10184  15.664  10.728  10.963
41844W        W10185  41.386   4.788   4.254
41845W        W10186  35.014  32.574   1.745
41846W        W10187  19.129   2.900  11.492
41847W        W10188  40.367  26.179  14.760
41848W        W10189  38.470  33.035   2.399
41849W        W10190  33.406  14.663  12.373
41850W        W10191  13.146  26.593  14.516
41851W        W10192  41.521   4.848  13.937
41852W        W10193  43.900  38.844  13.393
41853W        W10194   7.343   3.921  13.015
41854W        W10195  28.162  10.753  10.480
41855W        W10196  20.641  34.587   1.929
41856W        W10197  13.275   5.804  14.826
41857W        W10198  37.930  24.689  14.952
41858W        W10199   4.385  35.034  14.936
41859W        W10200   1.879   0.257   3.289
41860W        W10201  30.460  13.142   0.363
41861W        W10202  40.915  26.689  10.469
41862W        W10203  29.961  18.695  14.854
41863W        W10204  35.983   8.699   0.434
41864W        W10205   0.461  29.170   1.275
41865W        W10206  36.441  14.682  12.372
41866W        W10207  43.870  14.761   4.819
41867W        W10208   8.311  25.681  10.545
41868W        W10209  11.177  21.543   3.239
41869W        W10210  35.492  20.567  10.511
41870W        W10211  36.926  42.979   0.483
41871W        W10212  26.468  18.601   1.874
41872W        W10213   5.387  39.056   1.346
41873W        W10214   9.278  31.531  12.393
41874W        W10215  37.568  29.114  12.382
41875W        W10216  26.703  10.376  13.322
41876W        W10217  40.402  11.779  14.986
41877W        W10218   5.718  10.213   0.435
41878W        W10219  12.636   1.843  12.971
41879W        W10220  43.491  42.791   1.763
41880W        W10221  44.953  43.976   0.334
41881W        W10222  12.830  33.072   0.937
41882W        W10223  27.480   5.927  14.479
41883W        W10224  39.927  17.266  11.491
41884W        W10225  43.338  44.820  14.859
41885W        W10226  34.426  25.525  10.946
41886W        W10227  15.674  29.424  11.383
41887W        W10228  22.120  31.611  11.069
41888W        W10229  22.621  44.348  13.013
41889W        W10230  25.087  12.174  12.344
41890W        W10231  25.997   9.198   4.349
41891W        W10232  18.569  41.417  14.330
41892W        W10233  27.054  33.984  14.987
41893W        W10234  27.599   6.805   0.909
41894W        W10235  21.663  36.491   3.217
41895W        W10236  38.852  30.984   1.768
41896W        W10237  16.289  12.208  13.396
41897W        W10238  15.183  42.343   3.764
41898W        W10239  23.493   0.960  12.524
41899W        W10240  25.142  38.935  14.310
41900W        W10241   1.278  19.610  14.934
41901W        W10242  13.721  39.474   0.367
41902W        W10243  16.779  29.075  12.828
41903W        W10244   1.786   7.777   1.741
41904W        W10245  28.497   8.179  13.329
41905W        W10246  16.180  10.199  11.461
41906W        W10247   6.815  41.040  13.314
41907W        W10248  23.526  20.596   4.728
41908W        W10249  14.247  11.150   3.861
41909W        W10250  33.915  19.729   0.296
41910W        W10251  28.494  29.023   2.880
41911W        W10252   3.331  13.183  12.024
41912W        W10253  30.978  22.649  14.311
41913W        W10254  30.045  28.067   2.307
41914W        W10255  30.534  31.518   3.285
41915W        W10256  25.967   4.803   2.282
41916W        W10257  40.861  40.532   3.859
41917W        W10258  37.086  19.156  12.047
41918W        W10259  43.493  27.645  11.921
41919W        W10260  31.417   0.342   1.377
41920W        W10261  13.691  44.505  10.439
41921W        W10262  38.461  35.964   0.429
41922W        W10263   5.258  41.020   4.282
41923W        W10264  44.288  31.103  13.515
41924W        W10265  14.627  32.031  10.996
41925W        W10266  34.372  11.316   3.328
41926W        W10267  13.808   7.860   1.385
41927W        W10268  26.987  11.852   2.251
41928W        W10269  25.201  20.229   1.807
41929W        W10270  31.086  31.120   4.125
41930W        W10271  20.078  12.711   0.810
41931W        W10272  23.666  16.768  11.105
41932W        W10273   2.942  43.947  14.292
41933W        W10274  15.263  42.888  11.499
41934W        W10275  20.110   0.353   0.883
41935W        W10276   3.349  22.713   3.166
41936W        W10277  33.020  33.526   3.800
41937W        W10278   9.254   7.269  12.418
41938W        W10279   7.393  42.877  11.065
41939W        W10280  16.691   4.780   2.890
41940W        W10281  18.751  38.825  13.924
41941W        W10282   5.797  22.538   2.695
41942W        W10283  44.873  43.442  14.447
41943W        W10284   4.243  31.102   4.326
41944W        W10285  18.227  32.502  14.818
41945W        W10286  10.177  19.271  11.026
41946W        W10287  39.053  18.699   1.791
41947W        W10288   8.753  32.056  10.063
41948W        W10289   0.872  27.068  14.317
41949W        W10290   7.800  44.813   1.391
41950W        W10291  31.541  36.911   4.779
41951W        W10292  13.760  40.429   4.120
41952W        W10293  33.397  30.597  10.927
41953W        W10294  43.811  10.817   0.282
41954W        W10295  22.664  32.461   1.886
41955W        W10296   1.915  27.466   1.734
41956W        W10297  16.780  12.792  10.545
41957W        W10298  26.169  35.524  11.930
41958W        W10299  41.437  27.676  13.548
41959W        W10300  22.131  37.079  13.984
41960W        W10301  12.654  23.141   2.205
41961W        W10302  18.082  43.417  14.821
41962W        W10303  16.758  13.767   2.713
41963W        W10304  25.559  36.056  14.795
41964W        W10305  17.757  32.949  12.975
41965W        W10306   6.411  23.998  11.963
41966W        W10307  42.867  12.277  11.865
41967W        W10308  37.431  44.351  11.869
41968W        W10309   8.707  21.046   1.888
41969W        W10310  29.151  30.615  14.772
41970W        W10311  12.780  42.987   1.445
41971W        W10312  27.026  18.257   1.390
41972W        W10313  20.633   7.400   2.759
41973W        W10314  12.826  39.038  11.080
41974W        W10315  31.625  20.187  12.400
41975W        W10316  16.133  11.708  11.865
41976W        W10317  17.307  28.103   0.308
41977W        W10318   9.231  32.945  11.404
41978W        W10319  16.276  13.201  12.981
41979W        W10320   2.285   4.342   3.157
41980W        W10321   1.846  34.497  10.574
41981W        W10322   9.354  30.164   4.676
41982W        W10323  10.869  29.604  11.437
41983W        W10324  11.674  29.533  14.275
41984W        W10325  34.106  33.965   3.255
41985W        W10326   0.977  40.929   0.310
41986W        W10327  24.012  21.073   0.782
41987W        W10328  14.811  31.931   0.466
41988W        W10329  22.743  35.412  11.567
41989W        W10330   4.900  21.675   3.231
41990W        W10331  29.478  42.983   4.618
41991W        W10332  41.041  23.579  11.863
41992W        W10333  30.160   4.872   3.342
41993W        W10334  27.583  41.874  14.328
41994W        W10335  42.372  11.672  14.495
41995W        W10336  38.411  41.325   1.313
41996W        W10337  28.080  26.027  10.426
41997W        W10338  38.519  33.057   1.351
41998W        W10339  12.121  18.667  12.476
41999W        W10340  24.527  33.060   3.321
42000W        W10341  33.626  32.001  14.360
42001W        W10342  22.030  27.653   1.261
42002W        W10343  10.373  39.055  14.410
42003W        W10344  28.128  32.393  10.988
42004W        W10345  38.930  37.450   0.897
42005W        W10346  33.076  26.684  13.953
42006W        W10347  44.845   7.719   2.689
42007W        W10348  27.021  44.429  12.903
42008W        W10349  24.226  30.650   4.206
42009W        W10350  40.474   8.380  12.377
42010W        W10351  35.411   2.357   3.772
42011W        W10352   5.745  29.103  14.987
42012W        W10353  41.373   6.357  12.922
42013W        W10354  38.883   2.407   3.203
42014W        W10355  15.313  30.066  15.000
42015W        W10356  20.144   3.319   0.461
42016W        W10357  11.163  22.674   4.608
42017W        W10358  32.960  10.339  14.881
42018W        W10359  23.180  20.169   3.296
42019W        W10360  25.157  28.659   5.167
42020W        W10361  19.577  41.427   3.752
42021W        W10362  44.306  35.526  10.407
42022W        W10363  35.949  27.597  14.422
42023W        W10364  19.603  44.265   1.861
42024W        W10365  38.428   4.268   4.719
42025W        W10366  12.761  12.256  14.838
42026W        W10367   5.917  36.524  10.563
42027W        W10368  33.610  14.189  13.439
42028W        W10369  24.502  26.606  10.613
42029W        W10370   4.833  22.576   2.873
42030W        W10371  21.600   9.842  11.536
42031W        W10372  37.503  43.770  13.352
42032W        W10373  18.150  31.991   4.282
42033W        W10374  21.102  23.109   2.712
42034W        W10375   6.855  35.530  13.932
42035W        W10376   0.958  44.322  13.853
42036W        W10377  17.715   2.776  12.432
42037W        W10378   1.784  43.920   0.410
42038W        W10379  26.191  12.806  14.456
42039W        W10380  33.552  17.098   1.723
42040W        W10381  40.918  43.340   3.288
42041W        W10382  14.270  18.658  11.941
42042W        W10383  16.790  34.459   5.090
42043W        W10384   4.305   4.285   4.270
42044W        W10385  40.851  12.180   3.763
42045W        W10386  42.350  38.325  10.535
42046W        W10387  29.942  10.867  14.441
42047W        W10388  42.809  31.641  12.051
42048W        W10389   2.383  21.171  10.093
42049W        W10390  18.090   5.834  12.469
42050W        W10391  37.337  28.516  10.620
42051W        W10392  28.597  33.128   0.305
42052W        W10393  25.031  12.155  10.431
42053W        W10394  14.822  16.731  11.899
42054W        W10395  18.206  38.941   2.206
42055W        W10396  13.669  32.598   1.790
42056W        W10397  16.704  28.444  11.543
42057W        W10398  44.469  43.847   3.241
42058W        W10399   2.765   7.817   2.257
42059W        W10400   9.658   4.445   0.412
42060W        W10401  11.310  37.404  14.464
42061W        W10402  42.018  41.311   0.961
42062W        W10403  16.652   6.286  14.313
42063W        W10404  22.527  25.683   4.257
42064W        W10405  31.504  28.100  14.018
42065W        W10406  44.476   1.249   1.349
42066W        W10407  28.470  40.500   2.183
42067W        W10408  25.977   3.335  11.897
42068W        W10409  13.807  22.565   0.320
42069W        W10410  44.394  42.436  13.032
42070W        W10411  43.010  41.384  14.819
42071W        W10412  35.883  11.248   0.896
42072W        W10413  24.596  14.286   2.180
42073W        W10414  25.996  11.163   3.240
42074W        W10415  26.524  21.666   2.902
42075W        W10416  38.058  29.150   3.740
42076W        W10417  16.809  12.223  13.409
42077W        W10418  30.478  18.626   4.824
42078W        W10419  35.100  28.605   2.411
42079W        W10420  15.222  39.521   4.162
42080W        W10421  35.028  26.666  14.990
42081W        W10422   5.396   1.866  13.026
42082W        W10423  40.375  15.284   4.626
42083W        W10424  39.531  34.501   0.262
42084W        W10425  16.762  17.306  14.863
42085W        W10426  17.225  40.508   3.234
42086W        W10427   7.910   4.812   0.465
42087W        W10428   7.826  10.164   4.189
42088W        W10429  21.138   2.814  11.579
42089W        W10430  32.094  36.902  11.410
42090W        W10431  18.743  44.426   1.395
42091W        W10432  31.442   7.356  10.621
42092W        W10433  14.727   3.919  10.889
42093W        W10434  22.660  13.685   4.794
42094W        W10435  32.967   8.711   5.113
42095W        W10436  26.176  20.663  12.478
42096W        W10437  18.079  41.514  10.963
42097W        W10438  13.647   9.683  14.778
42098W        W10439  33.940   3.277  14.944
42099W        W10440  44.935   8.353  13.422
42100W        W10441  10.276  33.892   2.341
42101W        W10442   5.804  26.607  11.568
42102W        W10443  17.679  10.231  14.866
42103W        W10444   3.421  28.027  12.455
42104W        W10445  37.998  37.956  13.040
42105W        W10446  26.588  38.556  12.481
42106W        W10447  12.295  37.830   0.324
42107W        W10448  26.118   0.770   0.911
42108W        W10449  22.083  33.518  11.077
42109W        W10450  10.862  27.014   0.960
42110W        W10451  42.901   3.380  11.908
42111W        W10452  30.428  24.147  13.979
42112W        W10453   1.924   7.765   3.343
42113W        W10454  10.834   7.709  11.941
42114W        W10455  28.568  16.120  11.503
42115W        W10456   2.287   8.236   3.654
42116W        W10457  34.042  17.758  12.032
42117W        W10458  37.516  11.308  12.921
42118W        W10459   7.863  10.247  14.465
42119W        W10460  35.428  11.243  12.047
42120W        W10461  29.962  13.107   4.838
42121W        W10462  44.754  28.941  13.936
42122W        W10463   8.771  25.699  14.816
42123W        W10464  17.197  41.318  13.958
42124W        W10465  44.876  12.320   2.386
42125W        W10466  43.831   5.289   3.265
42126W        W10467   4.789  24.604  14.959
42127W        W10468  19.215  32.450  14.317
42128W        W10469  30.006  19.247  13.882
42129W        W10470  13.316  20.604   4.702
42130W        W10471  27.667  30.045  14.859
42131W        W10472  28.568   6.271   0.840
42132W        W10473  40.902  25.621  13.384
42133W        W10474  44.288  29.645   2.251
42134W        W10475  39.033  18.557  11.910
42135W        W10476  17.244  28.449   3.319
42136W        W10477  30.152  35.939   2.249
42137W        W10478  27.147  24.228   4.830
42138W        W10479   2.340  43.319   2.367
42139W        W10480  26.562  21.122  14.881
42140W        W10481  43.931  33.877  13.930
42141W        W10482  27.562  42.290   1.380
42142W        W10483  33.457  35.903  11.861
42143W        W10484  44.407  13.778  14.335
42144W        W10485  34.960   4.911   9.939
42145W        W10486  21.578  20.247   3.208
42146W        W10487  16.089  15.238  10.514
42147W        W10488  14.705  35.867   5.138
42148W        W10489  30.945   4.412  13.437
42149W        W10490  11.155  40.539  14.382
42150W        W10491  43.309   9.252   1.222
42151W        W10492   5.244  10.696  12.994
42152W        W10493  21.136  19.144   3.292
42153W        W10494  39.947  12.355  14.770
42154W        W10495  44.005  24.682   0.451
42155W        W10496  18.081  10.344   3.329
42156W        W10497  28.664   0.348   0.437
42157W        W10498  31.939  40.381   0.947
42158W        W10499   1.751  27.973  12.876
42159W        W10500   4.837  12.622  10.091
42160W        W10501  38.938   7.359   2.747
42161W        W10502   3.316  39.814  13.343
42162W        W10503  26.608  29.503   4.200
42163W        W10504  39.032  26.494  14.464
42164W        W10505   1.273  28.940   0.304
42165W        W10506   0.815   4.366  14.785
42166W        W10507  31.568  18.788  14.341
42167W        W10508   5.772  10.344  13.061
42168W        W10509  18.205  35.366   2.191
42169W        W10510  26.080  24.040  11.897
42170W        W10511   0.836   5.890   4.136
42171W        W10512  34.009  42.858   3.292
42172W        W10513  36.035  43.289  12.059
42173W        W10514  11.866   7.237   4.159
42174W        W10515  29.560  42.944   9.945
42175W        W10516  25.072  44.823  10.487
42176W        W10517  36.537   7.898   3.717
42177W        W10518   0.864  42.851   1.400
42178W        W10519  28.961  18.249   4.116
42179W        W10520  44.761  28.044   3.182
42180W        W10521  43.971  42.307   2.178
42181W        W10522   8.901  44.382   3.160
42182W        W10523  10.164  13.735   2.279
42183W        W10524  23.575   3.886   3.374
42184W        W10525  10.678  34.385   2.376
42185W        W10526  14.162  13.301   1.403
42186W        W10527  17.061  40.017   3.225
42187W        W10528   4.805  23.735  12.070
42188W        W10529  42.933  32.608   0.862
42189W        W10530   1.483   6.771  12.851
42190W        W10531  13.735  36.517   0.471
42191W        W10532   9.166  19.739  11.962
42192W        W10533  30.979  41.802  11.869
42193W        W10534  27.625  27.192  12.522
42194W        W10535   3.895   5.220   4.810
42195W        W10536   9.154  39.918   5.196
42196W        W10537  26.045  27.985  11.525
42197W        W10538  16.182  28.982  14.429
42198W        W10539  44.779  29.011   0.361
42199W        W10540  29.657  20.653  14.317
42200W        W10541  40.398  18.597  12.927
42201W        W10542  31.517  29.033  10.905
42202W        W10543  13.746  31.091   3.159
42203W        W10544  25.031  16.210  13.373
42204W        W10545  11.237  40.958   0.772
42205W        W10546   8.202  31.545   1.235
42206W        W10547  41.899   9.382  10.978
42207W        W10548   2.788  30.591   2.857
42208W        W10549  16.182  30.612  13.817
42209W        W10550  27.457  10.292  11.581
42210W        W10551  31.046  44.872   4.784
42211W        W10552   6.733   1.868   1.369
42212W        W10553  19.244  29.952   1.282
42213W        W10554  13.216   0.490  13.881
42214W        W10555  40.991  28.636  12.556
42215W        W10556   5.879  23.669   2.862
42216W        W10557  36.447   2.801   2.819
42217W        W10558  36.958  23.027  10.449
42218W        W10559  39.872   8.807  11.102
42219W        W10560  19.162   1.450   2.854
42220W        W10561  13.124  22.523   1.381
42221W        W10562  36.467  38.464  13.482
42222W        W10563   7.693  14.660   3.361
42223W        W10564  11.763  35.565   2.316
42224W        W10565  12.743  42.901  12.340
42225W        W10566  38.970  16.684  12.859
42226W        W10567  40.472   7.287  10.629
42227W        W10568  41.461   5.829   2.774
42228W        W10569  27.047  42.509  12.863
42229W        W10570   8.796  33.592  14.828
42230W        W10571  39.900   1.919   0.351
42231W        W10572  20.232  33.559   1.725
42232W        W10573  12.157  24.649  11.517
42233W        W10574  17.582  42.419  12.896
42234W        W10575  19.193  12.251   1.303
42235W        W10576   1.382  37.001   3.343
42236W        W10577  13.252  43.807  14.336
42237W        W10578  15.134   0.745   0.319
42238W        W10579  28.988   3.251  13.879
42239W        W10580  36.920  41.882  12.559
42240W        W10581  36.015   5.762   1.751
42241W        W10582   6.220   1.750  13.938
42242W        W10583  20.690  21.199  14.403
42243W        W10584  16.732  32.988   2.335
42244W        W10585  11.842  39.870   0.872
42245W        W10586  22.566   1.971  12.920
42246W        W10587   5.771   1.261  10.963
42247W        W10588   9.153   1.301  10.621
42248W        W10589  28.462  35.083  12.941
42249W        W10590  17.644  11.662   1.336
42250W        W10591   6.683  37.339  12.926
42251W        W10592  12.154  20.131  12.912
42252W        W10593  20.526  18.616  13.527
42253W        W10594   2.286  26.987   4.252
42254W        W10595  29.099  10.317   3.258
42255W        W10596  38.974  10.187   4.638
42256W        W10597   4.354  15.642  11.952
42257W        W10598  18.639  43.970  14.508
42258W        W10599  28.121  22.602   2.867
42259W        W10600  33.499  14.325   3.772
42260W        W10601   2.349  24.101   1.697
42261W        W10602  35.389  18.705  13.003
42262W        W10603   1.964  41.918   3.707
42263W        W10604  41.914  31.003   1.871
42264W        W10605  18.240   9.152  10.629
42265W        W10606  18.696  19.729  11.597
42266W        W10607  22.675  25.965  10.478
42267W        W10608  41.950  42.902   5.307
42268W        W10609  16.248  10.832  13.330
42269W        W10610  15.193  27.484  13.342
42270W        W10611  40.544  18.660   0.788
42271W        W10612  14.278  20.203  14.490
42272W        W10613  29.151  32.585   2.713
42273W        W10614  28.139  35.517  12.412
42274W        W10615  36.569   7.794  10.966
42275W        W10616  11.823  30.443   0.953
42276W        W10617  40.471  44.812  12.885
42277W        W10618  32.491  43.966  11.558
42278W        W10619  30.115  10.336   1.854
42279W        W10620  13.220  40.495  12.429
42280W        W10621   4.217   8.857   1.448
42281W        W10622  39.858   7.898   0.426
42282W        W10623  16.617   5.888  10.979
42283W        W10624  27.663  31.458   1.404
42284W        W10625  13.784  33.901   3.247
42285W        W10626  14.815  14.665  10.997
42286W        W10627  41.809  43.329  10.967
42287W        W10628  31.608   0.428  12.559
42288W        W10629  42.380   2.941  14.299
42289W        W10630   2.961   1.313  12.096
42290W        W10631  13.110  23.511   3.754
42291W        W10632  27.162  24.647   0.940
42292W        W10633   0.397   2.367   3.856
42293W        W10634  19.632  17.291   4.196
42294W        W10635  25.215   3.831   1.275
42295W        W10636  27.560   9.777  11.510
42296W        W10637  25.128  29.058  10.930
42297W        W10638  44.447  25.480  11.031
42298W        W10639   7.209  20.179  14.958
42299W        W10640  24.220  32.525  11.408
42300W        W10641  40.822  33.940  13.508
42301W        W10642   8.840  40.932  12.862
42302W        W10643  27.549  33.389  12.523
42303W        W10644   0.801  26.044   0.450
42304W        W10645  37.376  27.193  11.387
42305W        W10646  36.848   0.463  12.374
42306W        W10647  20.586   3.887  11.381
42307W        W10648  13.706  36.077   1.929
42308W        W10649  33.602  33.602   1.789
42309W        W10650  12.248  27.034   3.245
42310W        W10651   7.779  18.760  11.452
42311W        W10652  10.743  27.586  10.436
42312W        W10653  13.789   9.351  10.415
42313W        W10654  32.049   1.382   0.865
42314W        W10655   1.934  27.194   4.701
42315W        W10656  28.679  26.181  13.028
42316W        W10657  15.209  16.772   1.241
42317W        W10658  30.045  39.879   4.280
42318W        W10659  26.510  21.544  14.395
42319W        W10660  28.461  26.998  13.399
42320W        W10661  10.862  23.009   2.770
42321W        W10662  42.452  35.000   3.644
42322W        W10663  33.589  41.941  14.502
42323W        W10664  31.463  27.150   0.760
42324W        W10665  43.905   4.230   2.712
42325W        W10666  42.818  26.602  14.508
42326W        W10667   9.861  10.258   0.356
42327W        W10668  13.831   4.218   3.847
42328W        W10669   9.190  31.420  14.940
42329W        W10670  34.917  42.876   9.971
42330W        W10671  14.656   0.881   0.456
42331W        W10672   2.872  16.777   0.339
42332W        W10673  24.653  41.820  13.330
42333W        W10674  33.586   9.380  13.450
42334W        W10675  10.748  19.705   4.296
42335W        W10676  43.461  27.120  12.904
42336W        W10677  37.996  25.965  13.371
42337W        W10678  41.443  12.637  14.307
42338W        W10679   3.278  21.068  13.320
42339W        W10680  15.250  21.627   1.723
42340W        W10681  18.260  32.471   3.754
42341W        W10682  21.177  11.770  13.008
42342W        W10683   1.824   5.196  11.897
42343W        W10684  34.606   7.793  10.526
42344W        W10685  16.287  36.030  10.598
42345W        W10686  33.967  36.474   4.817
42346W        W10687  37.466   2.883  12.086
42347W        W10688  39.509  16.754   4.261
42348W        W10689   8.797  16.734   3.689
42349W        W10690  43.829  16.697   0.933
42350W        W10691  14.683  10.144  10.887
42351W        W10692  28.480   1.473   1.243
42352W        W10693  30.426  16.587   2.690
42353W        W10694  31.528  27.173   3.344
42354W        W10695  41.921  14.709   3.843
42355W        W10696  35.384  22.061   2.678
42356W        W10697   5.229  40.426   4.189
42357W        W10698  30.516  31.634   0.729
42358W        W10699   9.704  42.383   2.334
42359W        W10700  22.673  26.020   2.182
42360W        W10701  28.997   6.257  14.971
42361W        W10702  11.274  29.645  11.417
42362W        W10703  28.561   1.770  13.528
42363W        W10704  12.793  25.109   1.752
42364W        W10705   1.879  32.633  14.872
42365W        W10706   2.825   2.248   0.357
42366W        W10707   6.399   9.779   2.860
42367W        W10708  23.206  19.268   3.837
42368W        W10709   7.285  12.355   3.823
42369W        W10710  17.651  21.704   5.312
42370W        W10711  10.316  25.208   9.955
42371W        W10712  21.577  43.280  12.504
42372W        W10713  23.211  10.719  13.325
42373W        W10714   8.359   3.340   4.807
42374W        W10715  35.444  30.047   2.890
42375W        W10716  12.824  11.171   9.510
42376W        W10717  25.984   3.274   2.289
42377W        W10718  41.518   4.767   0.448
42378W        W10719  32.914   7.849  11.006
42379W        W10720  39.943   6.361   1.924
42380W        W10721  35.036  44.366   0.449
42381W        W10722   8.711  18.249   1.849
42382W        W10723  35.368  21.142  12.024
42383W        W10724  23.626   8.242   2.377
42384W        W10725  18.181   7.821   1.430
42385W        W10726  35.455  22.552  14.317
42386W        W10727  40.977  44.890  10.532
42387W        W10728  10.664  29.120   1.699
42388W        W10729   8.807  35.890  11.397
42389W        W10730  44.770  32.143  14.502
42390W        W10731  30.493  20.103  11.976
42391W        W10732  43.907   9.693   0.346
42392W        W10733  29.088   3.369  11.981
42393W        W10734   6.379  24.976   2.240
42394W        W10735  14.253  31.482   3.669
42395W        W10736   2.779  38.039  13.046
42396W        W10737  33.000  31.935  12.388
42397W        W10738  17.144  16.574  13.425
42398W        W10739   3.282   7.907   1.872
42399W        W10740  42.408  13.143  11.532
42400W        W10741  29.639  29.077   9.996
42401W        W10742  22.210   2.759   2.689
42402W        W10743   3.721   3.453  11.891
42403W        W10744  44.389  31.122  13.037
42404W        W10745  43.324  34.408  10.515
42405W        W10746  14.245  30.911  10.587
42406W        W10747  28.933  25.037   4.320
42407W        W10748  32.959   2.453   2.903
42408W        W10749  27.008  40.481   0.802
42409W        W10750  28.006  29.157  11.121
42410W        W10751  16.792  27.035   2.254
42411W        W10752  18.701  32.402  11.505
42412W        W10753  10.862  29.175  10.443
42413W        W10754   6.404  12.725  13.911
42414W        W10755   2.456  32.498   0.796
42415W        W10756   4.402  40.427   1.393
42416W        W10757  36.463  35.595  10.525
42417W        W10758  41.939  20.625  13.532
42418W        W10759  43.910  27.041   1.869
42419W        W10760  42.325  31.419   4.173
42420W        W10761   1.467   4.293   3.153
42421W        W10762  24.547  27.034  10.085
42422W        W10763  27.482  44.876   3.274
42423W        W10764   2.289  24.501   1.244
42424W        W10765  12.167   4.389   0.335
42425W        W10766  28.969   7.685  13.897
42426W        W10767   3.412  42.434   4.671
42427W        W10768  44.001  27.952  14.861
42428W        W10769   4.841   2.294   0.275
42429W        W10770  28.162  31.545  13.059
42430W        W10771   8.722  33.937   3.216
42431W        W10772  17.277   0.298   3.211
42432W        W10773  28.027   6.213   3.801
42433W        W10774  43.773   1.925  11.866
42434W        W10775  44.449   1.746   3.645
42435W        W10776  21.061  24.117   1.810
42436W        W10777  12.122   8.298   3.844
42437W        W10778  33.544  34.420   1.749
42438W        W10779  28.564  39.396  10.528
42439W        W10780  27.547  26.557  12.065
42440W        W10781   5.228  16.171   3.763
42441W        W10782  41.362  21.668   4.272
42442W        W10783  18.639   2.409  13.418
42443W        W10784  17.759  42.896   5.181
42444W        W10785   5.336  10.634  10.476
42445W        W10786  33.553   1.273  13.895
42446W        W10787  32.494  11.163  10.555
42447W        W10788  17.197   1.969   5.155
42448W        W10789  19.689  34.389  14.960
42449W        W10790  21.575  42.893  13.876
42450W        W10791   4.828  11.697  13.006
42451W        W10792  26.135  23.625   3.863
42452W        W10793  35.035  33.483  13.311
42453W        W10794   4.427  13.125   0.451
42454W        W10795   5.211  12.684  13.536
42455W        W10796  19.731  38.902  10.588
42456W        W10797  26.569  20.125  12.373
42457W        W10798   8.329  16.696  11.563
42458W        W10799  42.782  40.515   4.656
42459W        W10800  27.497  42.029   0.758
42460W        W10801   2.953  33.521   0.743
42461W        W10802  20.179  40.972   0.862
42462W        W10803  35.530  15.118  11.029
42463W        W10804  34.505  35.421   3.239
42464W        W10805   3.375   9.294  13.445
42465W        W10806  12.781  37.074  11.469
42466W        W10807   6.763  32.515   0.812
42467W        W10808  14.677  22.564  11.415
42468W        W10809  13.780  16.656  11.376
42469W        W10810  39.827  29.926   1.823
42470W        W10811   1.927  26.030   0.255
42471W        W10812   0.486  42.805  13.327
42472W        W10813  34.950  32.532  14.862
42473W        W10814  33.950  37.436   3.720
42474W        W10815  15.734  30.991   4.308
42475W        W10816   8.900  31.103  11.377
42476W        W10817  37.037  24.127   4.654
42477W        W10818  30.522  15.311  10.930
42478W        W10819  32.610  19.086   0.874
42479W        W10820   5.910   9.292   1.412
42480W        W10821  40.014   8.788   0.826
42481W        W10822  37.405  25.178   4.135
42482W        W10823  38.495  43.876  12.871
42483W        W10824  24.158  35.430  11.495
42484W        W10825  23.620  39.391   2.790
42485W        W10826  38.929  36.383  10.480
42486W        W10827   8.400  17.118  14.484
42487W        W10828  11.275  13.618  10.640
42488W        W10829  21.728  37.899   3.800
42489W        W10830  34.951  28.029  14.969
42490W        W10831   2.329   4.295  11.385
42491W        W10832   7.346  38.550  11.914
42492W        W10833  41.818  33.567   2.191
42493W        W10834  34.044  24.617  14.436
42494W        W10835   7.221  43.816   4.210
42495W        W10836   6.398  10.279  14.888
42496W        W10837  28.594  26.550  10.093
42497W        W10838  14.297  28.103  13.967
42498W        W10839   8.326  14.629   2.195
42499W        W10840  18.648  20.250  10.547
42500W        W10841  10.182  10.379  13.032
42501W        W10842  23.146  11.309   4.658
42502W        W10843  25.978  32.626  13.347
42503W        W10844  15.267   8.253   2.301
42504W        W10845  12.672  44.816  13.310
42505W        W10846   2.428  14.642  14.319
42506W        W10847  36.445  33.483   1.350
42507W        W10848  33.128   2.893  14.860
42508W        W10849  32.964  27.603   0.417
42509W        W10850  24.647  29.095  14.916
42510W        W10851   7.793  38.988  10.019
42511W        W10852  38.894  32.571   3.675
42512W        W10853  24.603  28.176  11.507
42513W        W10854  13.610  22.644  12.935
42514W        W10855  15.716  28.459   3.871
42515W        W10856  25.097  27.028  14.004
42516W        W10857   2.314  14.601   4.336
42517W        W10858  44.458  18.115  11.909
42518W        W10859  11.832  42.776   1.731
42519W        W10860   0.952  15.720  10.985
42520W        W10861  38.032  18.284  14.305
42521W        W10862  27.109  31.034  13.402
42522W        W10863   8.312  16.806   3.721
42523W        W10864  22.671  43.813   1.904
42524W        W10865  11.311  19.251  10.581
42525W        W10866  33.608  18.095  10.952
42526W        W10867  29.924  11.127  10.990
42527W        W10868  39.998  34.541  13.419
42528W        W10869  22.624  26.983   0.769
42529W        W10870  22.651   4.372   0.922
42530W        W10871  18.770   7.367   0.399
42531W        W10872  12.283  25.678  13.535
42532W        W10873  10.201  31.552  11.916
42533W        W10874  31.415   3.950   0.959
42534W        W10875  29.965  39.815   1.276
42535W        W10876  15.618   8.222   2.699
42536W        W10877  44.764  21.178  14.992
42537W        W10878  33.422  44.411  12.827
42538W        W10879  28.089  22.045  11.908
42539W        W10880  33.120   3.434  14.804
42540W        W10881  33.408  12.280  12.984
42541W        W10882  24.130  40.316  13.824
42542W        W10883  37.869  20.706  12.887
42543W        W10884  21.049  14.297  13.000
42544W        W10885  27.156   3.433   0.358
42545W        W10886  27.680  10.788   0.727
42546W        W10887  31.006   3.276  12.949
42547W        W10888  28.969  21.046  13.418
42548W        W10889  20.744  17.287  10.560
42549W        W10890   7.231  26.602  14.381
42550W        W10891  32.085  41.452  12.045
42551W        W10892  34.400  19.645  11.444
42552W        W10893  38.975  44.919   4.177
42553W        W10894   5.740  34.944   4.250
42554W        W10895  28.991  18.263   4.673
42555W        W10896  28.945  28.130  14.512
42556W        W10897  37.862  11.655   0.400
42557W        W10898  24.482  32.402  10.483
42558W        W10899  38.898  16.730  14.775
42559W        W10900  21.137  26.676  13.937
42560W        W10901  32.578   6.371   4.722
42561W        W10902   3.253  32.421   1.257
42562W        W10903  12.726   5.720   0.271
42563W        W10904  29.567  12.353   1.786
42564W        W10905  26.955  33.016  12.863
42565W        W10906  10.760  38.565   3.709
42566W        W10907   3.298  31.538   2.711
42567W        W10908  41.903   7.885   1.332
42568W        W10909   2.360  27.473   3.777
42569W        W10910  23.151  14.276   0.383
42570W        W10911  16.591   1.426   0.895
42571W        W10912  31.577  23.091   4.142
42572W        W10913  34.481  11.651   3.666
42573W        W10914  28.132  21.672   3.303
42574W        W10915  37.360  43.301   3.776
42575W        W10916  44.991  23.639   4.626
42576W        W10917  23.587  18.102  11.417
42577W        W10918  25.474  44.486   0.460
42578W        W10919  27.114  12.243  12.384
42579W        W10920  18.601  20.655  10.122
42580W        W10921  34.004  42.010   9.556
42581W        W10922  25.705  28.602  11.544
42582W        W10923   9.665  42.984   0.360
42583W        W10924   3.952   9.394   3.157
42584W        W10925   8.162  42.976  10.629
42585W        W10926  24.496  18.618  11.507
42586W        W10927  32.025  26.193   1.812
42587W        W10928  27.609  23.167   4.128
42588W        W10929  17.246  36.961  13.872
42589W        W10930  10.360  44.766   5.227
42590W        W10931  27.460   5.831  13.814
42591W        W10932   2.452  23.148   1.215
42592W        W10933   9.153   5.416  11.023
42593W        W10934  30.547  21.731   2.758
42594W        W10935  23.614  36.457   0.793
42595W        W10936  14.187  41.495  14.017
42596W        W10937  16.614  39.375   0.827
42597W        W10938  11.716   4.773   3.261
42598W        W10939   3.940  28.065   0.282
42599W        W10940  20.098  13.225   1.884
42600W        W10941  34.483  19.689   0.363
42601W        W10942  40.471  12.180   1.855
42602W        W10943  20.560  26.494   1.367
42603W        W10944  21.127  32.004   2.378
42604W        W10945  26.967  15.096  13.448
42605W        W10946  24.569   9.673  12.541
42606W        W10947  44.448   5.235   2.705
42607W        W10948  35.881  40.836  12.059
42608W        W10949   1.371  34.981  12.893
42609W        W10950  42.895  24.093   3.349
42610W        W10951  36.865  38.070  13.362
42611W        W10952  21.139  36.080   1.418
42612W        W10953  19.066  29.154   1.816
42613W        W10954  28.584   3.439  11.857
42614W        W10955  13.143   9.863   4.759
42615W        W10956  31.936  17.238   1.270
42616W        W10957  33.112   2.393  13.312
42617W        W10958  26.015   4.271  14.412
42618W        W10959   9.209  26.568  10.526
42619W        W10960  42.842  29.097   1.863
42620W        W10961  27.099  11.663   3.249
42621W        W10962   9.809  34.456  11.855
42622W        W10963  38.443  30.593   2.750
42623W        W10964   5.405  26.131  14.882
42624W        W10965   7.233  39.923   0.390
42625W        W10966  40.810   3.389  13.379
42626W        W10967  20.246  19.102  14.443
42627W        W10968  25.191   7.358   4.315
42628W        W10969  31.500  41.304   2.233
42629W        W10970  19.578  27.499  14.002
42630W        W10971  41.535  44.400  12.012
42631W        W10972  34.386  43.879  12.064
42632W        W10973  17.304  23.200   0.799
42633W        W10974  11.221  11.800   4.815
42634W        W10975   5.423   3.725  13.950
42635W        W10976  32.040  26.176   0.846
42636W        W10977  12.305  40.986  14.869
42637W        W10978   0.920  34.607   3.700
42638W        W10979   2.344  34.083  14.816
42639W        W10980  28.167  38.847  12.013
42640W        W10981  22.155  23.637  10.512
42641W        W10982   7.689  21.594   2.693
42642W        W10983   8.266  42.024   0.872
42643W        W10984   3.898  23.650  13.950
42644W        W10985  38.833  29.533  10.582
42645W        W10986  18.753  11.766   4.148
42646W        W10987  42.485  26.696  10.472
42647W        W10988   9.325   9.861  11.127
42648W        W10989  29.958  42.803   3.301
42649W        W10990  38.950  12.306   4.211
42650W        W10991  24.610  29.644   0.821
42651W        W10992   1.776  27.151   1.276
42652W        W10993  39.445  41.920  13.384
42653W        W10994  16.099  44.866   0.769
42654W        W10995  26.061  39.851   1.275
42655W        W10996  33.963  21.233  12.411
42656W        W10997  25.547  17.118   0.328
42657W        W10998   2.915  10.759   0.817
42658W        W10999  39.885  38.935  12.839
42659W        W11000  33.482  36.384   3.238
42660W        W11001  28.629  36.501  14.957
42661W        W11002  20.561  44.956  13.349
42662W        W11003  28.152  21.592  14.949
42663W        W11004  36.485  40.014   3.871
42664W        W11005  28.000   7.331  11.966
42665W        W11006   3.449  12.629  14.277
42666W        W11007  32.055  14.641  10.958
42667W        W11008  33.402  26.477   2.234
42668W        W11009  29.003   8.684   0.279
42669W        W11010  22.745  14.268  14.981
42670W        W11011  25.652  26.605  12.498
42671W        W11012  21.611  11.639  13.428
42672W        W11013  37.457   6.795  14.979
42673W        W11014  11.171   7.898  12.862
42674W        W11015  11.357  43.004  10.991
42675W        W11016  20.706  25.044   1.407
42676W        W11017  25.046   2.937  13.493
42677W        W11018  14.795  42.834  14.019
42678W        W11019  34.898  43.983  13.404
42679W        W11020   0.280  30.454  10.542
42680W        W11021   6.776  34.591   2.686
42681W        W11022  44.876  15.221  10.583
42682W        W11023  21.208   3.842   4.218
42683W        W11024  42.351  38.945  13.499
42684W        W11025  40.516  43.950  14.844
42685W        W11026   3.422  40.014  13.798
42686W        W11027   2.860  21.541  13.358
42687W        W11028   9.214  24.027   4.679
42688W        W11029  19.549  21.030  14.508
42689W        W11030  27.654  15.673   3.223
42690W        W11031   3.318  15.141   2.204
42691W        W11032   1.887  42.440  14.998
42692W        W11033  40.460  32.903  12.352
42693W        W11034   2.789  36.075   0.414
42694W        W11035  38.970   8.856   1.309
42695W        W11036   9.286  31.633   2.781
42696W        W11037   1.814  18.688  10.583
42697W        W11038  36.863   9.319   0.405
42698W        W11039  13.333  32.049  10.493
42699W        W11040  36.500  24.619   0.951
42700W        W11041   9.772  17.075  13.984
42701W        W11042  39.556  40.819  11.877
42702W        W11043  10.679  17.230   0.950
42703W        W11044   0.376  19.591  13.411
42704W        W11045  10.369  12.617   2.712
42705W        W11046  12.681  42.310   2.722
42706W        W11047  27.060  30.067   2.346
42707W        W11048  43.399  20.657   2.737
42708W        W11049  44.286  11.668   1.425
42709W        W11050  28.121  19.662   3.355
42710W        W11051  38.886   6.693   1.709
42711W        W11052  22.717   4.809   9.993
42712W        W11053  10.819   1.748   3.767
42713W        W11054  14.274  21.262   5.248
42714W        W11055   5.738   3.744  11.050
42715W        W11056  17.610  29.463  11.962
42716W        W11057  16.244  37.565  14.318
42717W        W11058  16.147   9.871  11.084
42718W        W11059  39.353  44.262   9.970
42719W        W11060  12.347   2.880  12.938
42720W        W11061   6.360  28.570  13.332
42721W        W11062   8.367  24.705   2.821
42722W        W11063  15.139  42.417  11.580
42723W        W11064  43.297  29.163  13.819
42724W        W11065   0.891   3.417  12.890
42725W        W11066  13.345  35.999   0.298
42726W        W11067  40.507  28.638   1.268
42727W        W11068  11.731  34.563  14.367
42728W        W11069  31.942   2.420  13.499
42729W        W11070  43.510  19.584  13.834
42730W        W11071  28.605  23.530   0.382
42731W        W11072  39.361  12.815  11.974
42732W        W11073  21.603  37.017   1.377
42733W        W11074  17.078  42.836   0.303
42734W        W11075  25.083  24.208  13.330
42735W        W11076  32.961  36.978   1.796
42736W        W11077  29.127   5.419   1.353
42737W        W11078   0.792  27.527  14.359
42738W        W11079  35.463   0.959  13.910
42739W        W11080  32.999  41.365   3.844
42740W        W11081  28.546  30.480   1.705
42741W        W11082   2.376  25.999  14.030
42742W        W11083   3.843  41.490  14.939
42743W        W11084  33.606  13.664  11.394
42744W        W11085  33.999  41.492  12.041
42745W        W11086  40.033  39.886   4.815
42746W        W11087  21.183  13.723   4.702
42747W        W11088  34.889  35.916  12.492
42748W        W11089  40.832  18.060   3.695
42749W        W11090  37.451   6.372   0.751
42750W        W11091  44.839  14.132   3.696
42751W        W11092  42.338  36.929  10.568
42752W        W11093  11.322  14.144  11.070
42753W        W11094   6.744  17.154  12.995
42754W        W11095  34.500  38.046  12.524
42755W        W11096   4.439  31.526  12.839
42756W        W11097  22.739  33.596   5.201
42757W        W11098  34.431  20.617  12.993
42758W        W11099   2.887  43.377   1.311
42759W        W11100  14.216  40.021  11.977
42760W        W11101   8.267   9.647  14.013
42761W        W11102  10.766  23.170   3.237
42762W        W11103  35.069  18.186  11.004
42763W        W11104  44.455  20.095   2.236
42764W        W11105  27.073  16.143  13.405
42765W        W11106  24.621  23.195  13.488
42766W        W11107  15.084  27.089  10.479
42767W        W11108  31.088   6.750  12.451
42768W        W11109  32.577  39.901   4.678
42769W        W11110  35.583  44.861   1.443
42770W        W11111  22.745  42.364   2.711
42771W        W11112  31.059   6.237   0.484
42772W        W11113  36.060   1.841  12.828
42773W        W11114  42.973  33.433   0.771
42774W        W11115   8.368   6.218   2.198
42775W        W11116  14.611  27.581  12.917
42776W        W11117   3.834  25.096   2.345
42777W        W11118  34.110   0.921  10.897
42778W        W11119  34.521   2.339  10.507
42779W        W11120  29.457   3.411   4.271
42780W        W11121  10.349   9.836  12.051
42781W        W11122   6.213  21.132   3.708
42782W        W11123  23.511  42.490   4.726
42783W        W11124  35.507  27.675  13.531
42784W        W11125  33.959   6.792  11.608
42785W        W11126  28.460  23.081   2.773
42786W        W11127  13.180  31.511   0.375
42787W        W11128  44.930  13.281   0.822
42788W        W11129  25.635  20.181  11.050
42789W        W11130  21.119  19.107   3.853
42790W        W11131  40.988  30.966  10.465
42791W        W11132  25.129   7.386  12.405
42792W        W11133  10.303  44.326  12.034
42793W        W11134  33.488   1.353   0.443
42794W        W11135  14.134  28.630  11.553
42795W        W11136   9.152  25.504  11.096
42796W        W11137  31.959  30.137   0.405
42797W        W11138   0.753  26.546   0.243
42798W        W11139   3.916  28.101  12.972
42799W        W11140   8.369  21.705   2.357
42800W        W11141  10.723   5.320  12.958
42801W        W11142  43.004  39.502  13.428
42802W        W11143  27.590  35.366  13.985
42803W        W11144  25.997  33.592   3.249
42804W        W11145  19.239  10.854  11.576
42805W        W11146  24.015  28.172   4.623
42806W        W11147  11.212  17.715   1.925
42807W        W11148  26.963  13.806  12.542
42808W        W11149   9.735  35.473  13.818
42809W        W11150  18.240  27.196  12.966
42810W        W11151  42.778  42.417   3.171
42811W        W11152   9.298   2.291   4.210
42812W        W11153  24.628  24.177  12.556
42813W        W11154  29.988   2.802  10.591
42814W        W11155   7.173  42.460  13.476
42815W        W11156   0.425  35.977  14.343
42816W        W11157  44.372  40.945  14.404
42817W        W11158  34.490  18.149  13.860
42818W        W11159  39.899  44.445   4.807
42819W        W11160   6.911  28.654   3.824
42820W        W11161  21.625  10.301   4.632
42821W        W11162  23.734  41.336   3.667
42822W        W11163  37.567  33.058   4.619
42823W        W11164   2.427  18.271   0.780
42824W        W11165  34.964  24.218   2.339
42825W        W11166  31.464  24.524  11.063
42826W        W11167  22.183   2.307  14.370
42827W        W11168  29.001  39.424  12.867
42828W        W11169  28.010  15.270  11.954
42829W        W11170  29.033  13.690  12.063
42830W        W11171  16.218   3.866  11.610
42831W        W11172   4.261  25.125  10.900
42832W        W11173  19.129  34.070   0.756
42833W        W11174  44.790  24.224  14.987
42834W        W11175  40.307  14.198  14.451
42835W        W11176  44.488  15.158  12.058
42836W        W11177  25.145  27.656  10.909
42837W        W11178  33.990  27.457   1.878
42838W        W11179  36.926  44.003   1.336
42839W        W11180  11.845   0.789   2.697
42840W        W11181  18.161  17.283   2.834
42841W        W11182  12.318  25.487   2.791
42842W        W11183  41.345  15.306   4.819
42843W        W11184  40.381  30.444   4.758
42844W        W11185  41.468  14.588  11.127
42845W        W11186   3.895  15.598   0.958
42846W        W11187   8.784   0.262  11.505
42847W        W11188  15.287  13.138  14.464
42848W        W11189  29.613  29.435  11.898
42849W        W11190  26.656  26.574  10.966
42850W        W11191   1.399  16.275   1.376
42851W        W11192  26.995  38.913   1.758
42852W        W11193  34.507  28.605  14.340
42853W        W11194   0.856  33.087   2.768
42854W        W11195  14.222  44.963   0.835
42855W        W11196  16.712  35.038  12.844
42856W        W11197   2.873   3.926  13.547
42857W        W11198   8.671  12.663  14.896
42858W        W11199  31.586  15.684  10.549
42859W        W11200   6.350  15.648   4.280
42860W        W11201  38.391  20.067   4.205
42861W        W11202   8.253  37.547   1.758
42862W        W11203   0.841  40.857  13.040
42863W        W11204  39.512   2.280  11.463
42864W        W11205  20.182  21.235   2.255
42865W        W11206  17.108  20.233   3.694
42866W        W11207   8.273  26.687  11.865
42867W        W11208  32.993  41.860   4.185
42868W        W11209  25.583  16.087  13.042
42869W        W11210  26.538  21.253  11.868
42870W        W11211  39.950  13.633  13.381
42871W        W11212  29.037  31.431   3.353
42872W        W11213  38.900  34.034   1.250
42873W        W11214  36.062  38.453   2.780
42874W        W11215  29.154  13.742   3.303
42875W        W11216  42.343  15.721  14.875
42876W        W11217  15.822  11.701   0.435
42877W        W11218  43.332  32.013  13.972
42878W        W11219   9.781  34.892  14.333
42879W        W11220  11.161  11.809   0.252
42880W        W11221  21.037   9.877  13.059
42881W        W11222  36.072   5.705  11.922
42882W        W11223  27.486   1.889  11.985
42883W        W11224  44.923  21.526   3.363
42884W        W11225  34.499  37.512  12.397
42885W        W11226   0.466  30.069  12.909
42886W        W11227  18.550  10.879   4.126
42887W        W11228  10.320  11.182   1.261
42888W        W11229  18.265  32.419   4.700
42889W        W11230  30.952  34.875   4.642
42890W        W11231  44.504  16.649  13.400
42891W        W11232   4.910  38.952  11.482
42892W        W11233  14.748  32.973   5.087
42893W        W11234  15.254  42.885   4.762
42894W        W11235   6.411  42.323  12.065
42895W        W11236  15.115   2.747  13.048
42896W        W11237  15.257  21.250  12.851
42897W        W11238  27.957  11.242   1.237
42898W        W11239   8.374  41.800  14.373
42899W        W11240  25.093  22.189   3.271
42900W        W11241  34.033  44.415  10.589
42901W        W11242   1.825  35.602   4.822
42902W        W11243   0.788   2.725  13.824
42903W        W11244   2.882  14.692   1.238
42904W        W11245  37.883  26.978   2.227
42905W        W11246  36.076   2.858   1.343
42906W        W11247  17.735  41.961   2.259
42907W        W11248  27.079   6.914  11.857
42908W        W11249  40.852  19.599   0.811
42909W        W11250  19.693  40.913   2.402
42910W        W11251  39.835  26.975  10.521
42911W        W11252  11.287  34.975  13.908
42912W        W11253  31.514  41.006   2.735
42913W        W11254  41.930  32.111   3.223
42914W        W11255  15.739  11.735  14.320
42915W        W11256   0.291  15.246  11.036
42916W        W11257  43.000  34.965   2.742
42917W        W11258  35.470  40.332   2.349
42918W        W11259   2.425  29.143   3.381
42919W        W11260  33.532  42.883   3.812
42920W        W11261  10.271  28.654  11.052
42921W        W11262   4.220  32.482   0.967
42922W        W11263  40.912  13.325  10.632
42923W        W11264  17.082   3.271  11.393
42924W        W11265  21.090  34.455  12.897
42925W        W11266  24.084  11.724  11.581
42926W        W11267  30.135  13.604  14.788
42927W        W11268  19.064  41.891   3.243
42928W        W11269  40.870   7.676  14.457
42929W        W11270  15.192  41.822  10.491
42930W        W11271  11.670  23.114  12.076
42931W        W11272  10.799  31.500  10.482
42932W        W11273  19.133  28.098  13.405
42933W        W11274  18.216  43.951   2.200
42934W        W11275  42.342  23.215  11.112
42935W        W11276  11.746  41.422   2.332
42936W        W11277  19.733  19.628  10.530
42937W        W11278  35.052  14.096   3.774
42938W        W11279  43.942  38.827   0.386
42939W        W11280  32.536   3.726   2.206
42940W        W11281  38.995  22.055   4.793
42941W        W11282  21.602   9.874  13.343
42942W        W11283  13.159  10.768   2.345
42943W        W11284  19.233  24.230   0.878
42944W        W11285   5.208  42.480  11.030
42945W        W11286  32.974  16.312  12.444
42946W        W11287  36.415  31.453  11.390
42947W        W11288  28.182  13.733   1.378
42948W        W11289  27.146  10.331  11.018
42949W        W11290  18.224  20.618  12.860
42950W        W11291   1.242  33.445   1.840
42951W        W11292  10.797   4.892   1.405
42952W        W11293  28.492  12.720   3.776
42953W        W11294  35.004   5.771  10.478
42954W        W11295   2.230   9.835  13.941
42955W        W11296  17.620  43.963  11.457
42956W        W11297   2.342   9.826   1.243
42957W        W11298  33.452  22.506  13.811
42958W        W11299  14.148  25.698   2.697
42959W        W11300   9.322  10.250  14.925
42960W        W11301  38.429  36.028  10.406
42961W        W11302   8.666   7.846   0.461
42962W        W11303  21.640  36.979  11.433
42963W        W11304  17.735  30.050  14.360
42964W        W11305  42.859   0.344  13.938
42965W        W11306   5.862   5.424  13.000
42966W        W11307  44.330  20.753   4.830
42967W        W11308   6.390  17.595   0.404
42968W        W11309  29.572  28.003  10.504
42969W        W11310  27.959  35.481   4.259
42970W        W11311  34.482   4.254   4.323
42971W        W11312  16.234  38.946   3.630
42972W        W11313  13.614  12.614  14.379
42973W        W11314  16.220  14.810  15.000
42974W        W11315  36.542  41.842  14.822
42975W        W11316  26.462  40.947  11.965
42976W        W11317  16.681   5.218   0.437
42977W        W11318  40.417   5.394  11.408
42978W        W11319  42.431  44.840  14.512
42979W        W11320  34.999  16.690  12.494
42980W        W11321  44.761  19.128   3.676
42981W        W11322  13.166   0.833  11.575
42982W        W11323  10.239  21.514   3.739
42983W        W11324  34.090  39.416  12.525
42984W        W11325  30.132  12.788   0.842
42985W        W11326  37.077  38.521   0.752
42986W        W11327  38.422  44.504   2.806
42987W        W11328  26.100   9.733   3.663
42988W        W11329   9.820  33.588  12.447
42989W        W11330  23.517   9.358   1.736
42990W        W11331  20.527   8.819  12.845
42991W        W11332   8.839   9.658   1.758
42992W        W11333  20.532  42.024  11.887
42993W        W11334  42.014  40.852   2.282
42994W        W11335   6.318   1.854  10.125
42995W        W11336  40.497  28.031   3.188
42996W        W11337  41.467   2.724  10.610
42997W        W11338  42.471  19.282   4.684
42998W        W11339   8.695  26.101  12.495
42999W        W11340   7.388  13.844  14.903
43000W        W11341  35.862   9.738  14.878
43001W        W11342  25.005   2.429  12.350
43002W        W11343  29.525  17.244  13.363
43003W        W11344  10.798  26.006  11.019
43004W        W11345  27.578  40.897  11.068
43005W        W11346  37.080  11.268   4.240
43006W        W11347  12.768   5.382  11.063
43007W        W11348  28.148   0.778   0.471
43008W        W11349  40.043   6.223  12.443
43009W        W11350  29.926  13.168   3.192
43010W        W11351  23.012  24.039   3.208
43011W        W11352  42.977  41.004  12.054
43012W        W11353  37.906   1.873   2.297
43013W        W11354  10.755  12.259  10.127
43014W        W11355  21.218  27.670  12.050
43015W        W11356  20.182  30.618   4.614
43016W        W11357  44.814  22.537  14.880
43017W        W11358  29.595  29.027   3.334
43018W        W11359  34.546   2.456   2.841
43019W        W11360  18.550  25.985  14.449
43020W        W11361   4.349  31.999   3.343
43021W        W11362  25.576  13.153  12.396
43022W        W11363   5.918  38.420  10.895
43023W        W11364  27.611  33.044   0.820
43024W        W11365   8.704  16.221  11.610
43025W        W11366   2.948  24.531  13.052
43026W        W11367  28.599  28.500   3.273
43027W        W11368  34.911  42.351   3.150
43028W        W11369  29.926  37.848  11.969
43029W        W11370  35.045  11.665  10.424
43030W        W11371  17.604  22.702  11.394
43031W        W11372   2.931  28.616   4.203
43032W        W11373  13.338   7.325   3.284
43033W        W11374  26.019   5.276   2.301
43034W        W11375   9.662   5.928  11.454
43035W        W11376  24.582  30.055  10.569
43036W        W11377   1.850  25.089   4.669
43037W        W11378   3.372  12.703   4.664
43038W        W11379  20.247   1.367  10.941
43039W        W11380  40.851  29.995   0.388
43040W        W11381  29.060  35.924   3.748
43041W        W11382  41.488  44.800  13.447
43042W        W11383  12.688  43.471  10.630
43043W        W11384  20.224  41.450  14.881
43044W        W11385  21.105  19.185   1.334
43045W        W11386  38.990   0.812  14.967
43046W        W11387   5.306  18.579  14.288
43047W        W11388   1.394   6.786  11.559
43048W        W11389  29.604   0.486   2.795
43049W        W11390  24.611  41.041  13.533
43050W        W11391   4.325  15.208  11.106
43051W        W11392   7.330  28.585   0.788
43052W        W11393  10.315   9.854  13.826
43053W        W11394  25.684  11.195  11.013
43054W        W11395  36.463   4.936   2.714
43055W        W11396   7.785  35.379   4.331
43056W        W11397  23.701  41.895  11.063
43057W        W11398  20.661   3.357   4.350
43058W        W11399  24.497   2.306  12.037
43059W        W11400  30.483  10.833   0.271
43060W        W11401  32.891   3.225   4.144
43061W        W11402  26.607  23.722  13.038
43062W        W11403  16.300   6.411  10.893
43063W        W11404  22.705  17.097   2.761
43064W        W11405   9.807  32.501  11.383
43065W        W11406  22.521  34.587  13.828
43066W        W11407  36.527  43.771  11.593
43067W        W11408  29.981   1.248  13.400
43068W        W11409  31.445  28.163   1.897
43069W        W11410  41.314   6.800   1.709
43070W        W11411  23.707  40.466  14.458
43071W        W11412   2.239  40.901  12.947
43072W        W11413  23.211  27.491  13.430
43073W        W11414  44.303  26.610  11.944
43074W        W11415   5.379  20.228   2.735
43075W        W11416  36.956  25.007   1.320
43076W        W11417  41.476  19.283   0.836
43077W        W11418  35.510   1.413  11.495
43078W        W11419  21.533  33.472   4.283
43079W        W11420  40.808  25.023  14.963
43080W        W11421  37.952  19.560  11.893
43081W        W11422   5.330   5.238  14.512
43082W        W11423  42.868  39.384   1.445
43083W        W11424  37.981  19.711  14.471
43084W        W11425  43.507  29.093   3.213
43085W        W11426  17.711  22.586  13.434
43086W        W11427  34.441  10.341   2.673
43087W        W11428  35.919  33.078   4.702
43088W        W11429  29.101  28.571   2.663
43089W        W11430  18.283  40.464   4.812
43090W        W11431  35.869   0.834  13.338
43091W        W11432  36.061  17.097   1.412
43092W        W11433   6.782  13.737   0.826
43093W        W11434  12.767  35.866   3.633
43094W        W11435   1.244  14.159   1.210
43095W        W11436  31.901  12.631  12.094
43096W        W11437  44.433  22.198  14.878
43097W        W11438  36.035   2.929   2.745
43098W        W11439  25.534  27.107  13.474
43099W        W11440  27.095  43.398   3.194
43100W        W11441   4.812   3.413  14.370
43101W        W11442  23.540  27.526  11.486
43102W        W11443  28.096  36.524  10.093
43103W        W11444  28.036  14.123   0.837
43104W        W11445  26.650   6.285   4.200
43105W        W11446  17.278  12.760  10.036
43106W        W11447  26.991  32.057  12.524
43107W        W11448  15.304  10.190   3.712
43108W        W11449  10.754  36.975   3.237
43109W        W11450  23.014  26.470   0.404
43110W        W11451  34.557  41.337   5.233
43111W        W11452   8.745  19.770  14.388
43112W        W11453  44.279  40.305   0.887
43113W        W11454   6.238  41.379   3.636
43114W        W11455   2.828  41.503   1.715
43115W        W11456  12.167  27.050  12.888
43116W        W11457  35.423   8.684   0.419
43117W        W11458  19.266  32.569  12.504
43118W        W11459  11.804  36.537   1.846
43119W        W11460  27.511   7.907  10.512
43120W        W11461  43.391  38.870   2.184
43121W        W11462  39.897   1.316   4.746
43122W        W11463   0.482  32.426   1.928
43123W        W11464  25.469   9.674   1.234
43124W        W11465  17.786  39.488  11.548
43125W        W11466  34.927  11.220  12.071
43126W        W11467  18.271   5.318   1.856
43127W        W11468  37.995  33.057  13.024
43128W        W11469  25.654  13.796  11.988
43129W        W11470  12.149  39.955  13.334
43130W        W11471  34.484  32.483  14.878
43131W        W11472   3.242  13.780   4.637
43132W        W11473  24.974  29.614  12.349
43133W        W11474  24.045  27.144   0.843
43134W        W11475  16.608   0.260   1.914
43135W        W11476  35.863   2.408  11.473
43136W        W11477  34.019  25.647   0.467
43137W        W11478  23.188  15.120   2.326
43138W        W11479  42.919  43.977   0.742
43139W        W11480   1.783  11.782   0.745
43140W        W11481  16.772   5.782  13.957
43141W        W11482  27.097   6.792  14.827
43142W        W11483  28.095  39.431  12.972
43143W        W11484  39.550   7.824  11.110
43144W        W11485  19.684  11.204  13.434
43145W        W11486  20.048  41.397   3.327
43146W        W11487   3.268  32.443   4.725
43147W        W11488  37.508   1.734  10.076
43148W        W11489  36.973  27.171   1.784
43149W        W11490  40.386  11.261  14.289
43150W        W11491  22.606  36.513   2.407
43151W        W11492   4.781  33.002  12.508
43152W        W11493  25.618  24.155   4.839
43153W        W11494  20.031   7.675  11.038
43154W        W11495  11.345  15.611  12.861
43155W        W11496   5.304  43.990  13.435
43156W        W11497  22.017  10.753  13.418
43157W        W11498   0.461   9.223   0.287
43158W        W11499   5.733   8.346   3.262
43159W        W11500  42.818  31.519  14.894
43160W        W11501   7.183  21.227   0.340
43161W        W11502  43.022  38.378   9.956
43162W        W11503  33.043  39.502  12.935
43163W        W11504  35.075  42.409   0.958
43164W        W11505  19.591  29.041   3.702
43165W        W11506  36.876  42.395  14.427
43166W        W11507  19.673   6.679  14.022
43167W        W11508  31.587  24.515  12.385
43168W        W11509  34.613  15.199   1.309
43169W        W11510  23.665  16.694   5.123
43170W        W11511  23.182  21.618   0.405
43171W        W11512  14.222  28.956   1.825
43172W        W11513  35.506   7.365   4.597
43173W        W11514  31.558  33.379  10.888
43174W        W11515   3.383  29.577   1.304
43175W        W11516  24.124  44.971  14.014
43176W        W11517   9.250  41.388   1.914
43177W        W11518   8.319  17.774  14.386
43178W        W11519   0.905   7.739   2.673
43179W        W11520  16.280  11.756   4.259
43180W        W11521   9.289   5.316  10.538
43181W        W11522   3.292  12.264  14.783
43182W        W11523  33.464   6.780  13.879
43183W        W11524   7.223  15.240   3.161
43184W        W11525  32.109  42.327   5.164
43185W        W11526   1.427   6.846  14.491
43186W        W11527  17.689  12.356   3.778
43187W        W11528   4.725  31.498  13.530
43188W        W11529   6.717   6.356  14.766
43189W        W11530  35.001  33.920  10.519
43190W        W11531  39.954  33.404   0.794
43191W        W11532  24.541  15.791  13.312
43192W        W11533   5.803  29.032   1.336
43193W        W11534  23.014  35.891  11.075
43194W        W11535  30.654   5.727  10.938
43195W        W11536  37.568  39.901   0.866
43196W        W11537   3.309  15.114  12.900
43197W        W11538  13.162  10.345  13.043
43198W        W11539   2.966  30.543   4.784
43199W        W11540  10.787   5.263  10.958
43200W        W11541   7.879  26.658  12.525
43201W        W11542  22.087  21.112   2.270
43202W        W11543  42.990  25.503  12.015
43203W        W11544  27.508   0.920  14.813
43204W        W11545  12.313   1.887   4.718
43205W        W11546  27.474  30.434  10.526
43206W        W11547  19.763   0.275   4.831
43207W        W11548  13.245  29.559  12.508
43208W        W11549  15.588   6.708   1.292
43209W        W11550   4.862  32.623  10.623
43210W        W11551   4.909  26.457   4.204
43211W        W11552  30.113   2.738   2.393
43212W        W11553  23.640  21.715  12.415
43213W        W11554  42.394  39.485   1.759
43214W        W11555  10.222  44.373  12.897
43215W        W11556  29.018  41.490   2.189
43216W        W11557   0.385  43.354  12.429
43217W        W11558   1.966  17.064   4.822
43218W        W11559  22.649  24.033  11.114
43219W        W11560  29.625  43.501  12.488
43220W        W11561  17.080  17.686   3.797
43221W        W11562   5.263  29.980  13.530
43222W        W11563  26.181  22.235  14.463
43223W        W11564  24.607  34.492  12.923
43224W        W11565  24.986   6.803  12.518
43225W        W11566  38.986   1.240   3.307
43226W        W11567  13.781   3.710   0.398
43227W        W11568   0.967  35.550   2.186
43228W        W11569  27.125   3.460   3.820
43229W        W11570  17.674  27.451   2.827
43230W        W11571  37.480  19.152   0.283
43231W        W11572   7.189  13.212   1.823
43232W        W11573  35.925  27.620   2.415
43233W        W11574   0.960  26.568  12.005
43234W        W11575  36.402  37.344   0.780
43235W        W11576   1.819  37.006  13.902
43236W        W11577   5.214  31.601  12.580
43237W        W11578  16.122  10.237   0.864
43238W        W11579  10.235  13.760  10.513
43239W        W11580  16.590  31.916   1.801
43240W        W11581  29.532  41.876  12.926
43241W        W11582   5.372  14.186   1.855
43242W        W11583   0.970   9.841   4.673
43243W        W11584  17.154  20.609   1.794
43244W        W11585  17.692  43.796  14.449
43245W        W11586  43.882  43.848  11.084
43246W        W11587  34.518  42.497  13.931
43247W        W11588  30.121  25.506  12.043
43248W        W11589  13.823   1.436   2.832
43249W        W11590  13.170   1.283  11.468
43250W        W11591  42.823  24.481  12.440
43251W        W11592   1.304  17.067   0.460
43252W        W11593  44.294   0.272  10.949
43253W        W11594   7.197  18.721  13.940
43254W        W11595  36.536   3.950  14.004
43255W        W11596  38.507  42.965   2.201
43256W        W11597  19.538  38.995   4.139
43257W        W11598  22.088   9.746   1.392
43258W        W11599  17.616  44.850   3.723
43259W        W11600  14.227  24.601  12.424
43260W        W11601   3.379  33.887   4.170
43261W        W11602  32.939  10.161   3.870
43262W        W11603  19.265  17.197  10.993
43263W        W11604  44.500   7.905   0.267
43264W        W11605  22.030  38.385   0.271
43265W        W11606  10.767  10.659  14.442
43266W        W11607  42.887  23.168   2.254
43267W        W11608  39.826  29.531   0.772
43268W        W11609  44.306  33.909   2.767
43269W        W11610   6.397  18.724  13.370
43270W        W11611  28.505   0.289  11.395
43271W        W11612  27.163   0.338  12.535
43272W        W11613  18.179  23.594   3.791
43273W        W11614  38.843  27.498   3.192
43274W        W11615  22.242  35.991   2.248
43275W        W11616  32.962  20.599   4.651
43276W        W11617  36.589  41.379  14.000
43277W        W11618  27.549  33.091   3.233
43278W        W11619   2.726  24.100  12.987
43279W        W11620  19.253  17.135  14.859
43280W        W11621   9.829  34.045   3.684
43281W        W11622  15.602  14.314   2.286
43282W        W11623  22.019   5.299  14.288
43283W        W11624  12.269  40.889  14.006
43284W        W11625  18.745  32.602   1.259
43285W        W11626   2.267  16.753   3.791
43286W        W11627   5.701  41.001  13.308
43287W        W11628  24.616  23.013   1.225
43288W        W11629  20.147  18.678   2.699
43289W        W11630   9.323   5.316  11.919
43290W        W11631  10.209  41.820   3.174
43291W        W11632  29.455  34.598   2.380
43292W        W11633  20.106  22.046   1.696
43293W        W11634  29.065  29.998  10.526
43294W        W11635  10.216  12.244   0.364
43295W        W11636  36.919   1.870  14.277
43296W        W11637  33.038  23.022  10.440
43297W        W11638  38.501  33.586   3.253
43298W        W11639  33.056  44.410  10.960
43299W        W11640  18.236   8.253  12.537
43300W        W11641  30.086  22.713  11.997
43301W        W11642  17.699   9.668   1.430
43302W        W11643  14.717  14.675  12.836
43303W        W11644  12.237  25.621  11.939
43304W        W11645  10.255  18.615   4.774
43305W        W11646  27.628  38.918   0.328
43306W        W11647  40.824  31.151   2.860
43307W        W11648   3.355  39.893   0.302
43308W        W11649  13.720  17.270   0.282
43309W        W11650  17.718   3.917  12.503
43310W        W11651  30.122   4.356  13.480
43311W        W11652  25.616  26.179  13.955
43312W        W11653  13.165  38.908  11.127
43313W        W11654  14.260  27.664   1.223
43314W        W11655  36.406  41.311  14.894
43315W        W11656  43.946  43.810   2.761
43316W        W11657  13.249  28.578   2.735
43317W        W11658  35.022  15.323  12.391
43318W        W11659  43.345   2.429  14.281
43319W        W11660   7.392  39.889  12.925
43320W        W11661  19.057   0.485   1.851
43321W        W11662  41.425  23.545  13.503
43322W        W11663  43.314  19.116   2.896
43323W        W11664  24.563  14.634   1.726
43324W        W11665   7.401   2.250   3.209
43325W        W11666  29.148  18.593  14.894
43326W        W11667  35.906  12.181  11.508
43327W        W11668  38.442  13.276   0.382
43328W        W11669  21.168   9.869  14.424
43329W        W11670  41.379  18.156  12.958
43330W        W11671  24.624  43.452  13.524
43331W        W11672  36.860  10.729   3.361
43332W        W11673   5.389  25.095  11.016
43333W        W11674   4.714  28.006  12.910
43334W        W11675  32.059  29.000  12.433
43335W        W11676   5.725  44.917  11.107
43336W        W11677   6.801  11.810   2.817
43337W        W11678   1.844  11.816  12.560
43338W        W11679  36.538  17.180  14.906
43339W        W11680  19.098  29.624  11.401
43340W        W11681  14.802  20.539  14.446
43341W        W11682  40.530  18.767  11.438
43342W        W11683  18.755  32.139   5.180
43343W        W11684   4.890  24.215   9.951
43344W        W11685  21.185  35.002   5.190
43345W        W11686  31.990  34.444   1.409
43346W        W11687  25.563  24.175   0.788
43347W        W11688  19.616  28.182   4.678
43348W        W11689  21.023  42.457   3.343
43349W        W11690   2.408  35.374   0.313
43350W        W11691   8.742   4.920  12.868
43351W        W11692  35.000  14.784  14.801
43352W        W11693  24.565  40.916   2.801
43353W        W11694  35.862  40.956   1.819
43354W        W11695   3.245  17.579   4.621
43355W        W11696  24.600  27.496  13.397
43356W        W11697  30.013   4.891  13.390
43357W        W11698  21.559   4.903   2.250
43358W        W11699  21.550  20.252  13.064
43359W        W11700  27.533  37.352   1.849
43360W        W11701   1.937   9.387  14.916
43361W        W11702  12.348  26.086   1.847
43362W        W11703   6.765  37.057   3.827
43363W        W11704  13.775  21.066   4.149
43364W        W11705   1.799   1.335  11.034
43365W        W11706  34.437  28.120   4.830
43366W        W11707   3.237  11.764  10.512
43367W        W11708   4.932  29.093  10.900
43368W        W11709   1.457   9.889   0.390
43369W        W11710  37.962  42.788   2.241
43370W        W11711  38.432  44.962   4.307
43371W        W11712  38.366  41.914   2.885
43372W        W11713  15.707  29.940   0.838
43373W        W11714  42.882  43.839  10.556
43374W        W11715  24.216  26.520  14.882
43375W        W11716  32.534  27.126   3.743
43376W        W11717  16.296  23.051   0.963
43377W        W11718  26.684   3.413  13.440
43378W        W11719   5.303  15.642  13.063
43379W        W11720  11.666  29.981  13.332
43380W        W11721  34.914   0.424   1.714
43381W        W11722   8.247   9.648  10.520
43382W        W11723  43.432  23.569   2.222
43383W        W11724  30.958  12.741  14.866
43384W        W11725  27.556  23.711  13.948
43385W        W11726   9.276  30.009   2.668
43386W        W11727  11.864  23.548  12.074
43387W        W11728  34.438   4.762  12.832
43388W        W11729   6.379  22.185  13.450
43389W        W11730  25.016  39.501   3.803
43390W        W11731  30.463   7.171  11.491
43391W        W11732  27.104  33.046  14.934
43392W        W11733   3.776  24.635   3.635
43393W        W11734  33.006  26.499   2.700
43394W        W11735  41.979  18.084  14.998
43395W        W11736  43.285  21.607   3.262
43396W        W11737  26.692  37.876   0.310
43397W        W11738  44.939   5.783  14.483
43398W        W11739  15.765  13.345  13.831
43399W        W11740   0.846  39.473  13.005
43400W        W11741  31.480  35.949   0.959
43401W        W11742  35.933   0.906  14.410
43402W        W11743  16.630   2.458   2.379
43403W        W11744  39.050  14.330  14.325
43404W        W11745  43.353  24.672  13.878
43405W        W11746  31.573  10.805   4.650
43406W        W11747   6.774   7.194   3.290
43407W        W11748   1.940  37.357  14.321
43408W        W11749  43.947  44.911  14.922
43409W        W11750  25.183  10.702  14.295
43410W        W11751  25.509  38.894   1.265
43411W        W11752  33.954  21.098   1.357
43412W        W11753  35.994   7.304  11.049
43413W        W11754   4.937   1.933  10.973
43414W        W11755  25.108  33.582   0.905
43415W        W11756   8.683  22.147  14.376
43416W        W11757  24.582  10.238  14.857
43417W        W11758  17.074  38.476   0.308
43418W        W11759   7.851   1.737   0.746
43419W        W11760  10.781  13.121  12.909
43420W        W11761  30.639  11.365  14.886
43421W        W11762   2.284  43.009   1.271
43422W        W11763   0.404  14.589  13.413
43423W        W11764  37.897  27.508   1.755
43424W        W11765   1.775  18.239  11.917
43425W        W11766  15.298  34.571   1.268
43426W        W11767  18.054   7.408  12.455
43427W        W11768  42.922   1.416   4.666
43428W        W11769  34.568  19.084   4.639
43429W        W11770   5.783   9.819  10.464
43430W        W11771  19.738  30.469  11.918
43431W        W11772  17.716  43.997   3.160
43432W        W11773  40.982  29.653   1.870
43433W        W11774  15.811  20.549  14.982
43434W        W11775   1.966  13.709   0.471
43435W        W11776  14.639   4.846  12.017
43436W        W11777  32.946   1.255  13.313
43437W        W11778  44.270  24.127   5.091
43438W        W11779  37.542  27.472  10.499
43439W        W11780  18.111   6.291   3.237
43440W        W11781  30.958  25.111  14.379
43441W        W11782  14.234   3.294  14.885
43442W        W11783  42.018  30.927   0.761
43443W        W11784  38.051  43.810   2.793
43444W        W11785  10.195   1.257  12.971
43445W        W11786  38.566   3.851   4.768
43446W        W11787  23.183  24.666  13.523
43447W        W11788  21.168  10.870  14.515
43448W        W11789   2.826  35.921   0.932
43449W        W11790   6.350  38.887   5.134
43450W        W11791  34.981   8.671   1.921
43451W        W11792  19.751   3.414  11.587
43452W        W11793  25.995  38.836  11.544
43453W        W11794   8.371  31.977   2.833
43454W        W11795  19.741  31.570   0.943
43455W        W11796  34.370  25.689  10.515
43456W        W11797  30.552  33.487   2.774
43457W        W11798  41.834  27.117   3.375
43458W        W11799  29.477  18.772  11.020
43459W        W11800  37.518  38.565   3.756
43460W        W11801  19.564  37.881   0.291
43461W        W11802   3.867  20.068  11.411
43462W        W11803   0.404  30.517  13.897
43463W        W11804   9.754  40.443   0.783
43464W        W11805   2.893  13.231  12.484
43465W        W11806  38.909  24.140   1.768
43466W        W11807   6.874  18.167   1.904
43467W        W11808   3.852  13.835   4.740
43468W        W11809   9.658   7.285   4.286
43469W        W11810  19.695  16.117  13.396
43470W        W11811   0.949  36.920   2.185
43471W        W11812  42.491  19.769  12.909
43472W        W11813  42.419  25.094   4.677
43473W        W11814  44.008  29.589  11.534
43474W        W11815  30.013  35.436  14.366
43475W        W11816  34.900   1.802  14.915
43476W        W11817  36.592  37.907  11.899
43477W        W11818  30.090   9.194   2.275
43478W        W11819  27.687  43.939  13.544
43479W        W11820  27.065  30.644  13.873
43480W        W11821  42.864  39.896   0.954
43481W        W11822  42.383  44.316  13.903
43482W        W11823  20.575  42.328   2.742
43483W        W11824   4.871  38.024   1.706
43484W        W11825  42.988  23.205  12.002
43485W        W11826  36.090  15.716   1.388
43486W        W11827  34.466  35.454   1.792
43487W        W11828  39.327  26.150   3.176
43488W        W11829  23.586  38.021  12.920
43489W        W11830  24.124   7.686   0.413
43490W        W11831  24.025   3.761   2.664
43491W        W11832  15.083  42.340  14.482
43492W        W11833  12.274  30.416   1.326
43493W        W11834  23.199  12.343  14.030
43494W        W11835  38.428   2.830   4.330
43495W        W11836  37.506  44.996   2.770
43496W        W11837  12.733   3.925   3.297
43497W        W11838  31.533  34.970   1.754
43498W        W11839  20.110  19.591   0.933
43499W        W11840  27.643  28.942  12.437
43500W        W11841  41.442   8.878  14.847
43501W        W11842   5.883  18.634   2.706
43502W        W11843  25.575  37.381  13.969
43503W        W11844  33.490  17.600  10.433
43504W        W11845  37.857  23.201   3.746
43505W        W11846  34.565  31.475   2.290
43506W        W11847  40.514  30.633   1.341
43507W        W11848  25.094  15.792   2.787
43508W        W11849  27.677   8.802   1.284
43509W        W11850  23.682   9.212  14.426
43510W        W11851  25.655  22.077  12.050
43511W        W11852  44.793  39.382   2.686
43512W        W11853   8.357  33.929  12.578
43513W        W11854  27.981   2.818  11.439
43514W        W11855  18.073   6.784   3.259
43515W        W11856   2.315   6.684  11.058
43516W        W11857  19.259  31.080   0.316
43517W        W11858   0.985  28.467   4.615
43518W        W11859   4.756  22.092   3.761
43519W        W11860   0.257  41.295   3.355
43520W        W11861  42.912  11.301   2.893
43521W        W11862  39.457   2.814  11.976
43522W        W11863  27.977   0.279   3.238
43523W        W11864  43.961  15.230   3.198
43524W        W11865  39.842  35.984   4.119
43525W        W11866   7.266  13.690  14.376
43526W        W11867  29.116  39.853   1.373
43527W        W11868  41.298   0.954  13.430
43528W        W11869  32.518  41.358   2.379
43529W        W11870  17.794   1.787   1.312
43530W        W11871  28.084   0.457   1.777
43531W        W11872  26.553  20.029   4.787
43532W        W11873  37.881  28.593  12.373
43533W        W11874  20.529  34.517   2.887
43534W        W11875   9.361  15.655  12.385
43535W        W11876  31.640  22.739  13.509
43536W        W11877   9.297  16.573   4.800
43537W        W11878  41.503  13.785   4.820
43538W        W11879  20.652  37.473   0.802
43539W        W11880  14.788  41.798  13.345
43540W        W11881   5.892  29.057  11.080
43541W        W11882   4.374  27.148   2.291
43542W        W11883  24.143  43.397   2.270
43543W        W11884   4.288   7.888   1.822
43544W        W11885  32.590  42.921  12.067
43545W        W11886  11.742  11.356  13.443
43546W        W11887  44.954  33.533   2.772
43547W        W11888  38.423  32.599  12.879
43548W        W11889  28.587  14.670  12.047
43549W        W11890  27.509  20.213  10.643
43550W        W11891  41.799  30.076  11.417
43551W        W11892  44.451  33.552  11.955
43552W        W11893   3.417  24.571  11.373
43553W        W11894  41.487  16.614   1.697
43554W        W11895  26.566   5.349   1.218
43555W        W11896  37.357  31.994  12.041
43556W        W11897   3.792  30.594   3.252
43557W        W11898   8.346   1.807  14.779
43558W        W11899   1.285  42.523   1.432
43559W        W11900   9.283  32.957  14.431
43560W        W11901  28.658  21.646   1.320
43561W        W11902  43.278  20.194  13.826
43562W        W11903   1.977  30.449  12.416
43563W        W11904  25.573  10.793   2.178
43564W        W11905  16.247  32.475  12.538
43565W        W11906  31.931   2.886   4.771
43566W        W11907  27.510   1.324   3.717
43567W        W11908  42.439  24.692   2.390
43568W        W11909   6.806  28.996   3.794
43569W        W11910  16.221   7.769  13.878
43570W        W11911  26.698  42.939   0.436
43571W        W11912   7.321  31.146  12.473
43572W        W11913  39.334  25.563   1.814
43573W        W11914  42.919  24.531  13.318
43574W        W11915  28.094  23.546  14.860
43575W        W11916  35.887  38.915  12.853
43576W        W11917  19.540  40.980  12.965
43577W        W11918   6.689   7.341   2.691
43578W        W11919  29.530  21.149  11.591
43579W        W11920   5.215  43.328  14.395
43580W        W11921  13.798  26.071  14.284
43581W        W11922  25.485  14.315  11.074
43582W        W11923  31.588  10.682   2.718
43583W        W11924  36.949  14.746   1.359
43584W        W11925  22.199  41.841  13.795
43585W        W11926  27.576  44.484   2.856
43586W        W11927  13.113  15.731  12.890
43587W        W11928  44.945   5.763   1.330
43588W        W11929  40.523  33.477   2.830
43589W        W11930   7.384  20.595  13.031
43590W        W11931  35.391  22.114  11.089
43591W        W11932  20.723  19.587   4.340
43592W        W11933  44.814  14.734   4.293
43593W        W11934  34.599   9.393  12.430
43594W        W11935  43.791  10.207  14.792
43595W        W11936  33.499  42.375   2.278
43596W        W11937   9.878  12.164  13.529
43597W        W11938  20.543  19.592   0.748
43598W        W11939  35.927   2.752   1.733
43599W        W11940  31.053  32.078  11.432
43600W        W11941  36.371  32.529  10.410
43601W        W11942   5.359  38.962  14.408
43602W        W11943  18.741  24.480   0.948
43603W        W11944  10.234   7.742   2.840
43604W        W11945  16.573  12.146   3.841
43605W        W11946   1.872   7.698   1.278
43606W        W11947  40.964  19.753   2.310
43607W        W11948  44.389  21.644   5.083
43608W        W11949  10.272  21.628  12.913
43609W        W11950  43.281  35.563  12.858
43610W        W11951  36.018  34.867   2.237
43611W        W11952  15.216  33.929  12.993
43612W        W11953  40.407  19.280  11.422
43613W        W11954  43.317  12.252  12.522
43614W        W11955   7.800  34.473   2.894
43615W        W11956  24.678  15.207   2.697
43616W        W11957  21.057  37.495  14.487
43617W        W11958  37.036   7.775   2.778
43618W        W11959  14.794  15.674   4.656
43619W        W11960  24.126  18.720  14.913
43620W        W11961  27.655  25.114  11.060
43621W        W11962  37.900  35.950   2.805
43622W        W11963  33.929  40.545  11.562
43623W        W11964  41.904  10.263   0.306
43624W        W11965  44.270  41.518   2.261
43625W        W11966  43.441  10.186  10.081
43626W        W11967  41.823   9.368  10.624
43627W        W11968   6.916  28.134  10.452
43628W        W11969   6.736  23.057  13.000
43629W        W11970  21.130  44.953  11.438
43630W        W11971  40.442  22.523   1.358
43631W        W11972   2.245   2.419   1.729
43632W        W11973  22.065  26.654   2.391
43633W        W11974  10.774  39.927  12.851
43634W        W11975   3.847  18.731   1.301
43635W        W11976  21.609   7.768  10.494
43636W        W11977  27.166  33.454   0.300
43637W        W11978  15.249  16.204  12.419
43638W        W11979  10.322  24.682  14.003
43639W        W11980  26.074  30.468  13.849
43640W        W11981  27.458   3.351  10.450
43641W        W11982  40.309  25.713   1.900
43642W        W11983  13.684  29.465  10.439
43643W        W11984  33.606   8.406   2.898
43644W        W11985   0.873   3.445   3.756
43645W        W11986  38.059  37.390  13.951
43646W        W11987  32.031  12.194  12.075
43647W        W11988  31.128   2.948   4.823
43648W        W11989  36.462   5.360  11.054
43649W        W11990  19.583  30.421  12.963
43650W        W11991  44.845   3.851   1.267
43651W        W11992  26.079  42.861   4.237
43652W        W11993  18.290  38.355   1.708
43653W        W11994  20.631   3.781  11.975
43654W        W11995  40.934  13.774   4.206
43655W        W11996   6.849  10.221   0.929
43656W        W11997  12.705  16.263   2.396
43657W        W11998  20.538  41.897   0.362
43658W        W11999   0.327  35.529   0.890
43659W        W12000  41.977  29.936   4.207
43660W        W12001  25.548  14.780  10.521
43661W        W12002  32.551   2.773   3.174
43662W        W12003  41.431  39.859   4.724
43663W        W12004  10.703   1.277   4.642
43664W        W12005  19.178   5.856   3.779
43665W        W12006  22.031  32.040   3.308
43666W        W12007  14.771  21.615  12.369
43667W        W12008  21.621  16.575  13.037
43668W        W12009   1.824  29.172   3.265
43669W        W12010  15.625  12.849  10.474
43670W        W12011  21.206   9.261   3.376
43671W        W12012  25.560  36.866  13.963
43672W        W12013  43.465  15.271   4.740
43673W        W12014   4.298   2.731   1.435
43674W        W12015  29.964  15.190  11.554
43675W        W12016  29.061  34.875  13.432
43676W        W12017  44.342  14.304  10.961
43677W        W12018  15.271  43.399  12.081
43678W        W12019  17.168  30.516   1.832
43679W        W12020  25.173  37.084  11.465
43680W        W12021   1.783  19.671   3.857
43681W        W12022  24.671   2.732  13.428
43682W        W12023  27.654  21.519  12.540
43683W        W12024   9.275  26.954   3.719
43684W        W12025  41.994  26.685  10.066
43685W        W12026  32.413  29.960   2.296
43686W        W12027  28.045  20.556  12.442
43687W        W12028  17.739  30.075  13.418
43688W        W12029  14.780  24.712  11.024
43689W        W12030  11.677  25.979   0.431
43690W        W12031  30.579  19.666  13.363
43691W        W12032   9.164   2.336   0.368
43692W        W12033  19.699  19.644   4.221
43693W        W12034   4.781  35.384   1.304
43694W        W12035  11.194  40.305  13.450
43695W        W12036   5.193  24.025  12.071
43696W        W12037  42.381  17.687   1.889
43697W        W12038  17.629   6.678  14.779
43698W        W12039  23.112  23.508   0.800
43699W        W12040  31.475  18.647   4.118
43700W        W12041  19.697  23.148  13.526
43701W        W12042  32.975  40.925   1.257
43702W        W12043  40.338   2.909   4.644
43703W        W12044  37.503  15.086   0.335
43704W        W12045  20.064  35.053   1.795
43705W        W12046   6.748   5.341  12.028
43706W        W12047   4.282  23.706  12.350
43707W        W12048  20.183  27.681  12.518
43708W        W12049  10.157  13.684   4.695
43709W        W12050   7.745  40.989  12.992
43710W        W12051   9.652  26.508   2.820
43711W        W12052  23.047  17.197   4.301
43712W        W12053   2.431  16.124   1.440
43713W        W12054  35.069  23.491   0.455
43714W        W12055  25.499  34.885  12.986
43715W        W12056  28.560  25.501  10.962
43716W        W12057  25.994  40.400   1.230
43717W        W12058   4.403  31.411  12.368
43718W        W12059  29.459  36.592   1.384
43719W        W12060  34.868  30.564  14.333
43720W        W12061  22.634   7.910  11.948
43721W        W12062   3.936  44.886  13.001
43722W        W12063  33.626  24.161   3.181
43723W        W12064  38.015  27.503   1.249
43724W        W12065  13.835  21.030  14.779
43725W        W12066   6.213  26.041  13.537
43726W        W12067  16.101  32.044  13.950
43727W        W12068  10.674  33.034  14.792
43728W        W12069  31.079  36.549   0.824
43729W        W12070  14.763  24.486   2.869
43730W        W12071  28.535  13.837   4.649
43731W        W12072  43.269  13.806  11.991
43732W        W12073  34.959  44.853   0.879
43733W        W12074  18.663  22.515  14.284
43734W        W12075  20.261  36.875  11.101
43735W        W12076  10.279   1.945   3.716
43736W        W12077   8.261  40.001  14.331
43737W        W12078   5.312   3.282  13.362
43738W        W12079  23.026   0.353  11.548
43739W        W12080  33.939  29.935   4.273
43740W        W12081  42.423   0.768   4.263
43741W        W12082  10.727   7.798  13.818
43742W        W12083  35.593  41.393   2.701
43743W        W12084  43.378  43.008   4.257
43744W        W12085   5.892  42.457  11.589
43745W        W12086  30.088  15.781   0.751
43746W        W12087  33.567  28.025   1.763
43747W        W12088  39.828   1.784  10.441
43748W        W12089  30.611  36.016  12.873
43749W        W12090  11.821  38.045   4.162
43750W        W12091  36.499  20.165  12.954
43751W        W12092  31.150   5.216   0.845
43752W        W12093  33.390   9.644   1.809
43753W        W12094  36.954  20.628  11.485
43754W        W12095  25.185  27.106   0.348
43755W        W12096  25.018  21.612  11.459
43756W        W12097  15.584  15.266  13.503
43757W        W12098  26.021   4.809  11.885
43758W        W12099   3.284  31.154   1.334
43759W        W12100  44.329  12.168  10.929
43760W        W12101  31.934  21.192   3.231
43761W        W12102  10.278  36.010  14.858
43762W        W12103  15.724  40.873   3.670
43763W        W12104  27.101  21.690   3.644
43764W        W12105  29.588   2.276  11.435
43765W        W12106   9.870  44.392   1.776
43766W        W12107  26.071  39.328  12.458
43767W        W12108  28.510  39.057   2.857
43768W        W12109   1.470  18.134   2.224
43769W        W12110   3.396  14.674   3.275
43770W        W12111  40.997  37.355   4.337
43771W        W12112   4.403  18.723   3.788
43772W        W12113  16.107   3.420  14.305
43773W        W12114  22.539   3.920   2.345
43774W        W12115   3.304  23.515  10.521
43775W        W12116  42.499  16.168   0.851
43776W        W12117  18.689  34.866   1.263
43777W        W12118  21.530  16.706  12.438
43778W        W12119  15.230   6.200  12.983
43779W        W12120  35.042  40.797   5.167
43780W        W12121  10.791  29.536   0.787
43781W        W12122  20.181  38.959   1.824
43782W        W12123  40.324  43.888  10.519
43783W        W12124  18.654  26.544   2.399
43784W        W12125  26.108  13.708  11.902
43785W        W12126  31.548   2.905   1.927
43786W        W12127  22.040  30.974   2.387
43787W        W12128   8.683  32.034  14.332
43788W        W12129  25.168  29.112   1.302
43789W        W12130  19.729  13.678  10.571
43790W        W12131   0.441  11.837   0.764
43791W        W12132  29.482  40.955  12.076
43792W        W12133  10.210  19.074  11.406
43793W        W12134   3.405  15.687   3.760
43794W        W12135  37.954   1.943   1.220
43795W        W12136   4.793   5.424   0.352
43796W        W12137  44.784   3.319   0.882
43797W        W12138  22.647  19.105  11.116
43798W        W12139  41.872   4.447  12.400
43799W        W12140  16.193  44.835   1.874
43800W        W12141  14.811  23.119   4.159
43801W        W12142   5.342   5.921  11.539
43802W        W12143   7.235  39.845  12.374
43803W        W12144  37.917   3.346  13.057
43804W        W12145  17.597   1.435   3.151
43805W        W12146  37.891  12.776   2.256
43806W        W12147  27.491  25.985  13.793
43807W        W12148  17.755  24.520   9.561
43808W        W12149  41.982  26.666   4.664
43809W        W12150  18.253   5.274   1.439
43810W        W12151  14.599  27.133   1.875
43811W        W12152  13.618   6.205  13.386
43812W        W12153  39.893  42.415  12.380
43813W        W12154  40.432  43.472  10.079
43814W        W12155  22.228  20.587   4.600
43815W        W12156  38.498  17.223   3.164
43816W        W12157  10.295  10.314   4.771
43817W        W12158  32.073  41.913  13.841
43818W        W12159  36.988   2.933  13.827
43819W        W12160  27.966   9.221   3.228
43820W        W12161   6.418   4.797  13.529
43821W        W12162   2.748  15.243   0.294
43822W        W12163  30.066   7.416   3.787
43823W        W12164  19.086  25.172   2.286
43824W        W12165  15.151  32.034  13.904
43825W        W12166  21.667  20.094  13.814
43826W        W12167   2.853  35.501  12.078
43827W        W12168   0.804  20.229  10.421
43828W        W12169  13.112   4.737  14.295
43829W        W12170  14.604  35.382   1.701
43830W        W12171  17.685  40.356  13.502
43831W        W12172  40.514  23.201  14.023
43832W        W12173  33.986   0.880   0.804
43833W        W12174  15.137  29.529   0.415
43834W        W12175  26.479   9.785   1.745
43835W        W12176  29.940  16.652   1.228
43836W        W12177  42.355   0.847   1.416
43837W        W12178  23.132  17.167  12.984
43838W        W12179   3.351   3.423   2.276
43839W        W12180  18.202   4.366   1.273
43840W        W12181   2.400  29.976  10.632
43841W        W12182  42.296  30.101   1.451
43842W        W12183  17.700  14.639   3.231
43843W        W12184  38.948  40.052   0.965
43844W        W12185  15.587  22.096  11.568
43845W        W12186  33.404  26.206  14.844
43846W        W12187   3.941  16.157   4.170
43847W        W12188   2.407  31.454  12.008
43848W        W12189  14.823  19.617   2.810
43849W        W12190  38.929  44.300  10.032
43850W        W12191  44.483  26.178   4.701
43851W        W12192  42.293  33.936   3.775
43852W        W12193  19.773   1.418   1.247
43853W        W12194  39.839   9.680  14.477
43854W        W12195  14.767  11.330   0.376
43855W        W12196  15.119  42.913   3.857
43856W        W12197   7.859   4.255   0.362
43857W        W12198  39.024  44.449   1.793
43858W        W12199  14.619   0.918   3.790
43859W        W12200  27.009  35.364   0.780
43860W        W12201  26.991  21.233   2.820
43861W        W12202  23.149   5.262   4.324
43862W        W12203  29.620  44.266   0.817
43863W        W12204  34.389  31.940   3.792
43864W        W12205   3.884   9.758   2.180
43865W        W12206  17.297  13.207  12.858
43866W        W12207  23.103  13.786  14.452
43867W        W12208  29.642   7.310  13.956
43868W        W12209  14.215  31.503   0.801
43869W        W12210  43.389  41.869  14.937
43870W        W12211  29.923  26.521   5.124
43871W        W12212   9.887  24.081  13.368
43872W        W12213  15.592   9.659   1.708
43873W        W12214  36.884  21.209   4.125
43874W        W12215  43.891  32.932  10.628
43875W        W12216  26.980   8.183  14.512
43876W        W12217  28.008  21.057  10.895
43877W        W12218  40.818  40.865   2.221
43878W        W12219   4.883   1.462  11.027
43879W        W12220   1.384  19.258  14.478
43880W        W12221  44.913  28.048  13.911
43881W        W12222  16.233  11.753  14.941
43882W        W12223  10.362   1.279   3.217
43883W        W12224   2.948  36.582  14.419
43884W        W12225   2.319  28.494   0.921
43885W        W12226  24.224  34.602   0.856
43886W        W12227  40.356  27.954  10.408
43887W        W12228  12.296  44.793  14.419
43888W        W12229  33.498   9.172  12.007
43889W        W12230  27.506   6.703   1.759
43890W        W12231  11.817  26.680  13.022
43891W        W12232   1.794   7.405   4.353
43892W        W12233  44.878   0.784  14.019
43893W        W12234   3.388  15.301   2.872
43894W        W12235  20.680  30.138   2.242
43895W        W12236   6.753  26.661  11.503
43896W        W12237  20.530  41.294  11.465
43897W        W12238  20.748   3.735   0.833
43898W        W12239   4.402  20.229   3.173
43899W        W12240  42.843  24.106  13.355
43900W        W12241   6.406  10.303  10.569
43901W        W12242  31.469  16.652  14.509
43902W        W12243   2.889   3.871  11.376
43903W        W12244   5.336   5.353  11.421
43904W        W12245  32.963  24.714   0.849
43905W        W12246  41.507  37.894  14.862
43906W        W12247  42.374  12.817   2.218
43907W        W12248   9.313  13.716   3.206
43908W        W12249  14.741   4.357   0.803
43909W        W12250  31.563  13.131   3.863
43910W        W12251  14.256  20.227  14.004
43911W        W12252  43.979  14.603   2.402
43912W        W12253  43.892  35.582  12.435
43913W        W12254  22.232  21.552  11.103
43914W        W12255  18.643  35.444   2.195
43915W        W12256  14.772  15.732  14.938
43916W        W12257   6.797   9.716   4.798
43917W        W12258   8.394  17.749  12.074
43918W        W12259  42.918  31.054   2.792
43919W        W12260  17.622  41.384   3.739
43920W        W12261   4.755  40.463   2.404
43921W        W12262  32.395  33.570  13.939
43922W        W12263  18.707  41.390   1.282
43923W        W12264  15.282  37.926   0.281
43924W        W12265  39.474  31.037   2.190
43925W        W12266  37.077   3.455   1.801
43926W        W12267  41.798  14.249   3.164
43927W        W12268   8.314   0.802  10.918
43928W        W12269   0.946  18.712  14.014
43929W        W12270  13.698   8.680   1.314
43930W        W12271  25.140   2.284  13.361
43931W        W12272   6.895  40.900  10.620
43932W        W12273   8.726  10.642  11.110
43933W        W12274  18.723  22.610   1.245
43934W        W12275   2.892   7.330   0.383
43935W        W12276   4.335  20.098  11.969
43936W        W12277  22.682   8.317   4.281
43937W        W12278  20.745   5.888   2.253
43938W        W12279  10.232   6.384   1.429
43939W        W12280  36.533  24.584  14.945
43940W        W12281  40.393   4.269  13.839
43941W        W12282  41.294  26.561  10.946
43942W        W12283  37.550   4.449   3.630
43943W        W12284  35.375  21.527   3.634
43944W        W12285  29.487  21.705  10.911
43945W        W12286  29.543  23.105  12.023
43946W        W12287  32.127  30.455   3.301
43947W        W12288  24.499  32.594  12.073
43948W        W12289  35.603  23.148   0.341
43949W        W12290   9.258  17.728  14.870
43950W        W12291  18.217  41.346   1.374
43951W        W12292  17.599  28.463   1.838
43952W        W12293   7.334  36.971   2.804
43953W        W12294   5.211  34.594  14.278
43954W        W12295   2.281  32.618  12.940
43955W        W12296  35.487   7.224  13.474
43956W        W12297   1.334   0.490  14.481
43957W        W12298  13.131  31.629   1.906
43958W        W12299  40.360  38.981  11.001
43959W        W12300   7.673  17.225   5.233
43960W        W12301  30.948  43.982  12.972
43961W        W12302  10.373  26.462  12.867
43962W        W12303  30.620  25.708  10.411
43963W        W12304  33.874   2.727  13.938
43964W        W12305   7.840  42.874  12.984
43965W        W12306   5.758   5.732   0.384
43966W        W12307  11.358   0.777   4.247
43967W        W12308  28.134  10.859   2.783
43968W        W12309  29.553  11.837  10.906
43969W        W12310  15.112  20.586   2.804
43970W        W12311  43.833   9.305  12.018
43971W        W12312  44.011   3.749   3.251
43972W        W12313  16.167  30.054  11.467
43973W        W12314  11.233  18.576   4.732
43974W        W12315  33.588  12.325   1.450
43975W        W12316  14.153  30.624  12.834
43976W        W12317  29.999  24.606  10.471
43977W        W12318  28.074  23.052   4.283
43978W        W12319  25.199  21.246  14.003
43979W        W12320  43.929  39.892   1.373
43980W        W12321  30.946  10.861   3.809
43981W        W12322  38.906  12.820  10.628
43982W        W12323  22.655  22.054  10.024
43983W        W12324  17.677  33.132   1.893
43984W        W12325  17.116  37.569  11.889
43985W        W12326  14.116  24.717  13.904
43986W        W12327   7.704  22.055  11.036
43987W        W12328  37.984  41.034   4.274
43988W        W12329  12.787   3.715   4.720
43989W        W12330   5.802   3.447  13.872
43990W        W12331  28.503  35.022   1.228
43991W        W12332  39.383  33.058  13.880
43992W        W12333   8.821  35.058   1.903
43993W        W12334  16.629  34.904   2.799
43994W        W12335  16.800  11.639   2.858
43995W        W12336  30.092   9.356  12.827
43996W        W12337  39.470  15.219  13.423
43997W        W12338  34.895  20.754   2.843
43998W        W12339  27.488  28.948  11.438
43999W        W12340  41.921  13.157   4.767
44000W        W12341  27.007  39.881  12.996
44001W        W12342  33.966   3.324  14.430
44002W        W12343   0.450  43.819   2.302
44003W        W12344  33.599  41.976   2.714
44004W        W12345  22.672  31.012   3.357
44005W        W12346  19.049  42.497  12.077
44006W        W12347  36.037  26.516   1.704
44007W        W12348  30.591  41.964  13.393
44008W        W12349  24.180  36.010   1.721
44009W        W12350  12.139  12.363   5.765
44010W        W12351  34.538  37.337  14.001
44011W        W12352  18.164  20.111   2.818
44012W        W12353  30.127  16.681   3.364
44013W        W12354  34.073  10.674   3.337
44014W        W12355  27.622  38.035  12.365
44015W        W12356  28.051   8.177  13.541
44016W        W12357  15.615  36.879   3.732
44017W        W12358  12.705   7.715  12.340
44018W        W12359   9.840  31.495  14.293
44019W        W12360   0.828  34.025  10.468
44020W        W12361  23.547   6.910   3.733
44021W        W12362   8.657  41.472   1.331
44022W        W12363   4.212  40.458  11.463
44023W        W12364  26.581   6.730  12.397
44024W        W12365   3.896   4.252  11.090
44025W        W12366  10.726  10.831  11.587
44026W        W12367  24.636  19.711   0.961
44027W        W12368   5.215  22.677  14.905
44028W        W12369  20.604   8.702  12.530
44029W        W12370  10.797  35.950   3.239
44030W        W12371  18.193  30.057   1.873
44031W        W12372  22.206  30.654   3.816
44032W        W12373   5.344  31.933   4.168
44033W        W12374   0.973   4.774   0.248
44034W        W12375  34.979  29.099   2.244
44035W        W12376  42.955  26.984  11.489
44036W        W12377  43.018  21.701   1.336
44037W        W12378  41.931  21.146   1.729
44038W        W12379   0.266   7.203   4.639
44039W        W12380  31.040  11.230  13.457
44040W        W12381  41.504  34.394  14.948
44041W        W12382  18.644  38.412  11.962
44042W        W12383  15.168  12.695   1.330
44043W        W12384  13.269  20.160  14.833
44044W        W12385   3.402  11.863  12.549
44045W        W12386  29.998   3.868  11.464
44046W        W12387  35.945  19.625   3.839
44047W        W12388  25.220  31.927  13.063
44048W        W12389  39.365   7.342   1.792
44049W        W12390   5.362   3.756  13.542
44050W        W12391  35.448  37.474   1.445
44051W        W12392  16.793  22.052   2.699
44052W        W12393  13.331  21.665  11.021
44053W        W12394  20.237  31.965   1.799
44054W        W12395  44.457  35.589   4.208
44055W        W12396  10.639  13.662  11.125
44056W        W12397   7.740  33.488   3.688
44057W        W12398   0.422  28.062   3.688
44058W        W12399  37.457   7.199  14.378
44059W        W12400  22.006  32.980  12.874
44060W        W12401  29.588  30.441  13.521
44061W        W12402  38.903  13.686  12.414
44062W        W12403  19.740  23.131  13.872
44063W        W12404  20.094  37.866   0.960
44064W        W12405   3.806  17.081  14.977
44065W        W12406   0.873   8.164  11.869
44066W        W12407  34.019  11.147   4.722
44067W        W12408  31.584  14.737   3.319
44068W        W12409  17.199   8.309  13.473
44069W        W12410  17.277  26.074   2.411
44070W        W12411  31.997  27.592  14.425
44071W        W12412  25.118  37.413   0.748
44072W        W12413  37.550  31.638  13.433
44073W        W12414   2.846  12.794   4.802
44074W        W12415  31.102   6.373  11.443
44075W        W12416  14.272  37.363   2.754
44076W        W12417  26.091   9.692   0.271
44077W        W12418  15.651  40.887   2.756
44078W        W12419  33.401  42.994   4.194
44079W        W12420   5.366  42.851  12.537
44080W        W12421  31.474  21.155  11.856
44081W        W12422  14.780  18.065   0.940
44082W        W12423  44.280  18.748   5.643
44083W        W12424  38.554  27.563   4.222
44084W        W12425  24.173  40.396   0.475
44085W        W12426  29.015  43.991   1.833
44086W        W12427  26.191   7.386   3.231
44087W        W12428   4.445  24.706  12.847
44088W        W12429  26.478  18.556  11.859
44089W        W12430  11.836  24.100  12.009
44090W        W12431   2.962   3.241  12.377
44091W        W12432  30.481  41.336   4.617
44092W        W12433   5.736  12.199  10.891
44093W        W12434   7.260  22.094  14.290
44094W        W12435  11.290  42.330  10.988
44095W        W12436  23.110  31.905   4.296
44096W        W12437  32.004  33.923  13.396
44097W        W12438   1.446  18.266  11.068
44098W        W12439  34.425  43.872   3.376
44099W        W12440  36.026   9.648   2.693
44100W        W12441  31.027  27.181   0.328
44101W        W12442  19.660  22.140  11.579
44102W        W12443  30.572  39.354   4.620
44103W        W12444  38.857   0.747  14.452
44104W        W12445  25.058   5.880   2.412
44105W        W12446  41.040   5.278   0.280
44106W        W12447  30.005  36.099   0.885
44107W        W12448   3.835  43.989  13.341
44108W        W12449  21.067  15.188   0.478
44109W        W12450  29.994  11.155   2.379
44110W        W12451   9.252   5.281  13.896
44111W        W12452  14.274  30.076   3.381
44112W        W12453  34.411   6.286  10.613
44113W        W12454   9.879  37.435   0.812
44114W        W12455  43.858  21.033   5.588
44115W        W12456  19.134  35.958   2.245
44116W        W12457  43.824  20.578   4.747
44117W        W12458  33.058  44.807  13.340
44118W        W12459  34.462   5.380  12.899
44119W        W12460  22.611  12.683   2.196
44120W        W12461  21.566   9.806   2.226
44121W        W12462  16.155  33.039   0.297
44122W        W12463  34.027  32.106  14.848
44123W        W12464  44.356  16.624   1.228
44124W        W12465  38.943  33.415  14.459
44125W        W12466  17.268  19.738   1.828
44126W        W12467  24.640  19.632  13.791
44127W        W12468   7.189  30.496   1.433
44128W        W12469  22.527  32.556   2.882
44129W        W12470  14.623  23.173  11.463
44130W        W12471  43.327  23.010   3.759
44131W        W12472   0.487   3.806   3.345
44132W        W12473  36.580  30.449   0.784
44133W        W12474  36.443   7.864   4.278
44134W        W12475  29.452   6.325   0.433
44135W        W12476  39.909   6.890  12.836
44136W        W12477  44.429  21.125   2.826
44137W        W12478  16.283  23.190  12.931
44138W        W12479  40.862   9.246   4.207
44139W        W12480  22.693  29.467  11.080
44140W        W12481   1.970  22.646  11.876
44141W        W12482  41.415  21.258  12.429
44142W        W12483   5.818  18.141   1.835
44143W        W12484  36.533   6.690   4.333
44144W        W12485  27.069   0.845  14.300
44145W        W12486  26.045  11.156   3.685
44146W        W12487   6.363  41.020  10.970
44147W        W12488  19.741  37.898  13.801
44148W        W12489  26.530  42.796   1.396
44149W        W12490  38.946   7.774   2.373
44150W        W12491  18.296  35.494  14.843
44151W        W12492   1.901  10.688  14.357
44152W        W12493  26.655  10.736   4.258
44153W        W12494  31.479  11.786   0.410
44154W        W12495  35.479   4.351   4.338
44155W        W12496  13.666  25.147  12.923
44156W        W12497   0.905   1.813   3.185
44157W        W12498   3.907  24.548   3.199
44158W        W12499   6.907  12.768   3.837
44159W        W12500  42.999  22.614  13.050
44160W        W12501  29.147  17.595   1.270
44161W        W12502  31.149  24.117  14.306
44162W        W12503  34.912  21.039  13.345
44163W        W12504  15.637  38.332   4.136
44164W        W12505   2.725  17.089   3.239
44165W        W12506  37.875  23.634   1.392
44166W        W12507  20.560  31.497  10.608
44167W        W12508  20.115  12.123  14.323
44168W        W12509  23.537  25.600   3.299
44169W        W12510  41.496  15.707   5.307
44170W        W12511   5.432  28.460   1.335
44171W        W12512  30.420  32.584  14.466
44172W        W12513  37.383  25.512  14.366
44173W        W12514  15.597  11.258   2.812
44174W        W12515  30.127  11.281  11.501
44175W        W12516  16.690  15.738   4.233
44176W        W12517  41.418  14.271  14.773
44177W        W12518   6.769  37.949  12.555
44178W        W12519  19.276  15.157  13.976
44179W        W12520  22.104  39.925  14.485
44180W        W12521  23.682  16.754   9.968
44181W        W12522  34.434  24.141  11.064
44182W        W12523  30.571  42.319   1.706
44183W        W12524   2.247  33.626   4.807
44184W        W12525  34.586   6.860   0.797
44185W        W12526   5.229  30.593  11.077
44186W        W12527  20.098  26.462  13.833
44187W        W12528  39.937   2.429   1.872
44188W        W12529  20.267   3.456   3.702
44189W        W12530  38.331  28.595  14.341
44190W        W12531  35.590  30.040   2.374
44191W        W12532   4.755  20.206  12.422
44192W        W12533  33.600  17.622  10.090
44193W        W12534  27.129  19.555   5.083
44194W        W12535  11.806  36.033   5.228
44195W        W12536  23.035  42.467   3.375
44196W        W12537  40.868  36.573  13.521
44197W        W12538  19.254  29.599   2.199
44198W        W12539   8.742  27.148  14.440
44199W        W12540  15.581  43.876   4.291
44200W        W12541  13.326  27.464   4.336
44201W        W12542   8.788  38.968   3.757
44202W        W12543   3.731  30.062  14.387
44203W        W12544  33.050   2.856   0.397
44204W        W12545  42.012  32.474   0.271
44205W        W12546  15.211  13.621  14.869
44206W        W12547  21.110  16.217   3.257
44207W        W12548  18.051  40.028   0.763
44208W        W12549  38.829  26.605   1.339
44209W        W12550  30.636   2.949  13.814
44210W        W12551   6.868  44.492  14.346
44211W        W12552  30.011  18.226   3.781
44212W        W12553  26.152  28.184  12.542
44213W        W12554  41.019  44.376   1.334
44214W        W12555   4.285  11.666  14.372
44215W        W12556  38.912  36.868   3.684
44216W        W12557  17.244  26.645   1.344
44217W        W12558  41.869  32.085  12.517
44218W        W12559  21.674  11.138  11.090
44219W        W12560  10.369  10.733  14.390
44220W        W12561  31.068  29.499   0.822
44221W        W12562   0.925  41.018   3.345
44222W        W12563   4.214  30.978   2.372
44223W        W12564  13.279  33.003  13.467
44224W        W12565  44.382  30.551   2.675
44225W        W12566  36.540  44.434   1.447
44226W        W12567  40.968   5.864   3.293
44227W        W12568  28.129  33.390   3.671
44228W        W12569  35.090  24.170  10.998
44229W        W12570  39.452  14.788  14.393
44230W        W12571  14.191  13.648  12.085
44231W        W12572  18.136  14.706  14.434
44232W        W12573  43.977  34.435  11.870
44233W        W12574   1.896  16.090   4.816
44234W        W12575   3.219  22.660   4.601
44235W        W12576  29.026   0.831  10.971
44236W        W12577  20.050  10.328   4.605
44237W        W12578  29.149  13.170   1.263
44238W        W12579  13.827  39.381   1.730
44239W        W12580  16.258  23.089   3.663
44240W        W12581  32.103  40.332   2.775
44241W        W12582  22.098   0.444   0.907
44242W        W12583  11.630  12.617  14.929
44243W        W12584  18.173  27.486   0.814
44244W        W12585  41.921  29.026   0.359
44245W        W12586  41.469  10.160  12.873
44246W        W12587  34.579   9.845   1.267
44247W        W12588  43.817  18.734   3.201
44248W        W12589  32.615  38.983   2.875
44249W        W12590  23.559  14.274   2.261
44250W        W12591  27.095   0.271   1.315
44251W        W12592  35.503  39.943  11.967
44252W        W12593  16.147  39.541  14.004
44253W        W12594  24.550  39.501  11.392
44254W        W12595  43.943  34.452   4.232
44255W        W12596   2.304  22.606   0.426
44256W        W12597  18.173   9.308  10.962
44257W        W12598  27.045   8.335   0.270
44258W        W12599  18.100  30.648  14.452
44259W        W12600  15.703  21.572  13.842
44260W        W12601  12.247   7.728   3.732
44261W        W12602  36.518  11.338   0.887
44262W        W12603  16.217   0.756  14.309
44263W        W12604  17.736  18.060   1.708
44264W        W12605  39.838   8.802  11.953
44265W        W12606  35.401  23.538  13.978
44266W        W12607  13.837  44.860   4.701
44267W        W12608  36.592   7.179  10.031
44268W        W12609  10.872  21.531  14.382
44269W        W12610   3.941  38.928   2.699
44270W        W12611  20.623  32.609  14.335
44271W        W12612  42.946   2.803  14.317
44272W        W12613  17.651   2.795   4.143
44273W        W12614  41.493  13.271   4.280
44274W        W12615   1.913  39.966  11.565
44275W        W12616  40.439   8.196   1.291
44276W        W12617  15.281  34.976   2.373
44277W        W12618  40.043  26.532  14.407
44278W        W12619   9.163  37.040   2.761
44279W        W12620  34.417   2.390  14.004
44280W        W12621  41.395   3.417  12.428
44281W        W12622  42.891  18.070  11.500
44282W        W12623  25.130  43.293  13.503
44283W        W12624   3.839  41.861   3.269
44284W        W12625  37.086  35.601  13.314
44285W        W12626  10.327  44.853  12.451
44286W        W12627  19.763  20.715  14.482
44287W        W12628   1.745   5.869  13.439
44288W        W12629  22.617   6.369  12.973
44289W        W12630   3.306   1.922   4.697
44290W        W12631  32.920  15.225   4.762
44291W        W12632  43.277  44.846  11.023
44292W        W12633   8.377  20.742  14.924
44293W        W12634  27.075   3.404  11.375
44294W        W12635   3.461  44.388   4.622
44295W        W12636  22.231  20.120  14.307
44296W        W12637  18.226  40.495  14.290
44297W        W12638  14.169  37.974  11.129
44298W        W12639  12.855  12.706   4.675
44299W        W12640  28.547   6.356   4.772
44300W        W12641  23.542  13.215  11.066
44301W        W12642  27.644   8.737   4.666
44302W        W12643   8.755  25.043   4.741
44303W        W12644  15.130  21.567  11.482
44304W        W12645  40.973  10.768   0.420
44305W        W12646  29.006  17.064   2.823
44306W        W12647  37.458  27.187   1.920
44307W        W12648   1.447  13.809  10.944
44308W        W12649  22.018  12.634   1.293
44309W        W12650  39.418  42.403   2.862
44310W        W12651  23.004  37.955  10.585
44311W        W12652  42.973   9.875   3.152
44312W        W12653  17.280  34.526   4.247
44313W        W12654   1.870  15.285   4.635
44314W        W12655  22.137   6.392  13.865
44315W        W12656  22.021  21.696   2.820
44316W        W12657  23.240   8.713   0.272
44317W        W12658   6.724  37.459   3.744
44318W        W12659  43.896  44.442   1.273
44319W        W12660  11.179  23.619  13.825
44320W        W12661  15.231  20.733  10.986
44321W        W12662  39.461  37.844   1.236
44322W        W12663  40.367  35.860   0.454
44323W        W12664  42.410   6.801  14.908
44324W        W12665  12.266  37.078   3.656
44325W        W12666  16.571  42.868   3.692
44326W        W12667  22.640  25.219   3.692
44327W        W12668  16.115  34.105  11.081
44328W        W12669  39.513  18.648  11.607
44329W        W12670  17.124  37.869   4.346
44330W        W12671   0.790   7.682   3.777
44331W        W12672  30.628   4.236   3.738
44332W        W12673  31.921   9.224  11.586
44333W        W12674  42.803   8.785   3.645
44334W        W12675  36.395  34.415  10.895
44335W        W12676  36.542  42.010  11.440
44336W        W12677  16.793  40.408   2.362
44337W        W12678   6.872  16.167  10.450
44338W        W12679   0.880  13.768  10.944
44339W        W12680  26.513   8.346  10.555
44340W        W12681  25.964   5.752  12.417
44341W        W12682   1.394  40.451   4.674
44342W        W12683   4.218   3.230   3.349
44343W        W12684  23.527  43.483   1.839
44344W        W12685  27.941   8.786   0.830
44345W        W12686  43.915  25.656   4.184
44346W        W12687   1.262   4.208  11.982
44347W        W12688  15.199   6.854  13.496
44348W        W12689   5.866  35.435  12.931
44349W        W12690   5.758  31.560  11.929
44350W        W12691  26.201   3.801   1.833
44351W        W12692  44.947  27.094  14.291
44352W        W12693  21.515   0.906   1.386
44353W        W12694  26.141  12.761   1.847
44354W        W12695   2.922  19.691  10.121
44355W        W12696  13.617  14.190   4.649
44356W        W12697  32.450  14.289  10.079
44357W        W12698  16.714   3.217  10.569
44358W        W12699  11.770  36.886   4.283
44359W        W12700  35.486  15.824   2.401
44360W        W12701   9.382  31.565   4.821
44361W        W12702   7.245  15.701   4.156
44362W        W12703  35.899  21.122  14.786
44363W        W12704  44.858  38.928  12.059
44364W        W12705   7.265  34.040   3.161
44365W        W12706  17.094  44.904   1.252
44366W        W12707  38.504   3.252   3.843
44367W        W12708  14.621   3.951   0.731
44368W        W12709   0.749  43.479   2.890
44369W        W12710  16.247   4.410  12.917
44370W        W12711  24.195  32.029   4.598
44371W        W12712  32.957  30.074   1.877
44372W        W12713  13.329  24.013   3.759
44373W        W12714  23.224  14.113  12.363
44374W        W12715  23.196   5.277   3.760
44375W        W12716  43.021  17.274  14.397
44376W        W12717  34.104   7.229  11.457
44377W        W12718  35.976   2.463   4.191
44378W        W12719  21.567  43.489  14.480
44379W        W12720   9.376  42.961  10.443
44380W        W12721  38.882  35.965   0.465
44381W        W12722  30.561  43.457   0.796
44382W        W12723  37.900  18.750  12.568
44383W        W12724  35.084  13.706  11.421
44384W        W12725   2.310  19.106  14.302
44385W        W12726  10.250  25.067   3.720
44386W        W12727  19.163  42.360  11.515
44387W        W12728  37.440  26.679   1.422
44388W        W12729  38.843  23.999   5.178
44389W        W12730  15.119  30.135   2.304
44390W        W12731  28.629  27.089  12.526
44391W        W12732  31.631  40.508   4.649
44392W        W12733  43.925  40.008  14.277
44393W        W12734  10.223  23.530  11.032
44394W        W12735  32.536  42.495   1.791
44395W        W12736  40.433  43.473  14.473
44396W        W12737  30.458  32.924   2.414
44397W        W12738  24.503   2.242  13.987
44398W        W12739  40.548   3.309   1.764
44399W        W12740  39.820   7.235   0.376
44400W        W12741  14.731  37.432   4.180
44401W        W12742  31.110  33.916   3.658
44402W        W12743  34.120  26.997   3.344
44403W        W12744  12.675  31.444  13.001
44404W        W12745  36.882  20.180  10.995
44405W        W12746   5.201   5.925   0.398
44406W        W12747  25.668  33.403   2.676
44407W        W12748  42.395  41.473   4.838
44408W        W12749  38.910  19.704  12.868
44409W        W12750   5.919  29.003   4.793
44410W        W12751  29.002   2.901   1.318
44411W        W12752  42.420  40.824  12.347
44412W        W12753   0.256  16.185   4.630
44413W        W12754   4.698  15.171   0.305
44414W        W12755  28.613  27.052   1.236
44415W        W12756  23.711  40.497   0.473
44416W        W12757   7.390  14.142  11.875
44417W        W12758  33.449  29.529  13.426
44418W        W12759  13.320  39.042   5.251
44419W        W12760  24.647  42.877   4.118
44420W        W12761  28.094  43.839   2.806
44421W        W12762  23.578  39.437   0.852
44422W        W12763   5.214   8.287  14.352
44423W        W12764  28.080   5.848  10.629
44424W        W12765  13.768  31.404  14.776
44425W        W12766  24.178   3.800  12.496
44426W        W12767  44.392  31.435  10.641
44427W        W12768   0.437  21.627  11.027
44428W        W12769  14.679  15.099  11.967
44429W        W12770  12.171  26.169  12.027
44430W        W12771  20.081  20.066   3.650
44431W        W12772  40.047  33.387  11.523
44432W        W12773  24.537  40.525  12.963
44433W        W12774   7.173  21.664  13.378
44434W        W12775  35.034  27.524  12.022
44435W        W12776  15.719  41.483  13.470
44436W        W12777  33.541  15.091  13.981
44437W        W12778   2.785  24.652  11.012
44438W        W12779  27.669  23.674   1.313
44439W        W12780   9.662   6.426  11.590
44440W        W12781  33.976  33.085  13.811
44441W        W12782  21.515  14.636   2.899
44442W        W12783   1.903  44.948   0.889
44443W        W12784   8.219  36.425  12.353
44444W        W12785  42.981   5.820   0.927
44445W        W12786  16.650  13.615   1.711
44446W        W12787  40.439  25.681  14.989
44447W        W12788  13.743  24.112  12.886
44448W        W12789  37.506   7.753   4.348
44449W        W12790  36.972  33.626  14.970
44450W        W12791  35.886  42.822   2.831
44451W        W12792  14.267  34.914   1.917
44452W        W12793   2.838  21.077   1.887
44453W        W12794  25.096  23.008   0.918
44454W        W12795  43.016   6.338  12.377
44455W        W12796  44.959  28.138  10.468
44456W        W12797  34.922  36.578  14.006
44457W        W12798  30.098  41.317  10.558
44458W        W12799   6.865  38.987   3.805
44459W        W12800  21.115  36.012   0.442
44460W        W12801  24.017  43.373  13.806
44461W        W12802  12.678  29.043   4.611
44462W        W12803   0.828  31.559  12.536
44463W        W12804   7.332  28.478   1.804
44464W        W12805  10.152  43.331   0.850
44465W        W12806   2.413  32.465  13.806
44466W        W12807  41.324  20.691  12.924
44467W        W12808   2.378  14.125   1.316
44468W        W12809  29.508   0.760   2.782
44469W        W12810   0.359   1.897  13.010
44470W        W12811  32.604   3.297   1.901
44471W        W12812   2.746  38.523  10.610
44472W        W12813  27.069  43.848  11.600
44473W        W12814  26.676  34.044  11.563
44474W        W12815  37.377  44.485   5.196
44475W        W12816   1.815  21.582  14.857
44476W        W12817   3.938   3.919   0.891
44477W        W12818  16.083  12.242  14.758
44478W        W12819  16.160  29.624  13.380
44479W        W12820  34.456  29.930  11.596
44480W        W12821  38.513  14.325   3.329
44481W        W12822   1.861  27.577  14.925
44482W        W12823  33.495  34.914   0.287
44483W        W12824  37.043  42.479  11.078
44484W        W12825  30.146  20.228   3.214
44485W        W12826   6.878  44.797  13.843
44486W        W12827  34.022  24.198  12.347
44487W        W12828   1.969  15.181  11.960
44488W        W12829  28.565  20.611   1.216
44489W        W12830  32.428  30.970   1.426
44490W        W12831  19.583  25.004   2.899
44491W        W12832  21.546  13.320  11.556
44492W        W12833  12.819   1.436  12.982
44493W        W12834  20.538  31.536   2.356
44494W        W12835  34.037  41.387  13.920
44495W        W12836   2.934  13.109  12.875
44496W        W12837  32.451  37.403   1.803
44497W        W12838  38.519  18.265  13.934
44498W        W12839  10.166  27.151   2.266
44499W        W12840  43.920  11.760  14.431
44500W        W12841  14.267  40.329  12.447
44501W        W12842  26.170  14.110  12.391
44502W        W12843  21.636  14.652  10.483
44503W        W12844  15.282  36.542   2.219
44504W        W12845  21.525   4.312  11.484
44505W        W12846  31.060  10.817  14.381
44506W        W12847   8.689  14.643   5.081
44507W        W12848  18.133  43.893  12.530
44508W        W12849  24.648  22.145   3.656
44509W        W12850   9.221  42.422   2.722
44510W        W12851   8.311  14.268  10.901
44511W        W12852  32.936  37.557  14.914
44512W        W12853  19.148  40.353  10.438
44513W        W12854   8.675  33.098   0.392
44514W        W12855   7.417   8.708  10.959
44515W        W12856  36.035  33.508  11.610
44516W        W12857  44.951  31.580   4.703
44517W        W12858  20.173  24.652   1.385
44518W        W12859   5.934  30.055  13.971
44519W        W12860  42.854  40.524   1.425
44520W        W12861  36.446  44.402  13.973
44521W        W12862  20.157  20.201   2.833
44522W        W12863  38.381  16.283   0.273
44523W        W12864  40.803  29.021   4.758
44524W        W12865  11.219   7.373  11.996
44525W        W12866  35.024   8.654  11.044
44526W        W12867  15.668  33.040   0.473
44527W        W12868   9.780  39.860   2.327
44528W        W12869  19.665   5.245   1.447
44529W        W12870   5.426  44.311   0.854
44530W        W12871   5.401  18.147   1.303
44531W        W12872   0.748  17.174   1.313
44532W        W12873  44.991  20.096  13.010
44533W        W12874  23.187   2.825   1.311
44534W        W12875   8.299  23.045  11.944
44535W        W12876  26.553  21.238  12.947
44536W        W12877  26.998   7.370   1.896
44537W        W12878  19.768  44.330  14.466
44538W        W12879   5.759  14.823   3.724
44539W        W12880  20.727  22.514  11.607
44540W        W12881  14.304  43.786   3.322
44541W        W12882  21.104   1.280   3.658
44542W        W12883   3.895   9.658   4.183
44543W        W12884   8.834  11.760   2.179
44544W        W12885  15.790  28.520   1.870
44545W        W12886  30.624  38.549  12.923
44546W        W12887  10.238  36.039   2.676
44547W        W12888   7.857  37.040  11.891
44548W        W12889   4.405  22.214   1.822
44549W        W12890  32.522  13.273   2.372
44550W        W12891  38.506  36.512   1.764
44551W        W12892  41.897  44.500  11.591
44552W        W12893  31.416  12.261  12.524
44553W        W12894   6.714  44.425   3.696
44554W        W12895  39.875   8.202  10.530
44555W        W12896  17.098  32.891   4.640
44556W        W12897  26.157  24.558   1.451
44557W        W12898   2.272  39.552   4.250
44558W        W12899  41.325  41.472  11.958
44559W        W12900  26.029  28.493   1.274
44560W        W12901   7.870  17.640   4.240
44561W        W12902  39.968  26.982   3.335
44562W        W12903  38.428  38.415   4.279
44563W        W12904  29.141  35.387   2.192
44564W        W12905  28.951  18.125  10.938
44565W        W12906  11.662  36.992  14.408
44566W        W12907  23.016  25.505  12.991
44567W        W12908  17.118  25.161   1.305
44568W        W12909  15.637  26.072  13.869
44569W        W12910   2.770  29.159  11.427
44570W        W12911  10.255  10.665  13.923
44571W        W12912   2.275  21.666   2.199
44572W        W12913   3.404  18.118   0.433
44573W        W12914  22.510  18.718  11.931
44574W        W12915  26.508   7.775   4.737
44575W        W12916  33.896  30.125   3.312
44576W        W12917   8.766  41.429   4.636
44577W        W12918  11.346  44.921   1.278
44578W        W12919  19.594  35.471   2.189
44579W        W12920   1.445  13.256  10.574
44580W        W12921  33.495  40.025   3.247
44581W        W12922  38.926   4.442  13.373
44582W        W12923  31.940  21.035  10.513
44583W        W12924  30.125   0.830  13.311
44584W        W12925  11.783  14.728  12.993
44585W        W12926  29.052  36.873  10.512
44586W        W12927  44.815   8.181   2.353
44587W        W12928  43.897  29.595  13.354
44588W        W12929  16.146   9.872  14.781
44589W        W12930  18.190  11.861   4.312
44590W        W12931  30.952  19.263  13.376
44591W        W12932   8.865  10.278  13.365
44592W        W12933   7.172  43.493  14.903
44593W        W12934  26.078  27.502  13.840
44594W        W12935   8.871  16.653   4.315
44595W        W12936  35.598  32.910   3.677
44596W        W12937  26.026  41.024  11.560
44597W        W12938   0.967  25.503   9.997
44598W        W12939  31.443  28.559  12.463
44599W        W12940  18.133  30.061   3.712
44600W        W12941  34.454   3.280   2.788
44601W        W12942  33.526  40.340   4.702
44602W        W12943  15.808  33.088   4.609
44603W        W12944  37.912  36.845  12.457
44604W        W12945  14.107  16.307  12.383
44605W        W12946   1.370  26.192  12.951
44606W        W12947   8.282  13.691   3.810
44607W        W12948  26.683  39.445  14.504
44608W        W12949  14.760  36.863  11.536
44609W        W12950  16.159   6.316   1.708
44610W        W12951  14.599  20.032   3.247
44611W        W12952  30.948  24.529  12.501
44612W        W12953  42.854   2.405   4.254
44613W        W12954   1.468   6.804   0.892
44614W        W12955  35.055  17.737   2.198
44615W        W12956  13.735  24.170  13.836
44616W        W12957  32.986  35.102  13.813
44617W        W12958  34.441  35.562  13.341
44618W        W12959  11.773  32.410  12.873
44619W        W12960  27.648   2.243   2.851
44620W        W12961  44.371  17.799  11.012
44621W        W12962  41.897  19.708   4.611
44622W        W12963  39.920  40.010  12.855
44623W        W12964  11.812   9.339   4.219
44624W        W12965   9.246  41.925   4.713
44625W        W12966  38.039  14.251   3.364
44626W        W12967   0.446  27.552   3.670
44627W        W12968  42.390   4.259   0.291
44628W        W12969  25.074  36.044  14.030
44629W        W12970  27.999  10.332  13.380
44630W        W12971  11.269  14.300   2.702
44631W        W12972  27.127  41.498  13.962
44632W        W12973  36.909   3.721   3.629
44633W        W12974   6.182  18.150  11.381
44634W        W12975  38.466  21.703   0.461
44635W        W12976  17.710   9.318   4.345
44636W        W12977   7.212  37.847   2.678
44637W        W12978  18.598  34.570  11.972
44638W        W12979  21.200  24.029   4.204
44639W        W12980   7.363  26.182   2.283
44640W        W12981   2.967  42.450  13.055
44641W        W12982  34.982   7.670   5.197
44642W        W12983   1.936  36.871  12.517
44643W        W12984  32.985  21.711   4.760
44644W        W12985   8.813  41.975  12.480
44645W        W12986  17.064   1.475  12.392
44646W        W12987  24.586   3.324  14.317
44647W        W12988  26.606  11.686  12.997
44648W        W12989   7.290  34.420  13.814
44649W        W12990  31.956  14.206   2.775
44650W        W12991  39.403  33.391  11.090
44651W        W12992  34.475  10.829   0.850
44652W        W12993  35.001  22.536   0.734
44653W        W12994  33.917  44.500   1.934
44654W        W12995   3.437  16.736  10.410
44655W        W12996   6.909  44.928  14.484
44656W        W12997   7.722  12.694   4.758
44657W        W12998  12.684  27.609   1.414
44658W        W12999  42.300  23.991  13.835
44659W        W13000  18.286  34.117  12.996
44660W        W13001  44.411  17.653  12.040
44661W        W13002  34.379  31.617   2.716
44662W        W13003  40.970   0.971  14.498
44663W        W13004  34.088   8.283  14.346
44664W        W13005   9.782  20.616   1.341
44665W        W13006  42.335  28.467   1.256
44666W        W13007  18.646  14.312   1.399
44667W        W13008  35.396  23.598  12.391
44668W        W13009   3.879  28.940  11.534
44669W        W13010  29.665  31.004   2.330
44670W        W13011   3.336  19.714   2.200
44671W        W13012  23.696  26.197  14.501
44672W        W13013  41.823   5.194   1.915
44673W        W13014  16.255   9.372   2.362
44674W        W13015  33.389  12.312  11.952
44675W        W13016  20.188  36.378   1.900
44676W        W13017  18.613  30.984   1.921
44677W        W13018   2.345  22.197  10.643
44678W        W13019   2.752  26.005   4.710
44679W        W13020   5.900  20.768   0.809
44680W        W13021  43.889  14.726   0.950
44681W        W13022  43.965  39.812   2.283
44682W        W13023  30.574  28.604  13.548
44683W        W13024  24.025  23.577   9.946
44684W        W13025   0.955  41.362   3.770
44685W        W13026  12.291  42.312   3.759
44686W        W13027  12.168  25.704   4.337
44687W        W13028  32.996  16.668  13.344
44688W        W13029  25.975  21.695   0.735
44689W        W13030  16.306  32.470  14.779
44690W        W13031  31.059  35.050  10.557
44691W        W13032  31.642  15.637   2.320
44692W        W13033  19.564  29.475   5.182
44693W        W13034  33.469  19.590  11.113
44694W        W13035  39.482  42.296  10.952
44695W        W13036  42.357   7.770  14.498
44696W        W13037  13.147  21.200  13.830
44697W        W13038   1.342  19.156   4.800
44698W        W13039  40.436  13.235   3.222
44699W        W13040  32.076  12.803   4.621
44700W        W13041  13.637   3.343  13.928
44701W        W13042   4.775  31.082  12.978
44702W        W13043  23.547  24.122   3.186
44703W        W13044   6.917  17.306   0.410
44704W        W13045   7.341   0.967   0.410
44705W        W13046  39.032  34.054   2.688
44706W        W13047  32.625  16.206   4.231
44707W        W13048  23.571  15.622  11.524
44708W        W13049  33.881  17.199   4.136
44709W        W13050  42.914   7.312   1.423
44710W        W13051   9.827   2.870   1.929
44711W        W13052   6.182  38.368  13.949
44712W        W13053  17.731  20.658  14.349
44713W        W13054  44.483   4.756   2.877
44714W        W13055  26.685   0.341  12.457
44715W        W13056  13.701  24.228  12.393
44716W        W13057   9.713  35.961   1.353
44717W        W13058  39.365  19.049   4.226
44718W        W13059   6.423  39.336  13.005
44719W        W13060  31.555  27.546  14.485
44720W        W13061   2.333   4.863  12.964
44721W        W13062  38.967  37.940  13.469
44722W        W13063  42.993  43.313   4.751
44723W        W13064  24.017   8.184   2.413
44724W        W13065   6.883  27.601  12.386
44725W        W13066  23.175  33.522   4.775
44726W        W13067  11.331  38.066  11.940
44727W        W13068  34.111  25.076   0.958
44728W        W13069  31.999   9.205  11.970
44729W        W13070  44.987  41.970  13.505
44730W        W13071  14.201   0.447  13.880
44731W        W13072  30.160  44.492   4.219
44732W        W13073  31.034  25.966   0.946
44733W        W13074   6.299  19.604  10.996
44734W        W13075  14.636  26.487   3.751
44735W        W13076  22.077  35.931  12.430
44736W        W13077  16.314   9.841   3.154
44737W        W13078  15.630  36.460  12.823
44738W        W13079   4.719  37.062   4.809
44739W        W13080   5.693  31.509  13.480
44740W        W13081  41.813  12.201   4.251
44741W        W13082  33.547  43.768  14.461
44742W        W13083  39.462  41.946  11.892
44743W        W13084  31.580  44.353  14.844
44744W        W13085  19.617  36.907  14.343
44745W        W13086   0.966   6.194   2.346
44746W        W13087   1.397   4.412  11.374
44747W        W13088  31.935  40.928   3.738
44748W        W13089  30.616   0.942   1.700
44749W        W13090  18.737  32.423   0.739
44750W        W13091  37.458   5.826  11.572
44751W        W13092  28.563  33.096   1.266
44752W        W13093  36.051   0.427  11.568
44753W        W13094  36.452  12.237   0.963
44754W        W13095  40.401  33.046  11.443
44755W        W13096   4.378  30.134   3.733
44756W        W13097  18.204  19.561  13.968
44757W        W13098  13.180   5.758   2.745
44758W        W13099   0.816  22.720   0.746
44759W        W13100  32.133  29.999  13.343
44760W        W13101  10.665  21.071   4.662
44761W        W13102  43.798  21.203  14.835
44762W        W13103  24.197  41.918   3.347
44763W        W13104  42.889  44.488   0.388
44764W        W13105  11.672  42.965  14.511
44765W        W13106  44.294  26.951   3.639
44766W        W13107  25.482  37.417  14.321
44767W        W13108  37.488  32.035   3.744
44768W        W13109   5.697  42.318   3.646
44769W        W13110  19.270  43.315   3.783
44770W        W13111  23.218   2.939  10.521
44771W        W13112   8.895  39.979   2.413
44772W        W13113  33.941  28.644  11.587
44773W        W13114  40.446  24.078  10.503
44774W        W13115  40.897  26.101   2.199
44775W        W13116  39.490  26.531  13.966
44776W        W13117  20.732  21.529  11.118
44777W        W13118  23.043   7.843  13.332
44778W        W13119  15.732  40.833  11.984
44779W        W13120  32.611  25.021  10.445
44780W        W13121  24.532   7.298  10.929
44781W        W13122  40.949  20.146  14.903
44782W        W13123  25.115  44.855   2.315
44783W        W13124   2.883  20.621  11.006
44784W        W13125  27.458   8.685  11.014
44785W        W13126   3.859  23.063   1.749
44786W        W13127   7.223  25.556   2.257
44787W        W13128   0.353  33.049   4.287
44788W        W13129   3.290  21.029   1.330
44789W        W13130  17.212   7.826   2.243
44790W        W13131   2.932  24.039   3.296
44791W        W13132  39.025  14.714   0.809
44792W        W13133  36.009  29.129   0.834
44793W        W13134  29.117   3.315   0.751
44794W        W13135  33.988   8.890  14.488
44795W        W13136  40.820  44.477   3.690
44796W        W13137  28.156  13.795  11.412
44797W        W13138  27.459  24.026  13.379
44798W        W13139  38.350  18.607  10.911
44799W        W13140  12.836  24.707  14.464
44800W        W13141  41.991  44.409   1.443
44801W        W13142  16.199  15.651  12.922
44802W        W13143  30.597  23.498   1.334
44803W        W13144  13.157  38.020  14.970
44804W        W13145  35.467  39.400   1.259
44805W        W13146   6.709  19.727  12.513
44806W        W13147  18.658  21.181   4.702
44807W        W13148  18.571  31.518   1.337
44808W        W13149  17.710  40.434  14.345
44809W        W13150  11.210  25.547   3.772
44810W        W13151  24.042  33.607   5.131
44811W        W13152  25.013   6.295   0.858
44812W        W13153   5.805   8.696   1.297
44813W        W13154  34.108  32.588  13.966
44814W        W13155  40.474  15.631  10.404
44815W        W13156  13.618  43.981  10.896
44816W        W13157  21.550  11.841   0.912
44817W        W13158  19.596  41.933   0.732
44818W        W13159  42.942  27.537  10.934
44819W        W13160  22.681  18.702  14.844
44820W        W13161   3.282   9.362  11.108
44821W        W13162  23.105  28.473  11.971
44822W        W13163  39.898  16.800   3.697
44823W        W13164  22.207  40.452   4.297
44824W        W13165  23.725   5.821  11.474
44825W        W13166   0.274  17.289   2.743
44826W        W13167  34.409  16.612   4.710
44827W        W13168  32.141  12.825   2.248
44828W        W13169  11.653  26.979  12.551
44829W        W13170  15.614  25.142  11.421
44830W        W13171  34.471  33.418   0.265
44831W        W13172  30.654  38.430   2.887
44832W        W13173   8.856  26.507  11.419
44833W        W13174  32.932  20.757   0.317
44834W        W13175  35.877  42.891   3.200
44835W        W13176  44.437  17.762   1.854
44836W        W13177   9.756   4.350   3.825
44837W        W13178   1.387   9.697  11.117
44838W        W13179  29.483  10.139  13.020
44839W        W13180  20.044   9.772  14.025
44840W        W13181  27.566  26.190   3.292
44841W        W13182  10.241  17.251  14.393
44842W        W13183  35.544  31.112  11.007
44843W        W13184  29.520  39.454  11.989
44844W        W13185  23.217  30.601   0.967
44845W        W13186  30.468  31.520  14.513
44846W        W13187  44.977   8.374  11.866
44847W        W13188  14.786  33.551   3.641
44848W        W13189  17.191   2.452  13.479
44849W        W13190  10.162  27.681  14.927
44850W        W13191   9.242   8.294  10.606
44851W        W13192  29.974  38.026   2.295
44852W        W13193  36.467   0.338   4.630
44853W        W13194   9.865   3.231   2.845
44854W        W13195  12.673   1.747  10.985
44855W        W13196  41.821  35.400   0.761
44856W        W13197  36.034  13.841   1.816
44857W        W13198  42.850  35.471   3.720
44858W        W13199   3.355  37.011  12.854
44859W        W13200   6.752   5.916   4.198
44860W        W13201   3.784   1.343  14.411
44861W        W13202  13.292  16.125  14.920
44862W        W13203  44.464  13.774   4.717
44863W        W13204  44.373  31.500  10.987
44864W        W13205  26.153  44.979  10.421
44865W        W13206  34.881  26.696  10.958
44866W        W13207   2.808   0.772   1.802
44867W        W13208  26.587  27.466  13.450
44868W        W13209   4.802  29.041   4.331
44869W        W13210   9.875   8.745  13.980
44870W        W13211  23.716  25.104  10.567
44871W        W13212  20.094  24.148   4.835
44872W        W13213  28.046  31.944  11.890
44873W        W13214  20.552  38.839   4.702
44874W        W13215   2.430  22.608  12.479
44875W        W13216   4.833  16.620  11.419
44876W        W13217  10.762  22.632   4.282
44877W        W13218  39.965  26.163   1.719
44878W        W13219   6.302  27.057   1.263
44879W        W13220  24.556  10.270  13.839
44880W        W13221   8.363  16.193  11.560
44881W        W13222  23.577  30.021  11.857
44882W        W13223  27.572  12.616   3.174
44883W        W13224  41.530  35.516  14.969
44884W        W13225   1.457  27.455  13.512
44885W        W13226  37.912  30.009  13.502
44886W        W13227  20.689  24.201  12.959
44887W        W13228   8.661  29.570   2.722
44888W        W13229  33.938  23.159  13.952
44889W        W13230  38.990  21.681   3.373
44890W        W13231  21.055  33.467   1.243
44891W        W13232  11.225   1.832  12.831
44892W        W13233   6.868   7.771  10.429
44893W        W13234   7.809  39.430  12.481
44894W        W13235   3.811   0.377   1.755
44895W        W13236  31.934  40.024  14.276
44896W        W13237  24.501  24.580   0.755
44897W        W13238  26.056  16.620  14.388
44898W        W13239  39.540  11.763  14.870
44899W        W13240  43.950  13.330  11.566
44900W        W13241  26.150  32.930  14.857
44901W        W13242  10.665  29.943   3.369
44902W        W13243   5.341  31.603   1.407
44903W        W13244  38.455  31.448  11.025
44904W        W13245  41.515   5.779   4.735
44905W        W13246  12.191  35.535  11.985
44906W        W13247  42.014  42.860  12.409
44907W        W13248  34.883  44.832  11.458
44908W        W13249  30.070  10.225  11.973
44909W        W13250  38.398  33.917  14.988
44910W        W13251  22.997  37.544  12.041
44911W        W13252   0.398  10.677  14.894
44912W        W13253   3.451  41.934  10.506
44913W        W13254  34.529   5.790   2.809
44914W        W13255  14.228  40.465  11.443
44915W        W13256  18.609  39.942   4.813
44916W        W13257  27.017  43.964  13.798
44917W        W13258  11.860  33.503  13.050
44918W        W13259  31.947  39.551   4.669
44919W        W13260  13.840  13.755  11.385
44920W        W13261  32.007  37.444  13.953
44921W        W13262  33.518  40.381  14.008
44922W        W13263  10.775   5.746  13.949
44923W        W13264  40.500  33.393   4.339
44924W        W13265  27.000  24.715   2.360
44925W        W13266  36.447  11.704   1.303
44926W        W13267   4.205  28.943  11.483
44927W        W13268  10.170   8.874   1.892
44928W        W13269  15.228  31.550  10.924
44929W        W13270  21.546   4.327   3.343
44930W        W13271  38.838   6.828   2.251
44931W        W13272  25.568  16.299   2.771
44932W        W13273  25.603  22.640   3.261
44933W        W13274  33.484  21.635  11.391
44934W        W13275  27.018  24.226  12.441
44935W        W13276  17.282  23.630   5.247
44936W        W13277  20.590  39.944  12.089
44937W        W13278  32.083   2.457  10.520
44938W        W13279   6.879   4.251  11.951
44939W        W13280  23.716  19.069   3.278
44940W        W13281  27.085  10.319   3.183
44941W        W13282  19.635  39.412   1.712
44942W        W13283  22.547  25.166   9.924
44943W        W13284   8.200  21.753   0.854
44944W        W13285  10.282  20.718  13.960
44945W        W13286  16.570   2.282  13.924
44946W        W13287  29.551  25.182  14.325
44947W        W13288  43.831  35.458   0.794
44948W        W13289  18.250  22.006  10.120
44949W        W13290  28.012  10.160  12.377
44950W        W13291  32.479   7.805  14.426
44951W        W13292  44.295  28.078  11.384
44952W        W13293   0.850  26.064  11.570
44953W        W13294  20.706  20.541  10.909
44954W        W13295  32.618  13.229  14.432
44955W        W13296  27.647  19.658  10.508
44956W        W13297  40.975   5.414   1.230
44957W        W13298  37.449  13.821  14.807
44958W        W13299  40.454  23.121   2.879
44959W        W13300  19.715  34.036  11.565
44960W        W13301  17.700  41.529   4.189
44961W        W13302  29.946  31.938  13.527
44962W        W13303  34.492   4.813   2.895
44963W        W13304  18.690  41.917  11.108
44964W        W13305  22.235  34.542   3.368
44965W        W13306  30.444  25.205  13.546
44966W        W13307   5.213   3.774  14.991
44967W        W13308   2.374  19.113   3.695
44968W        W13309  20.114  27.682  14.508
44969W        W13310  12.258  18.746   0.887
44970W        W13311   3.296  16.287   1.227
44971W        W13312  40.967  14.750   2.690
44972W        W13313  38.377  33.427  12.431
44973W        W13314  11.674  14.259   2.189
44974W        W13315  16.192   8.258   3.718
44975W        W13316  43.387  39.535   4.243
44976W        W13317  18.698   1.771   2.833
44977W        W13318  10.683  40.447  12.444
44978W        W13319  29.609  42.500  12.932
44979W        W13320  12.767  19.111  12.517
44980W        W13321  40.862   5.294   3.312
44981W        W13322  25.086  14.648   0.946
44982W        W13323   6.234  44.821   0.780
44983W        W13324  33.939  25.146   2.226
44984W        W13325  38.054   6.345  10.981
44985W        W13326  32.569  21.125   1.243
44986W        W13327  30.459  41.992   1.848
44987W        W13328   2.359  27.183  11.961
44988W        W13329   1.961  15.180  12.960
44989W        W13330  44.839  40.352  13.497
44990W        W13331  12.233  21.118  13.881
44991W        W13332   2.751   7.207  14.376
44992W        W13333  28.151  28.151  13.371
44993W        W13334  11.369  15.590   1.340
44994W        W13335   7.902  16.791  10.613
44995W        W13336  28.580  30.063  12.884
44996W        W13337  44.881  15.095  13.528
44997W        W13338  19.754  12.828   0.297
44998W        W13339  22.737  14.667   2.200
44999W        W13340   0.954  11.179   4.697
45000W        W13341  10.376  32.070   2.771
45001W        W13342  34.410  16.192  14.904
45002W        W13343  34.889  38.521   3.285
45003W        W13344  37.540  32.110  11.072
45004W        W13345  27.466  17.097   3.811
45005W        W13346  42.782  44.761  13.922
45006W        W13347  14.829  44.345  12.957
45007W        W13348   3.352   2.954  11.478
45008W        W13349  39.399   7.897   4.626
45009W        W13350  12.138  39.424   5.251
45010W        W13351  34.552  39.434  12.915
45011W        W13352  38.559   5.692  14.486
45012W        W13353   9.782   0.887   3.170
45013W        W13354  18.241   5.393  13.874
45014W        W13355   1.456  30.651  12.864
45015W        W13356  26.971   0.374   2.218
45016W        W13357  33.095   9.867   2.863
45017W        W13358  27.518   8.674   5.221
45018W        W13359  26.487  29.597   4.665
45019W        W13360  12.351   6.324  11.391
45020W        W13361  10.674  10.827   9.933
45021W        W13362  31.127  18.146   1.922
45022W        W13363  21.578  23.013   1.360
45023W        W13364  17.192  36.009   4.257
45024W        W13365  17.588  38.993  12.038
45025W        W13366   9.706  38.398   1.924
45026W        W13367  38.466  31.905  11.603
45027W        W13368  35.973   3.358   3.374
45028W        W13369  39.826  40.399  10.596
45029W        W13370  16.293  32.105   0.745
45030W        W13371   0.891  16.568  13.793
45031W        W13372  33.956  40.827   4.628
45032W        W13373   4.388  19.538   3.832
45033W        W13374  21.201  34.047   3.365
45034W        W13375  14.815  41.011  10.961
45035W        W13376  37.520  15.582  14.822
45036W        W13377   5.296  28.111  12.859
45037W        W13378  14.624  20.257  14.288
45038W        W13379   5.365   6.235   1.264
45039W        W13380  27.195   3.886  13.408
45040W        W13381  44.995  17.665  12.954
45041W        W13382  39.415  32.603   4.803
45042W        W13383  17.791  34.563   2.180
45043W        W13384  15.605  32.962   3.850
45044W        W13385  42.349   1.735   0.948
45045W        W13386  25.596  44.821   0.378
45046W        W13387  33.407   2.767   1.360
45047W        W13388   1.798  33.094  11.101
45048W        W13389  30.525  14.123  12.384
45049W        W13390  20.628  30.596   4.792
45050W        W13391   0.314  25.116   3.858
45051W        W13392  14.157  38.534   4.240
45052W        W13393  12.784  21.607   2.788
45053W        W13394  28.038   2.431   3.286
45054W        W13395   2.743  15.111  14.327
45055W        W13396   2.947   2.877  11.865
45056W        W13397  14.641  35.068   4.671
45057W        W13398  29.933  28.055  13.447
45058W        W13399  14.243  35.047  14.352
45059W        W13400  27.509  10.862   3.333
45060W        W13401  23.684  25.484  12.059
45061W        W13402  16.173  13.126   3.234
45062W        W13403  43.925   5.202   2.740
45063W        W13404   6.726  36.885  14.432
45064W        W13405  31.976  34.433  11.112
45065W        W13406  15.162  21.175   0.742
45066W        W13407  18.139  12.683   3.681
45067W        W13408  28.944  42.951   1.807
45068W        W13409  20.564  12.271   4.296
45069W        W13410   2.845   5.428  10.938
45070W        W13411  32.427   2.467  14.421
45071W        W13412  38.521   0.917  11.443
45072W        W13413  36.385  44.346  10.557
45073W        W13414  29.067  23.145   0.760
45074W        W13415  22.640  44.498  14.970
45075W        W13416  31.944  20.134   2.225
45076W        W13417  34.870   5.364   1.251
45077W        W13418  20.230  22.097   3.320
45078W        W13419   0.789  42.875  14.827
45079W        W13420  18.599  13.770  14.871
45080W        W13421  21.632  39.444  11.895
45081W        W13422  30.651   2.369  11.591
45082W        W13423   9.190  39.880   1.935
45083W        W13424  43.347  15.244   1.779
45084W        W13425   8.686  33.008   4.835
45085W        W13426  34.483  24.533  14.025
45086W        W13427  15.721  34.594  12.531
45087W        W13428  28.175  43.911  12.876
45088W        W13429   3.454  29.100   1.925
45089W        W13430   8.225  38.432   4.778
45090W        W13431  19.178  13.712   0.395
45091W        W13432  33.090  22.532  10.485
45092W        W13433  34.879  43.342  10.894
45093W        W13434  17.147  15.172   4.167
45094W        W13435   4.260  15.606   2.863
45095W        W13436  30.436  41.859   0.309
45096W        W13437  33.069  44.901  14.397
45097W        W13438  13.178  35.049  14.427
45098W        W13439  21.180   8.747   0.312
45099W        W13440  31.024   1.899   4.773
45100W        W13441   2.956  21.118   2.763
45101W        W13442  39.513   3.335   2.249
45102W        W13443  17.713  17.119  13.831
45103W        W13444  19.715   9.691  14.499
45104W        W13445  18.156   7.405   0.743
45105W        W13446   7.911  30.951   4.254
45106W        W13447  31.531   9.729  10.933
45107W        W13448  15.816  30.442  13.866
45108W        W13449  23.116  37.499  14.340
45109W        W13450  12.143  12.155  11.464
45110W        W13451  16.752  13.310  11.108
45111W        W13452  38.924  17.785   1.417
45112W        W13453  26.001  32.979   2.195
45113W        W13454  11.656   0.328   0.833
45114W        W13455  29.503  44.402  12.545
45115W        W13456  11.766  36.404   4.646
45116W        W13457  29.574  10.701  13.963
45117W        W13458  31.477  26.696  11.554
45118W        W13459  37.518  19.551  10.074
45119W        W13460   4.764  20.647  11.871
45120W        W13461  41.296   4.789  12.515
45121W        W13462  26.007  32.483   2.698
45122W        W13463   2.721  17.197  12.558
45123W        W13464  23.127  34.422   1.820
45124W        W13465  33.517   8.173  12.889
45125W        W13466  24.188  34.614  12.982
45126W        W13467  31.060  24.509   3.679
45127W        W13468  33.968  37.514   3.226
45128W        W13469  16.264  32.470   2.821
45129W        W13470  39.988  19.604  12.954
45130W        W13471   4.755  28.018   0.467
45131W        W13472   6.744  43.974   1.771
45132W        W13473   3.283  19.113  10.450
45133W        W13474   7.313  34.036  11.421
45134W        W13475   0.441  20.616  10.588
45135W        W13476   7.860  37.960   3.158
45136W        W13477  19.549  39.377   4.716
45137W        W13478  22.702   8.230  12.890
45138W        W13479  43.833   0.388   2.389
45139W        W13480  40.018  21.579   3.678
45140W        W13481  21.091   3.457  11.014
45141W        W13482  16.143  41.447   3.165
45142W        W13483   5.702  41.009   0.253
45143W        W13484   7.704   7.254  14.390
45144W        W13485  28.446   0.452  14.361
45145W        W13486  25.668  11.642  13.376
45146W        W13487  44.470  44.897   0.406
45147W        W13488  13.243  34.578   0.360
45148W        W13489  28.144   6.915   2.350
45149W        W13490   0.288  33.436  12.557
45150W        W13491  34.008   0.394   0.857
45151W        W13492  30.638  12.611   0.471
45152W        W13493  41.012  13.685   2.801
45153W        W13494   5.804  38.848   1.846
45154W        W13495  30.958   2.463  10.934
45155W        W13496   6.904   0.390  13.987
45156W        W13497  17.121  34.960  13.056
45157W        W13498   8.760  33.056  14.799
45158W        W13499  16.636  11.805   4.618
45159W        W13500   7.416  42.461   1.911
45160W        W13501   9.156  20.035   4.272
45161W        W13502  18.178  39.835   2.367
45162W        W13503  12.704  31.420   0.313
45163W        W13504  31.090  22.009  10.503
45164W        W13505  42.447   3.269  12.562
45165W        W13506  31.573  13.289  14.412
45166W        W13507  12.668  23.622  10.570
45167W        W13508  33.588  11.352   3.763
45168W        W13509  29.550  13.796   4.709
45169W        W13510  28.617  34.045  10.982
45170W        W13511  29.171  19.252   3.771
45171W        W13512  21.686  38.884  10.557
45172W        W13513  27.999  38.998  12.960
45173W        W13514  14.106  18.662   0.328
45174W        W13515  17.757   7.878  13.927
45175W        W13516  32.097  25.595  11.584
45176W        W13517  34.995   7.690   0.423
45177W        W13518  43.413  17.597   2.356
45178W        W13519  23.235  38.338  14.935
45179W        W13520  12.150  11.696   4.256
45180W        W13521  10.740  41.903  11.008
45181W        W13522   1.807   6.428   0.449
45182W        W13523  40.001  36.984   1.742
45183W        W13524  37.984   3.248   3.695
45184W        W13525  34.477   2.733   3.155
45185W        W13526  31.957  21.531   1.906
45186W        W13527  28.546  10.739   3.221
45187W        W13528   4.901   6.400  11.893
45188W        W13529  19.117   7.406  12.042
45189W        W13530  18.610  11.240   0.849
45190W        W13531  42.026  35.522   1.329
45191W        W13532  24.028  38.883   5.288
45192W        W13533  26.472   2.314  13.395
45193W        W13534  17.571  34.918   2.192
45194W        W13535   0.340  38.405   2.882
45195W        W13536   2.844   0.338   4.144
45196W        W13537  15.763  41.316   1.320
45197W        W13538  29.615  15.198  14.384
45198W        W13539  33.963  31.931   4.752
45199W        W13540  29.027  14.764  13.415
45200W        W13541  43.910  31.496  12.897
45201W        W13542  30.580  41.409  10.943
45202W        W13543   5.407  28.672  13.529
45203W        W13544  24.488   3.321   5.115
45204W        W13545  31.962  33.497   4.838
45205W        W13546   2.311  41.428  14.493
45206W        W13547  12.732   9.816  14.842
45207W        W13548   2.311   9.177   2.807
45208W        W13549  40.529  44.994  10.614
45209W        W13550  19.543  41.805  14.395
45210W        W13551  22.514  14.207  11.472
45211W        W13552  12.131  17.280  13.342
45212W        W13553  40.885  37.525   4.735
45213W        W13554  11.237  34.515  12.928
45214W        W13555  16.234  33.399   3.351
45215W        W13556  13.169  36.948   1.764
45216W        W13557  22.144  22.996  14.893
45217W        W13558  32.409  18.767  10.492
45218W        W13559  11.797  13.657  13.057
45219W        W13560  31.069  15.655  14.784
45220W        W13561  14.812  19.591  12.076
45221W        W13562  32.456  33.474  10.074
45222W        W13563  12.164   2.241   2.351
45223W        W13564  21.578  44.010   1.356
45224W        W13565  36.375  13.234  14.006
45225W        W13566  36.946  25.129  11.565
45226W        W13567  29.470  19.699   1.811
45227W        W13568  17.252   4.205   0.277
45228W        W13569  29.512  43.358   2.352
45229W        W13570   0.354  14.828   0.814
45230W        W13571  23.649  42.439  12.464
45231W        W13572   7.714  24.688  14.426
45232W        W13573  38.514  30.471   2.303
45233W        W13574  22.222  12.265   3.740
45234W        W13575  40.994   6.233   3.800
45235W        W13576  32.474  30.450  13.523
45236W        W13577  34.592  35.584  11.527
45237W        W13578  28.561   0.875   2.819
45238W        W13579  21.538  24.123   0.446
45239W        W13580  20.612  37.077   2.192
45240W        W13581  22.252  43.808  12.050
45241W        W13582   5.233  37.453  13.347
45242W        W13583  33.623  14.723   1.715
45243W        W13584  12.673  35.973  11.562
45244W        W13585  42.416  32.619  11.108
45245W        W13586  37.883   1.344   1.897
45246W        W13587  22.569  18.270   0.258
45247W        W13588  33.981   2.839   0.844
45248W        W13589  43.384   0.352   1.342
45249W        W13590  12.328  44.851   0.295
45250W        W13591  10.186  43.378   1.823
45251W        W13592  11.282  17.081  13.481
45252W        W13593   2.914   0.761  12.070
45253W        W13594  23.225   8.192   0.350
45254W        W13595  42.795  41.871  12.523
45255W        W13596  16.316   3.392   1.728
45256W        W13597  39.441  24.991  14.508
45257W        W13598  13.734   3.897   3.768
45258W        W13599  24.567  14.775   0.272
45259W        W13600  26.183  38.902  13.864
45260W        W13601  32.425  18.053  13.429
45261W        W13602  20.216  36.578  13.380
45262W        W13603  28.502   2.737   4.156
45263W        W13604  14.315  41.902   4.620
45264W        W13605   1.425  34.870   4.212
45265W        W13606  33.957  41.944   0.472
45266W        W13607  24.143  10.851   3.829
45267W        W13608  31.559  39.846  13.975
45268W        W13609  43.407  12.834  11.060
45269W        W13610  37.852  21.643  10.996
45270W        W13611  21.639   3.927  13.871
45271W        W13612  24.096   6.353  14.508
45272W        W13613   4.402  19.129  14.427
45273W        W13614  38.054   7.698   0.773
45274W        W13615  32.117  17.208   2.786
45275W        W13616   2.904  27.965   0.926
45276W        W13617   9.849  31.543   1.220
45277W        W13618  23.643  36.584  12.547
45278W        W13619  15.215  21.166  13.445
45279W        W13620  10.821  25.500  14.444
45280W        W13621  13.107  27.627   1.694
45281W        W13622  24.212  19.142   3.183
45282W        W13623   9.266  21.173   3.643
45283W        W13624  38.346  23.060   3.244
45284W        W13625  10.360  40.915  10.452
45285W        W13626   8.776  29.550  14.861
45286W        W13627   2.334   9.237  14.385
45287W        W13628  11.866  10.172   3.730
45288W        W13629  12.216  19.224  11.528
45289W        W13630  19.779  34.530  10.897
45290W        W13631   3.355  24.177  10.567
45291W        W13632  20.559   6.205   2.898
45292W        W13633  28.454   4.219  12.573
45293W        W13634  30.080   7.781   3.858
45294W        W13635  34.541   6.307   3.306
45295W        W13636   1.861  27.959  10.577
45296W        W13637  26.991  20.589  12.917
45297W        W13638  41.467  40.826   3.275
45298W        W13639   6.301  20.028   4.645
45299W        W13640  18.207   2.735  14.481
45300W        W13641  27.110  36.048   4.159
45301W        W13642   5.760  42.862  13.921
45302W        W13643  35.568  34.896   2.868
45303W        W13644  34.501  38.944   0.291
45304W        W13645   1.270  17.670  10.503
45305W        W13646  31.647  29.621   3.167
45306W        W13647  43.479   2.832   3.789
45307W        W13648  36.492  41.951  13.901
45308W        W13649  27.543   7.231  14.286
45309W        W13650   1.416   5.898  11.953
45310W        W13651  43.466  37.973   3.265
45311W        W13652   1.976   7.393  14.286
45312W        W13653   8.802  19.136  12.510
45313W        W13654  35.001  32.471  13.850
45314W        W13655   3.721  21.203  13.365
45315W        W13656  32.053  26.472   2.735
45316W        W13657   8.220   4.854  10.924
45317W        W13658  14.761  39.061   5.264
45318W        W13659  35.430   9.163  11.573
45319W        W13660   3.835  12.833   3.187
45320W        W13661  20.565  14.195  12.507
45321W        W13662   2.457  37.440   3.173
45322W        W13663  10.782  26.685  14.001
45323W        W13664  14.141   5.407   0.473
45324W        W13665  27.620  33.421  12.952
45325W        W13666  18.692  31.424   4.234
45326W        W13667   9.727  11.660   2.821
45327W        W13668  43.872  34.417  12.964
45328W        W13669  36.573  27.479  14.995
45329W        W13670   2.341  33.406  13.949
45330W        W13671  23.145  27.028  11.902
45331W        W13672  37.902  35.990   1.883
45332W        W13673  42.804  32.410  13.913
45333W        W13674  24.226  14.596   0.781
45334W        W13675  38.875  39.847   0.458
45335W        W13676  28.608  22.156  11.378
45336W        W13677  20.693  29.952   2.701
45337W        W13678  35.463  26.584  10.456
45338W        W13679  31.107  18.622   0.307
45339W        W13680  31.137  31.117  13.831
45340W        W13681   1.946  26.981  11.108
45341W        W13682  19.710  28.159   2.205
45342W        W13683  27.631  11.829  11.445
45343W        W13684  30.914  41.899   4.116
45344W        W13685   4.207  22.154  12.527
45345W        W13686  13.694  18.119  14.871
45346W        W13687   5.230  44.290   3.201
45347W        W13688  16.604  24.611   2.851
45348W        W13689  41.978  14.227   1.813
45349W        W13690  33.089  29.061  14.479
45350W        W13691  12.716  20.634   1.247
45351W        W13692   1.811  27.524  12.356
45352W        W13693  25.532  29.938   1.921
45353W        W13694  40.871  12.796   3.670
45354W        W13695  42.850   7.181   3.755
45355W        W13696  21.713  28.679   3.834
45356W        W13697  29.583  42.382   1.342
45357W        W13698  25.508   9.158   2.848
45358W        W13699   9.239  14.776  12.059
45359W        W13700  21.702   8.383  14.354
45360W        W13701   1.304   3.851  13.834
45361W        W13702   5.719  29.009   0.947
45362W        W13703  29.505   1.904  14.927
45363W        W13704  40.381  33.986  14.443
45364W        W13705  35.887  18.659   0.333
45365W        W13706  23.155  24.128   0.851
45366W        W13707  39.821  26.641   4.122
45367W        W13708  25.683   4.863   3.351
45368W        W13709  40.930  34.069  13.975
45369W        W13710  41.841  40.946  11.503
45370W        W13711  35.925  27.527  12.925
45371W        W13712  18.741   7.356  14.354
45372W        W13713  44.364  10.278  13.925
45373W        W13714  28.039  33.003   4.613
45374W        W13715  25.991  31.522  11.543
45375W        W13716  21.140   6.224   3.648
45376W        W13717  27.690  15.640  13.005
45377W        W13718   8.333  25.127   2.217
45378W        W13719  38.420  27.005  12.561
45379W        W13720  44.848  24.197   2.275
45380W        W13721   5.415  29.629  12.919
45381W        W13722  11.725  20.729  11.998
45382W        W13723  31.433  34.613  11.005
45383W        W13724  12.639  27.447  12.843
45384W        W13725  29.660  38.568  11.978
45385W        W13726  30.583  10.207  12.965
45386W        W13727   1.379  27.678   3.661
45387W        W13728  43.439   4.710  14.909
45388W        W13729  34.614  15.212   4.164
45389W        W13730  19.701  33.446  13.060
45390W        W13731  21.053  11.227   0.729
45391W        W13732  35.398  38.326  12.379
45392W        W13733  20.557  33.441   0.960
45393W        W13734  36.991  34.473  11.870
45394W        W13735   6.287  27.683  12.445
45395W        W13736   1.908   5.840   0.352
45396W        W13737  41.880  40.310   0.928
45397W        W13738  33.398  38.944  12.897
45398W        W13739  10.196  26.020   2.374
45399W        W13740  21.685  30.435   3.362
45400W        W13741  37.442   8.691  12.060
45401W        W13742  13.316  12.759  13.313
45402W        W13743   6.910  28.975   4.759
45403W        W13744  14.802  31.986  14.026
45404W        W13745  17.566  42.025   2.835
45405W        W13746  29.446  39.886  11.930
45406W        W13747  14.818  17.086   4.259
45407W        W13748   6.427   8.283   3.218
45408W        W13749   2.303   1.266   0.391
45409W        W13750  23.729  11.365  11.924
45410W        W13751  33.491  44.403   0.366
45411W        W13752  14.672  21.739  14.313
45412W        W13753  30.518  22.648   2.399
45413W        W13754  32.936  16.103   2.817
45414W        W13755   2.324  29.537   1.294
45415W        W13756   3.869  18.788   4.725
45416W        W13757   2.472   1.966  11.092
45417W        W13758   3.411   9.864  14.502
45418W        W13759   9.649  43.792   1.408
45419W        W13760  15.191  20.659   3.318
45420W        W13761  36.377   3.308  11.579
45421W        W13762   6.680  33.969   4.629
45422W        W13763  13.776  11.769  10.593
45423W        W13764  32.623  36.849  10.606
45424W        W13765  38.527  36.380   2.822
45425W        W13766  19.665  25.706   3.280
45426W        W13767  16.078  37.941   2.234
45427W        W13768  41.304   0.465   2.895
45428W        W13769  26.990  43.304  12.384
45429W        W13770  39.403  32.542   4.314
45430W        W13771  13.333  37.482   2.791
45431W        W13772  32.604  21.160   0.269
45432W        W13773  43.482  15.800  14.784
45433W        W13774  23.604  15.202   1.837
45434W        W13775  14.125  18.657  14.965
45435W        W13776  16.716  36.584  12.363
45436W        W13777  22.118  15.645   4.715
45437W        W13778   7.742  43.904  12.011
45438W        W13779  44.324  41.032  12.511
45439W        W13780  36.926  26.189  13.923
45440W        W13781  28.456  44.463  13.374
45441W        W13782   7.310  22.241  12.478
45442W        W13783  22.560   3.888   4.803
45443W        W13784   1.876  27.178   4.238
45444W        W13785  15.108  22.558   0.920
45445W        W13786  35.031  37.914  14.406
45446W        W13787   3.416  15.797   1.725
45447W        W13788   3.407  42.394   0.277
45448W        W13789  39.516  30.922   4.338
45449W        W13790  13.176  37.953   2.790
45450W        W13791  34.059   4.764   3.709
45451W        W13792   6.349  16.711  10.001
45452W        W13793  17.787  32.554   2.664
45453W        W13794  35.911  36.356   2.389
45454W        W13795  12.803  16.235   0.956
45455W        W13796  22.038  11.309  12.554
45456W        W13797  20.221   0.263   1.309
45457W        W13798  18.615  20.163  14.951
45458W        W13799  23.035  26.120  12.446
45459W        W13800  36.916   9.201   4.307
45460W        W13801   2.454   1.772   4.212
45461W        W13802  31.551  13.808  11.469
45462W        W13803  25.623  31.981  12.939
45463W        W13804  43.948  25.167   4.794
45464W        W13805  19.592   5.239  10.960
45465W        W13806  32.443   5.877  13.792
45466W        W13807  43.790  43.871  13.932
45467W        W13808  23.003  31.122  11.439
45468W        W13809   8.798  23.019  13.449
45469W        W13810   7.795  29.155   3.743
45470W        W13811  29.537  19.602  11.010
45471W        W13812  32.081  34.469   2.282
45472W        W13813  28.178  15.704   1.923
45473W        W13814  20.253  29.456  14.891
45474W        W13815  24.503   0.785   0.273
45475W        W13816  35.904  37.580  10.954
45476W        W13817  23.076  29.509  14.317
45477W        W13818  22.108  22.033  13.502
45478W        W13819   0.305  33.557  13.887
45479W        W13820  38.976  28.147   0.287
45480W        W13821  32.542  44.969   3.263
45481W        W13822   9.243  26.497   0.841
45482W        W13823   7.879  33.549   0.965
45483W        W13824  22.078  12.141   0.756
45484W        W13825  14.244  30.032  10.596
45485W        W13826  24.573  41.354   4.189
45486W        W13827   6.210  40.938  12.877
45487W        W13828  36.453   3.755  11.453
45488W        W13829  10.149  36.400   0.927
45489W        W13830  29.158  44.960   3.822
45490W        W13831  25.706  27.185   1.401
45491W        W13832  18.752  43.344   0.286
45492W        W13833   7.378  18.602  13.429
45493W        W13834  22.035   5.230  14.824
45494W        W13835   6.278  15.190  11.482
45495W        W13836  31.456   4.253   0.378
45496W        W13837  42.511  22.570   4.222
45497W        W13838  34.024  27.958  10.907
45498W        W13839  13.334  34.010   4.634
45499W        W13840  14.793  10.767   3.867
45500W        W13841  20.716   3.840   1.714
45501W        W13842  28.623  24.577   3.743
45502W        W13843  28.944  30.553   1.744
45503W        W13844  16.231  35.380  12.366
45504W        W13845  14.644  24.494   3.181
45505W        W13846  22.733   3.271  13.956
45506W        W13847   2.351  34.099  13.840
45507W        W13848  37.341  34.409   3.219
45508W        W13849  27.453   0.922  12.053
45509W        W13850  33.626   9.178  11.560
45510W        W13851  29.035   9.831  11.006
45511W        W13852  28.164  41.934  11.598
45512W        W13853   2.884  25.590  11.961
45513W        W13854   2.870  10.866   1.735
45514W        W13855  32.563  17.563  11.376
45515W        W13856   5.409  41.396   2.308
45516W        W13857  16.217  19.230  13.957
45517W        W13858   6.706  43.776  12.558
45518W        W13859  19.205  31.139   4.187
45519W        W13860   9.351  26.951  12.401
45520W        W13861  36.398  28.186   4.797
45521W        W13862  17.152  31.588   1.700
45522W        W13863   3.424  11.819   4.756
45523W        W13864  33.944  24.717  10.438
45524W        W13865  34.573  37.034  14.279
45525W        W13866   2.965  18.188   1.867
45526W        W13867  31.913  12.664   9.977
45527W        W13868  21.196  23.152  12.095
45528W        W13869   4.398  29.963   2.315
45529W        W13870  14.694  31.632   0.965
45530W        W13871  11.757  39.468  11.913
45531W        W13872  38.855  18.751  10.544
45532W        W13873  20.123   5.433  12.849
45533W        W13874   3.866  19.163   5.298
45534W        W13875  35.055  17.073  14.418
45535W        W13876   9.781  44.919   3.207
45536W        W13877  42.785  25.518   1.735
45537W        W13878  17.078   5.905   9.969
45538W        W13879   8.853  40.018   3.306
45539W        W13880   1.373  11.647  12.533
45540W        W13881  37.563  27.984   5.230
45541W        W13882  16.134   5.372  11.423
45542W        W13883   5.895  17.597  14.383
45543W        W13884   1.419   5.409  10.572
45544W        W13885  14.663  34.901   4.225
45545W        W13886  40.333   2.323  12.074
45546W        W13887  20.193  32.028   2.685
45547W        W13888  34.918  26.469   3.693
45548W        W13889  40.445  39.002  13.890
45549W        W13890  20.720  34.032   1.789
45550W        W13891  31.125  39.418  10.413
45551W        W13892  23.663  18.150   1.241
45552W        W13893  15.216  35.497  12.985
45553W        W13894  10.726   2.949   3.650
45554W        W13895  39.999  28.998   1.304
45555W        W13896  10.689  12.297  10.447
45556W        W13897   9.844  40.814  11.087
45557W        W13898   3.317  29.951  14.357
45558W        W13899  20.611  25.971  11.546
45559W        W13900  28.073   1.311  14.360
45560W        W13901  16.088  33.121   4.829
45561W        W13902  15.157  20.705  14.898
45562W        W13903   6.411   4.747   0.956
45563W        W13904  10.715  16.582   2.194
45564W        W13905  17.714  38.064   2.820
45565W        W13906   8.796   9.367  14.356
45566W        W13907  42.356   4.813   2.672
45567W        W13908  22.708  38.509   1.930
45568W        W13909  41.317   8.190   3.649
45569W        W13910  42.296  22.544  13.975
45570W        W13911  11.303  27.147   4.679
45571W        W13912  31.113   2.386  13.488
45572W        W13913  39.422  13.122   3.806
45573W        W13914  11.231  42.988   2.380
45574W        W13915   9.286   4.849  10.441
45575W        W13916  35.419  21.685   2.763
45576W        W13917  41.892  19.092   0.951
45577W        W13918  35.947  31.516  11.417
45578W        W13919  25.583  40.460  10.908
45579W        W13920  11.355   8.796   0.791
45580W        W13921  17.230  41.870  10.909
45581W        W13922  27.171  35.032  11.382
45582W        W13923  11.255  24.498   2.347
45583W        W13924   6.183   5.216   2.805
45584W        W13925  39.841  35.069  11.944
45585W        W13926   6.684  33.586  13.828
45586W        W13927  36.097   8.363  13.851
45587W        W13928  22.540  34.114  14.302
45588W        W13929  26.102  44.933   3.177
45589W        W13930  44.405  17.301   1.832
45590W        W13931  36.563  16.708  11.418
45591W        W13932  39.322   1.976  13.989
45592W        W13933  18.584  38.334   4.726
45593W        W13934  34.963  12.267   4.124
45594W        W13935  41.382  21.126  14.784
45595W        W13936  23.703  13.182   4.136
45596W        W13937   3.364  30.659  14.893
45597W        W13938  38.879   7.388  12.427
45598W        W13939  44.426  41.821  12.945
45599W        W13940  41.917   3.758  10.572
45600W        W13941  10.831  27.486   2.198
45601W        W13942  12.247  36.087   2.796
45602W        W13943  22.624  24.582  13.816
45603W        W13944  30.572  39.403  12.473
45604W        W13945  28.586  42.388  12.500
45605W        W13946   6.382   8.262   3.771
45606W        W13947  27.114  33.005   3.703
45607W        W13948  33.428  38.352   3.186
45608W        W13949   8.679  41.822  13.548
45609W        W13950  23.224  43.826  10.432
45610W        W13951  12.206   8.231  12.379
45611W        W13952  44.501  40.958  14.787
45612W        W13953   1.763  41.006  12.033
45613W        W13954  31.417  40.449   2.674
45614W        W13955  44.471  20.266   4.700
45615W        W13956  39.418  20.635   4.278
45616W        W13957  22.013  20.201  11.973
45617W        W13958   3.864  13.814  12.067
45618W        W13959  22.676  13.138   4.708
45619W        W13960   7.241  32.621  10.531
45620W        W13961  27.152  18.232   0.272
45621W        W13962  12.844  43.980   2.393
45622W        W13963  32.914   7.247   2.365
45623W        W13964  16.725   9.169   4.311
45624W        W13965   5.858  11.129  10.534
45625W        W13966  31.475  29.517  12.014
45626W        W13967  17.676   2.268   0.291
45627W        W13968   7.862  24.667   4.801
45628W        W13969  12.663  37.923  12.544
45629W        W13970  21.561  20.652   4.231
45630W        W13971   9.885  15.277   1.405
45631W        W13972  28.112  20.043  13.879
45632W        W13973  44.770  32.408  13.011
45633W        W13974  24.565  40.828   0.296
45634W        W13975  26.553  11.198   3.661
45635W        W13976   2.890   5.704  14.306
45636W        W13977  41.891  23.214   3.639
45637W        W13978  32.023  28.173  10.427
45638W        W13979  35.009   0.963  10.423
45639W        W13980  32.103   1.279  10.558
45640W        W13981   4.403  22.108  11.425
45641W        W13982  24.569  38.938  11.888
45642W        W13983  43.797  10.866  12.970
45643W        W13984  20.614   8.722   1.827
45644W        W13985   3.254   2.245   3.869
45645W        W13986  20.634  17.771   4.668
45646W        W13987   0.757  22.510   0.342
45647W        W13988  26.104   4.300   1.362
45648W        W13989  12.735   6.305   2.180
45649W        W13990  42.473   1.416   0.445
45650W        W13991  26.058  15.714  11.480
45651W        W13992  21.616   6.737  13.913
45652W        W13993  29.440  13.830   3.646
45653W        W13994  39.976  25.073  13.411
45654W        W13995  24.176  36.548   1.830
45655W        W13996   8.712  27.988  12.542
45656W        W13997  43.891  44.504   4.287
45657W        W13998  10.649  41.295  14.403
45658W        W13999  28.481  35.560  14.970
45659W        W14000  17.155  34.391  12.461
45660W        W14001   2.886  29.447  11.953
45661W        W14002  25.596   7.187  10.564
45662W        W14003  31.970  39.913   1.795
45663W        W14004  11.338  39.546   0.431
45664W        W14005  42.909  39.063   1.896
45665W        W14006  31.145  19.281  11.475
45666W        W14007  18.093  19.275   1.290
45667W        W14008  41.419  24.504   3.710
45668W        W14009  25.072  27.484   2.225
45669W        W14010  25.529  19.244   2.376
45670W        W14011  38.451  15.184   4.683
45671W        W14012  29.506  17.100   2.827
45672W        W14013  33.442  37.032   4.659
45673W        W14014  32.935   8.196   1.399
45674W        W14015   5.264  39.496   3.860
45675W        W14016   9.165  28.929   0.472
45676W        W14017  24.617  42.401  10.421
45677W        W14018   6.319   1.951  11.034
45678W        W14019  42.408   8.388   4.662
45679W        W14020  38.525  34.596   1.783
45680W        W14021  25.979  28.150   1.912
45681W        W14022  18.761   1.304  13.932
45682W        W14023  43.328   8.163   2.291
45683W        W14024  40.893   7.369  13.005
45684W        W14025  29.470  28.475   4.786
45685W        W14026  28.635  30.465   2.681
45686W        W14027  19.551  19.535  14.807
45687W        W14028   6.364   2.402  13.965
45688W        W14029   1.817   9.718   3.694
45689W        W14030   6.361  26.524  11.451
45690W        W14031  26.006   4.908  14.299
45691W        W14032  32.538  11.225   2.281
45692W        W14033  36.065  13.159   2.834
45693W        W14034  11.778  30.079  13.863
45694W        W14035  23.235  24.219   1.386
45695W        W14036  27.982  33.509   3.322
45696W        W14037  23.128  10.748   0.470
45697W        W14038  29.992  35.467   0.400
45698W        W14039  42.032  12.844  11.570
45699W        W14040  36.968  19.637  13.805
45700W        W14041  15.674  40.041   0.322
45701W        W14042  10.783  22.626   3.829
45702W        W14043   5.713   7.886  13.021
45703W        W14044  23.583   5.734   1.773
45704W        W14045  24.670  36.927   1.410
45705W        W14046  35.369  27.690   4.203
45706W        W14047  31.073  20.214  11.937
45707W        W14048   2.380   5.418   0.361
45708W        W14049   1.791  35.450  12.571
45709W        W14050   8.698  19.685  12.432
45710W        W14051  39.453  36.434  12.897
45711W        W14052  10.168  37.956   1.243
45712W        W14053   8.804  41.912   4.178
45713W        W14054   2.238   6.818  12.424
45714W        W14055  23.011  14.179  10.481
45715W        W14056  37.832  25.542   3.652
45716W        W14057  31.943   2.799   2.257
45717W        W14058  29.074   5.231  13.971
45718W        W14059  12.183  32.897   2.713
45719W        W14060  43.767  36.054   4.786
45720W        W14061  26.605  25.076  12.576
45721W        W14062  37.389   4.210  14.406
45722W        W14063   5.433  33.389   0.438
45723W        W14064  18.067  44.470   1.218
45724W        W14065  28.553   3.361  10.551
45725W        W14066  32.511  25.997   0.277
45726W        W14067  33.055  19.720   4.290
45727W        W14068  20.538  36.864   2.869
45728W        W14069  18.175   2.720   0.267
45729W        W14070  33.896   9.337   1.810
45730W        W14071  25.186   5.729   2.725
45731W        W14072   3.239  22.115   1.853
45732W        W14073  23.144  34.904  11.899
45733W        W14074  39.978  19.779   4.209
45734W        W14075  30.439  21.235   0.462
45735W        W14076  39.923   3.366   2.799
45736W        W14077  23.162  37.011  14.379
45737W        W14078  25.574  16.272   4.742
45738W        W14079  18.169  11.355  11.490
45739W        W14080   2.940  14.144   4.132
45740W        W14081   4.398  43.449   4.768
45741W        W14082  32.394  30.579   5.209
45742W        W14083  13.842  25.531   4.228
45743W        W14084  19.262  43.414  13.362
45744W        W14085  40.335  41.868  11.932
45745W        W14086  24.507  12.611  10.422
45746W        W14087   6.207  15.782   5.168
45747W        W14088  37.059  27.996  14.383
45748W        W14089  31.594  19.133  14.886
45749W        W14090  35.910  44.990   4.609
45750W        W14091  12.828  33.425  11.479
45751W        W14092  21.154  36.513   4.647
45752W        W14093  42.417   3.260   1.751
45753W        W14094  11.303   5.362   0.741
45754W        W14095  13.747  15.143   4.663
45755W        W14096   6.183  30.437   4.823
45756W        W14097   0.376  21.689  12.094
45757W        W14098  11.750  13.114   0.252
45758W        W14099  42.491  29.526  12.946
45759W        W14100  17.716  41.427  11.120
45760W        W14101  32.499  23.113  12.554
45761W        W14102  32.549   9.174  12.986
45762W        W14103  40.330  32.006   5.294
45763W        W14104  10.743  33.440   2.828
45764W        W14105  24.500  21.186  12.990
45765W        W14106  26.531  22.566   2.788
45766W        W14107  33.426  21.746   1.380
45767W        W14108  13.133   0.398   4.637
45768W        W14109  31.143  21.512   2.300
45769W        W14110  21.178  40.806   1.358
45770W        W14111  31.429  32.138   0.920
45771W        W14112  43.927  12.823  12.519
45772W        W14113   9.731  16.612  14.837
45773W        W14114  28.102  38.852   2.294
45774W        W14115   8.168  25.691  13.903
45775W        W14116  14.768  34.103   3.825
45776W        W14117   4.886  42.936   2.719
45777W        W14118  17.080  13.736   2.682
45778W        W14119  34.410  21.622   4.349
45779W        W14120  20.684  27.145   0.278
45780W        W14121  32.496  42.944   1.717
45781W        W14122  16.604  20.524   0.802
45782W        W14123   4.797  36.564  12.484
45783W        W14124  26.028  34.099  11.439
45784W        W14125  24.082  20.588   2.878
45785W        W14126  11.292  30.438   3.734
45786W        W14127   7.298  43.437  12.911
45787W        W14128  31.556  42.471   4.772
45788W        W14129  39.389  34.926   1.807
45789W        W14130  31.925  18.712  14.378
45790W        W14131   9.668  14.239  10.586
45791W        W14132  35.854   0.351   4.704
45792W        W14133  10.706  12.829   3.189
45793W        W14134  25.163  12.201  12.853
45794W        W14135  23.726  37.493  12.512
45795W        W14136  42.331  20.571   3.307
45796W        W14137  22.524  16.785   9.554
45797W        W14138  36.469  17.793  14.325
45798W        W14139  21.088  33.459  14.312
45799W        W14140  25.167  26.535  14.508
45800W        W14141  14.115  28.181   4.625
45801W        W14142  34.410  32.528  11.964
45802W        W14143  20.040  10.789  12.436
45803W        W14144   0.933  35.051   2.408
45804W        W14145   2.268  34.020   0.762
45805W        W14146  43.817  40.368  11.593
45806W        W14147  18.674  26.077   3.734
45807W        W14148  31.138   9.196   3.374
45808W        W14149   8.892  31.572  10.448
45809W        W14150  39.491   9.304  10.908
45810W        W14151   9.362  33.928   4.242
45811W        W14152   8.333  41.329   0.900
45812W        W14153  38.533  13.624   4.331
45813W        W14154  23.604  38.455  13.869
45814W        W14155  23.033  10.286  12.088
45815W        W14156  18.239  39.445   0.729
45816W        W14157  16.164  41.493   3.774
45817W        W14158  28.016   7.311  11.420
45818W        W14159  33.444  13.308   0.881
45819W        W14160  17.665  23.566  14.766
45820W        W14161  20.732   2.922  12.438
45821W        W14162  40.973  19.587  14.495
45822W        W14163  27.607  13.287  11.382
45823W        W14164  25.065  14.199  13.794
45824W        W14165  42.939  42.386  13.864
45825W        W14166  28.549  22.188   1.712
45826W        W14167   4.341  17.140   4.642
45827W        W14168  36.942  37.368  14.917
45828W        W14169  25.033  37.357  13.314
45829W        W14170  26.650   8.721   0.739
45830W        W14171  15.702  27.944  11.383
45831W        W14172  19.262  28.581   0.319
45832W        W14173  39.960  11.146   1.789
45833W        W14174  36.936  35.570   4.615
45834W        W14175  43.299  32.894  13.063
45835W        W14176  31.048  34.109  14.422
45836W        W14177  37.992  25.687   0.358
45837W        W14178  33.912  31.479  11.554
45838W        W14179  29.956  17.675  12.094
45839W        W14180  11.785  26.032   1.370
45840W        W14181  28.104   5.711   1.797
45841W        W14182   5.899  25.116   3.251
45842W        W14183   6.413   9.370  11.126
45843W        W14184   3.948  35.394  13.412
45844W        W14185  42.885  20.252   0.343
45845W        W14186  19.042   5.397  13.958
45846W        W14187   8.237  28.511  11.028
45847W        W14188  35.510  25.141   3.759
45848W        W14189  38.438  10.198   3.644
45849W        W14190  40.859  30.972   3.712
45850W        W14191  27.115  31.576  14.951
45851W        W14192  18.112  41.397   0.447
45852W        W14193  33.543  40.541  11.888
45853W        W14194   8.192  41.305  10.419
45854W        W14195  21.140  14.154   3.700
45855W        W14196   4.208  18.165   3.786
45856W        W14197  41.368  44.853  14.022
45857W        W14198  18.638  42.907   4.833
45858W        W14199  10.735  20.541   2.335
45859W        W14200  32.935  11.305   0.947
45860W        W14201  29.490  39.065   3.854
45861W        W14202  42.316   5.419   4.319
45862W        W14203  20.147  38.401   1.279
45863W        W14204  31.111  14.209  11.507
45864W        W14205  44.316  41.534  10.602
45865W        W14206  13.653  19.551   0.916
45866W        W14207  23.494  27.563   3.244
45867W        W14208  26.177  16.644  12.579
45868W        W14209   8.312   6.801  13.972
45869W        W14210   5.802  43.350  14.801
45870W        W14211  41.005   0.270  10.575
45871W        W14212  25.527  25.698  12.080
45872W        W14213  18.746   0.916   2.351
45873W        W14214  39.058  11.216  13.828
45874W        W14215   1.736  42.390  14.437
45875W        W14216  10.309  30.960   2.779
45876W        W14217   1.796  31.512  13.449
45877W        W14218  34.560   6.864   0.387
45878W        W14219  14.598  16.745  11.038
45879W        W14220  10.691  16.640   3.716
45880W        W14221  34.921  25.702  11.439
45881W        W14222  22.213   0.347  14.274
45882W        W14223  19.557  41.915   3.168
45883W        W14224  19.746  40.898  14.893
45884W        W14225  13.331   4.858  13.441
45885W        W14226  25.218  34.566   1.304
45886W        W14227  28.450  40.924  14.422
45887W        W14228   6.810  27.089  14.318
45888W        W14229  39.401  27.669   0.358
45889W        W14230   0.395   1.749  11.481
45890W        W14231  21.598  13.244   3.723
45891W        W14232   4.745  21.247   0.456
45892W        W14233  43.440  23.224   2.899
45893W        W14234  41.373   0.345  14.417
45894W        W14235  24.490  15.260  14.507
45895W        W14236  36.558  29.923  13.814
45896W        W14237  30.565  41.391   1.802
45897W        W14238  41.966  14.596  12.483
45898W        W14239  16.289  10.697   0.476
45899W        W14240  30.520  40.929  13.912
45900W        W14241  41.337  26.566  14.352
45901W        W14242   4.926   0.377  14.322
45902W        W14243  38.069  35.938   5.237
45903W        W14244  28.151  16.675   2.805
45904W        W14245  30.138  12.208   4.648
45905W        W14246  16.748  20.559   5.619
45906W        W14247   5.358  27.554   2.890
45907W        W14248  16.259  36.927  12.578
45908W        W14249  39.949  13.109  12.403
45909W        W14250  41.484   1.762   2.894
45910W        W14251  26.702  32.074  14.811
45911W        W14252  30.136   2.472  11.518
45912W        W14253  30.023  25.474  10.548
45913W        W14254   3.333   1.329   1.379
45914W        W14255  12.784  26.187  12.401
45915W        W14256   6.915  23.035  14.419
45916W        W14257  35.462  13.334   4.334
45917W        W14258   2.797  17.203  11.393
45918W        W14259  29.040  17.626  14.419
45919W        W14260  22.583  37.481   5.290
45920W        W14261  37.428  17.767   4.772
45921W        W14262  31.099  43.002   5.221
45922W        W14263  30.515  17.088  14.387
45923W        W14264  22.205   0.312  14.870
45924W        W14265  34.072  23.057  14.506
45925W        W14266  12.681  12.285   0.821
45926W        W14267  43.406  18.109  12.987
45927W        W14268  13.687  35.561   0.303
45928W        W14269  14.722   9.691  13.867
45929W        W14270  15.126   6.679  11.577
45930W        W14271   9.852  26.511   3.162
45931W        W14272  32.968  30.427   3.290
45932W        W14273  44.497  17.191  10.098
45933W        W14274  17.306  42.782  13.309
45934W        W14275  33.123  32.947  13.936
45935W        W14276   2.412   9.705  12.484
45936W        W14277  38.884   7.232   0.273
45937W        W14278  25.097  43.791  14.025
45938W        W14279  25.493  11.169   0.291
45939W        W14280   2.845   0.332  13.485
45940W        W14281  14.288  39.367   1.779
45941W        W14282  44.924  38.950  13.965
45942W        W14283  33.106  39.412  12.570
45943W        W14284   2.363  11.721  12.917
45944W        W14285  12.846  38.948  10.635
45945W        W14286  10.878  32.508   2.666
45946W        W14287  37.979  29.123  11.561
45947W        W14288  30.531  15.156  14.918
45948W        W14289  24.021   9.223   3.789
45949W        W14290  16.581  31.078   1.867
45950W        W14291  39.414  29.064  13.919
45951W        W14292  36.938  31.412   4.745
45952W        W14293  12.239  32.991  13.961
45953W        W14294   6.419   6.863   4.206
45954W        W14295   6.879  37.845  10.429
45955W        W14296   1.420  27.950  11.417
45956W        W14297  15.808  27.065   0.921
45957W        W14298  43.858   4.262  14.997
45958W        W14299  39.410  32.558   3.373
45959W        W14300  27.946  18.679   0.847
45960W        W14301  41.386   9.376   0.424
45961W        W14302   3.242   6.247   1.400
45962W        W14303  22.726  20.256  14.878
45963W        W14304  15.089  29.576   4.275
45964W        W14305  15.608  20.214  10.530
45965W        W14306  24.563  29.944   4.788
45966W        W14307  44.866   9.152   1.890
45967W        W14308  36.953  42.490   0.923
45968W        W14309  40.453  13.234   4.215
45969W        W14310  24.018  26.055  11.467
45970W        W14311   6.279  20.171  11.947
45971W        W14312  32.046  21.614   3.274
45972W        W14313  20.084  30.429   4.292
45973W        W14314  29.141  23.562  12.542
45974W        W14315  15.704   9.701   3.335
45975W        W14316   9.198  22.138   1.902
45976W        W14317  16.094  27.176   3.154
45977W        W14318  22.620  11.688  12.460
45978W        W14319  25.088  32.099   3.304
45979W        W14320  15.771  23.050   9.462
45980W        W14321   1.317  30.425   2.272
45981W        W14322  10.676  20.125  14.326
45982W        W14323   3.414  14.174   2.254
45983W        W14324   4.331  41.458  14.308
45984W        W14325  34.535  39.360   2.782
45985W        W14326  27.081  22.584   4.717
45986W        W14327  42.828  43.804  11.907
45987W        W14328  23.564  19.609   4.285
45988W        W14329  43.341  13.210  10.505
45989W        W14330  17.638  40.338  11.894
45990W        W14331   9.303  17.077   4.707
45991W        W14332  43.778  23.730  12.428
45992W        W14333  40.495  32.096  10.948
45993W        W14334  18.680  16.806   3.220
45994W        W14335  30.006  11.814  12.480
45995W        W14336  42.906  20.666  14.811
45996W        W14337  10.202  23.660   0.922
45997W        W14338  23.222   5.837   3.679
45998W        W14339  44.783  16.263   4.656
45999W        W14340   8.225   9.337  10.986
46000W        W14341  23.693  24.518  13.825
46001W        W14342  41.952  44.839   3.314
46002W        W14343  41.367  22.615   1.271
46003W        W14344  36.954   9.885   0.336
46004W        W14345  14.230   5.317  10.963
46005W        W14346  35.931  19.114   1.776
46006W        W14347   3.859   3.916  11.440
46007W        W14348  39.060  32.571  13.376
46008W        W14349  38.467  20.150   2.306
46009W        W14350  18.680   2.721  12.411
46010W        W14351  19.605  37.533   0.755
46011W        W14352  35.555  32.566  10.980
46012W        W14353   3.354  38.391  11.986
46013W        W14354  30.005  33.878  11.122
46014W        W14355  42.848  42.802  14.393
46015W        W14356   0.965  21.110  11.872
46016W        W14357  28.171  11.831   5.239
46017W        W14358  31.591   5.387  12.568
46018W        W14359  15.121  10.358  11.954
46019W        W14360  13.347  30.038  10.609
46020W        W14361  39.044  42.906  11.396
46021W        W14362  22.120   3.413  12.371
46022W        W14363  33.541  20.236   1.372
46023W        W14364   2.740  18.587   3.210
46024W        W14365  28.463  38.836   2.398
46025W        W14366  18.563  37.021  13.505
46026W        W14367  32.957  16.682   3.684
46027W        W14368   3.876  16.669  11.549
46028W        W14369  25.135  11.305  14.286
46029W        W14370  36.543   6.774  12.436
46030W        W14371  23.715  20.038   2.179
46031W        W14372  40.969  22.741  11.019
46032W        W14373  37.484  38.470   0.870
46033W        W14374  30.997  33.575  11.927
46034W        W14375   7.266  18.135   1.435
46035W        W14376  30.124  16.242  13.967
46036W        W14377  35.923  23.686  13.984
46037W        W14378  20.704  32.429   2.822
46038W        W14379   3.395  36.448  12.931
46039W        W14380  12.137  28.644  14.021
46040W        W14381  22.504   1.917   0.831
46041W        W14382   9.218  34.076   3.338
46042W        W14383  19.231  41.930   1.442
46043W        W14384  21.240  40.372   0.357
46044W        W14385   3.897  25.682   4.216
46045W        W14386  44.491  15.652  12.489
46046W        W14387   8.822  24.519  11.057
46047W        W14388  38.031  22.017  11.475
46048W        W14389  18.679  18.291   3.159
46049W        W14390   1.319   0.746   3.312
46050W        W14391   5.842  10.383  14.877
46051W        W14392   8.675  34.910  12.883
46052W        W14393  16.118  10.244   2.328
46053W        W14394  12.786  32.929  12.081
46054W        W14395  22.101   8.678   4.695
46055W        W14396  11.319   7.769   1.828
46056W        W14397   3.955   1.354  13.045
46057W        W14398  24.571  14.120  12.347
46058W        W14399   2.234  32.934   1.344
46059W        W14400  44.441  36.912  13.432
46060W        W14401  36.498  35.478  12.939
46061W        W14402  40.394  37.566   0.480
46062W        W14403   5.840  21.171   3.806
46063W        W14404  22.678  38.933   1.850
46064W        W14405  21.686  10.762  13.829
46065W        W14406  21.192  35.464   2.347
46066W        W14407  20.584  19.205   2.877
46067W        W14408   6.783   6.889   0.961
46068W        W14409   1.915  30.622  12.858
46069W        W14410  31.921   0.817   5.192
46070W        W14411  36.098  15.595   2.850
46071W        W14412  28.510   5.354   3.281
46072W        W14413  15.225  20.677   2.378
46073W        W14414  39.473  19.747  14.877
46074W        W14415   4.865  27.681  14.788
46075W        W14416  32.500   5.887  12.369
46076W        W14417   8.718  15.100  11.973
46077W        W14418  35.431  26.571   4.817
46078W        W14419  14.822  15.754   5.239
46079W        W14420  36.386  44.912  13.906
46080W        W14421  33.882  13.670   3.240
46081W        W14422  26.092   5.404  10.462
46082W        W14423   2.308  24.520  14.934
46083W        W14424  26.616  14.700   0.444
46084W        W14425   9.750  11.684  14.482
46085W        W14426  26.527   9.888   3.361
46086W        W14427  31.538  24.113  11.094
46087W        W14428   9.739  42.014   2.211
46088W        W14429  17.605  33.916   5.596
46089W        W14430  16.713  32.105   4.144
46090W        W14431  10.320   0.973  11.494
46091W        W14432  24.696  20.225   4.737
46092W        W14433  37.971  30.048  14.482
46093W        W14434  31.992  33.116  10.479
46094W        W14435  41.365  12.776   0.267
46095W        W14436  11.348  20.162  12.952
46096W        W14437  35.571  13.604  14.413
46097W        W14438  12.660  24.597   4.334
46098W        W14439  34.987  40.336   1.873
46099W        W14440   5.898  42.935  12.480
46100W        W14441  42.397   1.241  14.432
46101W        W14442  38.381  18.651  14.504
46102W        W14443  33.414  42.796  14.513
46103W        W14444  18.651  26.486  14.921
46104W        W14445  31.960  20.705   4.331
46105W        W14446  37.082  26.083   4.270
46106W        W14447  31.443   3.774  14.473
46107W        W14448   3.737  21.253   1.293
46108W        W14449  19.151  30.912  11.415
46109W        W14450   8.800  41.961  13.964
46110W        W14451  11.725   3.738  12.851
46111W        W14452  43.901  17.710   1.728
46112W        W14453  27.592  21.255  13.543
46113W        W14454  21.186   1.768  10.519
46114W        W14455  11.193  19.097  12.436
46115W        W14456  35.894  44.989  11.913
46116W        W14457  35.902  43.017  10.488
46117W        W14458  36.021  23.114  14.765
46118W        W14459  24.191  33.492  14.281
46119W        W14460   4.835   4.324  13.517
46120W        W14461  21.029  43.382  11.576
46121W        W14462   4.933   8.876  11.611
46122W        W14463  37.408  30.450   4.783
46123W        W14464  42.396  23.673  12.871
46124W        W14465  21.167   9.841   2.677
46125W        W14466  37.378   2.952   3.238
46126W        W14467   8.756  31.525   4.224
46127W        W14468  24.679  15.716   3.668
46128W        W14469  20.213  17.162   5.271
46129W        W14470  41.423   9.735   1.450
46130W        W14471  32.455  28.679  14.984
46131W        W14472  29.612   6.700   4.202
46132W        W14473  44.423  39.925   9.979
46133W        W14474  40.007  14.257  13.453
46134W        W14475  40.831  11.720  14.423
46135W        W14476   3.807  32.425   1.905
46136W        W14477  36.051   2.829  13.907
46137W        W14478  36.078   6.681   4.280
46138W        W14479  29.518  38.873  14.494
46139W        W14480   7.751  34.531  12.554
46140W        W14481  29.633  37.986   2.393
46141W        W14482  10.167  27.099  14.925
46142W        W14483  43.887  13.615  12.941
46143W        W14484  14.692  30.083  12.042
46144W        W14485  35.861  20.742  13.544
46145W        W14486  32.002  31.608  12.565
46146W        W14487  25.675  22.062   0.934
46147W        W14488  16.135  39.443   3.278
46148W        W14489  37.423  14.115   0.347
46149W        W14490  14.165  39.964  11.378
46150W        W14491  18.232  43.308  14.483
46151W        W14492  12.295  27.083   1.320
46152W        W14493  33.066   4.213  10.603
46153W        W14494  30.479  16.274  13.469
46154W        W14495  33.918  38.347  11.495
46155W        W14496  41.324   3.351   1.881
46156W        W14497  39.993  29.549   0.427
46157W        W14498  44.873  27.682   0.418
46158W        W14499  38.563  28.172   4.678
46159W        W14500  22.746   0.914   4.280
46160W        W14501  34.985  43.327  13.897
46161W        W14502   4.942   4.841   2.280
46162W        W14503  19.118  27.620   3.844
46163W        W14504  21.575   0.842  11.861
46164W        W14505  32.546   9.832  10.606
46165W        W14506  44.835  31.120  10.424
46166W        W14507  40.846  25.088  14.382
46167W        W14508  22.208   7.749   2.218
46168W        W14509  39.881  28.553   2.798
46169W        W14510  27.681   6.779  10.539
46170W        W14511  19.536  18.643  14.809
46171W        W14512  41.451   2.300   1.270
46172W        W14513   5.793  41.032  14.893
46173W        W14514  44.481  28.569   2.299
46174W        W14515  41.972  24.143   2.731
46175W        W14516  30.537  39.816  10.032
46176W        W14517  44.498  25.071  13.815
46177W        W14518  26.566  23.535   0.296
46178W        W14519  22.733  36.490  10.972
46179W        W14520   5.289  34.082   2.406
46180W        W14521   7.766  37.047   1.225
46181W        W14522  23.647  38.458  14.306
46182W        W14523  33.061  12.797   3.228
46183W        W14524  39.906  23.076   1.925
46184W        W14525  39.388  27.130   2.813
46185W        W14526   5.725  29.500  11.874
46186W        W14527  31.918  29.985   0.920
46187W        W14528  37.832  10.274   2.711
46188W        W14529  12.121  34.378  10.621
46189W        W14530  20.723  29.013  11.570
46190W        W14531  12.348   9.161  14.345
46191W        W14532  24.624  37.524   2.762
46192W        W14533   0.376   0.767  14.417
46193W        W14534  36.899  19.173  13.489
46194W        W14535  15.271  33.401   1.241
46195W        W14536  42.011  11.687   1.382
46196W        W14537  43.426   8.798   0.898
46197W        W14538   7.734  42.836  11.870
46198W        W14539  41.986  28.590   3.303
46199W        W14540  14.117   9.212   2.711
46200W        W14541  21.058  36.438   0.826
46201W        W14542  13.791  14.674  13.432
46202W        W14543  11.647  27.115   4.301
46203W        W14544   1.816  32.082   3.253
46204W        W14545  40.973  38.511   3.675
46205W        W14546  23.551  13.330  11.903
46206W        W14547  40.331  41.393   3.265
46207W        W14548  28.676  32.008  14.917
46208W        W14549  35.537  25.552  13.366
46209W        W14550  16.591  39.476   1.798
46210W        W14551  37.581   4.843   3.362
46211W        W14552  15.174  23.522  12.358
46212W        W14553  12.673   6.844   4.132
46213W        W14554  28.955  21.119  14.288
46214W        W14555  39.491  26.183  14.371
46215W        W14556  30.009  13.107  14.311
46216W        W14557  16.637  25.675   2.798
46217W        W14558  24.000  35.400   3.184
46218W        W14559  25.015  32.599  13.465
46219W        W14560  12.339   6.797  14.866
46220W        W14561  24.996  32.050   2.319
46221W        W14562  35.979  44.398   4.670
46222W        W14563  16.799  34.955  10.544
46223W        W14564  30.039  18.705   4.118
46224W        W14565   6.359   7.318   3.656
46225W        W14566  22.597  12.247  12.861
46226W        W14567  12.630  12.240   4.751
46227W        W14568  21.596  38.372  14.294
46228W        W14569  37.051  32.049   1.281
46229W        W14570  19.591   4.908  13.903
46230W        W14571  23.655  30.513   4.182
46231W        W14572  21.112  23.070   1.871
46232W        W14573  19.185   0.783  12.534
46233W        W14574  20.542   3.396   2.711
46234W        W14575   6.739  32.889  13.992
46235W        W14576  28.090  28.471  12.543
46236W        W14577   9.312   5.922   3.369
46237W        W14578  42.852  29.643   3.794
46238W        W14579  30.415  22.537  12.006
46239W        W14580  43.785  42.805  13.417
46240W        W14581   0.396  32.461  13.318
46241W        W14582  18.288  12.256  11.574
46242W        W14583  24.052  30.054   0.301
46243W        W14584   0.866  16.097   2.417
46244W        W14585  27.574  32.543   1.928
46245W        W14586   8.662  35.392  14.879
46246W        W14587  20.076  26.658  10.956
46247W        W14588  38.544  27.607  12.934
46248W        W14589   9.315  27.980   1.820
46249W        W14590  15.125   0.827   2.723
46250W        W14591  18.163  44.891   4.659
46251W        W14592  32.528  31.933   2.413
46252W        W14593  12.735   3.947  12.969
46253W        W14594  32.131   7.733  12.890
46254W        W14595  26.053  34.093   0.260
46255W        W14596  26.001  28.937  13.410
46256W        W14597  28.083   2.241  14.955
46257W        W14598  30.501   2.751   0.870
46258W        W14599  37.020  19.605  11.431
46259W        W14600   7.287  19.084   3.180
46260W        W14601  38.842   8.894   2.389
46261W        W14602  22.240  15.202  11.561
46262W        W14603  42.806   4.790   5.211
46263W        W14604  43.484   2.957   4.733
46264W        W14605  34.109   8.883  11.886
46265W        W14606  37.068  18.180  11.502
46266W        W14607  44.984  28.561   4.338
46267W        W14608  11.756  42.944  12.996
46268W        W14609   8.844   2.336  10.945
46269W        W14610  12.849  35.458  12.045
46270W        W14611  40.820   4.298  10.485
46271W        W14612  13.737  25.707  11.950
46272W        W14613   4.848  18.287  11.022
46273W        W14614  10.225  23.221  12.358
46274W        W14615  41.942  34.409  12.093
46275W        W14616   7.330   5.437   1.795
46276W        W14617  25.007  31.121  14.947
46277W        W14618  25.606  29.622  11.910
46278W        W14619  35.502  24.095   2.211
46279W        W14620  26.634   1.909  11.865
46280W        W14621  43.902  43.339   2.838
46281W        W14622   6.269  11.767   1.409
46282W        W14623  23.729  26.457   4.319
46283W        W14624  32.615  41.428   1.863
46284W        W14625  13.808  34.886   1.214
46285W        W14626  38.849  12.722   4.783
46286W        W14627   4.271   4.927   0.468
46287W        W14628  40.043  24.635  13.047
46288W        W14629  26.647  29.654  10.421
46289W        W14630  41.791  31.918   1.396
46290W        W14631  23.994  12.135   4.751
46291W        W14632  27.646  43.343  10.942
46292W        W14633   2.871  34.047   4.223
46293W        W14634  35.544   8.676  14.019
46294W        W14635  37.899  19.280  11.078
46295W        W14636  37.424  10.666   4.148
46296W        W14637   2.274  24.611  12.865
46297W        W14638  21.214  14.097   3.164
46298W        W14639   6.419  16.163   3.676
46299W        W14640  38.389  22.145   4.152
46300W        W14641  27.510  25.093  14.480
46301W        W14642  38.432  17.733  10.584
46302W        W14643  22.237   2.954   2.412
46303W        W14644  40.361  44.997   0.918
46304W        W14645  20.732  41.364  14.390
46305W        W14646  20.230  42.031   2.822
46306W        W14647  31.031  38.960  14.319
46307W        W14648  38.344  18.590  12.915
46308W        W14649  38.970  19.681   1.762
46309W        W14650   5.224  40.383   1.257
46310W        W14651  41.988  35.075   0.309
46311W        W14652  13.286  10.804  11.603
46312W        W14653   0.430  44.404  11.606
46313W        W14654  35.103  29.604  13.814
46314W        W14655  11.704  39.421   4.260
46315W        W14656  36.369  28.489  13.489
46316W        W14657  10.244  33.016  10.107
46317W        W14658  32.439  26.983  11.875
46318W        W14659  15.763  29.483  12.954
46319W        W14660  31.538  31.910   2.248
46320W        W14661  33.969  38.830  10.947
46321W        W14662  16.216  12.644   2.291
46322W        W14663  16.269  20.768  11.934
46323W        W14664  14.209   8.754   1.817
46324W        W14665  28.607  44.261  12.434
46325W        W14666   8.221  22.132  12.454
46326W        W14667  38.861  42.806   9.969
46327W        W14668  37.423   9.730   2.206
46328W        W14669  30.966  31.995   1.246
46329W        W14670   9.355  11.170   1.786
46330W        W14671   6.291  30.932   1.307
46331W        W14672  25.184   2.961  12.087
46332W        W14673   2.350   0.299   4.345
46333W        W14674  28.491   3.452   4.823
46334W        W14675   4.280   7.196  11.035
46335W        W14676  26.990  32.623  13.545
46336W        W14677  27.945  25.999   1.292
46337W        W14678  42.286   3.822   0.247
46338W        W14679  44.771  31.053   2.809
46339W        W14680  40.505   0.313  14.390
46340W        W14681  18.599  36.068   4.655
46341W        W14682  15.606  32.411   0.818
46342W        W14683  12.140  19.136   2.301
46343W        W14684  20.562   8.351   3.824
46344W        W14685   4.284  41.912  11.420
46345W        W14686   3.777  20.189  14.763
46346W        W14687  43.464  29.167  10.525
46347W        W14688   6.427   0.782   4.638
46348W        W14689   4.873   8.314   3.350
46349W        W14690   7.280  16.167  10.935
46350W        W14691   3.412  12.758  13.340
46351W        W14692  42.327  24.492  14.869
46352W        W14693  24.985  44.781   2.722
46353W        W14694   5.410  32.483  14.899
46354W        W14695  38.902   3.260  10.486
46355W        W14696  22.094   9.885   0.426
46356W        W14697  42.405  40.843   1.775
46357W        W14698  27.541  12.711   1.377
46358W        W14699  15.297   5.346   1.780
46359W        W14700  39.398  34.615   4.338
46360W        W14701  25.707  23.166  11.053
46361W        W14702  21.512  36.970  14.019
46362W        W14703  43.437  44.427  14.303
46363W        W14704  22.712   9.182   3.255
46364W        W14705  35.963  40.417   1.795
46365W        W14706  36.901  37.338   0.839
46366W        W14707  14.607  25.172   5.242
46367W        W14708  14.261  15.791   4.179
46368W        W14709  13.845  38.878   2.809
46369W        W14710  36.981  22.250  13.321
46370W        W14711  43.887  34.426   4.838
46371W        W14712  17.124  12.853  14.944
46372W        W14713  19.097  28.029  11.113
46373W        W14714  34.978   6.771  13.532
46374W        W14715  42.454   5.370   0.800
46375W        W14716  39.906  26.120  12.996
46376W        W14717  17.641  21.054  11.509
46377W        W14718   6.314  24.559  12.385
46378W        W14719   2.830  43.294  11.451
46379W        W14720  38.051  39.976  12.883
46380W        W14721   6.425  21.518  12.080
46381W        W14722  30.636  30.417  13.516
46382W        W14723  18.758  14.680   0.384
46383W        W14724  20.159  21.601   4.150
46384W        W14725  12.777  14.208  12.368
46385W        W14726  13.607  39.390   9.930
46386W        W14727  35.444  36.080  12.045
46387W        W14728  39.318  29.173  12.095
46388W        W14729  31.996  11.300  13.838
46389W        W14730  38.033  34.057  11.971
46390W        W14731  15.166  14.135  11.380
46391W        W14732   0.381  27.638   4.672
46392W        W14733   1.251  29.596   4.628
46393W        W14734  10.148  34.596   4.773
46394W        W14735  32.548  26.986  14.781
46395W        W14736  24.503  11.300  13.864
46396W        W14737  31.511  26.674  12.396
46397W        W14738  14.826  39.886   2.818
46398W        W14739   7.271  41.534   4.123
46399W        W14740   2.772  20.188  10.561
46400W        W14741   1.382  14.152   4.749
46401W        W14742  36.383  11.290   1.245
46402W        W14743  14.718  41.959  11.006
46403W        W14744  21.570  26.116   1.868
46404W        W14745   9.379  39.499  11.546
46405W        W14746  37.543   2.441   0.286
46406W        W14747   4.243  34.989  12.368
46407W        W14748  34.578  33.589   0.891
46408W        W14749  10.269  38.381  11.033
46409W        W14750  44.767  30.019   2.770
46410W        W14751  39.979  12.167   4.689
46411W        W14752  33.877  21.723   4.753
46412W        W14753  41.868  25.100   4.792
46413W        W14754  12.323  42.517  11.125
46414W        W14755  32.391  23.113  13.934
46415W        W14756  28.546   6.773   3.311
46416W        W14757  16.291  11.711   0.350
46417W        W14758  42.861  42.994  11.397
46418W        W14759  38.328   2.468  13.375
46419W        W14760   6.290  31.606   1.436
46420W        W14761   6.185   9.754   0.333
46421W        W14762  37.570  43.888   4.785
46422W        W14763  18.559   0.924  14.809
46423W        W14764   2.401   9.793   4.694
46424W        W14765  41.468   9.271  14.802
46425W        W14766  40.315  34.890  12.066
46426W        W14767   0.794  40.012  13.827
46427W        W14768  29.583  36.540   0.357
46428W        W14769  25.519   2.821   4.686
46429W        W14770  18.734  26.531   1.883
46430W        W14771  31.146  22.729   2.677
46431W        W14772  38.012  13.295  10.576
46432W        W14773  12.815  30.957   3.214
46433W        W14774  11.628  22.553   4.765
46434W        W14775   1.382  15.792  13.792
46435W        W14776  39.418  38.075  11.595
46436W        W14777  33.577   9.335  10.434
46437W        W14778  38.900  25.119  12.358
46438W        W14779   9.239  18.247   1.883
46439W        W14780  27.186  40.974  12.451
46440W        W14781  23.560   6.874  10.576
46441W        W14782  30.984  42.777   2.252
46442W        W14783  12.270  43.011   2.280
46443W        W14784  32.621   3.932   0.840
46444W        W14785  42.400  13.146   3.209
46445W        W14786  12.165  10.169  14.998
46446W        W14787   9.775  15.697  13.323
46447W        W14788  12.736  21.736  14.901
46448W        W14789  42.485  11.337   4.660
46449W        W14790  25.699  17.606  11.590
46450W        W14791   6.781  22.632  14.031
46451W        W14792  29.925  12.839  11.906
46452W        W14793  14.720  28.942   4.191
46453W        W14794  22.105  17.662   2.676
46454W        W14795  31.086  20.676   4.815
46455W        W14796   2.245  14.234  14.319
46456W        W14797  30.149  14.135  13.363
46457W        W14798   7.708   0.482  13.870
46458W        W14799   5.720  30.965   3.368
46459W        W14800  13.174  11.314  12.899
46460W        W14801   2.886  44.906  11.950
46461W        W14802  21.109   5.361   5.126
46462W        W14803  37.427  22.691   1.331
46463W        W14804  32.424  25.163   2.318
46464W        W14805  39.899  21.137  12.444
46465W        W14806  39.816   3.833   1.365
46466W        W14807  35.982  36.346   2.685
46467W        W14808   3.246  39.371  11.899
46468W        W14809  37.024  26.586  14.020
46469W        W14810  26.059  13.215   2.229
46470W        W14811  27.542  44.310   3.223
46471W        W14812  40.941   1.455   0.917
46472W        W14813   3.305  11.164  10.468
46473W        W14814   1.799  35.450  13.882
46474W        W14815  19.111  15.634   4.599
46475W        W14816   8.177  25.150  13.044
46476W        W14817  13.153   1.957   5.224
46477W        W14818  36.870   2.394   0.920
46478W        W14819   5.386  20.088   1.373
46479W        W14820   8.164  14.315   2.663
46480W        W14821  32.586  36.859   0.344
46481W        W14822   9.746  44.268  14.871
46482W        W14823  26.548  11.810   4.722
46483W        W14824  13.152  34.493  11.577
46484W        W14825  28.088   8.656   4.746
46485W        W14826  26.179  25.662   4.807
46486W        W14827  14.200  38.941  12.865
46487W        W14828  20.733  19.238  14.398
46488W        W14829  44.875  19.110   5.662
46489W        W14830  11.642  43.786  14.356
46490W        W14831  13.639   3.431  14.473
46491W        W14832  20.157  41.370  12.058
46492W        W14833  20.538  14.318  14.831
46493W        W14834  30.920  36.906  14.980
46494W        W14835  15.114  41.379   3.341
46495W        W14836  31.154   1.908   3.159
46496W        W14837  34.894  30.490  13.956
46497W        W14838  39.521  19.598  14.477
46498W        W14839   7.685  32.138   2.346
46499W        W14840  43.771  28.604  11.399
46500W        W14841  36.496  28.462   4.305
46501W        W14842  39.871   3.831   3.662
46502W        W14843  28.617  36.515   3.728
46503W        W14844  26.525   4.891   5.103
46504W        W14845  27.081   7.206  14.939
46505W        W14846  44.444  12.721   3.174
46506W        W14847  12.339  32.090   2.696
46507W        W14848  18.599   1.743   0.447
46508W        W14849  38.439  18.223  11.925
46509W        W14850  22.661  29.130  12.906
46510W        W14851  19.193  25.576   4.704
46511W        W14852  14.607  22.683  10.119
46512W        W14853  27.559  22.028   2.353
46513W        W14854  26.621   4.423  14.901
46514W        W14855  20.701  10.760  13.951
46515W        W14856  22.629  22.593   4.704
46516W        W14857  20.248   3.283   2.198
46517W        W14858  23.080  38.382   3.260
46518W        W14859   9.822  33.500   0.299
46519W        W14860   5.871   4.914  14.431
46520W        W14861  27.523   0.411   3.241
46521W        W14862  11.287  43.818  12.978
46522W        W14863  30.575  17.074  12.398
46523W        W14864  28.555  32.520   1.730
46524W        W14865   5.245   2.313   0.797
46525W        W14866   5.865  13.216  11.055
46526W        W14867  27.128   6.877   2.179
46527W        W14868  19.573   6.696  12.913
46528W        W14869  11.298   1.808  11.902
46529W        W14870  12.305  14.248  13.544
46530W        W14871  39.052  31.017  13.946
46531W        W14872  39.989  23.227  12.872
46532W        W14873   8.363  43.901  13.320
46533W        W14874  43.911  32.620  10.911
46534W        W14875  27.104  36.857   2.801
46535W        W14876  11.803  37.950  13.034
46536W        W14877  43.910   2.265  14.360
46537W        W14878  11.663  24.090  14.339
46538W        W14879  28.154  44.373   3.814
46539W        W14880  39.011  34.584   2.415
46540W        W14881  25.037  36.581  10.980
46541W        W14882   5.732   7.763   4.127
46542W        W14883  30.020  35.453   2.319
46543W        W14884  43.915  24.033  11.054
46544W        W14885  41.023  36.440   1.309
46545W        W14886  12.739  19.628   0.890
46546W        W14887  25.557  11.779   1.441
46547W        W14888  21.732   9.210  11.577
46548W        W14889   4.854  37.976  14.800
46549W        W14890   9.219  37.380   2.274
46550W        W14891   7.365  33.089   0.795
46551W        W14892  42.982  33.113  12.561
46552W        W14893  30.049   2.371  12.515
46553W        W14894  11.685  30.123   2.845
46554W        W14895   8.829  15.632   2.866
46555W        W14896  39.875  27.598  11.909
46556W        W14897  40.417  41.489   0.448
46557W        W14898   2.729  27.971  12.948
46558W        W14899  36.057  25.641  12.931
46559W        W14900  33.962  34.551   0.822
46560W        W14901  40.847  22.709   3.278
46561W        W14902  43.837   1.735   0.868
46562W        W14903  28.460  26.607   2.726
46563W        W14904  11.752  43.427  14.352
46564W        W14905  10.690  35.058   4.218
46565W        W14906   3.927   9.345  13.829
46566W        W14907  27.564  15.163  14.939
46567W        W14908  27.965  10.642  14.378
46568W        W14909   0.753  44.823  12.989
46569W        W14910  28.645  10.328   3.304
46570W        W14911  38.007  29.026   3.181
46571W        W14912  31.055   2.846  14.494
46572W        W14913  12.792  38.880  13.423
46573W        W14914  10.774  42.454   3.205
46574W        W14915  41.805  20.597  13.935
46575W        W14916  29.104   7.740  12.555
46576W        W14917   0.340  42.922  14.014
46577W        W14918  38.409  39.990   2.369
46578W        W14919  44.798  13.278   4.289
46579W        W14920   1.285  25.597   0.249
46580W        W14921  20.746  41.948  12.559
46581W        W14922  28.947  28.947   4.605
46582W        W14923   2.824  34.871  12.432
46583W        W14924  31.979  21.226  14.923
46584W        W14925   0.743  32.934   3.355
46585W        W14926  33.422  25.083   0.937
46586W        W14927   2.841  12.624  13.840
46587W        W14928  19.218  24.697   1.718
46588W        W14929  33.390  13.742  12.870
46589W        W14930  32.086   1.368   2.407
46590W        W14931  20.267  29.447  12.882
46591W        W14932  30.010  23.987   4.830
46592W        W14933  33.542   0.339   0.889
46593W        W14934  35.976  12.775  12.412
46594W        W14935  24.204  22.628  12.458
46595W        W14936  36.364  33.056   4.244
46596W        W14937  43.474  40.930  12.030
46597W        W14938  13.238  33.598   2.300
46598W        W14939  40.406  27.634  14.980
46599W        W14940   8.167   1.295   0.749
46600W        W14941  16.247  32.948  12.842
46601W        W14942   3.777  10.168   3.262
46602W        W14943  13.223  34.018  14.776
46603W        W14944  39.545  23.731   4.142
46604W        W14945  41.854   1.316  11.502
46605W        W14946  23.589  22.634  12.001
46606W        W14947  31.968  31.130   0.297
46607W        W14948  28.640   9.830  12.886
46608W        W14949   3.714  16.782   3.318
46609W        W14950  42.417   6.733   1.910
46610W        W14951   7.249  25.075  13.980
46611W        W14952  26.097  12.189  13.486
46612W        W14953  34.536  38.920  14.472
46613W        W14954  36.086  43.371  14.989
46614W        W14955  40.487  25.968   2.373
46615W        W14956   6.200   6.290   4.224
46616W        W14957  22.717  14.225   4.152
46617W        W14958  14.199  34.562  13.881
46618W        W14959  21.122  23.667   1.267
46619W        W14960  28.954  12.749   2.285
46620W        W14961  41.304   6.919  12.544
46621W        W14962  24.706  14.129   3.223
46622W        W14963  37.087  19.114  11.030
46623W        W14964   6.884  18.190  11.543
46624W        W14965   9.885  36.851  13.879
46625W        W14966  11.714  34.030  13.861
46626W        W14967   2.236  30.092  12.404
46627W        W14968   0.287  18.276  13.511
46628W        W14969  13.178  11.723  10.539
46629W        W14970  33.561  44.298  14.454
46630W        W14971  25.618  41.792   0.772
46631W        W14972  36.554   6.321   0.455
46632W        W14973  13.748  11.356  13.496
46633W        W14974  31.606  22.022  14.939
46634W        W14975  35.888  12.842  12.907
46635W        W14976  27.480  23.502  11.559
46636W        W14977   8.212  19.539  14.927
46637W        W14978  29.491  40.534   0.745
46638W        W14979   0.900  40.412   3.231
46639W        W14980  40.459  30.603   3.180
46640W        W14981  27.184  28.453   5.182
46641W        W14982  36.054  35.861   0.902
46642W        W14983  35.458  15.312  12.897
46643W        W14984   8.208  19.115   2.345
46644W        W14985  22.048  39.366   3.223
46645W        W14986  16.758  18.725  14.439
46646W        W14987  16.600  26.141  11.916
46647W        W14988  20.101  23.682   1.850
46648W        W14989   8.727  44.843  14.356
46649W        W14990  37.984   2.837  11.015
46650W        W14991   6.773  10.344   1.410
46651W        W14992  14.658   8.722   1.874
46652W        W14993  31.407  20.684   2.230
46653W        W14994  25.967  38.877   0.963
46654W        W14995  28.632  33.078   2.392
46655W        W14996  35.493   3.719  14.324
46656W        W14997   8.282   7.184   4.610
46657W        W14998  39.537  18.744   3.304
46658W        W14999  10.750  31.026   3.198
46659W        W15000  15.586   8.764   2.250
46660W        W15001  16.311  19.221   4.342
46661W        W15002  13.350  33.881   0.301
46662W        W15003   5.862  25.193  10.997
46663W        W15004  30.439   0.887  14.872
46664W        W15005  37.069  34.981   3.791
46665W        W15006  22.248  10.315   1.827
46666W        W15007  18.127  12.165   1.898
46667W        W15008  25.067  35.966   4.789
46668W        W15009  38.060  23.142  12.458
46669W        W15010  43.366  29.451  13.872
46670W        W15011  22.092  39.817  12.399
46671W        W15012  14.702  21.246  11.119
46672W        W15013  26.195   2.848   2.662
46673W        W15014  13.288  35.963   1.411
46674W        W15015  28.585  29.553  14.009
46675W        W15016   1.461  40.798  12.547
46676W        W15017  21.551  20.215   3.683
46677W        W15018   1.374   7.807   0.727
46678W        W15019   8.327  17.698  14.777
46679W        W15020  32.630   6.748   1.901
46680W        W15021  33.618  10.857   1.444
46681W        W15022  15.804   8.302   3.203
46682W        W15023   6.412  19.244   0.310
46683W        W15024  42.901   9.712  10.459
46684W        W15025  40.389  26.133  12.041
46685W        W15026  26.180  40.454   2.368
46686W        W15027  33.902   6.263   1.859
46687W        W15028  44.929  16.195   1.749
46688W        W15029   8.311  25.194   0.771
46689W        W15030   7.720   3.775  14.467
46690W        W15031  43.429  12.290   3.289
46691W        W15032  19.220  24.152  13.842
46692W        W15033   3.268  38.909  10.888
46693W        W15034  21.700  18.200  12.068
46694W        W15035   7.223  28.520  13.374
46695W        W15036  35.426  31.057   0.862
46696W        W15037  41.886  19.170   0.414
46697W        W15038   3.801  20.085   2.821
46698W        W15039  16.804  25.555   4.277
46699W        W15040  37.858  42.517  11.043
46700W        W15041   4.749  28.449   3.632
46701W        W15042   9.301  10.258  12.562
46702W        W15043   8.726  31.058   4.833
46703W        W15044   5.740   8.345  12.496
46704W        W15045  17.271  22.501  10.445
46705W        W15046  11.306  13.182  14.020
46706W        W15047  12.661  22.644  12.926
46707W        W15048   3.784   1.809   5.283
46708W        W15049  15.276  41.967   3.798
46709W        W15050  37.580   1.763   2.231
46710W        W15051  12.138  15.201  11.496
46711W        W15052   9.254   5.722   2.328
46712W        W15053  33.543  42.479   4.187
46713W        W15054  31.009  16.129   4.669
46714W        W15055  23.985  10.790   0.356
46715W        W15056   0.931   4.362   4.804
46716W        W15057  39.472  35.006   2.779
46717W        W15058  21.019  28.100  13.546
46718W        W15059  33.950   4.275   1.880
46719W        W15060  33.575  30.076  11.503
46720W        W15061  19.571  36.499   3.241
46721W        W15062  23.219   1.956  10.956
46722W        W15063  23.576  16.605  12.073
46723W        W15064  41.527  25.114  13.491
46724W        W15065  28.435   0.918  10.479
46725W        W15066  34.559  30.482  14.003
46726W        W15067  15.225  23.071  11.099
46727W        W15068  16.800  12.686  13.508
46728W        W15069  29.081   6.219   0.470
46729W        W15070  15.722  40.907   4.341
46730W        W15071  14.123  23.092  11.061
46731W        W15072   6.740  44.846   1.908
46732W        W15073   1.824  42.824   1.917
46733W        W15074  18.086  34.436  12.077
46734W        W15075  11.711   1.426   4.656
46735W        W15076  37.980  21.178  13.912
46736W        W15077  35.887  16.616   1.433
46737W        W15078  42.923  34.059  11.002
46738W        W15079  42.333   2.309  11.580
46739W        W15080  41.818  12.153   2.404
46740W        W15081  28.986  27.638   2.839
46741W        W15082  38.447  28.460   2.747
46742W        W15083  19.081  36.453  10.500
46743W        W15084   9.754  14.759   2.890
46744W        W15085  31.133  29.501  13.506
46745W        W15086   7.298  44.440  10.060
46746W        W15087  41.515  25.670   2.701
46747W        W15088  21.638  12.256  10.544
46748W        W15089  29.076   9.761  12.384
46749W        W15090  44.432  38.889  13.406
46750W        W15091  12.719  30.108   0.913
46751W        W15092  39.972  36.542   1.260
46752W        W15093   4.758  39.050   4.119
46753W        W15094  11.339  16.274   0.250
46754W        W15095  39.857  26.200  11.061
46755W        W15096  34.931  18.666  10.890
46756W        W15097  15.772  34.079  10.605
46757W        W15098  12.747   7.784   1.806
46758W        W15099   5.816  13.605   1.800
46759W        W15100  25.543  24.663   4.311
46760W        W15101   1.848  36.410   3.801
46761W        W15102   2.388   5.193  11.896
46762W        W15103  26.051  27.948   0.398
46763W        W15104   7.829   6.707   0.944
46764W        W15105  22.162   2.920  14.367
46765W        W15106  23.993   2.931  14.325
46766W        W15107   4.388  14.221   4.209
46767W        W15108  13.194   4.841  10.912
46768W        W15109  12.786  19.758  11.085
46769W        W15110   2.829  42.978  11.105
46770W        W15111  24.070  29.997   1.337
46771W        W15112  42.825  27.097  12.828
46772W        W15113  35.088  30.042  11.519
46773W        W15114   5.829  33.052   2.212
46774W        W15115  22.584  34.048   1.313
46775W        W15116  15.213  42.504   0.275
46776W        W15117  17.709   7.783   3.380
46777W        W15118   1.925  37.491   2.892
46778W        W15119  14.762  20.221  14.959
46779W        W15120   5.889  38.461  12.395
46780W        W15121  12.281  41.298   0.304
46781W        W15122  27.100   8.670   5.157
46782W        W15123   1.731  34.493   4.699
46783W        W15124   3.427   7.236  13.545
46784W        W15125  27.561  15.734  10.544
46785W        W15126  17.234  35.531   2.729
46786W        W15127  24.064   4.888   0.734
46787W        W15128   0.773   6.363  12.557
46788W        W15129  40.993  44.500  11.417
46789W        W15130  30.426  36.584  12.030
46790W        W15131  24.619  23.673   0.944
46791W        W15132  31.452  39.902  10.609
46792W        W15133  32.457  30.457   2.710
46793W        W15134  20.565  24.192   0.280
46794W        W15135  35.562  40.323   4.807
46795W        W15136  26.572  40.467   1.783
46796W        W15137  24.211  21.618  13.017
46797W        W15138  14.804  12.846  14.773
46798W        W15139  28.451  21.126   0.786
46799W        W15140   2.956  31.465   2.191
46800W        W15141  28.450  30.653  10.452
46801W        W15142  32.397  11.864   0.740
46802W        W15143  25.540  24.133   5.164
46803W        W15144  16.250  28.943  13.530
46804W        W15145  35.576  35.984  11.511
46805W        W15146  40.398  11.345  14.832
46806W        W15147  44.472  23.221   3.298
46807W        W15148  35.007  17.082   3.753
46808W        W15149  33.084  41.355  10.518
46809W        W15150  36.380  12.627  10.470
46810W        W15151  29.978  26.107  14.775
46811W        W15152  11.337   1.745   0.850
46812W        W15153  43.800  39.060  10.462
46813W        W15154  36.006   1.450  13.822
46814W        W15155  42.878  22.132   4.780
46815W        W15156  12.789  17.642   0.413
46816W        W15157  41.975   6.906  14.476
46817W        W15158  27.455   6.363   1.728
46818W        W15159  19.641  18.607  14.294
46819W        W15160  13.297   6.676  11.403
46820W        W15161  17.737   2.921   0.779
46821W        W15162  27.038  27.630   0.287
46822W        W15163  23.537  27.079   4.194
46823W        W15164  35.857   4.815   0.770
46824W        W15165  15.237  24.540   4.812
46825W        W15166   5.715  28.075  12.388
46826W        W15167  32.475  36.042   1.788
46827W        W15168  13.175   5.766  13.362
46828W        W15169   7.196  38.065  12.926
46829W        W15170  17.683  13.176  13.888
46830W        W15171  35.994  44.893   3.727
46831W        W15172   1.767  40.528  10.410
46832W        W15173  23.731  12.830  14.491
46833W        W15174   0.934   8.400   4.321
46834W        W15175  35.937  14.677   1.409
46835W        W15176  38.556   3.836  12.084
46836W        W15177  42.881  10.668  12.086
46837W        W15178  36.578  41.911  10.961
46838W        W15179  22.677  40.360  13.414
46839W        W15180  18.671   6.390   4.720
46840W        W15181  38.479  33.123   3.658
46841W        W15182  36.388  26.540  11.466
46842W        W15183  42.963  40.935   0.258
46843W        W15184  25.683  16.119  11.976
46844W        W15185  12.803  21.611  10.893
46845W        W15186  10.206   5.316   3.196
46846W        W15187  39.490  12.851  12.408
46847W        W15188  19.690  14.169  10.905
46848W        W15189  22.202  15.595  12.061
46849W        W15190  43.511  18.780   4.739
46850W        W15191  17.594  44.504  10.581
46851W        W15192  17.752   9.295   4.728
46852W        W15193  37.067   1.322   1.324
46853W        W15194   7.896  40.003   3.188
46854W        W15195  37.902  40.336  10.514
46855W        W15196  43.895  19.135   3.282
46856W        W15197  28.474  22.097  13.878
46857W        W15198  31.099  12.738  11.602
46858W        W15199   2.264  44.456  12.899
46859W        W15200  23.226   5.708  11.486
46860W        W15201  36.089  42.900  11.606
46861W        W15202   4.835  12.333   1.873
46862W        W15203   5.929   2.262  13.481
46863W        W15204  26.655  41.422   2.778
46864W        W15205  28.935  14.647  14.510
46865W        W15206  44.447  39.515  11.540
46866W        W15207   3.729   0.903  14.408
46867W        W15208  26.015  25.632  14.278
46868W        W15209  29.579  31.078  12.422
46869W        W15210  40.457  10.661  12.975
46870W        W15211  31.509  12.711  11.390
46871W        W15212  26.042  37.413  12.439
46872W        W15213  33.613  43.944   2.703
46873W        W15214  26.139  19.221   4.315
46874W        W15215  42.391   0.798   3.293
46875W        W15216  25.107  12.704  12.878
46876W        W15217   2.308  25.100  10.020
46877W        W15218  10.329  37.367  13.936
46878W        W15219  20.530   2.967  11.502
46879W        W15220  10.861  44.342   3.649
46880W        W15221  22.074   7.774  11.000
46881W        W15222  14.664  14.151   2.885
46882W        W15223  29.658  20.046  10.415
46883W        W15224   4.724  15.274  10.154
46884W        W15225  17.637  43.930   0.893
46885W        W15226  26.070  42.977   1.878
46886W        W15227   6.717  33.608  11.518
46887W        W15228  44.276  42.883  11.944
46888W        W15229  15.233  29.552   1.305
46889W        W15230  13.805  38.462   2.704
46890W        W15231  42.396  43.908  11.571
46891W        W15232  28.098  44.345   4.336
46892W        W15233  41.856  22.171   3.339
46893W        W15234  39.429  17.242   0.833
46894W        W15235  24.003  38.957  14.787
46895W        W15236   0.418  31.556   1.832
46896W        W15237   4.311  22.117  12.906
46897W        W15238   0.835  20.757   3.769
46898W        W15239   6.228   5.349   0.764
46899W        W15240  36.490  15.164  11.400
46900W        W15241  26.958  10.655   2.276
46901W        W15242  43.397  21.634   4.155
46902W        W15243   4.753   0.303   2.682
46903W        W15244  25.018  33.949   4.766
46904W        W15245  19.119  27.520   4.638
46905W        W15246  41.829  16.298  12.559
46906W        W15247  15.597  41.371  11.469
46907W        W15248  44.289  38.909  14.828
46908W        W15249  13.126  11.645  14.417
46909W        W15250  15.819  39.854   2.678
46910W        W15251  25.642   0.911   2.286
46911W        W15252   4.774  41.314   3.757
46912W        W15253  37.987  35.924  11.399
46913W        W15254  26.603  11.755  14.513
46914W        W15255  22.029  16.258  10.546
46915W        W15256  34.976  16.640   1.270
46916W        W15257  16.703  10.377   1.450
46917W        W15258  17.198  18.770   1.378
46918W        W15259  32.569  31.619  13.865
46919W        W15260  18.660  44.502  11.582
46920W        W15261  32.945  25.513   1.836
46921W        W15262  34.097  41.361   5.783
46922W        W15263   0.841   2.230  12.893
46923W        W15264  23.578  41.295   3.168
46924W        W15265  30.919  34.998  13.412
46925W        W15266   7.759  28.605   1.451
46926W        W15267   9.338  25.099  14.921
46927W        W15268   0.333   6.797  12.550
46928W        W15269  15.127  15.285   2.785
46929W        W15270  29.520  25.668   4.663
46930W        W15271  21.586  30.053  14.784
46931W        W15272  34.955   2.878   0.876
46932W        W15273  22.589  28.112   4.241
46933W        W15274  22.548  35.517  14.324
46934W        W15275  10.757  20.636   3.161
46935W        W15276  43.495  32.941  13.840
46936W        W15277  34.948  16.738   0.797
46937W        W15278  18.198  24.614   2.337
46938W        W15279  11.220  10.641  14.792
46939W        W15280  23.719  20.213  11.545
46940W        W15281  20.265  41.420   1.369
46941W        W15282  23.500  17.201   9.924
46942W        W15283   6.260  10.294  11.880
46943W        W15284  15.157  11.358  12.027
46944W        W15285  41.342  42.478  13.480
46945W        W15286  30.130   3.303  14.019
46946W        W15287  41.300  43.801  11.459
46947W        W15288  36.352  40.441   4.336
46948W        W15289  22.627  15.124  14.009
46949W        W15290  19.127  24.207   4.165
46950W        W15291  35.865  24.535   2.868
46951W        W15292  19.609   5.808  13.387
46952W        W15293  43.366  36.366   2.665
46953W        W15294  43.823  23.540   0.805
46954W        W15295   5.797  35.571   2.713
46955W        W15296  28.987  15.241  12.875
46956W        W15297  37.920   3.890   0.462
46957W        W15298  14.240  43.400  13.973
46958W        W15299  33.465  16.177  11.504
46959W        W15300  13.160  42.941  13.053
46960W        W15301  12.752  28.136  11.903
46961W        W15302  19.256  27.572   0.308
46962W        W15303   8.248  28.983   4.309
46963W        W15304  30.121  44.266   3.303
46964W        W15305  17.253   2.825  14.778
46965W        W15306  37.839   0.793   4.742
46966W        W15307  20.735  22.019   4.600
46967W        W15308  28.984  27.993   1.409
46968W        W15309  19.654  12.783   2.344
46969W        W15310  24.990  19.629  11.904
46970W        W15311  26.672  32.560  14.496
46971W        W15312  28.024  39.499   5.235
46972W        W15313  17.197  43.840   1.370
46973W        W15314  11.150  24.208   0.955
46974W        W15315  30.491  14.183  10.643
46975W        W15316  18.558  23.135  13.500
46976W        W15317  32.546  29.123   3.854
46977W        W15318   8.165  23.034  13.906
46978W        W15319  20.271  39.880   0.386
46979W        W15320  12.610   2.344  10.999
46980W        W15321  41.963  21.218   0.447
46981W        W15322  37.849  27.623   2.281
46982W        W15323   1.793  44.366  12.929
46983W        W15324  35.990  21.665  12.366
46984W        W15325  29.664  19.561   0.894
46985W        W15326  22.548   5.275   0.314
46986W        W15327  34.099  39.841   2.290
46987W        W15328   4.413  40.814  10.526
46988W        W15329  12.177  35.494  11.503
46989W        W15330  35.573  38.361  11.974
46990W        W15331  39.397   1.434   2.185
46991W        W15332  36.898   1.780   2.837
46992W        W15333   6.722  42.479   4.775
46993W        W15334  16.590   4.903  12.006
46994W        W15335  32.028  34.534  14.381
46995W        W15336  21.750  24.218   0.847
46996W        W15337  35.001   8.227   4.184
46997W        W15338  24.625   2.276   2.340
46998W        W15339  19.664   1.380   3.306
46999W        W15340  39.013  27.044  12.909
47000W        W15341  25.595  44.313   3.632
47001W        W15342   4.752  28.126   0.900
47002W        W15343   8.703  42.000  14.313
47003W        W15344  27.594  17.193  14.381
47004W        W15345   0.440  21.252  14.920
47005W        W15346   5.360  30.475  11.903
47006W        W15347  28.558  29.613  14.848
47007W        W15348  14.229  34.460   0.318
47008W        W15349  35.013  29.123  13.852
47009W        W15350   3.891   3.281  12.549
47010W        W15351  13.649   5.711  12.857
47011W        W15352  19.190  42.936   2.277
47012W        W15353  11.826   6.778   0.959
47013W        W15354  13.603  34.976  11.441
47014W        W15355  35.394  15.711  12.432
47015W        W15356  17.162  25.467  10.917
47016W        W15357  44.304   5.349  10.598
47017W        W15358   3.285  19.129  12.474
47018W        W15359  21.704  11.336   1.212
47019W        W15360  25.110   9.722   4.731
47020W        W15361  31.605  26.182   4.719
47021W        W15362  23.167   0.355   3.733
47022W        W15363  37.949  10.702   3.330
47023W        W15364  37.546  34.393  10.944
47024W        W15365  39.518  31.595   4.681
47025W        W15366  31.598  31.035  11.919
47026W        W15367  41.531  20.540   1.914
47027W        W15368   9.673   2.779  14.344
47028W        W15369   5.767  20.716   2.806
47029W        W15370  14.625  44.993   4.673
47030W        W15371  10.655  12.125   0.909
47031W        W15372  31.069  27.160   2.895
47032W        W15373  34.016  25.047  13.870
47033W        W15374  31.094  11.365  10.549
47034W        W15375  31.009  21.067  10.992
47035W        W15376  39.869   2.301  12.361
47036W        W15377   1.458  11.301   1.235
47037W        W15378  35.434   9.225   0.472
47038W        W15379  17.228  13.297   4.805
47039W        W15380  43.351  10.696   4.340
47040W        W15381  16.149  33.522   3.812
47041W        W15382   4.236  19.613  11.934
47042W        W15383  15.279  33.510   1.906
47043W        W15384  33.529  20.615  11.041
47044W        W15385  33.086   5.920  12.408
47045W        W15386  37.390  43.950   0.759
47046W        W15387  26.176  14.773   1.854
47047W        W15388  41.916   5.766  12.418
47048W        W15389  28.570  38.958  12.399
47049W        W15390   9.257  36.063   0.884
47050W        W15391  20.536  35.088   2.403
47051W        W15392  21.673  15.279   3.367
47052W        W15393  35.993  18.631  13.933
47053W        W15394   6.687  31.148  12.021
47054W        W15395  44.282  12.297   4.145
47055W        W15396  15.789  22.631  10.088
47056W        W15397   1.929   2.745   1.805
47057W        W15398  10.754  33.395   0.728
47058W        W15399  27.658  19.755  13.823
47059W        W15400  14.301   8.825   5.083
47060W        W15401   8.767   6.284   0.326
47061W        W15402  23.033  37.071   1.260
47062W        W15403  34.425  16.719   2.786
47063W        W15404  12.236  26.494  12.941
47064W        W15405  18.291  35.512  11.595
47065W        W15406   7.907   4.285  13.337
47066W        W15407  12.721  23.091  11.434
47067W        W15408  20.609   1.838   3.868
47068W        W15409  29.005  22.675   4.828
47069W        W15410  39.478  43.794   1.337
47070W        W15411  14.679  12.649   3.680
47071W        W15412   1.839  27.076   3.845
47072W        W15413  40.975  39.917   4.741
47073W        W15414  43.441  33.026  13.451
47074W        W15415   3.885  20.073   0.323
47075W        W15416  41.320   0.400   1.429
47076W        W15417   0.262  14.779  13.865
47077W        W15418  42.319  41.292   0.933
47078W        W15419  37.055  34.893  13.374
47079W        W15420  26.502  14.104   0.327
47080W        W15421   4.360  23.089  10.408
47081W        W15422  42.902  27.687  14.020
47082W        W15423  22.647  40.938   2.846
47083W        W15424  35.077  43.348   0.269
47084W        W15425   3.761   1.477  11.907
47085W        W15426  11.687  14.279  11.422
47086W        W15427  24.138  10.179  10.517
47087W        W15428   2.331  22.503   5.147
47088W        W15429   3.352  16.629   1.922
47089W        W15430   9.297  18.071   3.384
47090W        W15431  33.086  38.991  11.004
47091W        W15432  41.957  39.053   4.128
47092W        W15433  29.018  22.694  11.070
47093W        W15434  27.051  30.450  13.008
47094W        W15435  39.943  44.420  14.815
47095W        W15436  27.680  26.670  11.372
47096W        W15437  25.032  15.755   1.759
47097W        W15438  25.609  44.889  12.014
47098W        W15439  26.510  33.512  13.848
47099W        W15440  23.615  35.981  13.012
47100W        W15441   1.929  18.789   4.783
47101W        W15442  32.009   1.816   1.827
47102W        W15443  18.129  41.509  11.868
47103W        W15444   8.897  27.645  14.376
47104W        W15445  44.366  36.883   3.308
47105W        W15446   7.808  29.985  12.535
47106W        W15447   0.290   9.322  14.434
47107W        W15448  15.117  26.572  13.426
47108W        W15449  37.438  44.982   1.703
47109W        W15450  40.443   5.252   1.284
47110W        W15451  23.705  37.063   3.266
47111W        W15452   4.843  18.616   5.292
47112W        W15453  18.248  17.085  11.124
47113W        W15454  30.632   1.419  10.406
47114W        W15455  32.391  27.987   1.785
47115W        W15456  36.546  32.104  12.436
47116W        W15457   6.829  19.743  11.513
47117W        W15458  42.475  35.963  11.412
47118W        W15459  11.280  22.578  11.531
47119W        W15460  36.446  30.534  13.827
47120W        W15461  19.554  32.454   2.670
47121W        W15462  20.148   7.375  12.948
47122W        W15463  22.073  34.100  11.430
47123W        W15464  19.637   0.784  11.913
47124W        W15465  34.996  16.584  13.455
47125W        W15466  35.952  38.944  13.323
47126W        W15467  12.313   5.404  14.944
47127W        W15468  16.804   5.795   4.209
47128W        W15469  34.454   8.358   0.936
47129W        W15470   0.437  30.094  13.311
47130W        W15471  41.362  16.242   4.124
47131W        W15472  21.256  12.717   3.148
47132W        W15473  33.128   4.253  11.120
47133W        W15474  35.859  40.422   2.898
47134W        W15475  14.675  43.365   4.161
47135W        W15476   6.742   4.857  10.505
47136W        W15477  43.373   3.947   1.319
47137W        W15478   7.860  34.432   1.831
47138W        W15479  33.609   7.887   1.411
47139W        W15480  39.898  18.191  12.507
47140W        W15481  10.220   2.269  11.376
47141W        W15482  41.019  24.659  12.922
47142W        W15483   2.438  39.878   3.195
47143W        W15484  24.517  37.378   9.920
47144W        W15485  22.236  34.417   3.714
47145W        W15486  15.653  20.598  11.916
47146W        W15487   1.912  11.788   3.241
47147W        W15488  38.848  22.658   0.284
47148W        W15489  19.195   5.844   3.296
47149W        W15490  20.176   1.273   3.865
47150W        W15491  13.770  14.791   2.236
47151W        W15492  27.022   8.175  10.891
47152W        W15493  17.625  37.063   3.313
47153W        W15494   2.878  43.918   0.878
47154W        W15495  37.996  13.197   2.325
47155W        W15496  28.052   3.843   0.453
47156W        W15497   2.393  21.757  11.471
47157W        W15498   3.453  21.061   4.784
47158W        W15499  19.135  10.333  13.521
47159W        W15500  41.382  24.189  14.368
47160W        W15501  34.068  19.760   2.832
47161W        W15502  28.155   8.292  12.917
47162W        W15503   7.891  13.719   2.900
47163W        W15504  41.391  30.563  10.536
47164W        W15505   8.205  37.940  11.912
47165W        W15506  28.545  27.153   3.676
47166W        W15507  42.510  11.356   1.355
47167W        W15508  22.150  31.598  12.838
47168W        W15509  10.742   3.438  14.341
47169W        W15510  44.443   8.175   4.776
47170W        W15511  11.634  16.709  14.868
47171W        W15512  32.577   3.786  13.333
47172W        W15513   9.698  17.200   4.658
47173W        W15514   6.909  14.095   1.916
47174W        W15515   7.829  14.138  13.509
47175W        W15516  38.912  28.541  10.644
47176W        W15517  20.034  29.103   1.289
47177W        W15518  23.072   3.399   2.291
47178W        W15519  11.831  28.551  14.947
47179W        W15520  31.578  40.918   0.732
47180W        W15521  41.924  26.061  11.500
47181W        W15522  12.142   0.819  14.452
47182W        W15523  18.204  20.132   1.406
47183W        W15524  13.193  11.768  10.005
47184W        W15525   5.796  42.819   0.245
47185W        W15526  23.544  28.048   4.162
47186W        W15527   7.840  17.599   3.178
47187W        W15528  29.076  20.144   1.284
47188W        W15529  21.538  21.185  14.865
47189W        W15530   6.401  13.106   3.207
47190W        W15531  10.223  30.000   3.765
47191W        W15532  42.858  34.987   5.318
47192W        W15533   8.665   2.882  11.054
47193W        W15534  28.073  35.487  13.315
47194W        W15535  37.457   4.741   4.141
47195W        W15536  11.826  41.338  11.537
47196W        W15537  18.609  13.199  10.424
47197W        W15538  19.582  19.039   2.670
47198W        W15539  11.863  34.011  14.417
47199W        W15540  33.049  17.664   3.759
47200W        W15541   4.410  43.803  12.340
47201W        W15542   8.395  15.634  13.834
47202W        W15543  44.992  40.807   2.862
47203W        W15544   1.278   6.899   0.428
47204W        W15545  29.978  17.774  12.556
47205W        W15546   1.937  39.503   1.308
47206W        W15547   3.947  44.393   3.163
47207W        W15548  23.599  33.549  11.880
47208W        W15549   4.935  29.563   4.173
47209W        W15550  20.678  34.505  13.311
47210W        W15551  43.970  30.126   4.826
47211W        W15552  14.639  27.051  13.897
47212W        W15553  35.930  12.342  12.499
47213W        W15554  12.341  38.386  14.946
47214W        W15555   9.220  33.913   1.255
47215W        W15556  21.161  23.105  14.808
47216W        W15557   9.335  42.473   1.763
47217W        W15558  16.810  15.124  10.466
47218W        W15559   6.183  11.815  12.412
47219W        W15560  24.141  28.974  10.503
47220W        W15561  12.322  11.768  13.849
47221W        W15562  16.274  24.011   3.166
47222W        W15563  16.590  44.447  10.959
47223W        W15564  14.735  38.876   0.927
47224W        W15565  22.643  15.671  14.852
47225W        W15566  44.812  44.770  13.948
47226W        W15567  10.153  44.329   3.701
47227W        W15568  11.781   2.278  14.380
47228W        W15569  35.892  16.702  13.045
47229W        W15570  18.689  27.574   1.398
47230W        W15571  18.150  13.666  14.509
47231W        W15572  35.069  26.147  10.894
47232W        W15573   9.741  44.931   1.272
47233W        W15574  38.449  37.052  11.024
47234W        W15575  34.945  22.663   4.205
47235W        W15576  11.824  21.543   3.254
47236W        W15577  41.987   2.851  12.052
47237W        W15578  22.171   1.849   4.140
47238W        W15579  34.110  26.701   0.833
47239W        W15580   8.793  16.256   1.835
47240W        W15581  39.405  19.714   4.250
47241W        W15582   7.751   3.360   0.254
47242W        W15583   6.274   0.867   2.786
47243W        W15584  17.121  43.445  11.078
47244W        W15585  41.333  36.350   4.204
47245W        W15586   6.230  26.699   5.174
47246W        W15587  42.026  15.666   1.928
47247W        W15588  34.083  13.723   0.805
47248W        W15589   3.372  43.402   0.428
47249W        W15590  17.104  25.035  14.277
47250W        W15591  10.746  10.164  13.334
47251W        W15592  21.633  42.885   3.690
47252W        W15593  35.477  29.146   3.754
47253W        W15594  30.148  39.850   0.310
47254W        W15595  18.199   1.760  13.988
47255W        W15596  33.414   5.825  14.883
47256W        W15597  44.850  20.706  10.470
47257W        W15598   4.379  13.750  10.455
47258W        W15599   3.364  29.030   2.830
47259W        W15600  20.685  13.187   1.878
47260W        W15601   6.279   9.861  13.050
47261W        W15602  12.768  36.021   2.746
47262W        W15603  26.566   9.237  12.087
47263W        W15604  42.831  36.436  10.640
47264W        W15605  31.523  23.202  12.389
47265W        W15606  44.399   1.915  12.440
47266W        W15607  13.728  41.418   5.625
47267W        W15608  37.507   3.914  12.862
47268W        W15609   5.273  39.410  12.921
47269W        W15610  35.545  13.654   3.793
47270W        W15611  19.072  40.384  11.908
47271W        W15612  40.487  38.339   2.800
47272W        W15613  21.206  41.318  13.546
47273W        W15614   8.862  36.096   2.401
47274W        W15615   3.810  30.105   3.381
47275W        W15616  16.585   6.804   4.340
47276W        W15617   5.394   5.437   1.291
47277W        W15618  13.615  28.935   4.325
47278W        W15619  20.185  42.019  14.475
47279W        W15620  36.936  36.549  11.373
47280W        W15621  23.184  23.567  13.404
47281W        W15622  27.562  29.064  14.942
47282W        W15623  33.039  12.341   4.721
47283W        W15624  18.703   5.933  10.537
47284W        W15625   9.758  21.602   0.259
47285W        W15626  38.959  31.465  10.556
47286W        W15627  21.168  18.146   2.294
47287W        W15628   8.853   7.319  12.467
47288W        W15629  25.017  22.600   2.229
47289W        W15630  43.998   6.733  12.902
47290W        W15631  31.102  33.027  14.364
47291W        W15632  21.027  35.853   0.905
47292W        W15633  16.737  21.672   5.199
47293W        W15634  12.197  24.694   2.187
47294W        W15635   7.381  19.632   4.254
47295W        W15636  44.409  36.900  11.530
47296W        W15637  29.980  44.947  14.969
47297W        W15638  20.665  42.943  11.511
47298W        W15639  35.036  36.095   3.854
47299W        W15640  28.465  12.117   0.746
47300W        W15641   5.368   5.765   2.212
47301W        W15642  12.151  44.965  12.396
47302W        W15643  36.022  38.436   0.447
47303W        W15644   4.817  27.049  13.852
47304W        W15645  10.648  16.790  13.888
47305W        W15646   8.894  16.675  11.413
47306W        W15647  35.461   7.717  11.389
47307W        W15648  24.133  21.200  11.415
47308W        W15649  43.445  14.199  14.471
47309W        W15650  16.141  43.366  11.025
47310W        W15651  10.160  34.032  13.854
47311W        W15652  38.911   4.205  12.396
47312W        W15653   1.754   0.456   4.679
47313W        W15654  25.979  35.592   4.286
47314W        W15655   8.781  25.064   2.776
47315W        W15656  32.055  29.479  12.520
47316W        W15657  39.320  15.220   3.281
47317W        W15658  25.677   0.858  10.958
47318W        W15659  25.023  13.739  12.452
47319W        W15660  41.974  18.565  10.559
47320W        W15661   4.293  28.473   3.869
47321W        W15662  26.653  34.867   2.682
47322W        W15663  12.738  36.359   0.404
47323W        W15664  24.642  43.344   1.848
47324W        W15665  29.599   0.369  11.928
47325W        W15666  31.563  33.052   2.688
47326W        W15667   9.821  10.833  14.799
47327W        W15668  19.560  39.464  13.346
47328W        W15669  10.690  21.653  11.524
47329W        W15670  33.026  27.554  12.087
47330W        W15671  43.352  17.242   0.361
47331W        W15672  24.623  29.168   2.298
47332W        W15673  13.308  42.989   4.720
47333W        W15674  37.983  24.181   0.293
47334W        W15675  15.261  20.635  13.848
47335W        W15676  36.575  43.389   0.762
47336W        W15677  24.071  33.604  12.377
47337W        W15678  27.616  38.991  12.506
47338W        W15679  37.998  43.960   2.408
47339W        W15680  13.818  18.080   1.424
47340W        W15681  30.122  20.177   3.710
47341W        W15682  23.624  13.215  10.443
47342W        W15683  28.005  23.182   1.895
47343W        W15684  10.355  23.666   4.805
47344W        W15685  15.758   7.228  14.301
47345W        W15686   3.947  10.803  13.882
47346W        W15687  22.721  15.171   2.182
47347W        W15688   7.815  26.977   4.287
47348W        W15689   3.780   9.239  12.886
47349W        W15690  13.715   3.835   3.357
47350W        W15691  43.873  25.118  12.053
47351W        W15692  20.648   1.919   4.731
47352W        W15693  44.878  30.968   4.117
47353W        W15694  27.521  33.039   4.656
47354W        W15695  26.554  34.983   3.379
47355W        W15696  20.664  21.104   0.320
47356W        W15697  34.974   9.757   2.389
47357W        W15698  11.831  35.604  13.965
47358W        W15699  43.338   8.198   0.959
47359W        W15700   4.378  26.505  12.012
47360W        W15701  32.018  27.167   2.235
47361W        W15702  29.496  14.771  12.402
47362W        W15703  25.026  12.164   3.648
47363W        W15704  17.689  12.174   4.305
47364W        W15705  35.362   1.887   1.421
47365W        W15706  28.456   8.184   1.724
47366W        W15707  18.688  28.944   0.302
47367W        W15708  40.971  17.169   0.764
47368W        W15709  25.639  11.624  12.993
47369W        W15710  12.623  40.952  13.430
47370W        W15711  29.498  20.222  12.520
47371W        W15712  37.582  19.739  11.996
47372W        W15713  36.380  20.083   3.822
47373W        W15714  35.974  20.070   2.892
47374W        W15715   1.475   4.447   2.371
47375W        W15716  23.494  31.436  14.890
47376W        W15717  16.642  33.575   2.674
47377W        W15718  19.776  21.722  12.478
47378W        W15719   5.426   7.907  10.927
47379W        W15720  44.407  17.721  14.013
47380W        W15721   7.312  25.580  11.545
47381W        W15722  40.847  41.413   3.215
47382W        W15723  21.565   5.332  14.902
47383W        W15724  38.348  37.370  14.414
47384W        W15725  41.001  36.907  12.984
47385W        W15726  28.521   3.265  11.592
47386W        W15727   6.680   8.198  12.033
47387W        W15728  32.486  44.379   4.667
47388W        W15729   4.826  30.031  11.564
47389W        W15730  38.494   1.241  12.087
47390W        W15731  20.157  12.124   1.333
47391W        W15732  24.587   6.848  11.100
47392W        W15733  42.951  29.028  12.011
47393W        W15734  38.849  31.045   3.732
47394W        W15735  28.494   4.938  11.129
47395W        W15736   1.749  37.931   3.383
47396W        W15737  14.136   6.848  13.917
47397W        W15738  26.688  29.983   4.651
47398W        W15739  25.669  17.063  13.805
47399W        W15740  34.410  17.067   2.299
47400W        W15741   7.393   1.941   4.335
47401W        W15742  37.419  34.572   4.721
47402W        W15743  25.004  36.474  13.544
47403W        W15744   6.243  28.097   4.253
47404W        W15745   6.255  13.204  13.022
47405W        W15746  29.622  18.213   2.184
47406W        W15747  23.236  26.529  13.062
47407W        W15748   9.341  27.991   9.952
47408W        W15749  29.931  40.798  10.932
47409W        W15750  33.412  44.386   1.779
47410W        W15751  43.923  18.747   3.758
47411W        W15752  11.188  39.048  11.012
47412W        W15753  11.860  17.653  13.396
47413W        W15754  33.914  35.081   3.844
47414W        W15755   7.214  40.815  14.026
47415W        W15756  40.835  18.243  10.638
47416W        W15757  39.855   2.918   2.690
47417W        W15758  17.299  21.664   1.301
47418W        W15759  24.184   6.291   0.266
47419W        W15760  33.114  39.352   5.125
47420W        W15761  24.213  31.052   2.303
47421W        W15762   4.336  28.460   2.193
47422W        W15763  41.411  22.516   3.303
47423W        W15764  24.706  38.403   1.262
47424W        W15765  14.242  26.198  10.909
47425W        W15766   4.871   8.286   5.162
47426W        W15767  12.620  42.919   2.276
47427W        W15768  32.001  34.535  13.935
47428W        W15769  22.025  22.617  11.932
47429W        W15770  44.916  24.706  11.968
47430W        W15771   0.308   0.255  13.987
47431W        W15772  37.935  36.438  13.017
47432W        W15773   9.202   9.275  10.918
47433W        W15774  16.687  10.771   3.370
47434W        W15775   3.447   7.261  12.358
47435W        W15776  17.186  26.063  12.060
47436W        W15777   7.816  36.576  10.438
47437W        W15778  10.157  12.815  14.496
47438W        W15779  38.448   7.907  10.933
47439W        W15780  12.263   3.841   4.701
47440W        W15781   7.185  22.567  12.470
47441W        W15782  28.940  34.034  10.968
47442W        W15783  24.989  33.455   2.852
47443W        W15784  32.487  42.316  11.495
47444W        W15785  42.923  37.895   5.295
47445W        W15786  41.822  15.639   2.830
47446W        W15787  41.535  27.059  11.457
47447W        W15788   1.942  44.904  11.871
47448W        W15789   6.419  17.195   0.763
47449W        W15790  34.037   5.336  13.392
47450W        W15791  11.185  36.356  14.980
47451W        W15792  17.190  36.974   0.736
47452W        W15793  31.644  40.842   0.465
47453W        W15794   1.926   1.874  11.059
47454W        W15795  10.680  21.162  12.089
47455W        W15796   0.448  36.907  11.467
47456W        W15797   2.765   2.307  13.378
47457W        W15798  20.271  31.085  12.471
47458W        W15799  20.140  24.227   0.270
47459W        W15800   8.390  13.765   3.216
47460W        W15801  25.476  42.948   2.760
47461W        W15802  23.687  32.516  13.528
47462W        W15803  10.225  19.561  11.411
47463W        W15804  41.886  14.185  13.927
47464W        W15805  21.533   4.438  12.997
47465W        W15806  24.596  40.946  10.542
47466W        W15807  33.571   3.784   1.265
47467W        W15808  32.605  26.971   0.761
47468W        W15809  43.766   3.737  14.454
47469W        W15810  26.999  37.069  14.318
47470W        W15811  33.491  24.994  13.806
47471W        W15812  41.356   6.219  14.769
47472W        W15813  29.511  24.584   1.841
47473W        W15814  13.637   3.861   0.766
47474W        W15815   4.816  30.940  11.000
47475W        W15816  36.423  34.505   2.678
47476W        W15817  26.478  12.249  13.853
47477W        W15818  31.458  42.801   3.271
47478W        W15819  25.524   4.400   1.761
47479W        W15820  10.274  30.463   1.214
47480W        W15821  29.062  42.325   1.853
47481W        W15822  12.297  16.806  11.599
47482W        W15823  32.411  11.145   1.259
47483W        W15824  23.235  15.217   1.292
47484W        W15825  20.156  13.334  12.986
47485W        W15826  12.839  12.221   1.742
47486W        W15827   9.736  39.522   0.742
47487W        W15828  41.807  19.675   2.189
47488W        W15829   2.330  23.035   2.402
47489W        W15830   1.744  37.374  14.772
47490W        W15831   7.310   9.184  13.034
47491W        W15832  40.035  37.872  12.541
47492W        W15833  41.880  17.662   4.754
47493W        W15834  10.670   8.385  14.437
47494W        W15835  43.431   7.394  10.918
47495W        W15836   3.727  32.494   0.923
47496W        W15837  43.887  18.239   0.367
47497W        W15838  26.648  35.040  14.285
47498W        W15839  31.991  37.559  12.882
47499W        W15840   2.841  18.721  10.604
47500W        W15841  37.434  37.531  13.010
47501W        W15842  38.957  12.644  10.950
47502W        W15843  29.537   7.773  13.808
47503W        W15844  33.491  33.426   2.411
47504W        W15845  17.657   9.283  14.820
47505W        W15846  35.439  44.824   2.813
47506W        W15847  42.506  26.139  11.409
47507W        W15848  16.293  43.784   3.788
47508W        W15849  25.021   2.287   2.841
47509W        W15850  36.861  12.814   4.829
47510W        W15851  10.182  22.538  14.363
47511W        W15852  41.325   0.945   2.310
47512W        W15853   3.868   0.925   4.797
47513W        W15854  33.034  27.574   3.817
47514W        W15855  43.386  33.522  13.060
47515W        W15856   7.258  33.975  11.976
47516W        W15857  36.389  32.076   1.804
47517W        W15858  29.069  19.141   1.777
47518W        W15859   6.872  15.797  12.428
47519W        W15860  22.041  22.651   2.760
47520W        W15861   8.269  44.960   0.479
47521W        W15862   4.914  21.517  14.015
47522W        W15863  11.790   1.372  11.955
47523W        W15864  31.110   6.372  10.482
47524W        W15865  13.351  39.519  10.588
47525W        W15866  23.080  12.646   3.819
47526W        W15867  13.756  39.438  11.882
47527W        W15868   7.912  34.492  10.423
47528W        W15869   2.415  36.427   4.330
47529W        W15870  17.125  13.649   1.450
47530W        W15871  39.316  40.809  13.059
47531W        W15872  21.167  25.473   0.454
47532W        W15873  35.382  31.514   4.645
47533W        W15874   5.750  44.494  11.021
47534W        W15875  20.646  29.579  14.820
47535W        W15876  18.115  34.023   1.701
47536W        W15877  20.689  20.223  13.869
47537W        W15878  39.851  11.864   0.293
47538W        W15879  16.175  30.453   3.704
47539W        W15880  22.095  20.726   1.210
47540W        W15881  39.423  17.685   2.815
47541W        W15882   8.800  10.193  10.410
47542W        W15883  34.555  10.772   3.717
47543W        W15884   6.421  16.577   0.918
47544W        W15885  43.836  11.778  11.054
47545W        W15886   2.846  14.162  13.418
47546W        W15887  21.242   3.236   0.268
47547W        W15888  26.104  36.558   3.207
47548W        W15889   5.225   5.262   3.677
47549W        W15890   1.389  28.027   1.417
47550W        W15891  25.666  29.094  10.927
47551W        W15892  35.457  27.949   0.810
47552W        W15893   5.432  18.676  11.526
47553W        W15894  40.338  25.648  14.432
47554W        W15895  30.939  44.769   1.929
47555W        W15896  19.540  38.391   4.699
47556W        W15897  22.194  34.907  13.467
47557W        W15898  20.741   8.783  10.011
47558W        W15899  17.641  43.480  12.444
47559W        W15900  13.109   8.808  12.341
47560W        W15901  35.413  38.560   3.792
47561W        W15902  40.540   9.792   2.876
47562W        W15903  40.458  34.872  13.323
47563W        W15904  12.637  12.615   0.933
47564W        W15905  19.607  42.973   2.284
47565W        W15906   2.417  41.871   0.761
47566W        W15907  16.102  28.123   0.349
47567W        W15908  24.060  19.097   9.540
47568W        W15909  23.075  28.565   2.701
47569W        W15910   5.325  28.574  10.976
47570W        W15911  39.979  29.121  11.576
47571W        W15912  30.601  43.364   4.147
47572W        W15913  30.931   1.327  12.428
47573W        W15914  19.041  37.476  14.367
47574W        W15915  37.848  33.539  14.278
47575W        W15916  13.638  12.196  10.933
47576W        W15917  29.618   6.213  10.404
47577W        W15918  23.609  32.043  10.435
47578W        W15919   3.379  35.054  10.943
47579W        W15920   4.321  11.196  10.993
47580W        W15921  10.271  18.560  12.880
47581W        W15922   5.353   5.259  13.858
47582W        W15923  40.393  11.645   0.344
47583W        W15924  14.131  19.552   0.366
47584W        W15925  12.730  27.094   3.190
47585W        W15926  20.242  43.447  11.374
47586W        W15927  14.656   5.886   3.231
47587W        W15928  10.229  34.511  11.556
47588W        W15929  31.952  21.525   3.799
47589W        W15930  12.634  38.985   2.335
47590W        W15931   3.289  17.078  13.487
47591W        W15932  43.945  31.138  11.456
47592W        W15933  13.195  12.170   0.361
47593W        W15934  43.399  43.321   0.749
47594W        W15935  39.490  30.517  11.109
47595W        W15936   9.170  25.608   2.737
47596W        W15937   6.371  27.656  11.376
47597W        W15938  10.721   9.353   2.758
47598W        W15939   1.821  33.093  12.550
47599W        W15940  13.650  38.571   2.373
47600W        W15941  39.000  32.630   2.344
47601W        W15942   8.278   5.841  11.959
47602W        W15943   9.185  16.084   0.743
47603W        W15944  28.178  42.290   4.665
47604W        W15945   0.759  28.569   3.322
47605W        W15946  15.785  39.477   4.682
47606W        W15947  42.811  27.532   1.870
47607W        W15948  27.030  27.032   3.746
47608W        W15949  43.360  42.975   2.837
47609W        W15950  13.660  43.440   4.769
47610W        W15951  31.632  12.251   2.264
47611W        W15952  22.709   7.716   4.298
47612W        W15953  36.942  38.904  12.074
47613W        W15954  24.488  14.253  11.557
47614W        W15955  36.486  33.103   2.417
47615W        W15956  12.334  29.129  11.031
47616W        W15957  17.221   4.807   2.706
47617W        W15958  24.118   8.666   3.231
47618W        W15959  10.772  32.050   1.350
47619W        W15960   0.813   9.653  11.503
47620W        W15961  36.525   2.967  11.885
47621W        W15962  41.900  30.426  12.958
47622W        W15963  18.628  38.438   4.196
47623W        W15964  37.004   1.821   0.326
47624W        W15965  32.066  30.579  12.497
47625W        W15966  13.624  12.341   1.833
47626W        W15967  39.905   7.758  10.949
47627W        W15968  20.096   7.337  11.503
47628W        W15969  10.146   6.322   1.695
47629W        W15970  34.009  11.733   2.180
47630W        W15971  26.184   5.246   2.875
47631W        W15972  29.037   7.387  11.063
47632W        W15973  31.628   7.339   2.846
47633W        W15974  39.520  31.574  10.405
47634W        W15975  37.014   7.330   1.395
47635W        W15976  36.903  13.192  12.839
47636W        W15977  27.077  18.653   2.701
47637W        W15978  32.466  41.424   2.810
47638W        W15979  26.661  33.466   0.811
47639W        W15980  27.095   8.869  11.495
47640W        W15981  23.130  18.721  13.352
47641W        W15982  26.585  18.702   2.197
47642W        W15983  14.646   5.274   3.709
47643W        W15984  31.447  15.722   2.810
47644W        W15985  12.343  19.222  12.876
47645W        W15986  10.675   2.231  14.996
47646W        W15987  27.592   2.902   0.952
47647W        W15988  20.622  13.211   0.356
47648W        W15989  24.674  27.655  14.451
47649W        W15990  34.072   6.748   4.753
47650W        W15991   3.379  16.697   2.241
47651W        W15992  24.106  16.609  11.031
47652W        W15993  15.584  37.001  13.526
47653W        W15994  24.645  32.418   4.692
47654W        W15995  19.754  33.504  13.540
47655W        W15996  22.124  15.144  12.007
47656W        W15997  37.336  30.132  14.336
47657W        W15998  32.577   7.359  13.949
47658W        W15999   3.364  42.325   2.732
47659W        W16000  11.777   3.347   0.810
47660W        W16001   5.358  36.462  14.879
47661W        W16002  19.187  30.123  12.080
47662W        W16003  38.885  21.110  12.463
47663W        W16004  44.505  29.978  13.817
47664W        W16005   4.335   2.774  14.444
47665W        W16006   6.323  33.400  11.605
47666W        W16007  37.569  36.943  10.598
47667W        W16008  12.307  37.013  10.584
47668W        W16009   1.774  22.996   3.223
47669W        W16010   0.263  23.136  10.612
47670W        W16011  36.474  44.303  11.929
47671W        W16012  29.660  21.110   1.787
47672W        W16013  43.400  39.959   1.743
47673W        W16014  35.957  10.265   4.702
47674W        W16015   6.229  28.992  10.038
47675W        W16016  26.544   4.393  13.825
47676W        W16017  28.582  11.844   3.680
47677W        W16018  19.200  10.854   3.652
47678W        W16019   7.887  22.610  10.078
47679W        W16020  43.375  18.119  10.453
47680W        W16021   6.315  38.429  13.405
47681W        W16022   3.261   6.183  13.802
47682W        W16023   1.402  33.951   4.716
47683W        W16024  27.606  25.607  14.022
47684W        W16025   5.703  32.399  13.874
47685W        W16026  43.496   6.211  13.879
47686W        W16027  24.158  38.539   2.198
47687W        W16028  31.907  40.409  11.521
47688W        W16029  31.428   4.885  10.477
47689W        W16030  34.464   4.370  14.279
47690W        W16031  21.532  19.186  13.347
47691W        W16032   8.885   9.854   2.393
47692W        W16033  44.406  20.220  11.912
47693W        W16034  36.367  33.914   3.333
47694W        W16035   5.859   6.783   1.214
47695W        W16036  21.156  27.163  10.516
47696W        W16037  37.534  20.562  10.980
47697W        W16038  39.345  42.321  14.014
47698W        W16039  36.437  11.279  10.620
47699W        W16040   5.804  21.579  11.940
47700W        W16041  13.309  37.950   9.662
47701W        W16042   2.905  15.633   1.726
47702W        W16043   5.888  31.445   2.337
47703W        W16044  23.577  21.046   1.307
47704W        W16045  24.183   7.235   0.411
47705W        W16046  17.780  36.529  12.401
47706W        W16047  32.537  20.641   0.789
47707W        W16048  10.277  10.203   5.598
47708W        W16049  39.515   5.395   0.836
47709W        W16050  15.320  13.736   2.853
47710W        W16051  14.238  11.718   1.907
47711W        W16052   4.719  44.003  14.454
47712W        W16053  39.915  15.762  13.484
47713W        W16054  21.187  44.860  12.986
47714W        W16055  30.477  21.214  10.492
47715W        W16056   2.939  36.346  10.563
47716W        W16057  19.726  27.099   0.388
47717W        W16058  32.567   5.694  14.323
47718W        W16059  43.434  21.222  10.983
47719W        W16060   8.787   4.865   3.726
47720W        W16061  28.442  24.571   4.638
47721W        W16062  42.950  33.995  12.492
47722W        W16063   2.842   4.725   1.276
47723W        W16064  31.608  20.550  12.570
47724W        W16065  32.485  20.193  14.013
47725W        W16066  10.170  38.482   3.647
47726W        W16067  16.078   0.473   0.453
47727W        W16068  44.846   4.832  10.969
47728W        W16069  33.492   2.765   2.894
47729W        W16070  42.302  31.149  14.839
47730W        W16071   2.360   0.266   2.411
47731W        W16072  20.153  11.190   1.384
47732W        W16073   4.784  20.736   0.766
47733W        W16074  20.761  42.467  12.493
47734W        W16075   1.737  34.919  11.118
47735W        W16076  28.649  33.532  12.346
47736W        W16077  25.646  26.981  12.484
47737W        W16078  18.789   5.708  11.115
47738W        W16079  33.616  29.425   2.373
47739W        W16080  11.327  22.163   0.837
47740W        W16081  39.381  37.899   3.774
47741W        W16082  16.208  29.529  11.997
47742W        W16083  29.058  13.265  14.869
47743W        W16084   7.267  20.244  11.594
47744W        W16085  34.986  39.055  10.154
47745W        W16086  26.557   9.369   2.194
47746W        W16087  32.448  34.402  13.544
47747W        W16088   2.432   5.396  11.107
47748W        W16089  42.463  11.728   1.366
47749W        W16090   0.459  32.493   3.742
47750W        W16091  21.601  30.544   4.231
47751W        W16092   5.869  34.955  13.010
47752W        W16093   1.417  10.296   4.355
47753W        W16094   4.822  23.650  11.078
47754W        W16095  12.793  39.825  14.423
47755W        W16096  43.906  20.577   1.286
47756W        W16097  34.377  30.151   4.156
47757W        W16098  37.011  13.277  10.976
47758W        W16099  43.470   1.773   3.816
47759W        W16100  24.019   8.334  10.510
47760W        W16101  39.478  23.009  12.350
47761W        W16102  27.580   1.821  12.876
47762W        W16103  21.557  36.890   3.647
47763W        W16104  30.476  40.315  10.483
47764W        W16105  35.595  12.226   4.765
47765W        W16106  24.113  34.538  14.881
47766W        W16107   0.291  21.151   2.320
47767W        W16108   1.448   7.379  13.885
47768W        W16109  37.356  32.481  12.424
47769W        W16110  31.413  37.394  10.428
47770W        W16111  10.662  10.716  11.996
47771W        W16112  36.869  20.630  11.095
47772W        W16113  24.167   3.300  10.952
47773W        W16114  25.058   8.236  14.294
47774W        W16115  16.750  17.262   3.753
47775W        W16116  23.682  44.815  13.822
47776W        W16117   3.344  33.533  10.645
47777W        W16118  24.543  12.355  13.055
47778W        W16119  24.594   3.298  12.350
47779W        W16120  43.867  31.447  10.609
47780W        W16121   0.873  29.609   4.237
47781W        W16122  10.794  44.400  14.936
47782W        W16123  25.029   1.842  12.977
47783W        W16124  23.044  42.999  10.483
47784W        W16125  24.018  29.528  14.444
47785W        W16126  40.548  38.352  11.053
47786W        W16127  19.217  17.683  13.408
47787W        W16128  20.118  12.145  12.476
47788W        W16129  16.811  30.006  10.586
47789W        W16130  34.404  42.014  10.420
47790W        W16131  16.155  38.889   0.861
47791W        W16132  28.154  25.496  12.418
47792W        W16133  43.283  29.031   2.706
47793W        W16134  25.581  14.102   2.791
47794W        W16135   3.317  39.860   4.657
47795W        W16136   6.216  38.023  10.588
47796W        W16137  35.436  15.671   0.740
47797W        W16138  44.397  23.106  11.068
47798W        W16139   0.343   3.855  13.978
47799W        W16140  19.206  16.105   4.751
47800W        W16141  10.734  40.448  13.859
47801W        W16142  24.200  27.058   4.160
47802W        W16143  40.039  30.577   2.866
47803W        W16144  37.891   3.328  11.888
47804W        W16145   3.753   3.254  10.938
47805W        W16146  15.233  27.158  14.347
47806W        W16147   1.354  22.006   0.921
47807W        W16148  13.205  15.160   4.315
47808W        W16149   2.415   9.704   0.914
47809W        W16150  18.693   9.282  14.025
47810W        W16151  41.994   7.326  13.920
47811W        W16152   0.929  41.302  13.317
47812W        W16153  29.967   1.275   1.850
47813W        W16154  10.788  11.647  14.965
47814W        W16155  32.433  39.902  14.995
47815W        W16156  41.953  24.985  14.916
47816W        W16157  33.405  22.249   4.164
47817W        W16158   9.208   5.923  14.457
47818W        W16159  11.696  13.315  12.533
47819W        W16160  33.562  19.676   0.756
47820W        W16161  44.279  22.144  13.362
47821W        W16162  36.484  28.980   0.917
47822W        W16163  38.350  16.124   1.292
47823W        W16164   4.357  18.052   1.702
47824W        W16165  21.757  21.751  11.077
47825W        W16166  24.121  37.474   3.201
47826W        W16167  34.940   1.284  11.415
47827W        W16168  35.508  39.980   1.346
47828W        W16169  23.531   0.298   2.249
47829W        W16170   8.376   3.303  13.359
47830W        W16171  19.604   2.433  13.972
47831W        W16172   9.161  20.642  10.450
47832W        W16173  21.206   3.230   3.654
47833W        W16174  36.474  40.845   1.242
47834W        W16175  44.869  26.106   0.297
47835W        W16176  17.119  23.086  11.547
47836W        W16177  29.545   5.878  14.370
47837W        W16178  19.149  12.653   2.415
47838W        W16179  14.181   9.838  13.916
47839W        W16180  14.126  23.642   1.369
47840W        W16181  33.875   3.724  14.485
47841W        W16182  11.765  35.918  11.953
47842W        W16183  14.683  37.380  12.402
47843W        W16184  13.272  34.058   2.881
47844W        W16185   9.276  34.923  12.537
47845W        W16186  14.244  30.054  12.855
47846W        W16187  22.152  17.708   1.721
47847W        W16188  21.237  22.093  10.619
47848W        W16189   6.831  25.036   4.192
47849W        W16190  42.880  36.491   3.765
47850W        W16191  29.584  19.576   4.599
47851W        W16192  40.992  23.226  12.044
47852W        W16193  36.000  13.256  11.975
47853W        W16194  27.086   4.757   2.190
47854W        W16195  35.455  41.808   1.429
47855W        W16196  39.845  43.489  14.776
47856W        W16197  12.757  36.966  12.971
47857W        W16198  40.546  34.948   4.807
47858W        W16199  33.386  36.399  13.379
47859W        W16200  13.273  41.869  10.987
47860W        W16201   4.445  15.196  13.001
47861W        W16202  38.874   1.898   0.919
47862W        W16203  26.081   0.797  11.538
47863W        W16204  32.544  25.570   4.810
47864W        W16205  41.920  42.779   0.283
47865W        W16206  40.522  42.973   3.285
47866W        W16207  18.674  10.676   2.342
47867W        W16208  15.132   9.240  11.525
47868W        W16209   1.251  16.705  11.882
47869W        W16210   3.406  25.584   3.701
47870W        W16211   0.292  20.654   2.830
47871W        W16212  18.545   0.826   3.368
47872W        W16213  20.266  10.770  14.837
47873W        W16214  40.338  34.013   2.248
47874W        W16215  38.465  36.417  13.043
47875W        W16216   5.347  35.861   0.381
47876W        W16217  13.805  13.125   1.386
47877W        W16218  12.752  13.802  12.536
47878W        W16219  21.586  11.723  14.889
47879W        W16220  22.507  19.740  13.404
47880W        W16221  37.839   0.318  14.508
47881W        W16222  31.922  24.082  14.485
47882W        W16223  26.981  26.176   2.816
47883W        W16224   8.654   7.757   3.809
47884W        W16225  16.196  30.992   2.338
47885W        W16226   3.393  25.010  13.424
47886W        W16227  10.252  15.625  11.592
47887W        W16228  21.255  42.780  11.389
47888W        W16229  31.491  39.957  11.968
47889W        W16230  26.602  21.251  11.072
47890W        W16231  34.115  41.913  12.483
47891W        W16232  35.475  25.176  14.344
47892W        W16233  30.924   8.293   1.738
47893W        W16234  32.114  15.625  14.404
47894W        W16235  24.987  29.436   3.284
47895W        W16236  13.346  36.982   4.213
47896W        W16237   8.775  32.936  10.117
47897W        W16238  15.820  12.171   1.235
47898W        W16239  15.083  38.399  13.946
47899W        W16240  18.168  30.580   1.272
47900W        W16241  12.672  11.213   2.751
47901W        W16242  10.685  32.464   0.258
47902W        W16243  22.662  42.977  14.990
47903W        W16244  40.865  18.152   3.225
47904W        W16245  26.619  15.686  12.370
47905W        W16246  20.765   3.766  13.904
47906W        W16247   7.229   0.459   2.834
47907W        W16248  31.608  28.546  12.864
47908W        W16249  44.984  25.100  11.559
47909W        W16250  43.306  12.752   1.441
47910W        W16251  24.702  22.569  11.966
47911W        W16252  16.655  31.512   5.162
47912W        W16253  23.079   8.392  13.793
47913W        W16254  14.137  18.068   1.848
47914W        W16255  38.501  18.211   4.732
47915W        W16256   6.284  40.926  14.943
47916W        W16257   8.870   4.783   1.311
47917W        W16258  14.777  15.289   4.815
47918W        W16259  21.682  29.502   4.198
47919W        W16260  33.876  23.127   2.756
47920W        W16261  40.979   4.401   2.313
47921W        W16262  34.499  15.710  11.473
47922W        W16263  35.560  11.633   3.249
47923W        W16264  11.199  43.436   2.349
47924W        W16265  23.652  40.375  13.820
47925W        W16266  21.576  25.684  10.406
47926W        W16267  40.829  16.167   2.371
47927W        W16268   8.278  38.052   4.781
47928W        W16269  18.578   1.900   3.786
47929W        W16270   8.825  43.347  11.468
47930W        W16271  28.593  40.331   4.195
47931W        W16272  31.046  39.318   1.750
47932W        W16273  25.026   7.302   1.827
47933W        W16274   2.449  12.189  11.880
47934W        W16275  17.112  37.995  11.047
47935W        W16276  17.282  19.567   3.761
47936W        W16277  13.649  11.299  13.924
47937W        W16278  44.267  22.615   2.384
47938W        W16279   1.904  29.078  13.476
47939W        W16280   4.428  30.954  13.343
47940W        W16281  43.383  44.009   0.347
47941W        W16282  40.320  40.991  10.643
47942W        W16283  22.560  22.607  14.908
47943W        W16284   6.294   8.311  13.347
47944W        W16285  34.469   5.796   3.192
47945W        W16286  34.005  39.493   9.545
47946W        W16287  35.057  26.567  11.396
47947W        W16288  25.676  19.209   4.680
47948W        W16289  32.481  16.286  11.128
47949W        W16290  36.914  41.514  12.555
47950W        W16291   7.199  20.117   2.416
47951W        W16292  13.285  31.517   1.406
47952W        W16293  43.802  35.918   4.226
47953W        W16294   8.304  42.456   4.173
47954W        W16295  43.477   1.875  10.010
47955W        W16296  24.012  15.167  12.009
47956W        W16297  20.664  21.621   4.118
47957W        W16298  14.679  33.382   5.795
47958W        W16299   0.955  35.573  14.393
47959W        W16300  35.967  37.079   3.150
47960W        W16301  22.598  28.451  14.990
47961W        W16302  41.309  21.702  14.412
47962W        W16303   4.730  22.602  13.465
47963W        W16304  23.587  10.368  14.386
47964W        W16305   5.269  25.596  13.032
47965W        W16306   6.910  28.669   0.250
47966W        W16307  30.609  37.875  10.550
47967W        W16308   1.450   0.317   4.785
47968W        W16309   5.905  25.524   2.760
47969W        W16310  11.762  21.564   2.331
47970W        W16311  18.576   6.730   0.422
47971W        W16312  24.589   6.693  11.966
47972W        W16313  18.782  27.484  10.506
47973W        W16314  30.543  10.172   2.344
47974W        W16315  37.909  39.326  12.853
47975W        W16316   5.298  23.715  14.973
47976W        W16317  20.099  16.287   3.707
47977W        W16318  37.831   8.711   3.231
47978W        W16319  22.248  22.135   1.821
47979W        W16320  28.031   9.200  14.370
47980W        W16321   0.340   0.488  12.969
47981W        W16322  13.243  37.361   4.785
47982W        W16323  39.462   7.910  14.897
47983W        W16324   4.355  19.084  11.441
47984W        W16325  19.677   7.684  13.030
47985W        W16326  39.980  35.391   2.662
47986W        W16327  27.565  28.562  12.976
47987W        W16328   1.416  44.368  10.919
47988W        W16329  13.655  37.989   9.928
47989W        W16330  41.502  18.660  11.576
47990W        W16331  27.056  14.254  14.396
47991W        W16332  27.022  38.947   0.425
47992W        W16333  26.157   5.430   0.358
47993W        W16334  21.232  36.391   2.350
47994W        W16335  34.054  38.397  12.368
47995W        W16336  36.395  18.202  10.489
47996W        W16337   9.326  38.431   2.237
47997W        W16338  38.846  35.450   2.322
47998W        W16339  41.918  23.034  10.986
47999W        W16340   9.265  10.640   4.824
48000W        W16341  23.629  25.517   0.842
48001W        W16342  25.710  34.515   0.937
48002W        W16343  39.888  40.819  10.587
48003W        W16344  36.481   7.743  11.411
48004W        W16345  37.582  43.386  13.799
48005W        W16346  41.295  13.151   3.298
48006W        W16347  27.119  24.615   1.334
48007W        W16348  35.358   9.800   2.357
48008W        W16349  15.704  13.710   2.730
48009W        W16350  44.910  34.465   3.196
48010W        W16351  36.871   1.776  13.315
48011W        W16352   9.270  16.305   3.655
48012W        W16353  31.030   6.678   0.304
48013W        W16354  18.595   6.850  12.900
48014W        W16355  36.883  17.597   1.804
48015W        W16356  35.389  37.577  14.506
48016W        W16357  43.511   1.289  10.532
48017W        W16358   3.359  20.763  13.895
48018W        W16359  20.558  18.167   1.293
48019W        W16360  37.486  11.129   0.770
48020W        W16361  25.538  12.685  14.010
48021W        W16362  26.530  14.314   2.319
48022W        W16363  14.682  25.962   4.687
48023W        W16364  40.893  29.170  10.919
48024W        W16365   7.755  22.214  11.601
48025W        W16366  19.129  30.074  11.390
48026W        W16367  39.917  14.104  10.553
48027W        W16368  35.852  33.006  11.509
48028W        W16369  16.296  29.488  13.794
48029W        W16370  24.197  25.616   4.787
48030W        W16371  30.144  13.330  13.545
48031W        W16372  15.587   0.255   1.729
48032W        W16373   8.187  44.453   1.351
48033W        W16374  34.897  14.732   2.405
48034W        W16375  34.391  14.142   4.114
48035W        W16376   1.771  24.984   3.279
48036W        W16377  22.029  29.489  13.465
48037W        W16378   2.394  33.003  12.522
48038W        W16379  41.016  23.230   3.260
48039W        W16380  26.550  16.221   3.178
48040W        W16381  14.154  19.231   2.366
48041W        W16382  18.638   6.398  12.979
48042W        W16383  25.194  39.317  13.870
48043W        W16384   0.959  20.117   1.739
48044W        W16385  35.101  17.726  11.427
48045W        W16386  31.021  35.414   3.779
48046W        W16387   2.741  31.608   3.653
48047W        W16388  22.212  10.148   3.203
48048W        W16389  41.020   0.482  12.500
48049W        W16390  19.714  33.019  11.087
48050W        W16391  19.056  14.180  10.972
48051W        W16392   5.933  12.730   4.175
48052W        W16393  15.728  33.028  11.427
48053W        W16394  34.505  14.121   4.632
48054W        W16395   0.451  38.528   4.119
48055W        W16396  36.440  41.454  12.842
48056W        W16397  22.609   0.792   2.773
48057W        W16398  21.204  18.242   0.741
48058W        W16399  39.439  19.075  11.009
48059W        W16400  15.249  41.299   0.281
48060W        W16401  12.816  30.635  14.823
48061W        W16402  22.511  42.364   1.792
48062W        W16403  12.775  24.599  11.566
48063W        W16404  18.087  33.086  13.899
48064W        W16405  28.142  33.050   3.218
48065W        W16406   1.921  36.562   1.917
48066W        W16407   0.292  41.310   4.294
48067W        W16408  28.932   5.197   2.212
48068W        W16409  16.220  32.506  10.607
48069W        W16410  32.531  27.562   2.414
48070W        W16411  33.915  34.980   0.372
48071W        W16412  17.791  23.633   4.702
48072W        W16413   5.276  24.504  10.952
48073W        W16414  41.491  22.142   2.825
48074W        W16415  11.726   7.700  13.447
48075W        W16416  39.827  20.136   0.747
48076W        W16417  27.475  35.405   1.287
48077W        W16418  17.166   2.308  11.414
48078W        W16419  26.538   9.205   0.829
48079W        W16420  39.475  18.163  10.571
48080W        W16421  24.086   0.344   3.829
48081W        W16422  21.150  24.553   4.225
48082W        W16423   3.302  37.846  10.906
48083W        W16424  24.578  25.609   1.842
48084W        W16425  17.690  35.382   3.793
48085W        W16426  14.150  22.107   4.278
48086W        W16427  44.391  31.532  11.966
48087W        W16428   4.417  43.406   3.799
48088W        W16429  25.983  28.655   3.765
48089W        W16430  13.324  30.931   2.385
48090W        W16431  31.623  40.376   3.855
48091W        W16432  41.310  24.665   0.946
48092W        W16433  28.159   6.274  10.633
48093W        W16434   5.717  21.563  10.565
48094W        W16435  38.042   0.263   1.775
48095W        W16436  19.266   8.182   4.166
48096W        W16437  36.893   9.762   4.283
48097W        W16438  28.141  31.969   5.287
48098W        W16439   8.266  38.966   0.805
48099W        W16440  29.122  10.750   4.749
48100W        W16441  36.526   1.735   1.323
48101W        W16442  21.116  43.992  12.357
48102W        W16443  12.622  35.593   4.200
48103W        W16444  24.980  43.807   0.871
48104W        W16445  41.797   9.362  12.475
48105W        W16446  11.836  37.485  14.417
48106W        W16447  16.715   0.465  11.965
48107W        W16448  33.485  18.150   3.732
48108W        W16449  43.956  23.063   4.336
48109W        W16450  39.955  32.460  12.916
48110W        W16451  15.281   0.851   4.602
48111W        W16452  28.600  17.752   2.756
48112W        W16453  20.741  32.402  10.512
48113W        W16454  35.603  33.932  14.509
48114W        W16455   0.818   2.932   1.354
48115W        W16456   2.802  25.698  13.928
48116W        W16457   2.365  17.756   1.912
48117W        W16458  37.925   6.351   3.844
48118W        W16459  39.892   4.256  10.961
48119W        W16460  19.630  26.531   2.736
48120W        W16461   2.799  17.727  13.548
48121W        W16462  19.103  17.656  14.927
48122W        W16463  26.512  34.067   5.289
48123W        W16464  35.365  10.278   4.350
48124W        W16465  10.846  16.237  11.438
48125W        W16466  11.635  37.946  13.439
48126W        W16467  24.125   5.878   3.348
48127W        W16468  23.138  44.413  10.114
48128W        W16469  23.619   5.385  10.461
48129W        W16470  26.577  44.290   5.081
48130W        W16471   9.227   6.264   0.303
48131W        W16472  31.948  28.592   1.283
48132W        W16473   9.770  30.030  11.985
48133W        W16474  16.266  31.413   0.417
48134W        W16475  16.572  14.684   2.198
48135W        W16476   3.216  39.549   0.785
48136W        W16477  38.379  41.445   5.680
48137W        W16478  20.726  40.006   1.803
48138W        W16479   5.421  15.160   0.242
48139W        W16480  16.157  44.779  13.970
48140W        W16481   7.911   6.901  12.534
48141W        W16482  28.975  30.123  13.508
48142W        W16483  39.034  32.434  11.058
48143W        W16484  10.829   0.911  13.454
48144W        W16485  40.437  18.253  13.057
48145W        W16486  24.721  21.062  11.897
48146W        W16487  23.676  42.899   2.279
48147W        W16488  11.635  15.326   0.306
48148W        W16489  20.633   9.859   1.872
48149W        W16490  22.214   4.204  12.531
48150W        W16491  14.128   5.742  13.344
48151W        W16492   3.941   9.679   3.711
48152W        W16493  19.130  24.604  14.916
48153W        W16494   8.786  42.833   4.737
48154W        W16495  13.764  15.727   4.222
48155W        W16496   8.255   9.702   1.930
48156W        W16497   6.285  34.889  14.432
48157W        W16498  17.739   0.398  14.785
48158W        W16499   9.662  20.696  14.002
48159W        W16500  42.001  10.263  10.102
48160W        W16501  33.936  35.890  14.846
48161W        W16502  25.015  22.548   4.648
48162W        W16503  24.198   9.219  12.884
48163W        W16504  33.384  43.324   2.382
48164W        W16505  42.304  14.273  13.341
48165W        W16506  26.146  10.160  10.449
48166W        W16507  18.556   0.404  11.392
48167W        W16508  11.708  44.486   3.747
48168W        W16509   6.394  24.193  14.816
48169W        W16510  37.021  26.545  11.926
48170W        W16511  15.661  25.067   3.350
48171W        W16512  34.978  18.627  13.479
48172W        W16513  27.192  15.087  12.372
48173W        W16514  44.798   9.293   2.804
48174W        W16515  43.799  17.084  14.399
48175W        W16516  17.685   8.734   3.748
48176W        W16517  27.100  13.297   1.435
48177W        W16518  32.619   2.739  11.922
48178W        W16519  32.120  11.144   4.190
48179W        W16520  11.285  37.984  14.304
48180W        W16521  40.894  14.781   3.280
48181W        W16522  38.864  26.053   2.376
48182W        W16523  10.176  14.597   5.103
48183W        W16524  41.819   2.327   3.234
48184W        W16525  20.226  40.499   3.710
48185W        W16526  26.646  32.908   3.709
48186W        W16527  15.725  41.866   4.697
48187W        W16528  11.253  31.556   4.264
48188W        W16529  38.823   7.893  13.485
48189W        W16530   1.896  31.469  11.890
48190W        W16531  21.058  21.091   4.648
48191W        W16532   4.306  32.601  14.023
48192W        W16533  13.313  39.554  13.345
48193W        W16534  10.643  25.503   0.454
48194W        W16535   4.785   1.743  10.522
48195W        W16536   0.745   8.863   0.462
48196W        W16537  20.731  14.251  13.952
48197W        W16538  40.475  36.566  11.460
48198W        W16539  14.828  15.172  13.038
48199W        W16540  19.182   8.811   1.226
48200W        W16541   8.793  32.969   2.760
48201W        W16542  36.086  41.345  14.945
48202W        W16543   3.438  25.637  12.524
48203W        W16544  22.723  11.316  12.846
48204W        W16545  25.542  28.011  10.437
48205W        W16546  44.763   3.888  13.341
48206W        W16547  34.047  11.806  12.371
48207W        W16548  43.432  26.645   4.621
48208W        W16549  19.570   8.858  13.307
48209W        W16550  39.876   5.808   3.368
48210W        W16551  19.661  32.984  12.413
48211W        W16552  19.124  21.723  10.627
48212W        W16553   7.182  24.713   1.824
48213W        W16554   7.800  16.730  12.095
48214W        W16555  40.314  38.542  13.980
48215W        W16556   3.769  14.754   2.826
48216W        W16557  14.745  36.385  14.821
48217W        W16558   9.194  44.338   0.811
48218W        W16559  13.138  18.132   0.259
48219W        W16560  22.614  21.743  10.940
48220W        W16561   8.338   5.366  10.437
48221W        W16562  39.396  40.047   1.838
48222W        W16563  40.863  18.269   4.806
48223W        W16564   5.413  22.535  11.513
48224W        W16565   1.381  25.125  10.554
48225W        W16566  10.789  11.621  11.000
48226W        W16567  22.600  22.620   4.278
48227W        W16568  37.534  19.140   2.202
48228W        W16569  24.025  17.666   1.897
48229W        W16570  16.315   2.730  14.940
48230W        W16571  21.124  32.996  12.391
48231W        W16572  29.531  16.753  12.975
48232W        W16573  12.684  14.711   4.783
48233W        W16574  32.392  16.266  13.487
48234W        W16575  31.021  23.554   2.714
48235W        W16576  24.979  16.651   3.803
48236W        W16577  29.044  12.652   0.313
48237W        W16578  16.606   3.224   2.415
48238W        W16579  30.118  17.623  14.330
48239W        W16580  26.636  25.992   9.488
48240W        W16581  39.860  41.916   4.803
48241W        W16582  34.602   4.698  14.854
48242W        W16583  38.412  42.515  11.988
48243W        W16584   2.245   4.250  13.838
48244W        W16585  12.614  22.119  14.326
48245W        W16586  42.961  21.606   4.222
48246W        W16587  44.773  20.180   1.742
48247W        W16588  43.388  16.568  12.025
48248W        W16589  28.535  31.985  11.114
48249W        W16590   1.773  38.990  13.826
48250W        W16591   7.315  19.613  14.895
48251W        W16592  44.474   3.940   5.313
48252W        W16593  25.639  20.653  13.381
48253W        W16594   7.390   4.743   3.162
48254W        W16595  17.703  31.587  11.876
48255W        W16596  21.150  12.767  11.606
48256W        W16597  21.253  40.485  11.124
48257W        W16598  10.299   5.911  14.850
48258W        W16599  31.587  23.162   1.834
48259W        W16600  37.911  29.655  10.603
48260W        W16601  18.134  28.058   0.249
48261W        W16602  16.231  18.203   1.335
48262W        W16603  20.673  39.421  14.784
48263W        W16604  36.385   3.891   3.801
48264W        W16605  12.200  39.849  11.895
48265W        W16606  32.968  12.331   4.145
48266W        W16607  15.817  17.619   1.895
48267W        W16608   9.188  32.912  12.408
48268W        W16609   1.763  42.985   4.678
48269W        W16610  23.059  43.298   1.913
48270W        W16611  22.657  25.004   5.238
48271W        W16612  11.624  32.967   0.476
48272W        W16613  26.151   3.392  14.949
48273W        W16614  16.654   0.293  14.507
48274W        W16615  32.545  22.195  12.012
48275W        W16616  18.058  38.870  12.498
48276W        W16617   7.352  29.444   3.749
48277W        W16618  34.040  34.990  11.001
48278W        W16619  23.209   6.757  13.814
48279W        W16620  17.608  40.387  12.481
48280W        W16621  34.018   9.747  12.015
48281W        W16622  26.524   3.787   2.268
48282W        W16623  20.119  14.606   1.428
48283W        W16624  42.922   2.936   1.293
48284W        W16625   5.903  39.551  12.894
48285W        W16626  30.937   7.244  10.438
48286W        W16627  26.614  36.995  12.574
48287W        W16628  41.811  20.621  13.001
48288W        W16629   1.283  29.069   1.443
48289W        W16630  10.732  31.419   3.727
48290W        W16631   3.304   4.307  13.978
48291W        W16632   6.848   2.749  12.924
48292W        W16633   5.884  27.456  11.869
48293W        W16634  16.751  36.068  12.492
48294W        W16635   8.352   2.721  12.436
48295W        W16636   2.858  10.316  13.458
48296W        W16637  36.851  36.568  11.099
48297W        W16638  12.687  33.949  11.438
48298W        W16639  16.294   4.312   0.853
48299W        W16640  15.752  10.301   2.836
48300W        W16641  25.093  12.746   2.699
48301W        W16642  25.132   1.753  10.645
48302W        W16643   4.434   0.761  14.922
48303W        W16644  39.971  21.017   4.282
48304W        W16645  11.821  38.934  14.872
48305W        W16646  43.844   8.392   2.179
48306W        W16647   0.867  28.611   1.759
48307W        W16648  17.184   2.936  12.911
48308W        W16649  11.225   6.766  11.566
48309W        W16650  13.336  29.012   1.306
48310W        W16651  19.628   8.736  11.039
48311W        W16652  24.056   3.899  11.876
48312W        W16653  43.993  27.120  12.888
48313W        W16654  23.060  42.349  11.543
48314W        W16655  15.114  24.630  14.363
48315W        W16656  23.661  42.480   3.836
48316W        W16657  42.952  41.431  12.037
48317W        W16658  18.738  16.181   4.165
48318W        W16659   6.723  13.121  14.890
48319W        W16660  24.120  17.711  13.977
48320W        W16661  35.872  26.150   2.178
48321W        W16662  25.507  22.570   2.694
48322W        W16663  34.061  27.135   0.754
48323W        W16664  14.160  22.122   9.946
48324W        W16665   1.912  12.854  13.543
48325W        W16666   0.742   9.323  13.881
48326W        W16667  14.626  10.708  11.114
48327W        W16668  39.348   0.415  10.909
48328W        W16669   5.337  10.835  12.361
48329W        W16670  42.469  39.849  14.307
48330W        W16671  20.553   9.176   3.791
48331W        W16672  40.953   2.956  14.351
48332W        W16673  14.678  33.459  13.921
48333W        W16674  17.272  34.929   9.619
48334W        W16675  43.304   6.321  12.002
48335W        W16676  19.148  35.992   3.372
48336W        W16677  15.096  26.958  12.494
48337W        W16678  12.768  11.155   5.716
48338W        W16679   0.964  18.620  11.950
48339W        W16680  15.272  38.855   2.811
48340W        W16681   5.424   7.747   0.432
48341W        W16682  25.534   1.869  12.346
48342W        W16683  25.219  11.215   0.819
48343W        W16684  24.684  26.021  13.539
48344W        W16685  26.067  33.983   2.211
48345W        W16686  13.330  36.568   0.361
48346W        W16687  24.636  35.388   4.741
48347W        W16688  19.285  28.161  13.042
48348W        W16689  44.936   4.336  11.080
48349W        W16690  27.454  12.322   1.707
48350W        W16691  26.461  38.518  13.014
48351W        W16692   9.729   7.372  10.889
48352W        W16693  26.154   4.211   4.836
48353W        W16694  35.489   1.441  13.485
48354W        W16695  13.212   7.188  10.110
48355W        W16696  43.427  29.160   3.646
48356W        W16697   0.344   9.190  12.092
48357W        W16698  30.496  23.569  14.827
48358W        W16699  12.717  33.975  13.400
48359W        W16700  41.347   0.415   4.675
48360W        W16701  38.413  35.089   4.746
48361W        W16702  27.063   5.698  14.932
48362W        W16703   6.720  25.479  13.889
48363W        W16704   5.921  34.440   2.304
48364W        W16705  43.012  35.481  13.842
48365W        W16706  29.601   6.216  13.496
48366W        W16707  32.549   3.832   1.340
48367W        W16708  40.360  36.956  13.377
48368W        W16709  44.472  36.439  14.944
48369W        W16710  22.659  35.436   1.884
48370W        W16711   7.713  22.534   2.273
48371W        W16712  38.939   4.424   2.192
48372W        W16713  28.446  35.054  13.494
48373W        W16714  23.063  12.183   4.220
48374W        W16715  31.131  39.547   3.633
48375W        W16716  30.103   0.333  11.902
48376W        W16717  12.334   5.293  13.808
48377W        W16718   4.400  43.783  13.402
48378W        W16719  42.017   4.389   2.341
48379W        W16720   7.694  31.545   3.145
48380W        W16721  32.942  42.968  12.967
48381W        W16722  38.901  31.447  14.003
48382W        W16723  17.162   0.265  13.009
48383W        W16724  27.110  32.488  10.430
48384W        W16725  40.940  27.022  14.912
48385W        W16726  10.731  17.073   2.327
48386W        W16727   0.873  32.606  12.087
48387W        W16728  37.552  16.317  11.937
48388W        W16729   8.405  32.463   4.792
48389W        W16730  15.230  40.913  13.018
48390W        W16731  21.741  12.652   0.774
48391W        W16732   1.792   2.934  11.975
48392W        W16733  29.121   2.945   4.633
48393W        W16734  14.811  15.163   1.912
48394W        W16735  25.541  11.223   3.375
48395W        W16736  16.747   3.380  13.045
48396W        W16737  25.053   6.354  11.445
48397W        W16738  12.279   8.301   1.311
48398W        W16739   1.274   8.852   3.267
48399W        W16740   3.829   4.217   1.305
48400W        W16741  32.636  38.448   3.292
48401W        W16742   1.280  19.545  10.986
48402W        W16743  34.045   8.873  11.030
48403W        W16744   7.353  29.033  11.453
48404W        W16745  40.876   3.241  13.020
48405W        W16746  37.492   0.898   1.828
48406W        W16747  18.717  32.065  14.023
48407W        W16748  22.566  30.116   0.870
48408W        W16749  41.399  43.447  14.860
48409W        W16750  25.591  36.578  10.435
48410W        W16751  24.057  22.640   2.670
48411W        W16752  16.203  32.510   0.272
48412W        W16753  21.585  30.000  13.339
48413W        W16754  40.816  12.194  14.327
48414W        W16755  12.267   3.269   3.851
48415W        W16756  19.165  42.997   3.769
48416W        W16757  19.603  12.703  11.390
48417W        W16758   0.315  17.169  12.453
48418W        W16759  21.200  19.150  12.391
48419W        W16760  24.203  10.184   0.791
48420W        W16761   4.716  15.170   0.955
48421W        W16762  35.504  27.670   2.835
48422W        W16763  37.927  20.711   4.118
48423W        W16764  43.297  27.018   4.200
48424W        W16765  26.112  20.046  13.313
48425W        W16766  20.265  12.171   2.207
48426W        W16767  17.556   0.255  12.363
48427W        W16768  16.714  28.608  12.459
48428W        W16769  38.939  37.937   1.850
48429W        W16770  11.627  21.569   0.244
48430W        W16771   8.297  40.321  10.580
48431W        W16772   7.868  41.459   0.309
48432W        W16773  28.544  17.569   1.910
48433W        W16774  20.542  37.907  12.412
48434W        W16775  37.932  11.673  11.931
48435W        W16776  28.637  16.175  13.937
48436W        W16777  26.173  21.097   0.390
48437W        W16778  41.434  43.970  12.003
48438W        W16779  41.861  30.476   1.265
48439W        W16780  33.389  13.112   2.810
48440W        W16781   3.321   7.248   0.439
48441W        W16782  39.954  31.061   2.680
48442W        W16783  43.410   9.836  12.865
48443W        W16784  41.474  20.187   3.375
48444W        W16785  25.060   4.415   2.864
48445W        W16786  34.944  21.542   3.272
48446W        W16787  16.250  16.092   4.632
48447W        W16788   6.361  16.757   4.173
48448W        W16789  32.411   1.821  13.812
48449W        W16790   8.776  41.816  14.927
48450W        W16791  22.558  39.014   2.329
48451W        W16792  10.190  12.788  10.954
48452W        W16793  26.506   3.913  10.967
48453W        W16794  19.688  27.476  12.453
48454W        W16795   5.911  17.073  12.936
48455W        W16796  44.357  30.455   0.780
48456W        W16797  41.386   1.277  11.008
48457W        W16798  40.910  23.186  10.537
48458W        W16799  39.055  25.571   3.351
48459W        W16800  28.524  40.812  13.405
48460W        W16801  11.325  40.962   1.775
48461W        W16802  41.456  34.441   0.906
48462W        W16803  35.022  40.464  12.391
48463W        W16804  35.406  41.843   1.705
48464W        W16805  44.885  37.359  10.483
48465W        W16806  23.104  17.278   5.267
48466W        W16807  20.559  27.665  11.969
48467W        W16808  41.333  31.136  12.424
48468W        W16809  44.964  21.174  13.511
48469W        W16810  21.087  41.475  13.972
48470W        W16811  30.535   4.701   4.140
48471W        W16812  15.804  17.560   3.315
48472W        W16813  43.450  15.271  11.896
48473W        W16814  43.358   0.262   3.660
48474W        W16815  16.126  13.301   4.672
48475W        W16816  33.991  24.226  11.973
48476W        W16817  28.952   7.890  11.037
48477W        W16818  38.464  22.145  11.610
48478W        W16819  29.161  15.085  14.423
48479W        W16820  44.998   3.853  11.501
48480W        W16821  10.169  37.575  12.898
48481W        W16822   4.802  40.457  12.076
48482W        W16823  35.502   5.210  13.493
48483W        W16824  16.300  32.570   2.179
48484W        W16825   5.224  35.911   2.185
48485W        W16826   9.177   0.806  14.428
48486W        W16827  14.676  17.224   9.986
48487W        W16828  39.327  33.519  13.369
48488W        W16829  18.149  34.882   4.834
48489W        W16830  16.310  12.788  11.023
48490W        W16831   9.887   6.881   1.799
48491W        W16832  25.175   7.677   2.335
48492W        W16833   4.943  10.374   5.218
48493W        W16834  13.200   8.779  13.482
48494W        W16835  43.794  18.274  10.125
48495W        W16836  25.557  36.437   2.278
48496W        W16837  25.028  32.898   4.283
48497W        W16838  27.133  39.526  14.973
48498W        W16839  32.397   8.293   2.783
48499W        W16840  17.741  20.273   3.848
48500W        W16841   8.657   2.391   0.330
48501W        W16842   7.294   3.860   3.783
48502W        W16843   0.436  41.323   2.806
48503W        W16844   3.836  38.487  14.989
48504W        W16845  27.086  27.051  12.344
48505W        W16846  33.078  26.674   3.768
48506W        W16847  38.445   0.488   4.138
48507W        W16848  17.702  43.852   4.279
48508W        W16849  27.188   8.251  11.432
48509W        W16850  34.913  14.206  11.015
48510W        W16851   3.751   8.191  11.027
48511W        W16852   8.807  22.179  12.482
48512W        W16853  19.611  23.074  11.080
48513W        W16854  24.541   6.825  14.488
48514W        W16855  16.117  32.945  13.520
48515W        W16856  20.534  16.790   4.292
48516W        W16857  24.169  43.969  10.929
48517W        W16858  12.694   4.227   0.780
48518W        W16859  42.874  29.607   2.712
48519W        W16860  44.842   3.743  12.464
48520W        W16861  32.484   0.309   4.676
48521W        W16862  23.097  41.396  11.872
48522W        W16863  31.901  26.167  14.891
48523W        W16864  43.860  41.988   2.730
48524W        W16865  37.375  23.676  12.504
48525W        W16866  38.502   0.374   2.351
48526W        W16867  23.999  44.295  13.965
48527W        W16868  32.995  31.615   4.163
48528W        W16869  32.972  32.614   3.343
48529W        W16870  21.099   7.349  13.791
48530W        W16871  16.797   3.907   3.739
48531W        W16872  35.064  27.530   1.219
48532W        W16873  19.200  37.904   1.892
48533W        W16874  33.110  36.958  12.519
48534W        W16875  14.680  22.218   2.864
48535W        W16876  29.491  24.591   4.687
48536W        W16877   4.393  39.879   3.851
48537W        W16878  24.064  29.482  13.901
48538W        W16879  16.755  32.473  12.569
48539W        W16880  31.635  44.810  10.460
48540W        W16881   7.317  41.837  12.876
48541W        W16882  20.702   1.407  12.480
48542W        W16883   0.388  23.675  12.454
48543W        W16884  10.195   4.873   4.747
48544W        W16885  14.813   7.387  12.045
48545W        W16886  26.682  27.125   2.786
48546W        W16887  33.064   8.690   0.257
48547W        W16888  16.149  25.194  12.877
48548W        W16889  23.114  39.896  10.888
48549W        W16890  15.125  40.021  12.473
48550W        W16891   3.881  44.407  13.912
48551W        W16892   4.295  31.521  11.558
48552W        W16893  37.859   3.245  10.915
48553W        W16894   5.422  28.182   2.857
48554W        W16895  25.651  36.972  14.348
48555W        W16896  10.682  20.577   1.376
48556W        W16897  18.642  35.566  14.777
48557W        W16898  30.073  17.186   1.926
48558W        W16899   3.450  26.664   5.288
48559W        W16900  33.071  32.970   2.847
48560W        W16901  20.160  15.148  12.403
48561W        W16902  38.478   8.186  14.762
48562W        W16903  27.136  30.607   3.772
48563W        W16904  40.534  39.815   4.317
48564W        W16905  22.168   7.245  14.012
48565W        W16906  19.761  32.448   2.258
48566W        W16907  21.597  17.265  11.897
48567W        W16908  10.292  17.096   1.738
48568W        W16909  16.598  34.929   4.271
48569W        W16910  22.687  33.078  10.442
48570W        W16911  28.513  33.965  11.938
48571W        W16912  19.727  32.424  11.452
48572W        W16913  28.031  33.004   0.265
48573W        W16914  33.610   3.279   3.767
48574W        W16915  33.542  13.321   2.371
48575W        W16916  39.808   2.378   0.406
48576W        W16917  37.550   7.295  13.998
48577W        W16918  32.599   2.753   1.911
48578W        W16919  23.018   7.859  10.438
48579W        W16920  33.933   9.711  12.412
48580W        W16921   8.791  22.513   1.934
48581W        W16922   8.835   2.377  13.997
48582W        W16923   2.403  31.561  12.990
48583W        W16924  10.365  17.661  11.128
48584W        W16925  11.796   1.256  13.847
48585W        W16926  28.523   7.320  11.449
48586W        W16927  37.930   7.328  11.017
48587W        W16928  22.625  20.725  10.889
48588W        W16929   0.943  36.988   3.835
48589W        W16930  44.466  30.535  10.067
48590W        W16931  31.551  11.817  11.390
48591W        W16932  31.985  42.929   1.359
48592W        W16933  26.120  22.076   3.667
48593W        W16934  11.628  22.033   1.831
48594W        W16935   0.799  43.986   0.409
48595W        W16936  16.157  31.933   2.760
48596W        W16937   7.311   7.296  12.930
48597W        W16938  16.246   0.250   4.699
48598W        W16939  30.912  13.812   2.789
48599W        W16940  25.121  29.528   4.200
48600W        W16941  19.575  38.965   0.787
48601W        W16942  25.061  42.338  10.468
48602W        W16943  34.044   2.827  11.450
48603W        W16944  34.377   3.228  14.299
48604W        W16945   8.165   9.324  10.468
48605W        W16946  33.469  12.695  10.952
48606W        W16947  26.129  19.081  13.363
48607W        W16948  40.356  43.354   4.663
48608W        W16949  19.222  34.460  12.957
48609W        W16950  25.559   9.813  12.036
48610W        W16951  40.835  27.996   1.214
48611W        W16952  12.709  23.107   0.426
48612W        W16953  22.065  17.641   3.194
48613W        W16954  13.785   1.747   1.267
48614W        W16955   6.741  11.299   2.308
48615W        W16956  34.116   6.211  12.982
48616W        W16957  26.575  36.513  13.395
48617W        W16958  42.434   4.908   2.400
48618W        W16959  24.499  22.043  10.553
48619W        W16960  30.045  30.931   3.177
48620W        W16961  19.653  11.181  12.931
48621W        W16962  11.665  30.026  12.978
48622W        W16963   7.311  10.295  10.899
48623W        W16964  28.516  13.831  14.024
48624W        W16965   7.363  14.288  14.997
48625W        W16966   0.390  43.771  13.344
48626W        W16967  11.345  36.356  13.932
48627W        W16968  43.884  17.289   4.830
48628W        W16969  10.720  26.989  14.927
48629W        W16970   2.352  24.533  12.344
48630W        W16971  41.395  36.991  13.513
48631W        W16972  35.860   4.889   1.801
48632W        W16973   2.954   7.711   3.339
48633W        W16974  17.574  27.486   0.878
48634W        W16975  22.711  30.138  13.530
48635W        W16976  38.442  32.475  14.410
48636W        W16977  25.632  11.271   4.315
48637W        W16978   7.397  34.420  10.560
48638W        W16979  13.662  31.510   2.257
48639W        W16980   3.321  41.000  12.868
48640W        W16981  26.141  21.662   4.703
48641W        W16982  44.930   3.224   1.913
48642W        W16983   7.172  40.415  14.926
48643W        W16984  26.030  27.654  14.448
48644W        W16985   6.828   2.235  10.957
48645W        W16986   9.832  25.171  10.572
48646W        W16987  20.652  39.940   4.324
48647W        W16988  29.033  41.803  11.101
48648W        W16989  25.477  35.573  12.452
48649W        W16990  28.040  24.670   2.405
48650W        W16991  28.646  38.502   4.297
48651W        W16992  28.051   9.202   1.274
48652W        W16993  41.927  11.817   0.729
48653W        W16994   6.841  42.798   2.218
48654W        W16995   2.461   7.794  13.890
48655W        W16996  11.209  41.033   3.704
48656W        W16997  29.516  42.965  13.866
48657W        W16998  44.280  30.596  12.931
48658W        W16999  33.489  42.310   3.720
48659W        W17000  24.623  27.963  12.543
48660W        W17001  17.695   9.881  11.401
48661W        W17002  19.174  32.025   4.786
48662W        W17003  21.656   5.277   3.315
48663W        W17004   9.690  39.372   3.217
48664W        W17005   1.788  38.372  14.466
48665W        W17006   7.801  11.700   3.335
48666W        W17007  11.214  43.902   4.609
48667W        W17008  21.248   6.287   2.361
48668W        W17009   0.906  42.414  12.425
48669W        W17010  17.594  29.512   1.885
48670W        W17011  13.783  28.606  11.464
48671W        W17012  10.767  29.970   0.433
48672W        W17013   9.783  35.361   0.788
48673W        W17014   6.714  17.800  10.494
48674W        W17015  44.417  38.832  12.050
48675W        W17016  28.013   7.839   3.375
48676W        W17017   8.840  31.995   3.846
48677W        W17018  36.445  41.979   3.264
48678W        W17019   9.729  11.862   1.839
48679W        W17020  33.404  44.987   1.814
48680W        W17021  34.971   7.855   2.380
48681W        W17022   8.742   4.918  12.399
48682W        W17023  39.492  19.138  13.046
48683W        W17024  23.141  43.411   4.177
48684W        W17025   1.740   5.718   1.226
48685W        W17026  18.084  27.942   1.420
48686W        W17027  13.790  43.357   0.299
48687W        W17028   4.898  36.087  10.121
48688W        W17029  33.894  40.322   4.170
48689W        W17030  10.175  36.546  14.779
48690W        W17031  25.205   5.885  14.285
48691W        W17032  23.582  22.009  14.304
48692W        W17033  43.962  31.936   4.296
48693W        W17034  17.598  38.409   3.791
48694W        W17035  27.621  18.267   0.381
48695W        W17036  10.842  11.867   3.862
48696W        W17037   6.337  34.542  11.418
48697W        W17038  33.390   1.349  11.487
48698W        W17039  31.939  16.683   2.272
48699W        W17040  18.574   3.256   4.780
48700W        W17041  14.749   8.839  11.086
48701W        W17042   4.899   5.256  14.338
48702W        W17043  15.599  29.659  13.530
48703W        W17044  41.429  44.975  12.939
48704W        W17045   0.290  40.368  10.928
48705W        W17046  15.799  27.098  11.909
48706W        W17047   7.692  23.010   3.764
48707W        W17048   7.376  29.942   1.449
48708W        W17049  19.568   5.438  14.339
48709W        W17050  23.085  13.339   1.366
48710W        W17051   8.179  14.731   0.420
48711W        W17052  20.585  35.014   0.480
48712W        W17053  40.952  31.124  13.865
48713W        W17054  22.654   3.231   3.661
48714W        W17055  12.825  14.805  14.813
48715W        W17056  27.025  16.264  13.862
48716W        W17057  20.726  37.013  14.470
48717W        W17058  24.042  35.973  12.519
48718W        W17059  28.474  25.083   2.888
48719W        W17060  24.526   0.981  14.812
48720W        W17061  30.155  24.056  14.505
48721W        W17062  44.352  25.564   4.216
48722W        W17063  16.154  38.403  12.856
48723W        W17064  25.193  18.605   1.752
48724W        W17065   0.975  28.532   2.837
48725W        W17066  36.964  28.081  11.102
48726W        W17067  12.647  35.475  10.418
48727W        W17068   1.432   7.738  11.969
48728W        W17069  28.957  36.894  13.452
48729W        W17070  21.703  15.133   0.422
48730W        W17071   3.803  43.478  13.399
48731W        W17072  43.438  27.483  10.906
48732W        W17073  23.100  26.182   0.738
48733W        W17074  40.942   4.907  10.513
48734W        W17075  41.488  18.652   3.735
48735W        W17076  40.330   0.258  13.365
48736W        W17077  11.346  38.937  12.888
48737W        W17078  19.174  44.007  14.957
48738W        W17079  10.185  10.652  10.536
48739W        W17080  42.900   7.794  12.533
48740W        W17081  37.381   1.877   3.236
48741W        W17082  40.396  18.653  13.963
48742W        W17083  41.299  39.559   0.926
48743W        W17084  42.008   6.886  11.123
48744W        W17085  34.942   1.284   0.390
48745W        W17086  24.027  26.096  14.290
48746W        W17087   1.300  16.656  13.994
48747W        W17088   7.337   8.265   1.896
48748W        W17089  18.212  32.568  10.585
48749W        W17090  41.947  21.726   2.222
48750W        W17091  12.344   1.931   1.350
48751W        W17092  12.199  17.759   3.298
48752W        W17093  10.850   9.676   0.826
48753W        W17094  39.896  24.561   0.759
48754W        W17095  14.710  38.440   3.156
48755W        W17096  10.249  39.462  13.340
48756W        W17097   5.912  12.647   0.459
48757W        W17098   3.360   2.471  14.280
48758W        W17099  15.224  43.361  13.472
48759W        W17100  24.063  14.282   3.317
48760W        W17101  27.691  13.121   3.347
48761W        W17102   0.804   3.874  13.345
48762W        W17103  18.559   4.326  12.574
48763W        W17104  37.005   4.223   1.703
48764W        W17105   2.782  41.423  10.599
48765W        W17106   1.274  43.486  11.507
48766W        W17107  29.958  30.648  11.479
48767W        W17108  43.428  39.547   2.731
48768W        W17109  37.017  31.082   3.662
48769W        W17110  15.299   6.868   3.710
48770W        W17111  38.353  31.031  10.904
48771W        W17112  28.940  26.999   1.714
48772W        W17113  35.074   2.239  11.959
48773W        W17114  31.018  36.901   0.730
48774W        W17115  41.440  42.505   5.246
48775W        W17116  16.802  30.956   0.333
48776W        W17117   3.385  26.542  11.055
48777W        W17118  44.975  35.093   3.862
48778W        W17119  32.916  29.112  11.056
48779W        W17120  15.143  23.157  11.531
48780W        W17121  13.746  36.965   4.824
48781W        W17122  44.262  35.370   3.666
48782W        W17123   7.394  24.170  13.013
48783W        W17124  11.206  41.517  11.898
48784W        W17125   7.288  26.653   0.307
48785W        W17126  14.803  36.927  10.420
48786W        W17127  19.606  44.844  14.002
48787W        W17128  39.358  32.556   2.261
48788W        W17129  11.629  23.135  13.908
48789W        W17130  14.785  33.508   5.120
48790W        W17131  40.522   4.333   4.762
48791W        W17132  30.490   3.912   4.158
48792W        W17133  12.228  23.146  13.998
48793W        W17134  15.187   8.282  10.958
48794W        W17135  12.662  28.978  12.423
48795W        W17136  29.521  42.023   3.188
48796W        W17137  13.820   9.887  11.421
48797W        W17138   3.894  35.069  11.004
48798W        W17139  42.795   9.365   4.115
48799W        W17140  23.714  24.573   0.824
48800W        W17141  26.573  39.924   2.219
48801W        W17142  30.510   7.757  12.869
48802W        W17143  15.624  34.925   2.291
48803W        W17144  25.491  11.285  11.608
48804W        W17145  29.074  34.978   2.664
48805W        W17146  32.922   7.903   2.188
48806W        W17147  40.987  27.625  10.447
48807W        W17148  23.571   5.843   0.764
48808W        W17149   2.920  29.627   4.626
48809W        W17150   2.835  33.538   3.838
48810W        W17151  11.230  44.990  10.910
48811W        W17152  37.984  16.208  13.964
48812W        W17153  23.730  12.235  11.594
48813W        W17154  15.805  36.461   2.284
48814W        W17155  34.060  39.368   4.138
48815W        W17156  13.160   4.311  10.538
48816W        W17157  30.000  21.144  11.885
48817W        W17158  22.081  14.787   4.603
48818W        W17159  37.920  18.215   3.794
48819W        W17160  44.889   6.737   3.292
48820W        W17161   9.271  36.926   1.287
48821W        W17162  21.671  15.665  10.146
48822W        W17163  22.677  37.525   0.809
48823W        W17164  13.747  43.016  12.010
48824W        W17165  10.251  19.122  13.900
48825W        W17166   9.170   3.399  10.629
48826W        W17167  36.040  20.033  12.567
48827W        W17168   4.718  19.260   2.757
48828W        W17169   6.706  35.360  14.431
48829W        W17170  39.336   2.244  11.019
48830W        W17171   3.396  35.062  10.512
48831W        W17172  39.924   8.695   1.305
48832W        W17173  10.344  20.554   2.828
48833W        W17174  32.410  37.411  13.338
48834W        W17175  31.118   6.702   3.740
48835W        W17176  11.763  13.610  13.478
48836W        W17177   2.382  37.395   5.255
48837W        W17178   4.360  34.075  10.539
48838W        W17179  19.664  16.209  11.126
48839W        W17180  18.290   4.881   4.286
48840W        W17181   3.923  14.690  11.120
48841W        W17182  32.113  34.446   0.453
48842W        W17183  14.833  40.370  13.410
48843W        W17184  36.492   8.723  14.879
48844W        W17185  17.137  10.304  13.986
48845W        W17186   3.414  42.013  10.958
48846W        W17187  24.995  11.373   2.847
48847W        W17188  36.470  28.146   9.929
48848W        W17189   4.339  17.758  14.500
48849W        W17190  35.003  25.524  12.836
48850W        W17191   7.190  15.821   5.250
48851W        W17192   4.289  17.162   1.931
48852W        W17193   2.417  27.967   0.380
48853W        W17194   8.701   3.354  13.421
48854W        W17195  30.003  15.635   4.829
48855W        W17196  30.602  44.501  14.380
48856W        W17197  31.986  39.810  13.887
48857W        W17198  28.999  33.405   3.267
48858W        W17199  26.624  21.034  10.450
48859W        W17200  37.475  21.051  13.387
48860W        W17201  20.766  29.444  10.465
48861W        W17202  12.757   6.761   1.820
48862W        W17203  23.145   4.404  10.947
48863W        W17204  10.847  31.990   2.875
48864W        W17205  28.515   2.722   3.341
48865W        W17206  42.909   7.377   2.288
48866W        W17207   8.706   8.165  13.848
48867W        W17208  35.572  44.367  13.951
48868W        W17209  36.349  43.343  10.456
48869W        W17210  37.874  19.174   4.755
48870W        W17211  20.203  33.940   4.763
48871W        W17212  34.063  42.288  12.044
48872W        W17213  43.464  41.463   3.373
48873W        W17214  43.844  20.103   0.416
48874W        W17215  41.394  17.193   1.813
48875W        W17216  20.613  29.042   0.420
48876W        W17217  31.527  40.015   1.366
48877W        W17218  32.413  15.718  14.366
48878W        W17219  16.174  35.388   2.679
48879W        W17220  44.993  19.755   0.833
48880W        W17221   7.765  40.878  10.925
48881W        W17222  42.863   2.805   2.276
48882W        W17223   3.250  16.174   3.355
48883W        W17224   3.442  40.466   0.248
48884W        W17225  37.858  11.834   0.853
48885W        W17226  43.433  37.440  12.353
48886W        W17227  29.979   5.928  12.574
48887W        W17228  13.187  10.877   0.796
48888W        W17229  17.305  16.793   4.265
48889W        W17230   3.432  28.465  14.030
48890W        W17231  12.328  22.663   0.414
48891W        W17232   6.379  22.576  12.400
48892W        W17233  15.808  15.607  13.979
48893W        W17234  19.051  21.735   4.250
48894W        W17235  21.101  18.123   3.724
48895W        W17236  25.647  39.371  14.493
48896W        W17237  26.629  33.542   2.885
48897W        W17238   8.776   6.920   3.199
48898W        W17239  13.637   1.359   3.704
48899W        W17240  16.792  44.304   1.415
48900W        W17241   7.231  27.648   3.222
48901W        W17242  21.740   8.183   0.386
48902W        W17243  29.528  19.055   1.729
48903W        W17244  17.563  23.726  10.614
48904W        W17245  18.176  17.616  13.536
48905W        W17246  10.665  21.059  11.403
48906W        W17247  22.716   5.846  12.995
48907W        W17248  29.460   1.868   0.870
48908W        W17249  14.289   5.911  11.438
48909W        W17250  41.796  12.291   3.732
48910W        W17251  19.210   1.760  14.913
48911W        W17252  38.521  23.586  13.901
48912W        W17253  19.575  24.608   0.387
48913W        W17254   9.862  10.689   1.446
48914W        W17255  14.815  36.862  13.532
48915W        W17256  17.749   9.786   0.368
48916W        W17257   7.336  14.681   4.801
48917W        W17258  18.164  35.429   4.230
48918W        W17259  33.967  41.899  11.604
48919W        W17260   8.179  22.586   1.302
48920W        W17261   7.341  15.120   4.134
48921W        W17262  16.290  17.718   1.708
48922W        W17263   4.821  20.750   3.781
48923W        W17264  43.935  12.226  12.950
48924W        W17265  41.347   7.737  14.964
48925W        W17266  26.192   8.188   2.778
48926W        W17267  36.431  35.508   3.328
48927W        W17268  28.973   6.864  13.956
48928W        W17269  30.003  19.746   2.780
48929W        W17270  13.806  18.074  13.014
48930W        W17271   9.836  20.043   1.269
48931W        W17272   9.338   0.360  11.396
48932W        W17273   2.752   1.240  13.809
48933W        W17274  20.549  18.563   0.427
48934W        W17275  36.439  30.625   1.712
48935W        W17276  39.554  29.929   3.809
48936W        W17277  15.699  22.054  14.934
48937W        W17278  42.470  11.790  14.822
48938W        W17279  28.601  26.147  13.902
48939W        W17280  20.712  17.092   3.753
48940W        W17281  22.720  39.331  10.425
48941W        W17282  21.226  19.260   2.280
48942W        W17283   0.396   5.280   0.900
48943W        W17284  16.095  14.762   3.237
48944W        W17285  19.163  14.637  14.396
48945W        W17286  42.402   8.869   2.693
48946W        W17287  24.586  21.213  12.501
48947W        W17288  15.290   1.473  14.869
48948W        W17289  40.890  18.110  11.879
48949W        W17290  25.684   2.902   2.849
48950W        W17291  16.670  13.241   1.717
48951W        W17292  17.208  17.175   2.676
48952W        W17293  30.539  44.968   0.828
48953W        W17294   1.733  26.000   4.687
48954W        W17295   4.258  42.501  12.857
48955W        W17296  37.405  34.978   0.750
48956W        W17297  31.122  44.484  14.475
48957W        W17298  18.605  15.642   2.179
48958W        W17299  27.536  37.369   4.196
48959W        W17300  35.482  29.134   0.912
48960W        W17301  16.094  15.747   4.247
48961W        W17302  17.202  25.677   1.864
48962W        W17303  13.262  39.983  13.490
48963W        W17304  11.774  25.482   0.945
48964W        W17305  37.359  21.105  14.347
48965W        W17306  35.540  12.161  12.388
48966W        W17307  12.324  39.413  14.401
48967W        W17308  12.297   5.428   1.853
48968W        W17309  10.197   4.424   3.698
48969W        W17310  41.941  23.196   3.191
48970W        W17311  14.775   6.878   1.418
48971W        W17312  15.102   5.277  12.873
48972W        W17313  26.634  32.596  11.446
48973W        W17314   0.398   5.702   2.305
48974W        W17315   0.889  31.906  10.029
48975W        W17316   3.286  35.505  12.075
48976W        W17317  14.180  15.195  10.996
48977W        W17318  34.550  10.650   4.823
48978W        W17319  33.393  25.162  12.959
48979W        W17320  43.926  19.081   1.889
48980W        W17321  27.039   0.355   1.892
48981W        W17322   8.885  34.587   3.291
48982W        W17323  42.837   0.982   3.384
48983W        W17324  17.294  42.899   2.289
48984W        W17325  31.992  34.902  14.416
48985W        W17326  18.548  14.177  14.991
48986W        W17327  19.752   7.345  10.425
48987W        W17328  15.741   3.453  10.567
48988W        W17329  17.308   0.400   2.748
48989W        W17330  39.337  36.869  12.059
48990W        W17331  32.043  24.626   3.349
48991W        W17332  21.128  40.532   1.366
48992W        W17333   8.336  34.907  13.947
48993W        W17334  22.141  44.315   3.817
48994W        W17335  18.108  28.618  13.377
48995W        W17336   0.980   4.279   3.191
48996W        W17337  38.896  27.128  14.791
48997W        W17338  17.576   9.311   3.712
48998W        W17339   1.329  44.485  13.464
48999W        W17340  37.554  16.735  14.834
49000W        W17341  12.693  32.417  11.981
49001W        W17342  29.999  16.765   1.761
49002W        W17343  17.154  34.611   0.455
49003W        W17344  20.648  19.137   2.349
49004W        W17345  31.042   9.746   4.277
49005W        W17346  40.960  43.959  14.482
49006W        W17347  31.020   9.392  10.920
49007W        W17348  39.055  38.873  11.024
49008W        W17349  15.672  39.052   1.723
49009W        W17350  35.412   4.749   3.352
49010W        W17351  36.072  41.886   2.805
49011W        W17352   4.807  21.090  10.998
49012W        W17353  22.555  18.127  11.974
49013W        W17354  19.234  12.786  10.631
49014W        W17355  19.126   3.712   2.797
49015W        W17356  32.470  40.512   4.259
49016W        W17357  21.593  27.140   3.791
49017W        W17358  13.767   7.392  13.050
49018W        W17359  17.787  27.023   1.392
49019W        W17360  12.616   0.412   4.326
49020W        W17361  25.097  31.618  10.906
49021W        W17362  26.148   8.690   1.223
49022W        W17363   9.648  40.425  13.504
49023W        W17364  10.161  24.081   1.216
49024W        W17365   1.272  18.151   3.342
49025W        W17366   7.793  16.161  10.422
49026W        W17367  10.212   0.938  12.927
49027W        W17368  27.195  28.656  11.969
49028W        W17369  20.765  24.191  12.094
49029W        W17370  22.630   4.226   2.752
49030W        W17371  32.015  19.208  10.564
49031W        W17372  32.991  40.419  12.540
49032W        W17373  40.968  14.322   2.900
49033W        W17374  42.415   9.853  12.949
49034W        W17375  24.480  38.891  13.532
49035W        W17376   8.792   0.849   3.177
49036W        W17377  25.633  36.538   3.271
49037W        W17378   9.261  18.267  10.618
49038W        W17379   0.484  32.577  12.887
49039W        W17380  43.979  16.579   2.863
49040W        W17381  33.503  19.649   2.718
49041W        W17382  43.960  28.498   0.876
49042W        W17383  27.133  21.183  14.844
49043W        W17384   7.257   9.787  13.469
49044W        W17385  29.561   7.697   2.380
49045W        W17386  17.743  14.311   2.255
49046W        W17387  19.541  34.075  11.890
49047W        W17388  14.650   8.205  11.058
49048W        W17389  26.578  25.094  11.990
49049W        W17390   6.760  36.520  14.329
49050W        W17391  35.538  39.869  14.384
49051W        W17392   2.278  17.790   3.844
49052W        W17393  31.099  32.038  12.527
49053W        W17394  39.417  37.385   5.265
49054W        W17395  24.180  38.965   1.909
49055W        W17396   2.832  33.616   3.242
49056W        W17397   7.884   6.759   1.902
49057W        W17398  17.743  28.951  13.029
49058W        W17399  29.124  43.450   1.253
49059W        W17400  38.048  40.891   5.115
49060W        W17401  14.312  10.671   1.723
49061W        W17402  10.755   9.298  14.965
49062W        W17403  44.325  21.093  13.339
49063W        W17404  19.684  20.214  11.092
49064W        W17405  36.381  36.947  14.471
49065W        W17406  23.736  30.575  13.038
49066W        W17407  34.594  35.038   4.230
49067W        W17408  11.787  22.713  13.016
49068W        W17409  24.201  36.981  10.976
49069W        W17410  24.007  11.137  13.962
49070W        W17411   0.855  12.208  12.953
49071W        W17412  40.531  32.439   1.861
49072W        W17413  18.191  44.927   1.389
49073W        W17414  43.882  30.528  13.045
49074W        W17415   8.167  40.476   2.184
49075W        W17416  38.847  28.124  11.603
49076W        W17417  39.465  31.956   1.404
49077W        W17418  29.057  34.401   0.421
49078W        W17419  10.711   5.767  10.417
49079W        W17420  10.729  25.186  14.883
49080W        W17421   3.755  11.257  14.962
49081W        W17422  41.375   6.720   0.406
49082W        W17423   3.293  29.031  14.829
49083W        W17424  26.193  22.723   3.162
49084W        W17425  29.943   7.736  12.422
49085W        W17426  37.548   4.700   2.886
49086W        W17427  30.065  26.982   0.780
49087W        W17428  23.107  18.632   0.340
49088W        W17429  39.441   3.768   2.212
49089W        W17430   2.870  41.421   2.311
49090W        W17431  15.149  32.469   2.899
49091W        W17432  35.931  43.897   1.851
49092W        W17433  12.235  12.818   4.705
49093W        W17434  22.036  34.095   2.273
49094W        W17435  24.696  16.092   9.514
49095W        W17436  36.370  38.964   0.415
49096W        W17437   8.858  40.388   0.736
49097W        W17438  15.205  22.578   1.804
49098W        W17439  33.109  22.998  11.446
49099W        W17440  19.251   1.347  12.864
49100W        W17441  22.504  27.600  10.916
49101W        W17442  22.211  27.615  10.899
49102W        W17443  19.208   4.837  11.035
49103W        W17444  18.189  37.901   2.236
49104W        W17445   7.903   3.447   3.158
49105W        W17446   6.862   1.936  13.923
49106W        W17447  35.392  25.134  11.433
49107W        W17448  22.505  37.364  14.360
49108W        W17449  35.375  25.970  10.959
49109W        W17450   3.886  40.455  13.472
49110W        W17451   5.699   9.878   0.744
49111W        W17452  14.764  43.454  13.062
49112W        W17453   5.340   3.433  14.455
49113W        W17454  22.621  14.155   1.859
49114W        W17455  20.031  44.318  14.969
49115W        W17456  23.238  29.512   2.250
49116W        W17457  14.802  22.577  12.384
49117W        W17458  33.900  20.593   4.288
49118W        W17459  15.677  33.006   2.790
49119W        W17460  28.657  27.136   0.393
49120W        W17461   5.871   3.384   3.169
49121W        W17462   9.248  24.509  12.954
49122W        W17463  13.291  26.962  13.881
49123W        W17464  16.110  26.576   1.246
49124W        W17465  26.064  38.452   0.855
49125W        W17466  23.600  34.563   0.842
49126W        W17467  38.973  17.702  12.880
49127W        W17468  42.992  21.135  14.473
49128W        W17469  43.830  33.392   3.669
49129W        W17470  15.811  37.943  10.893
49130W        W17471  40.332  18.094   2.358
49131W        W17472   1.766  21.750   3.679
49132W        W17473  25.102  43.427   2.694
49133W        W17474  24.990  26.651   1.215
49134W        W17475  11.359  43.859   0.334
49135W        W17476   7.171  30.563   3.669
49136W        W17477  31.970   2.328   4.641
49137W        W17478  34.553  25.042  14.903
49138W        W17479   0.313  12.717   0.738
49139W        W17480   8.239  27.638   4.280
49140W        W17481  37.581   3.809  14.855
49141W        W17482  17.075  37.068  14.995
49142W        W17483  33.590  19.160  12.467
49143W        W17484   0.854  24.006  11.878
49144W        W17485  27.449  19.265   2.783
49145W        W17486  36.980  22.507   3.743
49146W        W17487  40.325  43.426  12.996
49147W        W17488  12.755   6.813   3.783
49148W        W17489  12.271  22.213  10.906
49149W        W17490  29.444  10.149  11.378
49150W        W17491  17.134  36.911   1.252
49151W        W17492  10.702  12.148  11.010
49152W        W17493  37.851  13.161   1.254
49153W        W17494  37.503  38.968  12.864
49154W        W17495  27.186  39.370  11.909
49155W        W17496  33.408   5.215  13.807
49156W        W17497  17.613  42.456   0.881
49157W        W17498  32.025   8.739  10.922
49158W        W17499  34.591   6.329   0.766
49159W        W17500  14.648  12.741  12.885
49160W        W17501  34.062  30.649  10.445
49161W        W17502   5.344  33.551   1.739
49162W        W17503  30.501  18.246  11.932
49163W        W17504  24.218   3.444  14.381
49164W        W17505   2.411  26.633  14.818
49165W        W17506  23.676  23.995  14.991
49166W        W17507  32.129  18.742  12.373
49167W        W17508  35.474   7.671   3.654
49168W        W17509  16.117  18.599   1.733
49169W        W17510  14.782   3.247  10.553
49170W        W17511  44.419   2.888  14.422
49171W        W17512  13.233  25.089  11.070
49172W        W17513  32.053  14.760  14.495
49173W        W17514  27.959  43.837   0.437
49174W        W17515  41.852  27.063  13.055
49175W        W17516  22.697   9.287  11.403
49176W        W17517  16.312  12.338  11.037
49177W        W17518  28.047   6.821   5.262
49178W        W17519  27.524  25.602   4.649
49179W        W17520   2.396  17.660   4.221
49180W        W17521   7.289  25.544  10.644
49181W        W17522  12.644  41.477   1.728
49182W        W17523  29.937  10.272  12.381
49183W        W17524  38.001  34.519   3.212
49184W        W17525   3.458  10.815  12.375
49185W        W17526  14.617  29.508  14.849
49186W        W17527  41.035   5.930   1.446
49187W        W17528  27.038   3.287  11.012
49188W        W17529  20.553  13.788   1.303
49189W        W17530  39.000   7.766   0.419
49190W        W17531   4.916  39.000   2.679
49191W        W17532   6.866  29.985  14.913
49192W        W17533  23.691  21.240   3.765
49193W        W17534  33.083  15.695   2.875
49194W        W17535   9.230  29.424   2.777
49195W        W17536  19.131   6.330   2.317
49196W        W17537  14.645  21.656   0.387
49197W        W17538  44.484  13.826  10.634
49198W        W17539  23.061  25.514   4.133
49199W        W17540  40.990  13.695   4.822
49200W        W17541   9.654  16.574  13.916
49201W        W17542  13.266   7.813   5.208
49202W        W17543  42.904  13.721  11.039
49203W        W17544  32.459  33.563   4.193
49204W        W17545  24.647  14.261   3.679
49205W        W17546  15.248  24.976  10.496
49206W        W17547  33.022   5.298  11.967
49207W        W17548  24.610  10.138  12.831
49208W        W17549   2.381  27.155  10.570
49209W        W17550  35.101  44.505   5.091
49210W        W17551   8.286  40.980  12.934
49211W        W17552  12.637   0.420   3.339
49212W        W17553   6.288  30.141   1.338
49213W        W17554  12.828  37.906   2.395
49214W        W17555  11.183  39.441   3.148
49215W        W17556  11.767  33.383   3.257
49216W        W17557  34.983  24.987   5.317
49217W        W17558  34.548  37.026  14.937
49218W        W17559  32.523  13.110   2.725
49219W        W17560  39.525   0.965   0.353
49220W        W17561  10.270  29.512  14.027
49221W        W17562  43.493  21.245   2.848
49222W        W17563   3.801  41.984  13.057
49223W        W17564  19.753  41.387   4.685
49224W        W17565  41.458  44.404   1.812
49225W        W17566   2.749   8.168  12.564
49226W        W17567  10.315  39.330   3.211
49227W        W17568   8.830  28.454   2.814
49228W        W17569   2.962  37.434  10.456
49229W        W17570   6.292  37.493  12.466
49230W        W17571  12.681  33.535  14.802
49231W        W17572   9.683  41.840  12.953
49232W        W17573  31.081  15.210   4.158
49233W        W17574  22.640   2.876  11.467
49234W        W17575  19.044  21.142   1.284
49235W        W17576  31.027  12.731  11.938
49236W        W17577  18.086  27.184  13.982
49237W        W17578  35.898  35.394   2.219
49238W        W17579   7.876  42.949  14.992
49239W        W17580   5.744  38.938   0.482
49240W        W17581  13.601   1.932  14.880
49241W        W17582  10.371  26.186  10.072
49242W        W17583  37.342   1.977  12.833
49243W        W17584  40.387   8.341   2.405
49244W        W17585  12.611  32.067  13.962
49245W        W17586   6.858  25.182   1.346
49246W        W17587  41.343  32.989   1.697
49247W        W17588   6.397  41.526  13.020
49248W        W17589  18.285  31.437   4.124
49249W        W17590  13.235  42.878  14.871
49250W        W17591   6.814   6.694   1.282
49251W        W17592  19.221  33.121  13.899
49252W        W17593  20.101  24.678  14.381
49253W        W17594  14.595  18.757  14.853
49254W        W17595  26.069  13.720  12.413
49255W        W17596   8.671  40.434  11.440
49256W        W17597  40.981   6.817   4.119
49257W        W17598  39.055  36.870  13.354
49258W        W17599  12.332  42.359   4.161
49259W        W17600  13.158  41.449   3.866
49260W        W17601  43.901  41.521  14.832
49261W        W17602  15.242  27.593   4.694
49262W        W17603  43.938  13.333  10.637
49263W        W17604  29.596  17.091   4.619
49264W        W17605  38.001  10.381   1.787
49265W        W17606   5.378  19.097   1.344
49266W        W17607   9.190  24.045   1.399
49267W        W17608  29.544  43.441  10.559
49268W        W17609   3.923  38.569  13.020
49269W        W17610  30.556  13.817   4.281
49270W        W17611  12.116   7.861   4.785
49271W        W17612   8.777  25.603   4.630
49272W        W17613  39.905  37.893  12.085
49273W        W17614  16.141  15.630   2.830
49274W        W17615  35.973  30.948  10.511
49275W        W17616  40.954  30.976   3.256
49276W        W17617   7.753  43.925   4.833
49277W        W17618  30.644  37.424  10.567
49278W        W17619   9.393  27.494  11.435
49279W        W17620  42.986  41.405   0.959
49280W        W17621  31.030  36.961  10.590
49281W        W17622   7.245  12.180   2.303
49282W        W17623  13.199  27.520   4.812
49283W        W17624  14.666   1.253  14.963
49284W        W17625   4.429  36.964  14.968
49285W        W17626  31.070  12.708   4.669
49286W        W17627  14.711  34.916  12.564
49287W        W17628   9.705  17.771   2.892
49288W        W17629  17.180  39.338  14.449
49289W        W17630   8.259  20.714  13.534
49290W        W17631  33.394  30.474  14.457
49291W        W17632  36.939   8.691   0.320
49292W        W17633   3.253  34.599  12.933
49293W        W17634  29.132  11.241   0.293
49294W        W17635  28.143  30.117  14.787
49295W        W17636  28.138  10.737   0.353
49296W        W17637  38.512  35.515   3.150
49297W        W17638  44.857  10.186  12.060
49298W        W17639  15.577  26.534   0.357
49299W        W17640  37.967  16.654   3.250
49300W        W17641  27.999  32.920   2.260
49301W        W17642   8.310   3.877   0.828
49302W        W17643   2.271   5.903   1.802
49303W        W17644  38.521  23.566  14.811
49304W        W17645  14.662  16.313   3.790
49305W        W17646  44.264  16.073  11.421
49306W        W17647  36.070  15.641  13.998
49307W        W17648   0.852  30.507   0.758
49308W        W17649   7.778  26.968  10.926
49309W        W17650  36.885  11.173   1.332
49310W        W17651  26.990  43.402  14.280
49311W        W17652  14.687  17.769  13.504
49312W        W17653  11.665  17.620  12.363
49313W        W17654   2.274   9.347  12.441
49314W        W17655  42.878   2.416  10.521
49315W        W17656  31.984  14.284   0.300
49316W        W17657  31.048  29.493   4.244
49317W        W17658  15.207  33.408   2.304
49318W        W17659  20.125  40.341   0.916
49319W        W17660   1.278  43.923  14.482
49320W        W17661  13.706  12.269   4.133
49321W        W17662   3.232  28.083  13.034
49322W        W17663   2.444  23.625  14.389
49323W        W17664  41.325  34.494   2.858
49324W        W17665  41.010  34.415   1.230
49325W        W17666   3.426  24.589  10.472
49326W        W17667   4.227  20.037   4.122
49327W        W17668  44.356  35.053   3.386
49328W        W17669  29.455  13.845  12.071
49329W        W17670  36.409  44.969   3.740
49330W        W17671  13.716  44.773   0.803
49331W        W17672  17.204  42.987  14.893
49332W        W17673   7.829   1.420   3.798
49333W        W17674   9.295   6.871   4.755
49334W        W17675  28.471   7.379   0.729
49335W        W17676   2.775  31.115  12.848
49336W        W17677  40.330  42.999   9.617
49337W        W17678  17.769  32.041  14.032
49338W        W17679  37.009   9.829  10.480
49339W        W17680  32.951   1.768   0.308
49340W        W17681  12.263  38.823  14.364
49341W        W17682  41.322  14.659   0.392
49342W        W17683   7.747  18.280   2.808
49343W        W17684  36.550  16.306   2.844
49344W        W17685  44.754  42.482   3.312
49345W        W17686   9.376  29.512   0.265
49346W        W17687  28.977   7.724   4.202
49347W        W17688  34.475   9.379   3.366
49348W        W17689  19.633  44.388  11.036
49349W        W17690   5.779   1.762  10.588
49350W        W17691  44.847  39.872  14.391
49351W        W17692  27.055  12.257   0.288
49352W        W17693  21.173  42.828   2.280
49353W        W17694  27.492  13.826  14.395
49354W        W17695   1.845  27.570  11.978
49355W        W17696  14.151  30.470  13.929
49356W        W17697  24.679  18.553   2.795
49357W        W17698  24.527   0.467   4.723
49358W        W17699  18.222  24.008  10.531
49359W        W17700  39.360  10.715  14.368
49360W        W17701   7.912  36.855  14.414
49361W        W17702   6.917  39.866  14.335
49362W        W17703  35.379  27.502  11.865
49363W        W17704  40.525  35.898  10.127
49364W        W17705  31.104  13.127   4.263
49365W        W17706  34.589   6.702  13.867
49366W        W17707  10.197  15.698   3.687
49367W        W17708  15.106  31.969   3.756
49368W        W17709  13.338  41.023   2.795
49369W        W17710  25.621  41.471   4.769
49370W        W17711  31.928  42.371   3.870
49371W        W17712  15.186  41.857   0.735
49372W        W17713  24.695  40.983  11.602
49373W        W17714   0.845  23.665  12.365
49374W        W17715  19.255  16.140   0.745
49375W        W17716  17.766   8.209  13.526
49376W        W17717  14.666  44.495  10.624
49377W        W17718   1.916  16.109   2.764
49378W        W17719  40.532  31.426  12.917
49379W        W17720  15.150   2.264   2.407
49380W        W17721  17.161  31.950  12.425
49381W        W17722  19.562  41.833   2.784
49382W        W17723  32.993   7.857   0.859
49383W        W17724  14.595  27.123   4.169
49384W        W17725  20.242  41.027   3.660
49385W        W17726   9.222  28.092   3.353
49386W        W17727  15.224  19.567   4.641
49387W        W17728  39.864  20.555  14.340
49388W        W17729   0.782   0.948  10.127
49389W        W17730   5.267  15.731   1.356
49390W        W17731   0.422  35.025  12.535
49391W        W17732   0.248  20.599   4.243
49392W        W17733  42.786  35.556  11.922
49393W        W17734   4.815  14.681   0.946
49394W        W17735   0.914  41.828  13.313
49395W        W17736  32.968   2.925  13.852
49396W        W17737   1.946   7.316   2.804
49397W        W17738  44.368  26.643   4.153
49398W        W17739  17.302  17.268  12.476
49399W        W17740  20.556   3.221   3.365
49400W        W17741   9.155  33.396   1.321
49401W        W17742   3.760   6.799   3.194
49402W        W17743   5.432  37.551  10.411
49403W        W17744  44.800   8.388   2.893
49404W        W17745   9.650  36.088  13.339
49405W        W17746  35.520   4.348   1.911
49406W        W17747  20.032  12.217   0.762
49407W        W17748   8.708  32.518   3.324
49408W        W17749  38.944  11.248  12.074
49409W        W17750  17.562  17.081  11.472
49410W        W17751  32.475   1.248  12.481
49411W        W17752  28.648  21.637   2.189
49412W        W17753   9.831  44.325  13.411
49413W        W17754   2.775  22.225   2.748
49414W        W17755  25.519  15.698   1.343
49415W        W17756  34.006  11.264   1.920
49416W        W17757   5.753   0.809  10.914
49417W        W17758   8.382  40.308   3.706
49418W        W17759  33.994  23.111  14.821
49419W        W17760   6.831   4.888   4.732
49420W        W17761  21.246  40.965  13.362
49421W        W17762  17.587  18.566  11.020
49422W        W17763  13.607  42.449   3.699
49423W        W17764  25.473  19.684  12.373
49424W        W17765  30.044   4.292   2.893
49425W        W17766   3.371  21.027   2.715
49426W        W17767  28.568  36.436   2.232
49427W        W17768   2.428  13.789   3.274
49428W        W17769  34.037  36.470  14.334
49429W        W17770  38.824  28.980   2.215
49430W        W17771  16.616  16.703  11.035
49431W        W17772  10.318  35.409  13.350
49432W        W17773  34.587   6.297  13.982
49433W        W17774  31.018  39.513  14.995
49434W        W17775  29.460  10.316  12.476
49435W        W17776  39.873  42.867   3.718
49436W        W17777   4.898  26.020  14.462
49437W        W17778   7.365   7.703   1.799
49438W        W17779  34.434  13.313  11.031
49439W        W17780  11.280   2.762   3.360
49440W        W17781  37.923  36.353   3.718
49441W        W17782  31.907  35.952  11.862
49442W        W17783  31.052  36.988   4.769
49443W        W17784   8.834  16.083  14.865
49444W        W17785  43.936  21.142   2.414
49445W        W17786  13.253  24.114  12.362
49446W        W17787  20.053   1.870   4.612
49447W        W17788  41.992  14.142  11.021
49448W        W17789   6.740  13.788   4.800
49449W        W17790  28.452   8.355  14.020
49450W        W17791  19.544  25.664  12.088
49451W        W17792  24.605   9.296   0.368
49452W        W17793  10.166  29.425  10.439
49453W        W17794  28.098   2.807  12.004
49454W        W17795  29.599  34.582   4.721
49455W        W17796  27.686   8.797   3.326
49456W        W17797   0.472  31.131  11.954
49457W        W17798  43.862  24.031   0.791
49458W        W17799  38.457  26.981  10.579
49459W        W17800  36.438   2.402   2.863
49460W        W17801   9.785  41.527   4.305
49461W        W17802  22.193  44.376   3.378
49462W        W17803  14.664  28.003   1.878
49463W        W17804  22.040   3.881   4.181
49464W        W17805   1.799  24.708   0.744
49465W        W17806  38.073  18.596  10.057
49466W        W17807  23.512   7.261  10.538
49467W        W17808   1.790  44.776  11.117
49468W        W17809  42.835   4.863   0.858
49469W        W17810   3.281  44.779  12.033
49470W        W17811   5.304  33.492  12.533
49471W        W17812  10.333  42.483  12.380
49472W        W17813  42.969  44.262   1.907
49473W        W17814   3.448  25.697  14.821
49474W        W17815  25.019  36.899   1.264
49475W        W17816  31.638  35.045   0.785
49476W        W17817  11.851  31.457  12.479
49477W        W17818  27.585  21.619  10.463
49478W        W17819  40.450  32.593  12.345
49479W        W17820  22.688  32.125   3.755
49480W        W17821   6.266  18.729   3.825
49481W        W17822  36.020   6.220  11.393
49482W        W17823  38.368  15.231  14.993
49483W        W17824  12.826  34.978   1.403
49484W        W17825  31.005  32.622  14.972
49485W        W17826  10.856  22.154   1.866
49486W        W17827  33.427  33.427  12.381
49487W        W17828  31.931   4.236   5.099
49488W        W17829  41.306  28.130   1.254
49489W        W17830  36.848  10.367  14.832
49490W        W17831  25.553  11.740   3.263
49491W        W17832   0.950  43.387   4.653
49492W        W17833  11.361  10.174  10.889
49493W        W17834  27.068  33.886   1.268
49494W        W17835  24.157  19.111  12.969
49495W        W17836   0.848   0.300  13.987
49496W        W17837  11.811  22.673  11.012
49497W        W17838  37.005  32.040  10.999
49498W        W17839  38.466  27.599  10.564
49499W        W17840  44.966   2.946  14.385
49500W        W17841  38.567  12.129  12.379
49501W        W17842  12.347  12.802   9.935
49502W        W17843   0.426  22.689   2.191
49503W        W17844   2.429  18.678  14.855
49504W        W17845  38.922  23.209   4.600
49505W        W17846  24.674  35.913  14.320
49506W        W17847  33.924  23.543  10.476
49507W        W17848  25.517  37.922   3.815
49508W        W17849  14.185  12.836   1.234
49509W        W17850   5.912  40.461  11.017
49510W        W17851  30.623  34.527  14.281
49511W        W17852  42.789  38.353  12.474
49512W        W17853  34.573   6.852   1.385
49513W        W17854  23.151  11.243   1.900
49514W        W17855  35.852  27.449  13.372
49515W        W17856   8.703  37.398  12.898
49516W        W17857  29.495  21.630  13.003
49517W        W17858  29.442   6.704  13.528
49518W        W17859   6.306  33.997   1.924
49519W        W17860  29.029  26.570  10.431
49520W        W17861  11.734  32.091  11.508
49521W        W17862  38.346   4.219   2.779
49522W        W17863  14.214  10.821  11.963
49523W        W17864  32.023  40.547   1.769
49524W        W17865  40.992  18.249  12.472
49525W        W17866   1.739  27.606   2.199
49526W        W17867   5.345  10.179  13.819
49527W        W17868   5.418   2.294  14.917
49528W        W17869  10.207   6.424   4.695
49529W        W17870  10.273  28.624   1.284
49530W        W17871  11.180   8.725  13.029
49531W        W17872  16.644  42.893  11.086
49532W        W17873   2.253  22.516   3.185
49533W        W17874  33.983  13.656   2.364
49534W        W17875  40.352  12.751   3.296
49535W        W17876  30.618  10.704   2.710
49536W        W17877  43.438  42.526   0.481
49537W        W17878  20.146  37.434  10.902
49538W        W17879   7.329  36.048  13.974
49539W        W17880  39.827  37.909   0.912
49540W        W17881  26.516  18.568  13.489
49541W        W17882  37.846  21.709  14.306
49542W        W17883   8.406   4.788  11.388
49543W        W17884   8.360  10.226   4.139
49544W        W17885  28.982  32.059  11.497
49545W        W17886  21.219  11.640  13.974
49546W        W17887  38.439   3.762   4.211
49547W        W17888  10.162  36.426   3.644
49548W        W17889  19.644   6.404  12.935
49549W        W17890  11.148  39.520  11.516
49550W        W17891   5.395  17.660   0.426
49551W        W17892  33.877  23.190  11.408
49552W        W17893  32.016  10.230   2.348
49553W        W17894   9.864  24.113  13.955
49554W        W17895  30.555  11.208  13.854
49555W        W17896  38.432  25.076  14.903
49556W        W17897  16.211  22.058  12.844
49557W        W17898  14.180  11.720   2.419
49558W        W17899   7.365  24.719  12.079
49559W        W17900  38.517  27.115   3.270
49560W        W17901  26.543   2.366   0.859
49561W        W17902  24.686  27.484   4.698
49562W        W17903  31.026  29.437  10.418
49563W        W17904  17.175  33.045   2.757
49564W        W17905   5.324  14.770  12.978
49565W        W17906  34.012  19.751   1.427
49566W        W17907  18.778  37.986  10.636
49567W        W17908   7.734  17.087   3.810
49568W        W17909  35.508  34.117   4.184
49569W        W17910  27.946  40.428  13.519
49570W        W17911   0.785  22.175  12.858
49571W        W17912  17.149  12.690   5.287
49572W        W17913  32.075   8.191   2.417
49573W        W17914  35.554   4.751   4.277
49574W        W17915  34.027   5.375  11.519
49575W        W17916  35.000   3.318   2.227
49576W        W17917  14.141   4.207   0.966
49577W        W17918  33.918   9.777   1.789
49578W        W17919  19.700  37.461   4.728
49579W        W17920  17.203  23.003   3.736
49580W        W17921  18.621  19.765   5.155
49581W        W17922  39.443  38.350  14.322
49582W        W17923   7.718   6.410   4.741
49583W        W17924   8.394  24.625   3.737
49584W        W17925  25.102  34.597  11.492
49585W        W17926   9.696  17.169   0.868
49586W        W17927  38.518   7.355  14.823
49587W        W17928  24.044  44.376  10.059
49588W        W17929  26.159   6.765   3.692
49589W        W17930   9.752   7.792   3.863
49590W        W17931   2.790  17.603  14.850
49591W        W17932  32.973   7.876   4.267
49592W        W17933   7.874  24.111  14.314
49593W        W17934  25.077  14.685   3.327
49594W        W17935  16.288  35.547   0.738
49595W        W17936  16.706  40.504  12.959
49596W        W17937  17.741  34.960  13.944
49597W        W17938  12.724  26.180  11.994
49598W        W17939  18.767  22.599  14.924
49599W        W17940  40.547   7.729  11.383
49600W        W17941   3.798  18.577  10.035
49601W        W17942  33.931  22.596  13.916
49602W        W17943  25.198  42.286  11.486
49603W        W17944   6.864  27.038  12.020
49604W        W17945  43.393  19.197   1.784
49605W        W17946  28.057  27.538   1.271
49606W        W17947  38.330  13.796  11.880
49607W        W17948  14.201  11.256   0.769
49608W        W17949  44.409  34.582  11.574
49609W        W17950  18.644  31.100  12.943
49610W        W17951  36.953  22.739  10.549
49611W        W17952   3.314  34.554   0.891
49612W        W17953  36.867   4.381   4.264
49613W        W17954  21.604   5.410  12.071
49614W        W17955  12.323  22.193  13.436
49615W        W17956  42.477  17.160   3.667
49616W        W17957  30.023  17.092  11.558
49617W        W17958  36.444  43.397   4.668
49618W        W17959  18.730   1.461  10.501
49619W        W17960  35.040   4.442  13.545
49620W        W17961  18.785  23.564  11.094
49621W        W17962  29.940   4.241  13.921
49622W        W17963  32.479  22.140   4.729
49623W        W17964   1.932   1.417  12.885
49624W        W17965  35.517  40.507   4.256
49625W        W17966  30.605  40.452   4.786
49626W        W17967  28.961  35.425  13.820
49627W        W17968  42.833  22.633  13.530
49628W        W17969  18.246  44.298  10.504
49629W        W17970   2.805  30.079  12.411
49630W        W17971  13.667  16.171   1.820
49631W        W17972  44.899  32.612   4.262
49632W        W17973  44.486  13.257   1.716
49633W        W17974  32.440  22.714  11.097
49634W        W17975  17.067  31.075  10.440
49635W        W17976  28.577  24.643   2.679
49636W        W17977  23.998  35.541   0.480
49637W        W17978   2.742  43.413  13.321
49638W        W17979  41.327   6.207  12.451
49639W        W17980  24.690   1.858  11.418
49640W        W17981  20.216  31.501   2.182
49641W        W17982  10.363   2.316   3.633
49642W        W17983  25.117  33.907   1.344
49643W        W17984  23.647  34.449   4.693
49644W        W17985  36.499  24.632  13.019
49645W        W17986  13.182  24.223   2.766
49646W        W17987   0.861   9.660   0.410
49647W        W17988  10.199  11.341  14.297
49648W        W17989  43.429  38.946  13.447
49649W        W17990   9.281  27.652   2.788
49650W        W17991  36.069   2.369   3.290
49651W        W17992   0.420  10.837  14.344
49652W        W17993  44.865   6.426   1.358
49653W        W17994  19.677  12.712   1.348
49654W        W17995  43.365   6.814  12.907
49655W        W17996   1.326  43.933  13.847
49656W        W17997  28.582   3.818   4.316
49657W        W17998  31.503  34.091  10.928
49658W        W17999  17.201  26.163   4.289
49659W        W18000  40.887  16.294  11.100
49660W        W18001  21.026  27.645   1.219
49661W        W18002  11.271   1.459  13.534
49662W        W18003  13.842  41.929  13.948
49663W        W18004  16.623   4.932   3.734
49664W        W18005   2.448  43.913   3.734
49665W        W18006  19.111  10.715  10.919
49666W        W18007   1.788  32.944  14.361
49667W        W18008  26.178  13.163  14.361
49668W        W18009  20.726  34.928  12.472
49669W        W18010  41.010  41.008  14.864
49670W        W18011  21.632  12.127  10.920
49671W        W18012  26.512  32.636   0.314
49672W        W18013  22.140  30.471   2.839
49673W        W18014  27.166   4.215  13.959
49674W        W18015   6.337  42.834  10.053
49675W        W18016   8.357  37.052   4.159
49676W        W18017  15.793   9.361  14.875
49677W        W18018  36.060   6.732  14.377
49678W        W18019  23.516  43.779  12.387
49679W        W18020   5.817  26.122  13.037
49680W        W18021  30.547   9.284  12.081
49681W        W18022  35.582   8.201  11.509
49682W        W18023  29.605  15.097   1.248
49683W        W18024  30.557  44.955  14.344
49684W        W18025  18.141   7.251  14.021
49685W        W18026  36.980   6.203  13.445
49686W        W18027  27.091   3.290   1.794
49687W        W18028  43.843  13.786  10.464
49688W        W18029  40.973  19.603   2.855
49689W        W18030   6.823  11.861   0.841
49690W        W18031  25.123   6.783   0.863
49691W        W18032  24.196  42.817   4.793
49692W        W18033  38.460  10.832   4.698
49693W        W18034   7.796   4.339   1.865
49694W        W18035   2.930  11.625   4.130
49695W        W18036  35.019  35.370   2.374
49696W        W18037   4.877   2.722   0.333
49697W        W18038  17.103  24.140  13.339
49698W        W18039   9.220  34.397  13.464
49699W        W18040  23.524  28.108  11.536
49700W        W18041   8.841  36.958   1.438
49701W        W18042  33.122  33.084   1.824
49702W        W18043  38.039   1.321   0.366
49703W        W18044  34.925   8.837   2.245
49704W        W18045  27.180  29.058   5.165
49705W        W18046   8.262  10.311   3.158
49706W        W18047   7.788   2.438   3.748
49707W        W18048  33.570  23.237  13.327
49708W        W18049  34.982  39.949   5.282
49709W        W18050   0.375  15.586   0.834
49710W        W18051  28.007  11.690  13.915
49711W        W18052   2.469  13.254  11.903
49712W        W18053  37.365  20.684   3.188
49713W        W18054   7.338  15.264   0.397
49714W        W18055  10.856  10.297   0.394
49715W        W18056  41.377  31.056   1.806
49716W        W18057  12.253  24.620   1.319
49717W        W18058  32.029   0.382  14.803
49718W        W18059  17.111   3.849   0.861
49719W        W18060  43.483  32.559  12.079
49720W        W18061  34.021   2.234  10.943
49721W        W18062   2.313  34.052   3.839
49722W        W18063  40.972  34.928  12.091
49723W        W18064   5.321  44.395  13.921
49724W        W18065  10.820  42.383   1.798
49725W        W18066  40.316  30.929  13.032
49726W        W18067  26.600  22.210   2.790
49727W        W18068  11.361  17.685  14.003
49728W        W18069  42.996   7.701  12.881
49729W        W18070  30.461  36.982  13.364
49730W        W18071  36.391  27.173  12.860
49731W        W18072  24.518  35.858   2.830
49732W        W18073  40.897  19.219   2.837
49733W        W18074   1.737  24.210   5.140
49734W        W18075  20.094   6.756  11.391
49735W        W18076  15.163  37.569  10.422
49736W        W18077  34.883  23.581  13.932
49737W        W18078   3.949  39.045   4.622
49738W        W18079  19.066   3.928   4.819
49739W        W18080  12.257   1.349  13.533
49740W        W18081  16.664  31.043   0.953
49741W        W18082   4.780   0.959   0.295
49742W        W18083  25.034  42.775  14.417
49743W        W18084   7.211  19.134  12.355
49744W        W18085  11.178  42.014  14.787
49745W        W18086   8.727  21.247  11.859
49746W        W18087  14.315  26.035   2.664
49747W        W18088  17.671  20.246  11.023
49748W        W18089   9.350  44.400   4.654
49749W        W18090  16.177  44.949  11.529
49750W        W18091   4.782  15.092  12.932
49751W        W18092  25.135  43.446  13.930
49752W        W18093  39.364  38.904  11.008
49753W        W18094  19.613  29.953  12.390
49754W        W18095  41.971  18.229   3.830
49755W        W18096  42.373   8.290   1.868
49756W        W18097  37.345  12.629  14.981
49757W        W18098  19.085  35.890  14.393
49758W        W18099  34.946  40.883   4.704
49759W        W18100  36.426  11.834   0.355
49760W        W18101   8.716  25.498   5.249
49761W        W18102  27.629   4.819  13.899
49762W        W18103   2.357  26.021   2.684
49763W        W18104  15.709  16.606   2.864
49764W        W18105   0.452  28.101   2.327
49765W        W18106  44.811  29.941   3.641
49766W        W18107  12.612  30.054  14.460
49767W        W18108   6.239  38.497   1.387
49768W        W18109  23.060  34.539  14.885
49769W        W18110  15.191   2.385   0.411
49770W        W18111   0.778  17.663  13.534
49771W        W18112  36.957   6.860   3.289
49772W        W18113  35.020  37.035   4.678
49773W        W18114  29.591  31.462   0.425
49774W        W18115   4.312  27.555  13.876
49775W        W18116  29.100   7.257  12.570
49776W        W18117  30.992  31.072   1.297
49777W        W18118  24.585  30.642  13.352
49778W        W18119  42.788  23.548   4.651
49779W        W18120   0.781   7.355  12.458
49780W        W18121  37.516  31.442   2.743
49781W        W18122  11.760  41.837   1.318
49782W        W18123   8.773  31.494  13.470
49783W        W18124  11.850  42.408  14.363
49784W        W18125  33.449   2.931   1.824
49785W        W18126  30.469  19.683   2.689
49786W        W18127  33.978  33.131   1.765
49787W        W18128  17.779  15.140  14.478
49788W        W18129   2.934  31.576   4.251
49789W        W18130  17.610  25.586  14.995
49790W        W18131  43.329  13.220   3.684
49791W        W18132  30.142  26.622   2.209
49792W        W18133  43.424  11.830   3.858
49793W        W18134   3.744  27.589  12.477
49794W        W18135   8.340  29.031  14.830
49795W        W18136  29.482  14.808   3.785
49796W        W18137  36.444   5.254   2.298
49797W        W18138  33.560   3.343   5.245
49798W        W18139  20.257   1.741  11.932
49799W        W18140  15.721   3.744  12.984
49800W        W18141  40.879  18.708   0.255
49801W        W18142  29.542  39.852  14.382
49802W        W18143  25.486  43.942   0.345
49803W        W18144   5.437   3.841  10.462
49804W        W18145  40.500  38.067   1.850
49805W        W18146  23.050  43.868   3.374
49806W        W18147   2.424  10.808  13.900
49807W        W18148   3.855   4.854   1.867
49808W        W18149  24.004   6.398   0.848
49809W        W18150  34.963  18.765  11.433
49810W        W18151  16.779  36.372  11.878
49811W        W18152  29.467  11.207  13.539
49812W        W18153  12.259  17.560   2.414
49813W        W18154  39.821   6.851   4.327
49814W        W18155  10.736  13.277  13.394
49815W        W18156   6.248  20.724   4.192
49816W        W18157  21.018  33.879   0.454
49817W        W18158   7.184  18.644  13.051
49818W        W18159   3.430  37.430  14.023
49819W        W18160  20.630  22.179   2.333
49820W        W18161  29.151   2.836   3.275
49821W        W18162  22.646  41.316  10.900
49822W        W18163  42.304  19.693   2.837
49823W        W18164  20.677  41.948   1.851
49824W        W18165  38.921   8.191  12.991
49825W        W18166   5.349  38.973   2.816
49826W        W18167  35.454  39.920  12.360
49827W        W18168  25.111  44.328  11.603
49828W        W18169  35.564  18.686  10.452
49829W        W18170  40.339  15.732   3.288
49830W        W18171  44.759  19.740  12.891
49831W        W18172  21.213   5.203   1.259
49832W        W18173  38.838  25.506  14.309
49833W        W18174   6.803  30.935  10.514
49834W        W18175   2.428  32.424   4.351
49835W        W18176   0.268  20.636   0.755
49836W        W18177  25.591  25.689  14.380
49837W        W18178  23.147  37.902   3.279
49838W        W18179  27.670  29.037   1.834
49839W        W18180  25.083  25.110   0.317
49840W        W18181  27.174  33.494   0.931
49841W        W18182  35.483  35.907   2.794
49842W        W18183  26.094  40.928   4.786
49843W        W18184  10.243  31.970   1.238
49844W        W18185   5.770  25.051  13.523
49845W        W18186  34.376   3.398   3.148
49846W        W18187   0.744  44.328   9.987
49847W        W18188  19.632  39.431  12.836
49848W        W18189  32.100  15.620  12.960
49849W        W18190  16.598  37.931  14.868
49850W        W18191   4.444   0.982   2.200
49851W        W18192  12.798  12.128   1.270
49852W        W18193  10.783  22.026  12.930
49853W        W18194   9.871  20.051  12.924
49854W        W18195  14.624   4.906  13.448
49855W        W18196  14.764  32.629  12.474
49856W        W18197  22.678  12.176  14.881
49857W        W18198  40.841  12.134  12.980
49858W        W18199  24.676  26.201   1.301
49859W        W18200   9.830  44.814   4.630
49860W        W18201  13.603  26.039   1.271
49861W        W18202  24.642  21.109  13.542
49862W        W18203  32.082  19.612  14.843
49863W        W18204   0.374   7.673   1.364
49864W        W18205   4.229  14.104  13.314
49865W        W18206   2.899  23.700   4.328
49866W        W18207  17.634   1.844   1.695
49867W        W18208  44.850  13.211  14.457
49868W        W18209  38.821  24.126   1.419
49869W        W18210  27.688  28.638   1.351
49870W        W18211  32.565  40.923   3.332
49871W        W18212  33.549  15.629   4.145
49872W        W18213   0.804  18.146  11.436
49873W        W18214   1.890  37.367   4.837
49874W        W18215   8.163  31.031  12.066
49875W        W18216  22.741  31.057  10.084
49876W        W18217  21.612  44.951  11.488
49877W        W18218  36.540  32.450   1.417
49878W        W18219  25.209  30.116  14.470
49879W        W18220  19.285   6.922  14.404
49880W        W18221   5.799   3.864  11.457
49881W        W18222  29.654  32.013   3.639
49882W        W18223  12.308   3.953   3.233
49883W        W18224  15.317  20.085  11.990
49884W        W18225  14.773  33.451   2.272
49885W        W18226  44.957  22.018  14.867
49886W        W18227  24.227   8.284   4.150
49887W        W18228   4.310   9.222  11.090
49888W        W18229   1.871   0.915   4.700
49889W        W18230  28.608  31.067  12.062
49890W        W18231  18.736  17.166  11.440
49891W        W18232  15.109  14.818   1.881
49892W        W18233  32.471  28.656   3.722
49893W        W18234  25.999  35.895   0.849
49894W        W18235  42.527  24.032  11.060
49895W        W18236  37.026  35.986  10.972
49896W        W18237  23.613   7.193   0.294
49897W        W18238   5.336  35.424   0.458
49898W        W18239  30.629  19.155   3.201
49899W        W18240  33.130   6.773   3.736
49900W        W18241  39.869  28.177   2.349
49901W        W18242   5.770  26.597   4.778
49902W        W18243  35.895  42.426  14.464
49903W        W18244  22.729  25.147   1.694
49904W        W18245  12.135  24.056   0.268
49905W        W18246  40.941  31.024   4.339
49906W        W18247  38.513  12.361  13.482
49907W        W18248   2.396  14.589   1.854
49908W        W18249  28.477  22.620  14.884
49909W        W18250  16.634  20.044  13.011
49910W        W18251  20.070  33.083   0.340
49911W        W18252   0.914  18.714   4.637
49912W        W18253  16.678   4.936  10.442
49913W        W18254   8.713  36.363  12.451
49914W        W18255   5.246  33.589  14.389
49915W        W18256  41.471  19.758  13.937
49916W        W18257   7.334  22.639  14.492
49917W        W18258  15.626  41.810  11.600
49918W        W18259   5.840  16.248  10.921
49919W        W18260  17.163  40.854  10.101
49920W        W18261  18.628  43.919  14.911
49921W        W18262   8.385  24.655  12.024
49922W        W18263  13.225  26.149  13.393
49923W        W18264  34.399  24.216   0.293
49924W        W18265  30.014  30.994  13.863
49925W        W18266  30.002  14.314   3.184
49926W        W18267   9.763  36.359  13.902
49927W        W18268  24.661  21.618  12.962
49928W        W18269   7.342  42.851  13.985
49929W        W18270  36.842  16.785   2.756
49930W        W18271  15.277   6.899   1.273
49931W        W18272  41.902  29.076  11.430
49932W        W18273  31.624  35.959  11.070
49933W        W18274   7.832  20.186  11.984
49934W        W18275  18.133  28.529  12.056
49935W        W18276   9.707  33.003  14.929
49936W        W18277  20.046  13.278   0.458
49937W        W18278  37.055   2.793  13.333
49938W        W18279  30.995  24.146   1.919
49939W        W18280  30.531  26.135  13.524
49940W        W18281  25.539  34.421  11.449
49941W        W18282  14.102  38.414  12.552
49942W        W18283  18.602   9.702   3.703
49943W        W18284  18.780  23.726   2.307
49944W        W18285  33.097  30.564  11.885
49945W        W18286  41.794  44.949   0.784
49946W        W18287   0.437  34.515   4.309
49947W        W18288   3.743  30.583  13.908
49948W        W18289   7.197  31.013  12.078
49949W        W18290  13.789   1.439   4.353
49950W        W18291  38.062  40.896  12.480
49951W        W18292  34.874  15.681  11.523
49952W        W18293  18.770  24.605  13.402
49953W        W18294  27.985   3.461  12.059
49954W        W18295  44.271  42.315  14.908
49955W        W18296  20.678   2.272  11.579
49956W        W18297  19.191  21.030  13.883
49957W        W18298  13.317  17.559   4.814
49958W        W18299  24.976  20.707  11.903
49959W        W18300  40.875  42.827  11.528
49960W        W18301  12.248  38.344   0.305
49961W        W18302  22.565  44.354   2.711
49962W        W18303   4.326  31.974  12.067
49963W        W18304  27.128  24.071  10.557
49964W        W18305  25.485  28.619   1.433
49965W        W18306  15.207  43.898  14.376
49966W        W18307  18.296  26.628   2.357
49967W        W18308  27.681  39.832   3.813
49968W        W18309  22.636  14.232   2.851
49969W        W18310  30.444  23.659   3.746
49970W        W18311   5.815  36.898   0.952
49971W        W18312  29.643  19.628   3.864
49972W        W18313  44.394  13.317   3.709
49973W        W18314   1.766  41.961   0.744
49974W        W18315  25.581  27.682  11.872
49975W        W18316  31.043  12.675  10.483
49976W        W18317  28.556   3.945   3.660
49977W        W18318  31.483   2.935  11.935
49978W        W18319  33.501   4.879   2.314
49979W        W18320  41.788  23.707   2.827
49980W        W18321  16.125  19.157  12.895
49981W        W18322  13.225  36.448  13.513
49982W        W18323  28.010  43.404   1.281
49983W        W18324  42.308  24.646  14.380
49984W        W18325   6.295  13.732   1.403
49985W        W18326  34.537  16.137   2.750
49986W        W18327   4.436  19.773   0.428
49987W        W18328  10.259  43.439  13.839
49988W        W18329  13.212   5.404  13.452
49989W        W18330  34.597  37.868   1.363
49990W        W18331   0.918   8.755  12.368
49991W        W18332   2.756  40.462  13.792
49992W        W18333   6.182  39.454  11.494
49993W        W18334  22.039   5.889   4.169
49994W        W18335   9.375   5.429   3.653
49995W        W18336  36.901  22.199  13.907
49996W        W18337  44.344  27.038   0.270
49997W        W18338   5.797   6.893   0.275
49998W        W18339  19.595  30.015   3.744
49999W        W18340  20.556  13.740  12.040
50000W        W18341  14.311  19.683   0.931
50001W        W18342  18.757  21.640  11.564
50002W        W18343   0.921   0.805  13.032
50003W        W18344  44.400  12.795   3.730
50004W        W18345  24.709  38.498   0.866
50005W        W18346  25.471  43.442   1.270
50006W        W18347  38.414  24.011  13.433
50007W        W18348  20.071  20.750   1.361
50008W        W18349  21.024  24.204  11.889
50009W        W18350  26.034  31.010  11.491
50010W        W18351  27.631  12.144  13.986
50011W        W18352  26.557  43.496  10.608
50012W        W18353  41.480  39.857   1.374
50013W        W18354  34.015  40.340  11.034
50014W        W18355  32.959  40.470   2.265
50015W        W18356   8.808  21.729  11.023
50016W        W18357  10.693  25.067  11.581
50017W        W18358  38.075  17.223  12.909
50018W        W18359   1.446   8.328  12.392
50019W        W18360  24.491  36.521   1.312
50020W        W18361   3.239  30.056   2.302
50021W        W18362  39.408  36.441  12.015
50022W        W18363   7.760  25.009   0.454
50023W        W18364   4.805  28.152   1.246
50024W        W18365  35.360   5.743   3.334
50025W        W18366  20.064  11.777  12.464
50026W        W18367  43.852  27.988   0.336
50027W        W18368  20.124  41.812  13.510
50028W        W18369  43.019  24.599   4.780
50029W        W18370  41.798  23.226  13.351
50030W        W18371  32.027  39.053   3.714
50031W        W18372  33.929  40.373  14.514
50032W        W18373  36.889   1.731   1.787
50033W        W18374  40.848  22.136  10.432
50034W        W18375  24.097  41.814  11.451
50035W        W18376   4.372  21.147   5.199
50036W        W18377  15.148  25.153   4.147
50037W        W18378  34.388  22.508  14.010
50038W        W18379   4.829  18.196   4.827
50039W        W18380  10.701  20.076   3.698
50040W        W18381  17.706  35.561   3.336
50041W        W18382  21.521  13.636   3.261
50042W        W18383  29.957  28.574   0.373
50043W        W18384   7.183  27.615   4.205
50044W        W18385  37.508  44.805  11.020
50045W        W18386  36.036   0.760  10.913
50046W        W18387   0.743  24.113   4.808
50047W        W18388  29.949   9.890  11.601
50048W        W18389   6.842   1.762   4.147
50049W        W18390   7.700  39.046  11.613
50050W        W18391   5.764  25.672  14.441
50051W        W18392  36.848  27.143  12.422
50052W        W18393  18.179  33.590   4.686
50053W        W18394  13.637  14.655  10.616
50054W        W18395  37.542  29.440   4.767
50055W        W18396  43.853  18.721   0.767
50056W        W18397   9.258  32.406   1.748
50057W        W18398  42.361  29.110   2.288
50058W        W18399  26.134  28.123   0.879
50059W        W18400  43.901  37.456  14.336
50060W        W18401  15.702   7.312  10.549
50061W        W18402  28.040  30.978   3.329
50062W        W18403   4.740  14.755  11.993
50063W        W18404   5.404  37.461   4.675
50064W        W18405  21.572  30.622   5.122
50065W        W18406   4.876   1.366  12.875
50066W        W18407  13.830  19.273   1.372
50067W        W18408  27.061  12.302  10.568
50068W        W18409  44.419   5.345  13.809
50069W        W18410  18.583  22.071  11.860
50070W        W18411  12.207  30.059  12.404
50071W        W18412  10.866  33.469   1.899
50072W        W18413  41.020  14.767  11.066
50073W        W18414  25.056  28.435  14.892
50074W        W18415   0.753  12.170  13.456
50075W        W18416  19.284  14.745   3.332
50076W        W18417  39.007  42.931  13.514
50077W        W18418  26.515  28.153  12.406
50078W        W18419  13.687   7.372  13.791
50079W        W18420   4.314   0.254  12.451
50080W        W18421  20.271  17.143   1.799
50081W        W18422  24.576   1.317   4.226
50082W        W18423  23.525  11.187  13.401
50083W        W18424  41.918   1.827   3.741
50084W        W18425  41.367  14.164   3.304
50085W        W18426  13.782  20.270  13.320
50086W        W18427   2.284  23.683   1.415
50087W        W18428  18.580  42.790  14.815
50088W        W18429   5.876   6.789   4.672
50089W        W18430   5.795  12.610  13.046
50090W        W18431  28.579  19.059   0.865
50091W        W18432  43.466  22.175   1.883
50092W        W18433  19.054  37.460  12.496
50093W        W18434  44.483   9.297   3.784
50094W        W18435  19.105  36.031  11.998
50095W        W18436  38.040  12.676   4.235
50096W        W18437  33.956  23.032   4.626
50097W        W18438  35.497  13.256   0.320
50098W        W18439  22.571  41.472   2.767
50099W        W18440  34.543   1.445  13.498
50100W        W18441  10.177  42.399  10.490
50101W        W18442  44.389  36.888   1.260
50102W        W18443   2.460   8.249   4.135
50103W        W18444  33.482  29.131  14.009
50104W        W18445  11.248  17.254   0.740
50105W        W18446   2.279  36.559   3.284
50106W        W18447  44.451  36.503  10.495
50107W        W18448  44.369  25.999   1.217
50108W        W18449  10.868  14.779   1.889
50109W        W18450  13.334  34.434  12.862
50110W        W18451  21.058  30.951  11.034
50111W        W18452  30.412   2.871  10.996
50112W        W18453  31.151  26.635   2.792
50113W        W18454  23.661  20.563   0.310
50114W        W18455   3.449  18.151  13.856
50115W        W18456   9.709  11.806   3.767
50116W        W18457  31.416  15.174  12.486
50117W        W18458  23.596  28.522  11.072
50118W        W18459  17.272  32.432   4.760
50119W        W18460  42.963  32.579   2.262
50120W        W18461  17.203   7.262   9.961
50121W        W18462   4.444  25.123  13.817
50122W        W18463  41.525  39.918  12.056
50123W        W18464  34.009  20.251  13.452
50124W        W18465  10.805  39.975  11.959
50125W        W18466  24.584  13.128   1.367
50126W        W18467   6.855   8.698   4.275
50127W        W18468  37.342  34.415   2.315
50128W        W18469  42.864  15.666   0.289
50129W        W18470  40.984   7.696   3.202
50130W        W18471   6.194  26.130  12.495
50131W        W18472   1.441   6.805  14.800
50132W        W18473  21.128  38.523  10.606
50133W        W18474  10.309  18.736   0.336
50134W        W18475  15.292  40.344  12.880
50135W        W18476  19.184  17.797  14.424
50136W        W18477  36.530  41.316   3.163
50137W        W18478  34.879   5.733  12.486
50138W        W18479  36.879   7.746  10.408
50139W        W18480  38.965  37.339  13.463
50140W        W18481  16.300  18.233   0.777
50141W        W18482  39.876   8.388   0.957
50142W        W18483  10.358  38.918   1.435
50143W        W18484   8.744  37.488  11.949
50144W        W18485  28.566  34.581   2.740
50145W        W18486  37.060  33.121  14.781
50146W        W18487   9.741  21.626   2.830
50147W        W18488  16.136  44.955   0.251
50148W        W18489  39.556   8.668  14.800
50149W        W18490  20.639  39.446   0.272
50150W        W18491  42.785  37.897  10.558
50151W        W18492  17.155  29.631   0.836
50152W        W18493   0.873  35.378  10.902
50153W        W18494  13.734   9.328  12.055
50154W        W18495  33.481  33.062  11.407
50155W        W18496  23.153  40.498   0.782
50156W        W18497  33.470   6.833   4.230
50157W        W18498  39.040  19.726   2.403
50158W        W18499  22.120  21.676   3.200
50159W        W18500  42.377  25.520   1.808
50160W        W18501  20.702   8.726  10.986
50161W        W18502  13.736  39.029   0.434
50162W        W18503  38.893  13.154   5.102
50163W        W18504  15.778   2.386   3.734
50164W        W18505  37.975  30.003   1.265
50165W        W18506  13.675  39.895   9.920
50166W        W18507  16.158  35.949   0.828
50167W        W18508  17.273  43.503   4.344
50168W        W18509   9.309  15.695   2.701
50169W        W18510  14.596   0.885  12.403
50170W        W18511  20.273  22.120   2.755
50171W        W18512  26.533  10.309   3.750
50172W        W18513   1.253  13.813  12.565
50173W        W18514  36.382  40.997  14.370
50174W        W18515  24.230  40.419  13.423
50175W        W18516   7.875  28.440   4.771
50176W        W18517   6.372   3.258  13.049
50177W        W18518  20.546  24.064   4.256
50178W        W18519   5.728  11.128  14.432
50179W        W18520  41.443  29.580  11.566
50180W        W18521  35.521  35.948   3.320
50181W        W18522  17.575  24.077   1.327
50182W        W18523   2.810  27.663  10.596
50183W        W18524   7.341  33.512   3.235
50184W        W18525  16.269  38.876  13.907
50185W        W18526  22.241  41.001  10.566
50186W        W18527  16.575  24.643   1.316
50187W        W18528  13.828  16.123   4.803
50188W        W18529   5.347  22.624  10.102
50189W        W18530  19.728   1.368  11.608
50190W        W18531  44.829  21.661   4.291
50191W        W18532   3.319  24.117  11.531
50192W        W18533   5.887  26.510  10.437
50193W        W18534   3.326  39.000  10.521
50194W        W18535  31.034  21.609  12.888
50195W        W18536  41.365  21.567  12.015
50196W        W18537  22.557  29.006  14.445
50197W        W18538  12.646  27.167   4.214
50198W        W18539  18.077  38.493  11.943
50199W        W18540  35.573   8.368   2.878
50200W        W18541  28.996  37.536   4.757
50201W        W18542  32.073  18.185   0.407
50202W        W18543  43.772  16.134   4.321
50203W        W18544  13.743  21.096  10.508
50204W        W18545  44.497  33.983  13.971
50205W        W18546  35.062  38.534   2.189
50206W        W18547   3.354  14.173  10.431
50207W        W18548  16.763  34.983   0.353
50208W        W18549  12.329  17.185   0.960
50209W        W18550  43.974  22.696  11.932
50210W        W18551  34.486  12.663  11.029
50211W        W18552  19.127  27.079  14.917
50212W        W18553   4.241  11.830  11.373
50213W        W18554  37.368   1.839   1.245
50214W        W18555  18.211  28.525   3.829
50215W        W18556  30.957   2.398   0.815
50216W        W18557  22.659  11.751  11.534
50217W        W18558  22.122  15.715   2.784
50218W        W18559   2.337  10.720  12.471
50219W        W18560   8.355   2.917  10.516
50220W        W18561  14.769  10.341  13.945
50221W        W18562  32.437  42.932   2.708
50222W        W18563  26.588   2.442  10.963
50223W        W18564   2.389  44.393  10.466
50224W        W18565  11.146  44.928  13.875
50225W        W18566  12.815  31.576   3.735
50226W        W18567  24.227   5.753  12.379
50227W        W18568   9.370   8.793   5.260
50228W        W18569   9.691  15.254   3.365
50229W        W18570  23.611   0.312  14.935
50230W        W18571   3.347   9.733   3.639
50231W        W18572  27.669  38.525   2.405
50232W        W18573  27.943   0.263   2.350
50233W        W18574  14.254  26.139  14.785
50234W        W18575  19.193  42.333  13.354
50235W        W18576  42.330  41.843   2.824
50236W        W18577   4.772  33.409  11.013
50237W        W18578   9.816  17.065   1.368
50238W        W18579  17.616   0.964  14.818
50239W        W18580  29.590  30.982   3.273
50240W        W18581  12.275  43.516  13.339
50241W        W18582   4.871  33.058   3.808
50242W        W18583  37.384  38.859  14.388
50243W        W18584  23.687   5.924   3.365
50244W        W18585   9.800  28.929   4.176
50245W        W18586  39.932   5.832  11.889
50246W        W18587  21.716   9.199  14.911
50247W        W18588  24.118  20.658   1.411
50248W        W18589  39.030  39.522  13.506
50249W        W18590  32.983  37.888  14.968
50250W        W18591  39.000  16.270   1.256
50251W        W18592   4.929  26.524  13.503
50252W        W18593   4.343  27.988  10.955
50253W        W18594  27.678  35.399  12.858
50254W        W18595  38.495  36.471  14.484
50255W        W18596   1.811  33.940   2.771
50256W        W18597  15.695  37.493  10.426
50257W        W18598  18.090  10.664  14.495
50258W        W18599   3.815   3.897  14.860
50259W        W18600   3.347   0.490  14.934
50260W        W18601  40.333  24.082  11.518
50261W        W18602  18.074  12.760   1.291
50262W        W18603  13.603  34.975  14.895
50263W        W18604  26.015  11.782  10.910
50264W        W18605   2.765   6.335   3.238
50265W        W18606  40.428  19.677  13.480
50266W        W18607  29.167  25.703  14.793
50267W        W18608  10.229   9.820  10.083
50268W        W18609  12.779  31.463   2.375
50269W        W18610   8.767  37.969  12.543
50270W        W18611   6.825  27.105   1.816
50271W        W18612  27.555  15.804   3.708
50272W        W18613   4.359  44.344  10.609
50273W        W18614  17.613  18.670  12.089
50274W        W18615   7.262  35.534   4.279
50275W        W18616  20.674   8.782  14.376
50276W        W18617  28.671  33.420  10.455
50277W        W18618  19.233  36.063  14.782
50278W        W18619  24.190  18.700   3.661
50279W        W18620  33.882  22.141   4.288
50280W        W18621  29.926  39.415  12.072
50281W        W18622  12.340  32.428   0.355
50282W        W18623  14.826  34.056  10.601
50283W        W18624  40.942  13.287   1.924
50284W        W18625  22.112  27.601  12.081
50285W        W18626  22.009  23.214  11.882
50286W        W18627  40.323  24.991   3.676
50287W        W18628   0.394  21.756  13.534
50288W        W18629  12.361  19.573  11.518
50289W        W18630  25.509  14.189  11.374
50290W        W18631   8.344   3.896   3.383
50291W        W18632  27.489  34.399  14.286
50292W        W18633  23.044  44.864   4.626
50293W        W18634  43.020  33.097   3.804
50294W        W18635   3.910  40.417   0.947
50295W        W18636  39.519  25.017  11.373
50296W        W18637  35.074  30.630  14.937
50297W        W18638  40.494  28.496   0.371
50298W        W18639  23.113  44.906   2.240
50299W        W18640  20.754  16.569  11.920
50300W        W18641  36.573  18.095   0.822
50301W        W18642  23.707  34.982  14.871
50302W        W18643  19.259  42.899   2.671
50303W        W18644  19.234  23.200  11.033
50304W        W18645   0.840  24.216   2.812
50305W        W18646  41.800   4.878  14.888
50306W        W18647   3.778   7.817   0.812
50307W        W18648  35.453  27.149   0.362
50308W        W18649  23.216  38.936  11.040
50309W        W18650  34.994  41.977  13.544
50310W        W18651  34.590  36.044   4.654
50311W        W18652  37.416  13.317  13.490
50312W        W18653   1.274  32.531   3.355
50313W        W18654   4.433  22.674  11.532
50314W        W18655  41.468  19.136   3.751
50315W        W18656  23.662  11.255   2.265
50316W        W18657  11.777   1.411  12.387
50317W        W18658   3.731  17.599  10.539
50318W        W18659  26.103  14.266  13.480
50319W        W18660  34.492  15.674   3.354
50320W        W18661  26.076   8.727   2.779
50321W        W18662  37.557  10.357  11.506
50322W        W18663   1.734  21.707   0.815
50323W        W18664  34.537   9.368   2.695
50324W        W18665  18.288  34.377  13.420
50325W        W18666  19.691  42.464  10.528
50326W        W18667  40.855  30.956  14.898
50327W        W18668   1.268  13.718   4.771
50328W        W18669  20.671  12.740  12.880
50329W        W18670   8.233  27.624   2.299
50330W        W18671  38.381  30.980   3.661
50331W        W18672  40.415   0.857   3.869
50332W        W18673   9.685  34.974  14.020
50333W        W18674  34.543  44.990  10.471
50334W        W18675  11.161  28.454   1.698
50335W        W18676  44.828  24.119   3.660
50336W        W18677   9.755   8.662  14.867
50337W        W18678  28.572   6.187   2.322
50338W        W18679  22.627  33.517  12.869
50339W        W18680  37.553  12.213   0.879
50340W        W18681  11.324  32.550   0.862
50341W        W18682  23.652  11.782  11.430
50342W        W18683  13.334  23.096   1.698
50343W        W18684  13.765  12.303  14.351
50344W        W18685  12.194  31.577   0.821
50345W        W18686  15.279   4.738  12.839
50346W        W18687   1.747   5.349  14.763
50347W        W18688  18.077   8.187   1.748
50348W        W18689  16.806   2.387   1.348
50349W        W18690  31.010  28.655   0.795
50350W        W18691  32.070  13.235  11.568
50351W        W18692   0.290  34.053  11.571
50352W        W18693  24.626  26.500   1.696
50353W        W18694  31.117  28.658  12.924
50354W        W18695  28.661  41.813   0.864
50355W        W18696   6.714  30.067  13.914
50356W        W18697  43.397  17.079  11.055
50357W        W18698  32.508  36.997  14.493
50358W        W18699  34.441  43.413   0.416
50359W        W18700  17.115  12.211  11.598
50360W        W18701  21.202  39.524  13.025
50361W        W18702  34.506   7.883  11.539
50362W        W18703   1.465  18.647   4.167
50363W        W18704  29.634  17.164  12.544
50364W        W18705  39.954  11.288  11.086
50365W        W18706  34.494  34.908   2.302
50366W        W18707   2.912  22.557  10.540
50367W        W18708  10.160   3.224  11.869
50368W        W18709  11.302  24.633  10.417
50369W        W18710  30.427  19.252   0.413
50370W        W18711   5.772   3.892  13.847
50371W        W18712   0.985  34.515  12.523
50372W        W18713  42.865   4.711  12.826
50373W        W18714  27.083  27.187  11.040
50374W        W18715  17.603  39.352   0.334
50375W        W18716  24.033  14.173   5.287
50376W        W18717  30.615  14.164   4.708
50377W        W18718  28.601  25.515  12.068
50378W        W18719  33.924  26.657  13.957
50379W        W18720  12.648  15.599  12.357
50380W        W18721  10.849  41.535  14.842
50381W        W18722   5.254  38.470  12.890
50382W        W18723  29.109  10.225  14.926
50383W        W18724  19.742  20.522   2.243
50384W        W18725  27.024  17.080  14.438
50385W        W18726  36.915  15.279   2.410
50386W        W18727  34.597  43.006  12.564
50387W        W18728  27.542  11.706   1.298
50388W        W18729  42.815  16.202  12.390
50389W        W18730  16.748  25.976  13.032
50390W        W18731  24.039   9.255  13.902
50391W        W18732  35.455  17.216   4.273
50392W        W18733  34.067  31.935   0.402
50393W        W18734   7.781  37.942  11.372
50394W        W18735  20.709  28.014   2.231
50395W        W18736  24.182   1.770   4.825
50396W        W18737  33.974  24.702   0.762
50397W        W18738  13.252  10.200  10.921
50398W        W18739  41.518  29.143  14.849
50399W        W18740  21.539  21.617   4.351
50400W        W18741  23.101  27.116  13.005
50401W        W18742  26.119   0.452  10.917
50402W        W18743  18.261  34.993   2.839
50403W        W18744   6.300  35.958   1.879
50404W        W18745  39.923   3.842   1.913
50405W        W18746  23.088  16.708  13.413
50406W        W18747  39.928  29.474   2.375
50407W        W18748   7.370  13.108   2.874
50408W        W18749  33.979   3.904  13.830
50409W        W18750  28.513  18.057   4.307
50410W        W18751  25.164  23.708  14.942
50411W        W18752  13.215  41.896  13.462
50412W        W18753   3.393  30.417   4.341
50413W        W18754  35.861  14.259  11.380
50414W        W18755  28.129  23.192  12.425
50415W        W18756   0.845  16.081   2.807
50416W        W18757   6.870  42.932   3.146
50417W        W18758  15.651   5.809   2.222
50418W        W18759  25.092  30.476  12.472
50419W        W18760  27.054  37.348  10.967
50420W        W18761  16.114  42.456  13.980
50421W        W18762  38.456  10.871  12.085
50422W        W18763   0.374  14.098  13.845
50423W        W18764  41.296   4.259  11.042
50424W        W18765  42.822  35.107   3.816
50425W        W18766   6.751  40.052   3.366
50426W        W18767  27.595  38.872   4.716
50427W        W18768  23.700   7.894  13.798
50428W        W18769   5.729  30.151  11.036
50429W        W18770  17.716   1.877   4.145
50430W        W18771  27.534  43.858   0.956
50431W        W18772  19.126  35.440  12.966
50432W        W18773  34.073  19.139   2.729
50433W        W18774  37.381  33.068  10.480
50434W        W18775  41.802  35.077  14.009
50435W        W18776  12.710   2.890   1.730
50436W        W18777  35.906   4.338  10.971
50437W        W18778  10.718  13.767   0.916
50438W        W18779  21.653  43.270  12.014
50439W        W18780  35.408  31.455   4.235
50440W        W18781  18.295  35.905  12.521
50441W        W18782  35.946  22.677   4.599
50442W        W18783  15.809  15.264  11.859
50443W        W18784  18.199  16.659   1.701
50444W        W18785  22.236  35.505  11.040
50445W        W18786  22.526  18.135  13.369
50446W        W18787  34.971  19.763  10.960
50447W        W18788  23.731  29.056   0.326
50448W        W18789  25.075  22.017   4.137
50449W        W18790  43.484  31.537  10.445
50450W        W18791  16.774  30.496  11.538
50451W        W18792  33.451  35.867  10.960
50452W        W18793  39.895  38.046   2.184
50453W        W18794   1.858   1.795   4.707
50454W        W18795  21.662  15.233   2.778
50455W        W18796  40.977  10.256  10.000
50456W        W18797  34.440  18.267  12.861
50457W        W18798   3.939   6.903   2.821
50458W        W18799  24.607  42.835   4.617
50459W        W18800   4.905  26.002  10.450
50460W        W18801  17.799  42.916  11.084
50461W        W18802  11.635  28.506  11.043
50462W        W18803  19.144  40.910  14.461
50463W        W18804  20.046   3.922  12.006
50464W        W18805   9.659  18.277   2.343
50465W        W18806   2.806  17.293  14.887
50466W        W18807  17.082   2.912   4.227
50467W        W18808  23.044  23.171   1.265
50468W        W18809  40.308  12.207  12.882
50469W        W18810   0.394  16.737  13.966
50470W        W18811  31.015  20.136   4.298
50471W        W18812   8.258  10.374  10.917
50472W        W18813  25.086  38.344   2.689
50473W        W18814   2.275  15.264   1.391
50474W        W18815  20.525  17.741  11.506
50475W        W18816  43.371  34.585  12.010
50476W        W18817  36.866  28.526  13.991
50477W        W18818   8.382   1.924  13.392
50478W        W18819  29.444  15.315   3.376
50479W        W18820  21.609  28.492   2.738
50480W        W18821  37.981  35.061  10.092
50481W        W18822  36.958  37.537   1.372
50482W        W18823  39.966   9.161   1.336
50483W        W18824  11.739   2.764   0.808
50484W        W18825  34.509   3.444  14.955
50485W        W18826   4.879  20.141  13.353
50486W        W18827  14.778   9.385   4.202
50487W        W18828  17.708   8.672   0.245
50488W        W18829  10.280   4.329   2.685
50489W        W18830  23.018  13.692   1.799
50490W        W18831  37.859  15.796   0.261
50491W        W18832  10.278   5.930  13.832
50492W        W18833  37.077  44.377   0.296
50493W        W18834  24.674   9.392   1.367
50494W        W18835   4.382  44.385   3.209
50495W        W18836  29.934  35.967   3.644
50496W        W18837  43.318  13.770   0.291
50497W        W18838  18.577  18.687   0.354
50498W        W18839   4.751  14.693  13.924
50499W        W18840   9.180  16.604  13.021
50500W        W18841  13.831  43.282  14.444
50501W        W18842  32.921   5.761   3.286
50502W        W18843  36.400  26.998   3.248
50503W        W18844  21.653   5.866   2.214
50504W        W18845   8.657  38.335   1.827
50505W        W18846  13.755  37.083   1.724
50506W        W18847  13.639   9.722  10.590
50507W        W18848  20.714  44.968   0.803
50508W        W18849  44.467  26.151  11.559
50509W        W18850  37.417  29.071  13.994
50510W        W18851  23.993  19.254   5.675
50511W        W18852  36.981  35.101   0.260
50512W        W18853  20.075  44.326   2.249
50513W        W18854  14.650  16.719  10.541
50514W        W18855   5.799   1.851  14.368
50515W        W18856  15.776  22.561  12.475
50516W        W18857  35.985  26.590  12.578
50517W        W18858  16.566   4.808  12.440
50518W        W18859   0.376  31.084   4.114
50519W        W18860  31.140   7.867   1.908
50520W        W18861  39.900  18.757   2.739
50521W        W18862  22.024  21.617   1.883
50522W        W18863  38.419  36.023  14.765
50523W        W18864   3.755   9.686   0.347
50524W        W18865  28.100  30.138   3.673
50525W        W18866  36.393  33.913  13.941
50526W        W18867  38.371  33.486  14.477
50527W        W18868  32.552  19.699  13.895
50528W        W18869  34.589  37.052  13.814
50529W        W18870  14.116  25.671   3.766
50530W        W18871  23.099  34.378  10.637
50531W        W18872  41.845  23.515   1.792
50532W        W18873  40.367  39.909   2.765
50533W        W18874  36.496   2.433   4.139
50534W        W18875   1.892   3.824   3.219
50535W        W18876  36.517  20.258   4.219
50536W        W18877  30.119   1.792   0.820
50537W        W18878  35.061  23.035   1.305
50538W        W18879  41.365  19.217   1.391
50539W        W18880  20.050  13.131  11.512
50540W        W18881  21.233  32.550  11.117
50541W        W18882  39.888  33.386   0.310
50542W        W18883   9.764  12.711  12.874
50543W        W18884  16.771   0.453   2.179
50544W        W18885  28.052  27.190  14.455
50545W        W18886  26.090  23.141  13.059
50546W        W18887   4.807   1.275   0.386
50547W        W18888  15.671   7.670  10.452
50548W        W18889  15.127  20.259   0.888
50549W        W18890  26.127  20.524  13.323
50550W        W18891  32.481  25.530  13.337
50551W        W18892   8.798  36.380   2.311
50552W        W18893  33.587   6.914   1.815
50553W        W18894  28.171   7.250  10.632
50554W        W18895  35.596   5.286  11.378
50555W        W18896  23.511  24.010  13.406
50556W        W18897  41.823  34.607  14.874
50557W        W18898   3.867  43.902   0.303
50558W        W18899  42.326  36.894  12.056
50559W        W18900  31.032   8.666  12.976
50560W        W18901   7.224  42.394   4.267
50561W        W18902   2.815  15.290   3.284
50562W        W18903  43.791  16.676  10.509
50563W        W18904  14.184   2.753  14.281
50564W        W18905  40.812  20.607   4.813
50565W        W18906   8.212   1.302  12.385
50566W        W18907  13.650  43.940  13.534
50567W        W18908   8.867  30.557   4.796
50568W        W18909   4.811  20.123   2.792
50569W        W18910  29.145  37.570  13.936
50570W        W18911  17.204   8.692  13.403
50571W        W18912  32.537  29.536  14.468
50572W        W18913  34.446  23.561  13.940
50573W        W18914  34.486   4.289   2.847
50574W        W18915   3.848   0.341   3.313
50575W        W18916  19.779  18.119  14.845
50576W        W18917  11.132  33.078  10.505
50577W        W18918  18.660   4.850  11.399
50578W        W18919   9.661  34.934   4.121
50579W        W18920  13.310  37.060  13.831
50580W        W18921  12.762   5.337   1.382
50581W        W18922  19.205  29.501  12.068
50582W        W18923  32.960  38.905   5.615
50583W        W18924  25.103  36.927   2.774
50584W        W18925   0.887  32.940  12.505
50585W        W18926  33.621  26.103   4.657
50586W        W18927  33.425   4.929  14.319
50587W        W18928  21.566  14.157  12.544
50588W        W18929  14.307  30.048   2.836
50589W        W18930  41.955  17.776  12.062
50590W        W18931  15.800   8.257   1.874
50591W        W18932  27.668  43.945  12.984
50592W        W18933   0.481  17.710  12.548
50593W        W18934   1.934  22.076   3.728
50594W        W18935  18.083  43.489   1.737
50595W        W18936  18.219   0.366  11.504
50596W        W18937  10.815  20.194   1.331
50597W        W18938  21.088   6.819   2.236
50598W        W18939  34.099   8.327  11.089
50599W        W18940  33.127   5.739   2.767
50600W        W18941  10.269   0.430   1.783
50601W        W18942  19.751   6.769   1.264
50602W        W18943  15.239  22.168  10.551
50603W        W18944  31.072  38.360   4.661
50604W        W18945  27.585   7.898  13.335
50605W        W18946  44.408  21.172   4.292
50606W        W18947  22.524  32.967   1.904
50607W        W18948  17.734  24.022   5.759
50608W        W18949   3.300  30.069  14.815
50609W        W18950  29.457  14.320   4.709
50610W        W18951  38.001  29.446   0.249
50611W        W18952  38.076   6.272   9.968
50612W        W18953  42.520  29.628  14.469
50613W        W18954  43.445  31.441   4.600
50614W        W18955  41.019  19.192   4.284
50615W        W18956  15.698   5.272   2.786
50616W        W18957   9.199   2.842  13.832
50617W        W18958  41.828   9.833  13.855
50618W        W18959  14.674  15.588  11.124
50619W        W18960   3.806  24.192  14.388
50620W        W18961  12.120   7.341   3.156
50621W        W18962  26.133  18.561  13.417
50622W        W18963  32.107  33.387   3.727
50623W        W18964  44.273  21.690   0.782
50624W        W18965  43.896  26.098   0.911
50625W        W18966  15.578  33.910   4.281
50626W        W18967  11.674  25.589  13.354
50627W        W18968  25.638  43.922   2.360
50628W        W18969  13.697  32.563   3.280
50629W        W18970  39.963   0.919  14.894
50630W        W18971  24.584   7.375   1.733
50631W        W18972  21.063  12.663  11.024
50632W        W18973  15.091  22.078   9.961
50633W        W18974  11.134  15.160  10.990
50634W        W18975  18.594  22.057   1.316
50635W        W18976  39.331  17.606   4.773
50636W        W18977  22.614   7.712  10.571
50637W        W18978  20.236  37.528   1.736
50638W        W18979  10.859   9.323  13.311
50639W        W18980   1.937  22.152  11.440
50640W        W18981  40.974  16.728   4.188
50641W        W18982  37.476  40.994   2.877
50642W        W18983   2.798  29.976  14.809
50643W        W18984   8.395   3.393   2.225
50644W        W18985  30.612  44.800   3.228
50645W        W18986   5.898  18.170   0.455
50646W        W18987   1.447   6.717  13.391
50647W        W18988  28.081   2.818   0.366
50648W        W18989  37.994  15.610  14.326
50649W        W18990  28.643   2.337  13.881
50650W        W18991  42.018  32.037  13.861
50651W        W18992  44.364  23.186  14.500
50652W        W18993  35.907  42.921  10.908
50653W        W18994  38.855   1.291   1.708
50654W        W18995   6.851   0.971  14.445
50655W        W18996  26.632  29.021   2.705
50656W        W18997   4.203  24.989   1.780
50657W        W18998  19.777   4.828  10.628
50658W        W18999  18.571  37.860   0.400
50659W        W19000  43.858  41.800   0.308
50660W        W19001  13.325   6.186  13.529
50661W        W19002  19.606  40.413   2.366
50662W        W19003  14.098  15.115  11.481
50663W        W19004  44.427  21.610   4.838
50664W        W19005  25.526  19.755   1.424
50665W        W19006  16.619  32.955  12.369
50666W        W19007  37.898  34.431   4.255
50667W        W19008  37.044  24.510   1.285
50668W        W19009  14.716  22.647  10.918
50669W        W19010  42.805   3.363  13.813
50670W        W19011  18.707  43.438   4.178
50671W        W19012  41.973   2.351   2.687
50672W        W19013  35.938  14.170   4.189
50673W        W19014  13.264   3.441   0.328
50674W        W19015  41.381  40.025   0.484
50675W        W19016  23.086   2.770   3.785
50676W        W19017  43.007  40.980   1.308
50677W        W19018  26.654  41.834  13.906
50678W        W19019  41.374  22.736  14.313
50679W        W19020  16.289  14.142   4.118
50680W        W19021  21.684  25.059   3.840
50681W        W19022  27.047  33.466  14.444
50682W        W19023   1.291  12.852  13.990
50683W        W19024  32.469  42.782  13.031
50684W        W19025  13.228  41.799   4.278
50685W        W19026  21.052  37.841   3.800
50686W        W19027  18.634  32.607  12.486
50687W        W19028  28.589   7.288   4.124
50688W        W19029   1.913  24.591   3.635
50689W        W19030  26.999  10.318   2.846
50690W        W19031   6.364  34.004   4.772
50691W        W19032   5.432   4.282   1.889
50692W        W19033   2.779  42.487   4.141
50693W        W19034   2.314   7.354  13.362
50694W        W19035  11.722  14.769   2.209
50695W        W19036  26.617  30.089  13.913
50696W        W19037  41.353  42.974  14.813
50697W        W19038  35.052  22.088   0.876
50698W        W19039  10.359  16.115   2.419
50699W        W19040  44.816  30.933  12.081
50700W        W19041  27.045  28.585   0.316
50701W        W19042  44.985  30.018  10.440
50702W        W19043   2.268  31.153   2.265
50703W        W19044  43.279  10.177   0.953
50704W        W19045  25.014  12.141  13.413
50705W        W19046  34.498  28.649   2.192
50706W        W19047  38.523  26.114   4.236
50707W        W19048  40.036  12.671   4.318
50708W        W19049  41.001   0.350   3.315
50709W        W19050  25.647  26.473  13.417
50710W        W19051  12.636  11.247   3.304
50711W        W19052  22.740  37.939   0.886
50712W        W19053   7.219  26.077  14.455
50713W        W19054  31.580   5.368   2.855
50714W        W19055  21.157  37.566  12.340
50715W        W19056  35.869  44.928  12.545
50716W        W19057  22.227  25.714  11.430
50717W        W19058  32.017   4.358   4.646
50718W        W19059  29.547   8.817   2.886
50719W        W19060  31.491  18.729  11.385
50720W        W19061   1.381  28.988  12.060
50721W        W19062  35.467   3.330   3.853
50722W        W19063   8.365  33.550  10.054
50723W        W19064  29.583   9.738   2.760
50724W        W19065  36.951   5.323   4.260
50725W        W19066  16.799   8.763  10.421
50726W        W19067  26.153  23.181   3.806
50727W        W19068  34.118  19.053  14.342
50728W        W19069  32.993  16.731   2.333
50729W        W19070  25.965  31.052   0.263
50730W        W19071  21.618  15.177   4.724
50731W        W19072  18.603  42.297  12.080
50732W        W19073   3.437  39.822   1.386
50733W        W19074  32.045  24.083  11.108
50734W        W19075  40.899  17.089   1.924
50735W        W19076  27.665  24.036  11.107
50736W        W19077  43.975  39.896  12.430
50737W        W19078  30.573  12.764   0.735
50738W        W19079  34.871  29.954  12.849
50739W        W19080  29.988  30.516   0.388
50740W        W19081   9.394  29.928  14.515
50741W        W19082   9.393  25.062   0.416
50742W        W19083  43.926  40.923   1.246
50743W        W19084  40.426  28.502  12.434
50744W        W19085  12.233  15.310   2.834
50745W        W19086   2.276  39.361  12.908
50746W        W19087   5.219   3.336   1.282
50747W        W19088  31.599  19.059   2.710
50748W        W19089  12.679  42.860   3.221
50749W        W19090  26.121  18.067   0.884
50750W        W19091   2.780  39.346  10.613
50751W        W19092  41.435  39.419  14.377
50752W        W19093  40.925  32.435  11.856
50753W        W19094  30.121   2.365   2.895
50754W        W19095  36.400  32.116  13.426
50755W        W19096  17.588   6.230   2.732
50756W        W19097  29.964  25.091  11.972
50757W        W19098  11.241  41.326   0.255
50758W        W19099   8.355  31.640  10.467
50759W        W19100  28.951   2.778   0.280
50760W        W19101  13.631  39.330  10.566
50761W        W19102  25.216  42.464   0.743
50762W        W19103  23.692   4.886   0.829
50763W        W19104   9.274  18.655  14.443
50764W        W19105   1.362   1.896  14.291
50765W        W19106  11.630   0.287  10.147
50766W        W19107  35.919  13.347  13.963
50767W        W19108  11.253  41.384   4.147
50768W        W19109  22.026   1.318  12.840
50769W        W19110  15.153   0.960  14.330
50770W        W19111  11.253  33.546   4.717
50771W        W19112  18.203  16.688  10.563
50772W        W19113  25.551  27.970  14.994
50773W        W19114  11.166  25.182   0.858
50774W        W19115  29.087  40.543  10.920
50775W        W19116  40.353  27.167  10.555
50776W        W19117  18.213  25.985   3.331
50777W        W19118  17.660  42.458  14.463
50778W        W19119   2.337  16.670   4.674
50779W        W19120  39.013  25.991   4.744
50780W        W19121  41.817  41.937   0.283
50781W        W19122  17.713  21.713   2.377
50782W        W19123  18.646  30.627   2.204
50783W        W19124   9.791  34.415  12.823
50784W        W19125  28.512  43.001  13.419
50785W        W19126   2.277  39.922  11.101
50786W        W19127  17.586  21.154  10.082
50787W        W19128   6.422   8.842   1.931
50788W        W19129  15.734   9.347  11.100
50789W        W19130  27.621  34.593  12.013
50790W        W19131   8.724   2.466   3.230
50791W        W19132  32.495  29.503   1.885
50792W        W19133   9.150  32.899   4.752
50793W        W19134  35.528  17.616   3.190
50794W        W19135  14.820  14.314   0.939
50795W        W19136  42.340  33.483   1.212
50796W        W19137   1.482  32.948  11.084
50797W        W19138  37.388  17.801  14.353
50798W        W19139  39.522  39.416  11.493
50799W        W19140  17.681  33.001  11.554
50800W        W19141   6.392   1.241   1.328
50801W        W19142   6.312   3.735   3.293
50802W        W19143  24.676  12.317  11.059
50803W        W19144   5.887  41.902   2.247
50804W        W19145  26.534   0.407  10.951
50805W        W19146  33.961  28.138  14.358
50806W        W19147  44.806  42.920   1.429
50807W        W19148  11.253   9.650   3.636
50808W        W19149  22.206  25.502  14.453
50809W        W19150  12.637  18.166  14.804
50810W        W19151  20.149  41.920   1.714
50811W        W19152   8.376  14.264  13.847
50812W        W19153  15.147  31.637   3.753
50813W        W19154  26.112  39.384   0.750
50814W        W19155   6.252   8.740  13.961
50815W        W19156   7.358  26.476   1.706
50816W        W19157  30.587  33.956   1.721
50817W        W19158  32.091  37.439   1.303
50818W        W19159   3.887  13.667  13.916
50819W        W19160  15.771   6.830   3.217
50820W        W19161  17.065  38.073  12.401
50821W        W19162  21.130  30.654  12.034
50822W        W19163  18.677   6.395   4.188
50823W        W19164  31.109  12.836   0.938
50824W        W19165  39.014  24.582  11.419
50825W        W19166  21.684  20.737   2.811
50826W        W19167  14.803   4.906   1.451
50827W        W19168  40.943  14.726   3.865
50828W        W19169  11.148  39.989   4.665
50829W        W19170  18.586  10.181   4.720
50830W        W19171  11.737   6.683   1.388
50831W        W19172   8.866  11.854  14.408
50832W        W19173  24.558   5.324   3.229
50833W        W19174  21.616  33.015  10.537
50834W        W19175  18.105  18.053   1.866
50835W        W19176   9.827  19.215   2.359
50836W        W19177   7.805  33.112  14.293
50837W        W19178  18.761  26.196   1.233
50838W        W19179  17.714  24.605  13.383
50839W        W19180  27.558   9.804   1.694
50840W        W19181  29.953  41.921  13.534
50841W        W19182  16.312  42.006  10.642
50842W        W19183   4.348  37.855   2.681
50843W        W19184  31.094  35.556  10.950
50844W        W19185  44.339  26.154  11.886
50845W        W19186  28.114  17.746   4.330
50846W        W19187   6.210  25.109   3.159
50847W        W19188  41.474  32.076   0.931
50848W        W19189  28.445  13.710   2.258
50849W        W19190  44.347  23.514  11.994
50850W        W19191  15.147  19.577   5.290
50851W        W19192  26.191  26.144   5.267
50852W        W19193  28.616  41.946   3.339
50853W        W19194  25.563  18.657  10.897
50854W        W19195   6.676  16.315   0.458
50855W        W19196   1.375  19.227   5.268
50856W        W19197  18.635   7.364  14.008
50857W        W19198  24.041  20.263  14.002
50858W        W19199   1.975  11.868  13.528
50859W        W19200  39.007  10.641  10.608
50860W        W19201   1.287  40.306  14.442
50861W        W19202  30.553  38.838  14.919
50862W        W19203  27.611  26.542  13.061
50863W        W19204   1.912  31.457  11.535
50864W        W19205   4.862   6.225  14.934
50865W        W19206  11.721  44.966  13.391
50866W        W19207  22.237  12.292   3.177
50867W        W19208  39.961  38.988  13.795
50868W        W19209   8.207  24.022   1.315
50869W        W19210  40.871  24.618  10.626
50870W        W19211  44.873  40.020   1.708
50871W        W19212  10.326  19.148  14.970
50872W        W19213  42.021  15.142  13.978
50873W        W19214  33.582  43.882   0.366
50874W        W19215  34.517  11.772   3.308
50875W        W19216  18.637  24.648   2.848
50876W        W19217  12.834   3.749   3.735
50877W        W19218  19.283  11.830  12.880
50878W        W19219  41.816  10.852   4.275
50879W        W19220   5.881   7.859  11.440
50880W        W19221  28.083  32.618  14.790
50881W        W19222  35.018  43.446   4.697
50882W        W19223   6.809  42.807  14.364
50883W        W19224  25.544  39.938   1.732
50884W        W19225  11.842   6.229   3.373
50885W        W19226  40.475  26.519   2.696
50886W        W19227   8.761  19.064  12.066
50887W        W19228  21.678  15.784  11.989
50888W        W19229  11.823  14.831  11.952
50889W        W19230  26.470   3.321   0.482
50890W        W19231  40.379   2.398   3.292
50891W        W19232  17.597  11.668  11.085
50892W        W19233  18.605   8.809   4.243
50893W        W19234   2.844  21.094  12.985
50894W        W19235  35.406  33.007  13.016
50895W        W19236   2.387   6.318   1.426
50896W        W19237  38.834  14.694  14.003
50897W        W19238  26.130  26.675  11.919
50898W        W19239  40.387  15.647  14.390
50899W        W19240   5.794  42.434  12.493
50900W        W19241  15.676  15.245   0.774
50901W        W19242  42.866   0.447   1.301
50902W        W19243  24.485  24.085   0.960
50903W        W19244  31.116   3.841   3.668
50904W        W19245  40.333  41.300  10.559
50905W        W19246  33.039  29.533  10.631
50906W        W19247   3.768   2.757  14.819
50907W        W19248  12.729  37.023   2.715
50908W        W19249   8.707   6.703  11.573
50909W        W19250  39.321  22.999  14.321
50910W        W19251  16.165  24.034   9.953
50911W        W19252  20.682  37.886  11.040
50912W        W19253  14.157  11.181  12.350
50913W        W19254   0.396   7.885  14.997
50914W        W19255   7.198  15.608  14.487
50915W        W19256  33.946  11.830   4.642
50916W        W19257   7.740  25.502   0.422
50917W        W19258  40.328  43.415  12.033
50918W        W19259   1.831  28.978  11.449
50919W        W19260  43.398   5.803  12.932
50920W        W19261  34.388  34.586  14.287
50921W        W19262  41.413  19.661  10.540
50922W        W19263   9.870  23.522  13.310
50923W        W19264  42.374  16.593  12.470
50924W        W19265  32.126   7.325  11.083
50925W        W19266  43.000  12.180  14.918
50926W        W19267  34.054   4.211   0.285
50927W        W19268  16.131  40.393  11.918
50928W        W19269  25.168  25.601   0.750
50929W        W19270  30.103   7.754  10.921
50930W        W19271  43.423   9.324   4.667
50931W        W19272  30.650  36.911   4.184
50932W        W19273  11.860  11.756   2.247
50933W        W19274   9.862  12.224   1.302
50934W        W19275   9.870  33.022   2.205
50935W        W19276  35.031  35.574  13.522
50936W        W19277  30.573  30.118  11.447
50937W        W19278   9.667   8.689  14.504
50938W        W19279  23.502  24.481   1.241
50939W        W19280  34.866  40.339  14.500
50940W        W19281  13.716   6.771  11.098
50941W        W19282   2.878  10.383  11.382
50942W        W19283  42.019  25.052   2.244
50943W        W19284  33.391  32.596  14.486
50944W        W19285  23.058  20.189  12.463
50945W        W19286   3.952   6.342   3.322
50946W        W19287   3.293  35.539   1.310
50947W        W19288   1.851   1.370  11.470
50948W        W19289  15.769  12.632   0.739
50949W        W19290  36.510   3.406   0.261
50950W        W19291  34.572  24.180  13.429
50951W        W19292  20.578  20.094  13.455
50952W        W19293  27.110  12.170   1.263
50953W        W19294   4.757  32.046   3.706
50954W        W19295  20.107  20.148  12.509
50955W        W19296  40.409  40.399   2.740
50956W        W19297  35.466  26.575  12.915
50957W        W19298   2.242  27.146   0.277
50958W        W19299   0.385  20.073   4.130
50959W        W19300  44.321   3.368   3.788
50960W        W19301  12.299  27.081   4.154
50961W        W19302  11.732  17.131   2.347
50962W        W19303  15.126  37.397  12.825
50963W        W19304  13.643  22.215  14.760
50964W        W19305  37.531  32.461  13.064
50965W        W19306  32.486  11.640  10.061
50966W        W19307  30.098  18.277  10.426
50967W        W19308  36.979   5.815  11.566
50968W        W19309  11.842  25.641   0.376
50969W        W19310  18.665  19.190  11.902
50970W        W19311  27.474  26.047  12.842
50971W        W19312  11.362   0.478   0.292
50972W        W19313  19.758  18.115  13.984
50973W        W19314  40.984  27.486  13.413
50974W        W19315  43.973  41.833  13.006
50975W        W19316  37.977  17.628   0.830
50976W        W19317  27.075  27.677  10.935
50977W        W19318  15.601  44.983   2.879
50978W        W19319   8.211  16.125   1.218
50979W        W19320   6.719  13.212   3.796
50980W        W19321   5.360   0.750   2.901
50981W        W19322  40.519  41.323   1.737
50982W        W19323  41.470   2.344   5.197
50983W        W19324  30.443   7.850  13.987
50984W        W19325  12.665  40.912   4.767
50985W        W19326   3.893   2.953  11.467
50986W        W19327  24.672   1.295  10.408
50987W        W19328  30.533  27.956   3.801
50988W        W19329  16.711   9.781   2.372
50989W        W19330  22.630   6.679  12.967
50990W        W19331  34.938  11.316  12.351
50991W        W19332  13.252  37.990  12.463
50992W        W19333  36.873  15.607  11.859
50993W        W19334  31.425  15.193   4.735
50994W        W19335  17.073  26.129  13.424
50995W        W19336  41.931   0.474   4.268
50996W        W19337  40.471   2.465  14.309
50997W        W19338  17.204  20.740   4.234
50998W        W19339   2.855  34.413   0.783
50999W        W19340  10.639  17.678   0.433
51000W        W19341  37.941  37.544  10.949
51001W        W19342  42.836  26.002   0.340
51002W        W19343  17.650  12.324  11.973
51003W        W19344  39.549  18.082   0.329
51004W        W19345  32.033  36.557   0.306
51005W        W19346  32.623  21.133  10.964
51006W        W19347  18.061  37.085   3.693
51007W        W19348  34.899  20.139   2.663
51008W        W19349   1.880  20.032   4.201
51009W        W19350  27.580  12.632   4.761
51010W        W19351  40.033  38.448   4.658
51011W        W19352  16.240  14.112   1.735
51012W        W19353   7.413   7.672  11.530
51013W        W19354  31.621  23.563   3.723
51014W        W19355   4.208   5.422   1.753
51015W        W19356  37.886   6.403   0.802
51016W        W19357  44.468  16.769  14.504
51017W        W19358   8.377   0.390   2.702
51018W        W19359  21.623  38.375   2.364
51019W        W19360  36.952   5.290  11.441
51020W        W19361  20.530   1.267  13.482
51021W        W19362  11.259   5.803   0.436
51022W        W19363  40.830   8.730   3.229
51023W        W19364  12.640  16.745   3.863
51024W        W19365  30.599   7.724   3.719
51025W        W19366  20.583  36.366   3.199
51026W        W19367  43.423  33.921   1.339
51027W        W19368   1.927  21.737  12.411
51028W        W19369  37.894  29.545  11.970
51029W        W19370  39.961   3.308   1.243
51030W        W19371  39.501  25.047  13.326
51031W        W19372  22.185  27.996   1.423
51032W        W19373  24.192  42.452  13.864
51033W        W19374  31.455  18.252  14.794
51034W        W19375  35.930  29.537   2.252
51035W        W19376  25.702  24.992   4.605
51036W        W19377  14.287  18.180  11.078
51037W        W19378  15.319  19.283   3.202
51038W        W19379   5.880  24.671  14.897
51039W        W19380  14.801  19.543   0.476
51040W        W19381  33.398  27.950   4.215
51041W        W19382  11.818  21.532   0.742
51042W        W19383  28.173  42.033   3.663
51043W        W19384  22.099  42.842  12.453
51044W        W19385  39.403  36.991   2.709
51045W        W19386  10.358   9.390  14.389
51046W        W19387  33.461  12.327   0.438
51047W        W19388  30.075  41.503  12.039
51048W        W19389   3.264  15.129  13.322
51049W        W19390  42.429  43.845   0.344
51050W        W19391   3.245  24.631   0.282
51051W        W19392  29.649  24.553  13.530
51052W        W19393  12.840  39.831   2.672
51053W        W19394  11.227  28.169   4.837
51054W        W19395  18.613  40.546   3.685
51055W        W19396  26.157  14.329  11.480
51056W        W19397  13.772  44.867  10.587
51057W        W19398   7.331   0.403  12.946
51058W        W19399  15.171  23.985  11.494
51059W        W19400   3.759  28.141  10.603
51060W        W19401  34.946  16.729   4.335
51061W        W19402  16.277  11.273  14.920
51062W        W19403  30.464   6.691  14.011
51063W        W19404  34.986  11.706   0.932
51064W        W19405  14.243  33.390   2.218
51065W        W19406  32.957  14.751   3.239
51066W        W19407  23.613   7.674   0.270
51067W        W19408  33.004  11.825   0.479
51068W        W19409  31.541  16.614  12.425
51069W        W19410   0.756   4.321  11.874
51070W        W19411  42.884  33.569   4.796
51071W        W19412   4.842   6.692  11.525
51072W        W19413  17.286  23.517  12.017
51073W        W19414  37.396  31.093   5.284
51074W        W19415  21.053  29.559   2.709
51075W        W19416  38.946  22.662  14.786
51076W        W19417   5.214  15.683   0.397
51077W        W19418  10.335  29.931   3.224
51078W        W19419  20.615   5.414  11.503
51079W        W19420  41.499  22.062  10.983
51080W        W19421  22.070  34.511  10.627
51081W        W19422  26.703  28.183  13.461
51082W        W19423   1.337  23.718   4.792
51083W        W19424  44.907  26.014   2.409
51084W        W19425  16.151  29.542  14.397
51085W        W19426  39.846  11.188  13.895
51086W        W19427  33.985  19.713  14.468
51087W        W19428  14.597   2.333  13.969
51088W        W19429  11.340   1.319  14.793
51089W        W19430  37.970   1.332  13.895
51090W        W19431  17.144  37.933   0.246
51091W        W19432  10.310  33.512  11.451
51092W        W19433  36.391  12.240   3.284
51093W        W19434  34.398   8.779   3.791
51094W        W19435  24.076  33.944  12.897
51095W        W19436  11.355  38.406  12.865
51096W        W19437  10.719  44.973   2.815
51097W        W19438  21.090  21.061  13.006
51098W        W19439  11.370  16.262  14.421
51099W        W19440   8.333   3.722  11.399
51100W        W19441  12.688  33.480  13.504
51101W        W19442  33.922  17.569   4.746
51102W        W19443   6.687  43.967  13.377
51103W        W19444  44.967  39.335  14.001
51104W        W19445  18.715  29.486   4.230
51105W        W19446  14.222   1.415  13.796
51106W        W19447  39.845  20.047   0.306
51107W        W19448  22.672  37.058  14.780
51108W        W19449  29.925  19.121  11.557
51109W        W19450   8.756  32.626  10.615
51110W        W19451  14.650   2.245  13.335
51111W        W19452  12.668  14.811   2.362
51112W        W19453  15.783   6.781   3.801
51113W        W19454  39.910  30.005   4.311
51114W        W19455  35.041   9.726   1.848
51115W        W19456  15.252  39.533   1.325
51116W        W19457   3.774  13.809  10.929
51117W        W19458  32.040  13.138   0.777
51118W        W19459  29.547  25.566  13.520
51119W        W19460  35.520  15.646  14.991
51120W        W19461  13.116  40.495  11.116
51121W        W19462  39.919   7.209  13.488
51122W        W19463  31.441  12.644   2.284
51123W        W19464   6.210  39.534  13.886
51124W        W19465   2.857   2.450  11.976
51125W        W19466   4.241  18.790  10.605
51126W        W19467  27.667  40.950   4.735
51127W        W19468  25.657   2.225   0.333
51128W        W19469   9.395   6.385   3.642
51129W        W19470  44.453  10.694  13.037
51130W        W19471  24.576  28.584  12.951
51131W        W19472  23.603  11.349  10.491
51132W        W19473  17.243  21.561  11.121
51133W        W19474  17.719   2.319   4.149
51134W        W19475  28.941  31.966  12.924
51135W        W19476  31.513   1.370   4.236
51136W        W19477  27.129   6.735  12.933
51137W        W19478   0.484  23.688   2.384
51138W        W19479  29.087  23.682  10.410
51139W        W19480  14.797   3.437  12.035
51140W        W19481  31.908  42.936  14.367
51141W        W19482  19.265  25.077   0.350
51142W        W19483  14.800   8.288   2.839
51143W        W19484  12.340  18.147  14.502
51144W        W19485  28.176   4.285   0.875
51145W        W19486  36.570  12.639   2.706
51146W        W19487  41.296  34.423  12.990
51147W        W19488  38.998  21.541  13.482
51148W        W19489  18.597  14.189  11.988
51149W        W19490  28.020  36.477   1.233
51150W        W19491   8.869  12.736   3.650
51151W        W19492   1.907  37.391   0.432
51152W        W19493  16.168  26.579   1.719
51153W        W19494  11.700  43.348  13.316
51154W        W19495  26.682  20.530  14.417
51155W        W19496  18.566  40.010   2.738
51156W        W19497  20.633  35.938  10.605
51157W        W19498  13.164  42.010  12.974
51158W        W19499  12.222  16.777   3.285
51159W        W19500  15.797  34.868  14.859
51160W        W19501  37.857   2.409   3.148
51161W        W19502  31.105  28.574   2.692
51162W        W19503  24.172  10.358  13.346
51163W        W19504  42.817  11.177   2.226
51164W        W19505  41.497  41.794  12.030
51165W        W19506  24.001   9.852  12.540
51166W        W19507  22.145  26.046  12.019
51167W        W19508  15.239  18.165  12.507
51168W        W19509  23.531   2.865   4.647
51169W        W19510  31.142   1.824   1.419
51170W        W19511  42.287  23.223   0.900
51171W        W19512  28.564  22.683  11.592
51172W        W19513  28.575  13.179  14.481
51173W        W19514   6.768  27.054   2.731
51174W        W19515  40.806  42.801   3.787
51175W        W19516  35.881  23.030  11.601
51176W        W19517  40.428  36.372   4.680
51177W        W19518  26.986  18.239  10.464
51178W        W19519  20.613  21.212  10.914
51179W        W19520  39.484  15.748   3.365
51180W        W19521  18.727  37.524  10.109
51181W        W19522   7.333  34.439   3.821
51182W        W19523   1.795  19.093  14.880
51183W        W19524  13.782  37.040   0.310
51184W        W19525  42.379  33.552  14.486
51185W        W19526   4.716  38.376   4.149
51186W        W19527  15.160  23.196   2.208
51187W        W19528   0.351  15.227   3.671
51188W        W19529  28.980   1.837  12.574
51189W        W19530  28.105  40.307  10.900
51190W        W19531   5.274  23.004   3.749
51191W        W19532  11.191   4.851   1.714
51192W        W19533  27.537  21.200   3.267
51193W        W19534  16.268  12.806  11.411
51194W        W19535  12.838   3.357   4.174
51195W        W19536  37.077  24.226  10.417
51196W        W19537  34.016  20.651   2.760
51197W        W19538  19.140   1.318   0.834
51198W        W19539   4.868  31.146   3.686
51199W        W19540  43.416  41.491   5.312
51200W        W19541  34.007   0.978  12.426
51201W        W19542  36.494   6.695   0.914
51202W        W19543  21.048  29.526  11.579
51203W        W19544  10.815   4.375  10.933
51204W        W19545   1.867  35.469   2.219
51205W        W19546   2.274  15.606   3.147
51206W        W19547  29.460  43.876   1.379
51207W        W19548  11.219  31.632   1.348
51208W        W19549  19.696  44.375  12.018
51209W        W19550   1.901  22.010  13.445
51210W        W19551   5.899  11.142   4.699
51211W        W19552  27.155  16.684   0.955
51212W        W19553  33.571   4.831   4.605
51213W        W19554  27.465  27.196  11.923
51214W        W19555  27.976  23.668   0.804
51215W        W19556  13.132   9.394  14.895
51216W        W19557   1.954   7.311   3.791
51217W        W19558  39.945  44.768   0.885
51218W        W19559  10.352  22.118   2.235
51219W        W19560  41.961  15.153   3.818
51220W        W19561   3.720   5.749  12.390
51221W        W19562  17.661  36.431  11.885
51222W        W19563  16.251  23.166  14.787
51223W        W19564  37.416  42.371  11.416
51224W        W19565  21.023  24.526  14.764
51225W        W19566  22.696  38.343  12.051
51226W        W19567  36.092   1.391  11.528
51227W        W19568   0.389  37.838   0.285
51228W        W19569  37.354  17.208  14.421
51229W        W19570  41.442  24.484  11.066
51230W        W19571  30.491  34.586   1.306
51231W        W19572  41.474  27.941   2.884
51232W        W19573  36.027  40.339   4.750
51233W        W19574  37.850  39.934   3.146
51234W        W19575  39.365   2.420   4.143
51235W        W19576  32.933  11.332  10.618
51236W        W19577  23.572  18.294  10.617
51237W        W19578  32.448  33.527   1.442
51238W        W19579  25.039  25.524   2.830
51239W        W19580   6.219  11.687  10.602
51240W        W19581  14.675  41.391  10.909
51241W        W19582  18.608  20.052   4.644
51242W        W19583  27.556  13.759  13.007
51243W        W19584  30.508  13.179   4.631
51244W        W19585  30.435   5.249  11.430
51245W        W19586  19.064  26.108   3.641
51246W        W19587  23.531  18.080   0.728
51247W        W19588  18.655  22.033  11.383
51248W        W19589  12.694  42.416  12.419
51249W        W19590   2.269  31.028  14.392
51250W        W19591  42.473   8.358   3.763
51251W        W19592  30.139   5.834   1.926
51252W        W19593   2.945  43.839  11.938
51253W        W19594  30.050  19.052   1.883
51254W        W19595  28.020  27.131  12.946
51255W        W19596  10.203  43.952   4.187
51256W        W19597  39.342  39.850   9.502
51257W        W19598  41.866  16.611   0.890
51258W        W19599  37.969  41.415  11.104
51259W        W19600   4.354  30.620   3.191
51260W        W19601  10.362  35.099   2.356
51261W        W19602  42.414  21.545  12.509
51262W        W19603  38.515  29.150   1.890
51263W        W19604  22.735   9.154  12.539
51264W        W19605  36.912  16.298   3.832
51265W        W19606  18.296   4.886   2.698
51266W        W19607  23.017   4.383  11.490
51267W        W19608  25.109  26.493  11.503
51268W        W19609  36.393  14.655   0.317
51269W        W19610  36.568  16.813   2.212
51270W        W19611  42.464  42.453   1.859
51271W        W19612  21.514  42.827  12.907
51272W        W19613  44.778  39.952  10.931
51273W        W19614  18.125   8.844   1.850
51274W        W19615   0.332   0.949   2.886
51275W        W19616  16.146  37.954   3.747
51276W        W19617  28.974  15.212   1.363
51277W        W19618  25.000  43.018   4.243
51278W        W19619  23.562  41.509  12.488
51279W        W19620  10.249  39.863  14.861
51280W        W19621  26.131  13.633   0.464
51281W        W19622  36.985  35.061  12.871
51282W        W19623  30.602  11.238  10.989
51283W        W19624  39.450  26.674   5.126
51284W        W19625  15.327  25.505  13.544
51285W        W19626  18.701   9.167  12.947
51286W        W19627  42.897  28.488  11.905
51287W        W19628   0.813  41.464  12.968
51288W        W19629  13.346  33.522   3.802
51289W        W19630  17.758   1.930  13.350
51290W        W19631  34.528  15.749  12.058
51291W        W19632  39.489  30.123   0.759
51292W        W19633  28.981  37.397   3.249
51293W        W19634  29.510  14.811  10.916
51294W        W19635  18.079   3.248  11.942
51295W        W19636  34.506  35.423   4.759
51296W        W19637  29.625  43.813  12.361
51297W        W19638   6.252  23.693   3.671
51298W        W19639  26.161  42.792  11.888
51299W        W19640  25.157   7.369  14.471
51300W        W19641   4.832  43.311  12.908
51301W        W19642  17.670  35.017  11.045
51302W        W19643  38.480  40.522   0.357
51303W        W19644  10.816  16.091  12.983
51304W        W19645  35.015  41.475  12.556
51305W        W19646  20.766   5.415  13.888
51306W        W19647  31.933  17.160  12.385
51307W        W19648  18.248   2.430  12.482
51308W        W19649  15.283   1.427   3.675
51309W        W19650  37.338  31.963  10.430
51310W        W19651  12.844  22.600  14.494
51311W        W19652  43.839  18.568   2.878
51312W        W19653   6.708   5.926   2.384
51313W        W19654  35.482  15.682  11.377
51314W        W19655   1.754  37.516   5.187
51315W        W19656  13.346  11.205   2.207
51316W        W19657   8.346  22.655   2.685
51317W        W19658  20.628  11.689  13.032
51318W        W19659   8.340  27.616   1.405
51319W        W19660  32.099  19.742   0.322
51320W        W19661   1.458  25.637  10.644
51321W        W19662  43.316  11.239   2.305
51322W        W19663  13.337  17.207   1.403
51323W        W19664   6.679   8.774  10.956
51324W        W19665  30.936  10.374  11.979
51325W        W19666  30.944  36.584  13.971
51326W        W19667  10.685  30.628   1.899
51327W        W19668  39.369  25.630  10.588
51328W        W19669  26.662   9.263  10.468
51329W        W19670  13.764  18.552  13.969
51330W        W19671   1.801  27.171  12.881
51331W        W19672  24.176  18.293  14.004
51332W        W19673  25.977  30.108  12.929
51333W        W19674  24.523   5.417  13.500
51334W        W19675  20.068  21.152   4.604
51335W        W19676  24.065   6.281  10.545
51336W        W19677  43.300  41.833  12.988
51337W        W19678  14.635   3.806  13.832
51338W        W19679   6.304   1.424  10.427
51339W        W19680  29.424   6.836  12.075
51340W        W19681  14.275   4.364  14.948
51341W        W19682  35.466  10.241  11.980
51342W        W19683  21.215  42.996  13.411
51343W        W19684  21.180  12.151   1.237
51344W        W19685   0.771  16.146   4.634
51345W        W19686  17.571  23.535  13.404
51346W        W19687  13.793  30.581  10.889
51347W        W19688   3.280   6.223  10.590
51348W        W19689  12.671   4.443   1.258
51349W        W19690  42.486   2.258   4.737
51350W        W19691  21.628  11.132   3.719
51351W        W19692  40.440  43.879  13.828
51352W        W19693  34.498   0.298  10.493
51353W        W19694  21.195  12.204  11.947
51354W        W19695  32.610  37.083   3.858
51355W        W19696   3.321   5.925   3.352
51356W        W19697  39.542  29.541  14.428
51357W        W19698  17.290  27.956   4.125
51358W        W19699   3.328  10.266  13.056
51359W        W19700  23.673  33.402   2.419
51360W        W19701  21.547  10.243  10.138
51361W        W19702   6.864  44.409   2.867
51362W        W19703  29.429  25.641   1.706
51363W        W19704  43.919  29.042   2.688
51364W        W19705   2.879  21.027   1.293
51365W        W19706  12.835   7.776   0.778
51366W        W19707  19.234   0.943   4.681
51367W        W19708  12.829  18.788   0.952
51368W        W19709  33.092  21.199   3.869
51369W        W19710  27.619  41.398   2.689
51370W        W19711  25.188   4.401   0.830
51371W        W19712   9.749  21.685   3.153
51372W        W19713  33.489  30.470  10.542
51373W        W19714  35.453  40.440   1.760
51374W        W19715  41.910  26.618  10.628
51375W        W19716  23.657  33.516   3.644
51376W        W19717  17.121   4.230   1.308
51377W        W19718   1.812  41.385  14.422
51378W        W19719  19.243  21.592  12.539
51379W        W19720  17.640  32.025   5.648
51380W        W19721  12.698  44.931  12.552
51381W        W19722  35.950   0.322  13.437
51382W        W19723  40.478  24.168   0.294
51383W        W19724  38.824   8.400  10.510
51384W        W19725  23.094  43.488  12.000
51385W        W19726  33.427  38.868  11.031
51386W        W19727  18.085  35.866   2.403
51387W        W19728  41.319  11.780  12.927
51388W        W19729  41.931  31.424   2.274
51389W        W19730  20.271  23.585  13.961
51390W        W19731  16.609  27.524   2.344
51391W        W19732  32.952   8.223  13.914
51392W        W19733  34.084  14.259  14.370
51393W        W19734  28.600  16.730  12.062
51394W        W19735  44.260  13.669   2.872
51395W        W19736  39.054  23.020   3.667
51396W        W19737  37.464  18.145  12.036
51397W        W19738  23.703  16.087   4.320
51398W        W19739  44.788  33.393   0.315
51399W        W19740  17.707  12.172   2.897
51400W        W19741  16.296  40.454  14.839
51401W        W19742  28.084  21.084  11.388
51402W        W19743   4.285  21.583   2.412
51403W        W19744  17.749  16.206   3.178
51404W        W19745   8.733  19.604  11.460
51405W        W19746  13.190  44.434   3.219
51406W        W19747  14.685  10.842  13.892
51407W        W19748  28.080   6.696  12.935
51408W        W19749  23.592   7.751   1.412
51409W        W19750  21.572  34.522   0.301
51410W        W19751   6.689  34.444  14.514
51411W        W19752  11.184  15.134  13.025
51412W        W19753  13.842   1.762  10.553
51413W        W19754  29.562   1.258  13.014
51414W        W19755  43.879  35.972  11.975
51415W        W19756  39.512  15.161  11.070
51416W        W19757   3.350  18.198  13.333
51417W        W19758  42.833  28.081   1.370
51418W        W19759   3.820  28.521   3.167
51419W        W19760   7.179   3.913   4.237
51420W        W19761  38.991  44.442  10.451
51421W        W19762  43.942   8.687   1.436
51422W        W19763  22.676  15.222   1.886
51423W        W19764   2.848  21.600  10.981
51424W        W19765  35.434  11.644   0.271
51425W        W19766  29.102  35.422   1.778
51426W        W19767  37.406   4.716  14.365
51427W        W19768  39.324  36.569  13.863
51428W        W19769  20.635  12.130   3.831
51429W        W19770  26.574  42.966   5.214
51430W        W19771  14.752  13.679   4.321
51431W        W19772   4.334  37.997   3.319
51432W        W19773  12.137  20.148   1.820
51433W        W19774  29.456  11.671  14.923
51434W        W19775  16.580  28.495  12.050
51435W        W19776  24.705  23.023   3.676
51436W        W19777  28.562  35.992   1.404
51437W        W19778  13.332   0.800   2.232
51438W        W19779   0.277  38.501   0.274
51439W        W19780  14.684  25.063  14.835
51440W        W19781  14.294   6.395   0.768
51441W        W19782  22.061  35.475  12.439
51442W        W19783   4.244  44.867  10.983
51443W        W19784   3.313   2.849   0.873
51444W        W19785  19.040  24.700  11.525
51445W        W19786   6.302  20.569  14.276
51446W        W19787  35.530  36.585  10.559
51447W        W19788  21.073  33.040  13.800
51448W        W19789  35.367  26.067  11.517
51449W        W19790  25.586  31.617   3.684
51450W        W19791  26.971  43.410   2.328
51451W        W19792  41.483  32.562  13.480
51452W        W19793  25.074  37.499   1.767
51453W        W19794   7.400  10.760  12.382
51454W        W19795  35.080  12.151  11.095
51455W        W19796  18.132  12.764  14.504
51456W        W19797  28.515  18.614   2.186
51457W        W19798  29.626  44.472   2.389
51458W        W19799  18.657  33.445  10.996
51459W        W19800  14.780  14.708   2.880
51460W        W19801   5.382  33.591   0.905
51461W        W19802  30.442  15.682  14.492
51462W        W19803  23.533  43.971   4.649
51463W        W19804   2.355  42.417   2.710
51464W        W19805  11.194  14.758   2.846
51465W        W19806  25.124  42.974  11.115
51466W        W19807  43.003  43.319  13.418
51467W        W19808  32.080  34.471   3.187
51468W        W19809  42.318  23.199  10.469
51469W        W19810  23.491  22.999   4.837
51470W        W19811  44.924  14.273   2.736
51471W        W19812   2.276  18.085   2.800
51472W        W19813  24.501  27.631  14.862
51473W        W19814  32.052  25.580  10.459
51474W        W19815  25.157  21.087   0.966
51475W        W19816  18.729  38.438  13.934
51476W        W19817  33.417  16.644  10.018
51477W        W19818  13.731  28.576   0.431
51478W        W19819  42.395  42.360   2.751
51479W        W19820  32.003   1.367   3.635
51480W        W19821   6.818  15.131  14.027
51481W        W19822  21.107  42.996  10.011
51482W        W19823  20.229  20.039  11.991
51483W        W19824   1.307   1.325  12.875
51484W        W19825   2.313  25.997  10.975
51485W        W19826   2.444   4.780  10.033
51486W        W19827   5.781  36.413  12.556
51487W        W19828   8.880  23.650   2.850
51488W        W19829  43.468  18.693   4.299
51489W        W19830  42.840  18.594   4.737
51490W        W19831  25.670  41.301   1.764
51491W        W19832  19.546  30.436   1.805
51492W        W19833   7.902   8.895  13.542
51493W        W19834   7.251  19.693   3.251
51494W        W19835  30.522  28.497  11.042
51495W        W19836   9.830   1.449   0.955
51496W        W19837  23.993  34.611   2.881
51497W        W19838  40.885  18.741  14.029
51498W        W19839  12.170  14.322   4.302
51499W        W19840  26.696  42.501  12.422
51500W        W19841   5.893   8.777  10.639
51501W        W19842  18.189  41.341   3.637
51502W        W19843  25.113  27.637   1.284
51503W        W19844  41.901  21.750  13.921
51504W        W19845  22.134  10.723  14.458
51505W        W19846  40.308  37.909  11.903
51506W        W19847  13.322   1.880  10.004
51507W        W19848  24.525   2.813   0.948
51508W        W19849  11.272  14.834   4.771
51509W        W19850  14.776  16.199   1.383
51510W        W19851  12.236  13.688   2.345
51511W        W19852  12.782  43.413   0.819
51512W        W19853  25.639  30.014  12.019
51513W        W19854  21.240  30.506   2.209
51514W        W19855  30.988   1.404   1.705
51515W        W19856  42.372  31.569   0.893
51516W        W19857  29.589  10.849  11.122
51517W        W19858   2.359  19.677  13.455
51518W        W19859  27.653   2.364  10.422
51519W        W19860  40.891  27.479  12.872
51520W        W19861  42.839  12.209   1.291
51521W        W19862  33.413  10.380   5.171
51522W        W19863  31.039  25.013   4.248
51523W        W19864  16.144  39.353  11.915
51524W        W19865  29.109  36.989   2.337
51525W        W19866  29.933  39.837   3.747
51526W        W19867  44.427  18.198  12.835
51527W        W19868  14.099  33.939   1.794
51528W        W19869   6.692  29.092   4.287
51529W        W19870  38.493  40.388   1.722
51530W        W19871  20.529  37.062  13.493
51531W        W19872  30.944   2.244   1.746
51532W        W19873   2.278  28.024  13.929
51533W        W19874  40.311  44.408  14.913
51534W        W19875  29.932  32.055   2.717
51535W        W19876  18.678  41.483  13.440
51536W        W19877  15.601  33.444  14.029
51537W        W19878  29.114  16.227   0.297
51538W        W19879  43.448  35.591  13.468
51539W        W19880  41.820  27.614   0.392
51540W        W19881  36.009   3.361  12.996
51541W        W19882   0.408  39.465  10.549
51542W        W19883  32.890  23.111   3.721
51543W        W19884   2.439  23.623   4.156
51544W        W19885  16.677  30.425  14.825
51545W        W19886  15.180   3.879  12.045
51546W        W19887  26.065  44.837  12.536
51547W        W19888  28.513  22.217  11.011
51548W        W19889  34.912   3.892   2.791
51549W        W19890  42.018  36.550  11.860
51550W        W19891  27.475  10.202   0.472
51551W        W19892  29.035  29.641  11.541
51552W        W19893  26.628  19.686  12.525
51553W        W19894   4.909  11.183  14.981
51554W        W19895   6.327  41.972   1.819
51555W        W19896  35.099  33.078   2.300
51556W        W19897   5.414   7.726   4.293
51557W        W19898  10.726  18.256   4.195
51558W        W19899  21.156  36.927  13.958
51559W        W19900  11.733  32.049   3.385
51560W        W19901   9.272   1.838  13.029
51561W        W19902  31.115  38.933  12.416
51562W        W19903  29.626   1.801  11.956
51563W        W19904  18.698  24.706   0.392
51564W        W19905  14.713  16.232   2.669
51565W        W19906   9.776  38.068   3.707
51566W        W19907   0.784  13.141   1.742
51567W        W19908  35.942   6.724  13.975
51568W        W19909  16.603  13.735  11.506
51569W        W19910  21.602  44.405   3.829
51570W        W19911  18.263  38.066  11.905
51571W        W19912  18.181   4.320   0.916
51572W        W19913   4.372   7.347  13.504
51573W        W19914  29.665   1.480  12.351
51574W        W19915  36.448  12.156   4.270
51575W        W19916   0.301   5.856   1.257
51576W        W19917   0.397  22.999  14.918
51577W        W19918  43.898   2.949   1.888
51578W        W19919  24.663  18.687  12.440
51579W        W19920   0.869  14.229  12.341
51580W        W19921   5.230  29.116   0.409
51581W        W19922  17.756  32.026   3.267
51582W        W19923  23.068  28.986  13.409
51583W        W19924   0.754   4.832   3.818
51584W        W19925  19.664  11.205   0.945
51585W        W19926  16.593  27.985   2.838
51586W        W19927  30.511   6.288   1.308
51587W        W19928  18.673  16.643  12.010
51588W        W19929  30.105  10.365   0.263
51589W        W19930  18.110  35.010  12.376
51590W        W19931  13.706  26.568   1.433
51591W        W19932  33.023  18.554   4.832
51592W        W19933  17.582  18.203  14.911
51593W        W19934  22.637  25.584   4.611
51594W        W19935  35.399  14.632   0.463
51595W        W19936  21.188  18.546   2.828
51596W        W19937  32.522   5.298  13.313
51597W        W19938  33.605  21.716   1.904
51598W        W19939  34.114  41.454  11.092
51599W        W19940  37.859  17.729   4.327
51600W        W19941  36.942   8.726  11.949
51601W        W19942  11.844  40.014   0.266
51602W        W19943  41.875   2.408  13.968
51603W        W19944  26.149  18.567  10.517
51604W        W19945  43.774  27.658  11.600
51605W        W19946  33.015  39.006   2.898
51606W        W19947  20.633  13.120  14.509
51607W        W19948  24.108  24.721  14.363
51608W        W19949   3.269  11.189   2.249
51609W        W19950  29.664  15.236   1.779
51610W        W19951  39.931  27.503   4.314
51611W        W19952  23.705  39.340  11.962
51612W        W19953  29.948  37.018  14.890
51613W        W19954  42.443  12.776  13.440
51614W        W19955  44.760  15.699   3.769
51615W        W19956  35.359   0.467   1.856
51616W        W19957  30.574  12.240  11.899
51617W        W19958   9.248  33.423  12.982
51618W        W19959  30.923  35.978  12.883
51619W        W19960  14.199  44.002   4.659
51620W        W19961   8.840  19.232   4.227
51621W        W19962  39.906   3.240   0.923
51622W        W19963  12.153  12.833  11.410
51623W        W19964  15.608  39.461  13.828
51624W        W19965  18.154  15.165  14.918
51625W        W19966  18.067   9.166  13.826
51626W        W19967  36.540   2.248   3.166
51627W        W19968   8.288  23.151  11.611
51628W        W19969   2.843  42.449  10.556
51629W        W19970  11.164   5.292   4.119
51630W        W19971  44.927  19.628   4.764
51631W        W19972   1.313  13.666  13.334
51632W        W19973  27.677  18.563   1.386
51633W        W19974  11.775  16.151  11.515
51634W        W19975  27.015  35.987  10.475
51635W        W19976  11.725  16.179   4.268
51636W        W19977   5.314  27.077  11.055
51637W        W19978  38.544  14.161  10.557
51638W        W19979  14.649  10.870   0.256
51639W        W19980  12.160  14.140  12.970
51640W        W19981  15.158  17.651  13.040
51641W        W19982  26.145   3.774   4.326
51642W        W19983   3.749  37.862  11.398
51643W        W19984   6.413  10.843  13.440
51644W        W19985  23.178  34.554   2.894
51645W        W19986  15.612   7.834  11.969
51646W        W19987  41.832  25.648  10.894
51647W        W19988  40.322   0.355  12.461
51648W        W19989  16.781  36.971   0.889
51649W        W19990  25.112  38.350   1.818
51650W        W19991   0.886  37.359  14.508
51651W        W19992   4.945  41.327  10.036
51652W        W19993  18.785  15.651   4.765
51653W        W19994  42.476  14.246   5.256
51654W        W19995   8.327  37.534   4.775
51655W        W19996   9.734  41.449   3.329
51656W        W19997   5.692  39.491   4.717
51657W        W19998   9.810  18.098   0.294
51658W        W19999  19.761  22.655  12.381
51659W        W20000  14.101   9.868   0.467
51660W        W20001  31.632  32.415  11.011
51661W        W20002  40.052   0.460   4.634
51662W        W20003  21.678  39.062  14.961
51663W        W20004  20.627   1.901   1.719
51664W        W20005  29.029  11.331   4.729
51665W        W20006  39.837   7.738   2.784
51666W        W20007  44.004  24.636   2.901
51667W        W20008   2.457   5.803   3.181
51668W        W20009  18.673  15.084  11.981
51669W        W20010  16.102  39.550   4.760
51670W        W20011  38.448  10.779  14.317
51671W        W20012   5.791  17.113   4.114
51672W        W20013  42.973  32.587   0.397
51673W        W20014  42.778  25.708   5.187
51674W        W20015  44.264   0.485  13.483
51675W        W20016   7.365  17.599   1.379
51676W        W20017  24.010   3.431   5.151
51677W        W20018  30.994  26.522   3.761
51678W        W20019   4.810  36.910   0.873
51679W        W20020   9.789  39.058  13.497
51680W        W20021  20.219   4.734   0.272
51681W        W20022  26.992  35.978  14.880
51682W        W20023  26.181  10.724   3.278
51683W        W20024   4.761   5.379   4.152
51684W        W20025   1.883  25.015  12.911
51685W        W20026  15.142  40.525  11.535
51686W        W20027   3.751   0.391  12.341
51687W        W20028   2.370  11.796  13.383
51688W        W20029  23.055   8.695  12.366
51689W        W20030  24.124   9.715  10.520
51690W        W20031  27.097  25.033   2.801
51691W        W20032  20.712  26.686   0.346
51692W        W20033  17.211  30.993  14.982
51693W        W20034  36.883  15.113   0.477
51694W        W20035  40.360  36.436  14.980
51695W        W20036  44.806  33.944  14.015
51696W        W20037  21.576  32.484   3.704
51697W        W20038  38.846  31.981  10.905
51698W        W20039  12.773  38.375   2.732
51699W        W20040  22.612  40.430  10.416
51700W        W20041   7.208  43.273   0.292
51701W        W20042  31.594  19.111  11.578
51702W        W20043  18.609   1.462  13.516
51703W        W20044  24.211   1.279   4.731
51704W        W20045  36.526  15.114   1.757
51705W        W20046   5.795  30.017   0.390
51706W        W20047   5.793  26.068   3.209
51707W        W20048  15.291  36.458   4.304
51708W        W20049  14.722  22.109  12.527
51709W        W20050  25.182  30.018  13.491
51710W        W20051  36.865   6.301   3.213
51711W        W20052  42.319  15.705   2.787
51712W        W20053  29.451  33.455   0.887
51713W        W20054  26.096  39.417  13.354
51714W        W20055  41.913  16.170   0.904
51715W        W20056  16.240  43.401   1.924
51716W        W20057  18.144  10.826  12.047
51717W        W20058  20.049  33.388   2.868
51718W        W20059  24.538  24.532   1.820
51719W        W20060  11.714  29.051   2.346
51720W        W20061  25.166  20.110   4.304
51721W        W20062  21.705  20.057  14.380
51722W        W20063  30.557   1.390  13.495
51723W        W20064  33.125  13.232  12.516
51724W        W20065  34.089  41.420   1.249
51725W        W20066  16.593  32.925  10.463
51726W        W20067   6.708   2.835   1.279
51727W        W20068  26.583  42.512   3.639
51728W        W20069  16.081  28.978  10.540
51729W        W20070  29.464   3.445   2.284
51730W        W20071   1.871  25.499   3.345
51731W        W20072  13.146  30.639   2.294
51732W        W20073   6.789  17.618   4.728
51733W        W20074  25.009  13.311  10.542
51734W        W20075  37.082  28.539  10.585
51735W        W20076  42.467  39.835   4.681
51736W        W20077  42.861  34.443   2.350
51737W        W20078  44.433   4.341   3.698
51738W        W20079  35.432  39.423   3.269
51739W        W20080  33.435  28.634  11.413
51740W        W20081  44.490   9.151   1.789
51741W        W20082  18.195  26.135  13.922
51742W        W20083  31.071   8.165  11.883
51743W        W20084   2.280  20.524  12.000
51744W        W20085  27.617  43.409   3.301
51745W        W20086  24.522  33.475   3.230
51746W        W20087  20.140   5.424   4.148
51747W        W20088  11.268  38.405  11.937
51748W        W20089   5.312  28.165  14.981
51749W        W20090  31.410  36.097  12.891
51750W        W20091  25.122  42.412   4.252
51751W        W20092  26.126  22.644  11.085
51752W        W20093  13.779  27.624  13.325
51753W        W20094  44.860  18.254   3.795
51754W        W20095   4.357   7.671   1.270
51755W        W20096  12.804  24.026  12.480
51756W        W20097  32.592  40.377   1.794
51757W        W20098  19.570   2.235   0.815
51758W        W20099   9.796   1.304   1.211
51759W        W20100  13.131  23.536   4.656
51760W        W20101  41.973  20.620  11.027
51761W        W20102  38.972  11.627  12.394
51762W        W20103  27.465  18.592  11.026
51763W        W20104  13.120   5.732  11.104
51764W        W20105  34.442  31.414  10.479
51765W        W20106  28.439  35.455  11.497
51766W        W20107  31.119   1.869   3.871
51767W        W20108   6.415   2.752  10.588
51768W        W20109  22.147  37.393   0.849
51769W        W20110  20.103  40.002   2.804
51770W        W20111  33.100  21.605  14.389
51771W        W20112  29.509  15.671  14.381
51772W        W20113  42.473  15.709  10.541
51773W        W20114  29.477  36.026   3.146
51774W        W20115  15.775  13.314   4.333
51775W        W20116  18.579  15.324  13.323
51776W        W20117  19.285  24.169  13.361
51777W        W20118  13.806  36.061  12.978
51778W        W20119  12.343   0.857   3.198
51779W        W20120  17.121  40.813   2.257
51780W        W20121  37.928  10.338  12.558
51781W        W20122   4.367  29.661  14.766
51782W        W20123  33.889  33.388   3.804
51783W        W20124   1.806   1.925  10.454
51784W        W20125  19.198  36.558  10.890
51785W        W20126  24.479  39.385  12.415
51786W        W20127  41.466  15.244   0.384
51787W        W20128   3.307   7.326   1.727
51788W        W20129  11.292   4.353  12.919
51789W        W20130  35.026  25.022   2.417
51790W        W20131  38.055  25.614  12.915
51791W        W20132  43.889  14.737  13.352
51792W        W20133   6.361  28.028  11.592
51793W        W20134   6.807  23.681  14.850
51794W        W20135   4.720   4.785   5.219
51795W        W20136   7.888  36.044   1.338
51796W        W20137  25.112   6.738  14.879
51797W        W20138  24.511  17.152   1.740
51798W        W20139  11.255  30.512   2.780
51799W        W20140  16.624  34.004  13.809
51800W        W20141  25.975  16.594   9.614
51801W        W20142  23.105   3.887  14.479
51802W        W20143  19.774  27.065   4.241
51803W        W20144  14.633  39.051  14.776
51804W        W20145  44.348  43.994   2.306
51805W        W20146   0.742  28.100   1.334
51806W        W20147   2.316  29.469  13.830
51807W        W20148   4.372   7.717  14.903
51808W        W20149  41.517   7.274  14.837
51809W        W20150  44.799   5.260  14.313
51810W        W20151  24.707   7.835  11.890
51811W        W20152  25.479  15.193  11.477
51812W        W20153  38.354  42.440   1.880
51813W        W20154  14.619   7.823  13.940
51814W        W20155   3.933  12.794  12.429
51815W        W20156  32.983  38.463  11.390
51816W        W20157  27.090   9.256   1.435
51817W        W20158  17.776  20.670  10.498
51818W        W20159   8.821  33.046  10.975
51819W        W20160   2.856  19.597   4.296
51820W        W20161   9.382  44.402  11.858
51821W        W20162  33.602  21.712  10.156
51822W        W20163  39.976  11.322   2.821
51823W        W20164  28.065  26.648  14.759
51824W        W20165  12.733   8.267   0.752
51825W        W20166  19.701  17.747  11.937
51826W        W20167  12.777  19.739  10.484
51827W        W20168   0.978  16.208   0.384
51828W        W20169  26.057  39.950  12.539
51829W        W20170  16.730  43.900  11.450
51830W        W20171  18.751   3.369   2.837
51831W        W20172  33.441  41.397   0.779
51832W        W20173  36.056  31.126   2.696
51833W        W20174  41.321   2.788   3.829
51834W        W20175   0.799   9.853   0.894
51835W        W20176  44.389  37.837   3.736
51836W        W20177  21.260   3.712  14.333
51837W        W20178  43.926  30.456   3.778
51838W        W20179  36.967  10.756  11.433
51839W        W20180  32.911   5.284   0.878
51840W        W20181  38.897  11.225  12.844
51841W        W20182  21.593  40.427  10.905
51842W        W20183  11.155   0.864  10.625
51843W        W20184  15.323  20.257   1.445
51844W        W20185  24.516  11.229  13.518
51845W        W20186  16.747   2.818   1.345
51846W        W20187   3.753  16.142   3.234
51847W        W20188  42.812   8.668   2.309
51848W        W20189   0.918   4.892  14.931
51849W        W20190  30.010  21.618   0.441
51850W        W20191   8.844  20.584  12.882
51851W        W20192  10.724  28.006  11.468
51852W        W20193  36.372  28.655   2.320
51853W        W20194   2.771  15.643   0.279
51854W        W20195  31.533  22.094   2.893
51855W        W20196  15.648  18.778  10.953
51856W        W20197   0.274  22.520   2.703
51857W        W20198   5.206  33.066  12.480
51858W        W20199  38.970  44.415   2.364
51859W        W20200  20.721  15.175  11.546
51860W        W20201  26.572  16.759   2.801
51861W        W20202  19.279  41.453  13.419
51862W        W20203   0.831  23.668  13.928
51863W        W20204  44.925   7.287  11.484
51864W        W20205  17.304   8.655   2.805
51865W        W20206  40.334  25.474  13.898
51866W        W20207  20.253   2.307  14.019
51867W        W20208  42.996  23.505  14.409
51868W        W20209  33.952  42.870  13.523
51869W        W20210  36.432  28.146  12.340
51870W        W20211  13.193  12.260   1.829
51871W        W20212  29.109   6.679   3.807
51872W        W20213  26.975  19.676   0.816
51873W        W20214  22.181  28.050   0.444
51874W        W20215   8.213  12.800   0.862
51875W        W20216  19.273  32.083  12.041
51876W        W20217   6.730  42.483   4.223
51877W        W20218  39.364  35.872  11.932
51878W        W20219  11.229  33.067  14.488
51879W        W20220   8.194   5.883   3.204
51880W        W20221  27.611   5.324  11.916
51881W        W20222  21.606   6.376  11.547
51882W        W20223  40.474  26.644   0.330
51883W        W20224  29.949  16.238  12.075
51884W        W20225  23.621   0.305  12.039
51885W        W20226  37.573   0.384   2.353
51886W        W20227  28.463   9.824   3.383
51887W        W20228  10.671   2.846   0.952
51888W        W20229   0.789  36.899   4.738
51889W        W20230  26.959   6.258  11.047
51890W        W20231   2.761  13.822  11.591
51891W        W20232  31.085  13.763   1.732
51892W        W20233  34.595   4.399   3.768
51893W        W20234  23.214  18.235  14.308
51894W        W20235  36.523  14.648   2.783
51895W        W20236   5.746   9.745  13.524
51896W        W20237  34.091   7.203   1.881
51897W        W20238  26.009  35.863   2.393
51898W        W20239  19.061  13.645   1.359
51899W        W20240  21.612  15.794   2.258
51900W        W20241  15.757   0.793   5.253
51901W        W20242  24.117  32.987   3.350
51902W        W20243   2.766  14.589   2.665
51903W        W20244  19.172  12.117   2.857
51904W        W20245  18.204  25.003   0.432
51905W        W20246  26.520   8.768  13.993
51906W        W20247   5.376  23.173  14.961
51907W        W20248  34.942  35.482   0.331
51908W        W20249  40.882  16.183   4.650
51909W        W20250   2.944  33.464   4.696
51910W        W20251  20.181  33.110   0.948
51911W        W20252   5.703  15.815  14.370
51912W        W20253  35.573  16.671   3.743
51913W        W20254  29.603  12.320   1.434
51914W        W20255  23.733  32.068  12.514
51915W        W20256  13.123  30.150  14.843
51916W        W20257  19.684  15.193  12.514
51917W        W20258  37.913  37.943   1.738
51918W        W20259  22.129  27.573   1.828
51919W        W20260  30.147  15.105  14.879
51920W        W20261  28.509  11.136   1.841
51921W        W20262   3.889  33.499   3.275
51922W        W20263  15.651   9.290   3.687
51923W        W20264  27.452  41.939   4.699
51924W        W20265  33.045  24.602  14.498
51925W        W20266  16.611  26.018   4.292
51926W        W20267  12.290  20.594  12.848
51927W        W20268  20.090  22.742  12.002
51928W        W20269  20.749  22.619  14.311
51929W        W20270  13.153  21.244  14.979
51930W        W20271   4.810   5.747  10.447
51931W        W20272   9.868  31.117   2.809
51932W        W20273  33.422  24.170  11.027
51933W        W20274   4.853  14.341  13.380
51934W        W20275  13.144  36.950   3.323
51935W        W20276  11.683  12.129  10.961
51936W        W20277  28.130   7.744  12.908
51937W        W20278  21.037  20.537   4.660
51938W        W20279  20.659   1.844  13.469
51939W        W20280  29.452  17.683   2.220
51940W        W20281  42.891  16.676   3.286
51941W        W20282  42.878  30.496   3.782
51942W        W20283  10.377  27.152  14.022
51943W        W20284   6.833   5.870  10.992
51944W        W20285  37.463  11.829   2.778
51945W        W20286  44.276  22.021  12.848
51946W        W20287  15.126  35.864  10.945
51947W        W20288  33.463  42.442   0.793
51948W        W20289  41.996  44.917  12.890
51949W        W20290  43.409  43.407   2.216
51950W        W20291   6.182   7.355  13.342
51951W        W20292  11.830  10.374  10.935
51952W        W20293  42.478  19.067  13.009
51953W        W20294   0.276  23.227  12.549
51954W        W20295  11.778  33.111   1.355
51955W        W20296  20.122   4.369   4.321
51956W        W20297   9.784  36.479   1.877
51957W        W20298  23.628  44.295   1.333
51958W        W20299  29.441  15.793  11.401
51959W        W20300  29.152  24.501   0.252
51960W        W20301  26.197  13.833  13.000
51961W        W20302  23.660   2.865   1.810
51962W        W20303   7.202   0.312  14.891
51963W        W20304   8.720   2.871  13.911
51964W        W20305  14.690  11.699   0.435
51965W        W20306  32.088  25.640   5.084
51966W        W20307   6.222   1.299  14.396
51967W        W20308  29.624  44.266  14.321
51968W        W20309   6.914  19.123   0.808
51969W        W20310  32.015  24.131  10.563
51970W        W20311  14.152  25.064  11.404
51971W        W20312  21.516  14.252  11.448
51972W        W20313   2.851  37.375   2.749
51973W        W20314  36.017   2.409  10.601
51974W        W20315  25.043  30.096  12.548
51975W        W20316   4.443  39.957  14.356
51976W        W20317  36.551  15.611  13.792
51977W        W20318  22.113  39.896  13.863
51978W        W20319  24.102   1.819   0.785
51979W        W20320  22.702  15.092  14.983
51980W        W20321  30.112  40.533  14.984
51981W        W20322  38.461  17.226  14.800
51982W        W20323  29.653  20.604   3.682
51983W        W20324  28.460  37.503  11.980
51984W        W20325  24.542  17.159   3.313
51985W        W20326  10.317  43.357   2.803
51986W        W20327  21.023  23.670  13.829
51987W        W20328   6.794  21.038  11.100
51988W        W20329  34.429  22.039   0.743
51989W        W20330  37.553  31.114  14.504
51990W        W20331  35.567  15.209   2.827
51991W        W20332  16.259  36.049   3.363
51992W        W20333  29.081  16.168  10.920
51993W        W20334  14.663  37.488  11.411
51994W        W20335  41.472  42.420  12.041
51995W        W20336  31.122  44.290  12.921
51996W        W20337  39.926   5.255   2.221
51997W        W20338  28.491  31.008   2.770
51998W        W20339  33.410   9.878   0.893
51999W        W20340  42.874   2.384   0.967
52000W        W20341  37.992   2.360   2.377
52001W        W20342  12.282  21.157   2.759
52002W        W20343  15.234  30.556  11.019
52003W        W20344  23.056  26.015   1.846
52004W        W20345  41.383  23.650   0.751
52005W        W20346  24.566   2.854  13.971
52006W        W20347  14.316  37.917   3.700
52007W        W20348  24.204  32.085  12.038
52008W        W20349   0.802   3.891   0.481
52009W        W20350  41.383   1.928   1.261
52010W        W20351  40.511  31.065   4.217
52011W        W20352  44.866  34.407  12.544
52012W        W20353  17.742  10.802  14.897
52013W        W20354  29.503   1.949  10.064
52014W        W20355  10.196  22.692   1.392
52015W        W20356  20.540  27.185  13.884
52016W        W20357  23.553   1.450   4.710
52017W        W20358  19.546  25.069  12.057
52018W        W20359   6.795   8.340   1.844
52019W        W20360  39.452  36.486  13.534
52020W        W20361  43.402  38.426  11.045
52021W        W20362   3.863  25.552  11.969
52022W        W20363  34.882   1.745  13.057
52023W        W20364   5.423   2.875   1.734
52024W        W20365  12.680  10.836   3.661
52025W        W20366  39.847  41.493  13.358
52026W        W20367  43.391  40.315  14.502
52027W        W20368   9.297  16.169   0.259
52028W        W20369  12.320  10.792   0.774
52029W        W20370  22.199  17.133  10.999
52030W        W20371  22.683  17.784   3.662
52031W        W20372  27.673  17.594  13.962
52032W        W20373  25.676  44.901   3.226
52033W        W20374  34.576  37.526   1.891
52034W        W20375  13.661  35.427  12.380
52035W        W20376  37.429  14.190   1.372
52036W        W20377   3.913  26.969  14.374
52037W        W20378   7.268   3.726   0.844
52038W        W20379  14.162  43.330  11.016
52039W        W20380  26.620  23.493   2.412
52040W        W20381  14.799  33.949  13.910
52041W        W20382  20.591  23.993  14.305
52042W        W20383  18.164  32.470   2.789
52043W        W20384  40.474  29.071  13.451
52044W        W20385  37.499  36.881  12.486
52045W        W20386  28.170  31.545   2.323
52046W        W20387  26.142   2.286  10.906
52047W        W20388  20.657  29.061   4.754
52048W        W20389  23.588  44.951   0.930
52049W        W20390  23.710  31.621  13.866
52050W        W20391  35.459   4.255   4.692
52051W        W20392  38.459  33.449  11.558
52052W        W20393   0.420  34.102   2.345
52053W        W20394   5.834  13.341   2.797
52054W        W20395  42.340  42.492   0.784
52055W        W20396  37.077  38.410   4.292
52056W        W20397  13.606  14.681   0.423
52057W        W20398  21.536  22.205   3.869
52058W        W20399   9.767  24.108  11.574
52059W        W20400   3.378  27.165   3.255
52060W        W20401  43.789  34.556   1.797
52061W        W20402  35.452  32.051   0.321
52062W        W20403  25.163   7.235  10.475
52063W        W20404   0.409  23.591   3.820
52064W        W20405  14.609  44.434   0.309
52065W        W20406   3.782  25.706  10.469
52066W        W20407  10.851   9.204  12.466
52067W        W20408   1.364   8.654  14.976
52068W        W20409   4.929  14.616  11.107
52069W        W20410  13.259  21.079   3.333
52070W        W20411   4.227  35.002   0.734
52071W        W20412  37.003  15.707   3.295
52072W        W20413  22.534  35.385  13.361
52073W        W20414   1.295  36.916   2.835
52074W        W20415  31.035  11.299   4.734
52075W        W20416  10.706  43.496   3.728
52076W        W20417  30.546  29.543   4.599
52077W        W20418  32.614   6.258   1.279
52078W        W20419  16.745  20.761  11.597
52079W        W20420   3.729   1.932  13.544
52080W        W20421  16.203  27.685  11.530
52081W        W20422  38.555  35.974   2.819
52082W        W20423   7.875   9.742   3.789
52083W        W20424   5.848  30.468  12.418
52084W        W20425   5.239  32.505   0.950
52085W        W20426   9.697  15.270  14.883
52086W        W20427   2.363   8.857   3.268
52087W        W20428  12.296  19.217   1.739
52088W        W20429   8.334  12.787   4.325
52089W        W20430  14.737  29.948  14.403
52090W        W20431  28.584  41.419  12.051
52091W        W20432  10.199   6.419  14.299
52092W        W20433  38.927   7.323  13.809
52093W        W20434   2.227  23.579  10.089
52094W        W20435  13.704   5.220  14.480
52095W        W20436  23.725   0.964   4.195
52096W        W20437  18.673  36.969   4.661
52097W        W20438  10.284   1.356   2.316
52098W        W20439  28.624  13.271   0.384
52099W        W20440  15.616  44.456   1.296
52100W        W20441  20.183  17.262   3.266
52101W        W20442  33.383  22.032  11.987
52102W        W20443  10.340  24.577   0.813
52103W        W20444  32.051  33.430  14.427
52104W        W20445  11.216  43.351   4.704
52105W        W20446  19.729  36.363  13.945
52106W        W20447  24.571  39.932   0.959
52107W        W20448   1.915  22.679   4.183
52108W        W20449  10.850  11.311  14.798
52109W        W20450  33.062  11.666  14.771
52110W        W20451  35.872  18.163   1.893
52111W        W20452  24.523  26.515   1.282
52112W        W20453  20.118  21.662   1.928
52113W        W20454  42.522  18.746   0.858
52114W        W20455  31.909  16.211  11.975
52115W        W20456  16.147   5.206   3.383
52116W        W20457  28.504  14.322   1.264
52117W        W20458  30.544  44.496   3.293
52118W        W20459  43.430  41.829   2.417
52119W        W20460  38.041   5.795   0.446
52120W        W20461  11.713  20.555   4.216
52121W        W20462   8.775  21.026   2.189
52122W        W20463  34.478  32.584   0.260
52123W        W20464  16.169  37.013   1.378
52124W        W20465  14.774  24.089  13.045
52125W        W20466  28.438  14.648   1.303
52126W        W20467   2.304   4.913   2.784
52127W        W20468  41.321   6.717   3.168
52128W        W20469  28.181  28.444  11.976
52129W        W20470  34.975  11.699   1.369
52130W        W20471  10.224  40.847  12.084
52131W        W20472   2.840  15.790   9.955
52132W        W20473  24.539  17.593  12.395
52133W        W20474  23.993  35.888  14.999
52134W        W20475  31.630  36.001  13.483
52135W        W20476  32.906  38.951   3.330
52136W        W20477   2.908  33.874  14.807
52137W        W20478  19.714  39.916   1.923
52138W        W20479  17.578  43.286   2.695
52139W        W20480  37.984  16.663   3.845
52140W        W20481  43.013   0.974  10.412
52141W        W20482  20.099  29.535  14.510
52142W        W20483  21.159  28.606  12.440
52143W        W20484   5.339  23.518   0.927
52144W        W20485  40.887  24.227   1.247
52145W        W20486  19.774  44.970  12.013
52146W        W20487   5.272  28.963   2.836
52147W        W20488  21.070  24.620  12.520
52148W        W20489  38.530  13.681   4.674
52149W        W20490   6.371  14.717  11.927
52150W        W20491  10.272  25.113   1.266
52151W        W20492  29.658   7.291   2.334
52152W        W20493  31.419  21.230   0.854
52153W        W20494  13.147  22.693  12.950
52154W        W20495  11.829  13.290  13.391
52155W        W20496  44.281  40.026   3.837
52156W        W20497  36.987  29.014  12.524
52157W        W20498  28.631  13.158   1.864
52158W        W20499  20.740  37.071  11.545
52159W        W20500   9.768  34.444  14.400
52160W        W20501   0.269  44.386  10.443
52161W        W20502  17.290  17.767   3.331
52162W        W20503  41.989  19.143   2.411
52163W        W20504  24.724  19.110  13.949
52164W        W20505  29.966   0.929  14.827
52165W        W20506   1.375  12.686  10.914
52166W        W20507  40.378  32.124  12.917
52167W        W20508  16.206  13.720  13.422
52168W        W20509  11.227  39.534  14.908
52169W        W20510  30.464  40.041   1.414
52170W        W20511  13.307   8.366  12.489
52171W        W20512   0.874  42.376   2.796
52172W        W20513   1.963  10.221   1.271
52173W        W20514  19.624   1.321   0.385
52174W        W20515   3.246  44.944   3.278
52175W        W20516  34.478  27.079  10.561
52176W        W20517  38.479   3.360  14.950
52177W        W20518   0.487   3.298   1.787
52178W        W20519  44.920  26.460   1.899
52179W        W20520  24.695  23.640  11.502
52180W        W20521  16.609  37.060  13.805
52181W        W20522  33.018   0.366   4.713
52182W        W20523  18.150  22.074  10.509
52183W        W20524  14.616   1.927   1.432
52184W        W20525  40.007  18.559   3.731
52185W        W20526  39.337  10.734   3.752
52186W        W20527  44.878  13.123  10.523
52187W        W20528   4.339  32.891   1.379
52188W        W20529  28.486  27.509  12.414
52189W        W20530  33.927  29.149   4.316
52190W        W20531  39.551  40.049   2.885
52191W        W20532  30.138  42.868  11.857
52192W        W20533  27.614  34.590  11.400
52193W        W20534  43.897  21.229   0.955
52194W        W20535  39.985  33.985   1.858
52195W        W20536  23.515  29.150  12.870
52196W        W20537  30.140  29.611   2.287
52197W        W20538  32.521  28.656  12.423
52198W        W20539  27.517  33.049  13.897
52199W        W20540  28.116   8.163   0.826
52200W        W20541   6.405  31.597   0.262
52201W        W20542   8.285  26.535  11.438
52202W        W20543  18.586   3.774   3.367
52203W        W20544   1.909  27.488  13.836
52204W        W20545  36.051   6.812  12.876
52205W        W20546  12.663  12.169   3.219
52206W        W20547  37.977  33.545  12.072
52207W        W20548  34.586  12.785   0.464
52208W        W20549   4.267  27.024   1.851
52209W        W20550   0.889  22.240   4.291
52210W        W20551   0.904   4.375  12.463
52211W        W20552   6.859  37.849  14.491
52212W        W20553  17.678  32.939  12.568
52213W        W20554  10.752  17.625   3.758
52214W        W20555  30.912  37.511  10.038
52215W        W20556   4.782  37.363  12.934
52216W        W20557  39.868   8.179  13.364
52217W        W20558  40.418  16.273   4.689
52218W        W20559  31.408   5.438  14.003
52219W        W20560   9.669  32.917   4.236
52220W        W20561  28.007  32.986   0.867
52221W        W20562  32.085   9.213   3.738
52222W        W20563   9.887   1.348   3.177
52223W        W20564   7.877  44.477   2.756
52224W        W20565  12.146  28.971   0.367
52225W        W20566  28.536  43.838  10.594
52226W        W20567  14.161   1.851   4.225
52227W        W20568  12.162   0.751   1.251
52228W        W20569  15.217  26.548   1.396
52229W        W20570  32.495  37.832  14.839
52230W        W20571  32.572  13.195  11.905
52231W        W20572  27.023  16.706   2.336
52232W        W20573  40.524  37.039  10.586
52233W        W20574  27.519  21.538   2.744
52234W        W20575  37.003   6.275  10.456
52235W        W20576  33.913  16.123  12.521
52236W        W20577  10.755   7.846  12.981
52237W        W20578  13.622  22.009  13.003
52238W        W20579  22.548  43.893   0.374
52239W        W20580   4.747  26.548   1.341
52240W        W20581  43.445   9.865  13.811
52241W        W20582  22.069  27.526   2.395
52242W        W20583  28.634   7.173   3.703
52243W        W20584  33.505  28.564   1.351
52244W        W20585  10.843   5.369  14.759
52245W        W20586  26.498  12.336   3.360
52246W        W20587  21.124  11.248   1.743
52247W        W20588   2.753  42.295   0.915
52248W        W20589  26.544   3.396   2.737
52249W        W20590  32.925  28.578  11.458
52250W        W20591  21.582  12.213   2.267
52251W        W20592  29.445  37.483  11.969
52252W        W20593  16.632  15.688   0.745
52253W        W20594  44.314  35.033  14.338
52254W        W20595   8.314  20.173   1.397
52255W        W20596  43.456  33.542   4.613
52256W        W20597  43.970  38.571  13.007
52257W        W20598   4.777  35.079   3.297
52258W        W20599  23.619  19.584  13.875
52259W        W20600  41.340  37.511   9.974
52260W        W20601  28.154  36.966  11.612
52261W        W20602  42.957  21.640  12.552
52262W        W20603  28.016   0.815   4.816
52263W        W20604   0.459   5.902   3.859
52264W        W20605   3.849  23.687  14.997
52265W        W20606   2.375   2.245   4.194
52266W        W20607   0.380  21.133   4.349
52267W        W20608  42.360  42.306   2.377
52268W        W20609  20.064   3.730  14.000
52269W        W20610   6.837  22.533   3.848
52270W        W20611  37.013  43.283  10.565
52271W        W20612  32.454  15.131  13.922
52272W        W20613  17.061  26.109   3.861
52273W        W20614  37.507  44.453   2.864
52274W        W20615  18.671  43.298  14.983
52275W        W20616  33.008  23.635  12.936
52276W        W20617   3.366  19.650  13.351
52277W        W20618  11.735  19.212  11.049
52278W        W20619  37.412  17.086  13.368
52279W        W20620  15.768   8.816   3.777
52280W        W20621  10.165   1.801  13.814
52281W        W20622  16.278  11.669   2.677
52282W        W20623  42.930  13.265  14.353
52283W        W20624  21.039  13.764  11.863
52284W        W20625   9.301  36.887   3.188
52285W        W20626   1.773  40.494   1.848
52286W        W20627  19.637  34.421   1.924
52287W        W20628  11.360  42.832  10.570
52288W        W20629   9.387  31.072  10.968
52289W        W20630  34.476   1.341   4.121
52290W        W20631  33.031   6.840  10.994
52291W        W20632  14.769   0.948   1.812
52292W        W20633  34.074   3.279  13.459
52293W        W20634  27.962  10.243  11.517
52294W        W20635  31.404  16.772   1.858
52295W        W20636  20.095  31.567   1.444
52296W        W20637  10.677  40.899  12.437
52297W        W20638   2.783  17.128   3.764
52298W        W20639  24.563  19.107  12.340
52299W        W20640  41.435  38.477  11.533
52300W        W20641  44.931   3.348  13.907
52301W        W20642  13.312  39.922   0.766
52302W        W20643  16.587  35.580   5.790
52303W        W20644  16.226  19.699   3.711
52304W        W20645  17.301   2.875   1.384
52305W        W20646   3.337  14.643  14.420
52306W        W20647  27.130  17.616   1.271
52307W        W20648  40.307  39.374   2.749
52308W        W20649  17.604  20.648   1.405
52309W        W20650  43.891  22.063   2.319
52310W        W20651  20.720  22.093   0.279
52311W        W20652  12.211  14.217   0.766
52312W        W20653  18.167   8.842  12.475
52313W        W20654   1.343  33.979   0.418
52314W        W20655  24.141  15.317  10.484
52315W        W20656  29.455  31.102   4.212
52316W        W20657  44.412  14.647  14.442
52317W        W20658   3.885   8.246  14.797
52318W        W20659  31.944  17.215   3.278
52319W        W20660  18.204  40.023  11.027
52320W        W20661  40.979  25.185   2.872
52321W        W20662  23.010  29.477   0.440
52322W        W20663  18.238  33.964   0.363
52323W        W20664  27.987  34.078  11.424
52324W        W20665  17.082   8.330   3.350
52325W        W20666  44.941  24.608  12.409
52326W        W20667  29.519   6.687  12.911
52327W        W20668  23.088  18.091  14.886
52328W        W20669  13.660   0.973  11.000
52329W        W20670  38.030   4.701   2.715
52330W        W20671  12.686  33.473   0.335
52331W        W20672   2.773  17.605   2.276
52332W        W20673  11.864  27.982   3.689
52333W        W20674  36.489   9.150  10.497
52334W        W20675  38.005   3.889  14.492
52335W        W20676  10.246  19.100   3.762
52336W        W20677  36.924  41.904  11.403
52337W        W20678  26.529  22.717  14.434
52338W        W20679   6.835  20.162  10.427
52339W        W20680  44.274  43.477   2.684
52340W        W20681   5.369   0.411  12.830
52341W        W20682  20.725  44.393  14.425
52342W        W20683  34.895  38.956  11.902
52343W        W20684  28.134  17.300  14.904
52344W        W20685   8.371   8.682  10.438
52345W        W20686  40.997   3.804  14.867
52346W        W20687  10.252  20.211  13.846
52347W        W20688   5.295  44.830  14.979
52348W        W20689  11.740  20.227  12.042
52349W        W20690   3.789  36.980   0.299
52350W        W20691  27.630  12.134   3.306
52351W        W20692  27.990  23.624  10.455
52352W        W20693  19.050   4.809   1.832
52353W        W20694   6.216   1.399   4.276
52354W        W20695  25.054  17.766   0.423
52355W        W20696  12.353  30.136  14.377
52356W        W20697  11.687   5.850   2.274
52357W        W20698  34.485  24.142   4.352
52358W        W20699  41.316  21.120  11.552
52359W        W20700  26.599  37.446   3.212
52360W        W20701  39.875  44.757   2.823
52361W        W20702  33.965   0.326   3.232
52362W        W20703   9.793  19.239  10.443
52363W        W20704  18.693  33.509   0.436
52364W        W20705  35.098  22.552  12.416
52365W        W20706  30.151  31.585  13.477
52366W        W20707   9.200  13.211  13.878
52367W        W20708  35.988  25.527  11.513
52368W        W20709   0.847  26.026   4.352
52369W        W20710  18.573  26.099   2.244
52370W        W20711  35.064   0.249   3.217
52371W        W20712  19.555  17.584  14.433
52372W        W20713  18.264   1.733   4.202
52373W        W20714  19.266  32.110   0.343
52374W        W20715  10.225  30.911  10.644
52375W        W20716  27.577  25.112   1.330
52376W        W20717  39.359  36.520   2.387
52377W        W20718  14.179   7.731   4.225
52378W        W20719  21.751  28.588  14.291
52379W        W20720  39.053   5.414  14.311
52380W        W20721   4.386  32.109   2.415
52381W        W20722  25.204  40.987  14.912
52382W        W20723  33.067  15.223  11.593
52383W        W20724  28.656  22.087   3.244
52384W        W20725  43.970   0.889  13.945
52385W        W20726   4.225  42.410  13.886
52386W        W20727  14.120  19.051   4.688
52387W        W20728  27.138   2.722  14.418
52388W        W20729  30.573   2.935  14.471
52389W        W20730  35.904  24.046   2.261
52390W        W20731  40.990  25.972  12.083
52391W        W20732   0.885   5.774   0.811
52392W        W20733  14.176   7.253   2.837
52393W        W20734   4.825  33.381  11.954
52394W        W20735  10.875  35.914  11.904
52395W        W20736  14.830  24.120  14.425
52396W        W20737  37.910  42.498   3.791
52397W        W20738  28.470  40.908   4.815
52398W        W20739   8.899  16.307  12.399
52399W        W20740  27.153   2.311  13.451
52400W        W20741  40.891  39.554   0.800
52401W        W20742  43.286  23.239   4.181
52402W        W20743   3.715  24.555  11.417
52403W        W20744  14.271  10.279  10.602
52404W        W20745  16.573  42.439  10.994
52405W        W20746  23.515  29.079  11.495
52406W        W20747  12.842  31.423  14.918
52407W        W20748   8.777  37.889   0.308
52408W        W20749   8.159  39.503  14.357
52409W        W20750  11.152  25.176   2.373
52410W        W20751   3.448  18.108   3.729
52411W        W20752  34.578  16.078  11.480
52412W        W20753  35.078  18.188  13.474
52413W        W20754  19.674   4.389   3.631
52414W        W20755  19.590  36.453   2.324
52415W        W20756  27.643  26.584  13.433
52416W        W20757  18.168   1.432   0.750
52417W        W20758  21.691   7.794   0.262
52418W        W20759  41.315  10.288  14.944
52419W        W20760  35.553  37.556   3.315
52420W        W20761  26.496  17.104   0.287
52421W        W20762   5.339  19.667   0.456
52422W        W20763  32.992  42.810   1.266
52423W        W20764  42.934  14.142   3.295
52424W        W20765  26.984  17.217  12.577
52425W        W20766   3.918  17.599   3.661
52426W        W20767  24.656  17.230   2.212
52427W        W20768  13.155  32.966   1.375
52428W        W20769  44.482  19.536  13.827
52429W        W20770  13.190  12.751  10.942
52430W        W20771  41.044  34.567   4.329
52431W        W20772   0.853  22.715   1.867
52432W        W20773  18.584  29.996   4.657
52433W        W20774  38.830  13.614   3.846
52434W        W20775  28.166  35.426   3.334
52435W        W20776  28.505   4.305  14.912
52436W        W20777   6.695  42.802  10.484
52437W        W20778  26.153   9.153  11.065
52438W        W20779  16.780  41.314  14.447
52439W        W20780  16.812  34.115   1.339
52440W        W20781  35.989  19.726   1.877
52441W        W20782  35.865  33.079  13.794
52442W        W20783   5.913  33.098  10.923
52443W        W20784  14.777   4.889  10.087
52444W        W20785   4.820  23.699  14.478
52445W        W20786  23.689   4.734   4.308
52446W        W20787  33.081  33.586   1.446
52447W        W20788  30.093  30.529   2.748
52448W        W20789  40.820  26.528  13.313
52449W        W20790  15.780   5.803  11.398
52450W        W20791  24.644  39.540   2.247
52451W        W20792  40.453  43.916   0.757
52452W        W20793  34.536   4.278  14.887
52453W        W20794   6.750  19.551   4.131
52454W        W20795  42.782  20.607   5.320
52455W        W20796  13.129   4.400  12.034
52456W        W20797  35.050  25.173  14.419
52457W        W20798  30.914  11.856   0.459
52458W        W20799   2.333  44.463   4.732
52459W        W20800  17.724  14.121  13.477
52460W        W20801  27.653  12.628  10.486
52461W        W20802  34.915  29.980   1.403
52462W        W20803   2.372  42.457   3.637
52463W        W20804  41.870   1.968   5.201
52464W        W20805  18.622  41.944  10.503
52465W        W20806   8.899  30.997   2.206
52466W        W20807  26.195  11.654   2.823
52467W        W20808  30.644  30.559  11.966
52468W        W20809  21.169   8.374   0.333
52469W        W20810  11.790  32.918   3.308
52470W        W20811  23.562  24.686  13.004
52471W        W20812  24.618  20.706   1.381
52472W        W20813  21.650  10.738  11.488
52473W        W20814  19.123   5.302   2.278
52474W        W20815  25.065  21.745  11.997
52475W        W20816  13.617  39.891   4.756
52476W        W20817  38.333   1.963   2.311
52477W        W20818  11.767  22.683  13.909
52478W        W20819  11.236  37.368  13.051
52479W        W20820   0.446  28.983   4.297
52480W        W20821  11.283  16.578  13.342
52481W        W20822  42.887  38.550   4.310
52482W        W20823  25.509  19.210   3.649
52483W        W20824  10.380  32.066   2.255
52484W        W20825  43.486   0.937  13.317
52485W        W20826  32.893  40.333  13.500
52486W        W20827  44.400  11.741   1.794
52487W        W20828  39.447  15.164  11.442
52488W        W20829  42.288  39.546  10.475
52489W        W20830  23.239  33.087  11.560
52490W        W20831  42.815  33.067   3.310
52491W        W20832  42.944   3.736  12.053
52492W        W20833  10.632  20.189   1.933
52493W        W20834  14.308  36.977   1.803
52494W        W20835  44.419   4.881  12.072
52495W        W20836   8.768  43.454   0.436
52496W        W20837  30.032   9.824   4.238
52497W        W20838  24.529   5.853  14.009
52498W        W20839  31.968  37.887   4.236
52499W        W20840  33.093  31.987  11.568
52500W        W20841  38.855  35.405  13.936
52501W        W20842  34.431  43.965  12.537
52502W        W20843  42.431  32.593   2.334
52503W        W20844  26.164   1.977  13.530
52504W        W20845  28.578  30.064  13.426
52505W        W20846   5.346  12.193  11.007
52506W        W20847  25.975  35.582   4.794
52507W        W20848  35.922  32.940   0.349
52508W        W20849  32.618   3.311   0.366
52509W        W20850  29.649   8.893   3.269
52510W        W20851  34.091  35.088  11.521
52511W        W20852  32.554  29.125  14.309
52512W        W20853  17.285  35.981  11.019
52513W        W20854  17.147  21.019   0.409
52514W        W20855  42.776  20.707  10.924
52515W        W20856   9.666  39.493   0.409
52516W        W20857  44.292   1.463   3.313
52517W        W20858  20.106   8.841  12.450
52518W        W20859  12.239  42.915  12.495
52519W        W20860  31.631  37.950   4.203
52520W        W20861  31.631  16.718  14.761
52521W        W20862   2.848  34.561  11.038
52522W        W20863  10.875  41.520   1.794
52523W        W20864  40.045  18.553   2.228
52524W        W20865  11.773  31.042   2.841
52525W        W20866  30.577  39.866  10.583
52526W        W20867  13.318  44.781   3.749
52527W        W20868   7.401  24.019   1.340
52528W        W20869  42.960  10.367   0.292
52529W        W20870  28.616  28.949  12.567
52530W        W20871  29.091   0.900  11.588
52531W        W20872  44.846   4.791  14.314
52532W        W20873  27.017  44.442   2.874
52533W        W20874  25.518  10.874   4.734
52534W        W20875  31.427  32.905   3.699
52535W        W20876   0.936  19.245   9.595
52536W        W20877  26.110  27.026  12.447
52537W        W20878  31.036   8.173  13.011
52538W        W20879  26.068  36.029   3.753
52539W        W20880  24.196  19.604  13.920
52540W        W20881   5.765  28.637   1.238
52541W        W20882  23.518   9.353  13.517
52542W        W20883  35.941  43.408  10.472
52543W        W20884   6.828  11.293   0.939
52544W        W20885   9.156  31.491  13.937
52545W        W20886  25.974  41.991   3.174
52546W        W20887  40.959  28.028  12.868
52547W        W20888   2.366  15.675  13.012
52548W        W20889  18.112   0.395   1.879
52549W        W20890   5.349  16.720  12.934
52550W        W20891  19.141  19.111  11.573
52551W        W20892  37.551   1.241   2.317
52552W        W20893   3.887  33.990  13.818
52553W        W20894  18.287  41.515   1.894
52554W        W20895  32.621  25.110  10.057
52555W        W20896  20.540  35.367  11.897
52556W        W20897  18.755  26.058  11.428
52557W        W20898  12.666  20.149   3.244
52558W        W20899   3.435  34.509   1.310
52559W        W20900   3.393  14.772  14.933
52560W        W20901  39.918  23.028  10.529
52561W        W20902   7.799  21.073   4.185
52562W        W20903  34.571  40.334   0.276
52563W        W20904  40.848  26.634   1.357
52564W        W20905  30.578   4.277  11.119
52565W        W20906   4.306  20.542  13.877
52566W        W20907   6.384  37.946   0.870
52567W        W20908  23.088  12.298  10.563
52568W        W20909  35.468  10.644   2.302
52569W        W20910  20.620  27.075  13.516
52570W        W20911  40.922  32.433  10.645
52571W        W20912  24.679   6.804  13.990
52572W        W20913  17.775  31.037  12.093
52573W        W20914  16.139  26.984  11.431
52574W        W20915  38.049  35.455   3.745
52575W        W20916  24.630  11.312   0.907
52576W        W20917  30.993  33.001   3.732
52577W        W20918  36.911  25.610   1.892
52578W        W20919   7.689   4.249   4.644
52579W        W20920  18.736   6.743   2.742
52580W        W20921   3.841  35.988  11.462
52581W        W20922   2.759   9.825  11.383
52582W        W20923   1.924  35.442   4.296
52583W        W20924  40.895  29.095  12.949
52584W        W20925  34.436  38.473   3.347
52585W        W20926   0.778  35.443  12.960
52586W        W20927  28.007   9.316  11.124
52587W        W20928   7.306  14.248  11.572
52588W        W20929   0.389  19.683  11.610
52589W        W20930  16.707  25.085  11.607
52590W        W20931   8.397   3.378   4.336
52591W        W20932  29.136  19.679   2.843
52592W        W20933  14.125  29.087   0.842
52593W        W20934  15.721  27.094   2.670
52594W        W20935  11.826  21.256  14.891
52595W        W20936  44.781  39.001   2.747
52596W        W20937   1.961  30.977  14.819
52597W        W20938  27.576  24.618   4.255
52598W        W20939  29.663  19.691  14.766
52599W        W20940  40.337  24.155   4.190
52600W        W20941  11.791  42.781  12.554
52601W        W20942   3.838   5.295   3.352
52602W        W20943  27.003  24.229  12.986
52603W        W20944  26.181  16.629   5.243
52604W        W20945  42.886  28.506  14.359
52605W        W20946  15.215  44.837  11.981
52606W        W20947  13.808  30.561  10.492
52607W        W20948   8.814  30.010   2.776
52608W        W20949  35.473  35.513  12.044
52609W        W20950  41.357  17.231  10.576
52610W        W20951  38.030   3.816   1.788
52611W        W20952   3.788  26.655  10.416
52612W        W20953  30.649  35.397  11.566
52613W        W20954  39.437  39.919  14.442
52614W        W20955   3.954  39.439   1.287
52615W        W20956  17.165  25.492   4.640
52616W        W20957  19.567  24.703  12.435
52617W        W20958   0.399   0.428  13.406
52618W        W20959  36.542  19.690  11.036
52619W        W20960  41.967  18.275   1.858
52620W        W20961   9.846   6.871  14.893
52621W        W20962   1.810   1.245  14.354
52622W        W20963  30.536  41.029  13.029
52623W        W20964   5.834   3.424   1.240
52624W        W20965   1.864   7.766   4.149
52625W        W20966   3.754  38.544   2.826
52626W        W20967  43.815  41.322   0.874
52627W        W20968  18.584  33.484   4.826
52628W        W20969  41.358  43.415  14.426
52629W        W20970  28.597  44.907  11.609
52630W        W20971   1.315  28.994  13.916
52631W        W20972   8.362  34.524  11.067
52632W        W20973  36.386   1.849  12.519
52633W        W20974  25.156  41.538  12.952
52634W        W20975  13.682  18.263  10.481
52635W        W20976  22.215  29.998   4.604
52636W        W20977   0.973  36.455   3.362
52637W        W20978  18.546  15.169   1.233
52638W        W20979  21.565  20.253  12.489
52639W        W20980  40.997  14.599  13.034
52640W        W20981  37.473  32.410  10.614
52641W        W20982   4.816  16.643   2.704
52642W        W20983   2.228  14.151  12.996
52643W        W20984  17.704  19.193  12.070
52644W        W20985  42.980  21.157   0.451
52645W        W20986  17.266  15.670   2.817
52646W        W20987   8.261   0.396   4.318
52647W        W20988  17.217  16.657   2.333
52648W        W20989  11.318  38.952  11.860
52649W        W20990  35.516   3.947   1.909
52650W        W20991  38.866  28.186   1.699
52651W        W20992  25.029  29.983   9.977
52652W        W20993  34.869  23.191  10.550
52653W        W20994   6.748  26.047   2.771
52654W        W20995   4.886  25.491  10.576
52655W        W20996  20.698  20.104  11.970
52656W        W20997   2.428  14.264   2.365
52657W        W20998  16.313  26.139  13.347
52658W        W20999  34.873  30.090   3.636
52659W        W21000  40.522  40.910   4.199
52660W        W21001  19.081  33.423   3.709
52661W        W21002  38.856  34.442  10.033
52662W        W21003  25.601  25.013   0.883
52663W        W21004  19.173  16.101   2.782
52664W        W21005  32.007   9.287  14.991
52665W        W21006  21.173  22.101  12.439
52666W        W21007  15.657  18.562   2.345
52667W        W21008  23.072  11.288   1.403
52668W        W21009   1.746   5.778  14.338
52669W        W21010  22.144  24.163   2.250
52670W        W21011  17.296  27.507   3.782
52671W        W21012   4.738  40.012  13.033
52672W        W21013   9.226  17.257  12.414
52673W        W21014  19.049  42.977   0.870
52674W        W21015  36.015  11.740  14.295
52675W        W21016  17.111  13.152   1.901
52676W        W21017  28.660  32.125   0.870
52677W        W21018  22.221   4.737   4.324
52678W        W21019   6.817   1.294   3.165
52679W        W21020  33.095  35.362  12.936
52680W        W21021  10.658   3.885  14.302
52681W        W21022  22.593  32.969  11.522
52682W        W21023  43.461  10.296  12.560
52683W        W21024  42.403  44.889  10.996
52684W        W21025  27.124  10.155   1.259
52685W        W21026  17.287  42.886   4.279
52686W        W21027  44.994  43.768   2.790
52687W        W21028  27.527  31.045  13.942
52688W        W21029  10.198   6.688   2.194
52689W        W21030   2.434  25.046  14.853
52690W        W21031  29.080  16.762   1.714
52691W        W21032  43.360  15.583   4.772
52692W        W21033   8.225  35.449  11.461
52693W        W21034  41.867   3.884   4.628
52694W        W21035   2.381  19.141  12.569
52695W        W21036  24.655  32.082   3.192
52696W        W21037   8.259  25.686  12.512
52697W        W21038  30.627  33.406  13.948
52698W        W21039   3.935   0.325   2.690
52699W        W21040  38.349  38.491   3.759
52700W        W21041  37.835  39.020   3.171
52701W        W21042  24.538  22.061  11.488
52702W        W21043  15.158  17.602  14.352
52703W        W21044  39.027  25.708   0.365
52704W        W21045  35.398  16.134   0.294
52705W        W21046  26.988   1.479  12.545
52706W        W21047  43.407  27.047  11.595
52707W        W21048   6.278  43.453   4.165
52708W        W21049  33.898   1.337   1.263
52709W        W21050  24.076   5.911  13.863
52710W        W21051  36.516  44.439   1.790
52711W        W21052  42.031   4.814  13.346
52712W        W21053  23.010   9.646  12.427
52713W        W21054  22.202  25.193   1.430
52714W        W21055   7.235  42.885   4.311
52715W        W21056  31.577  13.796  14.480
52716W        W21057   6.220  11.271   1.790
52717W        W21058  19.256  42.976   3.255
52718W        W21059  40.018  15.635  11.497
52719W        W21060   3.385  42.287   0.913
52720W        W21061  27.126  40.416  11.068
52721W        W21062  43.865  44.353  12.511
52722W        W21063   7.400  21.515   1.850
52723W        W21064   9.874  31.069   2.411
52724W        W21065  27.505  21.617   2.403
52725W        W21066  34.389  12.715  14.967
52726W        W21067  12.755  37.575   0.252
52727W        W21068   7.371  25.603   0.434
52728W        W21069  12.800   2.434  13.404
52729W        W21070   1.310  20.627  11.910
52730W        W21071  32.512  34.575   2.788
52731W        W21072  34.960  36.533   1.880
52732W        W21073  31.624  28.138  11.099
52733W        W21074  10.282  15.706  14.863
52734W        W21075  13.614  23.623  13.790
52735W        W21076  20.234  16.095   1.729
52736W        W21077  31.459   5.396  11.558
52737W        W21078  30.452   7.213   4.755
52738W        W21079  36.942  44.277  11.963
52739W        W21080  37.537  26.959   4.280
52740W        W21081  28.974  30.521   3.729
52741W        W21082  18.201  16.722  11.106
52742W        W21083   9.196  25.703   2.284
52743W        W21084   1.929  37.063  14.477
52744W        W21085  31.014  41.869   0.254
52745W        W21086  36.575  43.485   1.216
52746W        W21087  42.826  14.096  13.020
52747W        W21088  15.176  35.530   0.797
52748W        W21089  10.205  14.306   3.219
52749W        W21090  11.276  23.595  11.371
52750W        W21091  10.791  40.819  12.912
52751W        W21092   4.443   9.180  12.525
52752W        W21093  34.497   6.906  13.507
52753W        W21094  33.562  40.004  10.009
52754W        W21095  25.628  26.699   2.701
52755W        W21096  19.658  35.947  14.415
52756W        W21097  33.899   5.296   3.679
52757W        W21098  10.695  29.619   1.232
52758W        W21099  39.024  29.059  10.032
52759W        W21100  12.674  12.785   2.898
52760W        W21101  34.588  14.149  11.601
52761W        W21102  19.238  12.798   1.697
52762W        W21103   0.809   1.863   4.617
52763W        W21104  41.343   8.383  14.389
52764W        W21105  19.741  34.434  10.451
52765W        W21106  37.954  39.450   4.115
52766W        W21107  35.535  38.530  14.786
52767W        W21108  24.973  38.884  11.574
52768W        W21109  11.718  19.669   2.834
52769W        W21110  27.548   2.281  14.961
52770W        W21111   4.879  21.549  12.447
52771W        W21112  30.420  20.111  12.461
52772W        W21113  16.222  23.138  10.107
52773W        W21114  30.919  10.188   2.370
52774W        W21115  21.752  28.006  11.925
52775W        W21116  22.129   7.330  11.055
52776W        W21117   0.478  40.503   4.646
52777W        W21118  13.612  44.897  11.889
52778W        W21119   6.746  18.639  12.580
52779W        W21120  12.289  39.953  10.535
52780W        W21121   3.220  35.957  12.875
52781W        W21122  42.379  37.533  13.853
52782W        W21123  28.095  22.647   4.598
52783W        W21124  25.201  36.358  13.840
52784W        W21125  15.724   0.820  13.355
52785W        W21126  34.957   3.433   4.835
52786W        W21127  14.703  12.664  11.535
52787W        W21128  43.802  41.520  12.891
52788W        W21129  24.533  18.721   4.220
52789W        W21130  24.121  13.199   2.725
52790W        W21131  11.718   6.254   1.850
52791W        W21132   6.200  24.510   3.289
52792W        W21133  18.128  15.667  14.456
52793W        W21134  29.018   4.920  10.544
52794W        W21135  25.533  30.113  14.989
52795W        W21136   1.409  18.170   4.643
52796W        W21137  17.154   4.808   5.144
52797W        W21138  18.086  38.938   3.270
52798W        W21139  39.543  43.797   9.564
52799W        W21140  36.464  28.155  12.022
52800W        W21141   7.807  24.500  13.546
52801W        W21142  19.646   6.679   1.786
52802W        W21143  37.041  42.886  13.049
52803W        W21144  20.091  17.755  14.489
52804W        W21145  26.479  14.283  10.536
52805W        W21146   3.455  17.123  14.334
52806W        W21147   8.236  17.112  12.003
52807W        W21148   8.349   8.779  12.087
52808W        W21149  16.154  36.573   4.308
52809W        W21150  21.568   1.348  10.561
52810W        W21151  18.179  44.465  11.555
52811W        W21152  29.137  12.249   2.867
52812W        W21153  12.224  28.143   3.214
52813W        W21154  44.383   5.354   3.148
52814W        W21155   7.360  14.215   1.384
52815W        W21156  35.034  12.726   3.786
52816W        W21157  18.290  22.998  10.064
52817W        W21158  19.123   3.273  11.946
52818W        W21159  23.229  13.270  11.444
52819W        W21160  26.477  31.939   5.319
52820W        W21161   5.286  12.325  12.914
52821W        W21162  44.973  25.057  12.915
52822W        W21163  22.664  25.182   1.391
52823W        W21164  17.119  31.634   4.631
52824W        W21165  25.157  15.119  14.501
52825W        W21166  23.718  26.665  12.361
52826W        W21167  11.690  23.035   2.417
52827W        W21168  40.423  17.080   2.224
52828W        W21169  29.165  36.528   0.330
52829W        W21170  28.952  31.004  13.820
52830W        W21171  22.210  14.672   0.276
52831W        W21172  35.052  31.085  12.832
52832W        W21173  20.157  26.060   0.951
52833W        W21174  26.059  27.618   1.280
52834W        W21175  18.692   1.283  14.831
52835W        W21176   0.303  41.315  10.443
52836W        W21177  25.502   6.842  12.883
52837W        W21178  28.579  18.097   2.255
52838W        W21179  43.992  39.520  14.911
52839W        W21180  37.398   7.865  14.803
52840W        W21181  25.689  25.039  10.456
52841W        W21182  37.085  41.020   4.286
52842W        W21183  19.556  10.315  11.532
52843W        W21184  29.592  19.174  13.310
52844W        W21185  11.304  11.191  11.069
52845W        W21186  12.334  28.103   2.883
52846W        W21187  40.379  24.214   1.827
52847W        W21188   1.438  37.929  14.924
52848W        W21189  31.104  26.054   1.431
52849W        W21190  44.873  15.329   0.252
52850W        W21191  33.103  39.869   5.182
52851W        W21192   3.879   2.463   2.398
52852W        W21193  44.912  29.662  14.884
52853W        W21194  20.603  33.432  13.809
52854W        W21195  22.602  31.462   9.954
52855W        W21196  35.448  37.349  10.592
52856W        W21197   0.778  17.565   1.718
52857W        W21198  32.624   2.471  13.022
52858W        W21199  11.226   6.682  13.460
52859W        W21200   8.892   7.846  12.356
52860W        W21201  18.709  33.900  13.895
52861W        W21202  23.167   5.337   1.216
52862W        W21203  13.152  28.668   4.751
52863W        W21204  31.403  41.878  14.329
52864W        W21205  40.828  13.612  10.541
52865W        W21206  39.906  35.465   3.286
52866W        W21207  28.183  34.466   1.790
52867W        W21208  20.209  36.997   1.315
52868W        W21209  35.581  23.692  12.071
52869W        W21210  29.918  32.574  12.432
52870W        W21211  43.349   3.893  11.432
52871W        W21212  39.971  44.305  11.372
52872W        W21213  27.071   3.399  13.798
52873W        W21214  19.577  33.541   4.218
52874W        W21215  39.543  18.109  14.469
52875W        W21216   7.753  41.891  10.940
52876W        W21217  43.321  42.306  12.576
52877W        W21218   4.276  22.144   4.707
52878W        W21219  14.324   1.364   4.181
52879W        W21220  29.946   8.696  12.356
52880W        W21221   2.350  41.956  10.897
52881W        W21222  27.172  14.326  12.382
52882W        W21223  27.689  41.517   3.382
52883W        W21224  15.587  31.026   2.229
52884W        W21225   3.865  22.706   1.396
52885W        W21226  36.499  19.561   2.686
52886W        W21227  16.115  31.480   1.438
52887W        W21228   6.888  35.523   1.295
52888W        W21229  37.452  43.440   4.713
52889W        W21230  44.901  10.289   3.813
52890W        W21231   5.702  20.257   0.796
52891W        W21232  10.740  23.063  11.075
52892W        W21233  31.437  33.116   4.701
52893W        W21234   2.323  14.157  12.399
52894W        W21235  42.907  28.946   1.313
52895W        W21236  42.315   3.944   0.753
52896W        W21237   8.269   1.312  12.071
52897W        W21238  10.825  17.665  14.030
52898W        W21239  38.887   7.872   1.315
52899W        W21240  31.931  20.264  11.917
52900W        W21241   1.374   6.350   0.753
52901W        W21242   9.733  15.115  13.910
52902W        W21243  18.691   0.810  12.516
52903W        W21244   9.677  40.351   2.279
52904W        W21245  11.373  38.873  12.557
52905W        W21246  44.340  26.964   0.950
52906W        W21247   2.801  16.263  14.896
52907W        W21248   7.830  37.970  13.910
52908W        W21249  34.040  37.039  12.576
52909W        W21250  17.722  42.954  11.434
52910W        W21251  42.788  14.163  13.409
52911W        W21252  20.052  22.611   4.217
52912W        W21253  14.249  34.549   1.389
52913W        W21254  31.125  39.358  13.944
52914W        W21255  21.572  36.454  11.064
52915W        W21256   2.742  35.588   4.130
52916W        W21257  15.693  38.882   4.274
52917W        W21258  24.027   8.223  12.936
52918W        W21259  34.029  32.473   1.228
52919W        W21260  15.688  16.185   1.859
52920W        W21261  35.555   1.268   2.723
52921W        W21262  41.985  34.979   2.281
52922W        W21263   1.863  42.802  12.441
52923W        W21264  42.460   8.867  12.001
52924W        W21265  34.944  24.135  14.815
52925W        W21266  37.567  11.715  11.902
52926W        W21267  10.271  20.269  14.919
52927W        W21268  25.646  24.680   2.840
52928W        W21269  29.993  19.673   2.419
52929W        W21270  36.845   6.200   0.342
52930W        W21271  16.607  31.114  12.912
52931W        W21272  26.652  33.084  14.299
52932W        W21273   1.316  30.083   2.717
52933W        W21274  37.896  42.832  11.953
52934W        W21275  35.421  19.251   0.944
52935W        W21276  43.817  42.293  14.465
52936W        W21277  28.654  41.859  13.015
52937W        W21278  21.026  37.846   3.294
52938W        W21279  26.152  24.712  14.308
52939W        W21280  15.096  28.598   3.681
52940W        W21281  34.062   3.807   4.289
52941W        W21282  39.848  11.648   0.964
52942W        W21283  24.701  12.689   1.845
52943W        W21284  40.335  30.161  10.450
52944W        W21285  37.538  26.674  11.383
52945W        W21286  20.193  18.783  12.020
52946W        W21287  44.997   7.245  13.865
52947W        W21288  32.585  19.708   1.797
52948W        W21289  13.676  38.391   0.469
52949W        W21290  23.218   7.371   3.802
52950W        W21291  29.666  14.095   2.194
52951W        W21292  19.707  23.126   2.883
52952W        W21293  15.698  18.108   1.905
52953W        W21294  18.631  10.221   2.693
52954W        W21295   4.283  14.290   2.754
52955W        W21296  15.318  17.283   1.763
52956W        W21297  39.491  32.633  14.500
52957W        W21298  25.560  13.187   4.823
52958W        W21299  35.924  25.097  10.484
52959W        W21300  18.292  39.828  11.476
52960W        W21301  16.658  38.011   0.472
52961W        W21302  16.303  41.446  10.944
52962W        W21303  36.039  41.524   0.264
52963W        W21304  19.271  30.543  13.501
52964W        W21305  21.086  27.041   3.313
52965W        W21306  14.664   1.367   4.247
52966W        W21307   8.711  20.144   2.348
52967W        W21308  23.490  22.661  11.581
52968W        W21309  38.566   0.471   2.764
52969W        W21310  34.414  27.484   0.736
52970W        W21311  26.547  14.329   3.793
52971W        W21312  25.978  29.969  14.837
52972W        W21313  27.143  34.562  14.005
52973W        W21314  15.210  36.888   1.347
52974W        W21315  29.923   3.746  12.552
52975W        W21316  23.220  35.962   0.906
52976W        W21317  32.053  38.997   0.915
52977W        W21318  18.662  23.552  14.844
52978W        W21319   5.731  11.828   0.265
52979W        W21320  29.109  34.607  10.499
52980W        W21321  37.834  13.126   4.184
52981W        W21322   1.256  28.555  11.998
52982W        W21323  19.152  33.565  12.825
52983W        W21324  37.546   7.411   0.871
52984W        W21325  30.055  35.101   0.962
52985W        W21326  24.219   1.857  10.148
52986W        W21327  26.978  25.626  13.965
52987W        W21328  33.882  34.378  10.599
52988W        W21329  16.168  14.813  13.990
52989W        W21330  19.604  21.720   2.683
52990W        W21331  25.002  31.037   4.830
52991W        W21332  29.139  39.808   2.337
52992W        W21333   1.388  41.792  13.043
52993W        W21334  28.656  12.217  13.941
52994W        W21335  18.072   0.358   0.343
52995W        W21336  21.079  27.567  13.873
52996W        W21337   4.305  28.114   2.814
52997W        W21338  19.065  31.413  13.944
52998W        W21339  30.413   0.252   4.805
52999W        W21340  32.513  29.509  12.363
53000W        W21341  12.127   1.449  12.467
53001W        W21342  32.915   8.363  14.952
53002W        W21343  40.503  22.108   4.183
53003W        W21344  34.890  25.469   4.617
53004W        W21345  10.139   4.910   2.183
53005W        W21346  34.966  30.936  13.930
53006W        W21347  39.338  44.282  11.936
53007W        W21348  18.271   9.691  11.425
53008W        W21349  14.186  24.518   4.122
53009W        W21350  36.499  39.401   2.225
53010W        W21351  30.155  21.168  13.472
53011W        W21352  19.545  24.188  11.400
53012W        W21353  24.534   5.260  12.953
53013W        W21354  25.092   5.377  12.961
53014W        W21355  33.947  43.420   4.262
53015W        W21356  38.996   9.819  12.937
53016W        W21357  36.017  42.815   4.760
53017W        W21358  22.617   0.468  12.418
53018W        W21359  16.275   3.333   5.135
53019W        W21360   6.755  21.758  12.465
53020W        W21361   3.795  22.551  10.023
53021W        W21362  32.604  26.189   0.890
53022W        W21363  34.375  22.590  12.999
53023W        W21364   4.709  39.971   0.933
53024W        W21365  44.008   2.335   3.726
53025W        W21366  41.518   5.776  13.485
53026W        W21367  21.656  27.598   1.816
53027W        W21368  14.178   1.297  11.053
53028W        W21369  18.240  32.426   2.303
53029W        W21370  43.006  30.089   0.387
53030W        W21371  19.604  10.813  11.026
53031W        W21372  22.048   4.352  10.569
53032W        W21373  10.346  16.217   1.446
53033W        W21374  19.677  11.688   4.249
53034W        W21375  23.161  32.469   2.325
53035W        W21376  43.437  31.924   1.829
53036W        W21377  44.787  15.173   2.765
53037W        W21378  20.155  44.308  11.571
53038W        W21379  10.810  22.047   2.209
53039W        W21380   0.932  36.058  14.025
53040W        W21381   3.392  30.539   2.316
53041W        W21382  13.671  37.854  12.502
53042W        W21383  44.937  25.565   2.398
53043W        W21384  14.177  10.692  14.401
53044W        W21385  28.557  43.273   0.751
53045W        W21386  18.745  32.111  10.564
53046W        W21387   9.799  21.099   0.949
53047W        W21388  15.671  23.100   4.215
53048W        W21389  12.183  25.138   3.216
53049W        W21390  12.693   5.811   1.225
53050W        W21391  24.045  43.343  14.785
53051W        W21392  34.471  36.352   3.832
53052W        W21393  29.152  11.207   3.177
53053W        W21394   6.287  26.625   0.436
53054W        W21395  18.685  27.065  11.953
53055W        W21396  22.178  38.566  10.621
53056W        W21397   3.732  11.681  11.388
53057W        W21398  32.095   3.881   2.206
53058W        W21399  14.172  42.396   1.932
53059W        W21400  19.221  30.939  11.081
53060W        W21401  40.428  33.424   5.162
53061W        W21402  24.050   5.690   1.899
53062W        W21403  24.521  43.466   4.614
53063W        W21404  22.081  28.560   3.297
53064W        W21405  16.176  39.057  11.054
53065W        W21406  12.776  30.459  10.444
53066W        W21407  17.221  34.968  14.933
53067W        W21408  24.613  43.349  11.495
53068W        W21409   9.777  30.070  14.288
53069W        W21410   2.282   0.307   2.870
53070W        W21411  15.093   5.340   3.842
53071W        W21412  37.882  30.649   2.690
53072W        W21413  44.895   2.861  13.820
53073W        W21414   3.899  22.051  11.427
53074W        W21415  26.666  27.052   5.181
53075W        W21416  25.034   7.192  11.039
53076W        W21417  35.062  36.841  13.025
53077W        W21418  23.719  37.843   1.407
53078W        W21419  17.666  43.012  13.373
53079W        W21420  27.953  25.637  13.926
53080W        W21421  40.335  21.545   1.831
53081W        W21422  41.850   6.788   4.755
53082W        W21423  43.886  39.065   2.821
53083W        W21424  20.550   2.845   4.328
53084W        W21425   5.736   5.883   1.328
53085W        W21426  40.962  33.490   4.772
53086W        W21427  30.490  44.906   0.465
53087W        W21428  11.156  16.289   0.727
53088W        W21429  33.435  39.323  14.278
53089W        W21430  35.566  16.695   0.915
53090W        W21431  41.831  20.219   0.261
53091W        W21432  10.641   1.788  14.446
53092W        W21433   8.667  34.455  12.871
53093W        W21434  37.552  15.086   1.417
53094W        W21435  41.789  32.012   5.189
53095W        W21436  23.073   1.286  11.025
53096W        W21437  35.368  21.532   4.756
53097W        W21438   2.720  43.515   0.463
53098W        W21439  11.779  41.944   1.831
53099W        W21440  14.104  42.486   3.654
53100W        W21441  28.122  40.872  12.973
53101W        W21442  25.052   1.799   2.663
53102W        W21443  31.953  33.019  12.389
53103W        W21444  43.943  32.587   4.758
53104W        W21445  25.667  28.950  13.816
53105W        W21446   9.835  26.165  13.922
53106W        W21447   9.299  20.234   0.407
53107W        W21448  13.843  43.451  10.533
53108W        W21449  32.541  28.436  10.619
53109W        W21450  11.348  19.536  14.288
53110W        W21451  35.050  19.163  11.571
53111W        W21452  43.387  14.690  13.407
53112W        W21453  40.816  26.703  11.919
53113W        W21454  40.799  31.621   3.690
53114W        W21455   0.279   5.383  10.637
53115W        W21456  16.242  42.376  13.536
53116W        W21457  38.331  22.245  12.921
53117W        W21458   0.470   6.902  12.898
53118W        W21459  24.084  44.000  11.573
53119W        W21460  33.562  18.689   0.305
53120W        W21461  40.945   3.726   4.207
53121W        W21462  19.598  39.323  11.984
53122W        W21463  37.902  20.272  10.417
53123W        W21464   4.760   2.322   4.203
53124W        W21465   4.808  20.172   4.737
53125W        W21466  34.887   6.427   0.279
53126W        W21467  10.761  26.996  10.544
53127W        W21468   3.329   7.401   0.812
53128W        W21469  39.963  34.989  12.841
53129W        W21470  39.012  29.614   2.260
53130W        W21471  18.182  23.209  13.408
53131W        W21472  42.450  15.206  10.512
53132W        W21473  29.154  25.003  13.426
53133W        W21474  25.687  41.452  11.102
53134W        W21475  34.932  29.097   1.270
53135W        W21476  33.438  16.689   1.843
53136W        W21477  12.225   9.851  11.909
53137W        W21478  36.590   7.198   4.695
53138W        W21479  28.178  21.695   0.802
53139W        W21480  19.207   5.410   1.854
53140W        W21481  37.842  31.474  11.117
53141W        W21482   1.312  11.752  11.972
53142W        W21483  31.073   8.683  10.414
53143W        W21484  31.977  18.681  10.970
53144W        W21485  36.052   4.894   3.182
53145W        W21486  18.233  35.055   4.305
53146W        W21487  24.496  16.688   2.812
53147W        W21488  22.019  20.172   3.665
53148W        W21489   1.382   6.208  11.014
53149W        W21490  25.188  18.686   4.323
53150W        W21491  37.877  18.613   4.644
53151W        W21492  31.107  30.446   5.160
53152W        W21493   5.327   4.887  11.864
53153W        W21494  43.409  40.909  11.532
53154W        W21495  38.437  11.200  14.294
53155W        W21496  25.032  12.808  13.885
53156W        W21497  10.328  10.380  10.939
53157W        W21498  15.756  43.929  12.557
53158W        W21499  44.353  19.587   3.850
53159W        W21500  21.088  37.990   1.914
53160W        W21501  29.047  39.931  13.013
53161W        W21502  25.003  23.650   2.672
53162W        W21503  41.836   1.330   1.270
53163W        W21504  13.661   6.690   4.791
53164W        W21505  15.241  33.490  14.492
53165W        W21506  42.785  42.396  10.422
53166W        W21507  19.143  25.014  14.767
53167W        W21508  43.955  18.218   4.299
53168W        W21509  12.361  38.965  10.484
53169W        W21510   5.873  39.858   3.660
53170W        W21511  42.461  19.560   3.309
53171W        W21512   2.372  31.079  12.399
53172W        W21513  29.997  14.175  14.833
53173W        W21514  40.011  23.507   4.808
53174W        W21515   1.747  35.408  11.575
53175W        W21516  19.272  17.594  11.612
53176W        W21517  25.556  17.088  12.038
53177W        W21518  11.337   0.259  14.022
53178W        W21519  32.907  22.620  11.565
53179W        W21520  37.989   9.736   4.345
53180W        W21521  14.144   4.213   1.846
53181W        W21522  43.271  34.483  13.335
53182W        W21523  38.973   7.379   3.840
53183W        W21524  25.529  34.975   1.828
53184W        W21525  37.011  17.609   2.348
53185W        W21526  36.534   1.421   3.236
53186W        W21527  15.209  43.404  12.860
53187W        W21528  37.086  38.363  11.993
53188W        W21529   8.893  16.768  13.956
53189W        W21530  14.608  10.350  11.903
53190W        W21531  21.531  19.189   1.300
53191W        W21532  39.452  27.176  11.534
53192W        W21533  13.753  43.489  13.802
53193W        W21534  14.250  20.617  11.557
53194W        W21535  35.039  30.127  13.489
53195W        W21536   4.882  43.905  10.911
53196W        W21537   5.352  27.497   3.363
53197W        W21538  30.042  39.813   0.782
53198W        W21539   6.412   1.786  11.530
53199W        W21540   4.451   7.265   4.306
53200W        W21541   2.456  24.110   3.831
53201W        W21542  30.477   4.449   2.296
53202W        W21543   3.927   7.290   2.269
53203W        W21544  15.124  42.402  13.482
53204W        W21545  32.899  24.705   4.664
53205W        W21546  27.611   5.691  11.400
53206W        W21547  33.052  13.250   2.233
53207W        W21548   3.319  16.238   2.736
53208W        W21549   2.747   1.880   0.928
53209W        W21550   0.846  39.873   0.386
53210W        W21551  31.014  26.589  13.060
53211W        W21552  13.738  44.874  10.997
53212W        W21553  38.489  18.746   0.339
53213W        W21554  44.855   2.724   2.885
53214W        W21555   7.830  14.640  13.336
53215W        W21556  42.892  29.161  14.796
53216W        W21557  34.516  13.645   0.925
53217W        W21558  39.379  31.403  12.491
53218W        W21559  23.688   5.829   2.193
53219W        W21560  18.253  36.916  11.107
53220W        W21561  24.577  43.348   1.223
53221W        W21562  39.852  28.108   3.821
53222W        W21563  12.158  24.123   0.819
53223W        W21564  19.118  35.897   0.283
53224W        W21565   9.703  25.994  11.473
53225W        W21566   7.784  41.370  14.458
53226W        W21567   3.353  10.382   1.797
53227W        W21568  31.406   6.271   1.449
53228W        W21569   4.324  42.968  11.932
53229W        W21570  21.255  20.103  13.399
53230W        W21571  33.535   9.885  11.999
53231W        W21572  44.483  21.172  10.416
53232W        W21573   7.735   7.335  13.840
53233W        W21574   9.207  39.419  10.993
53234W        W21575  23.094  26.957   4.157
53235W        W21576  27.555  12.156   1.242
53236W        W21577  31.494  17.063   0.910
53237W        W21578   5.736  33.569   3.374
53238W        W21579  28.534  27.537  11.930
53239W        W21580  31.554  25.979  12.859
53240W        W21581  27.506  24.575  14.355
53241W        W21582   4.806  20.108  10.901
53242W        W21583  31.054  35.008   1.254
53243W        W21584  43.332  43.803  14.300
53244W        W21585   7.229  20.269  10.962
53245W        W21586  38.554  37.931   0.354
53246W        W21587  39.327   1.309   3.154
53247W        W21588  11.315  32.110   2.802
53248W        W21589  19.171   7.871  11.460
53249W        W21590   2.829  31.032  12.015
53250W        W21591   6.213  19.657   5.142
53251W        W21592  44.476  31.444   0.797
53252W        W21593  31.006  18.191   0.792
53253W        W21594   9.178   8.246   2.811
53254W        W21595  15.152  20.163  13.062
53255W        W21596  17.671  42.476   2.876
53256W        W21597  10.309  13.268   0.786
53257W        W21598  44.933  21.531   5.777
53258W        W21599  22.061   6.715  11.508
53259W        W21600  42.345   9.180  14.863
53260W        W21601   5.808  40.819   1.339
53261W        W21602  19.046   7.878   2.833
53262W        W21603  26.206   4.931  14.030
53263W        W21604  19.707  10.213   0.801
53264W        W21605  37.424  36.431   0.320
53265W        W21606  26.493  25.063   3.193
53266W        W21607  26.109  26.670   3.152
53267W        W21608   9.152   5.755  13.927
53268W        W21609  41.343  33.440   1.752
53269W        W21610  44.985  44.925  11.540
53270W        W21611   3.226   6.365   3.816
53271W        W21612  35.944  17.799   0.877
53272W        W21613   3.460   6.320   5.161
53273W        W21614  19.159  41.844  13.965
53274W        W21615  29.486  44.946  12.043
53275W        W21616  35.029  39.905   0.889
53276W        W21617  43.952  29.008  11.091
53277W        W21618  15.276  38.561  10.115
53278W        W21619  40.885  28.542   2.241
53279W        W21620  12.323   4.698  13.511
53280W        W21621  38.493  23.729  12.558
53281W        W21622  19.264   5.916  12.030
53282W        W21623  12.180  22.121   4.282
53283W        W21624  29.041  28.035  12.409
53284W        W21625   0.846  26.685  13.024
53285W        W21626  40.371  34.972  12.498
53286W        W21627  41.039  10.169  14.759
53287W        W21628  43.896   0.366  13.515
53288W        W21629  15.776  18.250   3.274
53289W        W21630  39.509   8.282   4.325
53290W        W21631  14.656  34.988  11.596
53291W        W21632   7.839  39.996  11.936
53292W        W21633  41.470  43.005  13.488
53293W        W21634  34.991  26.546  14.450
53294W        W21635  25.963  26.990   3.757
53295W        W21636  38.887   1.333   4.263
53296W        W21637  28.551   3.821   0.727
53297W        W21638  13.232  37.388   0.418
53298W        W21639  27.955   8.866   4.282
53299W        W21640  30.103  25.003   4.804
53300W        W21641  15.088  13.207   1.366
53301W        W21642  10.868   0.773  10.597
53302W        W21643  10.716  43.329   0.388
53303W        W21644  21.522  39.389   2.332
53304W        W21645   8.769  37.954  14.409
53305W        W21646   6.220  28.014  12.533
53306W        W21647  22.217  21.113   1.703
53307W        W21648  41.476  35.016   0.882
53308W        W21649  37.339  35.872  13.925
53309W        W21650  17.706  24.137   9.613
53310W        W21651  25.495   9.192   3.857
53311W        W21652  33.593  14.236  14.450
53312W        W21653  16.580  24.085   3.802
53313W        W21654  18.193   2.321   0.386
53314W        W21655  35.932  26.143  11.893
53315W        W21656  24.126  16.259  10.570
53316W        W21657  12.187  13.124  11.523
53317W        W21658  36.548  20.610   4.250
53318W        W21659   1.468  34.079  11.391
53319W        W21660   0.419  33.387   4.179
53320W        W21661   5.691  42.822  14.406
53321W        W21662  37.080  16.747   3.720
53322W        W21663  26.499  25.043   0.262
53323W        W21664  32.044  22.225  14.797
53324W        W21665  24.120  26.494   2.833
53325W        W21666   8.322  24.138  14.450
53326W        W21667  15.243  11.683   4.695
53327W        W21668  22.679  33.619  12.011
53328W        W21669  18.686  19.278  12.483
53329W        W21670   0.911  22.009   4.658
53330W        W21671  24.679  26.146  14.786
53331W        W21672  21.590  31.529   1.397
53332W        W21673  44.302  38.068   2.829
53333W        W21674   5.845   7.244   4.824
53334W        W21675  31.140  26.147  12.465
53335W        W21676  25.158  21.137  12.061
53336W        W21677  17.232  34.872   0.389
53337W        W21678  17.120  40.421  12.900
53338W        W21679   9.293   5.701  11.018
53339W        W21680  40.412  14.731  10.404
53340W        W21681   8.398  41.299   2.343
53341W        W21682  25.709  35.958  10.981
53342W        W21683  42.992  36.562  11.019
53343W        W21684  33.460  31.148  14.295
53344W        W21685  14.656  12.670   4.124
53345W        W21686  37.338   1.342  11.001
53346W        W21687  33.956  35.519   2.379
53347W        W21688  42.421   4.283  12.347
53348W        W21689   1.882  22.016  12.544
53349W        W21690  13.316  30.417   1.237
53350W        W21691   4.734  37.856   2.768
53351W        W21692   6.756  40.839  11.389
53352W        W21693   6.181  22.747  11.490
53353W        W21694  32.598   1.418  13.965
53354W        W21695  20.070  33.931   2.664
53355W        W21696   5.917  42.834  11.017
53356W        W21697  27.095  23.196  12.961
53357W        W21698  13.607  14.641  11.411
53358W        W21699  17.790  17.703  12.480
53359W        W21700  29.593  29.999   1.731
53360W        W21701  25.713  24.070   2.386
53361W        W21702  13.693  18.751   0.858
53362W        W21703  28.675  41.386   1.710
53363W        W21704  26.596   7.208   3.359
53364W        W21705  17.219  24.030   4.164
53365W        W21706  20.756  21.557   2.381
53366W        W21707  11.355  38.528   3.264
53367W        W21708   0.842  20.231   0.795
53368W        W21709  44.434  10.326   1.832
53369W        W21710  12.803  24.145   1.744
53370W        W21711  43.459  17.648  12.083
53371W        W21712  22.132  37.965  10.594
53372W        W21713  34.486   8.267   1.335
53373W        W21714  16.222  34.437   1.237
53374W        W21715   9.201  19.553   2.839
53375W        W21716  30.124  38.910   1.225
53376W        W21717   7.674  10.261   1.429
53377W        W21718  10.265  43.504  14.487
53378W        W21719   4.754  19.190   1.782
53379W        W21720  34.481  23.073   0.266
53380W        W21721  43.991  43.902   1.764
53381W        W21722  15.615  19.693  14.360
53382W        W21723  21.105   4.223   1.854
53383W        W21724  23.631   3.376   3.373
53384W        W21725  21.702  27.523   3.794
53385W        W21726  37.068  22.526  11.436
53386W        W21727   0.961  17.650  14.996
53387W        W21728  22.570  27.037   1.392
53388W        W21729  44.490   3.433  13.466
53389W        W21730  13.262  30.551   0.432
53390W        W21731  30.154   9.222   4.322
53391W        W21732  23.567  19.203   9.558
53392W        W21733   9.180  34.528  14.450
53393W        W21734  32.408  43.766   0.946
53394W        W21735  31.018   6.715   4.138
53395W        W21736  42.508  10.216   2.876
53396W        W21737  23.118  22.066  13.890
53397W        W21738  16.811  33.014   2.769
53398W        W21739  20.180   8.374  11.991
53399W        W21740  25.607  21.700   2.822
53400W        W21741   2.396  15.676  10.981
53401W        W21742  16.234   0.861   4.762
53402W        W21743  42.913  35.555   3.214
53403W        W21744   4.725  35.051  12.371
53404W        W21745  33.500  29.589   0.479
53405W        W21746  29.622  27.148  14.826
53406W        W21747   9.651  40.349  11.941
53407W        W21748  13.247  17.279   2.327
53408W        W21749  19.757  18.264   4.754
53409W        W21750  42.868  13.231  12.409
53410W        W21751   1.945  40.892   0.925
53411W        W21752  31.913  35.071  13.033
53412W        W21753   7.892  13.210   0.770
53413W        W21754  40.961   2.894   0.258
53414W        W21755  37.846  20.076  13.307
53415W        W21756  26.155  15.167   2.269
53416W        W21757  38.900   6.787  13.015
53417W        W21758   4.336   1.789   4.746
53418W        W21759  15.581   9.709   2.887
53419W        W21760  43.306  40.038  13.858
53420W        W21761  26.601   6.880  10.533
53421W        W21762  26.174  14.161   0.936
53422W        W21763  35.494   4.835   9.990
53423W        W21764  11.278   9.735  12.381
53424W        W21765   9.158  19.551   5.149
53425W        W21766  14.320  26.488  13.537
53426W        W21767   5.308  36.462  11.549
53427W        W21768   2.920  31.965  11.585
53428W        W21769  19.050  35.559   1.212
53429W        W21770  26.065  34.506  11.021
53430W        W21771   2.341   3.451   1.848
53431W        W21772  37.078   8.372   3.217
53432W        W21773   0.447  44.393   4.267
53433W        W21774  42.993  26.198  13.843
53434W        W21775  32.583  35.024   2.282
53435W        W21776   9.294  29.557  12.430
53436W        W21777  40.823  24.024  13.794
53437W        W21778  36.093  20.714  10.459
53438W        W21779  19.709   5.235  13.976
53439W        W21780   9.741  16.259  13.507
53440W        W21781  36.891  32.490   1.749
53441W        W21782  37.348  17.131   4.683
53442W        W21783  31.428  27.581   4.726
53443W        W21784  23.054   6.222  13.852
53444W        W21785  30.930  35.363   0.770
53445W        W21786  11.305   5.922  12.430
53446W        W21787   6.183  40.975   2.401
53447W        W21788  24.156  35.576  13.523
53448W        W21789  39.938  41.987  13.904
53449W        W21790  31.022  44.806  10.596
53450W        W21791   8.839  39.024   0.862
53451W        W21792  36.563  18.067   2.855
53452W        W21793   0.932   6.209   4.270
53453W        W21794   8.231  32.502   4.192
53454W        W21795  34.002  44.378  14.960
53455W        W21796  34.440   7.792  14.352
53456W        W21797  30.644  11.641   1.449
53457W        W21798  36.563  33.926  13.317
53458W        W21799  38.031   2.297  14.764
53459W        W21800   9.767   0.822   0.294
53460W        W21801  27.463  41.927   3.227
53461W        W21802  32.483  19.691  12.009
53462W        W21803  10.792  10.305  13.833
53463W        W21804  30.937  34.580  13.373
53464W        W21805  25.675  28.068  13.388
53465W        W21806  30.915  41.386  11.114
53466W        W21807   0.249  24.196  11.474
53467W        W21808  16.241   7.308   1.811
53468W        W21809  34.908  13.754  10.572
53469W        W21810  27.159  30.589  11.124
53470W        W21811  24.596  38.489  11.866
53471W        W21812  24.539  35.574   3.852
53472W        W21813  24.671  32.496  14.295
53473W        W21814  10.372  34.075   1.704
53474W        W21815  22.187  18.577  14.465
53475W        W21816  24.571   3.832   1.299
53476W        W21817   2.378  20.244  13.420
53477W        W21818  15.771  32.471  10.895
53478W        W21819  11.200   7.695   0.392
53479W        W21820   7.196  26.185  13.021
53480W        W21821  23.663  18.626  12.447
53481W        W21822  13.287  35.455   3.329
53482W        W21823  24.560  31.010   3.288
53483W        W21824   1.967  23.212   0.436
53484W        W21825  20.714  40.369   4.185
53485W        W21826  14.302  40.026  10.989
53486W        W21827  43.782  12.815   2.193
53487W        W21828   0.338  34.893  13.058
53488W        W21829  11.350  32.486   1.750
53489W        W21830   9.738  29.926  12.353
53490W        W21831  25.143   1.757  11.952
53491W        W21832  13.347  41.990  12.555
53492W        W21833  24.015  12.712   2.328
53493W        W21834  22.202  40.458  13.309
53494W        W21835  35.872  19.630  11.060
53495W        W21836  29.174  43.426  14.992
53496W        W21837  38.475   3.377  13.968
53497W        W21838  13.324   6.384   0.828
53498W        W21839  25.592  11.187  14.861
53499W        W21840  24.505  19.167  10.555
53500W        W21841   3.420  10.195   3.191
53501W        W21842  30.009  10.850  13.522
53502W        W21843  40.052   8.358  12.381
53503W        W21844  20.695  19.658  14.504
53504W        W21845   8.282  36.439  13.332
53505W        W21846  32.143  20.214  14.909
53506W        W21847  37.459  30.996   4.797
53507W        W21848  14.757   5.877  12.499
53508W        W21849  38.526  28.135  14.786
53509W        W21850  14.251  44.478   3.196
53510W        W21851  16.786  10.159  13.512
53511W        W21852  20.035  22.642   1.330
53512W        W21853  28.161  38.338   0.957
53513W        W21854  40.442  20.747   1.427
53514W        W21855  35.463   2.865   1.284
53515W        W21856  34.876   8.689   3.668
53516W        W21857  41.299  41.327   4.138
53517W        W21858  33.496  15.664  13.836
53518W        W21859   6.854   2.824  12.045
53519W        W21860  20.609  37.041  13.879
53520W        W21861  39.364  41.369   2.229
53521W        W21862  33.004   3.346   0.891
53522W        W21863  32.456  42.004  12.012
53523W        W21864  40.304   1.454   2.367
53524W        W21865  32.463  13.690  14.024
53525W        W21866  18.710  10.808  11.433
53526W        W21867  44.844  26.158  12.825
53527W        W21868   9.658  11.758  12.075
53528W        W21869  20.135  11.724  10.046
53529W        W21870  27.952   5.707  11.062
53530W        W21871  37.084  43.319   0.907
53531W        W21872  11.137  18.242   0.296
53532W        W21873  20.602   9.387   2.837
53533W        W21874  25.010  21.708   1.407
53534W        W21875  36.541  40.921   4.115
53535W        W21876  20.586  14.262  10.907
53536W        W21877  44.781  33.926   3.339
53537W        W21878  26.620  44.366  10.640
53538W        W21879  17.163  39.018   2.185
53539W        W21880  28.448  31.604   4.601
53540W        W21881  20.097  44.365  12.357
53541W        W21882   9.236  26.656   3.314
53542W        W21883  17.148  27.460  11.857
53543W        W21884  32.981  40.510   3.635
53544W        W21885  11.166  15.230   4.254
53545W        W21886   8.288  15.804   1.220
53546W        W21887  20.098   7.403  14.995
53547W        W21888  27.142  27.115  13.516
53548W        W21889  17.106  25.658  12.406
53549W        W21890  38.991   0.863   0.277
53550W        W21891  37.943  23.073   2.897
53551W        W21892  24.502  10.851   4.153
53552W        W21893  32.509  27.455   4.736
53553W        W21894  22.067   8.658  13.871
53554W        W21895  41.914   6.262  12.561
53555W        W21896  36.898   9.257  13.338
53556W        W21897  39.431  29.468   3.854
53557W        W21898  25.538   7.854   4.694
53558W        W21899  19.055  24.615   2.409
53559W        W21900  32.927   7.799   0.274
53560W        W21901  17.624  16.127  10.630
53561W        W21902   0.279   1.900  10.986
53562W        W21903  44.455  18.186   4.121
53563W        W21904  39.943   9.730  13.425
53564W        W21905  23.226  43.375  10.995
53565W        W21906  40.382  26.635   3.293
53566W        W21907  18.238  28.146   4.760
53567W        W21908  20.093  32.956  14.309
53568W        W21909   1.414  21.060  14.490
53569W        W21910   7.413   7.780  11.124
53570W        W21911  13.230  42.789  10.000
53571W        W21912   8.326  33.989   2.269
53572W        W21913   4.767   0.811   3.658
53573W        W21914  43.490  37.515   2.276
53574W        W21915   4.857  25.588   4.811
53575W        W21916  31.645  37.537   2.784
53576W        W21917  27.167  29.147  14.294
53577W        W21918   6.762  19.617  11.077
53578W        W21919  20.220   5.225   3.724
53579W        W21920  20.044  19.762   3.759
53580W        W21921   5.851  21.060   4.119
53581W        W21922  42.811  30.156  14.884
53582W        W21923  42.965  36.924  11.463
53583W        W21924  35.961  12.341  11.021
53584W        W21925  30.647  38.068   4.706
53585W        W21926   8.399  10.219   0.457
53586W        W21927   4.263   7.860  13.040
53587W        W21928   8.277  39.050  14.506
53588W        W21929  29.174   1.348   1.434
53589W        W21930  24.587  44.353   4.704
53590W        W21931  12.343  29.537   4.606
53591W        W21932  21.037  35.521  12.379
53592W        W21933  36.068  19.248   4.151
53593W        W21934  10.837  26.993   1.796
53594W        W21935  26.024  41.002   4.308
53595W        W21936  32.114  14.095   4.342
53596W        W21937  25.125   7.801   3.251
53597W        W21938  10.272  36.929  12.357
53598W        W21939  32.577  40.834  12.976
53599W        W21940  36.910  17.284  11.898
53600W        W21941   0.851  21.682   0.474
53601W        W21942   4.881   9.322  10.548
53602W        W21943   7.225  24.637   2.693
53603W        W21944  28.096   6.220  11.027
53604W        W21945   8.753  17.695  13.513
53605W        W21946  36.537  37.954   1.914
53606W        W21947  23.024   5.741   2.314
53607W        W21948   0.781  19.203  13.444
53608W        W21949  34.102  32.941  13.057
53609W        W21950   4.294   0.900  12.883
53610W        W21951   0.417  25.056  14.387
53611W        W21952   2.949  33.919  13.358
53612W        W21953  44.339  12.628   0.745
53613W        W21954  37.471  13.659   4.321
53614W        W21955  38.875  25.530   5.241
53615W        W21956  14.190  13.652   3.666
53616W        W21957  30.516   8.817  11.534
53617W        W21958  30.996   4.880  13.817
53618W        W21959  40.854   0.958  14.875
53619W        W21960  37.956  29.437  14.354
53620W        W21961   0.917  19.668   1.915
53621W        W21962  44.993  29.506   2.195
53622W        W21963  19.692  43.436   0.309
53623W        W21964   2.291  42.474  12.517
53624W        W21965  31.143  14.232   0.873
53625W        W21966  37.839  17.129   1.427
53626W        W21967   8.737  16.582   1.823
53627W        W21968  24.588   1.837  12.361
53628W        W21969  37.037  25.011   0.730
53629W        W21970  19.697  17.730  10.596
53630W        W21971  10.284   9.858   4.330
53631W        W21972  14.822  15.285   3.640
53632W        W21973  35.531   9.281  13.876
53633W        W21974  12.780  28.541   1.920
53634W        W21975  28.486   5.414   4.147
53635W        W21976   4.260  39.555   4.136
53636W        W21977  22.726  43.333   4.836
53637W        W21978  12.624  18.719   0.246
53638W        W21979   9.675  10.788   2.395
53639W        W21980  44.269  10.156  11.425
53640W        W21981  18.766  25.501  10.585
53641W        W21982  15.586  26.658  14.354
53642W        W21983  21.215  11.308  11.500
53643W        W21984  12.207  38.874   2.398
53644W        W21985  26.586   5.815   1.383
53645W        W21986  35.571  21.592   0.436
53646W        W21987  41.396   2.748   1.281
53647W        W21988  31.532  20.696  10.949
53648W        W21989  29.462  19.129  12.368
53649W        W21990   2.830  28.605  13.341
53650W        W21991  24.614  25.145   3.266
53651W        W21992  21.689   6.426   0.796
53652W        W21993  23.692  11.218   1.219
53653W        W21994  10.854  10.752   4.150
53654W        W21995   0.402  11.758  12.505
53655W        W21996  15.152  21.043   1.820
53656W        W21997  29.521  41.345   2.899
53657W        W21998  15.732  28.036  11.994
53658W        W21999  26.472  11.152   1.760
53659W        W22000  37.427   8.272  11.543
53660W        W22001   6.205  15.725  11.581
53661W        W22002   9.246   3.394   4.644
53662W        W22003  13.751   4.241  13.326
53663W        W22004  13.205  43.321  12.907
53664W        W22005  15.747  24.143  12.445
53665W        W22006  29.579  33.494   1.845
53666W        W22007   5.750  17.284   2.663
53667W        W22008  44.925  32.960   4.829
53668W        W22009  18.192   5.699  10.920
53669W        W22010  18.614  17.755  10.524
53670W        W22011  44.504  21.254   0.751
53671W        W22012  31.090  23.143   0.248
53672W        W22013  30.465  14.323  14.355
53673W        W22014  15.208  25.182   2.247
53674W        W22015  22.747  15.225  11.868
53675W        W22016  24.725  16.140   4.316
53676W        W22017  24.662  35.886   3.867
53677W        W22018  27.592  37.449  14.871
53678W        W22019  35.525   0.987  10.411
53679W        W22020  42.377  32.492   0.311
53680W        W22021  38.483  22.679  14.768
53681W        W22022  21.226  11.761  14.512
53682W        W22023  30.559  16.302   3.283
53683W        W22024  42.527  30.039   2.727
53684W        W22025   5.837   8.404  14.340
53685W        W22026  31.493   6.919  13.522
53686W        W22027  15.230  18.617  13.520
53687W        W22028  29.551  25.628   4.209
53688W        W22029  28.103  11.231  13.944
53689W        W22030   9.395  38.533   3.841
53690W        W22031  22.663  29.545   2.312
53691W        W22032  10.262  15.224   2.691
53692W        W22033  29.475  38.848   5.126
53693W        W22034   8.659  39.384  12.473
53694W        W22035  15.260  32.089   2.808
53695W        W22036  40.317  19.272   2.358
53696W        W22037  21.165  36.904  11.946
53697W        W22038  14.273   2.739  13.323
53698W        W22039  44.892  26.534   0.879
53699W        W22040  40.505  10.814  11.545
53700W        W22041   7.670  40.364   1.926
53701W        W22042  33.391  44.850  10.529
53702W        W22043  11.867  36.068   3.835
53703W        W22044   3.720  34.004   3.273
53704W        W22045   0.882  21.638  14.964
53705W        W22046   3.827  15.242   3.324
53706W        W22047  35.953   1.765  14.902
53707W        W22048  28.496  27.972   2.416
53708W        W22049   6.378  14.648   4.292
53709W        W22050   1.749  16.813   9.638
53710W        W22051  30.535  37.845   4.118
53711W        W22052  13.659  11.276  11.523
53712W        W22053  17.283  19.718   2.388
53713W        W22054  40.009   5.357   3.800
53714W        W22055  33.379   1.362  12.909
53715W        W22056  28.526  27.642  10.582
53716W        W22057   1.951  35.503   1.771
53717W        W22058  36.538  38.510  14.823
53718W        W22059  11.813  30.953  11.931
53719W        W22060  35.008  36.959  10.578
53720W        W22061  40.468  10.333  14.315
53721W        W22062  29.993  34.471   0.294
53722W        W22063  10.633  10.140   2.272
53723W        W22064  42.290   2.929   0.758
53724W        W22065  42.520  32.592  11.388
53725W        W22066  13.655  13.629  11.001
53726W        W22067   9.865  12.162   0.420
53727W        W22068  38.395  39.370  14.875
53728W        W22069  35.377   8.862   0.887
53729W        W22070  16.300  11.128   4.759
53730W        W22071   7.304  23.493   1.339
53731W        W22072  26.068  29.082  10.083
53732W        W22073   1.771  31.464  13.875
53733W        W22074  23.708  25.059  14.496
53734W        W22075  20.554  37.454  12.374
53735W        W22076  41.930  26.696   2.238
53736W        W22077  35.970   8.761   4.616
53737W        W22078  43.982   6.269   4.246
53738W        W22079  14.792  25.618  10.973
53739W        W22080   5.333  29.025   1.926
53740W        W22081  30.010   3.834   4.732
53741W        W22082  23.063  42.315   4.647
53742W        W22083  12.836   0.767  10.631
53743W        W22084   9.852  29.106   2.206
53744W        W22085  30.909  21.023   3.164
53745W        W22086  23.683  15.600   3.749
53746W        W22087  36.873  23.112   4.829
53747W        W22088   5.836  23.569   0.860
53748W        W22089  12.841  10.254   3.790
53749W        W22090   3.920  42.907  11.941
53750W        W22091  18.690  26.477   9.993
53751W        W22092  22.153   1.787  14.289
53752W        W22093  22.196  11.214   4.339
53753W        W22094  26.984  31.075  12.835
53754W        W22095  18.600  23.657   1.868
53755W        W22096   1.831  27.484   4.789
53756W        W22097  23.573  42.463   1.765
53757W        W22098  21.042  44.452   3.724
53758W        W22099  37.466  16.217   2.808
53759W        W22100  32.524  16.798   0.360
53760W        W22101   1.833  23.702  12.008
53761W        W22102   4.871   2.422  11.880
53762W        W22103  25.126   8.355   4.628
53763W        W22104  30.575  32.073  12.843
53764W        W22105  21.247  14.292  10.483
53765W        W22106  25.713   2.890   3.369
53766W        W22107  29.583  22.194   0.425
53767W        W22108  29.167  22.165  13.887
53768W        W22109   8.370  21.683  11.874
53769W        W22110  31.550  35.520  11.966
53770W        W22111  26.029   9.161   3.687
53771W        W22112  20.028  32.108   0.759
53772W        W22113  25.005  30.921   3.816
53773W        W22114  15.268  17.219  13.049
53774W        W22115   2.772  19.206   4.799
53775W        W22116  37.561  18.647  14.947
53776W        W22117   8.822  19.741   9.958
53777W        W22118  30.033   5.381   2.729
53778W        W22119  17.097  42.325  14.806
53779W        W22120  26.105  24.688  11.402
53780W        W22121   6.813  38.987  14.928
53781W        W22122  10.865   0.969   1.860
53782W        W22123  21.692  16.280   4.753
53783W        W22124  18.180   8.820  14.495
53784W        W22125  26.597   3.945   3.184
53785W        W22126  15.643  13.794   3.663
53786W        W22127  22.530  30.948  12.356
53787W        W22128  15.632  40.870   4.640
53788W        W22129  25.574  17.247  10.974
53789W        W22130  24.108  13.179  11.045
53790W        W22131  11.204   1.375   4.717
53791W        W22132   4.314   3.400   2.220
53792W        W22133  44.934  32.035  11.575
53793W        W22134   4.766  14.121  12.406
53794W        W22135   8.769  36.930   4.209
53795W        W22136  23.171  35.486   2.359
53796W        W22137  19.230  22.703  11.081
53797W        W22138  35.565  13.152  13.312
53798W        W22139   6.899   3.765  14.766
53799W        W22140   2.332   7.897  11.056
53800W        W22141  20.141  36.357   1.428
53801W        W22142  11.217  33.450   0.409
53802W        W22143  43.794  35.068  12.882
53803W        W22144  41.336  13.638   3.857
53804W        W22145  15.663  29.134  11.118
53805W        W22146  40.499  28.568   3.701
53806W        W22147  14.645  18.191  14.017
53807W        W22148   7.713  18.176   1.837
53808W        W22149  23.123  17.626  12.423
53809W        W22150  37.026  11.201   3.370
53810W        W22151  32.137  33.570  11.860
53811W        W22152   9.178   3.927  13.428
53812W        W22153  21.102  12.178   0.729
53813W        W22154   0.294  18.172   2.762
53814W        W22155  43.328  44.879   0.452
53815W        W22156   9.204  14.232  11.908
53816W        W22157  30.497  14.640   3.349
53817W        W22158  40.446  36.438   2.335
53818W        W22159   6.189  22.674   0.320
53819W        W22160  34.608   2.796  12.529
53820W        W22161   2.881   4.732  11.407
53821W        W22162  38.552   2.736  12.364
53822W        W22163  42.010  35.365  14.937
53823W        W22164  13.269  16.210   0.460
53824W        W22165  39.885  41.900  10.057
53825W        W22166   6.799   3.436  10.533
53826W        W22167   4.295   5.436   3.630
53827W        W22168   2.406  12.676  11.101
53828W        W22169   1.888  29.453   1.392
53829W        W22170  26.465  17.590   2.790
53830W        W22171   6.706  30.451   2.274
53831W        W22172  13.282   5.855   3.705
53832W        W22173   9.342  35.528  13.392
53833W        W22174  19.698   7.849  12.051
53834W        W22175  10.780  18.154  11.488
53835W        W22176  42.449  28.567  13.353
53836W        W22177  40.835  42.836   1.307
53837W        W22178  33.395   0.264   3.151
53838W        W22179  22.184   7.679   0.443
53839W        W22180  11.148  10.722  12.907
53840W        W22181  30.067  12.643  10.906
53841W        W22182  31.456  24.496  13.404
53842W        W22183  29.553  11.367   3.287
53843W        W22184   4.799  23.023  13.390
53844W        W22185  27.538  38.052   3.726
53845W        W22186  17.589  13.203   1.835
53846W        W22187   5.878   5.883  14.513
53847W        W22188  27.065  21.236   0.912
53848W        W22189  35.906   3.798   2.739
53849W        W22190  32.429  19.050  14.966
53850W        W22191  20.606  30.997  12.085
53851W        W22192  40.851  20.216   3.195
53852W        W22193  35.390  26.485  13.547
53853W        W22194  28.496   2.887  13.825
53854W        W22195  35.487  25.999  12.525
53855W        W22196   1.273  33.028  14.345
53856W        W22197  32.567   9.733  11.994
53857W        W22198  24.015  12.233   0.403
53858W        W22199  44.494  24.691  10.613
53859W        W22200  27.112   6.338  12.516
53860W        W22201  25.139  34.011   4.153
53861W        W22202  39.835  22.686   2.212
53862W        W22203  19.759  34.993   2.803
53863W        W22204   4.331  27.567  14.315
53864W        W22205   8.798  11.127  14.456
53865W        W22206  30.038   9.281  14.965
53866W        W22207  32.578  28.636   1.253
53867W        W22208  36.440  19.201  13.927
53868W        W22209  11.140   0.822   1.400
53869W        W22210  15.600  38.559   3.857
53870W        W22211  39.829  42.918  12.025
53871W        W22212  37.971  29.993  12.918
53872W        W22213  16.616  24.013   0.327
53873W        W22214  43.797   2.238  11.859
53874W        W22215  20.629  20.590   2.286
53875W        W22216  41.947  29.938  11.062
53876W        W22217  31.966  36.941  13.472
53877W        W22218  41.790  27.002   2.357
53878W        W22219  18.119  38.457  12.481
53879W        W22220   1.823  15.659   3.692
53880W        W22221   3.453  16.685   9.997
53881W        W22222  39.952  20.091  11.602
53882W        W22223  26.651  23.214   3.787
53883W        W22224  39.940   9.734  12.058
53884W        W22225  35.500  36.475   4.199
53885W        W22226  33.994   4.243  11.984
53886W        W22227  13.798  44.380  11.097
53887W        W22228  44.458  30.563  10.920
53888W        W22229   1.882  26.633   1.375
53889W        W22230  27.474   0.910  12.418
53890W        W22231  23.039  32.092  10.914
53891W        W22232  18.164  41.985   1.289
53892W        W22233  30.571  27.592  12.051
53893W        W22234  30.493  32.571   3.164
53894W        W22235  44.993   4.936   0.959
53895W        W22236   0.456  35.898  13.865
53896W        W22237  32.563  25.572  13.909
53897W        W22238  31.615  40.307  11.573
53898W        W22239  34.373  39.462  13.898
53899W        W22240  20.217  37.497  12.527
53900W        W22241  12.834  33.530  14.378
53901W        W22242  10.825   7.305   4.738
53902W        W22243  27.689  32.946  11.088
53903W        W22244  20.746  14.598  13.023
53904W        W22245  30.115  35.095   1.340
53905W        W22246  34.945  42.947  10.434
53906W        W22247  33.449  35.497   2.252
53907W        W22248  41.453  31.558  11.941
53908W        W22249   2.408   0.480  10.075
53909W        W22250  29.099  40.951   3.264
53910W        W22251   5.911   8.864  11.026
53911W        W22252  21.141   2.245  10.916
53912W        W22253  14.263  24.147   2.689
53913W        W22254   9.645   6.788   0.266
53914W        W22255  22.636   0.269   3.241
53915W        W22256   4.862  30.590   4.316
53916W        W22257  18.629  41.927  13.317
53917W        W22258   6.764  26.130  10.434
53918W        W22259  37.478  13.766   2.357
53919W        W22260  30.559  23.195   1.402
53920W        W22261  16.235  34.907  10.946
53921W        W22262  37.903  18.232   0.829
53922W        W22263  30.532  36.467  14.984
53923W        W22264  20.108  11.642   1.294
53924W        W22265   4.205  14.638   4.670
53925W        W22266  36.884   3.379   0.903
53926W        W22267   7.842  11.148   4.138
53927W        W22268  22.650  33.922   0.425
53928W        W22269  18.270  31.504  11.973
53929W        W22270   2.414   9.370  14.881
53930W        W22271  33.028  26.521  12.884
53931W        W22272   8.320  10.187  11.984
53932W        W22273  29.167   2.351   1.317
53933W        W22274  23.218  43.791   0.960
53934W        W22275  41.323  37.550   2.236
53935W        W22276  24.559   3.344   1.725
53936W        W22277   7.885  38.053   4.263
53937W        W22278  24.521  30.980  10.476
53938W        W22279  39.409  24.582   3.833
53939W        W22280   0.384  35.904   0.480
53940W        W22281  13.141  22.110  10.450
53941W        W22282  23.066  31.642   3.706
53942W        W22283  29.066  37.562   2.708
53943W        W22284  39.952  39.522  14.914
53944W        W22285  33.896  16.741  13.469
53945W        W22286  14.123   1.961  10.528
53946W        W22287  15.264  43.808   0.277
53947W        W22288  28.495  31.607   1.860
53948W        W22289  42.871   7.189  10.478
53949W        W22290   7.309  35.364  14.432
53950W        W22291   9.849   2.383   4.182
53951W        W22292   8.883  12.681   4.248
53952W        W22293  23.501  27.984   4.788
53953W        W22294  43.331  34.042   0.909
53954W        W22295   5.761   8.201  12.094
53955W        W22296  37.941  35.058  13.000
53956W        W22297  12.660  13.142  13.397
53957W        W22298   7.258  17.212  13.038
53958W        W22299   0.415  20.590   3.712
53959W        W22300  32.595  14.658   0.889
53960W        W22301  38.394   8.174   0.380
53961W        W22302  40.350  43.942   5.198
53962W        W22303  18.250  38.448   0.374
53963W        W22304  44.855  10.162  14.310
53964W        W22305  31.044  38.905   2.378
53965W        W22306   0.895   4.270  13.859
53966W        W22307  35.059  30.099   1.767
53967W        W22308  36.504  35.882  12.953
53968W        W22309   9.725   5.311  13.047
53969W        W22310  11.353  30.136  12.937
53970W        W22311  37.527  24.003   4.280
53971W        W22312  32.004   0.895   1.737
53972W        W22313  31.621  27.091  10.417
53973W        W22314  22.217  34.949   1.305
53974W        W22315  38.023  38.852  12.930
53975W        W22316  39.321  11.802  12.481
53976W        W22317  12.707   8.310  11.089
53977W        W22318  23.543   3.404  14.927
53978W        W22319  35.041   5.285   4.195
53979W        W22320  21.641  38.445   3.159
53980W        W22321   5.345  27.953   1.416
53981W        W22322  18.099  11.721   1.442
53982W        W22323  33.022  42.397  12.070
53983W        W22324  38.353  28.586  14.863
53984W        W22325  11.305  25.979  13.476
53985W        W22326   7.768   8.301  10.460
53986W        W22327  22.709  26.697  12.451
53987W        W22328  34.893  42.967  13.793
53988W        W22329  10.869  16.659  14.849
53989W        W22330  17.557  28.440  14.408
53990W        W22331   4.701  42.388  11.076
53991W        W22332  23.089  26.014  11.889
53992W        W22333  38.386   3.891   3.319
53993W        W22334  25.618  33.609   0.876
53994W        W22335  23.123  26.960   4.672
53995W        W22336  10.809  39.461  14.950
53996W        W22337  17.750  36.349  14.960
53997W        W22338  34.941  35.956   4.675
53998W        W22339  23.160  11.816   3.748
53999W        W22340   7.858  34.495  11.968
54000W        W22341  20.683  27.474  11.427
54001W        W22342  42.459  38.377  12.095
54002W        W22343  30.999   5.348   1.259
54003W        W22344  20.238  11.732   0.811
54004W        W22345   3.303   1.857  11.017
54005W        W22346   4.864   4.912  14.461
54006W        W22347   9.879  11.766   4.146
54007W        W22348   9.293  33.600   2.717
54008W        W22349  35.563  15.189   3.284
54009W        W22350  15.735  41.430   4.332
54010W        W22351  18.271  25.085   2.405
54011W        W22352  14.608   8.790   4.741
54012W        W22353  28.041  23.700   1.423
54013W        W22354  36.081  23.237   3.823
54014W        W22355  13.165  35.988  12.414
54015W        W22356  43.881   3.360  13.031
54016W        W22357   3.750  26.573   0.478
54017W        W22358  23.051   5.412  14.459
54018W        W22359  13.600  33.426  14.446
54019W        W22360  31.090  20.676  12.472
54020W        W22361   1.305  29.087  12.824
54021W        W22362  13.211  36.471  12.362
54022W        W22363  15.627  15.158   3.184
54023W        W22364  44.940  13.639   4.781
54024W        W22365  35.388  28.112  10.493
54025W        W22366  32.908  39.999  14.459
54026W        W22367  42.022  18.720   1.744
54027W        W22368   3.278  15.242  11.896
54028W        W22369  26.075  28.589   2.392
54029W        W22370  20.620   1.360   3.353
54030W        W22371  36.383  23.700  12.529
54031W        W22372  19.268   5.201  13.359
54032W        W22373  38.553  16.100  13.374
54033W        W22374   7.707  34.946   0.345
54034W        W22375   7.854   5.242   2.387
54035W        W22376  34.447  17.094  14.774
54036W        W22377  25.619  12.299   0.912
54037W        W22378  29.572  19.771  12.502
54038W        W22379  14.141  25.691  13.451
54039W        W22380  42.796  27.466   2.316
54040W        W22381  44.406   6.803   4.730
54041W        W22382  15.251  17.662   4.753
54042W        W22383  30.026  10.738  12.853
54043W        W22384  43.817  32.591  14.020
54044W        W22385   9.160  10.667   0.283
54045W        W22386   4.220  22.606  14.410
54046W        W22387  22.560  41.367  11.375
54047W        W22388  28.568  31.461  14.366
54048W        W22389  24.485   1.332  11.887
54049W        W22390   9.164   7.357   5.154
54050W        W22391   4.714  40.352   3.190
54051W        W22392   7.744  31.569  14.441
54052W        W22393  36.381   4.444  14.405
54053W        W22394  39.871  12.718   0.290
54054W        W22395  23.159  27.053   1.284
54055W        W22396  34.467  25.169  10.429
54056W        W22397  10.765  19.072   0.927
54057W        W22398  38.455  17.205  11.916
54058W        W22399  15.237   3.906   4.786
54059W        W22400  34.555  44.844   0.454
54060W        W22401  35.418  17.801  12.078
54061W        W22402  40.027  30.491  10.909
54062W        W22403  43.354  25.638  13.439
54063W        W22404  21.106  41.500   1.884
54064W        W22405  27.115  16.158   3.640
54065W        W22406  30.064  10.695  11.587
54066W        W22407  18.157  14.308  13.486
54067W        W22408   2.385  41.427   1.363
54068W        W22409  33.077  29.587  14.761
54069W        W22410  19.194  25.550   3.332
54070W        W22411  30.034  38.459  12.573
54071W        W22412  33.592  36.994  11.105
54072W        W22413  44.870  20.053   2.675
54073W        W22414   6.203  22.538  10.580
54074W        W22415  16.762  41.972   2.663
54075W        W22416   9.276  18.173   2.862
54076W        W22417   3.254  10.808   0.295
54077W        W22418  42.898   9.820  12.971
54078W        W22419  39.531  38.015   2.201
54079W        W22420  39.041   4.862   0.288
54080W        W22421  36.933  31.925   2.811
54081W        W22422  25.171  35.026   3.324
54082W        W22423   4.407  34.006  13.874
54083W        W22424  38.992  17.097   2.852
54084W        W22425  32.512  26.122  14.379
54085W        W22426  11.768  21.245   3.331
54086W        W22427  23.078  11.736  12.084
54087W        W22428   1.440  25.638  13.439
54088W        W22429  12.126  18.227  13.383
54089W        W22430  35.398  26.204  12.078
54090W        W22431  28.955   5.262  11.411
54091W        W22432  38.985  17.684   4.803
54092W        W22433  40.361   7.263   3.162
54093W        W22434   4.769  17.243   1.818
54094W        W22435  24.572  14.707   2.807
54095W        W22436  18.550   3.940  10.576
54096W        W22437   4.941  17.296  10.911
54097W        W22438  35.360   6.762  12.930
54098W        W22439  44.351  26.090   5.189
54099W        W22440  30.067  35.460  10.893
54100W        W22441   7.707  11.762   4.152
54101W        W22442  38.068  19.570   1.848
54102W        W22443   6.794  41.999   1.451
54103W        W22444  34.545  12.687  13.032
54104W        W22445  22.220  15.738   3.204
54105W        W22446   2.931  10.168  12.976
54106W        W22447  31.540  24.120  10.598
54107W        W22448  30.481  23.013   2.338
54108W        W22449  20.096   8.846   0.864
54109W        W22450   6.745  14.328  10.522
54110W        W22451  39.427  21.180  11.100
54111W        W22452  13.737  23.651  13.423
54112W        W22453  37.948  30.997   4.225
54113W        W22454   1.319  21.172   3.213
54114W        W22455  39.811  23.170  14.936
54115W        W22456  35.576  35.995  12.489
54116W        W22457   3.322  44.788  12.515
54117W        W22458  10.698  39.832   4.245
54118W        W22459  21.048  10.784  12.914
54119W        W22460  33.051  41.514   0.409
54120W        W22461  28.024  33.896  14.895
54121W        W22462  41.323   8.788   1.319
54122W        W22463  32.452  24.228  13.847
54123W        W22464   4.713  28.051  11.465
54124W        W22465  26.134   6.376   4.694
54125W        W22466  32.023  15.232  10.600
54126W        W22467  11.716   6.768   1.710
54127W        W22468  35.588  39.495   1.709
54128W        W22469  40.479  17.740  13.888
54129W        W22470  14.190  25.201  12.896
54130W        W22471  20.131  11.345  11.918
54131W        W22472  10.644  44.437   2.353
54132W        W22473  22.210   7.267   1.276
54133W        W22474  18.634   5.288   3.817
54134W        W22475   0.961  14.338   4.282
54135W        W22476  27.991  34.041   0.777
54136W        W22477  26.621  29.424   5.096
54137W        W22478   1.897   6.419  12.358
54138W        W22479   4.319  14.216   3.688
54139W        W22480  44.478  21.640  14.389
54140W        W22481  13.296  34.499  12.408
54141W        W22482  11.701   4.911   0.761
54142W        W22483  44.263  29.644  10.912
54143W        W22484  38.993   4.802  14.366
54144W        W22485  30.019  25.205   1.769
54145W        W22486  38.980  25.598   4.303
54146W        W22487  10.745  38.058  12.839
54147W        W22488  32.995  13.645   0.897
54148W        W22489  23.074  13.151   4.634
54149W        W22490  30.539  26.471  12.046
54150W        W22491  19.692  25.693  12.472
54151W        W22492  31.439  43.353   3.301
54152W        W22493  36.901  38.449   1.770
54153W        W22494  43.963  30.613  11.973
54154W        W22495  38.873  33.396   1.243
54155W        W22496  43.822  40.401  14.459
54156W        W22497  20.151  12.191   3.690
54157W        W22498  32.032   8.392  11.971
54158W        W22499  12.807   6.301  12.411
54159W        W22500  13.797  26.161  10.978
54160W        W22501   5.826  19.704  14.392
54161W        W22502  20.634  15.751  13.843
54162W        W22503  19.062  26.589   0.460
54163W        W22504  19.061  44.869   0.791
54164W        W22505  10.343  26.966   3.285
54165W        W22506   7.821  19.061  14.016
54166W        W22507  19.778  26.186  12.008
54167W        W22508  37.426  11.257  14.398
54168W        W22509  28.087  31.580  14.911
54169W        W22510   2.888  33.017  14.814
54170W        W22511   9.648   8.296  10.979
54171W        W22512  37.434  36.471   4.685
54172W        W22513  10.842  25.031   2.789
54173W        W22514  13.185   8.764  11.888
54174W        W22515  18.187  13.809   1.421
54175W        W22516  32.549  44.792   4.788
54176W        W22517  29.550  36.886  13.431
54177W        W22518  25.622   4.739  13.905
54178W        W22519   4.867  22.115   2.864
54179W        W22520  35.500   8.800   1.825
54180W        W22521   8.382  25.041   3.833
54181W        W22522   9.383  22.552   1.711
54182W        W22523  25.084  19.726  12.908
54183W        W22524  41.334  17.557   1.313
54184W        W22525   2.872   1.779  12.997
54185W        W22526   9.231   7.282  14.873
54186W        W22527  32.542  23.014   3.864
54187W        W22528  19.136   8.271   1.784
54188W        W22529  38.930  44.276  11.094
54189W        W22530  30.968  14.716   4.266
54190W        W22531  42.807   8.213  13.978
54191W        W22532  40.385  35.879   1.443
54192W        W22533  26.578  12.120   1.215
54193W        W22534   1.271  24.200  14.775
54194W        W22535  15.707  23.004  13.911
54195W        W22536  25.134  17.688  11.515
54196W        W22537  31.410  39.995   1.785
54197W        W22538   9.347  20.696   3.350
54198W        W22539  13.750  30.553   1.396
54199W        W22540  26.148   7.188  12.018
54200W        W22541  25.672   8.239   2.862
54201W        W22542   0.253  42.981   3.148
54202W        W22543  34.380  18.644   3.800
54203W        W22544  15.589  11.133  10.041
54204W        W22545  14.649  38.065  12.454
54205W        W22546   2.904  24.081   4.121
54206W        W22547  20.665  13.605   1.762
54207W        W22548  25.132  10.735  14.946
54208W        W22549   0.443  24.506  14.994
54209W        W22550   8.201   0.437  12.844
54210W        W22551  44.330  11.222  13.826
54211W        W22552  20.251  17.257   3.774
54212W        W22553  31.041  21.746  14.348
54213W        W22554  15.137  32.008   1.430
54214W        W22555  25.994  28.626  12.018
54215W        W22556  23.995   0.860  12.967
54216W        W22557  44.861  38.444   2.677
54217W        W22558  23.140  30.953   3.266
54218W        W22559   8.812  14.128  14.345
54219W        W22560   1.402  12.248  11.568
54220W        W22561  30.118  36.473   1.767
54221W        W22562  39.323  26.642  14.999
54222W        W22563  36.921  43.412   4.272
54223W        W22564   8.175  23.072   3.349
54224W        W22565  19.086  30.924  13.464
54225W        W22566  37.525  19.653   2.215
54226W        W22567  39.468  20.561   2.673
54227W        W22568  20.127  10.680   2.392
54228W        W22569  33.131  39.028  14.454
54229W        W22570   6.209  12.811   3.232
54230W        W22571  16.703  39.449  11.918
54231W        W22572  43.971  32.916  13.402
54232W        W22573   0.346  27.556  13.370
54233W        W22574   0.965  13.174  10.543
54234W        W22575  13.662  30.521   2.845
54235W        W22576  16.625  36.581   3.153
54236W        W22577  21.138  30.447   0.834
54237W        W22578   2.258  38.372  14.485
54238W        W22579   3.283  20.031   1.262
54239W        W22580   5.706  38.065   4.137
54240W        W22581  28.651  14.589  12.873
54241W        W22582   0.784  22.054   1.401
54242W        W22583  31.940  28.550   2.823
54243W        W22584   1.826  29.611  13.422
54244W        W22585  29.532  12.668   0.242
54245W        W22586  24.170  22.172   0.396
54246W        W22587  30.046  11.311  14.850
54247W        W22588  32.052  31.632   0.432
54248W        W22589   5.738   4.375  11.865
54249W        W22590   0.851  36.850  10.597
54250W        W22591  20.050  28.617   4.790
54251W        W22592  26.504  24.105   3.707
54252W        W22593   3.444   7.207  11.430
54253W        W22594  18.226   8.743   3.276
54254W        W22595  12.322  28.084  10.559
54255W        W22596  15.735  12.721   4.250
54256W        W22597  19.606  32.587  14.785
54257W        W22598  21.724  32.087   2.287
54258W        W22599  30.617  26.149  12.528
54259W        W22600  30.944  40.813  11.462
54260W        W22601  33.950   6.362   3.651
54261W        W22602  21.143  22.535  11.881
54262W        W22603   2.292  22.189   3.705
54263W        W22604  39.011  23.731  12.555
54264W        W22605  21.677  21.258   3.678
54265W        W22606   1.469   2.729   0.437
54266W        W22607   5.794  15.097  14.467
54267W        W22608   6.847  29.450   4.748
54268W        W22609  26.478  28.633  12.934
54269W        W22610  14.654  23.228  13.537
54270W        W22611  25.578  40.491  12.398
54271W        W22612  37.408  44.772  14.897
54272W        W22613  22.119  28.494  10.462
54273W        W22614  20.618  39.813  14.495
54274W        W22615  41.801  26.467  10.993
54275W        W22616  35.570   2.320  11.119
54276W        W22617  15.693  20.150  11.571
54277W        W22618  35.361  13.257  11.398
54278W        W22619   8.301   7.174   3.359
54279W        W22620  26.633   6.839   0.742
54280W        W22621   0.840   5.350  13.021
54281W        W22622  19.654  44.396  10.580
54282W        W22623  36.500  14.247  11.592
54283W        W22624  38.831  11.175   0.249
54284W        W22625  18.727  21.649  10.476
54285W        W22626  40.987  28.984  10.597
54286W        W22627  28.120  34.121  11.925
54287W        W22628  13.276   2.862  13.895
54288W        W22629  13.611  21.747   3.209
54289W        W22630  41.905  37.470   2.363
54290W        W22631   6.355  17.273  11.090
54291W        W22632  37.931   7.242   1.381
54292W        W22633   4.796  35.029  13.953
54293W        W22634  34.925   3.954   4.150
54294W        W22635  37.849  22.186  12.035
54295W        W22636   5.406  32.034  13.044
54296W        W22637  18.259  19.720  14.963
54297W        W22638  38.363  20.716   4.253
54298W        W22639  44.341  22.746  14.511
54299W        W22640  40.801   1.283  14.886
54300W        W22641  24.711   7.709   4.302
54301W        W22642  44.391  10.789   0.297
54302W        W22643  41.304  36.585  12.034
54303W        W22644  12.356   5.311  11.945
54304W        W22645  40.972  36.454   2.385
54305W        W22646  35.365  24.567  12.353
54306W        W22647  11.672  29.920  14.370
54307W        W22648  25.151  22.059  10.450
54308W        W22649  14.808  40.307  10.896
54309W        W22650   2.323  27.145  11.483
54310W        W22651  27.472  40.349   4.144
54311W        W22652  28.038  15.250   3.630
54312W        W22653  23.178   9.162  12.573
54313W        W22654  41.297  41.942   9.554
54314W        W22655  16.694  34.036  12.926
54315W        W22656  21.657   1.822  14.990
54316W        W22657  31.013  43.856  10.909
54317W        W22658  42.950  29.936   1.799
54318W        W22659   9.303  27.623   0.797
54319W        W22660  23.522  37.472   2.681
54320W        W22661  28.088   7.876  12.004
54321W        W22662   5.754  24.027   1.431
54322W        W22663  25.047  39.048   3.715
54323W        W22664   7.374   3.716   3.229
54324W        W22665  25.565  34.083   4.333
54325W        W22666  16.160  22.132   0.259
54326W        W22667  22.195  38.049  13.518
54327W        W22668  34.888  12.260   1.779
54328W        W22669   9.687  10.748   0.807
54329W        W22670  27.066  14.333   3.829
54330W        W22671  21.170  32.508   1.819
54331W        W22672  14.720  22.069   1.257
54332W        W22673  12.813   8.222   0.263
54333W        W22674  34.422  16.237   0.919
54334W        W22675  15.203  33.556   2.852
54335W        W22676   5.357  20.768   1.819
54336W        W22677  36.405  10.803  11.020
54337W        W22678  29.429   8.798  11.411
54338W        W22679   0.820  26.701   4.200
54339W        W22680  27.585  43.400   2.239
54340W        W22681  27.578   3.256  10.909
54341W        W22682  20.655  33.498  11.979
54342W        W22683  36.948  18.784   2.891
54343W        W22684   2.271   2.777   0.309
54344W        W22685  37.533  20.603   2.300
54345W        W22686   1.357  29.104  13.329
54346W        W22687  31.041  33.560  11.121
54347W        W22688  16.642  38.571   4.159
54348W        W22689  34.005  29.107  13.537
54349W        W22690  11.680  38.031   2.692
54350W        W22691  30.561  16.713  12.540
54351W        W22692   1.765  12.658   1.221
54352W        W22693  13.259  30.141   1.353
54353W        W22694  23.501  25.503  10.905
54354W        W22695  34.482  11.804   2.688
54355W        W22696   1.935  22.525  14.957
54356W        W22697   6.247  11.637   2.235
54357W        W22698  10.138  23.118  11.893
54358W        W22699   0.792  28.512  14.302
54359W        W22700   9.820  24.201   3.695
54360W        W22701  14.706  28.940  12.879
54361W        W22702  22.063  22.631  14.887
54362W        W22703  20.171   1.973   2.788
54363W        W22704  16.579  43.380   1.301
54364W        W22705  32.107   3.256   2.209
54365W        W22706  40.830  18.674  12.048
54366W        W22707  37.478  10.178   4.125
54367W        W22708  33.058   3.749   1.803
54368W        W22709  44.417  42.869  12.497
54369W        W22710   5.699  35.015   0.799
54370W        W22711  27.582  32.083  13.923
54371W        W22712  40.889  11.630   3.632
54372W        W22713   4.361  34.581  14.896
54373W        W22714   7.283  24.149  13.441
54374W        W22715   6.295  10.184  13.537
54375W        W22716   5.349  43.809   3.791
54376W        W22717  42.522  21.560   2.177
54377W        W22718  36.589  18.684   3.666
54378W        W22719  44.407  22.230   4.671
54379W        W22720  35.930   8.849   3.808
54380W        W22721  14.326  37.336  12.837
54381W        W22722   3.382  11.129  11.857
54382W        W22723  16.148  18.236   2.335
54383W        W22724  17.682  29.119   0.329
54384W        W22725  24.648  22.580   3.790
54385W        W22726   7.850   3.325  11.948
54386W        W22727   1.924  29.924  10.449
54387W        W22728  28.077  21.518  11.948
54388W        W22729   1.831  28.956  11.116
54389W        W22730  43.894  32.126  11.908
54390W        W22731   6.687  43.987  10.593
54391W        W22732  31.973  25.672  13.001
54392W        W22733  15.766  36.029  12.029
54393W        W22734   1.243  31.926  11.391
54394W        W22735  38.445   5.225  14.502
54395W        W22736  23.234  33.108  13.796
54396W        W22737  17.576   2.416   0.924
54397W        W22738  32.909  15.764   4.329
54398W        W22739  22.746  20.175   0.908
54399W        W22740  40.048   2.359  11.509
54400W        W22741  28.558  15.161  12.570
54401W        W22742  30.535  16.285  12.824
54402W        W22743  33.977   8.839  12.358
54403W        W22744  20.578  22.533  14.996
54404W        W22745  17.082  37.943  13.851
54405W        W22746  10.676  40.001   3.364
54406W        W22747   4.230   8.343   2.747
54407W        W22748  40.432  25.114  14.412
54408W        W22749  29.978  30.432  13.851
54409W        W22750  31.622  23.619  10.484
54410W        W22751  20.752  23.077   4.261
54411W        W22752  16.725   7.396   2.839
54412W        W22753  34.495  20.529   2.311
54413W        W22754  23.728  32.918  13.865
54414W        W22755   5.767  31.937  11.858
54415W        W22756  44.435  25.054   0.905
54416W        W22757  43.363  43.930   2.707
54417W        W22758   6.346  31.116  13.916
54418W        W22759  33.560  23.140  14.779
54419W        W22760  40.040  29.094  12.981
54420W        W22761  18.630  24.083   0.950
54421W        W22762  33.617  22.147   2.771
54422W        W22763  15.178  21.139   2.799
54423W        W22764  12.684  36.914   0.862
54424W        W22765  14.225   0.357   3.738
54425W        W22766  41.916  27.571  14.880
54426W        W22767  27.963  35.855   4.327
54427W        W22768  40.023  36.482   1.736
54428W        W22769  26.188  37.454  14.480
54429W        W22770  27.088  35.567   3.214
54430W        W22771  13.734   4.728   4.794
54431W        W22772  37.445  40.018   3.266
54432W        W22773  15.672  43.822   1.756
54433W        W22774  15.183  40.537   5.785
54434W        W22775  13.328  12.730  14.363
54435W        W22776   1.391  14.333  13.880
54436W        W22777   5.780  26.696   1.336
54437W        W22778   2.789  41.927   1.280
54438W        W22779  38.996  32.987  14.835
54439W        W22780   5.390  14.266  12.030
54440W        W22781  44.349  39.996  10.455
54441W        W22782  16.781  34.105   0.922
54442W        W22783  30.569  33.018   0.872
54443W        W22784  20.528  38.983   3.746
54444W        W22785   4.354  13.705  10.906
54445W        W22786  42.024  15.781  10.063
54446W        W22787  38.552  21.690  12.438
54447W        W22788  40.988  12.232  11.456
54448W        W22789  31.117   6.799   3.268
54449W        W22790  20.593  31.570   0.459
54450W        W22791  23.051  34.987   2.291
54451W        W22792   7.877  29.461   3.209
54452W        W22793  33.612  22.744   0.318
54453W        W22794   9.290  24.603   0.866
54454W        W22795  25.194   1.815   4.762
54455W        W22796  36.457  11.315   4.766
54456W        W22797   6.380  11.363   0.748
54457W        W22798  42.030  13.761  14.467
54458W        W22799  36.416   1.974   5.088
54459W        W22800   2.276   6.839  13.400
54460W        W22801  44.406   6.844  11.498
54461W        W22802  44.840  13.247  11.468
54462W        W22803  41.856  18.589  11.866
54463W        W22804  28.089  24.054  14.378
54464W        W22805  42.869  27.539  11.509
54465W        W22806  18.284  35.472   1.905
54466W        W22807  19.687  41.314   4.173
54467W        W22808  22.208  33.973  12.380
54468W        W22809  31.996   4.804   3.802
54469W        W22810   4.341  12.761   2.720
54470W        W22811   6.356  36.485  14.354
54471W        W22812  17.152  11.327   0.267
54472W        W22813  12.662  30.109   4.749
54473W        W22814  10.731  37.376   1.294
54474W        W22815  42.392  27.510   4.799
54475W        W22816  23.152  14.205  13.968
54476W        W22817  24.493  16.201  13.436
54477W        W22818  25.680  11.712   0.900
54478W        W22819  22.559   3.419  12.530
54479W        W22820  36.412  17.066  12.052
54480W        W22821  33.939  24.614   0.427
54481W        W22822  38.470   6.272  12.091
54482W        W22823   2.870  42.943  12.349
54483W        W22824  17.102   0.923   0.412
54484W        W22825  17.256  14.340  14.444
54485W        W22826  34.115  37.456  10.070
54486W        W22827  39.495  42.842   1.879
54487W        W22828  40.825  37.036  14.513
54488W        W22829   7.327  42.843  11.428
54489W        W22830  26.073   4.332  10.496
54490W        W22831  35.380  25.014   2.322
54491W        W22832  19.176  12.790  14.395
54492W        W22833   9.202   8.683  13.363
54493W        W22834  36.396   7.911   2.266
54494W        W22835  34.371  33.614  14.013
54495W        W22836  17.249  38.929   0.846
54496W        W22837  25.503  34.937  14.006
54497W        W22838   8.685  43.935   0.343
54498W        W22839   5.274  22.198  11.482
54499W        W22840   0.770  28.180  12.873
54500W        W22841   1.422  34.436  11.963
54501W        W22842  36.962  13.608  11.515
54502W        W22843   8.733  44.377   5.270
54503W        W22844  36.039  13.255   3.727
54504W        W22845  17.646  33.074  10.484
54505W        W22846  17.149  34.092   2.392
54506W        W22847  10.725  42.812   1.442
54507W        W22848  26.610  42.851  11.022
54508W        W22849   8.820  10.861   3.858
54509W        W22850  20.191  15.703   4.342
54510W        W22851  25.666  15.770   0.354
54511W        W22852  36.401  42.848   4.315
54512W        W22853  14.188  15.698   3.733
54513W        W22854   8.777  26.462  12.423
54514W        W22855  14.281   8.818  12.021
54515W        W22856  31.060  11.336   2.870
54516W        W22857  19.694  13.324   0.742
54517W        W22858  16.648  11.811   2.217
54518W        W22859  38.544   5.419  10.918
54519W        W22860  15.713   3.225   4.772
54520W        W22861   3.448  38.828  13.818
54521W        W22862   1.975   7.725   3.747
54522W        W22863  15.820  24.483  13.357
54523W        W22864   0.477  37.925  10.904
54524W        W22865   7.401   2.332   4.151
54525W        W22866  41.977   1.299  10.606
54526W        W22867   1.905  10.756   3.723
54527W        W22868  34.993  13.312  10.570
54528W        W22869  39.018  26.030  14.030
54529W        W22870  34.914  44.395  12.394
54530W        W22871  35.379  39.889   2.888
54531W        W22872  44.439   6.216  10.415
54532W        W22873  17.593   4.735   3.698
54533W        W22874  39.363  41.834   0.906
54534W        W22875  34.063   3.218  11.544
54535W        W22876  12.679  24.553   1.446
54536W        W22877  43.321   1.779   5.148
54537W        W22878  28.160  10.705  13.525
54538W        W22879  35.478  18.646  14.372
54539W        W22880  13.821  39.321  12.975
54540W        W22881  30.551  22.178   4.771
54541W        W22882  28.489  24.161   0.431
54542W        W22883  20.065  31.029   0.447
54543W        W22884   3.732   0.477   4.720
54544W        W22885  33.596   8.372   0.319
54545W        W22886  15.202   5.826  11.924
54546W        W22887  31.024  24.045   3.637
54547W        W22888  12.825  27.016   0.256
54548W        W22889  38.881  15.806  10.490
54549W        W22890  25.120  33.387  13.888
54550W        W22891  10.790  33.475   4.237
54551W        W22892  16.175   7.884   3.216
54552W        W22893  31.441  43.995  12.430
54553W        W22894  29.954  25.987  13.040
54554W        W22895   2.234  34.948   2.360
54555W        W22896  21.252  22.253   2.860
54556W        W22897  19.099  35.603  13.436
54557W        W22898  12.244  19.053   1.408
54558W        W22899  15.102  10.253  13.450
54559W        W22900  11.727  16.705  14.440
54560W        W22901  25.040  20.071   4.803
54561W        W22902  15.181  11.312  14.331
54562W        W22903  31.635  36.853   2.220
54563W        W22904   1.893   5.282   3.207
54564W        W22905   4.852  29.920  12.542
54565W        W22906  11.252   8.258  12.044
54566W        W22907   9.243  24.073  14.775
54567W        W22908  31.021  19.185   2.226
54568W        W22909   0.394  18.175  12.353
54569W        W22910  36.966  41.389   3.207
54570W        W22911  36.464  12.630  12.450
54571W        W22912  20.748  12.188   3.207
54572W        W22913  24.693   0.248  13.812
54573W        W22914  18.681   7.415  11.406
54574W        W22915  37.030  17.574   0.464
54575W        W22916  38.421  10.731   2.808
54576W        W22917  23.564  27.088  11.414
54577W        W22918  39.396  24.657  14.492
54578W        W22919  14.136  37.020  14.322
54579W        W22920  21.151  24.060   2.270
54580W        W22921   8.202  36.070   2.366
54581W        W22922   1.365  38.953  13.379
54582W        W22923  42.891  40.308  14.952
54583W        W22924  42.328  35.521  12.993
54584W        W22925  17.586  40.906  10.927
54585W        W22926  21.576  24.198   4.825
54586W        W22927  35.942  44.471   1.925
54587W        W22928  38.941   8.303   2.728
54588W        W22929  30.561  16.574  11.066
54589W        W22930  43.788  14.681   1.765
54590W        W22931   5.230  35.585   1.886
54591W        W22932  11.857   2.269  13.982
54592W        W22933  40.859  11.139   3.761
54593W        W22934  15.781  28.951   2.787
54594W        W22935   7.356  24.643   4.166
54595W        W22936  20.048  19.111  10.549
54596W        W22937  15.640  18.662  11.518
54597W        W22938  25.694  13.608   0.938
54598W        W22939   5.386  11.772   0.285
54599W        W22940  26.636  15.296  12.965
54600W        W22941  32.081  17.745  12.491
54601W        W22942  10.823   3.911   1.342
54602W        W22943  40.359   7.859  14.437
54603W        W22944  37.861  44.900  14.901
54604W        W22945  35.972  37.844  10.593
54605W        W22946  25.133  39.885  14.477
54606W        W22947  15.636  39.402   0.788
54607W        W22948  31.091  44.475   1.379
54608W        W22949   1.903  22.603  11.605
54609W        W22950   3.230  17.753  12.975
54610W        W22951  23.692   3.419  11.962
54611W        W22952  30.996  22.538  11.916
54612W        W22953   2.259   6.797   2.820
54613W        W22954  25.519   7.765   4.113
54614W        W22955  33.063  35.965   0.885
54615W        W22956  19.622   2.261  10.539
54616W        W22957  30.544  19.125  13.480
54617W        W22958  19.115  38.439   0.776
54618W        W22959  36.940  39.354   3.249
54619W        W22960   9.718  10.239   2.897
54620W        W22961  40.467  15.161   2.876
54621W        W22962  37.043  17.717   2.731
54622W        W22963  42.315  38.967  11.427
54623W        W22964  31.949  42.480  14.473
54624W        W22965   2.806   7.400   2.213
54625W        W22966  36.848   9.816  13.505
54626W        W22967  23.664  25.166  11.941
54627W        W22968   8.874  33.987  14.812
54628W        W22969  37.943   0.833  12.463
54629W        W22970  15.300  38.480   2.874
54630W        W22971  30.516  42.857   4.157
54631W        W22972  41.015   7.380  10.976
54632W        W22973   7.340  13.140   0.478
54633W        W22974   4.733  21.149  12.875
54634W        W22975  27.097  44.491  11.408
54635W        W22976  30.505  38.515   1.260
54636W        W22977  37.044   8.307   2.782
54637W        W22978   7.213   7.775  14.415
54638W        W22979  44.767  38.536  12.046
54639W        W22980  35.377  39.405   0.363
54640W        W22981   7.898  18.686  10.502
54641W        W22982  21.169  38.901  14.311
54642W        W22983  34.586  27.188   4.655
54643W        W22984  37.031  44.438   4.816
54644W        W22985  38.441  24.167   4.273
54645W        W22986   2.861   6.383   3.715
54646W        W22987  40.820  25.622  14.798
54647W        W22988  40.317  20.166  10.578
54648W        W22989  23.226  20.185  11.004
54649W        W22990  10.654  23.223   4.652
54650W        W22991  42.804  18.202   5.581
54651W        W22992  20.607  39.856  13.370
54652W        W22993  23.986  14.128  14.314
54653W        W22994  31.119  26.965   1.812
54654W        W22995  38.528  40.921   3.345
54655W        W22996  18.734  39.967   2.245
54656W        W22997   1.948  33.623   1.297
54657W        W22998  37.539   3.362   1.405
54658W        W22999  34.991  15.794  12.376
54659W        W23000  33.985  15.580  10.890
54660W        W23001  11.730  11.316   2.322
54661W        W23002   3.754  11.285  11.954
54662W        W23003   2.863  20.106  12.975
54663W        W23004  29.018  18.622   2.669
54664W        W23005  18.258  39.425  12.433
54665W        W23006   2.955  11.138   2.845
54666W        W23007   2.261  21.231   2.203
54667W        W23008  23.541  32.428   3.312
54668W        W23009  14.258  29.507  11.570
54669W        W23010   9.211  27.967   4.746
54670W        W23011   5.347  37.526  14.845
54671W        W23012  15.616   2.732   1.933
54672W        W23013  41.878  31.538   4.761
54673W        W23014  11.250  42.396   1.726
54674W        W23015  19.263  24.990  12.975
54675W        W23016  22.711   8.871   1.743
54676W        W23017  10.779  19.542   2.288
54677W        W23018  27.509  24.216  10.594
54678W        W23019  17.120  36.474   0.889
54679W        W23020  13.829  30.911   4.169
54680W        W23021  19.672  12.755   4.315
54681W        W23022   3.323  40.053  10.891
54682W        W23023  11.152  13.698  13.320
54683W        W23024   4.248  33.094  13.475
54684W        W23025  12.290  37.899  14.016
54685W        W23026  44.854  35.588  14.013
54686W        W23027   6.405  27.134   4.700
54687W        W23028  38.365  40.043   1.932
54688W        W23029  39.396  12.229   1.822
54689W        W23030  28.663   4.862  10.122
54690W        W23031  43.801  19.252  11.075
54691W        W23032  19.709  29.980   4.668
54692W        W23033  35.067   9.361  10.464
54693W        W23034  30.136   4.302   3.680
54694W        W23035  17.148   6.238   5.299
54695W        W23036  39.432  15.593  11.546
54696W        W23037  10.331  21.511  11.556
54697W        W23038  31.122  17.717   2.690
54698W        W23039   2.343  41.330  10.609
54699W        W23040  35.547   0.277  13.927
54700W        W23041  28.038  10.356   4.657
54701W        W23042   4.750  19.746  12.901
54702W        W23043  33.103  27.168  12.524
54703W        W23044  36.065   6.291  13.333
54704W        W23045  30.613   8.195   3.870
54705W        W23046  37.566  12.835   3.807
54706W        W23047   0.439  24.022  13.034
54707W        W23048  38.563  26.535  12.842
54708W        W23049  32.546  36.025  12.034
54709W        W23050   2.858  26.647  11.383
54710W        W23051  43.302  14.819   1.786
54711W        W23052  14.793  21.263  11.489
54712W        W23053  38.984  42.927  12.907
54713W        W23054  30.492   3.272  11.064
54714W        W23055  10.858  23.605   4.786
54715W        W23056  38.044  39.866  14.443
54716W        W23057  44.338  40.377   2.864
54717W        W23058  37.860  10.635  14.392
54718W        W23059  32.978  15.627   3.146
54719W        W23060  11.159  40.350   3.634
54720W        W23061  21.619  40.800   4.298
54721W        W23062  26.481  23.072  14.773
54722W        W23063  39.424  33.902  12.933
54723W        W23064  29.589  44.300  13.930
54724W        W23065  40.871  37.425   1.731
54725W        W23066  16.264  31.574  11.495
54726W        W23067  11.178  43.768  12.548
54727W        W23068  43.321  22.034   3.362
54728W        W23069  18.101  19.654  10.456
54729W        W23070   1.968  19.587  12.865
54730W        W23071  15.256   0.351   4.816
54731W        W23072   0.832  16.260   1.269
54732W        W23073  15.766  31.553   3.268
54733W        W23074   9.286  25.471   3.184
54734W        W23075  36.975   0.491  11.031
54735W        W23076  27.605  44.383  10.405
54736W        W23077  17.683   1.856   0.907
54737W        W23078   7.336  39.442   2.382
54738W        W23079   7.382  22.536  12.996
54739W        W23080  15.775   0.422   3.203
54740W        W23081  31.148   8.665   1.852
54741W        W23082  30.920  42.025  12.442
54742W        W23083  38.907  29.026  10.484
54743W        W23084  22.237   6.216  11.555
54744W        W23085  43.998  23.050   3.341
54745W        W23086  26.164  29.425   4.343
54746W        W23087  38.000  41.869  13.361
54747W        W23088  34.989  34.588  13.535
54748W        W23089  13.307   4.809  11.422
54749W        W23090   6.322   8.247  14.891
54750W        W23091   3.397   3.391  14.969
54751W        W23092  20.134  43.514  14.815
54752W        W23093  36.464   1.757   2.695
54753W        W23094  18.571  17.090  13.843
54754W        W23095  41.524   1.850  14.827
54755W        W23096  28.109  11.669   4.601
54756W        W23097  37.076  36.072  12.897
54757W        W23098  32.086  26.074  13.311
54758W        W23099  10.274  16.699  12.568
54759W        W23100  34.010  17.789  14.925
54760W        W23101  28.661   6.184  13.487
54761W        W23102  25.595  28.104   2.186
54762W        W23103   8.222  26.567   3.169
54763W        W23104  31.498  36.031   2.217
54764W        W23105   3.417   7.367  14.315
54765W        W23106  22.552   0.887   0.435
54766W        W23107  33.419  15.734  12.974
54767W        W23108  42.523  27.547  14.966
54768W        W23109  29.455   1.939   3.327
54769W        W23110  16.655  12.739   0.268
54770W        W23111  14.773  19.214   2.335
54771W        W23112  40.962  27.186  13.035
54772W        W23113  33.050  38.052  11.982
54773W        W23114   4.256  19.656  13.833
54774W        W23115   9.152  20.068  14.970
54775W        W23116  28.016   4.738   3.249
54776W        W23117  27.545  36.487  13.428
54777W        W23118  21.163  18.163  14.426
54778W        W23119  26.581  39.425   1.901
54779W        W23120  39.015  11.629  11.975
54780W        W23121   9.666  35.945  11.406
54781W        W23122   5.719  39.419  13.829
54782W        W23123  12.132  28.131   3.663
54783W        W23124  28.100  40.450   3.801
54784W        W23125  19.091  38.567   2.831
54785W        W23126   8.300  36.974   4.631
54786W        W23127   5.853  23.016   3.207
54787W        W23128   1.397  27.127  13.515
54788W        W23129  39.526  24.151   0.334
54789W        W23130  38.392  37.982   4.351
54790W        W23131  38.982  41.914  11.019
54791W        W23132  33.532  42.025   3.767
54792W        W23133  35.989  19.580  14.800
54793W        W23134  41.881  25.544   3.252
54794W        W23135  38.516  44.780  14.349
54795W        W23136  26.025  26.971  13.022
54796W        W23137  44.903  43.330   2.876
54797W        W23138  43.450  28.126   4.741
54798W        W23139  34.576  14.172  10.499
54799W        W23140  19.057   0.328  10.450
54800W        W23141   9.301  18.273  12.849
54801W        W23142  30.560  15.693   2.369
54802W        W23143  41.005  21.252  12.863
54803W        W23144  17.591  43.420   3.228
54804W        W23145  31.907  32.900   4.292
54805W        W23146  29.640  13.841  10.482
54806W        W23147  19.669  28.529  11.045
54807W        W23148  23.192  13.671  12.899
54808W        W23149  23.219   9.222   0.374
54809W        W23150  42.981  28.992   4.699
54810W        W23151  19.229  29.953  12.553
54811W        W23152  15.688  16.730   0.795
54812W        W23153  27.084  36.956   1.870
54813W        W23154  10.146  42.403   1.216
54814W        W23155  10.705  34.499   3.210
54815W        W23156  33.070  25.471  10.943
54816W        W23157  27.103  18.177  11.399
54817W        W23158   5.323   6.294  12.085
54818W        W23159  39.851  12.658   4.749
54819W        W23160   0.436  27.018   3.165
54820W        W23161  23.131  42.847   4.113
54821W        W23162  28.996  43.894   1.319
54822W        W23163  35.996  44.828  12.910
54823W        W23164  24.136  41.400   4.250
54824W        W23165  19.671   3.930  14.308
54825W        W23166  18.185  44.370   4.629
54826W        W23167  14.743   8.260   0.959
54827W        W23168  30.427  10.282   0.922
54828W        W23169   9.764  35.463   2.375
54829W        W23170  22.175  34.412  13.377
54830W        W23171  34.558   0.773   1.268
54831W        W23172  26.990  18.262  12.487
54832W        W23173   5.922  12.836  12.068
54833W        W23174  40.952  20.646  11.493
54834W        W23175  24.103  36.954  12.554
54835W        W23176  43.893   9.822  14.797
54836W        W23177  20.175   3.316  12.964
54837W        W23178  31.905  31.007   5.308
54838W        W23179   1.952  24.082   4.726
54839W        W23180   1.264  40.973  12.025
54840W        W23181  26.517  15.318  14.944
54841W        W23182   0.984  12.649  11.500
54842W        W23183  13.141  10.223   1.319
54843W        W23184   9.310  26.581   5.118
54844W        W23185   4.373  38.403   3.700
54845W        W23186   5.800  43.431  12.536
54846W        W23187  14.227  26.021   1.344
54847W        W23188  22.590   9.847   0.260
54848W        W23189  18.666  21.129   2.768
54849W        W23190  44.871  30.122  14.971
54850W        W23191  28.034  13.720  13.349
54851W        W23192  10.774   1.308   3.154
54852W        W23193  38.448  40.880  13.449
54853W        W23194  34.967  42.350   4.139
54854W        W23195  42.793   0.834  12.410
54855W        W23196  29.970  44.771  13.997
54856W        W23197   7.819   5.712   3.836
54857W        W23198  21.517  25.044   4.747
54858W        W23199  42.372  32.069   4.275
54859W        W23200  14.650  20.595  10.508
54860W        W23201   7.795  32.121  14.402
54861W        W23202  42.008  43.003  12.027
54862W        W23203  25.624  31.505   0.849
54863W        W23204  14.339  39.512   3.860
54864W        W23205   8.164  32.039  14.450
54865W        W23206   4.393   2.898  12.999
54866W        W23207  34.476  44.757  14.827
54867W        W23208   6.804  21.057  13.848
54868W        W23209  31.452  28.055  11.454
54869W        W23210  43.938  17.074   3.295
54870W        W23211  19.283  10.837  13.026
54871W        W23212   0.894   4.293   9.997
54872W        W23213  38.955  28.572  14.805
54873W        W23214  29.937  36.948   0.478
54874W        W23215  26.006  25.210  14.343
54875W        W23216  26.555   4.746   2.268
54876W        W23217   0.943  42.364   0.353
54877W        W23218  34.969  18.272  14.879
54878W        W23219  18.223  10.370  12.435
54879W        W23220  33.988   6.888   2.795
54880W        W23221   3.952  16.200   1.294
54881W        W23222   8.402  32.522   0.393
54882W        W23223  18.127  32.448  10.915
54883W        W23224  19.720  36.566  11.063
54884W        W23225   0.436  21.569   4.635
54885W        W23226  44.901   6.721  14.936
54886W        W23227  16.752  24.503  12.825
54887W        W23228  24.228   9.724  13.059
54888W        W23229  40.333   2.885   1.857
54889W        W23230  20.660  12.783  10.591
54890W        W23231  40.867  10.718   1.742
54891W        W23232  21.183   8.861   2.185
54892W        W23233  11.238  11.709  10.983
54893W        W23234  42.820  33.495  12.958
54894W        W23235  19.145  13.190   0.784
54895W        W23236  20.571  11.802   0.823
54896W        W23237  35.906   7.777   0.324
54897W        W23238  32.534   0.754   1.330
54898W        W23239  32.414  33.128   4.796
54899W        W23240  39.997  30.635  12.907
54900W        W23241  34.935   7.231   3.230
54901W        W23242  20.082   7.383  14.316
54902W        W23243  10.834  40.808  10.562
54903W        W23244  18.196  30.056   2.277
54904W        W23245   2.416   3.371   4.721
54905W        W23246  25.529  29.083  14.300
54906W        W23247   4.205  17.793  13.007
54907W        W23248  19.214  17.083   4.635
54908W        W23249  43.867  35.924   2.701
54909W        W23250  42.827  13.153   0.848
54910W        W23251  42.441  22.665   1.874
54911W        W23252   6.370   4.880  11.380
54912W        W23253  11.691  36.908   3.354
54913W        W23254  21.730  12.798  13.942
54914W        W23255   6.371   4.838  12.520
54915W        W23256  44.989  18.289   2.748
54916W        W23257  15.584  44.838   4.345
54917W        W23258  10.212  10.819   2.742
54918W        W23259  13.158  39.905   0.242
54919W        W23260  27.065  23.616  12.979
54920W        W23261  10.649   2.352   0.867
54921W        W23262   0.926  32.041  13.545
54922W        W23263  20.128  38.475   0.438
54923W        W23264  16.586   8.884   3.263
54924W        W23265  38.057   9.715  12.405
54925W        W23266  38.562  14.761   1.273
54926W        W23267  23.663  39.941  11.026
54927W        W23268   7.408  14.753  11.039
54928W        W23269  41.328  10.772   3.225
54929W        W23270  16.734  38.375   0.358
54930W        W23271  10.763   2.250   3.779
54931W        W23272  32.006  22.686   4.649
54932W        W23273  25.633  41.034  11.483
54933W        W23274  24.114  39.534  12.486
54934W        W23275  31.918  19.658  10.134
54935W        W23276  12.713   9.169   2.873
54936W        W23277  41.029  11.711  12.390
54937W        W23278  43.918  12.736   3.229
54938W        W23279  44.005   7.829  10.948
54939W        W23280  21.520  12.196   1.240
54940W        W23281  20.263  18.764   0.955
54941W        W23282   2.337   7.358   5.291
54942W        W23283  39.428   6.843  14.800
54943W        W23284  42.018   3.864   0.385
54944W        W23285  32.420  30.952   3.735
54945W        W23286   8.704  42.431  10.899
54946W        W23287  15.293   0.960  11.546
54947W        W23288  30.975   6.916  14.911
54948W        W23289  20.112  28.991   1.923
54949W        W23290  34.397  22.141  12.865
54950W        W23291   5.844  37.866  14.914
54951W        W23292  26.571  37.476  13.472
54952W        W23293  40.315  31.582  14.512
54953W        W23294   6.723   8.757  10.476
54954W        W23295  13.778  28.937   3.704
54955W        W23296   2.791  37.007   1.700
54956W        W23297  39.446   7.410   3.733
54957W        W23298  35.441  34.051  11.582
54958W        W23299  28.517  22.209  12.351
54959W        W23300  36.478   4.814   1.826
54960W        W23301   5.284   5.721  14.512
54961W        W23302   0.805  18.241   0.320
54962W        W23303  27.475  23.683   0.305
54963W        W23304   9.674  23.043  13.877
54964W        W23305  42.912  43.851   4.604
54965W        W23306  41.004  27.034   3.362
54966W        W23307  40.899  19.587  12.352
54967W        W23308  28.615  27.167   1.775
54968W        W23309  37.363  40.530   4.620
54969W        W23310  28.653  29.108  11.558
54970W        W23311  37.961  28.615   3.360
54971W        W23312  39.921  21.596  13.355
54972W        W23313   7.777  19.125  12.896
54973W        W23314  38.850  23.509  11.019
54974W        W23315  39.509  42.871   3.701
54975W        W23316  39.404  11.768   2.717
54976W        W23317  13.839   2.952  14.781
54977W        W23318   7.228  21.630  12.422
54978W        W23319  42.807  25.036  14.838
54979W        W23320  35.358  34.420   1.267
54980W        W23321  22.653   2.743  14.882
54981W        W23322  17.072  17.088   0.940
54982W        W23323  16.093   1.423   0.733
54983W        W23324  37.437   5.243  10.612
54984W        W23325  30.008  43.413   3.745
54985W        W23326  26.692  18.238  14.807
54986W        W23327   4.711  30.494   1.266
54987W        W23328  23.023  20.188  11.968
54988W        W23329  38.860  13.626   5.294
54989W        W23330  43.280  23.017  14.350
54990W        W23331  14.093  15.680  13.333
54991W        W23332  44.860   0.800  13.381
54992W        W23333  33.513  34.472  11.955
54993W        W23334   6.308  11.717   0.839
54994W        W23335  18.592  27.475  12.421
54995W        W23336  27.051  17.114  12.873
54996W        W23337  18.711  43.305   0.729
54997W        W23338  37.418  18.664  11.121
54998W        W23339  11.736  22.639   0.881
54999W        W23340   9.722  29.043   3.772
55000W        W23341  42.800   3.930   5.155
55001W        W23342  14.101  28.434  10.483
55002W        W23343  21.749  10.760   3.632
55003W        W23344  20.530  35.103   4.663
55004W        W23345  23.034   4.756  10.525
55005W        W23346  29.008  15.777  14.986
55006W        W23347  34.497  37.432  11.996
55007W        W23348  26.696  19.763   2.816
55008W        W23349   5.357  16.280   1.715
55009W        W23350  15.123  41.916  13.032
55010W        W23351  20.573  36.019   4.671
55011W        W23352  11.168  12.149   5.787
55012W        W23353  32.986  20.244   3.688
55013W        W23354  21.600   2.345   0.291
55014W        W23355  24.190  24.140  11.410
55015W        W23356  33.898   9.199  11.930
55016W        W23357  40.960  42.852  12.421
55017W        W23358  13.728  11.229  13.041
55018W        W23359  37.544  27.132  13.536
55019W        W23360  35.028  39.947  11.582
55020W        W23361  19.116  13.607  13.363
55021W        W23362  24.493   4.405  12.049
55022W        W23363  44.426  22.552  11.600
55023W        W23364  23.618  20.108   0.428
55024W        W23365  12.736  21.142  10.999
55025W        W23366  37.428  36.381   1.323
55026W        W23367   1.335  31.550  10.951
55027W        W23368   0.924   3.897  12.938
55028W        W23369  34.520  41.466  13.422
55029W        W23370   1.380   9.367   3.700
55030W        W23371  24.014  15.715   2.271
55031W        W23372   8.166   4.741   1.318
55032W        W23373  17.292   5.373  11.556
55033W        W23374   1.828  33.009  11.533
55034W        W23375  16.746  12.121   2.681
55035W        W23376  11.190   8.354  13.316
55036W        W23377  28.152  31.992  13.920
55037W        W23378  30.521  36.070   4.319
55038W        W23379  34.519  21.114   4.706
55039W        W23380  20.160  22.110  13.803
55040W        W23381   8.846  29.944  12.009
55041W        W23382  43.298  33.431  14.432
55042W        W23383  38.898   7.796  14.811
55043W        W23384  12.655  25.511   4.696
55044W        W23385   7.871  35.012   1.308
55045W        W23386  25.051  27.667   5.183
55046W        W23387  12.808  15.774   0.388
55047W        W23388   5.378  34.446  13.806
55048W        W23389  24.626  30.980   1.743
55049W        W23390   8.805   2.948  14.967
55050W        W23391  39.536  30.024  13.540
55051W        W23392  23.200   5.900  12.873
55052W        W23393   2.288  11.818  10.441
55053W        W23394  14.800  32.888  12.376
55054W        W23395   8.691  36.025   4.766
55055W        W23396   9.747  28.178   1.898
55056W        W23397  23.693  42.348  10.970
55057W        W23398  27.941  31.621  14.478
55058W        W23399  33.398   6.811   3.268
55059W        W23400  37.497  36.421  13.381
55060W        W23401   3.297  23.545   0.939
55061W        W23402  37.903   2.407   1.309
55062W        W23403  42.466  25.964  14.002
55063W        W23404  30.522   8.262   0.807
55064W        W23405  26.465  11.368  14.881
55065W        W23406  13.748   2.733   2.742
55066W        W23407  11.849  44.392  14.930
55067W        W23408   6.715  23.691  11.498
55068W        W23409  17.229  39.031   4.198
55069W        W23410   2.365  37.035  13.945
55070W        W23411  10.155  42.009   3.789
55071W        W23412  23.152  30.477  11.081
55072W        W23413  40.901  33.558  14.488
55073W        W23414  43.327  41.803   0.955
55074W        W23415  34.390   4.806   3.171
55075W        W23416  40.440  13.140  11.127
55076W        W23417  43.457  43.473   4.115
55077W        W23418  12.318  13.232  10.054
55078W        W23419  31.486   6.817   4.211
55079W        W23420  41.792   6.308   0.320
55080W        W23421  44.911   3.859  14.891
55081W        W23422  41.429  28.671  11.572
55082W        W23423   1.346  32.971   3.289
55083W        W23424  25.115  19.059   0.795
55084W        W23425   3.866  33.613   1.376
55085W        W23426   4.377  36.029   2.224
55086W        W23427  38.898  10.309   3.661
55087W        W23428  44.993   5.416  11.391
55088W        W23429  18.711  24.526   1.910
55089W        W23430  36.576  43.466   2.371
55090W        W23431  33.410  31.487   4.779
55091W        W23432  16.764  10.346  12.454
55092W        W23433  14.264   9.171  12.948
55093W        W23434   8.776   9.868  13.857
55094W        W23435  28.589  36.021   2.294
55095W        W23436  41.881  33.915  14.884
55096W        W23437  12.352  10.703  11.932
55097W        W23438  36.447  38.341   1.253
55098W        W23439  16.132  25.112   4.605
55099W        W23440  29.172  20.029  10.482
55100W        W23441  15.659  34.999  11.407
55101W        W23442  26.501  11.807   1.392
55102W        W23443  28.077  37.895  13.900
55103W        W23444  20.209  37.487   0.935
55104W        W23445  24.187  33.468   3.863
55105W        W23446  27.617  33.547   2.892
55106W        W23447   9.738  22.247  11.121
55107W        W23448   2.807  39.556  14.809
55108W        W23449  38.458   7.212   0.310
55109W        W23450  32.015  37.457  14.375
55110W        W23451  20.183  26.653  13.062
55111W        W23452  29.982   0.259  13.516
55112W        W23453  43.468  33.614  14.807
55113W        W23454  15.139  37.400  13.307
55114W        W23455  24.022  42.318  13.314
55115W        W23456  12.807  32.070   1.288
55116W        W23457  39.420  32.401  10.998
55117W        W23458   5.779  25.029  13.064
55118W        W23459  26.025  36.097  12.348
55119W        W23460  37.860   9.189   1.701
55120W        W23461  21.689  31.148   4.601
55121W        W23462   8.728  27.089  12.042
55122W        W23463   0.426  17.222  11.402
55123W        W23464  17.670  31.569  10.448
55124W        W23465  42.415  30.064  11.075
55125W        W23466   1.347  17.590  11.969
55126W        W23467  21.260  11.725   2.269
55127W        W23468  33.980  14.290   4.597
55128W        W23469  13.650  44.995  13.328
55129W        W23470  12.841  19.564   2.745
55130W        W23471  34.014  13.729  13.538
55131W        W23472   7.209  44.800   1.302
55132W        W23473  44.495   7.839   4.224
55133W        W23474  36.422  42.785   4.806
55134W        W23475  43.967  11.170   2.389
55135W        W23476  12.299  27.646   3.788
55136W        W23477  11.807   2.731  13.846
55137W        W23478  33.425  15.181  12.499
55138W        W23479  12.317  27.115   0.434
55139W        W23480  43.943  19.765  11.523
55140W        W23481  20.070  40.944  10.416
55141W        W23482  12.161   4.266   1.408
55142W        W23483  34.962  34.484  11.926
55143W        W23484  10.243  32.032  12.882
55144W        W23485  36.074  35.426  14.989
55145W        W23486  28.661  12.635  13.331
55146W        W23487  34.566  29.457   4.736
55147W        W23488  22.069  11.853  11.094
55148W        W23489  23.006  37.465   1.299
55149W        W23490   0.391   5.713  14.445
55150W        W23491  41.903  31.009   4.143
55151W        W23492  38.923   5.780   0.895
55152W        W23493  29.118  20.162  13.060
55153W        W23494  17.215  40.916  13.315
55154W        W23495  38.903  30.983  10.405
55155W        W23496   3.755   4.232   3.741
55156W        W23497  38.835  21.192  14.946
55157W        W23498  37.004  41.311  11.438
55158W        W23499  17.235  26.689   3.663
55159W        W23500  29.041  35.420   1.369
55160W        W23501  40.804  39.819   1.272
55161W        W23502  16.209  36.046  13.864
55162W        W23503  44.371   4.319   1.873
55163W        W23504   7.358   4.320   3.732
55164W        W23505  41.352   7.809   1.815
55165W        W23506  36.003  12.166   2.819
55166W        W23507  37.414  33.957  10.466
55167W        W23508  32.405  12.643  13.439
55168W        W23509   4.238   3.249   3.848
55169W        W23510  29.083  40.336   2.252
55170W        W23511  41.376  32.008   4.825
55171W        W23512  33.424  31.477  12.862
55172W        W23513  20.076   8.863   1.709
55173W        W23514   9.759   2.919   0.305
55174W        W23515  16.785  29.565  10.980
55175W        W23516  30.507  10.307   4.603
55176W        W23517  24.724  11.826   1.394
55177W        W23518  20.127  44.902   4.604
55178W        W23519  38.839  25.688   0.925
55179W        W23520  27.521   2.765   3.200
55180W        W23521  27.667  14.635   0.740
55181W        W23522  21.729  23.002   2.351
55182W        W23523  24.710  32.406   2.720
55183W        W23524  22.113  17.701  11.122
55184W        W23525   6.684   1.433   1.731
55185W        W23526   8.779  22.715  13.410
55186W        W23527  25.984  15.657  11.935
55187W        W23528  27.485  12.235  14.972
55188W        W23529  31.042  37.529  11.510
55189W        W23530  42.383  38.925  13.819
55190W        W23531  34.468  31.012  12.459
55191W        W23532  32.887  39.903  14.839
55192W        W23533  32.417  13.318   0.402
55193W        W23534  11.686  12.247   3.731
55194W        W23535   8.390   8.172   4.265
55195W        W23536  35.372   9.215  11.125
55196W        W23537  26.113  33.484  14.481
55197W        W23538   2.375  44.852  12.538
55198W        W23539  20.750  40.422   3.369
55199W        W23540  10.764  16.258  11.938
55200W        W23541   0.357  31.153   3.684
55201W        W23542   0.342  39.514   1.258
55202W        W23543  16.738  15.155   2.192
55203W        W23544  22.008  29.480   0.785
55204W        W23545  26.970   7.238   3.241
55205W        W23546   8.201  15.646   2.813
55206W        W23547  10.767  17.239   0.250
55207W        W23548  16.802  39.451  13.452
55208W        W23549  25.484  22.175  12.896
55209W        W23550  28.137  34.967   3.706
55210W        W23551  32.919  26.087   3.376
55211W        W23552  41.881  34.889   3.710
55212W        W23553   0.402  38.920  14.992
55213W        W23554   5.295  39.477  14.779
55214W        W23555  41.864  32.604  12.919
55215W        W23556  28.937  22.999  11.055
55216W        W23557  10.283   1.881   2.417
55217W        W23558   8.895  42.438  12.871
55218W        W23559   2.267  33.611  10.513
55219W        W23560  36.971  34.491  14.851
55220W        W23561  31.100  23.014   2.192
55221W        W23562  23.672  35.947  14.393
55222W        W23563  30.459  32.599   2.309
55223W        W23564  33.386  22.534   1.371
55224W        W23565  35.979  44.897   4.301
55225W        W23566  15.810  11.636   3.720
55226W        W23567  17.074  13.200   4.230
55227W        W23568   4.759  42.879   1.306
55228W        W23569  20.719  31.568  11.081
55229W        W23570  21.565  25.676  12.841
55230W        W23571  28.497  13.771   0.924
55231W        W23572  35.499   9.836   0.931
55232W        W23573  25.043   4.921   2.216
55233W        W23574  27.510   0.800  14.509
55234W        W23575  14.826  11.691   1.262
55235W        W23576   8.215  40.512   4.789
55236W        W23577  26.047  10.266  12.377
55237W        W23578  38.928   3.755   3.837
55238W        W23579  31.404  34.507  14.880
55239W        W23580  36.556  40.401  14.293
55240W        W23581  14.193  36.972   0.408
55241W        W23582   6.213  44.861   3.670
55242W        W23583   4.933  21.602   1.819
55243W        W23584  10.837  36.408  12.398
55244W        W23585  15.278   3.269   4.336
55245W        W23586  26.098  31.945   1.925
55246W        W23587  23.492  22.213   2.831
55247W        W23588  24.147  14.665  14.825
55248W        W23589  37.853  32.051   1.787
55249W        W23590  19.124  21.559   0.279
55250W        W23591   9.788  31.570   4.269
55251W        W23592  38.865   0.470   3.354
55252W        W23593  14.106   7.328  11.409
55253W        W23594   2.943  24.103   1.924
55254W        W23595  36.574  11.250  13.811
55255W        W23596  32.941  36.925   2.381
55256W        W23597  12.721  36.358  13.851
55257W        W23598   9.253  25.564   1.266
55258W        W23599  24.492  35.553  10.570
55259W        W23600  35.440   3.262  12.958
55260W        W23601   2.298  18.126   3.789
55261W        W23602  39.480  11.177   2.856
55262W        W23603  14.777   9.751  13.411
55263W        W23604   6.194  34.948  10.463
55264W        W23605  26.630   7.883  11.611
55265W        W23606   3.385  30.950   4.242
55266W        W23607  20.080  38.904  14.809
55267W        W23608  34.385  38.827   0.869
55268W        W23609   4.204  43.968   4.166
55269W        W23610  38.988  39.487   0.922
55270W        W23611  16.577  13.172   4.133
55271W        W23612  29.469  24.679  14.907
55272W        W23613   1.462  15.328  14.382
55273W        W23614  17.234  34.457   5.677
55274W        W23615  29.533   5.930  12.533
55275W        W23616  29.562  18.695  14.028
55276W        W23617  15.109  39.867   3.174
55277W        W23618  24.491  43.323  13.938
55278W        W23619   1.331   7.766  11.541
55279W        W23620  43.338  40.319  13.040
55280W        W23621  10.774  31.519   0.845
55281W        W23622   6.782  36.939  12.826
55282W        W23623  27.956  37.959  11.586
55283W        W23624  15.263  24.077   5.139
55284W        W23625  21.244  37.533  10.084
55285W        W23626  34.875  38.975   1.731
55286W        W23627  30.485  44.412  13.010
55287W        W23628   5.321  39.036  14.803
55288W        W23629  13.304  26.013   0.761
55289W        W23630  44.377  10.851   3.851
55290W        W23631  21.243  40.888  10.419
55291W        W23632  12.274  24.548   0.245
55292W        W23633  16.152  10.214   3.191
55293W        W23634  40.371  38.490  13.459
55294W        W23635  29.155  18.625  12.370
55295W        W23636  19.220  38.398  10.560
55296W        W23637  34.930  37.394  11.495
55297W        W23638  29.534  33.099  11.407
55298W        W23639  43.821  13.781   4.174
55299W        W23640  23.489   8.663   2.385
55300W        W23641  37.934  28.673  12.966
55301W        W23642  37.942  14.824  14.276
55302W        W23643  30.982  38.034  11.974
55303W        W23644  26.509  39.321   2.738
55304W        W23645   9.192  21.226   1.753
55305W        W23646  31.102  36.869   0.463
55306W        W23647  21.105  18.296  13.042
55307W        W23648  18.104  42.011  11.419
55308W        W23649  40.514  21.584  13.942
55309W        W23650  33.049  24.133  13.430
55310W        W23651   1.256   7.308   0.775
55311W        W23652  41.529   4.422   0.809
55312W        W23653  20.202  17.104  13.054
55313W        W23654  22.065  23.533  11.038
55314W        W23655  36.579  33.394   2.322
55315W        W23656  39.908  22.680  10.902
55316W        W23657   5.928   2.948   1.389
55317W        W23658  44.762  35.881  12.424
55318W        W23659  27.627  14.743  14.804
55319W        W23660   5.893  10.653  12.376
55320W        W23661  38.548  31.920  10.104
55321W        W23662  29.147  23.148  11.893
55322W        W23663  44.352   5.788  14.318
55323W        W23664  24.069  26.685  10.509
55324W        W23665  44.305  13.211   1.412
55325W        W23666  39.004  37.517   3.178
55326W        W23667  27.645  42.488   4.761
55327W        W23668   2.884  30.509  13.973
55328W        W23669   6.303  35.040  13.021
55329W        W23670   0.366  40.405   3.730
55330W        W23671  42.783  21.517   4.609
55331W        W23672  40.471  18.238  10.159
55332W        W23673   3.941  20.141  13.826
55333W        W23674  29.027  19.545  13.833
55334W        W23675  15.303  39.533   1.807
55335W        W23676  36.883  31.915   3.793
55336W        W23677  25.646  32.587   2.275
55337W        W23678  10.751  44.475   3.333
55338W        W23679  43.868  18.286  10.961
55339W        W23680  21.244  26.059   3.225
55340W        W23681  24.089  21.572   0.468
55341W        W23682  17.610  24.556  14.311
55342W        W23683  30.016   9.263  12.399
55343W        W23684  14.670  26.071  13.455
55344W        W23685  12.800  13.341  14.360
55345W        W23686  14.207  16.096   1.706
55346W        W23687  31.904  24.627   3.743
55347W        W23688  35.383  42.879  13.417
55348W        W23689   9.714   1.832   1.916
55349W        W23690  10.332  35.053  11.903
55350W        W23691  11.745  22.581  14.817
55351W        W23692  37.037  28.931   0.875
55352W        W23693  30.053  23.185   1.371
55353W        W23694   4.768  17.185   2.731
55354W        W23695  31.902  42.490   3.182
55355W        W23696  28.469   5.801   2.355
55356W        W23697  42.849  33.589   1.716
55357W        W23698  14.192   3.405  12.064
55358W        W23699  32.898  44.834  10.912
55359W        W23700  20.155  25.489   2.258
55360W        W23701  23.123   1.898  13.825
55361W        W23702  14.835  17.627  14.498
55362W        W23703  10.659   9.286   3.651
55363W        W23704   2.296  19.237   3.290
55364W        W23705  19.612  21.255  13.855
55365W        W23706  27.197   6.849   1.276
55366W        W23707  24.229  16.289   4.814
55367W        W23708  31.521  33.978   0.357
55368W        W23709  36.483   9.753   1.928
55369W        W23710  42.452   7.809  11.015
55370W        W23711   3.374  29.554  11.473
55371W        W23712  42.420  24.042  12.950
55372W        W23713  34.499  14.302   0.836
55373W        W23714  36.492  21.624  11.907
55374W        W23715  19.689   7.743  10.442
55375W        W23716  16.171  41.992   2.776
55376W        W23717   6.826  38.554   1.214
55377W        W23718   3.715  37.452   0.819
55378W        W23719  10.280  16.152  13.936
55379W        W23720  15.687  15.823  12.553
55380W        W23721   7.759  30.015   0.923
55381W        W23722  38.979   5.196   4.154
55382W        W23723   9.730  27.070   0.850
55383W        W23724  23.521   2.440   4.707
55384W        W23725  15.314  15.238  14.930
55385W        W23726  18.276   4.213   0.429
55386W        W23727  28.163  11.816   0.889
55387W        W23728  35.977  28.161  13.357
55388W        W23729   4.282  17.075  11.006
55389W        W23730  29.471   1.401  12.037
55390W        W23731  40.510   3.326  14.487
55391W        W23732   9.834  41.390   3.691
55392W        W23733  33.931  10.647  11.921
55393W        W23734  37.985  39.001  10.637
55394W        W23735  24.552  43.770  14.496
55395W        W23736  43.367  26.614  11.943
55396W        W23737  20.614   4.733   3.706
55397W        W23738   4.255   1.781  13.321
55398W        W23739  34.035  40.868   4.219
55399W        W23740   7.757  25.048   1.375
55400W        W23741  15.660  39.007  13.495
55401W        W23742  30.470  14.127  11.062
55402W        W23743  36.353   7.296  12.883
55403W        W23744  41.875   9.699   2.899
55404W        W23745  12.156  28.151   0.458
55405W        W23746   2.258  41.878  12.979
55406W        W23747  13.695  29.082  14.363
55407W        W23748   7.873  44.819  10.510
55408W        W23749  24.084   6.859  11.993
55409W        W23750  26.553  25.580   1.926
55410W        W23751  43.968  22.678   1.428
55411W        W23752  30.039  30.065  14.339
55412W        W23753  30.516  32.616  14.865
55413W        W23754  44.926  22.027  14.011
55414W        W23755  15.653  24.142   1.391
55415W        W23756  15.290  38.972   9.961
55416W        W23757   9.194  38.885   2.373
55417W        W23758  25.681  26.523  11.859
55418W        W23759  31.992   6.757   3.267
55419W        W23760  35.494   7.679  10.515
55420W        W23761   4.943  27.020   2.303
55421W        W23762   5.831   4.790  10.449
55422W        W23763  29.628   8.707   4.218
55423W        W23764  19.277   6.376  12.568
55424W        W23765  24.048  13.810   0.928
55425W        W23766  39.027  16.227   4.342
55426W        W23767   4.854  33.516   5.218
55427W        W23768   5.432  13.794   2.680
55428W        W23769   9.165  23.183   4.702
55429W        W23770  36.521  16.212   0.783
55430W        W23771  23.599  39.814   0.807
55431W        W23772  28.615   9.850  14.436
55432W        W23773   7.263  22.040   3.814
55433W        W23774  13.770   5.840  14.389
55434W        W23775  17.607  21.105   1.278
55435W        W23776   5.705  38.376  11.860
55436W        W23777  22.747  20.629   4.233
55437W        W23778  22.117  10.758   0.758
55438W        W23779  26.586  36.002   0.315
55439W        W23780  13.174  42.781   2.205
55440W        W23781  16.716  42.521  11.373
55441W        W23782  13.297  21.607  12.482
55442W        W23783   7.760  27.020   0.334
55443W        W23784   4.276  23.731   3.773
55444W        W23785  44.416  23.007  14.773
55445W        W23786  33.898  14.121   2.218
55446W        W23787   9.766  44.401   2.216
55447W        W23788  28.547  25.094   1.920
55448W        W23789  16.620  25.671  14.031
55449W        W23790   0.330   0.765   1.786
55450W        W23791  40.828  19.608   1.787
55451W        W23792   1.837  35.966   4.277
55452W        W23793  33.403  40.478  10.958
55453W        W23794  32.062  27.579  13.043
55454W        W23795  34.566   6.703  10.491
55455W        W23796  36.508  15.262   3.836
55456W        W23797   0.289  33.013  11.604
55457W        W23798  21.214  13.781  13.955
55458W        W23799  22.688  19.707   3.663
55459W        W23800  38.835  39.972  11.596
55460W        W23801  11.791  27.031  10.435
55461W        W23802  16.165  22.030   1.923
55462W        W23803   4.218  32.947   0.473
55463W        W23804  24.702  44.919   0.850
55464W        W23805   9.293   2.773  11.492
55465W        W23806  30.442  24.495  12.052
55466W        W23807  32.973  23.051  14.786
55467W        W23808  17.112  11.782   4.344
55468W        W23809  14.116   3.923   3.639
55469W        W23810  25.549  18.172   2.292
55470W        W23811   6.704  29.604   1.306
55471W        W23812  27.668  42.981  11.504
55472W        W23813   2.352  44.982  12.071
55473W        W23814  32.063  36.465   1.879
55474W        W23815  32.587   2.231  12.531
55475W        W23816  39.555  26.624   1.932
55476W        W23817   6.415   3.229  14.008
55477W        W23818  32.570  32.445  11.486
55478W        W23819   6.386  19.103   4.275
55479W        W23820  43.317  43.450  12.560
55480W        W23821   4.892   7.337  13.444
55481W        W23822   2.778  14.602   3.694
55482W        W23823  33.976  15.654  10.571
55483W        W23824  30.548  44.402  11.892
55484W        W23825  40.015  20.121   2.798
55485W        W23826  10.711   9.348  13.030
55486W        W23827   6.362  45.000  13.352
55487W        W23828   8.380  17.201  13.039
55488W        W23829  33.413  33.972   0.459
55489W        W23830  24.520  33.107   4.313
55490W        W23831  35.953  22.733   3.645
55491W        W23832  36.925  32.983  12.453
55492W        W23833  37.361  32.630   2.221
55493W        W23834  11.791   3.388   4.822
55494W        W23835   7.300  15.189   2.858
55495W        W23836   0.935  42.418   1.772
55496W        W23837   6.842  24.095   1.761
55497W        W23838  39.839  41.897   1.436
55498W        W23839  41.418  41.438   1.838
55499W        W23840  30.599  21.689   4.720
55500W        W23841  41.507  38.984   4.722
55501W        W23842   8.198   4.236  12.869
55502W        W23843   8.369  34.504   0.901
55503W        W23844  32.624  18.647  12.495
55504W        W23845  35.982  29.649  13.519
55505W        W23846  44.999  17.560   0.767
55506W        W23847  35.477  27.082  10.454
55507W        W23848  10.859  34.540  10.985
55508W        W23849  14.720  30.640  13.023
55509W        W23850  27.128  39.558  10.554
55510W        W23851  10.251  35.001   2.721
55511W        W23852  38.380   8.294  11.087
55512W        W23853   3.839  29.952  11.012
55513W        W23854  14.257  36.869   1.270
55514W        W23855  37.557  27.152  13.810
55515W        W23856  39.443  34.529   1.307
55516W        W23857  16.253  13.627   2.297
55517W        W23858   7.280   4.302  10.567
55518W        W23859  43.422  26.592  13.346
55519W        W23860  41.307  22.511  10.945
55520W        W23861  30.145  25.583   1.739
55521W        W23862  24.151   6.787  11.081
55522W        W23863  14.770  23.189  14.365
55523W        W23864  42.313  33.056  12.981
55524W        W23865  17.599  26.603  12.908
55525W        W23866  41.534  44.981  14.473
55526W        W23867   9.370  37.938   2.726
55527W        W23868  25.073  33.480  13.363
55528W        W23869  12.352   4.922  12.027
55529W        W23870   9.837  22.035   1.932
55530W        W23871  25.198   0.907  12.505
55531W        W23872  32.117  28.085  13.796
55532W        W23873   9.682  39.898  13.412
55533W        W23874  13.763  22.138  13.430
55534W        W23875  12.155  32.963   0.281
55535W        W23876  30.054  15.093  14.013
55536W        W23877   3.325  44.902  14.970
55537W        W23878  29.977  27.551   0.320
55538W        W23879  25.658  33.062  13.887
55539W        W23880  23.992  37.071   4.823
55540W        W23881  27.941  21.097   4.135
55541W        W23882  31.128  26.491   1.864
55542W        W23883  39.013  41.925  12.981
55543W        W23884  41.937  19.756   3.804
55544W        W23885  33.091  40.038  11.055
55545W        W23886   0.480  10.324   2.330
55546W        W23887  26.460  23.645  12.342
55547W        W23888  22.135  26.085  12.439
55548W        W23889  41.322  42.405   3.384
55549W        W23890  31.905  34.024   0.849
55550W        W23891   6.854   6.745   3.858
55551W        W23892   9.190  12.841  14.381
55552W        W23893  28.185  21.630  12.427
55553W        W23894   3.275  29.614   2.832
55554W        W23895  30.997  18.070   1.218
55555W        W23896   5.375   4.355   1.426
55556W        W23897  41.389   6.327   3.730
55557W        W23898   4.273  18.778  10.021
55558W        W23899  38.907  15.273  13.010
55559W        W23900  39.478  26.633   1.372
55560W        W23901   1.399  40.043   2.842
55561W        W23902  13.130  35.893   5.084
55562W        W23903  42.795  23.150   1.856
55563W        W23904  35.447  31.972   3.764
55564W        W23905  43.345  36.378   3.284
55565W        W23906  20.258   0.348   1.905
55566W        W23907  30.961  34.522  12.434
55567W        W23908  15.748  40.944   0.839
55568W        W23909  29.162  21.618   0.425
55569W        W23910  32.133  33.456  10.894
55570W        W23911  15.577  18.050   4.622
55571W        W23912  21.532  44.997   0.394
55572W        W23913  39.882  41.354  11.429
55573W        W23914  35.464  43.811  13.535
55574W        W23915  38.511   4.871  12.068
55575W        W23916  34.057   3.823   0.428
55576W        W23917  29.634   1.342   3.800
55577W        W23918  31.959  40.933   2.871
55578W        W23919  43.445  19.672   4.343
55579W        W23920  31.999   7.304  10.457
55580W        W23921   2.966  24.179   0.356
55581W        W23922  36.472  33.502   5.311
55582W        W23923   9.189  26.036   2.671
55583W        W23924  36.379  17.736   2.747
55584W        W23925  19.607  15.249  13.960
55585W        W23926  17.567  39.504  14.507
55586W        W23927   5.847   3.769   3.226
55587W        W23928  35.865  35.495   4.285
55588W        W23929   4.897  33.933   4.241
55589W        W23930  29.616  23.630   4.291
55590W        W23931  28.953   9.746   4.638
55591W        W23932  37.008  42.855  13.835
55592W        W23933  15.329  39.876  14.976
55593W        W23934  19.683  28.088  13.512
55594W        W23935   8.386   7.814  14.282
55595W        W23936  40.832  10.804   1.263
55596W        W23937  35.926  43.340   0.936
55597W        W23938  24.622   7.234  11.612
55598W        W23939  36.096   7.288   1.269
55599W        W23940  15.093  36.908  13.876
55600W        W23941  40.490  25.993   4.283
55601W        W23942  14.684  25.173   4.293
55602W        W23943  24.163  35.369   1.300
55603W        W23944  27.490  26.989  11.524
55604W        W23945  37.365  27.663   4.291
55605W        W23946  36.870  18.562  12.848
55606W        W23947  41.937  11.695   1.769
55607W        W23948   1.435  24.043  14.430
55608W        W23949  16.732  23.069  12.022
55609W        W23950   7.340  42.863   0.832
55610W        W23951  36.061  15.259   3.339
55611W        W23952  40.384   6.689   1.838
55612W        W23953  12.128   9.881   3.753
55613W        W23954  35.862  19.601  11.554
55614W        W23955  16.643  37.554   3.648
55615W        W23956  29.544  11.679   1.833
55616W        W23957  15.609  30.073  12.580
55617W        W23958  43.389  40.035   0.956
55618W        W23959   8.348   5.897  14.384
55619W        W23960  44.415  10.257   4.660
55620W        W23961  25.628   7.327   0.404
55621W        W23962   6.368   9.189   1.341
55622W        W23963   9.682  11.743   4.634
55623W        W23964   8.307  37.054   2.779
55624W        W23965  25.159  28.580   2.762
55625W        W23966  21.116  13.162  10.501
55626W        W23967  15.778  14.281   4.291
55627W        W23968  23.527  12.140   3.668
55628W        W23969  15.806   0.768   4.337
55629W        W23970  22.024   7.381  11.957
55630W        W23971  20.645   0.832  11.573
55631W        W23972  40.365  31.945  11.959
55632W        W23973  15.597  31.565   1.329
55633W        W23974  34.023  16.655   3.345
55634W        W23975   4.367   8.819   1.711
55635W        W23976  16.281  29.547   1.451
55636W        W23977  13.203  33.467  11.519
55637W        W23978  35.450  24.481  13.527
55638W        W23979  28.575  30.518  12.519
55639W        W23980  27.535  17.641  10.505
55640W        W23981  27.630  29.000   3.156
55641W        W23982  13.180  15.261  10.565
55642W        W23983  44.771  38.872   1.842
55643W        W23984  15.820  40.533  12.069
55644W        W23985  12.630  14.723  14.404
55645W        W23986   4.417  22.139  14.770
55646W        W23987  22.564  10.219  14.791
55647W        W23988   6.844  17.709  13.517
55648W        W23989  24.624  28.464   9.498
55649W        W23990   2.468  20.591  12.829
55650W        W23991  35.604   8.359   3.163
55651W        W23992  15.217  18.653   4.332
55652W        W23993  21.124  18.622   5.254
55653W        W23994  40.471  44.954   4.702
55654W        W23995  35.098  23.725   1.870
55655W        W23996  24.638  40.914  12.992
55656W        W23997   8.887   4.446  13.873
55657W        W23998  43.774  33.610  12.071
55658W        W23999  43.501  16.812   3.727
55659W        W24000  15.767  34.900   3.344
55660W        W24001  29.503   4.772   4.616
55661W        W24002  29.649  22.080   3.291
55662W        W24003  33.984  11.352   2.873
55663W        W24004  13.832  15.728   3.256
55664W        W24005   4.229  26.071  11.447
55665W        W24006  24.148  33.544   3.378
55666W        W24007  19.074  26.104  12.901
55667W        W24008   4.383   6.894   0.802
55668W        W24009  11.714   6.399  11.548
55669W        W24010  34.447  30.934   1.709
55670W        W24011  40.349  35.042  11.071
55671W        W24012   6.808  32.504   0.432
55672W        W24013   6.286  39.871  10.524
55673W        W24014  32.069  19.189  12.352
55674W        W24015  19.570  10.666  11.971
55675W        W24016  37.489   0.430   1.882
55676W        W24017  13.285   1.936   1.398
55677W        W24018  32.571  42.962   2.194
55678W        W24019  19.116  11.650  14.419
55679W        W24020   7.223  23.100   3.727
55680W        W24021  40.334  33.036   2.205
55681W        W24022  19.596  25.108   0.450
55682W        W24023   7.750  30.479   3.679
55683W        W24024  10.280  12.677   3.708
55684W        W24025  29.157  14.263   3.310
55685W        W24026  18.581  21.712   9.607
55686W        W24027  29.613  19.227   0.735
55687W        W24028  11.265  18.694   0.876
55688W        W24029  44.807   6.388  11.551
55689W        W24030  17.144  11.740  13.979
55690W        W24031  22.500  33.581  10.452
55691W        W24032   8.346  12.192  11.045
55692W        W24033   6.330   1.845  11.987
55693W        W24034  36.474  23.046   1.792
55694W        W24035  37.377   2.397  12.986
55695W        W24036  11.787  40.467   4.264
55696W        W24037  10.823  20.716  11.078
55697W        W24038  15.676  23.668  10.645
55698W        W24039  36.405  30.422   9.977
55699W        W24040   9.696  33.033  12.919
55700W        W24041  19.721  37.390  14.470
55701W        W24042  17.148  31.447   3.227
55702W        W24043   0.790  16.626   2.333
55703W        W24044   5.424  41.822   4.781
55704W        W24045  15.800  20.718   1.435
55705W        W24046   1.239  38.045   3.670
55706W        W24047  22.020  31.082  12.919
55707W        W24048  37.377   9.847  12.565
55708W        W24049  13.144  35.898  14.372
55709W        W24050   8.741  37.024  12.003
55710W        W24051   5.307   8.729  12.447
55711W        W24052  20.597   4.757  13.019
55712W        W24053  26.572  32.510   0.856
55713W        W24054  36.883   3.343  11.921
55714W        W24055  25.059  35.600   4.141
55715W        W24056  28.021  11.193  13.351
55716W        W24057  21.123  35.868  14.759
55717W        W24058  32.603   1.861  11.557
55718W        W24059   6.702  39.385  12.028
55719W        W24060   1.325  29.155  12.538
55720W        W24061  13.732  15.121  14.995
55721W        W24062  13.671  21.214   1.748
55722W        W24063  42.929  18.184   4.733
55723W        W24064  18.244  31.111  14.469
55724W        W24065  17.305  13.679  12.093
55725W        W24066  42.957  32.610  14.380
55726W        W24067  21.208   3.275  11.547
55727W        W24068  21.077  26.649   9.960
55728W        W24069  28.020  14.729  12.869
55729W        W24070  11.759  20.751   1.854
55730W        W24071  30.653  13.271  11.034
55731W        W24072  22.102  31.501   0.803
55732W        W24073  10.201  17.250  10.154
55733W        W24074  23.495  43.944   0.769
55734W        W24075  25.568   0.305   3.664
55735W        W24076   1.814  11.754   4.184
55736W        W24077  29.104  32.090   1.928
55737W        W24078  11.191   8.277   1.774
55738W        W24079  27.981  17.680   0.897
55739W        W24080   3.943  24.208   1.745
55740W        W24081  32.568  14.167  14.357
55741W        W24082  16.140  18.135  11.415
55742W        W24083  10.225  40.053   3.202
55743W        W24084  11.767  17.582  12.020
55744W        W24085  23.678  11.215  12.394
55745W        W24086  30.560  34.389   4.683
55746W        W24087   9.675  18.232  13.839
55747W        W24088  28.130  28.547  14.774
55748W        W24089  14.101   5.899   0.740
55749W        W24090   1.741   3.230  11.098
55750W        W24091  43.365  32.887   4.636
55751W        W24092   4.704  11.808  12.444
55752W        W24093   6.715  44.878   4.620
55753W        W24094  43.908  42.496   2.808
55754W        W24095   1.376  16.686   9.952
55755W        W24096  10.809  20.646  11.862
55756W        W24097  28.105  20.672   1.848
55757W        W24098  23.593   8.825   2.702
55758W        W24099  38.501  44.402   3.698
55759W        W24100  26.105  17.261  12.036
55760W        W24101  18.595   2.800   0.765
55761W        W24102  21.637  18.692   4.164
55762W        W24103  14.590  44.493   1.214
55763W        W24104  11.172  44.449   1.308
55764W        W24105  16.087  36.452   3.329
55765W        W24106  26.499  28.083   3.823
55766W        W24107  24.601  29.554  12.860
55767W        W24108   2.913  29.070  11.010
55768W        W24109  40.978   2.391  14.032
55769W        W24110  41.415   6.267   3.181
55770W        W24111  27.197   7.352  11.071
55771W        W24112   7.718   7.884  12.483
55772W        W24113  32.569  35.939  13.458
55773W        W24114  39.548   5.274  12.829
55774W        W24115   3.797  35.082   2.664
55775W        W24116  13.332   5.883  14.394
55776W        W24117  30.960  32.977  10.945
55777W        W24118  44.780  16.141  14.002
55778W        W24119   2.452   2.358   2.197
55779W        W24120   2.268  31.902   1.758
55780W        W24121  36.012  44.991  14.870
55781W        W24122  15.106  25.498  13.062
55782W        W24123  16.111   8.746   1.713
55783W        W24124  23.532  17.253  12.840
55784W        W24125   8.177  23.206   2.686
55785W        W24126  29.589   2.248   2.892
55786W        W24127  28.047  42.340  10.463
55787W        W24128  29.435  37.502   1.782
55788W        W24129  18.281  13.114  10.952
55789W        W24130  40.482   0.754  10.035
55790W        W24131  44.766  18.683  13.911
55791W        W24132   1.951  25.152   2.200
55792W        W24133  12.173  20.076  14.358
55793W        W24134  12.313  24.982  14.500
55794W        W24135  37.060  31.514   0.462
55795W        W24136  23.542   9.389  14.832
55796W        W24137   4.362  38.960   2.263
55797W        W24138   5.371  19.265  11.500
55798W        W24139  31.640   8.814  14.798
55799W        W24140  39.943  24.005  14.435
55800W        W24141  26.061  23.011  10.535
55801W        W24142  21.671  27.558  12.065
55802W        W24143  10.216  42.902   9.974
55803W        W24144  24.545  11.685   2.731
55804W        W24145  13.670  17.732   3.801
55805W        W24146  32.413  33.954   1.921
55806W        W24147   6.688  42.932   4.135
55807W        W24148  28.065  18.594   4.614
55808W        W24149  12.217  34.485  14.825
55809W        W24150   6.215  42.442   0.820
55810W        W24151   0.872  27.098   4.764
55811W        W24152  19.236  38.015   3.253
55812W        W24153  21.117  28.629   2.892
55813W        W24154  36.911  30.453   1.363
55814W        W24155  26.654  22.084   0.912
55815W        W24156  36.450  13.803  14.342
55816W        W24157   3.938  21.608   3.696
55817W        W24158  13.731  43.822   3.755
55818W        W24159   0.981   6.761   0.337
55819W        W24160  33.524  30.431   0.320
55820W        W24161  20.133   2.732  12.885
55821W        W24162  37.494  18.594  12.480
55822W        W24163  35.940  31.647  14.364
55823W        W24164  23.996  43.893   0.245
55824W        W24165  13.137  37.987  10.486
55825W        W24166  35.406   5.854  10.603
55826W        W24167  41.330  32.920  12.023
55827W        W24168  20.080  37.375  12.932
55828W        W24169  40.511  14.688  11.987
55829W        W24170  27.643  27.634  10.943
55830W        W24171  39.825  34.376   0.864
55831W        W24172  13.618   6.376  14.764
55832W        W24173  36.883   8.266  12.561
55833W        W24174  37.049  21.621  11.384
55834W        W24175   9.151  21.536  14.352
55835W        W24176  27.472  21.033   2.862
55836W        W24177  30.010   1.882   1.912
55837W        W24178  10.873  22.737  12.885
55838W        W24179   5.221   1.317   0.445
55839W        W24180  34.421  19.721   3.728
55840W        W24181   7.325  32.414   1.418
55841W        W24182   1.444  20.160  11.574
55842W        W24183  12.195  17.179  14.338
55843W        W24184   3.269   2.233  14.943
55844W        W24185  24.079  38.969  13.476
55845W        W24186  14.211  28.611  12.949
55846W        W24187   1.422  12.310  12.451
55847W        W24188  29.079  36.012  10.522
55848W        W24189   0.967   8.176   2.663
55849W        W24190  23.171   6.816   3.839
55850W        W24191  31.417   4.806  11.949
55851W        W24192   7.722  39.872   1.697
55852W        W24193  13.299  24.207   1.874
55853W        W24194  40.335  12.670   4.665
55854W        W24195  30.616  38.538  14.778
55855W        W24196   3.916  14.133   3.636
55856W        W24197  23.637  36.075  11.570
55857W        W24198  25.656  26.546  10.149
55858W        W24199  19.275   4.808  10.598
55859W        W24200  25.023   2.883  11.447
55860W        W24201  28.109   3.453  13.984
55861W        W24202   8.240  12.635  10.973
55862W        W24203  22.631  24.106   3.181
55863W        W24204  33.539  20.251  10.435
55864W        W24205  12.610  10.363   4.792
55865W        W24206  39.947  32.914  12.500
55866W        W24207  38.540  31.069  14.828
55867W        W24208  28.477   6.353  10.896
55868W        W24209   8.802  20.061   1.803
55869W        W24210  41.022  24.073   2.336
55870W        W24211  20.220  25.076  13.363
55871W        W24212  29.475  22.546  10.147
55872W        W24213  42.824  17.260   4.754
55873W        W24214  43.801  14.701  11.945
55874W        W24215  40.320  14.185   4.701
55875W        W24216  41.507  13.648  12.398
55876W        W24217  24.496   8.396   1.401
55877W        W24218   0.774  22.650  11.885
55878W        W24219  31.408  11.252  13.332
55879W        W24220  25.515  38.944   3.824
55880W        W24221  32.020  23.496   0.878
55881W        W24222  33.612   5.368  12.937
55882W        W24223  20.653  19.068   4.668
55883W        W24224   1.429   5.902   1.871
55884W        W24225   3.952  21.193   2.219
55885W        W24226  35.576  44.415   2.802
55886W        W24227  43.312   8.810  13.985
55887W        W24228  16.638  14.612   0.286
55888W        W24229  17.792  20.669   0.383
55889W        W24230  37.456   4.305  11.999
55890W        W24231  19.119  16.110  13.904
55891W        W24232   4.243  12.284   3.341
55892W        W24233  32.125  33.416   2.246
55893W        W24234  16.700  39.475   4.128
55894W        W24235  20.660  25.699  11.377
55895W        W24236  26.604  39.933   0.396
55896W        W24237  22.556  24.187   3.839
55897W        W24238  17.731  19.678  12.465
55898W        W24239   2.743  11.844   1.891
55899W        W24240   0.847  34.931  10.953
55900W        W24241  30.960  38.509  13.935
55901W        W24242  14.763   4.342  14.847
55902W        W24243   3.319  19.045  13.530
55903W        W24244  28.151  24.225  10.467
55904W        W24245  10.661  42.951  14.008
55905W        W24246  41.959   8.349   2.837
55906W        W24247  16.617  10.739   1.243
55907W        W24248   2.828  21.704   3.296
55908W        W24249  15.086  36.994  13.358
55909W        W24250  16.309  16.774  11.591
55910W        W24251   9.676   1.269  14.017
55911W        W24252  37.933  41.514   0.807
55912W        W24253  35.031  43.867   1.694
55913W        W24254  12.324  19.165   2.869
55914W        W24255  25.583  23.666  13.935
55915W        W24256  40.963   5.435  11.955
55916W        W24257  30.126   8.173   3.739
55917W        W24258   2.233   0.280   3.854
55918W        W24259  11.704  20.158   4.280
55919W        W24260  42.413  34.992   2.306
55920W        W24261  18.623  26.500  11.376
55921W        W24262  33.521  14.308  13.863
55922W        W24263  26.145  13.813  13.897
55923W        W24264  22.540  36.548   4.708
55924W        W24265  43.901  36.878   3.647
55925W        W24266  34.032  21.731  13.477
55926W        W24267  32.570  34.569  12.030
55927W        W24268  37.909  27.466  12.067
55928W        W24269   1.902   1.784   0.740
55929W        W24270   4.241  35.556   4.791
55930W        W24271   7.331  44.791  12.912
55931W        W24272   1.877  37.578   1.229
55932W        W24273   3.812   8.291  12.851
55933W        W24274  19.536  33.008   2.370
55934W        W24275  19.585   0.321   1.869
55935W        W24276  20.593  40.951  11.040
55936W        W24277  15.729   2.932  10.908
55937W        W24278   2.239  23.154   1.859
55938W        W24279  31.087  39.992   4.643
55939W        W24280  24.138  28.446   5.082
55940W        W24281   5.770  32.127   5.146
55941W        W24282  20.713   5.712  13.899
55942W        W24283  26.149  15.789   2.341
55943W        W24284   7.384  33.575  14.856
55944W        W24285  41.505  22.571  11.997
55945W        W24286  15.151  33.613  10.103
55946W        W24287  33.562   9.309  11.063
55947W        W24288  25.505   4.375  11.575
55948W        W24289  13.777  30.032   4.704
55949W        W24290  28.600  12.800  13.958
55950W        W24291   8.740  34.063   2.228
55951W        W24292   4.280   1.255  11.431
55952W        W24293  38.849  40.003   1.293
55953W        W24294   5.340   7.910   0.769
55954W        W24295  43.411   3.231  10.962
55955W        W24296  44.435  10.665  14.459
55956W        W24297   0.254  22.609   3.148
55957W        W24298   7.738  36.895  13.497
55958W        W24299  41.009   6.787   1.884
55959W        W24300  20.693  13.277   4.657
55960W        W24301   3.244  33.073  13.540
55961W        W24302   0.894  17.568   5.212
55962W        W24303  31.013  13.327   0.862
55963W        W24304  26.110  33.993   3.316
55964W        W24305  38.457  34.944  13.956
55965W        W24306   3.452  37.918   1.924
55966W        W24307  25.109  39.045  12.848
55967W        W24308  16.117  35.430  14.345
55968W        W24309  31.115  43.979  12.510
55969W        W24310  11.296   9.888  13.329
55970W        W24311  36.528  35.383  11.386
55971W        W24312   8.835  15.126  14.417
55972W        W24313  12.284  44.393  10.489
55973W        W24314  27.108  14.654  13.406
55974W        W24315   1.316  32.995  11.965
55975W        W24316  15.597  34.433  11.031
55976W        W24317  25.131  44.451  14.966
55977W        W24318  32.535  36.381  13.434
55978W        W24319  27.619   8.725  13.837
55979W        W24320  26.118   3.448   0.458
55980W        W24321  16.120  22.054  14.816
55981W        W24322   5.762  11.361  11.011
55982W        W24323   9.653   3.378  11.483
55983W        W24324  11.364  26.639   1.238
55984W        W24325  19.544  25.004  14.971
55985W        W24326  24.575  33.598   4.126
55986W        W24327  19.072  22.056   2.790
55987W        W24328  33.383   7.272  11.507
55988W        W24329  38.395  21.691   3.806
55989W        W24330   4.740  19.660   3.822
55990W        W24331   5.198  18.269   2.877
55991W        W24332  43.470   5.253  11.056
55992W        W24333  21.124  17.779   3.745
55993W        W24334  43.384  21.616   4.670
55994W        W24335  16.767  33.497  11.868
55995W        W24336  40.468   5.882   3.726
55996W        W24337  30.524  21.672   3.673
55997W        W24338  32.080  29.088  12.918
55998W        W24339  41.312  39.834   3.770
55999W        W24340  31.519  38.046  12.429
56000W        W24341   0.340  20.740  11.523
56001W        W24342  27.069  14.709   2.757
56002W        W24343  39.931  30.481  14.338
56003W        W24344  19.770  26.631   2.262
56004W        W24345  20.630  36.459  13.351
56005W        W24346  20.053   8.264  14.811
56006W        W24347   7.229   0.483   4.649
56007W        W24348  38.517  13.171  13.443
56008W        W24349   9.694   0.797  12.986
56009W        W24350  15.219  24.141   1.779
56010W        W24351  25.068  22.996  13.920
56011W        W24352  36.859   0.341  13.400
56012W        W24353  20.605  35.083   1.421
56013W        W24354   5.413  36.082  12.342
56014W        W24355   6.372  37.526   3.640
56015W        W24356   7.342  22.692  11.607
56016W        W24357   5.775  20.169  11.902
56017W        W24358   0.386  25.016  11.506
56018W        W24359   6.857  10.658   3.781
56019W        W24360   0.902   2.351   3.250
56020W        W24361  42.952  10.879   1.809
56021W        W24362  36.489  30.488   2.316
56022W        W24363  23.607  39.400  14.385
56023W        W24364  22.533  15.793   4.303
56024W        W24365  19.631  16.579  11.438
56025W        W24366  11.817  35.422  14.382
56026W        W24367  36.383  21.085  13.958
56027W        W24368  34.914  31.510  11.070
56028W        W24369  19.585  31.479  14.032
56029W        W24370  11.130   2.777  13.026
56030W        W24371  18.692  35.928   9.956
56031W        W24372  13.829  11.769   0.953
56032W        W24373  13.735  12.117   1.252
56033W        W24374  20.736  14.670  11.578
56034W        W24375  26.624  28.605  12.492
56035W        W24376  41.305  42.981   2.755
56036W        W24377  21.217  25.487  12.550
56037W        W24378  26.478  12.762  14.007
56038W        W24379   1.928  24.199   0.945
56039W        W24380  12.258  14.745   4.294
56040W        W24381  42.314  11.790  13.904
56041W        W24382  17.558   5.305  13.521
56042W        W24383  20.172  37.883   2.696
56043W        W24384  34.418  39.944   1.370
56044W        W24385  17.285  34.105  14.805
56045W        W24386  39.843  35.064   4.783
56046W        W24387  17.283  37.466   4.623
56047W        W24388  36.975   9.244  13.921
56048W        W24389  22.552  18.194   0.765
56049W        W24390  21.031  15.220   3.277
56050W        W24391  35.993  38.840  12.557
56051W        W24392  17.728  23.013   0.955
56052W        W24393   0.949  13.209   0.464
56053W        W24394  43.879  44.401   2.685
56054W        W24395  38.455  44.857   1.773
56055W        W24396  19.129  19.712  10.595
56056W        W24397  12.128  30.925   3.802
56057W        W24398   3.388   4.704  10.999
56058W        W24399  21.691  38.554  10.460
56059W        W24400  30.119  10.303  14.861
56060W        W24401  38.335  12.189  11.407
56061W        W24402  20.718  37.395  12.840
56062W        W24403  40.012  31.152  14.817
56063W        W24404  24.012  32.925  12.355
56064W        W24405  43.882   6.415  10.989
56065W        W24406  33.122  23.143  13.852
56066W        W24407  33.125  17.121  14.967
56067W        W24408  15.739  19.582   3.791
56068W        W24409  35.370  29.539   4.712
56069W        W24410   2.821  10.773   3.210
56070W        W24411  29.536  21.639   0.331
56071W        W24412   9.852  30.098   3.823
56072W        W24413  26.988  33.875  14.327
56073W        W24414  12.203  12.845  14.386
56074W        W24415  32.000  22.539   4.287
56075W        W24416  37.032  39.404   2.310
56076W        W24417  35.854   8.701   1.856
56077W        W24418  18.290  25.003  11.953
56078W        W24419   5.899  43.453  13.005
56079W        W24420   5.361  33.897  13.501
56080W        W24421  35.399  43.331  13.861
56081W        W24422   9.687  18.680   2.881
56082W        W24423  28.679  12.205   4.182
56083W        W24424  40.490  34.612   3.816
56084W        W24425  20.752  21.063  13.528
56085W        W24426   7.706  34.997  13.462
56086W        W24427  30.508   7.314  13.487
56087W        W24428   7.891  33.463   3.374
56088W        W24429   6.374  17.169   9.937
56089W        W24430  19.579  40.507  14.844
56090W        W24431  11.253  40.488   5.125
56091W        W24432  25.032  33.549   4.813
56092W        W24433   8.856  16.303   0.383
56093W        W24434  22.531  18.132  10.496
56094W        W24435   4.287  41.870  11.001
56095W        W24436  26.536   1.299  12.981
56096W        W24437   3.383  23.127   0.287
56097W        W24438   4.862  16.742   4.273
56098W        W24439  31.550  28.606   2.689
56099W        W24440   6.682  25.998  11.899
56100W        W24441  17.120  44.846   3.845
56101W        W24442  31.592  42.406  12.832
56102W        W24443  17.787  16.624  14.883
56103W        W24444   5.871  35.085  14.938
56104W        W24445  32.053  34.050  13.909
56105W        W24446  44.912  28.468  13.929
56106W        W24447  18.762  32.519   1.701
56107W        W24448  36.995  30.130   1.426
56108W        W24449  16.249   5.694  10.623
56109W        W24450  10.352  24.147  14.383
56110W        W24451   3.946  15.729   4.805
56111W        W24452  26.119   8.818  14.349
56112W        W24453  22.660   8.202   3.781
56113W        W24454  29.014  41.518  10.479
56114W        W24455  29.157  22.087  10.451
56115W        W24456  11.633  28.085  14.002
56116W        W24457  20.064   4.232  12.037
56117W        W24458   1.912   9.313  11.385
56118W        W24459  23.729  27.129   3.335
56119W        W24460   2.784  13.609  10.589
56120W        W24461  43.368   1.936   3.280
56121W        W24462   8.765  23.687   2.286
56122W        W24463  37.858  37.065   1.320
56123W        W24464   7.781  40.388  10.635
56124W        W24465  10.376  15.308   3.204
56125W        W24466  29.452  20.529  11.069
56126W        W24467  29.940  40.946  14.769
56127W        W24468  10.288  25.210  11.072
56128W        W24469  15.793  20.140   0.372
56129W        W24470  31.092  21.260  13.044
56130W        W24471  35.049  19.729   0.338
56131W        W24472  22.063  22.060  10.950
56132W        W24473  28.065   4.356  10.053
56133W        W24474  43.772  41.509   1.718
56134W        W24475   1.335  27.643  11.970
56135W        W24476   8.213   5.401  14.317
56136W        W24477  21.732  10.182  14.879
56137W        W24478  30.027   8.309   1.402
56138W        W24479  44.952   1.887   4.269
56139W        W24480  19.176  44.999  13.496
56140W        W24481  14.311  24.557   1.228
56141W        W24482  15.219  15.217  11.530
56142W        W24483  42.778  42.925  13.428
56143W        W24484  25.556   2.263   3.829
56144W        W24485  31.452  21.251  14.874
56145W        W24486   3.292  40.991   2.819
56146W        W24487   9.654  34.543  12.495
56147W        W24488  34.026  43.387   4.731
56148W        W24489   4.808  16.694   4.711
56149W        W24490  44.322  32.085   2.674
56150W        W24491  34.387   2.309   0.954
56151W        W24492  16.262  16.167  11.037
56152W        W24493   1.870  40.914   2.741
56153W        W24494  40.386  20.724  12.009
56154W        W24495   6.749  39.538   1.778
56155W        W24496  25.578  12.806   4.666
56156W        W24497  41.991  24.051   0.838
56157W        W24498  19.573  27.547   4.827
56158W        W24499  16.695  14.711   1.362
56159W        W24500  24.990   2.820   2.385
56160W        W24501   0.759   0.357   3.657
56161W        W24502  17.600  33.599  12.922
56162W        W24503  32.528  28.517  14.514
56163W        W24504  22.646   0.258  14.898
56164W        W24505  28.185   2.227   4.259
56165W        W24506   1.731  24.115  14.839
56166W        W24507  15.611  30.026   2.874
56167W        W24508  41.791  42.518   1.388
56168W        W24509  18.282  33.507   0.920
56169W        W24510  22.521  24.583  10.458
56170W        W24511  28.522   9.183  14.469
56171W        W24512  29.642   7.800   1.341
56172W        W24513  36.933  35.872  14.363
56173W        W24514  20.101  10.775  10.944
56174W        W24515  32.079   6.265  14.836
56175W        W24516  21.195  14.661   1.299
56176W        W24517   6.890  38.854  11.423
56177W        W24518  40.806  39.969  10.446
56178W        W24519   3.948  40.400   2.896
56179W        W24520  12.681  32.516   0.761
56180W        W24521   3.770  42.858  10.626
56181W        W24522  28.985  40.028   4.714
56182W        W24523  20.682  43.803   0.464
56183W        W24524  22.061   4.212   2.732
56184W        W24525   5.773  33.483  13.931
56185W        W24526  37.466  25.680  13.866
56186W        W24527   5.382  15.311  12.048
56187W        W24528  41.372   4.873   1.928
56188W        W24529  21.692  38.461   0.481
56189W        W24530  33.462   4.869  12.471
56190W        W24531  30.647  33.504   3.771
56191W        W24532   1.896  10.363   0.356
56192W        W24533  30.586   9.213  10.457
56193W        W24534  14.827   3.275  13.061
56194W        W24535   9.784  17.286   0.388
56195W        W24536  14.264  12.851   1.814
56196W        W24537  34.560  24.042  11.407
56197W        W24538   9.673  35.531   0.255
56198W        W24539   7.383   5.842  12.970
56199W        W24540  11.263   8.215   4.697
56200W        W24541  27.548   8.844   1.847
56201W        W24542   8.782   9.767   3.674
56202W        W24543  37.068  21.640  11.878
56203W        W24544   9.316  36.916  13.515
56204W        W24545  35.357  25.476   1.239
56205W        W24546  40.315  34.958  12.843
56206W        W24547  17.228  12.654  12.569
56207W        W24548   1.967  12.331  11.521
56208W        W24549   1.857  29.021   0.397
56209W        W24550   5.402  31.505   0.907
56210W        W24551  35.905  14.139   0.420
56211W        W24552  18.626  40.458   1.897
56212W        W24553  30.039  11.666   1.217
56213W        W24554  44.433   1.869   3.165
56214W        W24555  25.126  40.849   0.767
56215W        W24556   2.441  10.365  10.911
56216W        W24557  25.600  29.646   4.797
56217W        W24558  14.766  32.978  12.006
56218W        W24559  43.438  19.194  12.907
56219W        W24560  27.955  39.920   4.625
56220W        W24561  44.851  30.530   2.188
56221W        W24562  15.683  36.401  10.979
56222W        W24563  32.460  26.122  13.891
56223W        W24564   2.870  38.548  11.523
56224W        W24565  27.032  29.461   1.830
56225W        W24566  31.971  27.452   3.149
56226W        W24567  16.650   4.215  13.502
56227W        W24568  44.861  30.936   1.380
56228W        W24569  15.742  37.880   3.174
56229W        W24570  27.973  17.232   0.833
56230W        W24571  21.088  10.740  14.801
56231W        W24572  11.788   2.243   0.794
56232W        W24573  23.717  38.401   0.300
56233W        W24574  42.442   8.236   0.888
56234W        W24575  13.254  17.266   3.864
56235W        W24576  26.969  27.631   1.258
56236W        W24577  21.651  19.585  13.368
56237W        W24578  22.619  38.510   2.253
56238W        W24579  27.185  21.029  14.442
56239W        W24580  24.523  15.093  10.466
56240W        W24581   3.895  27.093   4.816
56241W        W24582   4.403  40.488  14.984
56242W        W24583  42.494  42.968   3.749
56243W        W24584  22.510  17.146  11.383
56244W        W24585  23.059  35.525   2.786
56245W        W24586   3.250  21.752   3.359
56246W        W24587  23.534  31.531   3.254
56247W        W24588  42.928   7.417  13.309
56248W        W24589  20.129   5.797   0.253
56249W        W24590  43.016  25.963   1.221
56250W        W24591  31.916  13.248  13.338
56251W        W24592  22.720  42.363  13.391
56252W        W24593   2.380  30.015   0.428
56253W        W24594   4.705  29.471  13.958
56254W        W24595  16.599  23.012  14.328
56255W        W24596  31.556  32.887  13.433
56256W        W24597  28.658  28.545  14.404
56257W        W24598  11.371  28.659   2.179
56258W        W24599  28.980  43.959  14.825
56259W        W24600   2.338  24.108  13.392
56260W        W24601  21.235   4.814   0.938
56261W        W24602  39.390  29.548  13.320
56262W        W24603   3.386   8.161  13.451
56263W        W24604  21.250  44.478   4.601
56264W        W24605  40.984  41.430  11.599
56265W        W24606   0.420  36.852  10.513
56266W        W24607   3.401  34.527  11.974
56267W        W24608  26.658   8.313  14.759
56268W        W24609  21.552   0.761  12.454
56269W        W24610  17.764  39.424   1.241
56270W        W24611   8.855  34.587  11.533
56271W        W24612  41.428  30.554   3.808
56272W        W24613  37.387  33.098  12.004
56273W        W24614  41.498   9.279  13.310
56274W        W24615  23.546  18.253   0.453
56275W        W24616  25.203   8.830   2.243
56276W        W24617   5.303  41.533  13.361
56277W        W24618  37.981   5.859  10.943
56278W        W24619  36.907   7.219   3.784
56279W        W24620   6.804  28.955  10.621
56280W        W24621  14.252  22.140  14.933
56281W        W24622  24.205   4.873   2.407
56282W        W24623  22.225  20.051   3.192
56283W        W24624  20.628  37.949  14.507
56284W        W24625  21.514  30.036  11.961
56285W        W24626  28.062  11.640   2.699
56286W        W24627  43.382   1.901  12.416
56287W        W24628  29.035  12.195  12.850
56288W        W24629  33.392  25.564  11.080
56289W        W24630  20.708   0.446   4.704
56290W        W24631  42.305  29.429   0.471
56291W        W24632   6.386  17.112  11.579
56292W        W24633  30.027  17.624  14.922
56293W        W24634   2.452  33.960  13.041
56294W        W24635  42.857   6.782  12.516
56295W        W24636  24.073  43.870   4.208
56296W        W24637  21.550  20.709  14.989
56297W        W24638  30.439  33.989  11.432
56298W        W24639  13.754  24.038   4.671
56299W        W24640  28.516   6.902   4.313
56300W        W24641  29.043   5.892  13.316
56301W        W24642  26.634  15.286  10.494
56302W        W24643  44.291  19.674   4.270
56303W        W24644  44.300  14.591   2.748
56304W        W24645  19.729   3.375   3.786
56305W        W24646  42.507  28.932   2.708
56306W        W24647   8.842   2.790   4.155
56307W        W24648   4.210   9.700   4.115
56308W        W24649  15.306  29.438  13.926
56309W        W24650   4.249  44.498  14.797
56310W        W24651  18.641  26.654   3.227
56311W        W24652   3.780  26.204  13.898
56312W        W24653   2.247  38.484   2.286
56313W        W24654  26.615   1.840  12.922
56314W        W24655  13.337  23.553  11.993
56315W        W24656   9.320  32.889  14.815
56316W        W24657  23.071   9.195  11.417
56317W        W24658  11.823   4.220  10.932
56318W        W24659  30.521   6.767  14.493
56319W        W24660  13.747  23.057   2.792
56320W        W24661   3.817  31.085  13.382
56321W        W24662  44.445  31.634   9.930
56322W        W24663   0.312  42.404  11.074
56323W        W24664  40.364  24.705   2.853
56324W        W24665  37.569  23.705   4.826
56325W        W24666  44.945  25.593  11.612
56326W        W24667  41.507  18.050   0.798
56327W        W24668  34.098  20.062   4.200
56328W        W24669  33.542   7.234   3.741
56329W        W24670  23.156  33.036   3.284
56330W        W24671  18.683  17.561   3.863
56331W        W24672  43.920  19.089  13.927
56332W        W24673  30.473  40.450  13.500
56333W        W24674  23.119  28.938  11.964
56334W        W24675   6.380  28.128   5.097
56335W        W24676  10.247   9.879  10.412
56336W        W24677  35.873   9.285  14.332
56337W        W24678   2.849  33.421  13.847
56338W        W24679  24.544  16.282   2.866
56339W        W24680  38.878   9.321   2.681
56340W        W24681  33.564   0.907   1.225
56341W        W24682  21.244   2.832  10.894
56342W        W24683  32.026  37.851   3.693
56343W        W24684   7.328   8.662  13.920
56344W        W24685  22.068   6.186  10.583
56345W        W24686  20.108  17.636  11.593
56346W        W24687  31.402  42.519  14.911
56347W        W24688  15.111  34.539  14.387
56348W        W24689  34.535  17.184  13.403
56349W        W24690  14.652  28.557   2.395
56350W        W24691  12.160  39.895  11.401
56351W        W24692  43.381  36.504   0.482
56352W        W24693  16.636  23.601  10.947
56353W        W24694  37.955  17.167   1.837
56354W        W24695  18.766  38.338   2.703
56355W        W24696  38.566  44.756  13.332
56356W        W24697  18.574  42.977  14.398
56357W        W24698  30.980   3.754  10.605
56358W        W24699  21.720  33.562  14.420
56359W        W24700   4.284  26.580  10.062
56360W        W24701  18.774  18.255  13.006
56361W        W24702   4.316  16.204   1.399
56362W        W24703   1.374  27.455  10.998
56363W        W24704  28.436   7.259  12.973
56364W        W24705  17.262   6.776  12.348
56365W        W24706   8.173  36.482  10.432
56366W        W24707  36.436  38.443  11.518
56367W        W24708   8.178   4.721   3.827
56368W        W24709  25.628  26.698  11.105
56369W        W24710   1.400  40.448   1.270
56370W        W24711  39.485  24.479  13.382
56371W        W24712  11.772  33.552   0.830
56372W        W24713  22.667   2.323   1.695
56373W        W24714  43.958  44.888  11.096
56374W        W24715  44.279  15.094   0.300
56375W        W24716   7.895  11.868  13.880
56376W        W24717   7.905  43.904  14.385
56377W        W24718  36.348  43.391   3.367
56378W        W24719   7.179  12.845  11.873
56379W        W24720  23.228   2.384  12.881
56380W        W24721  15.132  12.694  12.850
56381W        W24722  42.868  26.028  14.472
56382W        W24723  25.653  23.232   1.256
56383W        W24724  44.425   4.920   1.897
56384W        W24725   0.445  37.526  10.083
56385W        W24726  37.364  38.939   0.376
56386W        W24727  27.002   6.698  12.349
56387W        W24728  28.030  30.049   1.859
56388W        W24729  38.897  27.074   1.752
56389W        W24730  39.974   5.275   1.901
56390W        W24731  19.666   3.217   0.856
56391W        W24732  32.132  15.204  12.518
56392W        W24733   4.279   1.296   4.213
56393W        W24734   1.939  21.725  13.804
56394W        W24735  39.860  44.859  12.074
56395W        W24736  26.679   7.747  11.922
56396W        W24737  19.568  10.727  14.348
56397W        W24738  38.058  35.871   4.310
56398W        W24739   0.356   4.716   1.763
56399W        W24740  15.282  15.210   2.396
56400W        W24741  23.573   9.179   2.205
56401W        W24742   1.309   5.297   4.648
56402W        W24743  31.613   4.447  10.912
56403W        W24744  41.306  42.389  12.855
56404W        W24745   7.300  27.947  13.024
56405W        W24746   6.412  33.391   0.374
56406W        W24747  23.104  24.669   0.258
56407W        W24748  11.823  36.861   4.821
56408W        W24749   6.790  28.560  11.559
56409W        W24750  28.167  18.544  14.391
56410W        W24751  24.082  27.029   9.567
56411W        W24752  24.497  27.950  12.092
56412W        W24753  44.422  32.118   0.928
56413W        W24754  31.081  10.698  14.806
56414W        W24755  14.771   0.389   0.257
56415W        W24756  25.502  42.907   5.304
56416W        W24757   3.929  36.536  11.993
56417W        W24758  17.758  16.662  14.313
56418W        W24759  35.988  11.361   1.373
56419W        W24760  10.839  17.655  14.333
56420W        W24761  15.233  17.292  14.838
56421W        W24762  21.609  44.292  14.847
56422W        W24763   9.663  42.898   4.260
56423W        W24764   3.250  35.057  13.966
56424W        W24765   1.253  29.497   3.676
56425W        W24766  40.817  33.065   0.763
56426W        W24767  25.562  13.297  13.931
56427W        W24768  31.982  19.096  14.449
56428W        W24769  25.968  14.199   4.637
56429W        W24770  33.592  26.104   2.243
56430W        W24771   2.240  12.168   4.257
56431W        W24772  14.771   6.228  10.428
56432W        W24773  24.702  22.517  13.810
56433W        W24774   6.864  24.198  12.413
56434W        W24775  30.950   9.288  14.770
56435W        W24776  13.286  10.660  12.084
56436W        W24777  14.618  32.625   4.633
56437W        W24778  27.602  13.742   0.369
56438W        W24779  15.226  26.694  10.936
56439W        W24780   9.664  36.462   0.892
56440W        W24781  44.395   9.780   2.766
56441W        W24782  15.664  41.038  13.446
56442W        W24783  16.185  28.538  14.481
56443W        W24784  12.855  30.604  14.302
56444W        W24785  11.759   9.816  11.927
56445W        W24786  44.977  35.601   4.331
56446W        W24787  10.159  43.449   2.301
56447W        W24788  14.829  33.042  13.038
56448W        W24789   0.895  28.182  10.477
56449W        W24790   1.392  30.415   4.608
56450W        W24791  26.021  28.958  14.513
56451W        W24792  30.570  40.917   0.852
56452W        W24793   5.744  31.936   3.692
56453W        W24794  44.795  22.162   1.825
56454W        W24795  27.176  18.588   4.608
56455W        W24796  23.551  29.964  13.386
56456W        W24797  16.173  24.053  11.380
56457W        W24798  18.584  33.569  12.410
56458W        W24799  41.371  33.071  12.356
56459W        W24800   0.490  32.617   4.828
56460W        W24801   9.190  33.483  11.104
56461W        W24802  26.017  33.948  14.450
56462W        W24803  31.931  29.097   3.272
56463W        W24804  28.645   9.842   4.149
56464W        W24805   3.333  44.476   2.373
56465W        W24806  41.017  12.170  11.034
56466W        W24807  23.563  12.185   0.366
56467W        W24808  15.673   4.922   4.184
56468W        W24809   2.265  29.623   1.779
56469W        W24810  35.524  21.048   2.864
56470W        W24811  36.053  14.190   0.795
56471W        W24812   1.467  35.917   0.804
56472W        W24813  34.380   6.826   1.848
56473W        W24814  31.970  14.716   2.307
56474W        W24815   8.280   6.844   0.818
56475W        W24816  10.795  39.816  13.806
56476W        W24817   7.850  29.591   1.702
56477W        W24818   6.309  23.657   1.868
56478W        W24819  43.381  23.075   3.186
56479W        W24820   5.202  12.196  13.859
56480W        W24821   7.206   9.679   0.851
56481W        W24822  16.802  25.676  13.375
56482W        W24823  41.943  26.616   5.186
56483W        W24824   1.935   5.356   2.796
56484W        W24825  21.104  38.414  13.848
56485W        W24826  34.392   2.869  14.924
56486W        W24827  36.394  36.394   2.221
56487W        W24828  31.644  26.031  14.514
56488W        W24829  41.526  38.870  11.009
56489W        W24830  34.500  35.973   2.681
56490W        W24831  10.209  11.286  11.024
56491W        W24832  30.972  28.045  13.476
56492W        W24833   0.801  40.854  10.897
56493W        W24834  38.567  44.292  12.997
56494W        W24835  37.065   9.818   2.722
56495W        W24836  18.699  20.273  12.963
56496W        W24837  34.530  33.979   2.853
56497W        W24838  24.542  20.708  12.045
56498W        W24839  32.591   6.818  11.917
56499W        W24840   1.406   8.279  14.343
56500W        W24841  23.498  17.164   2.670
56501W        W24842  38.418  37.338   3.218
56502W        W24843   0.446  42.893   0.772
56503W        W24844   1.258   3.263  13.927
56504W        W24845  18.117  42.391   0.394
56505W        W24846  38.835  30.104   4.248
56506W        W24847   9.697  41.523  13.477
56507W        W24848  38.970   5.350   3.277
56508W        W24849  16.082  34.016  11.540
56509W        W24850  43.790  14.329  14.926
56510W        W24851  23.022   5.922  12.087
56511W        W24852  19.136  24.228   1.752
56512W        W24853  16.618  34.470  14.988
56513W        W24854  32.023  34.988  10.921
56514W        W24855  15.686  19.774  11.952
56515W        W24856  38.560  12.757  13.499
56516W        W24857  21.586  16.705   3.189
56517W        W24858  43.374   4.251   3.836
56518W        W24859  44.957  33.048  11.507
56519W        W24860  26.461  12.177  12.354
56520W        W24861  23.045  37.007  12.458
56521W        W24862  18.746  25.654   4.271
56522W        W24863  34.920  11.233   1.857
56523W        W24864  39.932   4.875  12.916
56524W        W24865  36.490  15.702   3.183
56525W        W24866  31.996   4.328  14.814
56526W        W24867  27.086  20.204  13.335
56527W        W24868  23.136  40.454  14.862
56528W        W24869   5.250  39.833  12.385
56529W        W24870  14.329  24.991  10.572
56530W        W24871  21.673  27.191  13.452
56531W        W24872  32.916  18.608   1.333
56532W        W24873  31.143  37.343   4.794
56533W        W24874   9.810  16.301  14.874
56534W        W24875  29.950  21.621  14.292
56535W        W24876  13.803   2.437   2.737
56536W        W24877  23.072  40.935  12.498
56537W        W24878  35.011  23.496  11.930
56538W        W24879   8.269  42.975   2.310
56539W        W24880  29.516  40.036   3.381
56540W        W24881  41.491  28.180   5.204
56541W        W24882  44.927   8.296   0.394
56542W        W24883   8.349  24.641   1.864
56543W        W24884  27.630   6.255  10.601
56544W        W24885  29.431  15.268  11.895
56545W        W24886   7.704  30.446   3.376
56546W        W24887   5.404  44.272  14.807
56547W        W24888  24.020  20.044   4.661
56548W        W24889  28.524   6.712   0.293
56549W        W24890  40.363  44.280  11.388
56550W        W24891  20.270  38.973  10.018
56551W        W24892   6.725  15.179   4.287
56552W        W24893   4.303  40.969  12.580
56553W        W24894  16.218  28.136   0.927
56554W        W24895   5.722  35.507  12.379
56555W        W24896  10.764  24.485  14.374
56556W        W24897  44.866  39.914   2.763
56557W        W24898  14.828  42.951  10.060
56558W        W24899  31.506   0.777  12.434
56559W        W24900  21.582  25.993  11.375
56560W        W24901  42.867  14.749  14.772
56561W        W24902  28.183  40.371  14.875
56562W        W24903  31.085  29.468   1.382
56563W        W24904  30.932  30.613   4.315
56564W        W24905  18.187   7.401  10.545
56565W        W24906  12.660   0.960  12.921
56566W        W24907  38.380   3.405   0.365
56567W        W24908  40.408   5.858  13.009
56568W        W24909  29.094  25.014  12.908
56569W        W24910  13.248  31.934   2.389
56570W        W24911  15.784  11.271  14.424
56571W        W24912  21.521  17.703   3.253
56572W        W24913   8.749  23.085   0.481
56573W        W24914  31.086  13.146   4.688
56574W        W24915  27.643   5.756   3.210
56575W        W24916  41.926   7.684   0.457
56576W        W24917  10.278   2.821  13.919
56577W        W24918  37.078  29.114  14.979
56578W        W24919  38.439  39.409  11.482
56579W        W24920  44.460  37.845  14.819
56580W        W24921  26.073  16.146   1.905
56581W        W24922  21.697  27.036   1.816
56582W        W24923  17.624  32.596   3.726
56583W        W24924   2.795  12.133   2.340
56584W        W24925  41.454   9.690   3.336
56585W        W24926  12.697  21.104  11.394
56586W        W24927  35.574  21.696  13.352
56587W        W24928  23.715  42.851  13.512
56588W        W24929   8.857  19.192   3.757
56589W        W24930  27.041   9.646   2.771
56590W        W24931  38.956  14.192   9.970
56591W        W24932  44.339  16.667  11.056
56592W        W24933  19.052  29.557  10.981
56593W        W24934  16.721  15.167  10.928
56594W        W24935   6.773  40.934   4.775
56595W        W24936  32.586   1.746   0.323
56596W        W24937  40.413  44.995  11.418
56597W        W24938  24.586  32.926  11.387
56598W        W24939  44.923  23.587  14.013
56599W        W24940   9.290  33.465  14.397
56600W        W24941  42.783   5.815   4.724
56601W        W24942  38.961  19.230   4.689
56602W        W24943  42.430  16.214   4.719
56603W        W24944  28.505  25.008   3.270
56604W        W24945   4.785  23.107  11.128
56605W        W24946  23.645  31.466   1.306
56606W        W24947   6.700   3.292  11.469
56607W        W24948   4.441  11.297  12.946
56608W        W24949  33.878   0.762   2.878
56609W        W24950  19.612  30.971  12.827
56610W        W24951  10.810  18.262  13.972
56611W        W24952  25.611  31.068   4.716
56612W        W24953   0.928  38.994  10.634
56613W        W24954  15.273  44.908   3.312
56614W        W24955  27.688   6.417  11.066
56615W        W24956   9.783  40.885  10.495
56616W        W24957  43.336  12.760   3.200
56617W        W24958  20.172  40.814  11.517
56618W        W24959  38.884  32.400   0.313
56619W        W24960  24.563  15.718   4.167
56620W        W24961  11.243  36.404  12.040
56621W        W24962  15.691  35.059   3.655
56622W        W24963  44.405  19.625   2.346
56623W        W24964  26.177  12.776   2.823
56624W        W24965  14.754  40.980   5.295
56625W        W24966  29.168   3.917  11.545
56626W        W24967   8.701  25.150  14.828
56627W        W24968  17.225   9.348   2.339
56628W        W24969  14.149  41.950  13.429
56629W        W24970   5.845  43.366   0.935
56630W        W24971  13.607  16.161  10.550
56631W        W24972   6.702   4.705   2.891
56632W        W24973  20.097  12.763   2.741
56633W        W24974  43.412  40.867   4.333
56634W        W24975  25.021  24.562   0.894
56635W        W24976   5.286  19.737  12.083
56636W        W24977  30.962  20.744   0.863
56637W        W24978  10.658  42.791  11.916
56638W        W24979  42.351  27.560  10.542
56639W        W24980  24.668  29.100   5.675
56640W        W24981  18.122  32.935  13.485
56641W        W24982  22.575   1.800  11.424
56642W        W24983  14.830  36.473  10.572
56643W        W24984  24.073   3.238   3.281
56644W        W24985  21.634  12.307   4.619
56645W        W24986  17.667   7.254  13.879
56646W        W24987  16.107  21.142   3.720
56647W        W24988   2.340  38.338   3.358
56648W        W24989   7.327  25.140   1.832
56649W        W24990  19.674  30.443   0.901
56650W        W24991  38.029  10.304   4.733
56651W        W24992  26.659  35.041  11.535
56652W        W24993   1.947  34.071  11.080
56653W        W24994  33.440   7.685  13.438
56654W        W24995  24.136  24.625  13.797
56655W        W24996   0.984   8.362   3.148
56656W        W24997  43.272  26.581   3.641
56657W        W24998   1.892  36.074   4.748
56658W        W24999  44.326  31.141   5.264
56659W        W25000  30.487  18.764   0.849
56660W        W25001   2.811   9.280  13.923
56661W        W25002   6.750  14.722   0.922
56662W        W25003  26.986  15.596  10.404
56663W        W25004  42.864  12.262   0.429
56664W        W25005  14.599  37.983  14.318
56665W        W25006  43.926  26.067  12.492
56666W        W25007  40.392   3.727  12.932
56667W        W25008  34.396  13.714   4.124
56668W        W25009  26.042  16.654  13.414
56669W        W25010  32.077  43.334  12.075
56670W        W25011  16.074   5.718   0.887
56671W        W25012   3.308  19.137   0.296
56672W        W25013  16.302  13.111   0.288
56673W        W25014   8.306  23.121  14.472
56674W        W25015  11.273  15.201  10.483
56675W        W25016  44.962  19.767  14.913
56676W        W25017   0.424   2.957   4.121
56677W        W25018  21.153  44.492   1.858
56678W        W25019  23.734  39.504  11.401
56679W        W25020  24.142  41.863   4.282
56680W        W25021   6.889   6.280   2.847
56681W        W25022  42.526  29.125  13.385
56682W        W25023  27.676  10.219  13.402
56683W        W25024   9.363   5.708  12.967
56684W        W25025  26.098   7.288  11.440
56685W        W25026  17.273  26.543   2.717
56686W        W25027  20.221  43.899   2.186
56687W        W25028  23.229   6.919  14.834
56688W        W25029   2.374   9.252  11.928
56689W        W25030  30.463  28.157   4.287
56690W        W25031   3.826  16.151   4.790
56691W        W25032  23.522  25.019   1.926
56692W        W25033   4.869  25.006   0.731
56693W        W25034   7.193  21.587  11.483
56694W        W25035  39.357  28.132  10.435
56695W        W25036  30.915  23.674   0.961
56696W        W25037  11.318  12.644  12.013
56697W        W25038  33.119   2.906   1.704
56698W        W25039  30.473  21.024  12.475
56699W        W25040  32.140  25.085  11.868
56700W        W25041  41.451  35.109  13.335
56701W        W25042   8.760  38.493  10.897
56702W        W25043   1.750  40.484   4.326
56703W        W25044  27.465  33.889  14.873
56704W        W25045  33.017  27.069  13.495
56705W        W25046  26.971  44.341  12.578
56706W        W25047  30.630  41.819  11.039
56707W        W25048   1.912  44.866  14.377
56708W        W25049  24.484  10.266  11.487
56709W        W25050  40.358  23.198  11.419
56710W        W25051  31.907  19.098  14.768
56711W        W25052   4.876  38.427  10.088
56712W        W25053  42.497  17.602  12.076
56713W        W25054   2.756  19.099   2.287
56714W        W25055  15.172  15.733   2.694
56715W        W25056  22.510   6.424  13.387
56716W        W25057   3.903   0.937   3.751
56717W        W25058   1.766  23.056  10.410
56718W        W25059   8.320   1.256   0.351
56719W        W25060  18.715  21.124  11.874
56720W        W25061  13.684  34.897   1.694
56721W        W25062  43.910   6.296  10.432
56722W        W25063  41.019   8.667   0.399
56723W        W25064   2.874  36.348   4.243
56724W        W25065  18.732  11.856   1.327
56725W        W25066   3.320  20.033  14.818
56726W        W25067  16.148  36.497  11.410
56727W        W25068  32.620  16.246   4.710
56728W        W25069  43.511  27.680   3.314
56729W        W25070  39.520  11.830   2.187
56730W        W25071  15.279  35.092  12.976
56731W        W25072  14.185  10.328   0.465
56732W        W25073  26.078  28.024  10.908
56733W        W25074  28.052   8.243  11.082
56734W        W25075  42.874   6.737  10.909
56735W        W25076  31.580  21.632  11.043
56736W        W25077  11.355   9.208  11.894
56737W        W25078  23.985  22.022  14.388
56738W        W25079  33.552  38.532  11.593
56739W        W25080   7.750   9.191  13.808
56740W        W25081   6.707  18.710  14.430
56741W        W25082  37.849   8.269  14.858
56742W        W25083   8.264  43.472   1.928
56743W        W25084  15.755  19.193   4.290
56744W        W25085   2.812  10.666   2.335
56745W        W25086   8.754  36.960  11.386
56746W        W25087  44.467  17.245   2.369
56747W        W25088  39.473   4.827  14.507
56748W        W25089  42.808  37.891  11.473
56749W        W25090  24.129   8.206   0.928
56750W        W25091  21.051  16.732  14.354
56751W        W25092  22.009  30.539   4.738
56752W        W25093  23.669  39.962   3.705
56753W        W25094  11.316  18.582  11.082
56754W        W25095  12.318  18.574   1.850
56755W        W25096  44.505  36.856   0.329
56756W        W25097  23.991  26.053   1.434
56757W        W25098   7.843   3.232   1.844
56758W        W25099  34.009  10.789   3.762
56759W        W25100  11.174  26.016   4.815
56760W        W25101  24.594  38.038   1.819
56761W        W25102   8.379   4.750  11.997
56762W        W25103   4.400  15.744  11.405
56763W        W25104  36.511  31.554  11.113
56764W        W25105  23.182   5.395  10.544
56765W        W25106  32.612  30.043   4.217
56766W        W25107  26.502  27.104  13.415
56767W        W25108   9.648  26.008  12.523
56768W        W25109   7.283   3.724  14.476
56769W        W25110  14.772   9.150  10.962
56770W        W25111  38.874  32.576   3.353
56771W        W25112  44.890   9.857   0.377
56772W        W25113   1.435   1.313  13.506
56773W        W25114  34.061   0.410  14.991
56774W        W25115  33.493   1.913   9.928
56775W        W25116  26.580  21.040   3.275
56776W        W25117  42.287  37.039  11.084
56777W        W25118  44.371  31.037  14.957
56778W        W25119  28.159  30.579  14.840
56779W        W25120  23.637   0.342  10.458
56780W        W25121  27.637  25.535   1.802
56781W        W25122  30.473   1.422   0.312
56782W        W25123  39.410  38.500  12.480
56783W        W25124   0.447  43.417  13.339
56784W        W25125  31.613  36.905   0.840
56785W        W25126  32.133  36.407  14.942
56786W        W25127  25.006  38.521   4.662
56787W        W25128  21.141  12.300  12.944
56788W        W25129  23.677  41.980   4.217
56789W        W25130  22.021  25.055  14.915
56790W        W25131  32.955  14.096  12.484
56791W        W25132  43.833  30.042   4.227
56792W        W25133   7.683  17.220  11.572
56793W        W25134  37.550  43.951   4.176
56794W        W25135  36.461  19.678   2.179
56795W        W25136   3.244  16.630   0.767
56796W        W25137   3.780  37.023   3.800
56797W        W25138  42.432  27.677  12.044
56798W        W25139  35.030  18.780   4.737
56799W        W25140  18.739   3.797   1.280
56800W        W25141  17.289   8.786   0.859
56801W        W25142  29.149  36.998   0.948
56802W        W25143  34.569  15.810   2.697
56803W        W25144  32.893  10.742   1.388
56804W        W25145  32.978   5.401   2.232
56805W        W25146  17.639  13.131  12.508
56806W        W25147   1.441  10.256   0.792
56807W        W25148   6.858  15.794   4.317
56808W        W25149  28.943  31.985   2.779
56809W        W25150  17.066  11.776   1.417
56810W        W25151   9.293  34.566  11.941
56811W        W25152  22.573  21.184  10.042
56812W        W25153  43.429  21.727  11.531
56813W        W25154  44.464  27.539  13.977
56814W        W25155  34.468   8.248   4.769
56815W        W25156   9.846   8.814   3.871
56816W        W25157  10.653  14.116   2.207
56817W        W25158   5.921   5.390  14.820
56818W        W25159  18.590  41.378   5.138
56819W        W25160  18.624  38.008  11.026
56820W        W25161  13.256  16.741   2.186
56821W        W25162  30.511  25.026   2.684
56822W        W25163  43.424  14.638   2.328
56823W        W25164   9.267  32.128   4.288
56824W        W25165  29.553   6.380   2.342
56825W        W25166  14.097   9.281   1.833
56826W        W25167  42.792  34.887  10.635
56827W        W25168  31.431  41.903  10.411
56828W        W25169  35.418   2.792   4.210
56829W        W25170   5.299  42.843   3.225
56830W        W25171   7.258   4.804   2.321
56831W        W25172  31.021  39.059   1.861
56832W        W25173  21.222  30.126  12.495
56833W        W25174   9.645  21.048  14.504
56834W        W25175  18.646  44.846  11.487
56835W        W25176  13.175  20.634  12.469
56836W        W25177  34.912  25.608  13.374
56837W        W25178  13.625   9.302  14.895
56838W        W25179  19.710   1.896   4.826
56839W        W25180  20.523  26.182   4.749
56840W        W25181  37.919  10.679  13.439
56841W        W25182  13.642  14.618  13.836
56842W        W25183  33.383  41.850   3.310
56843W        W25184  21.588  38.976   1.373
56844W        W25185  17.112  11.641  12.054
56845W        W25186  21.060  10.721   4.751
56846W        W25187   4.247  14.317  13.028
56847W        W25188   5.222  35.975   3.252
56848W        W25189  31.620   8.733  10.537
56849W        W25190  22.549   2.302  11.959
56850W        W25191  13.797   0.481  14.485
56851W        W25192  41.484  17.134  10.977
56852W        W25193  31.545  25.208  10.632
56853W        W25194  22.122  36.091  14.415
56854W        W25195  30.593  20.648   2.268
56855W        W25196  12.316  39.382   3.840
56856W        W25197   6.881  19.184   3.326
56857W        W25198  31.646   7.317   3.847
56858W        W25199  18.271  38.972  13.500
56859W        W25200  42.454  10.633  11.912
56860W        W25201   1.310   0.910  13.019
56861W        W25202  29.620  10.314  14.032
56862W        W25203  36.864  29.488   1.257
56863W        W25204  43.993  28.011   2.680
56864W        W25205  13.235  41.453   0.781
56865W        W25206   4.308  30.055  10.972
56866W        W25207  42.917  39.003   2.355
56867W        W25208   4.327  33.452  12.514
56868W        W25209   2.761  11.214  14.328
56869W        W25210  17.272  35.513   3.275
56870W        W25211  16.074  26.111  12.959
56871W        W25212   1.754  44.311   3.817
56872W        W25213  41.984  37.083  13.816
56873W        W25214  13.716   4.871  14.836
56874W        W25215   5.292  28.132  12.556
56875W        W25216   4.217  14.617   2.373
56876W        W25217  14.606   7.787  12.348
56877W        W25218  28.958  27.691   0.864
56878W        W25219  43.831  13.797  12.580
56879W        W25220  43.432  37.852   1.842
56880W        W25221  26.692  40.316  11.610
56881W        W25222   6.355  41.965   4.802
56882W        W25223  33.549  20.579   4.158
56883W        W25224  16.299  21.208  14.996
56884W        W25225  20.553   7.728  11.895
56885W        W25226   7.319  14.267   0.331
56886W        W25227  16.783  33.973  10.955
56887W        W25228  38.993   1.842   1.442
56888W        W25229  33.898  39.507   5.132
56889W        W25230  43.968   1.291  14.990
56890W        W25231  42.851  12.283   3.160
56891W        W25232  36.380  10.174   0.802
56892W        W25233   5.306  10.262  11.074
56893W        W25234  32.581  36.067  14.447
56894W        W25235   8.862  34.927  11.871
56895W        W25236  28.134   1.266   4.147
56896W        W25237  44.304   0.840   2.886
56897W        W25238  18.271  43.391   4.316
56898W        W25239  23.160  43.347  14.313
56899W        W25240  32.487  18.089  13.847
56900W        W25241  26.153  34.061  13.907
56901W        W25242  29.107  14.614   1.447
56902W        W25243   3.945  14.756   3.639
56903W        W25244  32.933   9.225  11.863
56904W        W25245  31.152  11.243  13.822
56905W        W25246  43.509   8.828   4.141
56906W        W25247  43.879   1.795  12.571
56907W        W25248  38.855  32.049  14.303
56908W        W25249  44.496  26.040   1.848
56909W        W25250   4.853  34.385   3.223
56910W        W25251  27.662  35.407   1.817
56911W        W25252  14.323  12.300   4.732
56912W        W25253  10.295  43.480  11.071
56913W        W25254  23.000  23.608  12.460
56914W        W25255  42.508  13.629   1.894
56915W        W25256   7.883   9.312   3.666
56916W        W25257  16.766  42.413  12.873
56917W        W25258  13.126   6.834   0.272
56918W        W25259  17.242  21.608   4.201
56919W        W25260  27.544  31.996  13.441
56920W        W25261  19.111  37.987   2.254
56921W        W25262  19.772  29.662  10.481
56922W        W25263  42.834  25.104  14.418
56923W        W25264   1.272   1.904   3.178
56924W        W25265  30.122  37.904  10.635
56925W        W25266  20.642  38.037   4.737
56926W        W25267   5.363  32.129  11.059
56927W        W25268  40.988  13.661  12.092
56928W        W25269  24.113  23.492  14.947
56929W        W25270  38.486   0.851  14.470
56930W        W25271  14.283  27.543  12.571
56931W        W25272   3.279  31.639  12.401
56932W        W25273  27.131  35.484  14.314
56933W        W25274  34.423  13.813  14.289
56934W        W25275   1.970  43.382  13.454
56935W        W25276  41.898  15.194   0.826
56936W        W25277  21.559  12.227   1.699
56937W        W25278  10.238  26.188  14.358
56938W        W25279  44.337   5.360   0.333
56939W        W25280  21.696  27.683   0.342
56940W        W25281   6.188  29.020  11.606
56941W        W25282  22.702   6.850  14.330
56942W        W25283  16.569  33.474   0.334
56943W        W25284  39.534  18.091   1.393
56944W        W25285  21.608  25.139  10.152
56945W        W25286  23.607  37.505   1.809
56946W        W25287  20.621   8.722  11.979
56947W        W25288   0.980  11.169  13.481
56948W        W25289  30.486  31.126   1.874
56949W        W25290  32.052  44.305   5.320
56950W        W25291  16.168   7.796   1.805
56951W        W25292  38.465   9.750   4.638
56952W        W25293  15.743  42.878  13.396
56953W        W25294  41.900  12.289  11.948
56954W        W25295  18.239   0.489   4.735
56955W        W25296  13.187  42.285  10.986
56956W        W25297   8.252  43.453  14.505
56957W        W25298   1.934  33.462   3.841
56958W        W25299   4.360  35.054  11.085
56959W        W25300   1.864  18.743   2.888
56960W        W25301  18.612  39.554   4.830
56961W        W25302  35.008  31.906  11.858
56962W        W25303  24.105  35.958   1.427
56963W        W25304   7.212  28.535  12.390
56964W        W25305  13.273  31.899   5.180
56965W        W25306  28.095  39.019   1.804
56966W        W25307  28.643  44.011  12.399
56967W        W25308  32.899  44.782   2.814
56968W        W25309   3.393  18.241   0.959
56969W        W25310   1.337   9.315  14.398
56970W        W25311  10.165  31.581  12.361
56971W        W25312  15.272  14.665  10.459
56972W        W25313  25.210  39.483  14.444
56973W        W25314  29.581  12.854   1.778
56974W        W25315  28.558  41.945   4.728
56975W        W25316  39.552  30.045  11.926
56976W        W25317  13.831  13.618   1.868
56977W        W25318  31.504  17.792  10.504
56978W        W25319  19.067  15.796  10.922
56979W        W25320   1.910   3.358  12.897
56980W        W25321  44.965  12.194   0.413
56981W        W25322  32.894  42.319   2.401
56982W        W25323  16.596  41.936   2.262
56983W        W25324  31.986  39.003  11.978
56984W        W25325  15.664  24.640  14.912
56985W        W25326  18.693  43.956   4.669
56986W        W25327   8.793  28.636  11.901
56987W        W25328  18.160  17.175   2.370
56988W        W25329  42.414  41.896   3.722
56989W        W25330  33.923   4.783  13.943
56990W        W25331   1.365  41.371   4.697
56991W        W25332  17.700  13.252   2.819
56992W        W25333  15.631  40.979   1.906
56993W        W25334  38.953  24.604   3.747
56994W        W25335  12.631  30.159  10.912
56995W        W25336   4.339   0.883  10.405
56996W        W25337  19.718  38.895  12.450
56997W        W25338  33.087  24.716   3.754
56998W        W25339  10.170  35.936   2.299
56999W        W25340  39.371  34.952  14.765
57000W        W25341  28.993  44.825  12.848
57001W        W25342   8.211  18.212  12.828
57002W        W25343  34.060   1.792  10.501
57003W        W25344   5.744  10.354  14.425
57004W        W25345  39.370  32.458  13.372
57005W        W25346   4.433   9.377  12.965
57006W        W25347  19.621  36.083  14.017
57007W        W25348   7.687  29.526  10.592
57008W        W25349   5.395   4.446   3.726
57009W        W25350   6.297  24.485   1.830
57010W        W25351  28.093  39.320   3.207
57011W        W25352   2.294  39.976  14.804
57012W        W25353  25.477  44.491   2.705
57013W        W25354  15.226   7.356   3.846
57014W        W25355  13.246  22.552   2.400
57015W        W25356  20.756  22.078  10.550
57016W        W25357  14.769  28.651   1.791
57017W        W25358  15.677  21.120   4.625
57018W        W25359   8.362   4.798  14.831
57019W        W25360  25.518   6.797  12.482
57020W        W25361  32.441  19.714  12.484
57021W        W25362  11.845   0.454  11.976
57022W        W25363   6.796  30.577   3.200
57023W        W25364  26.692  29.924   4.245
57024W        W25365   9.715  27.118  13.423
57025W        W25366   1.260  20.252   3.718
57026W        W25367  18.620  17.711   2.260
57027W        W25368  16.142  16.738  12.472
57028W        W25369  20.701  27.570   2.778
57029W        W25370  41.497  10.216   3.738
57030W        W25371  24.192  42.884   3.844
57031W        W25372  36.412  35.046  14.828
57032W        W25373  11.840  35.924  10.546
57033W        W25374  36.968  32.525  10.623
57034W        W25375   8.669  15.169   3.301
57035W        W25376  44.448  22.200   9.936
57036W        W25377  13.321   3.736   1.753
57037W        W25378  11.629   7.764  14.313
57038W        W25379  22.193  12.159  14.889
57039W        W25380  13.229  32.434  14.850
57040W        W25381   6.300   8.171  12.486
57041W        W25382  19.111  14.221  14.363
57042W        W25383  22.669  14.304  12.864
57043W        W25384  33.454  20.109   2.237
57044W        W25385   8.243  38.497   1.241
57045W        W25386  36.964   2.797  12.486
57046W        W25387   1.936  35.428   1.370
57047W        W25388  40.842  16.319  12.455
57048W        W25389  11.733  22.713   0.422
57049W        W25390   4.800  31.979   4.644
57050W        W25391  22.686  20.151   3.367
57051W        W25392  22.120  19.557  13.907
57052W        W25393  25.516  33.552  13.341
57053W        W25394  43.847  29.596   0.367
57054W        W25395   9.679   0.360   3.746
57055W        W25396  27.475   9.270   4.153
57056W        W25397  32.918   3.848  11.918
57057W        W25398  25.150  35.403   2.191
57058W        W25399  26.136   7.357  11.118
57059W        W25400  35.940   4.292   1.301
57060W        W25401  18.770   5.268   2.380
57061W        W25402  10.182  43.809   2.878
57062W        W25403  28.101  16.786   3.790
57063W        W25404  15.651  19.107   3.819
57064W        W25405   3.748  34.916   0.946
57065W        W25406  13.790  23.579  12.001
57066W        W25407   4.773  39.339   1.732
57067W        W25408  44.773  13.647   0.925
57068W        W25409  28.608  40.539  11.502
57069W        W25410  39.400  39.450  11.007
57070W        W25411  38.457  23.105  10.606
57071W        W25412   4.381  17.218  13.816
57072W        W25413  14.834  38.542   9.637
57073W        W25414  11.329  26.066   1.930
57074W        W25415  41.493   9.247   1.786
57075W        W25416  16.618   8.896   1.406
57076W        W25417  25.655   8.699  10.456
57077W        W25418  32.963  16.228  10.603
57078W        W25419  21.042  33.534  11.451
57079W        W25420  15.229  24.527  14.025
57080W        W25421   6.821  22.744  11.472
57081W        W25422  27.593  26.520   9.983
57082W        W25423  26.010  11.282   0.808
57083W        W25424  43.839  21.607  10.498
57084W        W25425  19.091  20.626   2.732
57085W        W25426  15.738  25.702   3.348
57086W        W25427   5.225  32.058   0.847
57087W        W25428  22.700   4.222  11.129
57088W        W25429   2.255   8.677  12.981
57089W        W25430  14.640  23.532   4.694
57090W        W25431  17.092  29.924  13.837
57091W        W25432  42.904   1.844  13.867
57092W        W25433  21.106  36.355  13.355
57093W        W25434  41.493  14.340   0.736
57094W        W25435  44.975  16.131   3.865
57095W        W25436  18.130   3.453  13.353
57096W        W25437  39.994  23.088  14.493
57097W        W25438  37.389  14.207   4.621
57098W        W25439   8.310   8.345   4.668
57099W        W25440   4.885  34.041  14.826
57100W        W25441  21.155  14.658   1.898
57101W        W25442   9.212  41.968   4.156
57102W        W25443  29.160  23.704  13.331
57103W        W25444  12.842   5.361  12.559
57104W        W25445  16.585  15.786   1.823
57105W        W25446  44.827  34.583  13.013
57106W        W25447  32.094  38.072   3.168
57107W        W25448  30.161  44.313  10.937
57108W        W25449  41.786  29.515  14.869
57109W        W25450  41.439  42.928   1.858
57110W        W25451  20.241  31.142  11.866
57111W        W25452  28.991  21.103   3.368
57112W        W25453  35.982  13.232  11.602
57113W        W25454  16.804  27.493   1.230
57114W        W25455  13.646  40.344  10.912
57115W        W25456   0.369  37.423   4.722
57116W        W25457  17.738  34.568  12.561
57117W        W25458  41.421  24.692  14.967
57118W        W25459  29.645   5.292  14.954
57119W        W25460   5.916  36.846  13.016
57120W        W25461   7.279  42.473   0.312
57121W        W25462   3.748   8.248  12.044
57122W        W25463  28.650  17.260  14.948
57123W        W25464   2.732  15.272  13.889
57124W        W25465  41.521  22.616   4.678
57125W        W25466   1.938  20.065  11.876
57126W        W25467  37.032  40.852  13.527
57127W        W25468  16.765  20.062   1.820
57128W        W25469  42.369  24.169   0.761
57129W        W25470  20.272  38.906  14.389
57130W        W25471  28.478  13.118  13.892
57131W        W25472  29.494  10.140   9.943
57132W        W25473  12.662   7.683   2.830
57133W        W25474  29.110  29.491   2.662
57134W        W25475  20.550  26.009  12.983
57135W        W25476  29.172  30.053   0.319
57136W        W25477  25.076   2.895  11.019
57137W        W25478  32.126  31.148   3.202
57138W        W25479  21.100  13.349   4.241
57139W        W25480  14.700  42.829  13.363
57140W        W25481   9.796  12.144   2.786
57141W        W25482  37.450   2.903  13.915
57142W        W25483  42.782   3.864   2.261
57143W        W25484  22.563  16.648  14.421
57144W        W25485  35.571  30.424   1.216
57145W        W25486  23.157  22.211   2.320
57146W        W25487   0.957  20.733  13.856
57147W        W25488  24.996  19.556  10.994
57148W        W25489   9.769  15.182   4.235
57149W        W25490  36.905   2.857  11.456
57150W        W25491  22.147  37.949   4.713
57151W        W25492   9.297   2.344  11.021
57152W        W25493  39.901   6.317   4.716
57153W        W25494  11.232  29.579   2.280
57154W        W25495  19.698   4.838  11.499
57155W        W25496  38.515  43.772  14.356
57156W        W25497   6.781  14.786   4.220
57157W        W25498  24.128  14.248   2.793
57158W        W25499  39.869  16.586   4.138
57159W        W25500  40.408  23.600  13.417
57160W        W25501   6.857   6.211  13.017
57161W        W25502   2.432  45.000   3.705
57162W        W25503  16.731   9.356   0.416
57163W        W25504  32.081  32.436   3.367
57164W        W25505  28.979  44.379   4.254
57165W        W25506  12.784  18.267   1.269
57166W        W25507  20.071   5.803  13.532
57167W        W25508  35.020  25.635   0.932
57168W        W25509  16.154  27.156  10.977
57169W        W25510  39.968  19.192   0.356
57170W        W25511  16.775  39.046  13.350
57171W        W25512  24.482  41.307   2.246
57172W        W25513  24.507   7.386   2.318
57173W        W25514   5.801  39.935   0.943
57174W        W25515  30.934  40.460   2.225
57175W        W25516  32.429  43.322   2.843
57176W        W25517  44.267  42.943   3.382
57177W        W25518  19.199   7.408   4.156
57178W        W25519  22.136  14.658   3.377
57179W        W25520  16.636   9.224   3.648
57180W        W25521  42.394   6.735  11.893
57181W        W25522  34.439  38.398   2.398
57182W        W25523  22.512  37.507   2.776
57183W        W25524  14.328  29.515   0.909
57184W        W25525  43.952  28.167  13.451
57185W        W25526  44.317  21.076  12.927
57186W        W25527  27.993   9.700  11.073
57187W        W25528  37.499   2.869   2.721
57188W        W25529   8.394   2.345  13.332
57189W        W25530  21.065  10.354  12.535
57190W        W25531  25.517  10.786   4.291
57191W        W25532   4.417  20.632  11.407
57192W        W25533   2.950   6.331  13.034
57193W        W25534   1.802   6.865  11.087
57194W        W25535  15.750  24.618   1.784
57195W        W25536  15.324  40.032   2.351
57196W        W25537  37.945  31.572  14.347
57197W        W25538   9.181   7.322  13.807
57198W        W25539  21.629   4.939  13.364
57199W        W25540   5.364   3.820   1.790
57200W        W25541  43.483  13.625  14.877
57201W        W25542  43.943   4.849   9.945
57202W        W25543   6.228   0.470  11.980
57203W        W25544  27.664  18.765   3.226
57204W        W25545  13.231  29.585   2.808
57205W        W25546  20.032  11.153   1.788
57206W        W25547  43.782  37.863   4.714
57207W        W25548   8.377  21.143  10.077
57208W        W25549   7.754  36.851  12.433
57209W        W25550  28.678  20.669   1.847
57210W        W25551  26.556  42.848  11.866
57211W        W25552  25.121  38.032   1.275
57212W        W25553  14.254  27.983   1.271
57213W        W25554   0.923  34.088  11.434
57214W        W25555  42.291  40.941  14.375
57215W        W25556   5.723  18.563   0.938
57216W        W25557  39.527  22.068  11.954
57217W        W25558  22.179   1.740   1.814
57218W        W25559  24.084   8.755  11.937
57219W        W25560  15.210  39.876   1.419
57220W        W25561  32.457  22.642   0.250
57221W        W25562  29.449  26.015  13.048
57222W        W25563  25.105  19.771   4.798
57223W        W25564  13.268  12.615   2.870
57224W        W25565  24.191  39.007   1.217
57225W        W25566  44.907  38.047  13.021
57226W        W25567  44.006  38.997  11.548
57227W        W25568  25.622   7.710   0.899
57228W        W25569   5.266  37.384   2.817
57229W        W25570  16.137  44.356  12.938
57230W        W25571  33.567  24.580   4.810
57231W        W25572  43.464  17.271  11.861
57232W        W25573  15.812   0.284   3.858
57233W        W25574  30.591   3.333  14.978
57234W        W25575   2.405  19.231   1.216
57235W        W25576  35.092  43.422   4.181
57236W        W25577  42.490  13.141   2.731
57237W        W25578  31.042  37.950   3.759
57238W        W25579  20.097  11.774  12.989
57239W        W25580   3.448  15.820  14.967
57240W        W25581  22.201  30.520   1.211
57241W        W25582  33.489  28.004   4.617
57242W        W25583  44.958  43.920  11.423
57243W        W25584  30.040  23.593  14.326
57244W        W25585  40.812  13.336   4.141
57245W        W25586   9.197  26.566  12.837
57246W        W25587  42.343   8.882   2.274
57247W        W25588  14.791  30.012   3.657
57248W        W25589  33.388  37.834   2.386
57249W        W25590  25.565  23.209  11.448
57250W        W25591  17.679  17.097  10.564
57251W        W25592  20.047  17.602   3.318
57252W        W25593  15.729  43.317  12.415
57253W        W25594  34.906  31.925   9.955
57254W        W25595  16.729  31.643   9.997
57255W        W25596  16.699  37.942   2.826
57256W        W25597  25.481  29.563  13.353
57257W        W25598   6.249   3.781  13.437
57258W        W25599  16.795  35.551  10.590
57259W        W25600  40.964  22.595   0.777
57260W        W25601   5.397  19.603   4.181
57261W        W25602  17.224  15.329  13.028
57262W        W25603  42.876  34.925  14.974
57263W        W25604  12.813  41.887  12.847
57264W        W25605  11.621   1.948  14.452
57265W        W25606   1.954  40.412   0.482
57266W        W25607  21.227  37.928  12.010
57267W        W25608   5.296  22.125  12.013
57268W        W25609  19.602  11.208   2.383
57269W        W25610  41.513  25.027   3.345
57270W        W25611  40.404  23.161  14.814
57271W        W25612  38.051  16.199   1.762
57272W        W25613  30.467   6.366   2.821
57273W        W25614  36.030  32.560   3.245
57274W        W25615   2.410   9.349  11.471
57275W        W25616   2.389  10.178   4.160
57276W        W25617  12.749  43.379  11.490
57277W        W25618  18.175  37.020  10.418
57278W        W25619  13.760  18.244   2.735
57279W        W25620  17.267   6.687  13.419
57280W        W25621  13.293  41.961   2.875
57281W        W25622  39.938  27.536  14.514
57282W        W25623  26.482  28.509   5.698
57283W        W25624   9.213  42.339   4.705
57284W        W25625  16.593   3.267   0.373
57285W        W25626  27.598  11.728   1.707
57286W        W25627  42.488  33.874  11.955
57287W        W25628   4.327  37.345  13.053
57288W        W25629  41.382  30.921  12.073
57289W        W25630  40.471  19.613   2.867
57290W        W25631  21.667  21.039  12.836
57291W        W25632   8.302   7.377   1.774
57292W        W25633  13.713  23.145   3.222
57293W        W25634  19.643   3.876   2.680
57294W        W25635  23.611  28.668  10.631
57295W        W25636  19.258  43.790   1.222
57296W        W25637  28.032   8.332   1.360
57297W        W25638  37.861  24.598   4.303
57298W        W25639  43.287  15.227  10.527
57299W        W25640   2.290  38.998   0.874
57300W        W25641  37.565   7.215   1.221
57301W        W25642   1.460  10.873  13.418
57302W        W25643  19.141  27.599   2.405
57303W        W25644  23.627  34.443  10.627
57304W        W25645  32.532  14.712  14.294
57305W        W25646  17.797   4.738  11.402
57306W        W25647  44.503  33.083  13.416
57307W        W25648  16.112   6.705  10.556
57308W        W25649  38.474   7.316  11.502
57309W        W25650  16.305  42.346   2.835
57310W        W25651  35.975  13.184   0.779
57311W        W25652  44.826  21.565   5.125
57312W        W25653  31.523  41.793  10.041
57313W        W25654  36.551  37.975   4.285
57314W        W25655  23.076   5.251   3.168
57315W        W25656  27.005  17.737  14.025
57316W        W25657  21.117  37.565  11.080
57317W        W25658  39.879  27.670   2.306
57318W        W25659  32.994  23.167   3.356
57319W        W25660  29.075   0.303  11.468
57320W        W25661  20.703  19.748   2.788
57321W        W25662  18.235  22.662   1.452
57322W        W25663  23.557  33.069   1.228
57323W        W25664   6.841  21.049  10.503
57324W        W25665  37.838  19.222  14.867
57325W        W25666  12.805   5.929  14.458
57326W        W25667  39.045  30.989  12.846
57327W        W25668  18.642  29.439  11.511
57328W        W25669   4.858  13.841   2.377
57329W        W25670  20.670  15.294   3.804
57330W        W25671   7.753   2.228   4.657
57331W        W25672   4.717   1.463  10.470
57332W        W25673  43.321  27.574  13.002
57333W        W25674  25.656   3.269  10.548
57334W        W25675  27.627  38.366  11.065
57335W        W25676  20.656  42.387  10.460
57336W        W25677  36.440  16.811  10.480
57337W        W25678  11.825  40.052  13.364
57338W        W25679  31.074  17.179  10.617
57339W        W25680  31.528  17.583   4.664
57340W        W25681   2.464  12.727  10.059
57341W        W25682  24.206  23.521   0.909
57342W        W25683  21.165  15.618   0.808
57343W        W25684  27.017   0.782   0.338
57344W        W25685  14.131  33.077   5.117
57345W        W25686  28.510  22.052   0.925
57346W        W25687  40.544  42.935   4.219
57347W        W25688  33.564  10.805   3.782
57348W        W25689   9.314  16.693  11.971
57349W        W25690  26.641  15.301  12.366
57350W        W25691  32.919  43.951   4.665
57351W        W25692   3.917  37.893   2.315
57352W        W25693  12.822  28.671   1.371
57353W        W25694  40.513  28.461  14.953
57354W        W25695  19.593  19.189  10.899
57355W        W25696  39.320  18.168   2.307
57356W        W25697  24.146  35.087  10.981
57357W        W25698   9.643  15.821   0.929
57358W        W25699  11.319  43.417  12.074
57359W        W25700  21.049   8.213  14.925
57360W        W25701   2.417  22.567   1.828
57361W        W25702   4.801  37.863   3.814
57362W        W25703  19.574  19.115   1.316
57363W        W25704  13.794  26.146  12.855
57364W        W25705  24.596  18.278   4.754
57365W        W25706  17.757  14.191   0.432
57366W        W25707   4.238  37.899  13.411
57367W        W25708  26.649  10.826   3.374
57368W        W25709  32.943  39.826   0.857
57369W        W25710  41.020  38.851  12.574
57370W        W25711   8.168  12.704  10.532
57371W        W25712   7.384  25.521  12.947
57372W        W25713  40.052  42.356  10.999
57373W        W25714  35.044   7.292  13.911
57374W        W25715  22.634  39.950   4.704
57375W        W25716   9.393  19.198  12.871
57376W        W25717  34.864   3.893   4.748
57377W        W25718  12.281  43.819  11.001
57378W        W25719  22.999   3.837   4.176
57379W        W25720   8.819  22.637   5.150
57380W        W25721  11.180  24.576   0.256
57381W        W25722   9.884  42.865   2.895
57382W        W25723  18.207  32.455   5.698
57383W        W25724  30.637  44.444  13.894
57384W        W25725  28.014  35.855  11.544
57385W        W25726  39.490  40.054  13.818
57386W        W25727  31.473   3.843   1.252
57387W        W25728  16.766  37.836  10.515
57388W        W25729  10.194   9.201  12.021
57389W        W25730  10.356   5.423  12.364
57390W        W25731   5.860  25.126   1.706
57391W        W25732  17.085   1.760  11.960
57392W        W25733  23.020  13.796  11.932
57393W        W25734  21.677  35.470   2.823
57394W        W25735   9.283  35.463  12.010
57395W        W25736  27.503  36.998   0.797
57396W        W25737   4.771  38.352   4.621
57397W        W25738  39.434  28.043   2.403
57398W        W25739  23.524   1.253   0.465
57399W        W25740  31.951  43.488   0.810
57400W        W25741  34.933  16.799  13.816
57401W        W25742  37.933   8.184   3.272
57402W        W25743  36.949  41.808  10.624
57403W        W25744  22.252  14.783  13.384
57404W        W25745  32.602   6.228  14.896
57405W        W25746  30.421   5.906  14.510
57406W        W25747  36.890  40.433  11.429
57407W        W25748  10.315  31.435  14.938
57408W        W25749   6.269  40.467  13.477
57409W        W25750   1.243   1.826  11.907
57410W        W25751  14.727   7.281   2.342
57411W        W25752  17.684  17.710   4.804
57412W        W25753  37.406  18.175  10.518
57413W        W25754  38.819  13.835  12.896
57414W        W25755  21.635  24.164  12.981
57415W        W25756   5.867  25.685  11.066
57416W        W25757  29.158  27.673   3.629
57417W        W25758   2.801  23.023   1.291
57418W        W25759  36.528  38.900   2.703
57419W        W25760  23.523  28.656   3.745
57420W        W25761  32.123  19.608  13.482
57421W        W25762  40.935  41.847  10.982
57422W        W25763  38.557  20.658  13.470
57423W        W25764  15.129  17.152  13.921
57424W        W25765   8.211  35.011  14.920
57425W        W25766  38.370  42.429  12.426
57426W        W25767   1.428  19.677  10.483
57427W        W25768   7.414  39.841   3.731
57428W        W25769  19.200  33.439   0.349
57429W        W25770  15.632   7.826  13.933
57430W        W25771   6.302  28.014   1.359
57431W        W25772   4.357  25.472  10.927
57432W        W25773  33.964  11.718   2.828
57433W        W25774  18.159  10.758   2.187
57434W        W25775   4.717   9.263  10.896
57435W        W25776  42.360  30.053  10.560
57436W        W25777  17.231   0.360  10.581
57437W        W25778   6.272  18.179   4.696
57438W        W25779  35.857  14.705   4.217
57439W        W25780  17.601  10.822  11.527
57440W        W25781   0.828  37.513  13.335
57441W        W25782  36.392  12.300  12.405
57442W        W25783  31.579  23.690   0.765
57443W        W25784  24.722  37.999  12.995
57444W        W25785  15.094  30.977   2.286
57445W        W25786  31.990  38.421   2.757
57446W        W25787   2.888   7.804  11.998
57447W        W25788   0.425  30.966  10.626
57448W        W25789   8.787  29.981  12.454
57449W        W25790   5.323  13.672   2.413
57450W        W25791  44.953  23.084   0.760
57451W        W25792   9.195  26.532   4.695
57452W        W25793  33.493  19.549  14.988
57453W        W25794  15.634  40.388   4.188
57454W        W25795   4.798  13.659  11.510
57455W        W25796  20.102  36.917   3.236
57456W        W25797   2.241  41.412   3.298
57457W        W25798  11.319  19.740  12.962
57458W        W25799  33.494   1.969   1.748
57459W        W25800  38.438   5.911   3.790
57460W        W25801   4.822   7.818   4.619
57461W        W25802  26.557  15.119  11.933
57462W        W25803   2.891  10.808  13.866
57463W        W25804   3.798   5.225   0.391
57464W        W25805  29.152  40.847   0.752
57465W        W25806  15.140  39.539  12.963
57466W        W25807  20.160  35.596   3.147
57467W        W25808  25.652   0.475   1.934
57468W        W25809  18.151  27.530   2.836
57469W        W25810  41.458  32.958  13.908
57470W        W25811  40.420  11.733   4.771
57471W        W25812  13.232  24.544  11.978
57472W        W25813  18.560  13.243  13.898
57473W        W25814   5.697  18.566  13.910
57474W        W25815  41.044  44.987  13.475
57475W        W25816   4.900  43.769   0.403
57476W        W25817  21.558  40.967  12.378
57477W        W25818  22.635   7.319   5.289
57478W        W25819   1.771  23.177  11.451
57479W        W25820  18.098  42.982   9.942
57480W        W25821  23.170  41.043  14.454
57481W        W25822  15.794  32.054  14.431
57482W        W25823  14.217  18.207  13.046
57483W        W25824  37.940   5.745  14.492
57484W        W25825  31.953  16.811   4.819
57485W        W25826  39.426  38.983  14.435
57486W        W25827  14.678  29.615   4.306
57487W        W25828  19.625   7.894  14.918
57488W        W25829  34.598  36.471  12.485
57489W        W25830   7.389  41.502   2.903
57490W        W25831  24.214  43.996  14.874
57491W        W25832   2.441  37.905   0.947
57492W        W25833  21.070  36.880   2.349
57493W        W25834  43.988  27.594   4.806
57494W        W25835   0.917  18.124  14.344
57495W        W25836  43.785  10.841   2.357
57496W        W25837  31.496  18.665  14.945
57497W        W25838   0.804  26.192   0.864
57498W        W25839  28.000  28.486   5.283
57499W        W25840  10.374  12.810  10.457
57500W        W25841  18.134  16.686  13.019
57501W        W25842  37.461  36.021   0.341
57502W        W25843  35.899   0.775   1.291
57503W        W25844  41.843  35.057  11.992
57504W        W25845  19.712   9.843   4.832
57505W        W25846   9.739  29.538   3.337
57506W        W25847  19.729  33.546   2.792
57507W        W25848  32.139  27.610  12.459
57508W        W25849   0.948  26.032   1.849
57509W        W25850  16.701  41.340   4.785
57510W        W25851  36.057  38.981   4.730
57511W        W25852  17.721  35.480   2.411
57512W        W25853  22.211  31.128   4.815
57513W        W25854  16.602  18.642  11.986
57514W        W25855  41.530   1.805  14.357
57515W        W25856   0.462  36.973  13.437
57516W        W25857  40.402   8.386   1.823
57517W        W25858   1.836  25.031   3.840
57518W        W25859   0.863  12.224   2.397
57519W        W25860  19.600  26.039  14.342
57520W        W25861  36.435  10.220  12.355
57521W        W25862  20.625  19.617  12.906
57522W        W25863  22.207  23.711  14.902
57523W        W25864  35.910  37.830  10.967
57524W        W25865  10.210  42.336  13.400
57525W        W25866  25.046   0.441   3.339
57526W        W25867  38.852  15.682  14.887
57527W        W25868  34.582  28.632   3.213
57528W        W25869  18.256  44.773  13.460
57529W        W25870  34.433  34.424  13.970
57530W        W25871  11.700  19.105   9.922
57531W        W25872  16.654   1.965   0.787
57532W        W25873   2.267  27.032   2.903
57533W        W25874  12.815  33.600  12.511
57534W        W25875  14.164  18.230  12.055
57535W        W25876   7.851  29.568  14.777
57536W        W25877  24.022  40.032   4.804
57537W        W25878  16.684  38.330   1.438
57538W        W25879   4.727  17.637   1.352
57539W        W25880  22.057  32.130   2.885
57540W        W25881   8.401  13.197   3.747
57541W        W25882  10.697  36.979  13.999
57542W        W25883  41.883  32.557  14.348
57543W        W25884  21.157  25.563   3.174
57544W        W25885  21.628   7.734  14.764
57545W        W25886  14.153  21.089  14.306
57546W        W25887  25.140  24.981   0.726
57547W        W25888  39.964  27.635   0.371
57548W        W25889   0.946  42.439   3.185
57549W        W25890  41.900  27.491   2.667
57550W        W25891  13.225  42.031   0.847
57551W        W25892  20.049   7.667  13.362
57552W        W25893   9.192  37.478   1.303
57553W        W25894  37.846  43.867   1.333
57554W        W25895  15.232  22.542  12.420
57555W        W25896   3.840  23.625  10.511
57556W        W25897   9.249  17.215   3.355
57557W        W25898  19.222  29.141   3.708
57558W        W25899  27.638  32.112  14.801
57559W        W25900  33.590  43.278  12.025
57560W        W25901  19.663  18.672   0.760
57561W        W25902  11.129  35.908  11.498
57562W        W25903  31.458  12.156  13.492
57563W        W25904  32.020  17.778  11.471
57564W        W25905  10.670  15.120  11.973
57565W        W25906  28.121  18.731  13.339
57566W        W25907  35.594  26.672  11.435
57567W        W25908  22.032   8.307  13.436
57568W        W25909  26.097   2.881  11.948
57569W        W25910  15.287  23.031   1.258
57570W        W25911   7.359  17.592   3.277
57571W        W25912  22.722   2.887   0.957
57572W        W25913  44.978   8.786  12.856
57573W        W25914  18.545  41.470   3.178
57574W        W25915  18.611  18.273   3.638
57575W        W25916  12.164  17.296   3.291
57576W        W25917  25.514  32.415   2.858
57577W        W25918  14.635  16.628   2.315
57578W        W25919  10.801   0.346   1.325
57579W        W25920  31.468  35.979  14.378
57580W        W25921  35.071   8.356  11.546
57581W        W25922  36.980   8.233   1.408
57582W        W25923  38.012  30.634  13.061
57583W        W25924   9.758  30.955   3.729
57584W        W25925   6.395  29.029   2.684
57585W        W25926   7.398   2.745  11.918
57586W        W25927  43.887  32.605   3.836
57587W        W25928  37.011  29.955   3.771
57588W        W25929  39.537  40.455   0.844
57589W        W25930  36.437  39.322   4.626
57590W        W25931  24.047  32.626   3.263
57591W        W25932  10.166  20.718   0.403
57592W        W25933  13.796  16.664  12.445
57593W        W25934   9.171  24.518  12.462
57594W        W25935   9.258  38.443  11.597
57595W        W25936  31.968  20.681   1.785
57596W        W25937  24.693  34.471  12.479
57597W        W25938  10.331   5.716   4.638
57598W        W25939  30.074   0.270   1.890
57599W        W25940  39.885  25.707  13.459
57600W        W25941  30.623  37.373   0.903
57601W        W25942  44.351  26.966   3.345
57602W        W25943  13.734  11.858  14.030
57603W        W25944  33.064  41.340  14.893
57604W        W25945   5.786  14.193   1.732
57605W        W25946  35.484  40.797  13.945
57606W        W25947   5.804  18.182   4.787
57607W        W25948  34.480  43.344   0.926
57608W        W25949  33.458   2.795  12.450
57609W        W25950  43.982   6.272   1.333
57610W        W25951  32.044   6.348  10.999
57611W        W25952   1.880  28.592   2.401
57612W        W25953  24.521  27.061   9.600
57613W        W25954  20.702  18.189  10.915
57614W        W25955  13.682  25.198   4.795
57615W        W25956   4.230  19.121  12.573
57616W        W25957  34.104   8.328   1.855
57617W        W25958  14.783  35.032   1.826
57618W        W25959   6.422   1.394  12.853
57619W        W25960   5.927  14.750  11.602
57620W        W25961  18.234  35.916   1.727
57621W        W25962  39.336   9.354  10.577
57622W        W25963  21.702  35.929   1.767
57623W        W25964  30.480  18.665   1.920
57624W        W25965   2.467  33.003  11.386
57625W        W25966  20.039  25.607   4.298
57626W        W25967   5.395  23.175  13.010
57627W        W25968  37.030  14.729   1.926
57628W        W25969  31.024  26.991   1.351
57629W        W25970  32.110  10.310  13.994
57630W        W25971   8.681  26.499   3.202
57631W        W25972   4.865  18.673  10.982
57632W        W25973  35.932   9.664   1.843
57633W        W25974  38.837   4.777  11.942
57634W        W25975  31.416   4.241  13.311
57635W        W25976  42.783   6.767   0.306
57636W        W25977  18.119   2.356  11.572
57637W        W25978  11.301  44.434  14.404
57638W        W25979   3.278  30.941   5.273
57639W        W25980  39.052   0.760   1.238
57640W        W25981  12.351   3.257   0.356
57641W        W25982   8.377  37.493  13.871
57642W        W25983   7.728  43.834   1.451
57643W        W25984  11.776  30.432  13.426
57644W        W25985  14.331  37.556  12.430
57645W        W25986  12.679   1.749   2.264
57646W        W25987  37.396  17.708   2.184
57647W        W25988  20.192   9.720  10.600
57648W        W25989   4.287  21.234  11.070
57649W        W25990  32.392   0.283   3.334
57650W        W25991  26.116   1.934   2.786
57651W        W25992  28.495  36.086  12.993
57652W        W25993  30.034  16.572  14.422
57653W        W25994   4.870  20.251  12.944
57654W        W25995  21.151  32.078  10.151
57655W        W25996   6.858  32.932  11.491
57656W        W25997  35.880  10.288  14.922
57657W        W25998  19.179   8.395  11.586
57658W        W25999   9.339   2.275  10.572
57659W        W26000  37.075  16.599  12.580
57660W        W26001   0.964  31.487   3.858
57661W        W26002  28.543  24.520  11.044
57662W        W26003  41.936  24.673   2.383
57663W        W26004  10.791  24.531  14.892
57664W        W26005  32.029  39.997  10.437
57665W        W26006   4.291  13.117  11.542
57666W        W26007  35.402  33.943   0.415
57667W        W26008  12.251  14.278   4.658
57668W        W26009  15.709  26.073   2.266
57669W        W26010   1.302  40.474  12.571
57670W        W26011  19.056  33.877   1.248
57671W        W26012  31.047  39.863   5.286
57672W        W26013   3.885  37.925   2.791
57673W        W26014  37.525  34.495  12.469
57674W        W26015  33.890   5.732   1.932
57675W        W26016  26.004  17.653   4.354
57676W        W26017  28.449  42.984  10.538
57677W        W26018   4.796  16.087  13.528
57678W        W26019  37.503  17.145   3.665
57679W        W26020  12.798  12.169   3.631
57680W        W26021  41.878   4.445  13.417
57681W        W26022  36.483  14.666  13.809
57682W        W26023  15.637  40.431  13.967
57683W        W26024   7.759  23.707  12.044
57684W        W26025   5.436   5.695   2.783
57685W        W26026   5.235  11.372  10.977
57686W        W26027  30.059  28.090   3.361
57687W        W26028  26.556  32.142   2.364
57688W        W26029   6.278  20.257   1.774
57689W        W26030  37.558  37.869  14.491
57690W        W26031  41.318  14.604   1.746
57691W        W26032  21.159   1.949   1.358
57692W        W26033   4.386  28.988  10.975
57693W        W26034   5.394  26.611   0.798
57694W        W26035  31.009   4.382  14.852
57695W        W26036  37.371   0.438   3.371
57696W        W26037  13.204  36.044   4.718
57697W        W26038  38.469   2.383  11.040
57698W        W26039   5.906  29.121   0.446
57699W        W26040  38.899   5.387  12.832
57700W        W26041  27.485  36.476  12.863
57701W        W26042  27.527  11.172   2.360
57702W        W26043  30.952  33.998   2.884
57703W        W26044  33.602  27.532   0.429
57704W        W26045  30.046  17.727  10.553
57705W        W26046  18.247  14.105   0.260
57706W        W26047   9.393  15.776  11.925
57707W        W26048  40.422  22.212   1.813
57708W        W26049   9.732  15.751  10.630
57709W        W26050  39.003  12.325  12.034
57710W        W26051  11.780  23.687   0.397
57711W        W26052  26.977  12.768  12.404
57712W        W26053   5.396  17.298   4.725
57713W        W26054   7.869  37.891   2.196
57714W        W26055  35.570  37.540  13.026
57715W        W26056  36.941  23.662  12.034
57716W        W26057  30.996  34.391  14.915
57717W        W26058  32.915   5.904   0.840
57718W        W26059   2.421  14.256  11.540
57719W        W26060  21.729  26.167  13.834
57720W        W26061  41.393  35.537  11.502
57721W        W26062  25.541  32.003   1.725
57722W        W26063  21.047  33.402  12.856
57723W        W26064  35.919   4.863   2.785
57724W        W26065  27.461  21.264   1.823
57725W        W26066  29.530   0.388  13.385
57726W        W26067   8.291  37.071   1.891
57727W        W26068   8.678  36.947  12.874
57728W        W26069   6.767  34.995  14.996
57729W        W26070   0.829  10.750   4.343
57730W        W26071  27.670  24.565   0.737
57731W        W26072  43.329  38.879  14.443
57732W        W26073  36.419  30.511   4.125
57733W        W26074  40.822   8.392   3.152
57734W        W26075  26.658  31.478   4.814
57735W        W26076  21.162  15.608   0.283
57736W        W26077  35.944  25.640   4.706
57737W        W26078   8.384   1.804  10.523
57738W        W26079  38.960  16.806  12.551
57739W        W26080  33.879  28.119   0.366
57740W        W26081  28.130  19.064  10.602
57741W        W26082   6.223   3.292   5.162
57742W        W26083  10.871   7.737  14.989
57743W        W26084  12.624  23.675  14.389
57744W        W26085  19.666  19.140   3.764
57745W        W26086   1.959  31.611  10.918
57746W        W26087  22.037   0.310   2.262
57747W        W26088  22.725  30.606   4.329
57748W        W26089  19.714  14.821   4.759
57749W        W26090   3.802  32.069  12.463
57750W        W26091  42.946  13.208   1.425
57751W        W26092  40.850   7.675  13.390
57752W        W26093  30.101  23.056   1.756
57753W        W26094  15.142  29.531   4.685
57754W        W26095  12.740  27.953  14.879
57755W        W26096  21.685  11.289  11.434
57756W        W26097  43.997  32.918   3.289
57757W        W26098   3.241  43.861  13.486
57758W        W26099  15.307  18.249  10.552
57759W        W26100  18.610  22.733   4.206
57760W        W26101  17.074  17.143  12.873
57761W        W26102   1.894   3.420   0.850
57762W        W26103   5.922  34.998  11.604
57763W        W26104  19.763  23.141  14.826
57764W        W26105  12.793   1.351  11.127
57765W        W26106  29.931  12.651   1.865
57766W        W26107   7.215   2.738   1.253
57767W        W26108   2.379  23.548   3.644
57768W        W26109   5.738  28.183   0.265
57769W        W26110  22.553  25.162  13.436
57770W        W26111  31.548  21.153   2.791
57771W        W26112   2.340  11.785   4.341
57772W        W26113  26.953   9.233   4.741
57773W        W26114   3.755  40.549  14.500
57774W        W26115   6.235  23.071  13.796
57775W        W26116  18.565  30.476  12.074
57776W        W26117  40.963  28.619   3.220
57777W        W26118  44.865  23.706  14.954
57778W        W26119  25.011  42.866  14.883
57779W        W26120  18.704   6.811  13.393
57780W        W26121   4.267  36.071  12.411
57781W        W26122  17.276  39.044  11.540
57782W        W26123  34.552  33.579   4.281
57783W        W26124   9.274  42.314   2.238
57784W        W26125  13.791  26.183   0.927
57785W        W26126  33.619   1.921  11.867
57786W        W26127  33.980  44.286  11.871
57787W        W26128  33.608   9.206  14.504
57788W        W26129  43.297  36.544  10.609
57789W        W26130  44.345  38.848   0.358
57790W        W26131  24.062  30.623  12.499
57791W        W26132  27.533   1.771  12.550
57792W        W26133  25.146  37.939  11.908
57793W        W26134   4.289  16.290  10.512
57794W        W26135  44.320  35.928  10.442
57795W        W26136  27.022  40.542  13.469
57796W        W26137  43.992  16.178  10.904
57797W        W26138  32.396   8.790  13.897
57798W        W26139  32.552  34.589  12.504
57799W        W26140   0.327  40.996   0.299
57800W        W26141  30.128  35.060   4.137
57801W        W26142   9.309  21.515   2.261
57802W        W26143  29.585  22.511   0.884
57803W        W26144   1.461  32.101  11.879
57804W        W26145  18.105  25.700   0.284
57805W        W26146   5.262   1.353   3.651
57806W        W26147  32.020   5.194   4.242
57807W        W26148  19.538  17.620   0.827
57808W        W26149  34.551  29.606   3.243
57809W        W26150   2.445  13.706  12.408
57810W        W26151  39.009  33.473  10.547
57811W        W26152  37.378  26.145  12.403
57812W        W26153   6.850   8.822  13.408
57813W        W26154  21.568  20.157   4.228
57814W        W26155  41.014  43.334  10.067
57815W        W26156  36.573  18.579   2.725
57816W        W26157  31.459  26.084  11.512
57817W        W26158   0.259  10.659  10.483
57818W        W26159  34.048  20.163  11.937
57819W        W26160  24.213  32.557  13.960
57820W        W26161  31.552  10.703   0.809
57821W        W26162  10.772  13.716  13.999
57822W        W26163  38.931   2.345  13.354
57823W        W26164  37.548  14.668   3.739
57824W        W26165  21.700  10.310  10.924
57825W        W26166  25.186  38.000   3.377
57826W        W26167  27.473  35.884   4.213
57827W        W26168  36.082  10.194   0.368
57828W        W26169  41.533  39.354   2.192
57829W        W26170  38.487  37.550  10.432
57830W        W26171  12.176  19.581   4.293
57831W        W26172  17.732  12.684  11.101
57832W        W26173  28.167  20.071  11.969
57833W        W26174  33.096  34.424  12.884
57834W        W26175  13.682  36.078  11.397
57835W        W26176   0.258  30.591   0.762
57836W        W26177  12.701  35.087   1.754
57837W        W26178   8.282  26.980  13.936
57838W        W26179  36.978  12.184  14.951
57839W        W26180  27.183  39.957   4.133
57840W        W26181  34.929  32.038  13.884
57841W        W26182  19.102  24.583   4.665
57842W        W26183  23.119  22.007  11.098
57843W        W26184  17.141  42.347  11.017
57844W        W26185  44.911   0.749   4.247
57845W        W26186   8.796  40.546   2.810
57846W        W26187  11.716   8.824  10.012
57847W        W26188  10.176  23.680   3.814
57848W        W26189   7.872  39.433   1.752
57849W        W26190  35.935  35.430  11.509
57850W        W26191  29.961  40.831   4.147
57851W        W26192   9.770  27.525   3.749
57852W        W26193  38.843  10.713  11.882
57853W        W26194  29.965   9.873  12.485
57854W        W26195  17.301  37.429   0.748
57855W        W26196   0.879  14.284  13.328
57856W        W26197  36.871  19.744   2.853
57857W        W26198   0.343  26.014  13.011
57858W        W26199  13.154   3.755  12.848
57859W        W26200   7.744  14.095  10.907
57860W        W26201  35.984   2.842  14.416
57861W        W26202   3.793  41.525   4.354
57862W        W26203  24.217  34.039  13.948
57863W        W26204   3.845   3.868   1.329
57864W        W26205  33.543   4.910  11.536
57865W        W26206  21.544  14.197   5.307
57866W        W26207  38.912  29.501   2.714
57867W        W26208  24.992  36.537  14.299
57868W        W26209  33.387   7.687  12.429
57869W        W26210   2.256  12.314   1.885
57870W        W26211   6.354   9.234  10.616
57871W        W26212  30.930  36.842   1.696
57872W        W26213   8.893  19.162  14.764
57873W        W26214  35.881  10.851  12.343
57874W        W26215  11.269   0.746  14.831
57875W        W26216   1.929  18.124   1.357
57876W        W26217  34.397   9.227  10.941
57877W        W26218  20.620  15.285   4.275
57878W        W26219  10.255   9.645   0.317
57879W        W26220  18.237   2.796  13.892
57880W        W26221  18.113   2.791  13.333
57881W        W26222  42.373   9.198   1.354
57882W        W26223  27.127  44.869   2.806
57883W        W26224   6.817   3.954   3.722
57884W        W26225   2.303   5.726  13.060
57885W        W26226  44.770  34.095  13.018
57886W        W26227  28.964  33.940  13.378
57887W        W26228  25.216   4.274   3.282
57888W        W26229  39.530  20.031   0.808
57889W        W26230  20.552   6.284  10.424
57890W        W26231  30.910  22.724   4.148
57891W        W26232  23.683  30.137  14.347
57892W        W26233   2.246  15.312   4.116
57893W        W26234   0.454  38.014   2.816
57894W        W26235  39.908   0.945   3.810
57895W        W26236  13.632  25.054  14.321
57896W        W26237   6.342  13.279   2.408
57897W        W26238  14.166  32.542   1.293
57898W        W26239  44.779  42.843  11.109
57899W        W26240   0.258   6.427   3.203
57900W        W26241  36.411  29.591  11.973
57901W        W26242   4.720  39.432  12.523
57902W        W26243  29.611  10.731  14.981
57903W        W26244  34.042  21.553   3.699
57904W        W26245   5.863   7.878  11.118
57905W        W26246  15.329  14.155   1.820
57906W        W26247   7.899  10.684  10.575
57907W        W26248   0.407  37.550  11.080
57908W        W26249  26.473  22.192   1.269
57909W        W26250  36.861  34.987  10.494
57910W        W26251  24.185  43.841   4.756
57911W        W26252  34.597  31.097  14.489
57912W        W26253  34.897   8.747  12.990
57913W        W26254   4.733   5.345  10.921
57914W        W26255  19.077  14.631  14.805
57915W        W26256  44.346  17.742   0.427
57916W        W26257   7.842  22.997   0.832
57917W        W26258  33.029  38.010   2.899
57918W        W26259  40.548  19.663   1.864
57919W        W26260  16.588  11.723  11.026
57920W        W26261  17.190  14.817  12.413
57921W        W26262  31.530  33.480   2.320
57922W        W26263   9.740  33.470   3.295
57923W        W26264  37.862  40.367  14.812
57924W        W26265   5.407  21.523   1.319
57925W        W26266  38.931   0.309   2.279
57926W        W26267  20.245  31.024  10.610
57927W        W26268  25.217  19.161   4.642
57928W        W26269  44.378  41.884   1.872
57929W        W26270   5.380   7.740  11.539
57930W        W26271  42.882  43.413  14.421
57931W        W26272  19.613  36.578  11.590
57932W        W26273   5.721   8.693  12.348
57933W        W26274  22.057  13.171  11.447
57934W        W26275   5.408  13.189  12.501
57935W        W26276  33.988  43.903  11.939
57936W        W26277  30.985  23.617   5.191
57937W        W26278  42.507  28.584   3.793
57938W        W26279  14.099  41.343   2.197
57939W        W26280  15.273  33.467  13.464
57940W        W26281  42.379  21.222  13.883
57941W        W26282   3.341  30.025   4.810
57942W        W26283  13.822  12.712  13.970
57943W        W26284  40.420  18.665   0.350
57944W        W26285   6.740  31.494   2.230
57945W        W26286  25.063  42.858   2.300
57946W        W26287  44.771  41.002  13.511
57947W        W26288  38.944   6.860  14.814
57948W        W26289  19.690  19.751  14.461
57949W        W26290   6.186   7.391  11.421
57950W        W26291  38.362   4.266  10.491
57951W        W26292  43.316  14.616   4.278
57952W        W26293  42.026  20.764   3.635
57953W        W26294   5.901   2.400  12.541
57954W        W26295  40.506   7.905   4.837
57955W        W26296  29.495   1.876  13.428
57956W        W26297  25.120   2.789  12.845
57957W        W26298  42.966  39.972  10.617
57958W        W26299  42.378  22.631   3.698
57959W        W26300  17.296  24.123   1.304
57960W        W26301  41.001  10.166  11.483
57961W        W26302  38.421  33.885   2.725
57962W        W26303   1.330  30.623   0.349
57963W        W26304  24.649  22.193  13.830
57964W        W26305   2.896   9.211   2.178
57965W        W26306   7.714  19.699   4.759
57966W        W26307  31.995   7.888   5.214
57967W        W26308   8.748  41.536   1.811
57968W        W26309  30.938  44.903  12.437
57969W        W26310   4.723  10.818  11.495
57970W        W26311   2.763  42.323  11.604
57971W        W26312   6.817  11.231   1.378
57972W        W26313  17.243  25.713  13.399
57973W        W26314  18.746  14.326   2.773
57974W        W26315   4.397  13.337  12.838
57975W        W26316  34.604  43.846  13.035
57976W        W26317  26.003   1.797  14.968
57977W        W26318  11.719  10.361  10.508
57978W        W26319  15.668  25.623   1.273
57979W        W26320  38.844   4.829   4.673
57980W        W26321   7.910   9.307   2.411
57981W        W26322  42.920  38.489  14.319
57982W        W26323  25.586  17.797  11.867
57983W        W26324  32.610   1.793   3.694
57984W        W26325  36.998  42.314  10.508
57985W        W26326  16.638  24.184  13.988
57986W        W26327  16.784  25.105   3.271
57987W        W26328  34.511  18.780  10.622
57988W        W26329  41.334  13.350  14.282
57989W        W26330  12.121  37.387   2.702
57990W        W26331  29.663   9.290   4.712
57991W        W26332  17.581  26.692  11.091
57992W        W26333  30.065  28.602   2.419
57993W        W26334  37.967   1.454   1.225
57994W        W26335  33.414  24.502   4.207
57995W        W26336  29.046  14.125   4.245
57996W        W26337  16.103  14.719   4.640
57997W        W26338  40.840  31.901  13.812
57998W        W26339  20.185  24.225   1.277
57999W        W26340  38.507  16.810   2.370
58000W        W26341  40.379  17.636   4.216
58001W        W26342  29.136   5.757   1.841
58002W        W26343  42.313  15.192   0.274
58003W        W26344  26.075  29.069   2.848
58004W        W26345  30.111  42.005  11.461
58005W        W26346  20.043  23.065   1.709
58006W        W26347  29.067  36.353   1.338
58007W        W26348  33.961  40.545   0.404
58008W        W26349  33.624  12.674   3.307
58009W        W26350  25.008  37.896  14.987
58010W        W26351   0.370  20.578  10.108
58011W        W26352  13.333   1.433  11.956
58012W        W26353   5.436  17.265  10.967
58013W        W26354  44.260  38.034   1.756
58014W        W26355  37.381  14.754  11.466
58015W        W26356  15.707  21.249  12.359
58016W        W26357  27.994  38.380   4.240
58017W        W26358  41.873   5.350  11.121
58018W        W26359  17.682  29.474   3.157
58019W        W26360  16.742   2.883   4.315
58020W        W26361  40.491  42.933  14.311
58021W        W26362  26.561  38.990  11.407
58022W        W26363   7.722   1.939   0.289
58023W        W26364  10.762  35.491   3.841
58024W        W26365  23.699  35.002  13.897
58025W        W26366  38.944  26.165   1.807
58026W        W26367  37.997  11.698  13.045
58027W        W26368  33.960   0.984  11.568
58028W        W26369  38.008   5.806   3.760
58029W        W26370  34.472  42.337   4.195
58030W        W26371   6.402   7.789  13.331
58031W        W26372   8.872  24.071   4.351
58032W        W26373  33.101   6.312  11.959
58033W        W26374  15.804   9.393  10.629
58034W        W26375  41.791  21.148   2.806
58035W        W26376   8.799   0.383  12.569
58036W        W26377  15.156  20.556  12.928
58037W        W26378  33.016  29.639  11.893
58038W        W26379  40.490   2.882   2.282
58039W        W26380  10.227  13.346  13.959
58040W        W26381  13.634  27.674   3.660
58041W        W26382  13.673  25.705  14.384
58042W        W26383   7.807  37.831  13.010
58043W        W26384  19.242  37.056  14.793
58044W        W26385  19.631  35.471  11.388
58045W        W26386  28.031  36.854  12.937
58046W        W26387   5.845  38.368  14.952
58047W        W26388  16.129  24.542   4.679
58048W        W26389  29.461  16.113   0.828
58049W        W26390  12.706  44.832  14.872
58050W        W26391   8.321  15.274  14.472
58051W        W26392  11.220  26.484   2.839
58052W        W26393  25.114  28.517  12.413
58053W        W26394   8.780  38.018   2.848
58054W        W26395  44.891   7.893  11.535
58055W        W26396  16.583   9.667  12.957
58056W        W26397  12.663  26.029   0.414
58057W        W26398  25.579  35.987   2.845
58058W        W26399  18.216  16.615  12.096
58059W        W26400  12.791  39.998   0.855
58060W        W26401   3.852  24.112   3.213
58061W        W26402  17.668  29.046   1.782
58062W        W26403  19.110  15.731  13.969
58063W        W26404   1.313  23.097  12.048
58064W        W26405   3.315  29.485  14.770
58065W        W26406  13.669  35.924  12.079
58066W        W26407   8.767   0.960   4.738
58067W        W26408   0.314  43.348  14.888
58068W        W26409  43.894  26.462   4.241
58069W        W26410   7.758  12.297   3.675
58070W        W26411  41.402  36.016  13.804
58071W        W26412  26.462  18.122  12.463
58072W        W26413   5.888  21.615  11.567
58073W        W26414  39.826  44.429   2.891
58074W        W26415  44.389  36.033   1.326
58075W        W26416   7.736   7.349  10.027
58076W        W26417  40.941   3.296   1.699
58077W        W26418  28.147  12.217  10.922
58078W        W26419  30.634  11.809  11.485
58079W        W26420   5.209   0.849   0.875
58080W        W26421  18.097  40.008  12.565
58081W        W26422  24.003  34.918   4.283
58082W        W26423  44.438  29.560  14.434
58083W        W26424  17.084  26.057   4.757
58084W        W26425  16.598  14.822  13.045
58085W        W26426  14.750  34.386   1.922
58086W        W26427  39.378   2.871  10.517
58087W        W26428  24.171  14.830   1.838
58088W        W26429   8.784  20.149  10.450
58089W        W26430  21.096  23.148  12.497
58090W        W26431   2.733  38.832   1.697
58091W        W26432  17.229  32.576  11.409
58092W        W26433  37.897  25.605  11.499
58093W        W26434   5.716  27.002  14.947
58094W        W26435   9.854  14.148  12.012
58095W        W26436  14.793  44.880   4.125
58096W        W26437   4.433   3.746   3.803
58097W        W26438   9.378  32.430  13.535
58098W        W26439  15.716   6.385   0.848
58099W        W26440  43.894  20.176  12.559
58100W        W26441  23.104   1.897  14.418
58101W        W26442   8.214   9.349  13.333
58102W        W26443  39.845  30.979   4.168
58103W        W26444  43.513  41.387  14.853
58104W        W26445  19.184   0.248   2.730
58105W        W26446   0.936   8.693   4.220
58106W        W26447  10.822   2.273   4.330
58107W        W26448  43.297  12.694  14.374
58108W        W26449  23.040  21.584  12.861
58109W        W26450  39.381  16.264   4.784
58110W        W26451  35.916   3.801  13.061
58111W        W26452  24.678   0.943  11.434
58112W        W26453  40.479  24.049   4.669
58113W        W26454  34.088  33.497   4.281
58114W        W26455   8.693  12.719   2.852
58115W        W26456  33.609  30.491   3.814
58116W        W26457  12.216   2.963   1.261
58117W        W26458  14.209   4.834   0.946
58118W        W26459   8.733  28.509   4.344
58119W        W26460  29.644  28.157   0.264
58120W        W26461  36.562  41.380   2.737
58121W        W26462  24.640  35.519   3.346
58122W        W26463  40.376  33.018  12.880
58123W        W26464  19.742  22.663   4.228
58124W        W26465   3.277  25.194   2.672
58125W        W26466  24.193  15.653  12.999
58126W        W26467  38.401  27.582   2.221
58127W        W26468  31.599   3.392   4.143
58128W        W26469  17.778  21.147   2.406
58129W        W26470  24.009  42.027   0.401
58130W        W26471  36.878  34.561  10.467
58131W        W26472   0.778   6.327   2.902
58132W        W26473  13.305   1.786   2.730
58133W        W26474   6.423  41.427   3.380
58134W        W26475  32.074  32.962   3.678
58135W        W26476  12.809  18.165  14.289
58136W        W26477   8.853  34.496   1.261
58137W        W26478  16.621  42.789   4.138
58138W        W26479  11.318  35.883  10.983
58139W        W26480  19.203  22.586  13.842
58140W        W26481  12.690  36.429  14.940
58141W        W26482  16.074  39.526  13.450
58142W        W26483  19.631  42.972  14.281
58143W        W26484  12.810   4.770  10.454
58144W        W26485  18.140  27.987   2.819
58145W        W26486  19.071  26.098  10.470
58146W        W26487  36.872  34.512   4.624
58147W        W26488  29.537  31.631  13.871
58148W        W26489  28.084  10.307  11.925
58149W        W26490  24.572  19.579   2.663
58150W        W26491  28.587  27.561  14.853
58151W        W26492  23.735  28.663  13.358
58152W        W26493  38.025  41.030  10.506
58153W        W26494  33.512  40.995   0.898
58154W        W26495  42.984  36.525   4.282
58155W        W26496  30.462  20.152   0.961
58156W        W26497  25.506  30.608  12.857
58157W        W26498  38.352  35.365   0.454
58158W        W26499   7.357  31.960  12.080
58159W        W26500   6.194  27.075  11.887
58160W        W26501  40.414   9.858  13.446
58161W        W26502  28.564  15.172  10.632
58162W        W26503  41.893  36.418   2.720
58163W        W26504  13.206  26.536  12.868
58164W        W26505   2.945   3.827   1.850
58165W        W26506  24.029  37.404  14.967
58166W        W26507  18.186  29.151  13.881
58167W        W26508  11.659  15.103   1.788
58168W        W26509  41.943  29.572  13.977
58169W        W26510  15.231   5.284   0.275
58170W        W26511  13.111  43.868   1.264
58171W        W26512   8.795   7.817   1.903
58172W        W26513  10.316  22.634  14.001
58173W        W26514  38.880   8.343   0.945
58174W        W26515  17.749  30.647  14.952
58175W        W26516  19.545  31.411  10.638
58176W        W26517   0.864  44.304   1.369
58177W        W26518  31.584  35.402   2.822
58178W        W26519  28.536  40.928  12.979
58179W        W26520  43.367  15.682  11.413
58180W        W26521   9.189  36.461   0.884
58181W        W26522  35.554  39.898   2.398
58182W        W26523   4.401  34.044   1.826
58183W        W26524  39.041  26.084   3.215
58184W        W26525  44.010   5.737  14.918
58185W        W26526  28.159  13.240  11.993
58186W        W26527  11.207  31.604  10.414
58187W        W26528  42.956  34.107   3.801
58188W        W26529  29.567  38.412  14.924
58189W        W26530  28.551   1.264  14.417
58190W        W26531  26.024  12.267   3.828
58191W        W26532  42.896  42.476  12.411
58192W        W26533   1.875  36.445  14.929
58193W        W26534   7.868  43.329   0.282
58194W        W26535  16.174  12.807  14.515
58195W        W26536  32.447  24.068   3.350
58196W        W26537  32.603  44.841   2.854
58197W        W26538  20.174  27.485   3.785
58198W        W26539   9.793  27.982   3.795
58199W        W26540  44.344  24.222  10.980
58200W        W26541  27.580  22.727   1.334
58201W        W26542  31.455  39.423  13.473
58202W        W26543   7.806   7.213  13.420
58203W        W26544  15.660  36.069   0.897
58204W        W26545  10.875  27.526   4.149
58205W        W26546   4.302  39.861  13.827
58206W        W26547  41.907  30.514  13.949
58207W        W26548  42.326   6.248  10.941
58208W        W26549  23.214  20.112  13.388
58209W        W26550  31.609  31.516  14.758
58210W        W26551  17.611  39.870  11.108
58211W        W26552  24.530  11.818   0.299
58212W        W26553  19.071  18.052  14.323
58213W        W26554  16.719  31.545  14.396
58214W        W26555  22.721   3.921  11.056
58215W        W26556  29.033  39.369   1.796
58216W        W26557  26.164   8.689  13.352
58217W        W26558  26.698  28.642  10.004
58218W        W26559  10.306  43.764  13.320
58219W        W26560   8.741   6.259   2.720
58220W        W26561  26.037  18.566  11.430
58221W        W26562  22.582  11.651  10.094
58222W        W26563   3.858  34.530  11.956
58223W        W26564  27.050  38.976   2.209
58224W        W26565  19.661  38.508  10.906
58225W        W26566  28.518  37.037  10.932
58226W        W26567  34.484  27.582  13.000
58227W        W26568  17.283  16.161   4.235
58228W        W26569  10.299   8.386  14.388
58229W        W26570  18.111  23.216   2.416
58230W        W26571   4.805  30.152  13.389
58231W        W26572  35.422  38.476  12.914
58232W        W26573  13.172   6.245  12.914
58233W        W26574   7.205   5.699  12.544
58234W        W26575   1.895  41.416   3.695
58235W        W26576  43.410   2.397   3.701
58236W        W26577  28.635  30.067   0.740
58237W        W26578  34.100   5.289  11.974
58238W        W26579  24.704   3.792  12.950
58239W        W26580  25.059  26.013   5.186
58240W        W26581  11.653  22.166  11.473
58241W        W26582  23.552  13.779  11.924
58242W        W26583   9.889  28.596  14.378
58243W        W26584  30.553  33.445  10.513
58244W        W26585  13.779  20.222  13.915
58245W        W26586  21.595  35.574  12.504
58246W        W26587  43.502   5.721   4.599
58247W        W26588  10.213  29.048   2.847
58248W        W26589  35.557  36.396   2.721
58249W        W26590  32.917  16.689  11.045
58250W        W26591  34.948  30.564   5.278
58251W        W26592  44.458  35.919   1.724
58252W        W26593  37.349  38.912   3.281
58253W        W26594  43.496  22.644   0.830
58254W        W26595   4.799  41.958   0.481
58255W        W26596  21.093  40.941  14.302
58256W        W26597  24.679  31.522   2.767
58257W        W26598  36.529  21.026   0.411
58258W        W26599  11.290   2.770   4.201
58259W        W26600   9.174  16.708   2.776
58260W        W26601  18.732  39.535   3.859
58261W        W26602  44.880  39.419  14.460
58262W        W26603  21.188  22.570   1.314
58263W        W26604  24.580  36.533  13.498
58264W        W26605  16.729  17.732   2.252
58265W        W26606   4.406  22.153   0.365
58266W        W26607  16.288  26.618   0.425
58267W        W26608  34.047  38.877  12.533
58268W        W26609  10.742  12.248  12.564
58269W        W26610  37.930  20.029  13.990
58270W        W26611   1.799  13.268   0.329
58271W        W26612   1.338  22.122  14.357
58272W        W26613  32.904  12.717   2.360
58273W        W26614   2.867  24.676  12.021
58274W        W26615   5.240   5.727  11.126
58275W        W26616   1.958  17.227   0.864
58276W        W26617  40.852  28.110  13.335
58277W        W26618  28.993   7.792   1.793
58278W        W26619  16.634  23.207   9.967
58279W        W26620  31.468  32.532   0.310
58280W        W26621  38.973  13.143  12.443
58281W        W26622  35.901  27.445   0.452
58282W        W26623  35.869  17.167  12.916
58283W        W26624  10.316  23.073  14.789
58284W        W26625  35.958   9.695  13.022
58285W        W26626  14.595   8.795   3.640
58286W        W26627  29.152  12.209   1.697
58287W        W26628  21.056   8.186   4.742
58288W        W26629  40.338  19.245   0.249
58289W        W26630  31.410  18.108   1.745
58290W        W26631  11.763   1.344  14.908
58291W        W26632  10.307   3.349   4.775
58292W        W26633  33.409  32.468   3.197
58293W        W26634  15.718  41.491   0.466
58294W        W26635  39.495  28.953  10.642
58295W        W26636  22.555  22.578  11.591
58296W        W26637  17.172  24.704  11.036
58297W        W26638  16.216  34.091   2.193
58298W        W26639  16.572  26.042  14.819
58299W        W26640   9.182   8.756   4.129
58300W        W26641  39.988   3.362  11.390
58301W        W26642   1.788   1.409  13.530
58302W        W26643  37.067   6.381   4.237
58303W        W26644  22.632  24.626   4.248
58304W        W26645   9.686  28.016  12.895
58305W        W26646  36.033  39.453  14.372
58306W        W26647  23.031  31.081  11.027
58307W        W26648  34.384  28.019   2.230
58308W        W26649  43.362  44.449   4.672
58309W        W26650  44.782  11.195   4.337
58310W        W26651  12.151  34.515  14.321
58311W        W26652  22.540  41.864   3.276
58312W        W26653  15.134  35.043   4.708
58313W        W26654  34.567  19.197  12.566
58314W        W26655   4.234   5.284   0.832
58315W        W26656   8.893  12.117  13.837
58316W        W26657   2.411  10.164   2.408
58317W        W26658  16.133   6.892  14.773
58318W        W26659  40.894   3.928   0.357
58319W        W26660  32.904  17.115   2.797
58320W        W26661   9.678  38.076  12.049
58321W        W26662   7.220  29.017   1.727
58322W        W26663  19.199  14.338   4.245
58323W        W26664  26.545  28.472  11.899
58324W        W26665  18.192  29.590   2.846
58325W        W26666   9.825  22.670  11.517
58326W        W26667  23.117  41.412   4.660
58327W        W26668  25.985   5.889   2.237
58328W        W26669  44.398   4.860  14.459
58329W        W26670  32.950   4.867  12.049
58330W        W26671  14.790   2.938  12.370
58331W        W26672   1.843   1.284  14.014
58332W        W26673  16.238  33.480   0.408
58333W        W26674  35.376  11.160  13.802
58334W        W26675  13.209   8.171  11.959
58335W        W26676   7.289  37.468  10.633
58336W        W26677  15.290  22.218  13.989
58337W        W26678  18.193  13.701   3.309
58338W        W26679  37.540   7.333   2.393
58339W        W26680   0.913   8.699   1.236
58340W        W26681  38.371  12.648   1.871
58341W        W26682   0.948   7.727  10.638
58342W        W26683   6.409  35.426   4.672
58343W        W26684  24.590   8.739   4.692
58344W        W26685  12.624  24.600   2.355
58345W        W26686  26.702  17.766   3.192
58346W        W26687  14.326  10.174   3.178
58347W        W26688  39.474  39.893  12.057
58348W        W26689  10.707  29.601  14.857
58349W        W26690   7.796  42.877   0.342
58350W        W26691  22.166  42.407  10.947
58351W        W26692  23.090  17.191  14.771
58352W        W26693   5.294  11.286   0.808
58353W        W26694   5.745  21.262  13.910
58354W        W26695  42.286   8.399   0.302
58355W        W26696  32.459   0.854  14.368
58356W        W26697  29.447  41.796   0.464
58357W        W26698  12.730  11.140  13.347
58358W        W26699   7.281   4.414  14.781
58359W        W26700  14.335   5.252  11.490
58360W        W26701  32.100  32.580   3.748
58361W        W26702  25.167  10.384   2.384
58362W        W26703  11.320  44.284   4.174
58363W        W26704  29.605  31.530   3.691
58364W        W26705  28.092   0.407   0.839
58365W        W26706   8.278  13.615  10.442
58366W        W26707  44.938  30.097   3.235
58367W        W26708  10.870   2.742   3.197
58368W        W26709  41.805  32.935  11.468
58369W        W26710  18.176  35.564   2.893
58370W        W26711   1.343   3.820   0.768
58371W        W26712  13.107  40.837  13.504
58372W        W26713  41.794  30.038   4.725
58373W        W26714  41.403  21.030  12.032
58374W        W26715  27.478  35.443  11.535
58375W        W26716  28.060   0.961   5.253
58376W        W26717   4.429  42.000  12.998
58377W        W26718   9.837   1.318   4.263
58378W        W26719  27.992  34.992  12.837
58379W        W26720   2.962  36.471   3.172
58380W        W26721  35.451  31.980  12.036
58381W        W26722   6.257  23.063  11.497
58382W        W26723  36.940  33.969  13.914
58383W        W26724  41.977  42.962  10.066
58384W        W26725  42.438  35.369  13.822
58385W        W26726  13.599  25.605  14.830
58386W        W26727  32.627  13.844   3.216
58387W        W26728  42.823  16.580   4.127
58388W        W26729  31.010   4.732   1.283
58389W        W26730   4.303  29.429  12.487
58390W        W26731  44.964  24.715   2.811
58391W        W26732   3.233  41.902  12.035
58392W        W26733  24.204  34.399  10.962
58393W        W26734  16.649  34.905   3.764
58394W        W26735  20.560  12.675   2.853
58395W        W26736  41.538  32.503   4.713
58396W        W26737  38.446  17.579  14.365
58397W        W26738   6.226  16.072   4.196
58398W        W26739  15.174   3.865  14.842
58399W        W26740  41.347  31.588   2.856
58400W        W26741  18.726  24.124   2.756
58401W        W26742  43.816  31.149   1.837
58402W        W26743  42.912  17.119  14.859
58403W        W26744  25.711   9.309   1.912
58404W        W26745  24.492  23.551  12.359
58405W        W26746  41.493  21.107   4.747
58406W        W26747  26.027   7.801  13.839
58407W        W26748  31.498  23.620  14.759
58408W        W26749   3.264  22.507  12.519
58409W        W26750  39.848  25.163  12.852
58410W        W26751  21.689   8.747   2.856
58411W        W26752   2.940  15.681  14.815
58412W        W26753  22.009  22.997   4.643
58413W        W26754   5.358  22.712  14.019
58414W        W26755  25.194  33.892   3.205
58415W        W26756  35.951  31.561  13.363
58416W        W26757  34.446   3.938  14.337
58417W        W26758  32.120  18.687  13.036
58418W        W26759  15.292  14.615   3.671
58419W        W26760   0.369  21.162  12.892
58420W        W26761  44.280  24.133  10.079
58421W        W26762  30.122  32.453  13.332
58422W        W26763   1.928   3.336  13.809
58423W        W26764  32.138   7.872   4.696
58424W        W26765  28.019  43.008   2.830
58425W        W26766  24.723   6.300  11.560
58426W        W26767   8.803  33.539   0.242
58427W        W26768  12.166  14.200  10.603
58428W        W26769  32.426  14.685   1.768
58429W        W26770   7.845   6.715  10.404
58430W        W26771  15.204  25.043  11.877
58431W        W26772   6.402  30.077  11.103
58432W        W26773  30.560  14.298  13.839
58433W        W26774  41.025  17.559   0.767
58434W        W26775  29.080   3.340   4.793
58435W        W26776  30.160  38.434   0.431
58436W        W26777   2.281  34.057   3.179
58437W        W26778   4.375  31.470  14.285
58438W        W26779  13.323  20.154  13.308
58439W        W26780  19.605   7.814   3.637
58440W        W26781  21.176  28.662   0.408
58441W        W26782  12.282  22.018  13.935
58442W        W26783  23.625  43.482  11.455
58443W        W26784  33.485  28.031   2.411
58444W        W26785  24.521  14.212  13.462
58445W        W26786  23.131  44.382   1.416
58446W        W26787  19.263  29.044   2.807
58447W        W26788  27.174  26.020   3.869
58448W        W26789   4.823   1.310  14.387
58449W        W26790   2.919  42.982  14.834
58450W        W26791  25.678  27.085  11.382
58451W        W26792  21.155  10.702   0.893
58452W        W26793   6.801  23.638  10.954
58453W        W26794  25.023  29.574  11.486
58454W        W26795   9.342  25.160   0.928
58455W        W26796  10.222  22.191  12.973
58456W        W26797  25.155  39.524  11.058
58457W        W26798  26.512   2.913  14.782
58458W        W26799  20.733  21.119   3.757
58459W        W26800  14.150  27.018   1.933
58460W        W26801  14.737  13.344  14.905
58461W        W26802  14.687  35.559  13.058
58462W        W26803   8.768  27.668   1.887
58463W        W26804  16.771  32.636   5.147
58464W        W26805  14.631  27.529  13.860
58465W        W26806  29.570   8.666  10.630
58466W        W26807  28.016  20.153   4.174
58467W        W26808  12.238  27.577  10.628
58468W        W26809   7.763  11.737  11.871
58469W        W26810  17.610   3.936  14.846
58470W        W26811  35.577  34.936   3.672
58471W        W26812  36.536  30.484  12.493
58472W        W26813  37.036  33.597  12.386
58473W        W26814  23.135   3.875   1.236
58474W        W26815  38.921  34.104   0.376
58475W        W26816   7.278   4.838   1.254
58476W        W26817  28.458  24.209   2.179
58477W        W26818   9.181  10.360   1.886
58478W        W26819  18.137  35.960   2.765
58479W        W26820  16.686  24.711  10.607
58480W        W26821  34.063  21.695   0.378
58481W        W26822  18.279   0.333  12.066
58482W        W26823  30.112  24.521  13.400
58483W        W26824  29.072   3.876   0.363
58484W        W26825   5.888  11.855  10.576
58485W        W26826   1.877  10.821  10.989
58486W        W26827  30.919   7.685  12.377
58487W        W26828  12.855  10.819   9.498
58488W        W26829  15.753  22.683  12.092
58489W        W26830   9.312  40.494  10.996
58490W        W26831  35.498  13.810  11.424
58491W        W26832  20.605  17.643  11.992
58492W        W26833  43.834   0.928   0.294
58493W        W26834  34.871  40.425   0.737
58494W        W26835  17.139   2.739  13.416
58495W        W26836  26.495   6.689   3.346
58496W        W26837  10.865  44.988   0.900
58497W        W26838  20.531  21.135   1.358
58498W        W26839  14.748  41.485   1.217
58499W        W26840  23.502   5.832  13.528
58500W        W26841  32.921  16.077   1.912
58501W        W26842  21.123  27.104  10.912
58502W        W26843   5.397   3.719  13.052
58503W        W26844  30.082  41.340   2.820
58504W        W26845  32.967  32.440   0.777
58505W        W26846   0.485   8.844   0.806
58506W        W26847  44.265  34.107   3.267
58507W        W26848  23.613  27.183  14.279
58508W        W26849  34.445  19.274   3.148
58509W        W26850  13.120  41.406  12.386
58510W        W26851   6.245  33.973  11.426
58511W        W26852   1.409  10.283  10.462
58512W        W26853   1.448  17.579   0.340
58513W        W26854  34.992  20.603   3.340
58514W        W26855  14.266  19.166  14.987
58515W        W26856   9.159   7.701  12.989
58516W        W26857  42.857  36.987  13.413
58517W        W26858  21.102  11.259   0.344
58518W        W26859  21.612   8.772   3.328
58519W        W26860  32.968  32.421   1.279
58520W        W26861  39.455  38.879   2.795
58521W        W26862   9.244  36.590   3.232
58522W        W26863  43.971  18.277  14.463
58523W        W26864  11.665  10.787   3.178
58524W        W26865  20.571  40.922  12.039
58525W        W26866  37.843   4.308   3.651
58526W        W26867  26.694  17.086  14.784
58527W        W26868  38.413  36.458  11.041
58528W        W26869  43.814  40.389   1.297
58529W        W26870  34.476  39.428   3.159
58530W        W26871  25.132  29.100   0.885
58531W        W26872   0.456  30.575   0.377
58532W        W26873  14.667   7.336  11.498
58533W        W26874  34.382  39.943   2.188
58534W        W26875  15.596  11.717  11.501
58535W        W26876  14.239  31.421  13.460
58536W        W26877  30.629  39.030   3.669
58537W        W26878  13.764   7.840  13.420
58538W        W26879  42.450  15.740  13.340
58539W        W26880   7.796   2.278   0.311
58540W        W26881  39.956  18.240  14.325
58541W        W26882  22.545   9.761  14.319
58542W        W26883  43.324  34.045   2.898
58543W        W26884  23.998   3.397   3.739
58544W        W26885  11.224   6.788  11.917
58545W        W26886   8.813  26.191   0.480
58546W        W26887  35.517  22.712   3.277
58547W        W26888  16.685  34.602   3.760
58548W        W26889  12.288  26.011  14.454
58549W        W26890  27.149  13.214  12.530
58550W        W26891  19.625  29.166  12.570
58551W        W26892  16.108  22.604  13.935
58552W        W26893  26.527  29.567   2.807
58553W        W26894  12.361  40.458   5.571
58554W        W26895  35.855  15.608  11.946
58555W        W26896   7.700  10.665   3.347
58556W        W26897  26.604  32.565  10.604
58557W        W26898  18.101  16.296  12.373
58558W        W26899  34.422  16.725   1.850
58559W        W26900  44.282   1.463   1.820
58560W        W26901  44.987  23.022  10.964
58561W        W26902  15.658  23.698  11.393
58562W        W26903   5.742  28.131   2.735
58563W        W26904  33.886  21.574   2.819
58564W        W26905  33.942  30.561   0.752
58565W        W26906  22.162  42.781   2.833
58566W        W26907  36.966   2.380  13.801
58567W        W26908   7.313  26.504   2.197
58568W        W26909   4.210  11.706  14.984
58569W        W26910  29.034  28.602   3.748
58570W        W26911   1.459   6.198   4.205
58571W        W26912   3.844  12.162   1.330
58572W        W26913  20.525  34.051   4.794
58573W        W26914  12.797   0.858   0.890
58574W        W26915  17.603  32.108  10.921
58575W        W26916  29.567  30.510   0.423
58576W        W26917  25.983   2.407  12.836
58577W        W26918  27.100  12.824   2.367
58578W        W26919  42.978  30.152  12.569
58579W        W26920  29.455  19.534  14.012
58580W        W26921   3.742  31.153   2.302
58581W        W26922  27.526  12.643   2.726
58582W        W26923  20.624  26.512   1.749
58583W        W26924  25.168  35.386   0.376
58584W        W26925   5.746  35.390   3.306
58585W        W26926   5.221  33.017   0.404
58586W        W26927  26.530  17.579   2.343
58587W        W26928  22.597   0.249   0.775
58588W        W26929  38.493   1.411   4.130
58589W        W26930  36.492  36.881   0.780
58590W        W26931  22.679  28.959   0.897
58591W        W26932  42.519  15.761  13.005
58592W        W26933  16.301  37.951   0.856
58593W        W26934   6.411  12.339   2.707
58594W        W26935  26.471  18.284  11.380
58595W        W26936  36.584  40.939   2.348
58596W        W26937  23.095  26.200   0.289
58597W        W26938  33.002  41.509  14.345
58598W        W26939  37.987  37.392  11.376
58599W        W26940   1.343  24.210  10.983
58600W        W26941  20.214  35.464   1.263
58601W        W26942  28.163  19.602   2.836
58602W        W26943  22.541  21.159  13.537
58603W        W26944   3.400  43.841  14.959
58604W        W26945  16.126  35.003   5.131
58605W        W26946  26.146  32.538   3.313
58606W        W26947  38.440  19.094   0.909
58607W        W26948  30.499  29.425  12.575
58608W        W26949  10.182  34.562   4.307
58609W        W26950  40.921   6.803   2.190
58610W        W26951  17.067  32.131   9.515
58611W        W26952  41.882  28.455   0.803
58612W        W26953  11.758   2.421   1.877
58613W        W26954  23.102  24.219  10.621
58614W        W26955   6.271  14.676  11.040
58615W        W26956   6.886   8.869   1.907
58616W        W26957   6.350  28.470  13.006
58617W        W26958  15.676  20.175   1.898
58618W        W26959   3.728  44.267   4.669
58619W        W26960  19.206   4.880   0.755
58620W        W26961   1.903   3.954   2.845
58621W        W26962   7.745  22.636  12.448
58622W        W26963  40.304   3.429   1.443
58623W        W26964  40.482  27.657   3.712
58624W        W26965  44.954  29.539   0.901
58625W        W26966  10.771   8.823   4.147
58626W        W26967  43.005  17.267   3.311
58627W        W26968  30.914  44.867  11.426
58628W        W26969  25.208   7.834  10.622
58629W        W26970  21.654   6.828  12.883
58630W        W26971  16.748   0.949   1.700
58631W        W26972  39.862  18.562  11.486
58632W        W26973   0.304  12.812  11.475
58633W        W26974  23.528  17.200   3.816
58634W        W26975  20.272  33.416   2.388
58635W        W26976  20.672  22.038   3.802
58636W        W26977  28.121  43.985  13.466
58637W        W26978  10.660  30.586   2.288
58638W        W26979   0.812  35.592   4.333
58639W        W26980  10.213   7.333  12.577
58640W        W26981  31.079  38.409   0.329
58641W        W26982   6.324  24.127   3.684
58642W        W26983  40.523   7.682   0.933
58643W        W26984   1.880  30.482  10.415
58644W        W26985   4.358  12.661   4.613
58645W        W26986   3.809   1.898   3.290
58646W        W26987  12.637   8.314  12.479
58647W        W26988  11.247  22.549  14.396
58648W        W26989  21.574  12.653  12.948
58649W        W26990  21.651  39.827   4.720
58650W        W26991  38.853   1.355  13.901
58651W        W26992  13.132  18.278   3.711
58652W        W26993  41.800  29.033  11.101
58653W        W26994  21.061  43.850   1.734
58654W        W26995   1.761  20.169   1.213
58655W        W26996  24.047  26.532  12.471
58656W        W26997   9.317  15.245  10.449
58657W        W26998  12.715  19.609  12.580
58658W        W26999  30.623  42.888   3.163
58659W        W27000  12.689  25.204   3.384
58660W        W27001  13.349   1.834   4.126
58661W        W27002  16.229   9.305  14.500
58662W        W27003  43.935   1.966  14.925
58663W        W27004  38.357  40.026   3.372
58664W        W27005  28.172  25.013  12.365
58665W        W27006   8.770  19.542  11.871
58666W        W27007   7.194  24.061   0.803
58667W        W27008  16.647  40.829  14.798
58668W        W27009   8.230  25.094  12.417
58669W        W27010   3.748  32.990   4.670
58670W        W27011  27.673  27.190   3.803
58671W        W27012  32.631  35.085  12.483
58672W        W27013  14.268   4.763   5.196
58673W        W27014   2.770  13.606   0.820
58674W        W27015   5.901  23.515   1.229
58675W        W27016  44.322  24.011  11.860
58676W        W27017  43.278  36.565   1.867
58677W        W27018  18.176  30.034  13.022
58678W        W27019  35.398  27.005   2.296
58679W        W27020  35.985   5.914   0.306
58680W        W27021  22.090  38.568   4.135
58681W        W27022  39.519  43.389  12.839
58682W        W27023  14.781  41.957   0.740
58683W        W27024  26.004   7.896   1.867
58684W        W27025   3.402   4.351  13.498
58685W        W27026  44.988  24.538  10.912
58686W        W27027  15.156   0.950   0.828
58687W        W27028   4.814  12.210   9.923
58688W        W27029  38.546  43.440  10.512
58689W        W27030   2.811  15.756  10.978
58690W        W27031  35.412   7.906  14.280
58691W        W27032   3.379  40.436   1.347
58692W        W27033  35.051  30.039  14.903
58693W        W27034  11.148   3.415   1.855
58694W        W27035   2.949  14.123   1.370
58695W        W27036  19.768  21.077   0.746
58696W        W27037  15.771   1.855  13.897
58697W        W27038  12.226  27.519   1.240
58698W        W27039  42.939   7.241  11.947
58699W        W27040  19.043  10.296  12.092
58700W        W27041  21.198  32.485  14.480
58701W        W27042  20.654  20.654  10.528
58702W        W27043  32.054   3.871   5.289
58703W        W27044  30.615  44.792  12.031
58704W        W27045  33.962   6.329  10.971
58705W        W27046   3.840  31.098   0.934
58706W        W27047  32.017   8.760  14.981
58707W        W27048   4.283  33.626  13.861
58708W        W27049  42.826  37.481  11.374
58709W        W27050  42.486  34.490  13.357
58710W        W27051  19.113   3.831   3.159
58711W        W27052   0.451   2.330  12.008
58712W        W27053   2.306   3.278  10.934
58713W        W27054   2.327  43.442  11.009
58714W        W27055  42.843  33.456   1.336
58715W        W27056  39.870  39.461  12.074
58716W        W27057  31.016  40.806   3.263
58717W        W27058  36.433  44.911   0.389
58718W        W27059  36.078   0.312  11.063
58719W        W27060  25.566  35.411  10.569
58720W        W27061   0.888  34.544  12.017
58721W        W27062  16.124  31.416   4.190
58722W        W27063  33.469  12.812  13.470
58723W        W27064  11.759  18.570   0.784
58724W        W27065  20.062  41.501  13.444
58725W        W27066  15.143  15.278   0.398
58726W        W27067  22.189  34.989   3.317
58727W        W27068  44.280  23.009   1.345
58728W        W27069  30.037  37.010  14.377
58729W        W27070  39.048  23.101  11.572
58730W        W27071  16.602  37.896  11.026
58731W        W27072  32.624  28.094   3.732
58732W        W27073  26.049  27.019  10.492
58733W        W27074  25.651  21.656  13.997
58734W        W27075  43.765  37.402   4.616
58735W        W27076   2.934  32.008  13.872
58736W        W27077   5.796  24.643  12.357
58737W        W27078  22.187   5.830   3.154
58738W        W27079  43.298  26.084  12.511
58739W        W27080  10.876  13.151   3.846
58740W        W27081   2.391   1.967  13.025
58741W        W27082   7.788  39.940  10.566
58742W        W27083  44.976  42.366   1.396
58743W        W27084  28.650  13.334   1.228
58744W        W27085  10.838  26.970  12.091
58745W        W27086  16.267  18.767   3.751
58746W        W27087  24.646  31.036  13.809
58747W        W27088  16.234  42.786   1.744
58748W        W27089  30.516  30.595   1.317
58749W        W27090  44.820  32.107  12.027
58750W        W27091  43.872  14.718   3.179
58751W        W27092  25.196  37.457  14.987
58752W        W27093  15.618  26.119  13.408
58753W        W27094   5.383   4.224  14.929
58754W        W27095   5.893  12.307   0.444
58755W        W27096  44.812   6.237   3.766
58756W        W27097  19.268   1.451   4.816
58757W        W27098  24.005  23.075   4.162
58758W        W27099   6.742   9.290   1.247
58759W        W27100   6.883  28.979  12.387
58760W        W27101  40.325   4.240   1.872
58761W        W27102  18.772  24.613  10.569
58762W        W27103  21.049   6.851   3.852
58763W        W27104  17.072   7.865  14.315
58764W        W27105  28.071  15.153  13.350
58765W        W27106   3.758   9.742  11.582
58766W        W27107  44.471  44.862   4.320
58767W        W27108  25.558  37.959  10.574
58768W        W27109   2.248  33.957   4.276
58769W        W27110  34.947   3.763  14.813
58770W        W27111  14.625  44.419  12.511
58771W        W27112  29.082  31.592   1.839
58772W        W27113  37.468  32.551  14.953
58773W        W27114  29.071  22.528   3.761
58774W        W27115  41.388  21.024  13.524
58775W        W27116  14.230   5.778   4.284
58776W        W27117   5.776  41.837   0.382
58777W        W27118  18.155   7.361   3.706
58778W        W27119  26.512  22.180   0.347
58779W        W27120  27.974  12.767   0.285
58780W        W27121  36.560   2.920  11.430
58781W        W27122  36.394  38.049   3.382
58782W        W27123  26.118  27.454  12.944
58783W        W27124  26.655   4.901   3.384
58784W        W27125   5.326  11.700   2.256
58785W        W27126  23.568  19.554   2.214
58786W        W27127  16.769  16.094   2.311
58787W        W27128  40.509  23.069   3.786
58788W        W27129  36.842  17.681  14.003
58789W        W27130   8.723  27.068   1.883
58790W        W27131  13.209  30.604  11.574
58791W        W27132  27.002   5.805   4.606
58792W        W27133  15.688  29.497   4.171
58793W        W27134  12.329  28.519  10.545
58794W        W27135   5.322  43.899  10.638
58795W        W27136   9.827  42.479   4.723
58796W        W27137  30.944   7.889   4.792
58797W        W27138   0.920  39.349   3.214
58798W        W27139  23.566   7.909  14.870
58799W        W27140  34.471  26.554   2.755
58800W        W27141  24.514  13.678  13.998
58801W        W27142  39.517  39.335   3.355
58802W        W27143  35.527  28.565   0.880
58803W        W27144  13.177  20.652   0.448
58804W        W27145   6.295  44.479   1.919
58805W        W27146  11.136  12.126   2.664
58806W        W27147   6.419  22.213  13.934
58807W        W27148  26.200  15.093   4.201
58808W        W27149  34.428  20.222  13.374
58809W        W27150  20.047  16.274  14.317
58810W        W27151  33.526   7.866   0.460
58811W        W27152  29.037   1.262  11.870
58812W        W27153  27.622  19.088  10.907
58813W        W27154  20.118  34.604   1.854
58814W        W27155  30.491  42.294  13.499
58815W        W27156  17.802  37.510   5.247
58816W        W27157  29.545  10.148   1.881
58817W        W27158  21.724   4.304   1.718
58818W        W27159  26.999   4.379  14.897
58819W        W27160  17.730   4.926  14.963
58820W        W27161  25.138  32.522   4.691
58821W        W27162  39.471  26.200   1.305
58822W        W27163  29.095  32.887  14.469
58823W        W27164  11.369  23.190  11.025
58824W        W27165   1.884  22.723  10.571
58825W        W27166  15.243  17.667   2.801
58826W        W27167  37.435  11.701  14.898
58827W        W27168  30.453  23.659   0.301
58828W        W27169  11.760  21.635  13.854
58829W        W27170  37.910  38.530   0.413
58830W        W27171  38.036  24.606  13.321
58831W        W27172  15.759  43.926   3.743
58832W        W27173  38.493   6.295   2.680
58833W        W27174  28.003   2.866   3.179
58834W        W27175  25.021  24.568  12.072
58835W        W27176  12.750  18.565   1.281
58836W        W27177  33.398  14.132   3.380
58837W        W27178  28.663  29.022   4.831
58838W        W27179  31.060  31.565   4.641
58839W        W27180  41.953  14.293  11.906
58840W        W27181  31.927  16.195   1.310
58841W        W27182  33.537  21.129  10.092
58842W        W27183  32.929  43.983   3.288
58843W        W27184  44.457  38.835   4.270
58844W        W27185  12.675  40.915   1.376
58845W        W27186  30.918   4.942   2.273
58846W        W27187  19.633  38.506  13.873
58847W        W27188  41.370  24.178   1.823
58848W        W27189  27.093  26.981  13.932
58849W        W27190  19.191  33.071  10.427
58850W        W27191   1.932  33.057  14.851
58851W        W27192  42.923   1.953  13.388
58852W        W27193   1.789   9.358   2.187
58853W        W27194   7.724  43.769   3.201
58854W        W27195  27.000  13.631  14.503
58855W        W27196  10.743   5.272   2.819
58856W        W27197  30.439  41.972  11.372
58857W        W27198  24.636   0.976  10.412
58858W        W27199  40.821  29.069   0.750
58859W        W27200  38.075   2.837   4.721
58860W        W27201  32.550  19.259   3.803
58861W        W27202  28.933  14.172   2.287
58862W        W27203  13.658  21.634   1.372
58863W        W27204  15.275  34.602  13.798
58864W        W27205  21.232  28.538   3.811
58865W        W27206   3.277  11.278   1.770
58866W        W27207  18.188  36.091   0.418
58867W        W27208  32.925  44.337  14.514
58868W        W27209  19.109  40.968  10.447
58869W        W27210   5.356  24.067   3.761
58870W        W27211  23.109  37.962   2.278
58871W        W27212  11.830  40.805  10.922
58872W        W27213   7.253  17.104   3.341
58873W        W27214  19.597   3.837  11.990
58874W        W27215  32.946  16.759   0.251
58875W        W27216  32.141  35.900  11.112
58876W        W27217  36.471  11.152   3.639
58877W        W27218  33.626  28.646   3.227
58878W        W27219  38.039  14.314  10.503
58879W        W27220  20.536   2.768  13.501
58880W        W27221  37.500  43.364  11.409
58881W        W27222  19.113   8.293  13.870
58882W        W27223   1.258  20.677   0.803
58883W        W27224  37.027   6.717  13.337
58884W        W27225  13.649  37.446   1.743
58885W        W27226  25.206  35.414  13.872
58886W        W27227  37.578  17.788  11.559
58887W        W27228  22.711  10.187   3.646
58888W        W27229   2.945  33.947   0.789
58889W        W27230  26.168   3.906  14.782
58890W        W27231   5.843  37.035  13.420
58891W        W27232  27.544  19.544   3.286
58892W        W27233  20.263  27.552  11.428
58893W        W27234  39.011  19.780  11.483
58894W        W27235  16.750  38.025   3.719
58895W        W27236  20.539  32.894   4.599
58896W        W27237  12.754   0.291  10.587
58897W        W27238   5.814  26.492  14.380
58898W        W27239   4.826   3.262  12.050
58899W        W27240   0.760  14.700  14.917
58900W        W27241  43.406  37.566  13.371
58901W        W27242   1.468   1.832  10.620
58902W        W27243  37.377  29.061   4.747
58903W        W27244  31.137  27.106  10.897
58904W        W27245  14.318   1.437   4.673
58905W        W27246   1.427   3.278   4.199
58906W        W27247  17.795  38.999   9.924
58907W        W27248  31.545  38.901  13.476
58908W        W27249   9.791  36.988  14.782
58909W        W27250  40.514   7.302  11.113
58910W        W27251   6.822  30.959  13.966
58911W        W27252  24.538  25.180  11.383
58912W        W27253  28.653  31.084   0.366
58913W        W27254  42.788  40.029   1.891
58914W        W27255   8.246  44.368   0.796
58915W        W27256  27.106  13.694  14.912
58916W        W27257  27.616  44.851  11.544
58917W        W27258  12.806  11.712   2.260
58918W        W27259  39.830  41.032   2.376
58919W        W27260   8.354  25.630   2.828
58920W        W27261   9.801   5.724  14.006
58921W        W27262  33.131  15.723  10.952
58922W        W27263  31.558  43.510   0.823
58923W        W27264  27.193  33.104  12.441
58924W        W27265  36.008  16.108  14.869
58925W        W27266  42.912  37.403  13.461
58926W        W27267  28.983  44.757   4.237
58927W        W27268   2.962   8.875   0.424
58928W        W27269   0.378   8.861   3.351
58929W        W27270  18.545  16.205  11.455
58930W        W27271  20.074  23.200   0.339
58931W        W27272   6.898  41.343  14.788
58932W        W27273   3.273  35.988   0.834
58933W        W27274  36.010   2.241  12.844
58934W        W27275  29.654  31.463   2.741
58935W        W27276  36.902  41.406  13.424
58936W        W27277  25.214  17.733  13.455
58937W        W27278   5.815   9.713  11.605
58938W        W27279  30.958  41.358   0.325
58939W        W27280  29.053  12.816   1.886
58940W        W27281  43.951  29.932  12.352
58941W        W27282  33.005  37.925  13.036
58942W        W27283  31.912   5.410  14.977
58943W        W27284  37.976  13.784  12.410
58944W        W27285  22.688  33.403  11.042
58945W        W27286  25.711  13.197  14.428
58946W        W27287  26.603  20.732  10.136
58947W        W27288  12.141  30.489   3.666
58948W        W27289  13.626  37.417   5.196
58949W        W27290  14.175  43.430   0.471
58950W        W27291  28.439  13.277  13.317
58951W        W27292  20.547   2.466  12.388
58952W        W27293   7.891  24.633  12.542
58953W        W27294  44.409  30.649   4.239
58954W        W27295  11.358  33.104  11.495
58955W        W27296   5.692  23.216   4.790
58956W        W27297  31.021  42.493  13.486
58957W        W27298  29.545  11.813   5.085
58958W        W27299  43.462  42.283  12.070
58959W        W27300  15.788  29.600   3.791
58960W        W27301  11.773  15.806  10.992
58961W        W27302   3.451  27.534  12.410
58962W        W27303  18.065  12.821   3.301
58963W        W27304   4.349   8.875   0.408
58964W        W27305   9.747  41.306   2.187
58965W        W27306  30.105  22.073   2.804
58966W        W27307   8.183  43.383  13.993
58967W        W27308   8.187  28.054  11.524
58968W        W27309  14.272  38.823   1.761
58969W        W27310  35.542  36.939   4.832
58970W        W27311   1.465   4.430  14.795
58971W        W27312  21.567  13.302  12.053
58972W        W27313  21.047  43.939  13.349
58973W        W27314  23.997  10.216  12.445
58974W        W27315  25.533   3.875  11.103
58975W        W27316  40.859   0.924  13.313
58976W        W27317  20.041  34.096  12.899
58977W        W27318  15.581  28.180  12.453
58978W        W27319   2.945   0.258  10.458
58979W        W27320  39.351  13.776   2.669
58980W        W27321  36.374  42.446  12.911
58981W        W27322   4.854   1.921   3.239
58982W        W27323  44.789  30.608   0.460
58983W        W27324   6.208  40.471   1.769
58984W        W27325  39.835  31.557   0.370
58985W        W27326  39.489  19.195   1.224
58986W        W27327  32.545  19.657   2.722
58987W        W27328  23.186  40.032   2.722
58988W        W27329   8.800  18.758   5.149
58989W        W27330  26.092  39.376   3.726
58990W        W27331  14.679   1.741   2.212
58991W        W27332   9.351  35.917  13.367
58992W        W27333   2.456  18.258  14.819
58993W        W27334  15.782  31.510  11.458
58994W        W27335  17.584  13.130   0.952
58995W        W27336  29.108  25.984  13.356
58996W        W27337  10.804  37.887   3.657
58997W        W27338   0.794  15.606   1.416
58998W        W27339  30.030   1.895   1.413
58999W        W27340  10.645  29.581   2.879
59000W        W27341  38.355  28.153   3.321
59001W        W27342   3.853   9.875  11.862
59002W        W27343  35.902  17.152   2.287
59003W        W27344   2.823  27.180   1.286
59004W        W27345   1.469  21.187   1.260
59005W        W27346  38.531  24.115  14.427
59006W        W27347  33.119   4.768  11.022
59007W        W27348  44.889  11.166   3.641
59008W        W27349   0.970  14.251   3.312
59009W        W27350  34.875  22.056  11.529
59010W        W27351   3.218  16.589  12.519
59011W        W27352  32.586  43.398   4.720
59012W        W27353  20.652  38.846   0.408
59013W        W27354   5.912   3.460   3.767
59014W        W27355  22.598   4.237  13.971
59015W        W27356  44.461  29.982   3.698
59016W        W27357  32.469   8.370   4.738
59017W        W27358  14.743  17.687   4.825
59018W        W27359  10.680  10.746  11.091
59019W        W27360   4.775  27.481  10.128
59020W        W27361   9.220  43.435  13.935
59021W        W27362  37.967  15.165   3.231
59022W        W27363  33.494  11.246  11.581
59023W        W27364  35.992   4.716  10.414
59024W        W27365   2.455  27.669  12.926
59025W        W27366  14.290  33.942   1.300
59026W        W27367  27.169  44.961  11.497
59027W        W27368   8.355  16.210  13.416
59028W        W27369  43.959  11.250  11.867
59029W        W27370  23.009   1.328   3.208
59030W        W27371  39.443  28.931   1.865
59031W        W27372  28.523  25.976  14.417
59032W        W27373  21.072  36.851   5.106
59033W        W27374  30.536  10.273   0.398
59034W        W27375   5.418   1.278  13.004
59035W        W27376   5.814  38.331  10.445
59036W        W27377  13.120  29.483   3.770
59037W        W27378  20.054  32.899  13.870
59038W        W27379  37.944  18.657   2.880
59039W        W27380  43.493  26.513  10.962
59040W        W27381  19.563   5.217  12.529
59041W        W27382  21.581  43.827  10.996
59042W        W27383  43.458  39.045   1.763
59043W        W27384  44.327  32.625   1.924
59044W        W27385  39.932  13.207   3.189
59045W        W27386  12.665   7.261  13.437
59046W        W27387  28.957  15.770   4.667
59047W        W27388  40.418   7.891   3.735
59048W        W27389  20.580   2.409  14.512
59049W        W27390  27.085  16.259   3.367
59050W        W27391  36.384  40.940   2.812
59051W        W27392  15.231  15.673  13.964
59052W        W27393  18.566  43.272  13.826
59053W        W27394  35.858  37.439   5.215
59054W        W27395  31.110   3.375   3.288
59055W        W27396  38.073  27.172  12.836
59056W        W27397  44.418  30.546  10.628
59057W        W27398  38.466  14.157  13.064
59058W        W27399  33.912   9.244  12.878
59059W        W27400   3.373   3.724  14.328
59060W        W27401  42.997  19.046   0.951
59061W        W27402  11.314  22.222  14.032
59062W        W27403  27.978  39.417  13.883
59063W        W27404  43.333  20.095  12.437
59064W        W27405  31.086  16.699  10.453
59065W        W27406  33.071  44.911   0.728
59066W        W27407   1.265  36.039  11.552
59067W        W27408  14.152  16.197   2.902
59068W        W27409  41.407   0.340  11.428
59069W        W27410  31.576   1.740   1.780
59070W        W27411  35.998  23.085  12.843
59071W        W27412  40.864   3.743   1.769
59072W        W27413  17.638  14.100   3.866
59073W        W27414  27.054  26.178   1.741
59074W        W27415  13.310  11.340  11.517
59075W        W27416  21.226  29.102  14.855
59076W        W27417  25.192  26.130  10.554
59077W        W27418   1.398  35.010  10.632
59078W        W27419  10.767  27.142   2.753
59079W        W27420  22.078  42.368  12.552
59080W        W27421  22.536  31.008   4.214
59081W        W27422   4.880  37.428  13.470
59082W        W27423   0.969  23.711  13.481
59083W        W27424  44.763  27.678  13.508
59084W        W27425  30.907  20.671  14.996
59085W        W27426   6.347  36.912  14.399
59086W        W27427  18.121  39.367  12.906
59087W        W27428  11.790  43.846  12.913
59088W        W27429   6.212   2.900  11.423
59089W        W27430  25.706   2.841   1.337
59090W        W27431  40.974   0.348   0.317
59091W        W27432  26.097  28.578  11.123
59092W        W27433  40.031  18.222  13.858
59093W        W27434  37.355  20.164   4.770
59094W        W27435  42.521  13.128  12.848
59095W        W27436  15.709  28.449  13.912
59096W        W27437  37.433   6.207   2.839
59097W        W27438  39.314  24.221   4.120
59098W        W27439  19.766  43.379   1.698
59099W        W27440  41.949  18.591   4.233
59100W        W27441   3.914  15.188   1.439
59101W        W27442  36.470  30.457   2.711
59102W        W27443  17.303  32.009   0.331
59103W        W27444  13.776  27.057  11.432
59104W        W27445   6.779  34.410  10.530
59105W        W27446   2.920   4.390  12.013
59106W        W27447  19.091  39.954   2.786
59107W        W27448  28.031  13.321  13.912
59108W        W27449  28.024   9.333  10.616
59109W        W27450  10.363  19.631   4.738
59110W        W27451  22.688  23.118  14.808
59111W        W27452  20.224   0.859  11.383
59112W        W27453  17.598  44.904  11.904
59113W        W27454  39.389  19.631  11.513
59114W        W27455  29.984   1.471   3.632
59115W        W27456  20.185  19.160  13.798
59116W        W27457  27.672  19.726   1.312
59117W        W27458  10.334   1.427   1.821
59118W        W27459  43.985   6.364  11.429
59119W        W27460  31.000  36.564  11.489
59120W        W27461  11.173  14.331  11.608
59121W        W27462   7.260  24.119   3.200
59122W        W27463  36.985   4.865  12.055
59123W        W27464  42.784  12.241  11.392
59124W        W27465   9.809  12.802   0.907
59125W        W27466  11.757  24.069   4.674
59126W        W27467  29.082  11.774  10.563
59127W        W27468  37.398   1.376   1.771
59128W        W27469   1.878  29.066  12.046
59129W        W27470   3.217  29.610   4.172
59130W        W27471  13.236  22.659   3.381
59131W        W27472  21.107  43.796   1.299
59132W        W27473  17.630  27.637   3.678
59133W        W27474  27.064   0.416  13.818
59134W        W27475   4.319  37.373   1.911
59135W        W27476  19.153  39.829  13.355
59136W        W27477   1.271  37.377  13.054
59137W        W27478   3.732  22.093  13.006
59138W        W27479   0.434   4.795   2.670
59139W        W27480  15.721  18.108  12.075
59140W        W27481  35.860   8.330  14.881
59141W        W27482  33.459  38.940  11.992
59142W        W27483  24.599  19.677  10.005
59143W        W27484  42.908  32.081  14.777
59144W        W27485  29.529   9.217   3.709
59145W        W27486  35.099  39.452  11.411
59146W        W27487   0.947   2.915   4.761
59147W        W27488   5.294  38.993   3.211
59148W        W27489  43.829  29.517  12.461
59149W        W27490  32.629  27.572  10.903
59150W        W27491  41.510   1.363  11.596
59151W        W27492  41.482  23.075  10.490
59152W        W27493  34.492  44.934   3.711
59153W        W27494  15.623  16.233  14.924
59154W        W27495  14.806  10.355  12.479
59155W        W27496  30.121  29.446   3.744
59156W        W27497  34.458   4.233  10.622
59157W        W27498   0.797   0.755   2.721
59158W        W27499  34.530  26.999  11.384
59159W        W27500  40.361  11.274  11.964
59160W        W27501  12.124  40.506   3.350
59161W        W27502   9.320  16.098  14.313
59162W        W27503  22.721  25.195   0.915
59163W        W27504  43.879   3.230  14.514
59164W        W27505  40.979  28.161  11.075
59165W        W27506  20.254   2.234  14.340
59166W        W27507  14.292  35.450  11.087
59167W        W27508  18.214  29.922  14.930
59168W        W27509   6.311  26.043   1.755
59169W        W27510  11.657  13.293   3.191
59170W        W27511   0.393  21.737  10.634
59171W        W27512  23.148  41.342  14.962
59172W        W27513   4.249  41.837   4.638
59173W        W27514  44.387  10.318  12.832
59174W        W27515  27.136  12.146   0.809
59175W        W27516  11.676  21.153  11.076
59176W        W27517  21.179  30.940   1.768
59177W        W27518  32.070  41.448  11.427
59178W        W27519  21.142   5.903   1.862
59179W        W27520  20.594   6.288   3.158
59180W        W27521  10.141  13.240   9.587
59181W        W27522  15.710  13.606   1.218
59182W        W27523  19.200  22.577  13.397
59183W        W27524  11.836   4.333   0.317
59184W        W27525  26.096  17.746   0.781
59185W        W27526  43.290   8.659   4.821
59186W        W27527  13.192  41.034   9.457
59187W        W27528   0.468  22.232   3.258
59188W        W27529  21.587  13.198  13.336
59189W        W27530  31.120  28.094  11.942
59190W        W27531  24.035  44.772   3.690
59191W        W27532   7.665  20.614   4.758
59192W        W27533   0.907   2.322   2.840
59193W        W27534  41.325  11.744   2.875
59194W        W27535   8.857  27.456  13.462
59195W        W27536  43.420  38.992  12.342
59196W        W27537  13.846   9.688  14.445
59197W        W27538  13.273  38.911   3.641
59198W        W27539  27.668   3.347   1.305
59199W        W27540   8.402  31.065   1.758
59200W        W27541  36.405   4.235   0.247
59201W        W27542   6.773  39.959   4.757
59202W        W27543  31.939   5.195   4.620
59203W        W27544  20.099   3.790  14.336
59204W        W27545  30.566  11.723   3.329
59205W        W27546  10.284  22.203  12.054
59206W        W27547  38.940  37.065   0.911
59207W        W27548  14.660   8.214   1.399
59208W        W27549  19.602  12.751  13.814
59209W        W27550  21.618  39.999   3.154
59210W        W27551  37.069  13.331   0.841
59211W        W27552  26.504  17.784  12.524
59212W        W27553   1.926  15.597   2.662
59213W        W27554  24.485   0.345   1.212
59214W        W27555  22.512  44.383   3.240
59215W        W27556  28.457  19.128   0.248
59216W        W27557  36.994  29.526  13.387
59217W        W27558   0.367  44.831  12.416
59218W        W27559  24.138   0.946   4.301
59219W        W27560  42.924  27.087  10.441
59220W        W27561   9.272  38.838  12.577
59221W        W27562   2.917  32.450   0.936
59222W        W27563   4.442  33.026   0.733
59223W        W27564  11.842  33.124   4.829
59224W        W27565   0.892  36.089  10.904
59225W        W27566   4.738  21.123   3.283
59226W        W27567  16.303  20.206   2.764
59227W        W27568  42.513  44.284   2.361
59228W        W27569  40.833   4.889   0.854
59229W        W27570  18.234   6.234   4.771
59230W        W27571  32.628   1.856  11.856
59231W        W27572  30.600  23.033   4.224
59232W        W27573  27.148  10.801   3.853
59233W        W27574   4.249  11.309  14.435
59234W        W27575  37.084  30.119   2.769
59235W        W27576   0.927  34.503  13.345
59236W        W27577  22.061  17.135   4.321
59237W        W27578  18.702  27.064   1.272
59238W        W27579  22.250   7.205   3.236
59239W        W27580  33.928  33.904   0.374
59240W        W27581  14.829  31.639  11.950
59241W        W27582  25.095  44.369  14.466
59242W        W27583  22.620  40.951   0.354
59243W        W27584  41.402   5.200  14.515
59244W        W27585  17.745  43.354   0.930
59245W        W27586   5.798   4.909   2.889
59246W        W27587  42.297  13.169   1.881
59247W        W27588  16.616   1.256   3.870
59248W        W27589   8.866  34.112   3.647
59249W        W27590  39.855  40.516   2.315
59250W        W27591  20.676  32.594  11.031
59251W        W27592  40.807  36.479   3.371
59252W        W27593  10.663  35.026   3.752
59253W        W27594  18.198  37.844  11.465
59254W        W27595   9.178  24.625   3.758
59255W        W27596  28.663  35.894   0.332
59256W        W27597  30.659  25.009   1.793
59257W        W27598  11.664  39.445   2.318
59258W        W27599  23.547   7.748   3.162
59259W        W27600  34.502  25.094  13.836
59260W        W27601   9.697  36.426   1.383
59261W        W27602  24.047  43.008  10.594
59262W        W27603   5.893  35.962  14.321
59263W        W27604  14.610  31.417   1.304
59264W        W27605  19.042   5.309   3.681
59265W        W27606  16.139  20.744   2.224
59266W        W27607  24.553  11.146  11.426
59267W        W27608  26.541  16.743   0.800
59268W        W27609  13.105  23.990   4.657
59269W        W27610  36.447  23.111   0.280
59270W        W27611  14.212  13.215   3.679
59271W        W27612  30.563  24.010  13.373
59272W        W27613   8.239  28.644  12.504
59273W        W27614  10.255  24.141   2.305
59274W        W27615   4.711   0.336  12.543
59275W        W27616  10.363  27.991  13.057
59276W        W27617   1.935  35.898   3.189
59277W        W27618  38.464  39.948   0.255
59278W        W27619   3.799  20.623  12.885
59279W        W27620  39.490  10.245  14.924
59280W        W27621  31.910  14.170   3.862
59281W        W27622  25.476   8.320   4.665
59282W        W27623  24.043  32.109   2.807
59283W        W27624   6.395  38.034  11.405
59284W        W27625  44.958  22.099  13.361
59285W        W27626   9.862   9.711  12.918
59286W        W27627   9.279  32.600  11.476
59287W        W27628   9.252  41.960   0.388
59288W        W27629  35.987   3.859  11.418
59289W        W27630   9.650  13.642  13.807
59290W        W27631  32.556  22.072   1.863
59291W        W27632  25.516  25.693  10.466
59292W        W27633  15.194  40.520  12.437
59293W        W27634  34.032  13.105   0.444
59294W        W27635  37.497  41.933  13.404
59295W        W27636  16.178  39.456   0.823
59296W        W27637  15.578  25.963   2.808
59297W        W27638   3.245  22.668  13.904
59298W        W27639  41.480   6.904   3.809
59299W        W27640  20.030  10.226  14.456
59300W        W27641  20.135   5.356   1.811
59301W        W27642  36.943  17.300  13.428
59302W        W27643  34.943  31.107   1.704
59303W        W27644  44.902  32.551   4.814
59304W        W27645  19.622  23.496   1.791
59305W        W27646  30.544   7.719   2.302
59306W        W27647  35.091  21.704   0.373
59307W        W27648   7.808  16.145   2.746
59308W        W27649  29.996  37.374   3.286
59309W        W27650  17.203  17.730   0.273
59310W        W27651  17.093  37.048   4.323
59311W        W27652   3.933  26.618  12.021
59312W        W27653   1.790   5.783  14.984
59313W        W27654   1.864  13.781   3.202
59314W        W27655  18.264  37.075  13.046
59315W        W27656  29.957   7.415   0.307
59316W        W27657   8.315  16.201  10.990
59317W        W27658  42.831  37.832  11.110
59318W        W27659  41.506   2.279  12.527
59319W        W27660  42.354  10.316  11.397
59320W        W27661  14.594  25.981  10.468
59321W        W27662   3.294  29.612   3.793
59322W        W27663  19.550   3.794   0.471
59323W        W27664  27.669   1.306  14.289
59324W        W27665  35.906  35.603   0.892
59325W        W27666  38.535  36.846   4.329
59326W        W27667  21.616  29.601   3.697
59327W        W27668  23.583   2.426  13.341
59328W        W27669  42.991  32.038  12.381
59329W        W27670  21.630  15.659  13.911
59330W        W27671  26.599  41.957   4.137
59331W        W27672   5.763  14.593  13.460
59332W        W27673  34.966  42.306  11.548
59333W        W27674   8.162   3.780   2.182
59334W        W27675   3.364  14.224   4.305
59335W        W27676  42.287  13.175  14.023
59336W        W27677  43.472  43.985  12.397
59337W        W27678  35.932   8.812  11.451
59338W        W27679  16.274  35.055  12.383
59339W        W27680   0.381   7.728   4.187
59340W        W27681   3.816  17.658   2.727
59341W        W27682  19.184  37.522   1.710
59342W        W27683  24.557   0.437   3.748
59343W        W27684  42.983  14.313  11.541
59344W        W27685  25.468   7.688  11.540
59345W        W27686  21.115  29.041   3.732
59346W        W27687  11.171   2.397  13.950
59347W        W27688  14.760  28.564  12.466
59348W        W27689  26.084  24.566   4.800
59349W        W27690  38.474  17.774   4.322
59350W        W27691  33.070  30.918   1.385
59351W        W27692   5.398  18.670   4.210
59352W        W27693  10.878  38.010   2.896
59353W        W27694  25.495  11.725  10.137
59354W        W27695  31.148  42.493   3.764
59355W        W27696  15.605  14.178   2.867
59356W        W27697  24.634  13.669   1.830
59357W        W27698  37.489  35.941   1.223
59358W        W27699   7.895  33.535  10.590
59359W        W27700   4.796  19.535   2.255
59360W        W27701   1.904  13.193   0.746
59361W        W27702  23.011  10.266   4.658
59362W        W27703  38.013   8.820   5.154
59363W        W27704  15.593  32.128   4.820
59364W        W27705  27.968  24.087   4.708
59365W        W27706  30.479  10.372   1.748
59366W        W27707  10.183  32.453  11.499
59367W        W27708  28.535  21.031   2.695
59368W        W27709  10.686  32.578   3.713
59369W        W27710  28.570  39.512  13.361
59370W        W27711   8.211   2.283   1.822
59371W        W27712  30.123  25.146  12.987
59372W        W27713  24.603  13.204   3.848
59373W        W27714  39.963  13.737  11.428
59374W        W27715  23.185  13.646   0.354
59375W        W27716  13.143  38.549  13.963
59376W        W27717  17.799  32.416  12.997
59377W        W27718  11.669  27.595  13.967
59378W        W27719  32.635  33.979   0.875
59379W        W27720  14.122  43.343  12.429
59380W        W27721  28.082  42.933  13.528
59381W        W27722   4.422  41.352   2.676
59382W        W27723  10.295  33.950  13.498
59383W        W27724  33.429  25.073   2.382
59384W        W27725  37.419  20.057   0.406
59385W        W27726   9.174  16.811  12.518
59386W        W27727  42.967   6.404   1.379
59387W        W27728   9.316  32.564  12.347
59388W        W27729  37.048  32.431   1.296
59389W        W27730  19.669  10.818  13.934
59390W        W27731  43.997  23.013   0.415
59391W        W27732  18.059  37.019   1.436
59392W        W27733  30.553  14.768   2.689
59393W        W27734   6.802  39.360  13.872
59394W        W27735  18.242  18.558   1.914
59395W        W27736   0.480   5.243  11.985
59396W        W27737  27.555  17.769   0.873
59397W        W27738  19.740  17.143  10.923
59398W        W27739  41.815   7.359   0.395
59399W        W27740  13.288  44.378  14.440
59400W        W27741   5.215  23.997  11.377
59401W        W27742  37.390  25.044   0.277
59402W        W27743  17.794   3.928   3.248
59403W        W27744  39.853  33.613  13.395
59404W        W27745  40.370  16.119  11.865
59405W        W27746  23.525  42.981   3.313
59406W        W27747  32.424  24.048  14.509
59407W        W27748  43.299  33.536   1.236
59408W        W27749  27.965  41.825  13.948
59409W        W27750  21.264   3.853   2.338
59410W        W27751  21.026  10.282  14.918
59411W        W27752  34.009  36.060   2.264
59412W        W27753  39.835  34.393   0.289
59413W        W27754  41.026  30.652   1.765
59414W        W27755  42.864  24.089   0.330
59415W        W27756  15.099  26.530   2.765
59416W        W27757  35.467   3.273   2.831
59417W        W27758   5.929  33.431   0.419
59418W        W27759  28.140  40.417   1.229
59419W        W27760  36.855  35.475   2.211
59420W        W27761  24.651  43.858   1.719
59421W        W27762  37.569  25.012  14.875
59422W        W27763  31.415   9.251   0.943
59423W        W27764  28.167  35.392   0.481
59424W        W27765  31.096  29.940   4.761
59425W        W27766  25.090   0.363   1.849
59426W        W27767  39.936  44.809  12.992
59427W        W27768  31.946  32.446   2.844
59428W        W27769  34.975  38.871  11.480
59429W        W27770  39.056  27.682   1.928
59430W        W27771  27.532  44.453   1.293
59431W        W27772  18.664  25.973  10.989
59432W        W27773  38.950   5.775   1.879
59433W        W27774   8.292  42.385  10.940
59434W        W27775  38.452   1.287  14.381
59435W        W27776   7.672  29.562   2.380
59436W        W27777  43.832   5.301   4.228
59437W        W27778  38.536   0.311  13.873
59438W        W27779   0.923  17.613   0.901
59439W        W27780  19.174  22.149  13.793
59440W        W27781  25.620  12.772  12.919
59441W        W27782  15.643   7.174  12.876
59442W        W27783   1.922  19.269  14.010
59443W        W27784  16.112  24.585   0.295
59444W        W27785  12.667   3.709  11.060
59445W        W27786  30.163  32.090   1.449
59446W        W27787  35.956  17.266   0.259
59447W        W27788  43.819   3.402  13.951
59448W        W27789   4.943  22.060   0.891
59449W        W27790  44.352  18.056  10.429
59450W        W27791  10.234   2.770   0.245
59451W        W27792  40.823  10.709   2.862
59452W        W27793  30.910  39.994  12.048
59453W        W27794   9.362   7.757   3.171
59454W        W27795   0.271   4.288   3.353
59455W        W27796  24.147  10.745  12.574
59456W        W27797   0.253   3.711  14.285
59457W        W27798  11.323  13.631  13.975
59458W        W27799   2.782  13.263  13.914
59459W        W27800  17.271   3.766  11.993
59460W        W27801  32.980  38.954  13.915
59461W        W27802  24.980  14.152   1.380
59462W        W27803   5.436  25.202  12.552
59463W        W27804  35.365  34.472   1.805
59464W        W27805  42.848  18.073   2.676
59465W        W27806  29.565  20.574  11.890
59466W        W27807   6.395  39.846   4.700
59467W        W27808  14.691  38.548   3.692
59468W        W27809   1.964   6.696   4.273
59469W        W27810  37.562  19.650   0.459
59470W        W27811  44.273  19.536   2.884
59471W        W27812  32.493   7.836   2.192
59472W        W27813   0.334  21.241   3.817
59473W        W27814  33.478  36.869  13.882
59474W        W27815   2.914  15.107   1.263
59475W        W27816  29.950  17.115   4.124
59476W        W27817  10.311  30.609  11.097
59477W        W27818  17.730  29.958   0.798
59478W        W27819   9.161  18.786  10.952
59479W        W27820  32.127   6.917  14.987
59480W        W27821  19.175   4.364   0.926
59481W        W27822   4.814   4.226   2.382
59482W        W27823  22.719  19.226  14.898
59483W        W27824  24.192  27.552  14.889
59484W        W27825  15.704  27.942  13.987
59485W        W27826  21.200  19.735   2.343
59486W        W27827  14.230   9.229   2.368
59487W        W27828  29.442  17.745  10.556
59488W        W27829   0.903  41.853  12.542
59489W        W27830  38.920  40.426  14.384
59490W        W27831   2.264  18.762  14.465
59491W        W27832  34.518  14.747   1.779
59492W        W27833  30.061  44.463  14.758
59493W        W27834  33.991  41.909   2.345
59494W        W27835  24.983  41.462   0.474
59495W        W27836   2.263  15.182  12.415
59496W        W27837  10.277   3.229   0.834
59497W        W27838  23.720  14.309  12.364
59498W        W27839  26.024  43.913  14.836
59499W        W27840  42.300  44.478   2.734
59500W        W27841  16.275  28.503   2.777
59501W        W27842  38.909  24.148  14.966
59502W        W27843  24.212  28.141   1.712
59503W        W27844   7.793   3.308  10.015
59504W        W27845  14.655  20.534  12.568
59505W        W27846  32.534  29.001  12.878
59506W        W27847  18.720   2.931  11.017
59507W        W27848   8.720   2.262  11.984
59508W        W27849  26.551  20.585   3.696
59509W        W27850  37.970  12.290   4.691
59510W        W27851  13.122  34.917  12.429
59511W        W27852  13.686  25.028  13.455
59512W        W27853  43.273  44.339  11.995
59513W        W27854  13.731  25.181  12.407
59514W        W27855  37.873   0.855   3.714
59515W        W27856   7.214   1.419   1.245
59516W        W27857   6.209  15.302  14.483
59517W        W27858  28.164  19.163  13.895
59518W        W27859  40.398  21.134  11.061
59519W        W27860  10.794  14.630   2.403
59520W        W27861   3.428   5.838   0.388
59521W        W27862  10.791  23.590   1.878
59522W        W27863  27.031   2.396  14.771
59523W        W27864  21.177   2.419   4.839
59524W        W27865   8.864  19.709  14.758
59525W        W27866   0.365   2.385  13.039
59526W        W27867  22.698  15.684  13.893
59527W        W27868  42.299  12.303   3.680
59528W        W27869   8.365   5.767  13.352
59529W        W27870  22.505  38.483  13.503
59530W        W27871  33.431  37.523   0.364
59531W        W27872  34.097  38.057  11.967
59532W        W27873   0.978  39.062   0.842
59533W        W27874  32.539  37.872   0.780
59534W        W27875  16.251  38.546   3.703
59535W        W27876   9.191  14.784   1.773
59536W        W27877  39.324  42.451   5.750
59537W        W27878  40.352  43.313  14.797
59538W        W27879  39.454  17.166  13.827
59539W        W27880  17.717  39.854   1.430
59540W        W27881  22.076   9.300  11.053
59541W        W27882  39.903   1.852  14.779
59542W        W27883   9.332  28.156  14.960
59543W        W27884  16.787  38.373   0.781
59544W        W27885  22.032  26.578  14.841
59545W        W27886  19.067  38.522   1.702
59546W        W27887   9.870   6.869  12.425
59547W        W27888  22.512   2.431  10.000
59548W        W27889   2.433  33.618  14.381
59549W        W27890  10.176  39.396   4.834
59550W        W27891  12.171  10.805   1.399
59551W        W27892  39.403   6.421  10.938
59552W        W27893  11.366   4.384   2.405
59553W        W27894  13.682  41.324  11.450
59554W        W27895   1.287   5.302  12.411
59555W        W27896  32.924  15.616   1.873
59556W        W27897  40.548  27.075   2.283
59557W        W27898  42.298  40.457  11.029
59558W        W27899   6.704  13.655   2.731
59559W        W27900  21.626  16.182   2.872
59560W        W27901  31.999  22.720   1.717
59561W        W27902   8.332  12.335  13.929
59562W        W27903   4.353   5.804  12.339
59563W        W27904   5.809   5.716   3.790
59564W        W27905  40.446   0.433   4.806
59565W        W27906  12.776  17.174  12.066
59566W        W27907   6.884  11.298   3.868
59567W        W27908  21.188  30.077   3.854
59568W        W27909  26.689  21.646   0.926
59569W        W27910  27.132  42.021   4.683
59570W        W27911  31.082   4.251  11.022
59571W        W27912   5.391  38.520   1.821
59572W        W27913   3.323  20.540   1.931
59573W        W27914   0.479   8.865  11.529
59574W        W27915  24.123   5.317  13.982
59575W        W27916  28.545  38.819  12.881
59576W        W27917  19.633   0.795  10.614
59577W        W27918   4.392  33.619   0.420
59578W        W27919  44.362  27.013  11.939
59579W        W27920  24.175   9.811   1.713
59580W        W27921  26.685  43.301  14.829
59581W        W27922   5.737  27.106  13.942
59582W        W27923  14.168  38.402  12.034
59583W        W27924  19.058  16.172  14.795
59584W        W27925  36.058  33.583   0.744
59585W        W27926  14.184  35.897  10.511
59586W        W27927   2.425   0.849   4.639
59587W        W27928  29.149  24.724   0.841
59588W        W27929  34.064  42.468   0.317
59589W        W27930  19.738  42.424   1.749
59590W        W27931  44.441  26.090  10.410
59591W        W27932  39.476  20.045  12.868
59592W        W27933  20.254  23.503   4.204
59593W        W27934  25.496  38.493   0.804
59594W        W27935  31.954  16.270   2.698
59595W        W27936   1.904  24.040  12.406
59596W        W27937  13.195  25.001   4.168
59597W        W27938  29.636  18.286  13.361
59598W        W27939  14.652  20.757   2.886
59599W        W27940  22.064  33.611   3.374
59600W        W27941  29.541  28.549  13.799
59601W        W27942  31.642   1.399  10.926
59602W        W27943  30.436  34.077  13.907
59603W        W27944  36.999  15.293  10.901
59604W        W27945  17.129   9.824   1.352
59605W        W27946   6.377   1.918  12.511
59606W        W27947  33.028   9.684   4.177
59607W        W27948  33.003  44.809   4.791
59608W        W27949  40.962  23.050   1.737
59609W        W27950   4.375  13.633   3.163
59610W        W27951  35.953  23.586   0.382
59611W        W27952  32.991  34.592  14.406
59612W        W27953  36.095   7.377  13.448
59613W        W27954  16.569   3.422   3.702
59614W        W27955  19.778  10.736   4.717
59615W        W27956   5.761  34.928  11.065
59616W        W27957  27.594  19.699  11.565
59617W        W27958   5.901  23.001   0.435
59618W        W27959  38.938  12.295  14.910
59619W        W27960  31.045  25.503  11.906
59620W        W27961   3.764  10.267  11.490
59621W        W27962  41.958  26.555   4.203
59622W        W27963   3.716  18.068  13.969
59623W        W27964  20.544  19.651   2.181
59624W        W27965  18.546   0.862  10.933
59625W        W27966  24.171  42.434   3.153
59626W        W27967  17.575   2.829  10.552
59627W        W27968  34.535   6.288   4.829
59628W        W27969  22.154  17.610   4.646
59629W        W27970   6.224  40.998   4.349
59630W        W27971  22.662  30.493   5.147
59631W        W27972  22.552  11.134  10.517
59632W        W27973  11.732  18.711   1.823
59633W        W27974  10.840  24.074  12.866
59634W        W27975  33.409  17.665   0.810
59635W        W27976  25.174  35.036  13.815
59636W        W27977   9.329  21.563  11.461
59637W        W27978  30.980  30.513  14.946
59638W        W27979  40.866   1.972   0.814
59639W        W27980   8.732   0.277   9.933
59640W        W27981  37.415  25.611  13.431
59641W        W27982  27.066  30.630   3.213
59642W        W27983  36.574   0.346   2.239
59643W        W27984  43.421  19.661   3.658
59644W        W27985  38.368  35.538  10.612
59645W        W27986  32.896   3.814  13.964
59646W        W27987  35.452  19.271   2.294
59647W        W27988   3.297  20.650   0.255
59648W        W27989  23.100  30.128   2.763
59649W        W27990  32.565  31.958   1.446
59650W        W27991  17.798  27.143   0.767
59651W        W27992  17.651  35.856  12.580
59652W        W27993  14.753   7.214   2.668
59653W        W27994  17.241  38.910   9.977
59654W        W27995  35.956  37.417  13.859
59655W        W27996  40.854  36.402  10.954
59656W        W27997   5.716  33.962   4.227
59657W        W27998  38.560  34.059  13.959
59658W        W27999  27.127  27.607  10.598
59659W        W28000   0.946  25.015  11.548
59660W        W28001  12.848  19.261  12.033
59661W        W28002  42.480  24.723  13.533
59662W        W28003  16.191  30.551   1.365
59663W        W28004  15.689   5.781  10.435
59664W        W28005  14.288  10.808   3.199
59665W        W28006  44.866  27.981  12.509
59666W        W28007  20.666  19.595  11.055
59667W        W28008  28.668   6.837  13.964
59668W        W28009  24.050   6.332   2.680
59669W        W28010  42.406  11.321   1.885
59670W        W28011  32.635  40.500   0.798
59671W        W28012  12.285  27.564   0.371
59672W        W28013  27.062   1.328   1.414
59673W        W28014  34.986  17.784  13.330
59674W        W28015  20.184  18.083  13.373
59675W        W28016  31.963  11.139   4.738
59676W        W28017  23.068  27.596   0.802
59677W        W28018  33.498   6.412  14.275
59678W        W28019   3.319  10.271   5.160
59679W        W28020  23.517  16.162  14.480
59680W        W28021  15.135  26.034  12.346
59681W        W28022  25.487   4.908  10.641
59682W        W28023  40.399  16.716   1.820
59683W        W28024  41.873  32.905  14.824
59684W        W28025   6.733  24.510   3.359
59685W        W28026  28.017  25.001  14.835
59686W        W28027  24.062   2.371  12.837
59687W        W28028   2.258  31.913  11.488
59688W        W28029  24.556   4.855   3.763
59689W        W28030   4.838  34.044   4.798
59690W        W28031  41.917   3.438  11.582
59691W        W28032  32.031  31.141   0.741
59692W        W28033   3.345   7.848   3.333
59693W        W28034  34.606  12.636   2.243
59694W        W28035  35.603  10.696   1.372
59695W        W28036  22.089   2.389   0.323
59696W        W28037  31.553  36.558   4.217
59697W        W28038  25.187   3.242  13.796
59698W        W28039  15.638   5.932   2.723
59699W        W28040   7.285  35.931  13.528
59700W        W28041  27.459  43.865   1.925
59701W        W28042  21.252  14.637  13.792
59702W        W28043  20.075  30.632   2.777
59703W        W28044   7.319  25.155   1.264
59704W        W28045  41.412  17.596   0.870
59705W        W28046  17.757  36.492   1.708
59706W        W28047   3.752   7.708  14.775
59707W        W28048  32.971  39.045   0.937
59708W        W28049   2.945  36.984  14.917
59709W        W28050  11.246  12.689   4.640
59710W        W28051  27.177  19.201  12.350
59711W        W28052   9.335  40.920  14.007
59712W        W28053   9.799   0.845   3.844
59713W        W28054  42.430  13.152  10.978
59714W        W28055  28.595  11.817   2.292
59715W        W28056  27.663  31.073   4.326
59716W        W28057  33.127  30.505  13.890
59717W        W28058  10.666  26.513  13.453
59718W        W28059  10.727  18.628   1.319
59719W        W28060  43.969  33.422   1.399
59720W        W28061   2.766   0.393  14.869
59721W        W28062  23.635  32.927   3.347
59722W        W28063  43.956  15.695  10.620
59723W        W28064  10.320  24.143   1.719
59724W        W28065   5.918  23.063  10.439
59725W        W28066  22.736   7.191   4.809
59726W        W28067  24.985  26.663  12.900
59727W        W28068  18.609   4.430   2.734
59728W        W28069  27.545  23.152  11.009
59729W        W28070   7.667  39.335  13.867
59730W        W28071  11.840  14.151   1.880
59731W        W28072  26.179  22.713  10.553
59732W        W28073  12.650  41.314   4.600
59733W        W28074   9.669  14.259   3.288
59734W        W28075   2.284  21.556   1.313
59735W        W28076  43.490  22.619  12.569
59736W        W28077   7.830   2.960  13.955
59737W        W28078  32.957  41.878   3.847
59738W        W28079  18.173   2.905   3.766
59739W        W28080  44.805  39.559   0.370
59740W        W28081  34.033  36.593   2.717
59741W        W28082  30.435  28.098   0.316
59742W        W28083  27.174  25.626   0.891
59743W        W28084  14.775   2.751   4.325
59744W        W28085  16.621  13.606  10.556
59745W        W28086  18.624  18.085   4.267
59746W        W28087  25.188  17.775   0.756
59747W        W28088  12.734  18.565  14.958
59748W        W28089  23.136  28.565  14.830
59749W        W28090  22.223  24.984  12.407
59750W        W28091  17.249   5.717   0.839
59751W        W28092  32.595  25.963   1.888
59752W        W28093  22.118  25.675   0.782
59753W        W28094  32.582  42.393   0.848
59754W        W28095  31.488  16.598   0.302
59755W        W28096  11.851  37.870  11.534
59756W        W28097  38.835   7.795   5.146
59757W        W28098  28.983  44.961  14.871
59758W        W28099  14.330  23.599  10.497
59759W        W28100  41.843  22.229   3.824
59760W        W28101  27.124   9.714   3.294
59761W        W28102  37.075   5.344   3.158
59762W        W28103  10.338  13.209  10.087
59763W        W28104   1.267  16.722   4.121
59764W        W28105  14.224   1.898   2.839
59765W        W28106  24.674   6.775  13.317
59766W        W28107  15.728   0.745  12.003
59767W        W28108   8.193  20.646  10.591
59768W        W28109   2.298  33.543   1.305
59769W        W28110  43.495  30.478  12.922
59770W        W28111  21.254   6.427  10.590
59771W        W28112   3.738  20.595   4.333
59772W        W28113   4.252  43.992   3.292
59773W        W28114  41.398   8.704  13.428
59774W        W28115  44.327  12.661   2.679
59775W        W28116  43.905  16.271   3.342
59776W        W28117   5.360  15.108  13.040
59777W        W28118   2.933  12.176   3.661
59778W        W28119   4.809  44.887   2.776
59779W        W28120  39.883  38.423   2.831
59780W        W28121  34.030   4.230   3.859
59781W        W28122  14.763  34.984   2.392
59782W        W28123  38.408  33.487   1.338
59783W        W28124  30.022  36.885  11.954
59784W        W28125  34.938   7.266   3.631
59785W        W28126  41.998  41.373  12.414
59786W        W28127  27.994  26.038  11.102
59787W        W28128  17.784   6.770  11.992
59788W        W28129  31.902   9.816  12.093
59789W        W28130  41.533  33.553   3.146
59790W        W28131   3.857  19.271  13.326
59791W        W28132  13.637  36.077  13.468
59792W        W28133  31.996  16.184  11.611
59793W        W28134  14.300  43.767  12.932
59794W        W28135  18.714  15.706   0.465
59795W        W28136  14.117  14.770  14.280
59796W        W28137  31.120  11.210  11.459
59797W        W28138  24.569   1.788   0.730
59798W        W28139   0.282   1.801  14.450
59799W        W28140  11.803  42.952   2.899
59800W        W28141  32.477  43.793  13.930
59801W        W28142  30.538  39.460   0.322
59802W        W28143  10.216   0.438  13.538
59803W        W28144  40.879  41.394  13.969
59804W        W28145  35.011  11.642  10.896
59805W        W28146  16.120  37.837  13.395
59806W        W28147  41.015   6.343   2.335
59807W        W28148  15.117  11.344   2.721
59808W        W28149  23.649  34.484   1.722
59809W        W28150  11.828   4.347   4.642
59810W        W28151  44.960  36.468   1.309
59811W        W28152   9.281  35.097  13.951
59812W        W28153  28.986   8.827  10.553
59813W        W28154  35.471   5.699   4.248
59814W        W28155  28.577  12.230  13.442
59815W        W28156   4.398  27.130  10.922
59816W        W28157  34.097   9.349   3.249
59817W        W28158  16.288  40.941  11.061
59818W        W28159  26.981  28.491   0.857
59819W        W28160   3.244  11.131   4.171
59820W        W28161  42.492  43.469  10.430
59821W        W28162  25.198  42.401  12.379
59822W        W28163   4.861   0.791  12.853
59823W        W28164  39.353  31.559   1.342
59824W        W28165  14.759  12.315  14.876
59825W        W28166  26.690  20.609   2.692
59826W        W28167  27.048  41.358  10.900
59827W        W28168  21.194  37.884  13.320
59828W        W28169  30.984  16.679   0.332
59829W        W28170  29.019  24.495  10.893
59830W        W28171  34.376  11.681  14.983
59831W        W28172  30.966  43.384   1.894
59832W        W28173  18.168  29.064   0.469
59833W        W28174  18.222  33.068   0.398
59834W        W28175  28.608  11.130   3.290
59835W        W28176  31.953  13.619   4.707
59836W        W28177   1.351  12.357  11.889
59837W        W28178  35.566  23.094  13.383
59838W        W28179   0.413   4.944  14.929
59839W        W28180  35.938  42.352  14.907
59840W        W28181  11.296   2.785   2.362
59841W        W28182  15.202  12.783   4.287
59842W        W28183  19.697  34.397   4.114
59843W        W28184  39.931  43.457  11.461
59844W        W28185  39.393  34.544  13.931
59845W        W28186  11.166  22.577   3.867
59846W        W28187  17.077  19.136   2.880
59847W        W28188  41.004  26.188   4.131
59848W        W28189  11.322  27.448   3.372
59849W        W28190  33.989  25.537  12.948
59850W        W28191   4.370  29.108   1.412
59851W        W28192  21.061  31.496  13.314
59852W        W28193   6.403  32.046  11.902
59853W        W28194   0.350  11.753   1.302
59854W        W28195   6.188  24.638  14.371
59855W        W28196   7.269  41.988  14.437
59856W        W28197  40.841   2.891   3.722
59857W        W28198  27.944  11.799   1.914
59858W        W28199  29.029  38.836   1.342
59859W        W28200   6.264  16.596  14.780
59860W        W28201   5.221   1.402   3.273
59861W        W28202  42.365  11.751   4.178
59862W        W28203  12.285  13.717  12.824
59863W        W28204  34.049  31.558   0.748
59864W        W28205  39.407  24.979   4.123
59865W        W28206  14.280  35.455  14.006
59866W        W28207   4.373   9.299   3.700
59867W        W28208  42.838   4.211   4.277
59868W        W28209   2.300  25.537   1.255
59869W        W28210  26.681  30.935  12.422
59870W        W28211   9.156  23.724  14.902
59871W        W28212  44.771  34.563  12.079
59872W        W28213  39.843   1.774  12.416
59873W        W28214  32.508   7.381   4.782
59874W        W28215  19.090   6.330  11.585
59875W        W28216  28.457  40.353  13.896
59876W        W28217  36.889   7.872   3.688
59877W        W28218  15.696  39.477   2.281
59878W        W28219  15.619  37.984   0.880
59879W        W28220  41.855  13.111   3.806
59880W        W28221  21.659   2.420   2.797
59881W        W28222  26.144  15.649  14.970
59882W        W28223   9.362  12.181  13.856
59883W        W28224  41.350  19.223  13.881
59884W        W28225  39.499   0.929  12.537
59885W        W28226  14.187   8.300   3.361
59886W        W28227  43.295   4.887   4.791
59887W        W28228  34.074   5.201   3.304
59888W        W28229   5.916  28.650   2.319
59889W        W28230  37.926  40.832   1.435
59890W        W28231   3.241  15.739   5.165
59891W        W28232  39.496  21.136   4.225
59892W        W28233  33.402  42.336  10.599
59893W        W28234  44.331  14.207   4.764
59894W        W28235  32.490  10.329  14.846
59895W        W28236  28.058  19.277  14.846
59896W        W28237   5.707   5.723   0.911
59897W        W28238  39.041  42.348  13.870
59898W        W28239  23.609   0.402   4.354
59899W        W28240   5.427  11.827   4.630
59900W        W28241  11.819  32.947  11.542
59901W        W28242  25.673  12.737  13.342
59902W        W28243  10.840   6.693   4.638
59903W        W28244  37.504  17.750  11.058
59904W        W28245   8.802   6.226  11.012
59905W        W28246   5.194  34.075   1.921
59906W        W28247  27.531  25.175   0.450
59907W        W28248   1.891  10.857  13.793
59908W        W28249  29.472  32.406   4.322
59909W        W28250  11.687  14.155  13.873
59910W        W28251  33.095  30.965  14.969
59911W        W28252  10.834  44.473  11.862
59912W        W28253   3.752  12.727   4.224
59913W        W28254  34.411   9.721  14.352
59914W        W28255  13.747  28.558   4.128
59915W        W28256  32.407  18.568  11.565
59916W        W28257  39.907  13.713   3.712
59917W        W28258   2.320  39.000   3.819
59918W        W28259   1.798  16.206  12.367
59919W        W28260   7.234  29.007  14.317
59920W        W28261  26.551  39.858   4.772
59921W        W28262  37.521  27.593   2.208
59922W        W28263  33.129  18.630   2.303
59923W        W28264  34.416   9.671  10.905
59924W        W28265   2.262   9.271   1.253
59925W        W28266  22.595  18.735   2.731
59926W        W28267  39.918  44.262   0.853
59927W        W28268  26.509  26.123   3.814
59928W        W28269  29.571   7.805   0.731
59929W        W28270  31.526  25.141  13.519
59930W        W28271  26.976  17.752   3.241
59931W        W28272  42.397  44.440  14.803
59932W        W28273   4.377  38.413  11.118
59933W        W28274  38.027   8.296  10.991
59934W        W28275  38.354  24.215  11.111
59935W        W28276   9.756  20.154   3.307
59936W        W28277  21.231  14.590   3.230
59937W        W28278  23.492   4.828  14.380
59938W        W28279  27.460  29.501  11.946
59939W        W28280   1.406  43.955  11.547
59940W        W28281  20.261  42.449   1.735
59941W        W28282  27.187   4.774   2.873
59942W        W28283  14.636  25.075  12.983
59943W        W28284  44.868  20.195   9.565
59944W        W28285   1.261  28.674  11.600
59945W        W28286   9.822  39.346  11.543
59946W        W28287  32.545  32.991  12.075
59947W        W28288  39.063  26.702   3.218
59948W        W28289  17.587  33.018   1.287
59949W        W28290  33.424   6.203  11.580
59950W        W28291  28.549  36.973  12.845
59951W        W28292  20.584  11.716   0.442
59952W        W28293  39.860  13.258  11.508
59953W        W28294  21.028   8.779   1.742
59954W        W28295  29.579  20.203   3.822
59955W        W28296  10.194  28.520   4.718
59956W        W28297   5.809  24.225   2.755
59957W        W28298  38.033  22.644  10.990
59958W        W28299  21.040  34.057  14.368
59959W        W28300  31.489  27.655   1.699
59960W        W28301  14.248  19.110  12.842
59961W        W28302  39.860   9.785   0.770
59962W        W28303   9.299  40.443  14.810
59963W        W28304  43.287  25.650   3.371
59964W        W28305  37.424   1.333  13.825
59965W        W28306  10.188  24.497  11.970
59966W        W28307  27.078  17.105  13.931
59967W        W28308  42.283  41.397  14.334
59968W        W28309  37.582  14.255   0.873
59969W        W28310  38.992   9.333  14.484
59970W        W28311  27.191  34.607   3.857
59971W        W28312  29.435  24.985  10.931
59972W        W28313  40.343  35.034   3.344
59973W        W28314  23.667  25.035  11.032
59974W        W28315  30.490  12.170   4.686
59975W        W28316  39.849  11.178  13.405
59976W        W28317  24.601   1.313   3.655
59977W        W28318  32.041  30.033  12.005
59978W        W28319  17.561  39.988   0.314
59979W        W28320  15.284  39.431   9.954
59980W        W28321  37.018   0.456  14.379
59981W        W28322  29.659  14.705  14.803
59982W        W28323   5.364  21.225  14.310
59983W        W28324  40.377  37.939  10.623
59984W        W28325  44.465   6.265  11.375
59985W        W28326   4.809  28.134  14.411
59986W        W28327   9.664  21.600  10.996
59987W        W28328   4.447  33.939  14.444
59988W        W28329  24.647  41.537  12.087
59989W        W28330  37.562   7.306  12.972
59990W        W28331  29.558  20.187  14.323
59991W        W28332   3.358  41.959   0.735
59992W        W28333  43.765   7.752   0.319
59993W        W28334  21.259   4.873   2.759
59994W        W28335   2.256  27.651  12.343
59995W        W28336  31.598  21.710  13.477
59996W        W28337  25.502  11.169  13.360
59997W        W28338  24.985  35.882   0.360
59998W        W28339  15.610  35.359  11.129
59999W        W28340  40.807  24.686   0.308
60000W        W28341  37.850  17.706  14.813
60001W        W28342  40.849  15.234  12.995
60002W        W28343   4.271   1.396   2.254
60003W        W28344  17.557  22.675   1.246
60004W        W28345   2.751  30.045   0.461
60005W        W28346  11.349  25.072  11.091
60006W        W28347  12.786  41.915  12.346
60007W        W28348   7.234  27.062  14.335
60008W        W28349  24.565  31.431  12.347
60009W        W28350  29.624  10.812   3.226
60010W        W28351  11.732  26.126   1.903
60011W        W28352   8.332  37.503  11.565
60012W        W28353  31.437  15.652   1.717
60013W        W28354  10.267  33.099  10.628
60014W        W28355   2.266  28.058   1.925
60015W        W28356  38.375  41.489   3.654
60016W        W28357  41.893  42.303   5.182
60017W        W28358   4.402  10.380  11.558
60018W        W28359   4.886  27.156   3.285
60019W        W28360  33.590  37.940   0.744
60020W        W28361  17.638  35.953  13.993
60021W        W28362  18.126  18.138   0.801
60022W        W28363  41.832  18.113  14.030
60023W        W28364  39.385   7.709   1.804
60024W        W28365  31.916  38.076   4.762
60025W        W28366  39.440  30.099  11.557
60026W        W28367   9.669   8.297   3.354
60027W        W28368  33.544  31.500   3.363
60028W        W28369   8.185  30.088   0.411
60029W        W28370  26.689  10.848   4.638
60030W        W28371   3.379  30.548   2.772
60031W        W28372  30.101   1.291  14.954
60032W        W28373  27.675  32.434   2.382
60033W        W28374  17.766  37.927   3.294
60034W        W28375  28.581  42.506  13.507
60035W        W28376   1.905  25.991   4.122
60036W        W28377  29.585  41.493   0.761
60037W        W28378  30.625   4.252   2.714
60038W        W28379   9.354  28.507  14.944
60039W        W28380  18.589  19.646   9.964
60040W        W28381  30.559  26.620   2.806
60041W        W28382  20.243   3.222   4.349
60042W        W28383  13.769  40.380  10.608
60043W        W28384  32.465   5.278   4.171
60044W        W28385   6.758  18.676   3.870
60045W        W28386   8.734  20.246   3.674
60046W        W28387  10.846  16.785   0.304
60047W        W28388  13.318  22.071   1.922
60048W        W28389  15.177  33.052   4.169
60049W        W28390   5.222   2.807  13.412
60050W        W28391  23.071  23.604   2.386
60051W        W28392  31.515   5.811  11.094
60052W        W28393   5.923  34.466  12.038
60053W        W28394  10.195  21.567   2.829
60054W        W28395   1.456  31.092  11.064
60055W        W28396  31.571  25.010  12.429
60056W        W28397  39.486  43.298   2.184
60057W        W28398  41.810  21.728   3.291
60058W        W28399  30.486  11.303  10.593
60059W        W28400   8.179   3.458  11.528
60060W        W28401  44.268  33.584   1.358
60061W        W28402  36.363  24.015   0.297
60062W        W28403  17.577  12.809   0.967
60063W        W28404   2.731  24.545   2.337
60064W        W28405  21.078  40.428   4.769
60065W        W28406  23.690   4.908   2.791
60066W        W28407  12.221   8.342   1.898
60067W        W28408  30.131  36.911   4.223
60068W        W28409  25.026  43.430  14.913
60069W        W28410   7.805  28.939   5.125
60070W        W28411  13.138   9.650   3.832
60071W        W28412  27.554  27.005   1.428
60072W        W28413  12.679   9.373   1.820
60073W        W28414  27.023   6.346  13.388
60074W        W28415  20.599   0.306   1.864
60075W        W28416  31.484  44.930  13.041
60076W        W28417  42.453   5.710   0.771
60077W        W28418  16.777   8.361  10.638
60078W        W28419   7.212  41.843   4.600
60079W        W28420  31.974   5.422  12.519
60080W        W28421  13.207  14.821   0.306
60081W        W28422  26.207   2.413  10.622
60082W        W28423  35.415  11.679   2.290
60083W        W28424   9.352  37.075  13.894
60084W        W28425  39.529  13.682  11.038
60085W        W28426  15.099   3.270   3.780
60086W        W28427  12.357  32.525  14.288
60087W        W28428  11.713  11.318   9.995
60088W        W28429   6.213  37.464  14.802
60089W        W28430  13.640  17.190   3.148
60090W        W28431  32.533   0.872  12.892
60091W        W28432  30.911  40.802   2.784
60092W        W28433  22.206   2.283  12.401
60093W        W28434  18.712  23.071  10.930
60094W        W28435  17.064  32.066   1.714
60095W        W28436   2.891  14.169  11.936
60096W        W28437  18.791  44.361  10.615
60097W        W28438   2.272  15.265   2.374
60098W        W28439  23.203  40.849  11.013
60099W        W28440  14.644  11.278  13.422
60100W        W28441  35.966  33.895  12.058
60101W        W28442   6.910   7.188   3.715
60102W        W28443  13.808  31.571  12.961
60103W        W28444  29.635  16.249  13.883
60104W        W28445  41.440  18.598   2.271
60105W        W28446  21.531  44.332  11.433
60106W        W28447  32.103   9.814   3.254
60107W        W28448  20.528  33.455  11.466
60108W        W28449  22.061  35.011   1.703
60109W        W28450  10.741  22.114  14.917
60110W        W28451   2.465  32.886  14.508
60111W        W28452   4.939  11.193  14.431
60112W        W28453  19.768  15.643   0.860
60113W        W28454  14.197  15.634  10.625
60114W        W28455  16.200   9.274   1.845
60115W        W28456   1.898  15.146  14.810
60116W        W28457  15.642  41.342  13.833
60117W        W28458   1.248  18.275  10.462
60118W        W28459  41.323   6.709  14.359
60119W        W28460  39.952   9.782  13.878
60120W        W28461  34.555  20.163  10.965
60121W        W28462  30.545  40.350  12.017
60122W        W28463  21.030  43.995   0.786
60123W        W28464   7.795  20.607   0.816
60124W        W28465  38.057  19.202   0.936
60125W        W28466  36.948  22.138   0.381
60126W        W28467  24.580  27.485   0.896
60127W        W28468   5.888  14.286  11.475
60128W        W28469  34.093  28.013   1.751
60129W        W28470   3.369  16.710  12.960
60130W        W28471  11.859  17.287   0.843
60131W        W28472  16.248   6.723   2.401
60132W        W28473  42.283  24.157   1.868
60133W        W28474   3.307  21.243   1.814
60134W        W28475  11.858  44.807  14.019
60135W        W28476  13.694   6.689   3.847
60136W        W28477  21.211  24.992   1.217
60137W        W28478   8.827  19.252   2.817
60138W        W28479  18.109  41.816  11.108
60139W        W28480  10.138  33.909  14.933
60140W        W28481  15.649  11.754  12.918
60141W        W28482   9.648  29.980  11.044
60142W        W28483  11.198  12.116  13.319
60143W        W28484  42.991   5.392   1.800
60144W        W28485   4.791  37.561   2.384
60145W        W28486  38.856  23.657   0.758
60146W        W28487  14.633   6.740  12.064
60147W        W28488  43.949   2.867  11.102
60148W        W28489   9.726  11.149   5.304
60149W        W28490  24.724   8.270  13.521
60150W        W28491  21.060   0.755   4.767
60151W        W28492   5.389  17.304   3.177
60152W        W28493  14.707  30.547   3.248
60153W        W28494  30.434  34.913   3.344
60154W        W28495  17.082  31.976   3.226
60155W        W28496  44.932  32.390  13.986
60156W        W28497  34.072  43.442  10.925
60157W        W28498   5.357  10.334  12.388
60158W        W28499  10.671  12.747  12.902
60159W        W28500  36.585  20.721   3.283
60160W        W28501  37.952  22.018  14.387
60161W        W28502  25.139  31.928   0.470
60162W        W28503  24.647  32.078  12.856
60163W        W28504  30.470  26.628   4.771
60164W        W28505   8.294  40.376   0.927
60165W        W28506  24.023   5.397   4.144
60166W        W28507  19.063  41.851   4.752
60167W        W28508  21.080  23.612  13.457
60168W        W28509  33.116  18.770  14.462
60169W        W28510  36.520  44.340   4.787
60170W        W28511  12.240   0.321  11.929
60171W        W28512  10.749  17.246  14.969
60172W        W28513  38.453  18.156  10.941
60173W        W28514  31.053  17.071   2.802
60174W        W28515  26.138   6.354   1.282
60175W        W28516   6.194  37.542   1.305
60176W        W28517   4.848  44.332   3.701
60177W        W28518  19.666  28.552  13.883
60178W        W28519  14.625  27.022  11.513
60179W        W28520  44.899  20.154   2.331
60180W        W28521  10.153  20.720  14.473
60181W        W28522  42.963  33.950  13.485
60182W        W28523  22.571  32.952  14.897
60183W        W28524  20.547  33.988  12.885
60184W        W28525  21.725   0.862  10.943
60185W        W28526  32.137  24.598  10.521
60186W        W28527  17.604   4.763  12.342
60187W        W28528   8.230  35.506  14.883
60188W        W28529  21.106  37.401   0.760
60189W        W28530  26.056  25.470  10.968
60190W        W28531  13.308  20.110   3.701
60191W        W28532  28.080  16.628   4.764
60192W        W28533   7.176  44.298  13.333
60193W        W28534  34.454  40.925   5.598
60194W        W28535  40.537  35.091  10.507
60195W        W28536  44.492   6.841   1.787
60196W        W28537  14.721  29.091  14.330
60197W        W28538   8.312   8.670  14.864
60198W        W28539  38.852   8.818   3.221
60199W        W28540  39.905  42.826   1.904
60200W        W28541  10.877  11.812   4.601
60201W        W28542  33.614   4.744  13.051
60202W        W28543  42.843  22.036   2.283
60203W        W28544  37.530  39.036  10.407
60204W        W28545  14.230  33.093  11.104
60205W        W28546  35.407  26.179  12.828
60206W        W28547  44.279  18.125   1.851
60207W        W28548  43.382  30.632   4.670
60208W        W28549  14.254  29.157  12.872
60209W        W28550   2.336  43.389   3.822
60210W        W28551  14.183  39.014  11.493
60211W        W28552  14.679  16.711  13.446
60212W        W28553  33.482  17.161  13.536
60213W        W28554   4.284  44.773   4.820
60214W        W28555  12.838  20.667  13.400
60215W        W28556  36.496   4.415  12.946
60216W        W28557  16.799  25.558   1.769
60217W        W28558  24.714  28.032  13.022
60218W        W28559  38.926  15.146   0.458
60219W        W28560  43.505  28.490   0.440
60220W        W28561  10.854  18.783  12.849
60221W        W28562  34.465  35.042  13.483
60222W        W28563  12.695  43.849   4.254
60223W        W28564  16.231  36.507   1.346
60224W        W28565  40.461  17.110  14.014
60225W        W28566  29.029  11.803   0.941
60226W        W28567  14.176  15.218   0.792
60227W        W28568  43.366   7.308  13.353
60228W        W28569  40.501  40.330  12.564
60229W        W28570  24.072  31.936   5.271
60230W        W28571   4.698  21.700   3.847
60231W        W28572  26.610  14.183  11.905
60232W        W28573  27.051  17.793   0.752
60233W        W28574  42.464  21.061   9.945
60234W        W28575  10.327  19.737   0.438
60235W        W28576   6.330  14.210   1.442
60236W        W28577   8.371  15.286   2.313
60237W        W28578   1.734   9.814   0.390
60238W        W28579  21.257  36.028  10.088
60239W        W28580  34.377   2.745  12.992
60240W        W28581  12.691  12.261  12.991
60241W        W28582  17.622  30.925  11.461
60242W        W28583   7.875  38.946  12.417
60243W        W28584   0.390  21.702  11.479
60244W        W28585  19.263  41.025   1.437
60245W        W28586   9.202  24.085  10.441
60246W        W28587   9.750  28.490  12.871
60247W        W28588  23.091  17.304  13.476
60248W        W28589  42.894  43.808   1.447
60249W        W28590  43.948   1.247  14.297
60250W        W28591   2.931  24.028   4.602
60251W        W28592  21.088   6.897   0.940
60252W        W28593  21.264  25.686  11.070
60253W        W28594  18.555   6.252  11.091
60254W        W28595  35.367   1.779   4.769
60255W        W28596  26.037  34.965  11.377
60256W        W28597   7.332   2.444   1.713
60257W        W28598   1.415  17.636  12.468
60258W        W28599   3.237  17.703   9.967
60259W        W28600  30.009  27.627   0.919
60260W        W28601  36.006  21.024   1.772
60261W        W28602  39.410  15.773   4.753
60262W        W28603   6.917  11.667  12.880
60263W        W28604  20.699  44.781  11.420
60264W        W28605  41.428  14.641  12.455
60265W        W28606  34.063  37.956  12.532
60266W        W28607   8.304  26.111   4.261
60267W        W28608  17.250  26.566  14.005
60268W        W28609   3.339  18.065   1.703
60269W        W28610  35.560  25.024   2.700
60270W        W28611  42.472  14.807  12.485
60271W        W28612  41.397  10.337   4.691
60272W        W28613  26.457  25.602  11.076
60273W        W28614  19.137  22.674  11.884
60274W        W28615   9.211  36.357   4.266
60275W        W28616  31.059   8.280  12.346
60276W        W28617  43.447   8.324  14.407
60277W        W28618  10.875  31.551   4.271
60278W        W28619  43.357  37.372  10.934
60279W        W28620  29.169  15.295   3.786
60280W        W28621  10.774   9.259  14.430
60281W        W28622  19.710  19.109   4.285
60282W        W28623   7.272  32.137  14.290
60283W        W28624  14.120   1.911  11.373
60284W        W28625  44.373  31.922  10.948
60285W        W28626  27.169  12.233   3.674
60286W        W28627  22.118  18.774   0.293
60287W        W28628   4.203   1.463   1.748
60288W        W28629  33.108  41.870   1.759
60289W        W28630  33.883  27.509  12.996
60290W        W28631   7.761  37.472   2.330
60291W        W28632   6.417   9.708   4.203
60292W        W28633  22.576  23.534  13.024
60293W        W28634  33.947   3.309   3.384
60294W        W28635  13.787   1.762   4.206
60295W        W28636  28.622  11.176  12.566
60296W        W28637  20.242  26.128  10.583
60297W        W28638  40.918  30.500   2.842
60298W        W28639  42.470  43.795   3.834
60299W        W28640   8.295  31.451  11.583
60300W        W28641   0.438  24.490   4.220
60301W        W28642  30.926  20.555  10.410
60302W        W28643   7.267  37.384  12.027
60303W        W28644  23.675  13.204   3.215
60304W        W28645   5.196   6.318   3.300
60305W        W28646   9.731  32.427  12.395
60306W        W28647  19.100   3.361  12.864
60307W        W28648   9.265  14.772   2.664
60308W        W28649  23.165  32.141   1.695
60309W        W28650   6.327  32.032  14.311
60310W        W28651  26.603  28.628  11.556
60311W        W28652  18.184   1.451   3.637
60312W        W28653   1.474  25.113   2.878
60313W        W28654  38.048  19.736  12.577
60314W        W28655  30.637  35.994   4.602
60315W        W28656  26.016  22.629  12.463
60316W        W28657   1.853  12.842  13.927
60317W        W28658   1.469  43.981  12.871
60318W        W28659  15.716  44.319  14.765
60319W        W28660   8.238  21.178  14.006
60320W        W28661  43.509  24.157   1.373
60321W        W28662  40.884  31.011  14.327
60322W        W28663   7.754  43.856   0.405
60323W        W28664   8.324  11.148   2.700
60324W        W28665   0.308  37.878  12.478
60325W        W28666  37.041  31.117  12.995
60326W        W28667  41.357  31.504   3.792
60327W        W28668  26.603  44.770  13.791
60328W        W28669  11.849  19.065   3.381
60329W        W28670  28.521  40.375   2.813
60330W        W28671  21.568  30.509   0.805
60331W        W28672   1.917   0.360  10.571
60332W        W28673  32.010  33.604  14.915
60333W        W28674  12.739  16.662  10.548
60334W        W28675   2.312  25.668  10.563
60335W        W28676  14.816  19.079  14.976
60336W        W28677  14.158   9.378  10.608
60337W        W28678  17.128  42.481  13.386
60338W        W28679  15.803  16.780  13.980
60339W        W28680  23.703  39.493   1.427
60340W        W28681  23.647  44.345   2.183
60341W        W28682  19.138  24.977   3.342
60342W        W28683  27.101  34.868  13.518
60343W        W28684   7.718  36.007  13.797
60344W        W28685  19.688  11.837   1.210
60345W        W28686  24.099  43.279  10.425
60346W        W28687  33.512  36.399  11.862
60347W        W28688  10.303  16.642   4.794
60348W        W28689  23.042  31.984   0.439
60349W        W28690   0.894  40.947  14.908
60350W        W28691   4.761   2.901   4.320
60351W        W28692  12.771   6.920  11.996
60352W        W28693  15.311  31.944   2.395
60353W        W28694  43.968  42.968  14.463
60354W        W28695   1.480  42.396  12.984
60355W        W28696  21.118   7.771   0.446
60356W        W28697  35.403  19.228   4.195
60357W        W28698  34.059  26.074  11.879
60358W        W28699  24.709  23.139  11.082
60359W        W28700   3.376   5.369  11.559
60360W        W28701  10.297  22.184   1.904
60361W        W28702  22.665  18.703  11.378
60362W        W28703  36.096  34.495   3.778
60363W        W28704  24.688  36.378  10.920
60364W        W28705  19.618  41.495  13.797
60365W        W28706  17.173   8.179  13.816
60366W        W28707  35.051  41.317   5.124
60367W        W28708   3.875  31.992  14.777
60368W        W28709  39.501  30.604  11.891
60369W        W28710   8.898  27.615  10.918
60370W        W28711   3.741  19.761   5.201
60371W        W28712  12.801  15.132  13.940
60372W        W28713  10.870   3.719  14.940
60373W        W28714  23.083   9.258   4.807
60374W        W28715  19.576  35.080   1.358
60375W        W28716  18.284  26.983   4.652
60376W        W28717  34.907  22.617   3.868
60377W        W28718  22.684   8.834  13.956
60378W        W28719  13.262  23.544  11.422
60379W        W28720  29.547  28.970  12.371
60380W        W28721  30.124  41.919   4.209
60381W        W28722  24.529  26.542  14.961
60382W        W28723  32.058  28.174  14.875
60383W        W28724  35.530  23.650   2.189
60384W        W28725  38.946  24.015   2.727
60385W        W28726  32.433  13.813  14.334
60386W        W28727  25.007  31.989  14.513
60387W        W28728  28.970  17.801   3.685
60388W        W28729  18.768  20.063   2.338
60389W        W28730  26.564  19.061   0.334
60390W        W28731  12.216  30.542   0.258
60391W        W28732  34.897  32.591   2.341
60392W        W28733  10.188  28.602   4.135
60393W        W28734   1.837   3.317  14.391
60394W        W28735  21.062  18.242   4.146
60395W        W28736  14.320  37.447   1.352
60396W        W28737   8.841  44.967   3.785
60397W        W28738   8.400  11.370   4.828
60398W        W28739  15.280  29.004  13.538
60399W        W28740  13.125  34.529   1.888
60400W        W28741  39.064  31.932  11.398
60401W        W28742  12.160   9.163   3.798
60402W        W28743  33.053  26.489   1.281
60403W        W28744   7.674  28.613  14.407
60404W        W28745  27.063  36.514  12.408
60405W        W28746  35.100   3.781  12.844
60406W        W28747  30.445  29.456  13.511
60407W        W28748  36.489  10.788   2.886
60408W        W28749  12.238  30.436  13.884
60409W        W28750  22.197  11.363  11.556
60410W        W28751   3.365  36.392  13.447
60411W        W28752  21.638   0.840  12.934
60412W        W28753  17.579   6.884   2.796
60413W        W28754  20.146  20.224  14.801
60414W        W28755  42.290   0.878  13.431
60415W        W28756  31.586  44.849  12.480
60416W        W28757  32.563  39.410  10.495
60417W        W28758  26.604  18.177   4.308
60418W        W28759  41.982   0.379   4.801
60419W        W28760  14.603  26.501  12.829
60420W        W28761   7.719  12.630  12.018
60421W        W28762  27.692  20.560  13.791
60422W        W28763  14.113  24.719   2.730
60423W        W28764  11.348  17.746   1.246
60424W        W28765  23.696   0.420  14.020
60425W        W28766  18.755  35.944   3.255
60426W        W28767   8.685  25.135   4.264
60427W        W28768  28.092  42.338   3.660
60428W        W28769  22.613  33.529  13.453
60429W        W28770  20.634  20.128   2.742
60430W        W28771  33.011  38.916  13.047
60431W        W28772   7.778  24.998  11.037
60432W        W28773  39.365  40.835   1.409
60433W        W28774  34.040  24.065   4.269
60434W        W28775  21.582   4.920   2.866
60435W        W28776  19.681   8.385   2.279
60436W        W28777  16.141   1.827   4.133
60437W        W28778  29.118   6.825  10.961
60438W        W28779  40.476  35.954  12.427
60439W        W28780  20.181  24.200  13.396
60440W        W28781  44.792   7.298  13.528
60441W        W28782  15.223  39.836  12.975
60442W        W28783  39.066  23.237  10.587
60443W        W28784  18.240   1.787   0.734
60444W        W28785  33.108  30.984  11.607
60445W        W28786  44.832   1.922   0.280
60446W        W28787   6.356  36.985  10.511
60447W        W28788  23.625  27.991   0.394
60448W        W28789  32.403  10.379   2.350
60449W        W28790  35.090  18.644  11.928
60450W        W28791  29.987  41.427   3.813
60451W        W28792  19.092  17.114   0.316
60452W        W28793  16.694   3.754   1.706
60453W        W28794  34.953  20.641  12.493
60454W        W28795  32.414  42.392  14.009
60455W        W28796  28.459  27.038  10.535
60456W        W28797  19.068  31.597  11.451
60457W        W28798  34.507  38.333   0.940
60458W        W28799  12.612  30.102  11.462
60459W        W28800  19.051  21.560   0.832
60460W        W28801  25.572  25.135   1.375
60461W        W28802   3.835   3.254   0.398
60462W        W28803  32.413  16.773  12.552
60463W        W28804  38.897  19.051   3.804
60464W        W28805   5.724  37.864   2.851
60465W        W28806  25.050  43.859   1.374
60466W        W28807  22.250  42.788  14.828
60467W        W28808   2.278  39.346  13.467
60468W        W28809  22.737  14.806  14.345
60469W        W28810   7.245   8.760  14.799
60470W        W28811  26.499  34.538   4.323
60471W        W28812  37.541   5.295  14.278
60472W        W28813  36.976   8.312   4.246
60473W        W28814   9.163  25.688  14.319
60474W        W28815   0.779  19.128  14.953
60475W        W28816   6.689  43.821  11.580
60476W        W28817  35.543  34.985  14.410
60477W        W28818  25.477  36.025  11.554
60478W        W28819  36.996  20.704  10.545
60479W        W28820   0.912   2.882   1.931
60480W        W28821   4.899  19.251   0.459
60481W        W28822  24.074   5.807  12.076
60482W        W28823  31.428  24.079   1.898
60483W        W28824  40.034  24.042   3.674
60484W        W28825   1.284  28.149  14.360
60485W        W28826  38.571  44.804  10.615
60486W        W28827   0.826  10.180  14.958
60487W        W28828  31.122  12.786   2.773
60488W        W28829  42.009  34.974  12.533
60489W        W28830  26.664   9.756  14.912
60490W        W28831  18.568  36.936   0.450
60491W        W28832  18.268  14.191  13.906
60492W        W28833  31.137  41.990   5.199
60493W        W28834  19.679  41.902   2.282
60494W        W28835  14.622  10.833  14.489
60495W        W28836  31.476  15.096  14.349
60496W        W28837   8.695  12.359  13.335
60497W        W28838  17.744  33.026   4.353
60498W        W28839  24.718   6.729  11.523
60499W        W28840  27.005  29.598  12.398
60500W        W28841  17.282  21.029   9.996
60501W        W28842  43.344  40.823   4.665
60502W        W28843  17.599  21.212  12.363
60503W        W28844   1.777  18.080  14.947
60504W        W28845  27.636  40.964  12.938
60505W        W28846   2.793  11.815   1.431
60506W        W28847  41.302  11.198   4.323
60507W        W28848  34.117  35.546   0.945
60508W        W28849   7.363   6.854   0.861
60509W        W28850  32.576  13.128  10.408
60510W        W28851  21.660   0.359   1.716
60511W        W28852  17.559  31.051  14.369
60512W        W28853  41.302  42.865   5.131
60513W        W28854  43.317  31.424   2.332
60514W        W28855  42.458  27.690  11.589
60515W        W28856  30.487   9.252  13.479
60516W        W28857  20.129  25.102   1.325
60517W        W28858  35.992  15.734   4.672
60518W        W28859   4.245  39.361   0.481
60519W        W28860  32.619   0.448   0.825
60520W        W28861  44.775  19.629  13.822
60521W        W28862  15.621  37.884   0.404
60522W        W28863  36.060  37.562  14.384
60523W        W28864  23.057  18.241   3.804
60524W        W28865  20.178  37.565  11.474
60525W        W28866   1.781  20.603   3.342
60526W        W28867  35.928  25.699  13.826
60527W        W28868  27.013  29.995  13.055
60528W        W28869  11.627   4.851   2.890
60529W        W28870  15.203  35.560  14.348
60530W        W28871  14.156  41.851   2.681
60531W        W28872  13.212   7.723  10.963
60532W        W28873   8.203  36.375  11.494
60533W        W28874  25.000  38.557   0.792
60534W        W28875   3.311  15.305  12.506
60535W        W28876   1.872  31.953  10.411
60536W        W28877  27.687  25.094  13.326
60537W        W28878   5.428  44.827   3.149
60538W        W28879  33.996  18.207   3.867
60539W        W28880  30.093  27.990  10.599
60540W        W28881  36.095  25.065  13.912
60541W        W28882  37.894  33.561  11.541
60542W        W28883   9.697  37.941   0.833
60543W        W28884  39.346   6.713  12.365
60544W        W28885  35.000   1.797   0.261
60545W        W28886  39.913   5.391   0.813
60546W        W28887   5.831  44.448   4.353
60547W        W28888  38.514  31.943  12.989
60548W        W28889  14.122   9.161  13.936
60549W        W28890  43.853  14.295   3.287
60550W        W28891  11.772  13.629  10.962
60551W        W28892  36.060  40.843  13.455
60552W        W28893  12.624   2.341   3.752
60553W        W28894  29.476   0.985  12.837
60554W        W28895  25.010  40.874  12.940
60555W        W28896  37.373  23.009  14.991
60556W        W28897  25.506  32.409   1.242
60557W        W28898  34.575  42.874   1.342
60558W        W28899  38.413  25.473  11.552
60559W        W28900   3.315  39.399   2.356
60560W        W28901   7.288  33.976   0.385
60561W        W28902  28.604  28.614  11.494
60562W        W28903  10.763  12.256  11.953
60563W        W28904  10.852  24.717   2.239
60564W        W28905  43.970  31.023  13.363
60565W        W28906  19.550  17.239  10.528
60566W        W28907   2.723  16.185   4.803
60567W        W28908  19.138  30.030   0.931
60568W        W28909   9.876  22.045  12.355
60569W        W28910  19.201  13.690   1.854
60570W        W28911  28.495  29.923   3.642
60571W        W28912  10.851  27.553   0.301
60572W        W28913  29.978   9.313   4.718
60573W        W28914  36.970  25.156  13.891
60574W        W28915  30.602  34.972  11.531
60575W        W28916  28.621   4.848   4.668
60576W        W28917  17.683  32.069   1.432
60577W        W28918   3.917   8.378   0.954
60578W        W28919  19.091  21.557  11.944
60579W        W28920   2.895  17.156   2.862
60580W        W28921  28.446  39.039  14.367
60581W        W28922   9.780  22.722   4.723
60582W        W28923   8.800  24.043   1.226
60583W        W28924   9.783  15.179   2.899
60584W        W28925  19.615   4.411   0.313
60585W        W28926   6.835  33.538  10.915
60586W        W28927  21.616  34.460  11.116
60587W        W28928  23.065  10.829   1.319
60588W        W28929  37.065   8.818  13.058
60589W        W28930  10.230  21.236   1.415
60590W        W28931   8.368  25.034   3.372
60591W        W28932  33.415  36.402   3.656
60592W        W28933   7.417  15.641  11.412
60593W        W28934  32.927   1.792   3.635
60594W        W28935  41.495  29.494   3.699
60595W        W28936   3.898  11.163  11.573
60596W        W28937  11.174  13.636   2.309
60597W        W28938  28.064   8.758   0.387
60598W        W28939  37.418  16.631  11.437
60599W        W28940  23.664   5.709  13.044
60600W        W28941   7.400   4.820   5.116
60601W        W28942  14.317   1.800   2.268
60602W        W28943  21.090  15.122  13.973
60603W        W28944   5.282  26.618   0.405
60604W        W28945  21.177   6.183   3.308
60605W        W28946  37.080  28.479   4.248
60606W        W28947   8.170  43.916   3.292
60607W        W28948   9.323   0.287   1.256
60608W        W28949   9.854   4.926  13.464
60609W        W28950   1.758  43.356  11.547
60610W        W28951  13.340  15.241   0.440
60611W        W28952  33.606  43.845   1.861
60612W        W28953   3.295  30.025   0.726
60613W        W28954  34.905  35.442  11.434
60614W        W28955  31.020  11.692  10.431
60615W        W28956  37.978  26.189   0.447
60616W        W28957  33.919  17.228   0.281
60617W        W28958  42.886   3.305   3.242
60618W        W28959  28.182   9.164   2.339
60619W        W28960  20.696  35.592  11.387
60620W        W28961   3.324   3.394  14.473
60621W        W28962   2.889   5.410   4.640
60622W        W28963  44.275  14.274  10.564
60623W        W28964  28.599   0.839   0.254
60624W        W28965  35.940  41.371   3.239
60625W        W28966  43.396   9.730   1.758
60626W        W28967   8.842  30.961   0.397
60627W        W28968  16.632  34.476   4.702
60628W        W28969  35.572   3.314   0.251
60629W        W28970  33.013  16.613  12.528
60630W        W28971  33.471  11.178  11.914
60631W        W28972  27.104   6.797  14.434
60632W        W28973  43.374  22.674  12.859
60633W        W28974  25.998  34.112  12.437
60634W        W28975  22.745  21.107   5.215
60635W        W28976  22.571  10.359  12.908
60636W        W28977   5.426  36.988  13.000
60637W        W28978  35.035   0.838  12.351
60638W        W28979  25.106  44.423   3.228
60639W        W28980   8.879   9.644  14.281
60640W        W28981  41.306  29.041  11.935
60641W        W28982  14.701  14.197  13.334
60642W        W28983  11.199  11.195  13.897
60643W        W28984  17.793   7.733   1.878
60644W        W28985  20.643  38.924  10.405
60645W        W28986  31.939  39.541   2.236
60646W        W28987   2.384  22.670  14.902
60647W        W28988  41.839  14.305   5.287
60648W        W28989  33.907  41.043   5.210
60649W        W28990  37.389  32.552  13.847
60650W        W28991   1.467   0.382   0.474
60651W        W28992  26.189  34.384   3.707
60652W        W28993   6.343  22.038  11.925
60653W        W28994  17.143  13.323   0.383
60654W        W28995  23.990  26.115   0.469
60655W        W28996  28.065  41.457  12.002
60656W        W28997  14.756  12.178   0.327
60657W        W28998  20.769  24.545  14.314
60658W        W28999  20.583  28.117  12.842
60659W        W29000  38.981  23.153   1.889
60660W        W29001  14.651  22.073   3.855
60661W        W29002  42.000  20.196   3.314
60662W        W29003  32.624  44.816   4.134
60663W        W29004   1.437   0.305  12.470
60664W        W29005  16.705  17.300   2.762
60665W        W29006  14.175  11.715  14.917
60666W        W29007  44.440  11.863  14.828
60667W        W29008  22.715  23.161   4.113
60668W        W29009  26.626  15.289  14.013
60669W        W29010  15.650  38.452   2.357
60670W        W29011   8.242   7.687   0.876
60671W        W29012  31.609  40.050   2.726
60672W        W29013  23.997  25.114  12.863
60673W        W29014  39.868   4.730  11.957
60674W        W29015  40.005   6.906  11.027
60675W        W29016  12.672  27.571   3.867
60676W        W29017   6.806  32.519  12.483
60677W        W29018  22.544  11.275   2.833
60678W        W29019  10.375  32.600  14.833
60679W        W29020  33.934  29.447   3.360
60680W        W29021  28.978  37.442   0.460
60681W        W29022  13.152  35.502  10.906
60682W        W29023   5.881   9.172   4.829
60683W        W29024   5.815  40.992   2.685
60684W        W29025  18.085   3.797  11.518
60685W        W29026  30.011  35.928  14.426
60686W        W29027  34.610  32.912  10.923
60687W        W29028  29.436  27.128  14.328
60688W        W29029  23.044  33.097   2.362
60689W        W29030  37.992  35.011   1.721
60690W        W29031  18.160  11.319  10.484
60691W        W29032  26.205   8.310   0.450
60692W        W29033  19.209   2.425  13.825
60693W        W29034  27.158  24.682   3.721
60694W        W29035  32.039  38.979  11.474
60695W        W29036  41.414  38.465  12.013
60696W        W29037  32.605  41.322  14.844
60697W        W29038  42.966  28.506   2.313
60698W        W29039   7.732  30.128  11.605
60699W        W29040  37.936  24.090  10.535
60700W        W29041  41.348  35.496  12.498
60701W        W29042  10.660  44.798   3.845
60702W        W29043  21.612  25.653   4.784
60703W        W29044   5.346  40.931  11.080
60704W        W29045  22.094  31.114  11.443
60705W        W29046  33.593  22.746   1.704
60706W        W29047  26.507  26.653  12.576
60707W        W29048  19.076  25.556  14.351
60708W        W29049  43.355  33.007  14.778
60709W        W29050  43.001  24.229  14.027
60710W        W29051  18.119   7.286  13.365
60711W        W29052  18.223  15.225  11.079
60712W        W29053  43.900  37.341   3.189
60713W        W29054   1.828   0.420   3.661
60714W        W29055  42.848  20.640   0.891
60715W        W29056  25.016  22.649   0.939
60716W        W29057   6.742   2.741  10.972
60717W        W29058  29.937  19.748   0.915
60718W        W29059   1.282   1.929  13.367
60719W        W29060  20.738  34.609  14.338
60720W        W29061   1.450  17.697  14.403
60721W        W29062  36.880  25.117  11.864
60722W        W29063  30.947  21.045   4.153
60723W        W29064  10.293  30.487  11.591
60724W        W29065   3.224  35.602   4.123
60725W        W29066  22.525   0.765  10.983
60726W        W29067   5.206  34.889  14.993
60727W        W29068  44.888  23.529   1.928
60728W        W29069  38.012  21.121  11.600
60729W        W29070   8.822  11.220  10.636
60730W        W29071  33.499  30.082   3.866
60731W        W29072  43.505   8.307   1.408
60732W        W29073  14.216  17.155   2.278
60733W        W29074  43.356  24.115   0.839
60734W        W29075  44.329  39.351   4.140
60735W        W29076  20.220   4.887   4.311
60736W        W29077  37.087   2.870   0.730
60737W        W29078   8.812  10.356   2.309
60738W        W29079  23.501  37.842  13.993
60739W        W29080  37.017  16.168  11.058
60740W        W29081  16.079   3.805   4.230
60741W        W29082   8.310  44.343  12.903
60742W        W29083   1.849   3.793   4.630
60743W        W29084  37.424   3.755  11.568
60744W        W29085  13.608  29.441   1.933
60745W        W29086  41.292  35.598   3.257
60746W        W29087   8.341  37.017  12.882
60747W        W29088  23.213  38.347   4.801
60748W        W29089  28.488   0.772   1.306
60749W        W29090  13.606  27.969  13.063
60750W        W29091   7.805   1.472   3.359
60751W        W29092  30.038   5.725   4.121
60752W        W29093  23.699  11.715  10.976
60753W        W29094  15.318  19.554  13.912
60754W        W29095   4.745  37.561  10.477
60755W        W29096  30.528  44.429   4.656
60756W        W29097  16.738  39.964   2.883
60757W        W29098  12.853  20.568  10.514
60758W        W29099  20.222  22.178  14.420
60759W        W29100  35.912  33.991   4.115
60760W        W29101   6.794  44.990   4.321
60761W        W29102  44.925  21.659  11.576
60762W        W29103  20.052  34.009   0.777
60763W        W29104   7.736  13.166   2.714
60764W        W29105  17.694   4.314  11.084
60765W        W29106   2.842  25.076   1.696
60766W        W29107  14.294  26.048   4.817
60767W        W29108  31.918  43.893  11.065
60768W        W29109   5.326  15.230   1.865
60769W        W29110  20.166   9.152  12.433
60770W        W29111  16.606  13.127  12.923
60771W        W29112  33.946  34.969   0.867
60772W        W29113  25.506  22.096   4.824
60773W        W29114  37.832   8.241   1.874
60774W        W29115  43.273  27.518  12.378
60775W        W29116  28.952  23.053   0.387
60776W        W29117   6.218  43.803  10.594
60777W        W29118   8.879   7.884   4.742
60778W        W29119  28.045  15.146   3.171
60779W        W29120  39.403  23.667  10.897
60780W        W29121  42.426   6.233  14.505
60781W        W29122  11.158   1.472   3.387
60782W        W29123  22.583  33.522  13.869
60783W        W29124  27.682  22.202  14.325
60784W        W29125  33.540  19.710  10.082
60785W        W29126  38.025  14.152  14.915
60786W        W29127  40.511   8.750   1.759
60787W        W29128  40.914  13.608   0.858
60788W        W29129  33.985  26.567   0.465
60789W        W29130  26.016  17.178   9.654
60790W        W29131  31.634  28.034  12.074
60791W        W29132   5.290  16.272  11.529
60792W        W29133  35.973  40.980  14.354
60793W        W29134   0.952  21.673  12.532
60794W        W29135  40.815  29.668   3.756
60795W        W29136  29.956  38.534   1.217
60796W        W29137  19.225  39.380  13.876
60797W        W29138  30.486  22.523   1.927
60798W        W29139  18.071  36.525  11.054
60799W        W29140  18.749  12.664   0.811
60800W        W29141  10.357  27.618  11.115
60801W        W29142  26.990  24.541  11.570
60802W        W29143  43.874  18.218   5.594
60803W        W29144  21.149  40.495  14.778
60804W        W29145  22.204  38.334   0.901
60805W        W29146   6.183  23.521   2.260
60806W        W29147  43.437  25.671  13.896
60807W        W29148  31.138  38.074   2.763
60808W        W29149  13.793  22.166  10.484
60809W        W29150   3.780  35.997  12.086
60810W        W29151   2.323  30.054  13.057
60811W        W29152  19.051   8.778  12.489
60812W        W29153  35.068  13.717   2.312
60813W        W29154  41.456  38.995  11.968
60814W        W29155  18.615   8.784   5.216
60815W        W29156  12.222  32.616  13.961
60816W        W29157   6.325  44.453   0.906
60817W        W29158   8.241  26.597   3.827
60818W        W29159  31.497  22.040   0.850
60819W        W29160  34.085  24.211   3.317
60820W        W29161  38.382  26.155  13.375
60821W        W29162  26.055  43.797   2.784
60822W        W29163   7.680   4.244  13.889
60823W        W29164  36.557   6.218  13.444
60824W        W29165  41.519  19.232  10.999
60825W        W29166  35.934   0.479  14.022
60826W        W29167  14.325  30.102  14.945
60827W        W29168  40.866  23.667   2.178
60828W        W29169  28.123  33.117   1.373
60829W        W29170  32.559  30.007  10.891
60830W        W29171  25.199  26.148   4.661
60831W        W29172   9.720  15.103  11.574
60832W        W29173  33.000   1.935  13.478
60833W        W29174  38.863  30.495   1.413
60834W        W29175  12.332   2.401   1.242
60835W        W29176  27.494   4.410  13.815
60836W        W29177  42.326   0.750   1.860
60837W        W29178  13.121  34.390  13.509
60838W        W29179  43.942   3.904  11.452
60839W        W29180  23.645  20.675   1.306
60840W        W29181  37.001  10.697   0.809
60841W        W29182  37.530   4.270   0.437
60842W        W29183  43.440  27.530   0.262
60843W        W29184  12.261  29.976  12.934
60844W        W29185  35.086  37.449   5.230
60845W        W29186  42.396   7.713  14.876
60846W        W29187  17.283  14.593   2.692
60847W        W29188  19.248  11.337   2.196
60848W        W29189  14.119  22.618   4.195
60849W        W29190  42.296  40.383  12.363
60850W        W29191   4.782  17.681  13.309
60851W        W29192  15.136  40.374  14.970
60852W        W29193  17.072  36.909  12.990
60853W        W29194   6.691  14.192  10.913
60854W        W29195  33.384   0.265   1.697
60855W        W29196  43.399  14.754  11.048
60856W        W29197  12.843  12.210  13.880
60857W        W29198  44.443  40.999  12.858
60858W        W29199  35.080  42.453  12.370
60859W        W29200  13.752  14.274   1.360
60860W        W29201  10.153  42.871   4.314
60861W        W29202   0.961   2.425  14.481
60862W        W29203  22.211  36.510  12.481
60863W        W29204  39.538  18.169  12.080
60864W        W29205  16.239  34.910   1.213
60865W        W29206  38.570  43.456   5.084
60866W        W29207  31.462   3.452   4.763
60867W        W29208   6.294   6.800   2.829
60868W        W29209   3.432  23.151   1.430
60869W        W29210   9.825  22.698   3.374
60870W        W29211  19.079  29.986   4.352
60871W        W29212   3.394   9.200   3.151
60872W        W29213  11.138  40.010   2.883
60873W        W29214   2.370  33.396  12.362
60874W        W29215  33.055  22.522   0.303
60875W        W29216   6.864  18.686   2.415
60876W        W29217  25.486  37.458   1.854
60877W        W29218   5.366  28.098  14.327
60878W        W29219  21.103   7.899   3.675
60879W        W29220  17.196  11.819  11.107
60880W        W29221  19.760   1.941  10.454
60881W        W29222  17.245  19.578  10.068
60882W        W29223  25.022  25.648  13.941
60883W        W29224  24.033  19.097  10.624
60884W        W29225  31.960   7.852   3.274
60885W        W29226  27.987  32.055  10.457
60886W        W29227  26.974   6.914  10.473
60887W        W29228   9.693  34.029  11.529
60888W        W29229   1.832  29.624  14.850
60889W        W29230  34.984  15.298   0.439
60890W        W29231  14.291  20.147   0.246
60891W        W29232  42.941  11.789   1.385
60892W        W29233  28.616   9.711   1.271
60893W        W29234  23.133  41.011  13.395
60894W        W29235  19.677  41.352   1.863
60895W        W29236  44.957  20.562  12.358
60896W        W29237   6.776  30.066   3.381
60897W        W29238  28.435  15.792   4.741
60898W        W29239  27.653   2.421   4.240
60899W        W29240  13.224  42.903  11.496
60900W        W29241  39.960  33.620   3.827
60901W        W29242  16.146  29.659   0.411
60902W        W29243  17.210  20.030   0.953
60903W        W29244  31.411  41.415  11.429
60904W        W29245   0.905   5.438  14.825
60905W        W29246   2.397  30.040   0.799
60906W        W29247   7.351  37.853  11.091
60907W        W29248  36.850  28.550   2.866
60908W        W29249  12.630  15.688   3.168
60909W        W29250  43.308  37.948  15.000
60910W        W29251   1.334  33.535   4.759
60911W        W29252   1.408   9.367  10.502
60912W        W29253  40.332  25.619   3.798
60913W        W29254  13.633  41.405   0.468
60914W        W29255   4.821  22.526  11.606
60915W        W29256  38.360  16.080  11.006
60916W        W29257  21.631  28.982  10.599
60917W        W29258  28.068  37.358   3.690
60918W        W29259  38.838  25.190   4.800
60919W        W29260   0.848  21.166   0.470
60920W        W29261  42.291  28.662   2.900
60921W        W29262   5.205  44.485   4.741
60922W        W29263  43.467  36.479   3.780
60923W        W29264  39.338  26.052   1.826
60924W        W29265  20.243   7.808   2.669
60925W        W29266  42.950  28.634   0.364
60926W        W29267  44.441  36.414  11.477
60927W        W29268  25.127  26.063   0.453
60928W        W29269  15.657  30.051   4.672
60929W        W29270  38.854  18.672   0.834
60930W        W29271  23.231  22.631  12.842
60931W        W29272  38.479   8.296  11.384
60932W        W29273  43.886  36.529   2.687
60933W        W29274  33.875  41.959  13.827
60934W        W29275  39.955  22.684  12.837
60935W        W29276   4.267  33.491   2.419
60936W        W29277  30.499  35.972  10.584
60937W        W29278  42.984  37.034  11.935
60938W        W29279  37.890  28.183  10.043
60939W        W29280  42.912   9.282  14.489
60940W        W29281   6.398  20.715   2.857
60941W        W29282  15.143  10.167   1.906
60942W        W29283  12.794   9.818   0.964
60943W        W29284  18.183  27.479   3.733
60944W        W29285   2.768  35.894   4.264
60945W        W29286  15.742  28.045   3.644
60946W        W29287  12.750   1.757   3.344
60947W        W29288   9.885  16.267   0.281
60948W        W29289  32.446   3.218  13.896
60949W        W29290   3.923  29.668   0.756
60950W        W29291   9.163   7.667   1.362
60951W        W29292  25.119  29.172  12.979
60952W        W29293  14.802  40.012   3.333
60953W        W29294  42.800  10.352  14.839
60954W        W29295   1.841   6.897   3.157
60955W        W29296  36.851   2.939  14.389
60956W        W29297  24.227  30.931   0.921
60957W        W29298  44.999  26.688  10.590
60958W        W29299  17.728  29.945   2.762
60959W        W29300   5.422   5.309   4.339
60960W        W29301  43.274   5.228  13.441
60961W        W29302  14.759  33.614   9.604
60962W        W29303   3.398  26.178   0.319
60963W        W29304  23.710  24.584   0.345
60964W        W29305  10.344  27.636   2.401
60965W        W29306  37.442  32.982  11.048
60966W        W29307   0.380  12.128   4.220
60967W        W29308  10.276  10.755  11.418
60968W        W29309  39.932  43.947  10.442
60969W        W29310  38.505  20.565   0.966
60970W        W29311  22.139  35.976  12.919
60971W        W29312  20.744  42.967   1.448
60972W        W29313  25.136   9.167   0.273
60973W        W29314   4.795   3.727  14.810
60974W        W29315  40.383  21.048   3.865
60975W        W29316  19.693   7.174   0.394
60976W        W29317  19.757  33.063   0.465
60977W        W29318  32.422  28.452  14.022
60978W        W29319  27.498   9.890  10.508
60979W        W29320  25.674  13.808   3.278
60980W        W29321  12.695  29.040   0.258
60981W        W29322  11.168   3.319   3.761
60982W        W29323  13.658   9.698   2.236
60983W        W29324  26.038  43.276   2.377
60984W        W29325  12.690  42.328   3.785
60985W        W29326  34.901  28.645  13.985
60986W        W29327  21.040  12.129   1.814
60987W        W29328  36.918  43.355  11.914
60988W        W29329  26.541  14.212  11.474
60989W        W29330  18.194  10.301   2.372
60990W        W29331  23.098  38.571   4.230
60991W        W29332  15.633  11.341  13.380
60992W        W29333  27.574  40.370  14.503
60993W        W29334  34.041  15.600  10.112
60994W        W29335  32.507   8.236   2.303
60995W        W29336  27.105  33.510  11.017
60996W        W29337  18.671  19.736  10.610
60997W        W29338  19.088  19.552   3.179
60998W        W29339  44.944   2.243  13.825
60999W        W29340   0.979   6.394  11.921
61000W        W29341  32.523   5.347   2.193
61001W        W29342   6.868  28.554  10.507
61002W        W29343  18.578  35.568  13.906
61003W        W29344   1.948  18.639  11.006
61004W        W29345  22.126  37.845  14.818
61005W        W29346  29.486  28.107   4.744
61006W        W29347  13.803  36.416  12.982
61007W        W29348   2.770  14.220   2.407
61008W        W29349   8.662  24.083  11.458
61009W        W29350  10.645  37.864  11.008
61010W        W29351  10.367   8.768  12.888
61011W        W29352  11.806  37.385   0.415
61012W        W29353  38.333   9.269  10.451
61013W        W29354  36.846   1.816  11.892
61014W        W29355   0.314  24.573  10.937
61015W        W29356  26.071  25.043   3.277
61016W        W29357   6.294  18.693   0.427
61017W        W29358  36.887   6.305  14.383
61018W        W29359   1.438  29.667   2.318
61019W        W29360  42.328  32.515  13.844
61020W        W29361  14.784  16.795  12.858
61021W        W29362  40.968  35.959  14.860
61022W        W29363  31.473  21.036   4.711
61023W        W29364  17.673  28.605  13.936
61024W        W29365  41.331   3.870   2.700
61025W        W29366  10.818  33.429   3.236
61026W        W29367   8.844  16.231  13.857
61027W        W29368  22.715  23.217  10.437
61028W        W29369  28.486  39.380   3.870
61029W        W29370   3.807  19.282  12.362
61030W        W29371  34.925  32.565  12.488
61031W        W29372   0.436  42.975   4.198
61032W        W29373  43.490  35.046  13.377
61033W        W29374  33.091   2.887  13.466
61034W        W29375   1.307  43.471  10.506
61035W        W29376  40.864  20.661  13.836
61036W        W29377  16.274   9.685  13.907
61037W        W29378   1.292  20.047   3.265
61038W        W29379  21.730  35.885   2.370
61039W        W29380  34.405  34.032  13.396
61040W        W29381   4.278  14.688  12.950
61041W        W29382   4.861   7.194   3.216
61042W        W29383  32.508  19.095   1.331
61043W        W29384   2.792   3.939  12.905
61044W        W29385  16.191  21.748  13.022
61045W        W29386   9.224  13.217   4.636
61046W        W29387  13.612  26.638   4.279
61047W        W29388  22.138  20.237  11.026
61048W        W29389  26.961  37.025   1.322
61049W        W29390  12.857  37.898   3.168
61050W        W29391  22.668   2.815  13.494
61051W        W29392  17.735  31.496  11.514
61052W        W29393  34.916  36.417   3.316
61053W        W29394   8.275  41.807  14.767
61054W        W29395   4.936   1.769   4.293
61055W        W29396  23.658  26.628   4.767
61056W        W29397  26.475  14.637  13.001
61057W        W29398   3.246  30.103  13.492
61058W        W29399  44.952  21.055   9.939
61059W        W29400   6.761  16.309  10.890
61060W        W29401  33.947  22.664  14.971
61061W        W29402  28.096  21.163  10.549
61062W        W29403  32.466   4.359  13.366
61063W        W29404  25.609  33.077   1.357
61064W        W29405   0.834  28.595  11.067
61065W        W29406  31.897  24.113   2.826
61066W        W29407  30.547  40.037   4.633
61067W        W29408  20.156  40.457  14.380
61068W        W29409  12.787  16.800   3.299
61069W        W29410   3.727  25.692  13.012
61070W        W29411  43.897  33.879  10.637
61071W        W29412  11.858  39.473   1.801
61072W        W29413  31.014  19.591   3.221
61073W        W29414  20.144   7.407  10.563
61074W        W29415   0.882  40.914  10.549
61075W        W29416  17.073  40.451   5.242
61076W        W29417   1.286   4.805   4.791
61077W        W29418  27.061  27.581  13.006
61078W        W29419  25.135  22.247   2.774
61079W        W29420   8.237  38.401  11.860
61080W        W29421  15.606   1.268   2.251
61081W        W29422  44.263  39.947   4.219
61082W        W29423  13.829  35.882   4.838
61083W        W29424  21.128  42.320   0.913
61084W        W29425  17.267  31.566  10.999
61085W        W29426  40.797  22.102  13.912
61086W        W29427  12.851  31.925   1.925
61087W        W29428  30.960  16.270   2.830
61088W        W29429  35.008  24.042  13.033
61089W        W29430   0.893   6.852  13.928
61090W        W29431  20.040   4.724  12.010
61091W        W29432  22.202  14.714  13.897
61092W        W29433  12.762   7.247   4.711
61093W        W29434  22.082  22.096   4.284
61094W        W29435  27.144   5.859   1.840
61095W        W29436  41.505  40.374  14.861
61096W        W29437  29.501   4.904  13.541
61097W        W29438   7.274  34.084  12.855
61098W        W29439  21.741  35.054  11.906
61099W        W29440  22.521   1.910  14.367
61100W        W29441  25.109  12.759  13.460
61101W        W29442  34.036  43.467  10.568
61102W        W29443  32.947   3.844   1.318
61103W        W29444  43.815  22.551  12.529
61104W        W29445  40.876  23.587  14.426
61105W        W29446  33.443  33.961   1.261
61106W        W29447  29.003   0.869   0.471
61107W        W29448  10.656  33.419   1.424
61108W        W29449  44.796   4.908  13.337
61109W        W29450   3.358  29.536  13.052
61110W        W29451   6.690  42.295   2.704
61111W        W29452  13.278  13.842  13.912
61112W        W29453  34.906  26.981   2.797
61113W        W29454  34.064  14.284  12.962
61114W        W29455   8.280  10.812   3.669
61115W        W29456  35.500  12.362  14.444
61116W        W29457   0.484  43.501  12.932
61117W        W29458  22.661  24.557   1.736
61118W        W29459  25.117  32.511  11.590
61119W        W29460  39.926  24.490   3.745
61120W        W29461  11.849  10.656   2.783
61121W        W29462  43.386   7.731  11.874
61122W        W29463   9.665  10.284  11.033
61123W        W29464  40.874  44.915   4.628
61124W        W29465  39.395  32.108   4.816
61125W        W29466  13.689  43.410   2.673
61126W        W29467  19.640  17.260   2.225
61127W        W29468   1.735  39.949  13.888
61128W        W29469  25.633  42.921  14.950
61129W        W29470  29.155  15.188   0.943
61130W        W29471  41.968  39.463  13.935
61131W        W29472  32.903  14.296  10.504
61132W        W29473   3.796  43.446   2.698
61133W        W29474  39.434  34.477  14.481
61134W        W29475  38.014  35.952   0.401
61135W        W29476  38.506  34.480   4.140
61136W        W29477   1.871  25.149   4.261
61137W        W29478  26.548   1.428  13.344
61138W        W29479  32.414  16.221  14.454
61139W        W29480   8.815  35.937  14.877
61140W        W29481  11.738   3.328  12.520
61141W        W29482  24.985  19.568   1.923
61142W        W29483   5.353  38.458   3.349
61143W        W29484  18.073   7.260   4.202
61144W        W29485  32.461  35.424  12.521
61145W        W29486  28.629  30.509  13.943
61146W        W29487  42.896   2.812   4.748
61147W        W29488  40.939   0.336  14.353
61148W        W29489  22.149  40.885  12.958
61149W        W29490  16.641  33.947   0.438
61150W        W29491   4.277  10.214  12.920
61151W        W29492   2.382  41.311   0.961
61152W        W29493  39.042  17.168   4.724
61153W        W29494   6.719  32.415  14.456
61154W        W29495  12.839   0.348   1.858
61155W        W29496  29.164   7.827  13.017
61156W        W29497  26.008  19.196   3.230
61157W        W29498  43.873   4.920   1.891
61158W        W29499   7.715  29.614  10.890
61159W        W29500  35.032  19.622  13.523
61160W        W29501  20.686  36.464   0.824
61161W        W29502  14.315   0.293  11.963
61162W        W29503   9.233  37.543  14.350
61163W        W29504  27.453  41.356  10.962
61164W        W29505  24.084  16.174  11.546
61165W        W29506  16.716  15.254   3.634
61166W        W29507   3.448   3.796  13.371
61167W        W29508   5.848  39.035  11.446
61168W        W29509  32.138  39.895   2.721
61169W        W29510  16.076  28.053  13.867
61170W        W29511   1.850  23.054  11.029
61171W        W29512  36.567  23.088   3.792
61172W        W29513  37.951   1.747  14.448
61173W        W29514   7.279  25.512  10.901
61174W        W29515  26.528  41.922  10.407
61175W        W29516  20.631  38.881   3.263
61176W        W29517  44.270  32.898   1.762
61177W        W29518   9.255  27.531  11.964
61178W        W29519   5.421  15.250   3.760
61179W        W29520  31.647  10.290  14.991
61180W        W29521  31.077  28.126  12.430
61181W        W29522   3.798  19.756  10.554
61182W        W29523   4.751  20.620  13.971
61183W        W29524  41.439  21.122   1.846
61184W        W29525  27.151  33.129   0.807
61185W        W29526   5.380   2.343   3.820
61186W        W29527  25.613  38.361  11.579
61187W        W29528  10.810  36.589   0.307
61188W        W29529  33.568  25.123  12.576
61189W        W29530  42.843  16.098  11.084
61190W        W29531  39.953  19.589   1.289
61191W        W29532  24.597   0.831   1.773
61192W        W29533  23.003  10.267  12.939
61193W        W29534  19.624  32.473  10.950
61194W        W29535   9.284  14.825   4.775
61195W        W29536  43.449  24.134  11.418
61196W        W29537   5.321   3.713   2.282
61197W        W29538  34.072  33.436  10.426
61198W        W29539  21.516  26.692  11.390
61199W        W29540  42.479   9.646   4.143
61200W        W29541  34.396  30.653  14.510
61201W        W29542  42.028  44.411  13.436
61202W        W29543  34.914  44.933   4.706
61203W        W29544   5.316   6.299  10.564
61204W        W29545  43.781  17.740  14.430
61205W        W29546  19.167   4.339   4.678
61206W        W29547   5.799  14.116   3.797
61207W        W29548  10.794   9.796  12.471
61208W        W29549  37.833  13.222   4.632
61209W        W29550  36.348  15.744  10.901
61210W        W29551   0.804  26.601  11.406
61211W        W29552  27.068  31.506   2.884
61212W        W29553  43.795  11.372  11.010
61213W        W29554   7.857   9.672   4.124
61214W        W29555  35.890  11.332   2.248
61215W        W29556  40.337  20.536  10.591
61216W        W29557  39.947  14.775   1.890
61217W        W29558  33.558   7.889   2.361
61218W        W29559  36.867   6.894  10.918
61219W        W29560  17.113   6.779  12.019
61220W        W29561  24.654  16.772   9.970
61221W        W29562  43.317  12.613   4.339
61222W        W29563  42.975   9.380   0.355
61223W        W29564   9.316  20.546  12.503
61224W        W29565  38.326   3.230   4.648
61225W        W29566  33.607  13.622   1.214
61226W        W29567  23.004  20.688  10.455
61227W        W29568  15.205   9.198   1.410
61228W        W29569  18.776  12.130   4.717
61229W        W29570  16.669  41.895   3.152
61230W        W29571  19.040  16.236  13.444
61231W        W29572  30.549  16.126   3.649
61232W        W29573  18.559  44.321   5.242
61233W        W29574   8.343  38.519   4.187
61234W        W29575  17.291  42.474   4.134
61235W        W29576  31.066  29.660  14.776
61236W        W29577  30.447  37.051  13.045
61237W        W29578  44.486  22.235  11.429
61238W        W29579  16.738  39.027  13.019
61239W        W29580  42.016  11.132  14.860
61240W        W29581  39.814   4.818  10.557
61241W        W29582   4.832  34.982   5.214
61242W        W29583  29.593   8.350  10.634
61243W        W29584  40.478  18.663   2.282
61244W        W29585  43.972  32.948   4.798
61245W        W29586   1.897  15.644  10.609
61246W        W29587  35.420  14.724  14.889
61247W        W29588   9.751   3.784  11.416
61248W        W29589  40.948  21.720   0.840
61249W        W29590   9.247  28.945  13.916
61250W        W29591  15.707  41.394  14.407
61251W        W29592  29.165  17.240   4.607
61252W        W29593  26.025   4.727   4.296
61253W        W29594  43.363  31.454  14.921
61254W        W29595  32.982   1.469  14.843
61255W        W29596  44.827   7.907   3.375
61256W        W29597   2.276  42.317  11.946
61257W        W29598  35.407  19.594  13.997
61258W        W29599  12.294  15.815  14.434
61259W        W29600   0.390  15.135   1.921
61260W        W29601  26.014  29.644  11.875
61261W        W29602  17.731  22.097   2.416
61262W        W29603  22.616   8.339  12.501
61263W        W29604  19.676   2.288  12.056
61264W        W29605   5.397   1.312  14.774
61265W        W29606  33.051  19.052   1.415
61266W        W29607  26.983  19.107  14.974
61267W        W29608  18.121  40.392  10.548
61268W        W29609  31.024  29.566  11.081
61269W        W29610   9.333   1.265   0.732
61270W        W29611   2.926  20.244   5.759
61271W        W29612  29.053  44.760   2.188
61272W        W29613  37.554   1.375  13.433
61273W        W29614  10.229  43.374   3.861
61274W        W29615  37.906  41.914   9.502
61275W        W29616  37.020   7.408  12.916
61276W        W29617  19.720  25.701   1.766
61277W        W29618  20.030   3.821   1.752
61278W        W29619  18.117   1.823   4.696
61279W        W29620   9.863  26.554   1.393
61280W        W29621  19.218  29.108  13.920
61281W        W29622  24.987  24.032  11.076
61282W        W29623  36.057  24.016   4.334
61283W        W29624  43.514   4.819   0.389
61284W        W29625  34.897  19.251   1.342
61285W        W29626  40.518   0.923  11.979
61286W        W29627  24.211  28.518  10.624
61287W        W29628  15.759  38.564   3.228
61288W        W29629  37.897  12.622   1.383
61289W        W29630   9.772  26.988  12.413
61290W        W29631  43.883  43.473  14.794
61291W        W29632   2.943  13.221  10.550
61292W        W29633   6.418   3.761   2.412
61293W        W29634  17.561   9.694   4.341
61294W        W29635  39.988   4.800   1.377
61295W        W29636  40.964   9.824   2.410
61296W        W29637  35.947  33.009   3.173
61297W        W29638  12.692  18.598  12.375
61298W        W29639  11.788  40.933   3.260
61299W        W29640  26.110  28.004  11.910
61300W        W29641  42.790  36.995  10.992
61301W        W29642  28.075  31.138   0.785
61302W        W29643  31.551  41.912  11.025
61303W        W29644   0.780  17.727   3.797
61304W        W29645  27.541  13.663   0.753
61305W        W29646   6.242  28.657   3.726
61306W        W29647  12.656  36.554  11.550
61307W        W29648   0.795   3.362  10.471
61308W        W29649   5.255  12.230   4.295
61309W        W29650  25.005   7.747  14.456
61310W        W29651  43.309  44.765  10.485
61311W        W29652  32.621   2.935  10.607
61312W        W29653   4.852  44.762  13.529
61313W        W29654  38.836  27.088  14.026
61314W        W29655   3.237  19.642   4.320
61315W        W29656  31.420   4.915  13.481
61316W        W29657  28.500  22.103  10.477
61317W        W29658  26.153  11.625   3.283
61318W        W29659  26.160  44.460   4.820
61319W        W29660  39.380  12.637  10.449
61320W        W29661  37.064   5.900   4.354
61321W        W29662  44.930  28.040   2.186
61322W        W29663  34.036  33.991  14.992
61323W        W29664  35.890   2.248   4.749
61324W        W29665   2.406   7.236   4.225
61325W        W29666  23.041  39.357   3.676
61326W        W29667   4.844  32.465   4.770
61327W        W29668  34.426  22.646  11.479
61328W        W29669  24.127  25.065   3.698
61329W        W29670  42.803  28.052   3.840
61330W        W29671  38.904   9.717  11.103
61331W        W29672   6.846   8.883   2.341
61332W        W29673  20.579  38.503   4.330
61333W        W29674   9.194   7.815  13.947
61334W        W29675   3.221  31.638   4.678
61335W        W29676  28.504   4.922   2.667
61336W        W29677  32.439  11.299  11.435
61337W        W29678  30.445  24.591  11.070
61338W        W29679   9.320  23.117  11.474
61339W        W29680  26.668  29.063  13.952
61340W        W29681  40.998  10.205  13.873
61341W        W29682  12.325  22.559  11.861
61342W        W29683  16.135  11.251   3.632
61343W        W29684   9.391   2.797   4.235
61344W        W29685  36.001  28.038  11.445
61345W        W29686  10.879   6.360  11.972
61346W        W29687   6.801  19.682   2.719
61347W        W29688   7.772  27.668  13.373
61348W        W29689  20.546  32.008   3.216
61349W        W29690  22.632  25.978  10.960
61350W        W29691  33.498  30.988  11.874
61351W        W29692   4.773  24.125  12.569
61352W        W29693  33.897  31.048  10.625
61353W        W29694  43.487  36.071  10.567
61354W        W29695  42.461   3.449  13.817
61355W        W29696  19.566  37.989   4.614
61356W        W29697  22.176  14.316   4.695
61357W        W29698  33.441  26.633   4.198
61358W        W29699  18.121   0.830  11.045
61359W        W29700  15.324  22.037  13.507
61360W        W29701  20.541  38.843   2.836
61361W        W29702  13.641   2.775  11.510
61362W        W29703   4.856   6.738   2.309
61363W        W29704  14.654   4.761   1.825
61364W        W29705  22.193  20.637  14.446
61365W        W29706  38.054   7.286   0.920
61366W        W29707   9.175   4.706   3.277
61367W        W29708  43.497  28.947  14.790
61368W        W29709  29.026   2.847   2.820
61369W        W29710   3.433  18.073   2.207
61370W        W29711  20.669  26.470   3.759
61371W        W29712  20.080   9.154   0.339
61372W        W29713   9.769  25.560  11.476
61373W        W29714  23.521  44.393  12.468
61374W        W29715  15.167  28.002  13.403
61375W        W29716  29.474  26.506   3.200
61376W        W29717  32.093   2.452   1.855
61377W        W29718  16.615   5.859   1.264
61378W        W29719  10.382  33.062   1.439
61379W        W29720  27.487  39.821  13.384
61380W        W29721  39.491  19.123   0.328
61381W        W29722   1.321   9.238  11.604
61382W        W29723  35.943  10.800  11.933
61383W        W29724  22.639  13.705   0.815
61384W        W29725  32.416   9.848   2.194
61385W        W29726  41.932  33.896  14.347
61386W        W29727   8.255   0.968  14.777
61387W        W29728  43.808  15.223   0.756
61388W        W29729  10.306  10.286  10.137
61389W        W29730   0.813  37.512   3.737
61390W        W29731  15.763   5.202  10.022
61391W        W29732  41.970   1.406   1.875
61392W        W29733  42.798   6.703  14.991
61393W        W29734  22.095  15.314  13.526
61394W        W29735  19.621  44.351   0.350
61395W        W29736   8.277  30.520   0.361
61396W        W29737  26.020  20.071  10.913
61397W        W29738  14.201   3.828  14.849
61398W        W29739  26.166  19.542  13.307
61399W        W29740  41.805   9.675  14.887
61400W        W29741  28.180  18.246  13.453
61401W        W29742  42.984   2.273  13.043
61402W        W29743  11.712  34.598  13.333
61403W        W29744  32.603  21.684   1.865
61404W        W29745  18.639  44.889   3.376
61405W        W29746  37.545   0.368  10.620
61406W        W29747  21.699  30.135   3.645
61407W        W29748  10.632  15.312   3.783
61408W        W29749  23.167  44.361   0.414
61409W        W29750  22.685  38.976  10.600
61410W        W29751  29.920  22.508   1.736
61411W        W29752  17.245  18.589  12.852
61412W        W29753  29.517  17.672  14.923
61413W        W29754  44.853  32.441   0.809
61414W        W29755  16.813  11.244  14.003
61415W        W29756  30.416  32.020  11.382
61416W        W29757  43.430  42.015   3.711
61417W        W29758  19.592  43.325  12.852
61418W        W29759  19.201  24.545   4.237
61419W        W29760  12.140   9.827  12.502
61420W        W29761  11.706  42.431  10.589
61421W        W29762  36.420  18.231  10.997
61422W        W29763   1.886  17.175  10.902
61423W        W29764  30.952   9.154  12.374
61424W        W29765  30.045  34.903  14.480
61425W        W29766  30.471  27.094  12.435
61426W        W29767  39.967  25.187  14.939
61427W        W29768   0.915  27.635   1.438
61428W        W29769  15.254  30.067  11.882
61429W        W29770  17.655  28.527  14.881
61430W        W29771  16.748  17.149   1.423
61431W        W29772  22.199  24.111   3.710
61432W        W29773  38.976  19.569   0.810
61433W        W29774  11.319  22.549   1.713
61434W        W29775  34.384  17.754  12.509
61435W        W29776  30.513  35.908  12.415
61436W        W29777  39.886  10.757   0.839
61437W        W29778   8.729  10.826   0.729
61438W        W29779  12.648  16.801   2.418
61439W        W29780  43.801  14.749  11.567
61440W        W29781  41.391  19.659   1.441
61441W        W29782  23.237  13.238   0.752
61442W        W29783  40.456  24.112   2.344
61443W        W29784   3.242  29.636  13.844
61444W        W29785  23.559   4.231   3.647
61445W        W29786  40.869   0.790  10.409
61446W        W29787  22.559   3.303  12.889
61447W        W29788  23.071  38.905   1.349
61448W        W29789  38.978  28.146   2.714
61449W        W29790  22.075   5.360  10.907
61450W        W29791   5.844  35.027  13.881
61451W        W29792  30.056  21.746   3.742
61452W        W29793  37.508  44.372   2.366
61453W        W29794  38.550  22.539   3.717
61454W        W29795  37.875  14.232  12.922
61455W        W29796  39.973  26.163  10.482
61456W        W29797   1.797  34.002  10.419
61457W        W29798  21.096  23.133  11.422
61458W        W29799  18.180  13.137   1.712
61459W        W29800  25.534  42.346   4.681
61460W        W29801  15.716  41.850  14.404
61461W        W29802  39.416  18.622  12.022
61462W        W29803  23.503  44.279   1.914
61463W        W29804  27.185  34.095   3.858
61464W        W29805  41.447  31.507   4.195
61465W        W29806  29.162  26.456  11.428
61466W        W29807  22.159  43.492   1.850
61467W        W29808   1.968   6.683  13.987
61468W        W29809  16.572  39.494   3.224
61469W        W29810  18.649  27.004  14.020
61470W        W29811   7.315  33.027  14.347
61471W        W29812   5.214  42.877  13.473
61472W        W29813  10.677  36.073   1.283
61473W        W29814  41.811  24.525   1.328
61474W        W29815  14.225  31.460  12.043
61475W        W29816   5.792  38.903  11.891
61476W        W29817   2.425   5.336   0.741
61477W        W29818  12.825   5.219   0.291
61478W        W29819  27.620  34.434   4.826
61479W        W29820   6.787  36.515   3.286
61480W        W29821  25.641  11.194  12.956
61481W        W29822  17.249  13.279  14.802
61482W        W29823   9.193   3.424   2.217
61483W        W29824  34.054  17.755  10.414
61484W        W29825  25.569  11.740   2.763
61485W        W29826  19.757  17.212  13.524
61486W        W29827  40.423  39.445  13.448
61487W        W29828  39.394  26.517   0.965
61488W        W29829  44.264  24.980   9.991
61489W        W29830  37.072   9.389   1.743
61490W        W29831   2.264   5.223  13.881
61491W        W29832   0.932   7.860  12.872
61492W        W29833  29.126  18.183   2.822
61493W        W29834  23.661  19.740  10.053
61494W        W29835  33.492  43.358  13.441
61495W        W29836  12.650  11.363   3.742
61496W        W29837  10.264  35.516   2.682
61497W        W29838  33.438   1.271   1.285
61498W        W29839  39.919   7.770   3.798
61499W        W29840  33.423  10.786   3.148
61500W        W29841  42.499  12.835  14.030
61501W        W29842  31.082   1.873  13.376
61502W        W29843  36.381   9.668   4.835
61503W        W29844  33.087   2.419   4.828
61504W        W29845  10.792   2.316  13.548
61505W        W29846  42.409  30.084  14.414
61506W        W29847  15.782  35.588   2.273
61507W        W29848  28.599  14.680  10.541
61508W        W29849  14.164  18.151   4.764
61509W        W29850  34.524  35.597   4.224
61510W        W29851  20.627  19.182  13.534
61511W        W29852  12.133  44.349  13.323
61512W        W29853  30.527  37.985  11.890
61513W        W29854  27.683   4.382   1.841
61514W        W29855  23.708  28.111   3.683
61515W        W29856  44.367  26.042  11.127
61516W        W29857  27.586   2.769   4.604
61517W        W29858  20.143   0.408   2.236
61518W        W29859  22.502  28.138   0.337
61519W        W29860   7.715  29.134  13.010
61520W        W29861  11.265  20.674   3.313
61521W        W29862  12.352  32.424  10.989
61522W        W29863  32.631  29.043   4.224
61523W        W29864  21.138  30.989   2.299
61524W        W29865  33.600  32.918   5.224
61525W        W29866  14.227  38.047  12.053
61526W        W29867  43.818  16.625  13.450
61527W        W29868   4.240  23.078  14.813
61528W        W29869  21.113  19.708  13.812
61529W        W29870   5.713  29.499  12.924
61530W        W29871  29.599  24.717  11.483
61531W        W29872  18.606  14.229   0.328
61532W        W29873  40.002   4.428   2.410
61533W        W29874   0.260  26.688   1.387
61534W        W29875  13.135  25.067   4.627
61535W        W29876  39.373   0.895   9.996
61536W        W29877   8.337  20.086   4.339
61537W        W29878   0.468  23.623   0.928
61538W        W29879  29.617  34.432   1.384
61539W        W29880   3.376  42.476   1.337
61540W        W29881  27.644  10.759  11.607
61541W        W29882  13.831  25.667  10.890
61542W        W29883   6.347  30.063   0.957
61543W        W29884   8.794   1.429   1.395
61544W        W29885   6.838  29.629  13.929
61545W        W29886  40.385  28.003   1.728
61546W        W29887  38.516   9.784  12.393
61547W        W29888  12.795  13.268  13.052
61548W        W29889  44.006   9.809  13.374
61549W        W29890  26.468  30.449  12.907
61550W        W29891  38.545  43.835   4.127
61551W        W29892   7.212  10.680   1.376
61552W        W29893  44.815  10.819   4.165
61553W        W29894   3.379  19.626  11.542
61554W        W29895  13.732  26.112   2.706
61555W        W29896  31.971   5.352   1.374
61556W        W29897  41.927  29.504  11.124
61557W        W29898   3.412  11.866  14.450
61558W        W29899  44.269   9.692  13.899
61559W        W29900   8.239   8.344   3.833
61560W        W29901  28.088  39.830  11.074
61561W        W29902  31.463  23.659  14.312
61562W        W29903  21.679   7.791  12.537
61563W        W29904   2.296   7.676   0.286
61564W        W29905   8.216   2.329   0.918
61565W        W29906  31.068  31.514  14.287
61566W        W29907   0.962  38.552  14.897
61567W        W29908  18.197  18.264   2.838
61568W        W29909  42.911   7.348  11.074
61569W        W29910  44.757   9.257  11.863
61570W        W29911  38.070  41.844  10.537
61571W        W29912  14.630   2.781  11.506
61572W        W29913  36.944  11.691  10.977
61573W        W29914  22.642  28.490   0.813
61574W        W29915  37.336   6.370  13.878
61575W        W29916  12.306  17.758   0.458
61576W        W29917  41.008  11.132  12.533
61577W        W29918  42.454   7.311  10.556
61578W        W29919  24.551  14.204  10.572
61579W        W29920  39.892  17.726  14.447
61580W        W29921   4.239  14.149  10.434
61581W        W29922  19.576   2.841   4.326
61582W        W29923  41.891  33.435  13.958
61583W        W29924   0.374  39.421   0.826
61584W        W29925   0.889  36.063  14.824
61585W        W29926  43.983   7.883   2.384
61586W        W29927  40.323  16.316   2.412
61587W        W29928  38.428  38.846   1.916
61588W        W29929  40.882  22.704   2.410
61589W        W29930  23.995  13.599  13.032
61590W        W29931  15.137  41.463  10.489
61591W        W29932  40.353  17.689   1.745
61592W        W29933  38.515   6.683   4.153
61593W        W29934   4.803   5.917  10.108
61594W        W29935  42.984  21.213   2.180
61595W        W29936  30.457   6.231   4.718
61596W        W29937  36.556  43.983   1.377
61597W        W29938  36.986  43.900   1.768
61598W        W29939  32.060  13.221  12.406
61599W        W29940   5.317  36.383  12.076
61600W        W29941   6.250  26.618   1.738
61601W        W29942   5.876  22.231  10.417
61602W        W29943  35.990  37.490   0.825
61603W        W29944   9.750  35.416  12.556
61604W        W29945  36.500  40.839  10.530
61605W        W29946  24.565  24.487   4.741
61606W        W29947  24.639  39.371   3.853
61607W        W29948   2.236  14.759  13.812
61608W        W29949  11.150  33.568  13.819
61609W        W29950  40.535  25.062   1.213
61610W        W29951  14.819  25.520  13.892
61611W        W29952  11.769   5.844   1.341
61612W        W29953  38.896  13.216  14.875
61613W        W29954  25.175  34.033   2.231
61614W        W29955  31.114   7.276  12.991
61615W        W29956   2.901   5.687  11.026
61616W        W29957   0.827  30.941  12.518
61617W        W29958  11.360  10.179  14.902
61618W        W29959  19.147  42.461  12.348
61619W        W29960  29.551  38.500  13.447
61620W        W29961  20.034  35.029   4.297
61621W        W29962  22.566  39.521  13.486
61622W        W29963   8.245  28.998  10.896
61623W        W29964   0.304  30.455   2.279
61624W        W29965  18.191  43.407   3.262
61625W        W29966  18.580  23.730   5.130
61626W        W29967  25.653  41.327   4.201
61627W        W29968  27.024  37.428  11.994
61628W        W29969  21.525  28.104   1.211
61629W        W29970  42.997  14.775   4.668
61630W        W29971  15.198   9.823  13.871
61631W        W29972  32.555  32.534   2.313
61632W        W29973   2.955   3.444   3.762
61633W        W29974  34.953  25.065   3.757
61634W        W29975  36.002  18.656  13.004
61635W        W29976   8.372  16.610  10.897
61636W        W29977  43.850  18.220   3.795
61637W        W29978   4.851   8.895   1.727
61638W        W29979  13.214  41.789   0.294
61639W        W29980  19.752  37.488   2.675
61640W        W29981  33.450  10.351   9.988
61641W        W29982  29.434  13.249   2.411
61642W        W29983  29.025   4.273  13.432
61643W        W29984  11.327  34.447   2.264
61644W        W29985  14.150  16.280  10.488
61645W        W29986  11.790  35.505  10.642
61646W        W29987  33.059  16.141   4.652
61647W        W29988   0.755  35.525   1.371
61648W        W29989  21.736   3.745   0.466
61649W        W29990   2.868  20.726  14.506
61650W        W29991  35.068  39.453  12.957
61651W        W29992  34.992   1.888   5.306
61652W        W29993  14.215  12.124  12.362
61653W        W29994   4.327  33.606  10.599
61654W        W29995  34.896  23.652   4.769
61655W        W29996  14.679   2.317   1.888
61656W        W29997  22.730  27.954  12.831
61657W        W29998  29.925  40.528  13.042
61658W        W29999   6.224   4.755   4.177
61659W        W30000  42.871  20.136  11.016
61660W        W30001   9.178  24.179  11.926
61661W        W30002  40.044  34.495   2.844
61662W        W30003  39.518   0.391  11.501
61663W        W30004  20.570  42.387  14.347
61664W        W30005   3.734  37.336   2.369
61665W        W30006  27.164   2.248  13.999
61666W        W30007   0.851  23.183  14.004
61667W        W30008   5.357   4.804  14.513
61668W        W30009  13.191  13.194  12.831
61669W        W30010  34.094  18.281   4.695
61670W        W30011  19.575  25.118   3.313
61671W        W30012  19.762  35.953   2.739
61672W        W30013  14.267  28.446   4.164
61673W        W30014  39.411   4.222  13.489
61674W        W30015  11.330  40.906  14.495
61675W        W30016  17.267  37.029   2.738
61676W        W30017  12.204  12.832  10.530
61677W        W30018  38.514  24.718  14.362
61678W        W30019   9.805   5.223  11.055
61679W        W30020  38.849   0.862   0.963
61680W        W30021  20.191  10.246  13.823
61681W        W30022  28.477  41.865  13.794
61682W        W30023  15.740   0.815   0.319
61683W        W30024  32.589  24.501   0.372
61684W        W30025  25.991  36.034   3.172
61685W        W30026  17.724   0.432   1.301
61686W        W30027  30.950  43.765   4.239
61687W        W30028  35.963  31.454   3.760
61688W        W30029  17.197   6.855  14.004
61689W        W30030  30.088   2.899   2.867
61690W        W30031   8.826   1.933  12.059
61691W        W30032  25.192  13.114  14.868
61692W        W30033   6.358  17.162  13.471
61693W        W30034  14.619   5.718   3.798
61694W        W30035   8.886  35.424   4.206
61695W        W30036  34.545   8.365  14.394
61696W        W30037  17.716  25.199  14.866
61697W        W30038  19.144   5.736   1.806
61698W        W30039  36.484  37.009   4.655
61699W        W30040  17.666  42.343  10.563
61700W        W30041  19.167   7.813  14.397
61701W        W30042  27.676  10.301   1.383
61702W        W30043   1.732  38.412   0.404
61703W        W30044  22.058   2.319   1.259
61704W        W30045   2.827   7.192   0.856
61705W        W30046  43.370  17.106   3.696
61706W        W30047  38.919  18.701   3.803
61707W        W30048  27.080  30.075   1.831
61708W        W30049  37.029   2.242  13.516
61709W        W30050  17.290  28.480  10.516
61710W        W30051  11.168  26.573  10.534
61711W        W30052   7.251   8.747   1.716
61712W        W30053  34.969  28.010  11.946
61713W        W30054  11.372   7.171   3.742
61714W        W30055  37.980  17.180  10.965
61715W        W30056  23.002  11.216  10.420
61716W        W30057  17.757  34.928  12.906
61717W        W30058  29.430  33.011   0.321
61718W        W30059  35.072  32.076   0.405
61719W        W30060  21.724  34.119  14.506
61720W        W30061  42.003  17.273  10.009
61721W        W30062  22.521  33.469   9.961
61722W        W30063  11.254   2.230   2.713
61723W        W30064  14.206   3.293  11.435
61724W        W30065  18.268  21.098   2.208
61725W        W30066  32.404  31.511   4.145
61726W        W30067  30.603  33.402   0.792
61727W        W30068  35.531  10.288   0.847
61728W        W30069   4.362   1.850   0.737
61729W        W30070   4.352  21.102   2.309
61730W        W30071   1.865  10.244  11.431
61731W        W30072  32.595   3.836  13.049
61732W        W30073   3.231   5.399  10.610
61733W        W30074  28.149   3.259   2.417
61734W        W30075  15.156   7.823  11.103
61735W        W30076   1.327  22.637   1.791
61736W        W30077   7.732  17.180   1.853
61737W        W30078  43.981   7.187  11.559
61738W        W30079  37.001  25.617  11.553
61739W        W30080  31.087   9.694  13.463
61740W        W30081  15.326   5.352  14.490
61741W        W30082  23.025  39.020  13.527
61742W        W30083  33.940  32.967   3.308
61743W        W30084  33.499  34.941   3.186
61744W        W30085   7.774  19.211   4.791
61745W        W30086  34.482  18.126  12.477
61746W        W30087  28.546  11.804   9.988
61747W        W30088  35.589  32.046  14.979
61748W        W30089   5.696  41.877  12.437
61749W        W30090  30.477  16.266   4.597
61750W        W30091  22.653  16.105  14.858
61751W        W30092  18.142   9.744  12.995
61752W        W30093  36.024   5.290  14.862
61753W        W30094  13.805  18.257   2.187
61754W        W30095   3.846  12.161  14.510
61755W        W30096  18.729  17.716   0.363
61756W        W30097   6.393   5.788  14.399
61757W        W30098  35.391  35.523  13.413
61758W        W30099  35.393   1.842   3.643
61759W        W30100  37.954  11.233   3.858
61760W        W30101   5.339  18.243  10.906
61761W        W30102  11.331  23.082   3.648
61762W        W30103  29.492  30.928  11.102
61763W        W30104  40.943  34.372   2.415
61764W        W30105  43.276   9.328  11.858
61765W        W30106  15.107  27.662   1.227
61766W        W30107  30.431  21.544   4.301
61767W        W30108  22.090  19.258  12.870
61768W        W30109  20.760  33.464  12.501
61769W        W30110  24.192  39.441   4.232
61770W        W30111   2.298   5.895   3.679
61771W        W30112  37.909  11.280  11.466
61772W        W30113  42.002   7.880  14.920
61773W        W30114  40.940   1.929   4.203
61774W        W30115  35.073  36.960  10.938
61775W        W30116  25.547   7.236   4.734
61776W        W30117  26.069  42.874   0.449
61777W        W30118   8.811   2.459   0.884
61778W        W30119  27.048   9.799   4.761
61779W        W30120  13.305  12.132  13.915
61780W        W30121  41.453  22.080  14.481
61781W        W30122  37.859  37.073  14.783
61782W        W30123   1.886  13.783  14.901
61783W        W30124  22.743  44.839   3.784
61784W        W30125  42.020  36.989   3.364
61785W        W30126  44.311   8.734  14.513
61786W        W30127   9.859  24.604  10.561
61787W        W30128  18.134  15.585  14.780
61788W        W30129   4.288  13.674  11.375
61789W        W30130   6.815  39.501   3.654
61790W        W30131  42.377  42.785   2.185
61791W        W30132  29.533  44.403  10.103
61792W        W30133  36.965  36.040  11.862
61793W        W30134  36.591  35.942  13.934
61794W        W30135  31.552  23.628  11.943
61795W        W30136  26.479  36.967  10.632
61796W        W30137  15.698  43.963   0.375
61797W        W30138  26.648  26.628  11.550
61798W        W30139  40.500  15.799  13.023
61799W        W30140   4.727   0.778   4.132
61800W        W30141  29.029   3.220   4.227
61801W        W30142   6.299  32.122   2.836
61802W        W30143   7.736  43.401   3.237
61803W        W30144  37.535  20.058  12.914
61804W        W30145  15.143  39.908   4.706
61805W        W30146   5.907  12.227   2.864
61806W        W30147  16.121  40.522  14.280
61807W        W30148   7.286  36.991   1.779
61808W        W30149  42.973   0.250   3.671
61809W        W30150  39.512   9.744  13.001
61810W        W30151   2.315  36.530  14.332
61811W        W30152  21.528  12.359  13.537
61812W        W30153  22.615   6.787   0.747
61813W        W30154  33.052  25.176   3.335
61814W        W30155  36.352   8.835   5.235
61815W        W30156  23.195  18.130  11.959
61816W        W30157  31.528  17.174  12.469
61817W        W30158  13.740  15.174   2.681
61818W        W30159  17.291  32.437   0.251
61819W        W30160  37.050  30.541  14.412
61820W        W30161  20.269   7.191   0.819
61821W        W30162  39.365  44.336   3.648
61822W        W30163  30.923  28.117  11.075
61823W        W30164  35.864  26.057   0.322
61824W        W30165  29.091  22.554  11.520
61825W        W30166   8.843   9.231  13.897
61826W        W30167  15.285  25.083  14.801
61827W        W30168  43.365  12.286  13.479
61828W        W30169  22.544  11.736   3.297
61829W        W30170  30.430  41.935   4.226
61830W        W30171   6.683  41.034  14.284
61831W        W30172   8.394  30.462  12.402
61832W        W30173   2.358  20.071   3.259
61833W        W30174   0.871  10.642  12.360
61834W        W30175   2.805   5.404  14.278
61835W        W30176  15.611  16.215   0.850
61836W        W30177  15.684  31.603   4.312
61837W        W30178  20.265   2.339   3.182
61838W        W30179  36.076   7.238  14.504
61839W        W30180  34.983  14.623  13.833
61840W        W30181  43.836   7.769  13.462
61841W        W30182  30.005  19.171   0.381
61842W        W30183  21.228  26.510  10.982
61843W        W30184  28.049   3.282  11.026
61844W        W30185  21.245   1.930   2.670
61845W        W30186  30.592  38.858   3.263
61846W        W30187  42.296   7.886   3.364
61847W        W30188  34.444  17.235  11.953
61848W        W30189   9.696  20.688   0.253
61849W        W30190  36.353   7.674   0.915
61850W        W30191  18.592  18.721   1.283
61851W        W30192  32.454   7.741   3.187
61852W        W30193  16.617  42.444  14.935
61853W        W30194  29.655  41.370  14.983
61854W        W30195  14.834   4.925   3.639
61855W        W30196  39.870  40.900   3.665
61856W        W30197  27.073  26.151   4.776
61857W        W30198  19.560  32.573  10.557
61858W        W30199  11.139   6.777  14.369
61859W        W30200  13.623   7.200  12.548
61860W        W30201  44.866  22.672  13.903
61861W        W30202   0.392  13.166  12.520
61862W        W30203  26.953  34.006   4.820
61863W        W30204  12.141  37.084  11.070
61864W        W30205  13.219   2.385  12.970
61865W        W30206   8.805  30.149   4.631
61866W        W30207  18.710   1.931  14.927
61867W        W30208  11.778   2.726   2.355
61868W        W30209  15.601   3.224  11.873
61869W        W30210  38.347  30.494   0.458
61870W        W30211  36.548   0.825   1.310
61871W        W30212  12.631  24.568   3.286
61872W        W30213  26.973  41.920  10.988
61873W        W30214  17.720  20.679   5.199
61874W        W30215  13.112  23.507   2.352
61875W        W30216   5.415   8.286   2.202
61876W        W30217  21.126  43.822   0.342
61877W        W30218  15.774  16.589   2.208
61878W        W30219  43.952  17.138   3.829
61879W        W30220  43.316  10.661  14.305
61880W        W30221  13.192  15.328   0.849
61881W        W30222  29.572   7.172  14.355
61882W        W30223  40.378  20.095   4.284
61883W        W30224  22.169  15.721   4.261
61884W        W30225  22.123  25.026   0.289
61885W        W30226  29.516   9.746  14.880
61886W        W30227  33.917  16.271  14.875
61887W        W30228  43.006  29.559   0.858
61888W        W30229  34.527  32.122   3.189
61889W        W30230  24.575  13.790  14.386
61890W        W30231  12.146   2.375   3.368
61891W        W30232   0.410  42.885   3.736
61892W        W30233   6.791  33.972  10.609
61893W        W30234  23.026  22.699   3.364
61894W        W30235  15.286  25.181  13.840
61895W        W30236   9.371  38.931   1.321
61896W        W30237   2.928  31.596   1.741
61897W        W30238  30.543  23.065   0.927
61898W        W30239  18.074  10.220  14.429
61899W        W30240  44.806  29.044  11.396
61900W        W30241   2.315  19.631   1.320
61901W        W30242  35.966  43.777  11.604
61902W        W30243  38.986  22.202  11.896
61903W        W30244  41.373  28.993  10.960
61904W        W30245  41.535  11.760  14.813
61905W        W30246   3.277  25.020   4.240
61906W        W30247  34.949  13.614  13.872
61907W        W30248  14.307  35.530  10.568
61908W        W30249  12.308   5.240  14.363
61909W        W30250  24.116   1.296  11.978
61910W        W30251  35.385   4.333   2.333
61911W        W30252  23.672  43.971   0.308
61912W        W30253  16.119  17.704   3.858
61913W        W30254  43.508  13.343  12.561
61914W        W30255  27.184  30.587   5.143
61915W        W30256  26.696  36.854  12.072
61916W        W30257  30.908  15.778   2.346
61917W        W30258  39.987  39.366   3.154
61918W        W30259  26.605  39.531   3.221
61919W        W30260  25.056  20.144  13.486
61920W        W30261   5.812  10.788  14.765
61921W        W30262  42.425   5.775  13.813
61922W        W30263   1.782  38.387   1.696
61923W        W30264  22.178   0.802   3.838
61924W        W30265  31.646  16.714  11.985
61925W        W30266  23.122  27.157  14.852
61926W        W30267  27.991  29.124   3.844
61927W        W30268  16.093   3.917   1.817
61928W        W30269  25.673  20.624   4.198
61929W        W30270   9.173  33.918  10.645
61930W        W30271  17.791  39.915  12.562
61931W        W30272  29.971   3.305   2.326
61932W        W30273  32.425  30.118  13.466
61933W        W30274  13.285  23.006   2.862
61934W        W30275  44.846  18.750   5.091
61935W        W30276  25.516   6.240  10.976
61936W        W30277  10.376  18.293   1.240
61937W        W30278  28.165  34.114  13.521
61938W        W30279  12.250  40.304   4.734
61939W        W30280  29.174  36.365   0.859
61940W        W30281   8.381  39.906   2.770
61941W        W30282   4.890  26.961  11.471
61942W        W30283  28.510   8.682   3.792
61943W        W30284  43.867  33.538  13.999
61944W        W30285   4.232  15.099  12.385
61945W        W30286  22.144  18.107  10.539
61946W        W30287  44.339  28.982  10.552
61947W        W30288   1.293   6.294   3.800
61948W        W30289  21.049   3.346   2.724
61949W        W30290  41.356  19.552   2.696
61950W        W30291  10.860  16.158   4.678
61951W        W30292  29.669  23.188  14.399
61952W        W30293  22.113  20.098   4.674
61953W        W30294   0.801  40.513  10.493
61954W        W30295  42.848  10.316   0.767
61955W        W30296  19.208  23.037   4.601
61956W        W30297   5.772   4.434  14.374
61957W        W30298  16.090  31.927   5.716
61958W        W30299  15.770   8.183  13.494
61959W        W30300  10.367   8.814   3.687
61960W        W30301  19.552  28.093  14.836
61961W        W30302  30.551   5.699   1.385
61962W        W30303   8.807  28.070  11.895
61963W        W30304   3.947   3.755   2.834
61964W        W30305  34.409  32.084  14.809
61965W        W30306  33.599  28.934  14.411
61966W        W30307  28.049  23.196   0.868
61967W        W30308  23.102  23.140  14.467
61968W        W30309  41.483  31.499   2.262
61969W        W30310  17.566  16.681  13.373
61970W        W30311  21.172  35.991   4.279
61971W        W30312  32.409  12.207   3.338
61972W        W30313   8.317  39.874  10.461
61973W        W30314  17.080  12.734   0.830
61974W        W30315  22.528  24.577  14.291
61975W        W30316  34.893  36.048  10.407
61976W        W30317  36.375  16.286  13.453
61977W        W30318  40.401  42.380   2.195
61978W        W30319  41.341  29.076   0.832
61979W        W30320   2.301  35.430   2.387
61980W        W30321  29.569  11.276   3.680
61981W        W30322  38.445  33.102  10.519
61982W        W30323  26.703   5.859   1.800
61983W        W30324  22.189  32.458  13.371
61984W        W30325  29.113   6.833   1.361
61985W        W30326  38.507  24.655  10.952
61986W        W30327  27.068  15.099   3.769
61987W        W30328  29.628  34.432  11.449
61988W        W30329  27.448   8.283   2.699
61989W        W30330  19.226  41.012   0.388
61990W        W30331  21.117  25.099   2.816
61991W        W30332  21.591  12.667   4.146
61992W        W30333  28.518  10.249  13.935
61993W        W30334  19.053  20.613  12.832
61994W        W30335  42.968  23.025  13.514
61995W        W30336  43.867   0.325  14.353
61996W        W30337   2.745  39.879   4.354
61997W        W30338  34.471  10.731  12.014
61998W        W30339  31.441  19.127  12.015
61999W        W30340  31.977  28.665  12.911
62000W        W30341  44.997  41.849  11.438
62001W        W30342   5.930  26.181   1.860
62002W        W30343   8.288  32.139  14.884
62003W        W30344  21.688  43.990   3.789
62004W        W30345   8.186   2.865  12.909
62005W        W30346  30.036  31.501  11.390
62006W        W30347   8.360  13.172   0.411
62007W        W30348  18.167   4.383  14.782
62008W        W30349  41.005  17.128  14.842
62009W        W30350  40.009   1.828  13.323
62010W        W30351  26.593  26.110  11.499
62011W        W30352  10.738  13.722   1.892
62012W        W30353   3.238  23.683  12.007
62013W        W30354  20.236  41.458  12.473
62014W        W30355  33.517   9.386   3.812
62015W        W30356   0.935  44.895   2.387
62016W        W30357  26.461  35.034   0.815
62017W        W30358   0.986  42.309  13.421
62018W        W30359  12.719  34.117   2.252
62019W        W30360  10.266  26.681   0.422
62020W        W30361  43.487  26.467   0.454
62021W        W30362  33.531  16.683   5.172
62022W        W30363   2.449  33.418  14.992
62023W        W30364  14.326  15.757  10.902
62024W        W30365  33.567  10.293  11.461
62025W        W30366  33.075   7.910  13.535
62026W        W30367   1.818   4.847   1.904
62027W        W30368  13.336  41.925   1.750
62028W        W30369  36.048  15.313   2.855
62029W        W30370  27.076  29.162  10.913
62030W        W30371  34.002  32.964  14.895
62031W        W30372  20.093  22.017   0.931
62032W        W30373  34.935  19.160   0.448
62033W        W30374  36.525  36.592   0.782
62034W        W30375  16.308  18.759   2.293
62035W        W30376  24.616  33.485  13.907
62036W        W30377  21.184  31.139  14.874
62037W        W30378  36.866   6.316   3.829
62038W        W30379  38.883   5.258  11.580
62039W        W30380  28.434  25.115   5.275
62040W        W30381  40.906   8.354   1.252
62041W        W30382  21.211  43.001   1.339
62042W        W30383  27.543  44.949  12.051
62043W        W30384  37.000  15.652  11.598
62044W        W30385  12.757  42.792  11.482
62045W        W30386  30.525  10.745   4.601
62046W        W30387  44.865  44.442   1.914
62047W        W30388  20.141  36.089  13.548
62048W        W30389  21.036  30.011  11.483
62049W        W30390  10.383  14.126  10.008
62050W        W30391   1.949  21.596  12.857
62051W        W30392  44.793  35.066   1.867
62052W        W30393   5.326  13.626  14.005
62053W        W30394  36.476  19.241   3.315
62054W        W30395  34.953  10.193   0.305
62055W        W30396  19.269   3.319   3.660
62056W        W30397  39.056   4.713  11.485
62057W        W30398  13.326   7.670  10.478
62058W        W30399  38.839  34.119  11.925
62059W        W30400  18.168  34.117   3.238
62060W        W30401   5.418  24.973  13.515
62061W        W30402   0.424  21.021  13.916
62062W        W30403  33.971  13.343   3.755
62063W        W30404  17.271  40.029  11.993
62064W        W30405  13.319   6.876   2.879
62065W        W30406  30.641  25.963   1.304
62066W        W30407  41.324  11.824   4.786
62067W        W30408  25.648  33.101   2.768
62068W        W30409  42.872  18.178  11.007
62069W        W30410  31.976   3.288  10.956
62070W        W30411  14.242  34.019  12.481
62071W        W30412  20.265  20.246   0.463
62072W        W30413  17.083  33.550   2.252
62073W        W30414  15.820  30.001  14.365
62074W        W30415   2.917  26.190  11.512
62075W        W30416  44.872  13.697   2.888
62076W        W30417   1.324  31.509   2.194
62077W        W30418   9.795  18.766  13.800
62078W        W30419  26.208  42.400   2.804
62079W        W30420  44.464  41.794   1.430
62080W        W30421   8.200  13.238  12.045
62081W        W30422  27.598   2.286   0.379
62082W        W30423  25.501  34.433   1.899
62083W        W30424  32.023  28.538   1.920
62084W        W30425  35.080  38.350  11.950
62085W        W30426  32.441  16.269   2.879
62086W        W30427  37.456  16.279  10.450
62087W        W30428   8.294  35.497  12.470
62088W        W30429  34.024  38.367   4.166
62089W        W30430  42.849  17.276   1.816
62090W        W30431  25.611  35.406  14.338
62091W        W30432  13.288  43.975   3.247
62092W        W30433   4.907  12.296   0.430
62093W        W30434  13.220   4.272   3.355
62094W        W30435  42.817   4.848  14.770
62095W        W30436  15.121  21.581  11.942
62096W        W30437  39.048   9.807  11.938
62097W        W30438  23.669  15.684   1.350
62098W        W30439  21.713   9.295   2.349
62099W        W30440  27.658  24.672   2.319
62100W        W30441  30.094  40.970   4.634
62101W        W30442  13.219   9.336   4.243
62102W        W30443   2.453  38.038   2.222
62103W        W30444  38.570  25.649  10.490
62104W        W30445   7.186  25.986  14.998
62105W        W30446  11.227  28.996  13.854
62106W        W30447  43.342  35.076   0.765
62107W        W30448  35.860  32.984  10.416
62108W        W30449   4.944  31.017   0.470
62109W        W30450  18.112  26.015  12.958
62110W        W30451   6.754  44.388  12.912
62111W        W30452  42.923  15.125  11.944
62112W        W30453  31.024  36.954  12.828
62113W        W30454  21.155  25.108  11.530
62114W        W30455  29.545  12.628  11.376
62115W        W30456  30.588  15.662   4.241
62116W        W30457  31.927  30.035  13.045
62117W        W30458  19.642  40.419  11.983
62118W        W30459  21.179   4.368   3.260
62119W        W30460   4.749  22.190   4.634
62120W        W30461  29.990  23.620  12.427
62121W        W30462   5.808  16.293  13.438
62122W        W30463  16.706  43.446   2.239
62123W        W30464  44.314  21.625  11.481
62124W        W30465  41.908   6.285  11.540
62125W        W30466  41.001  29.525  10.426
62126W        W30467  26.204  30.628  10.482
62127W        W30468   3.780  23.161   4.150
62128W        W30469  16.580   5.709  10.476
62129W        W30470  40.452  10.746  11.116
62130W        W30471  31.106  31.118  11.482
62131W        W30472   3.356  12.641   1.835
62132W        W30473   5.797  40.320  14.330
62133W        W30474  29.586  13.272   0.888
62134W        W30475  33.969  22.216  12.495
62135W        W30476  34.049  25.516   2.876
62136W        W30477   1.873  23.133   1.233
62137W        W30478  17.654  23.620   0.325
62138W        W30479  19.150  37.562  12.943
62139W        W30480  22.076  15.681   0.753
62140W        W30481  25.215  36.959  10.429
62141W        W30482  16.315  36.979   3.194
62142W        W30483  17.133  13.251   3.314
62143W        W30484  39.828  32.944   1.789
62144W        W30485   9.780   7.799   4.189
62145W        W30486  20.146   6.918   4.206
62146W        W30487  38.927  34.520  11.403
62147W        W30488  27.552  35.000   1.274
62148W        W30489  15.742  32.586  13.411
62149W        W30490  36.446  24.722  14.414
62150W        W30491  36.537  22.629   0.809
62151W        W30492  31.939  33.618  12.540
62152W        W30493  39.939  23.596  14.425
62153W        W30494   0.947   6.860  11.548
62154W        W30495  21.740   9.160  14.373
62155W        W30496  14.288  12.841   0.915
62156W        W30497  24.692  17.673  11.948
62157W        W30498  33.559  23.502   3.269
62158W        W30499  11.338  20.220  11.100
62159W        W30500  19.549  26.580   3.687
62160W        W30501  19.535  15.100   3.383
62161W        W30502   4.333  23.191   0.727
62162W        W30503  23.000  42.796  12.375
62163W        W30504  22.634  34.933   0.944
62164W        W30505   1.913  17.111   3.737
62165W        W30506  11.168   5.913   1.211
62166W        W30507  22.122  20.718   4.136
62167W        W30508  17.645  23.629   4.167
62168W        W30509  30.541  26.951   4.167
62169W        W30510   9.186   1.429   3.146
62170W        W30511  24.542  28.518   4.819
62171W        W30512  13.328  30.024  10.989
62172W        W30513  30.576  37.841  10.934
62173W        W30514  23.698  16.128  13.499
62174W        W30515  32.983  20.629  13.037
62175W        W30516  24.157  24.631  14.858
62176W        W30517  35.012  26.597   1.750
62177W        W30518  30.134  14.695  10.408
62178W        W30519  15.226  35.440  12.358
62179W        W30520  37.466  16.688   3.662
62180W        W30521  25.014  19.228  12.371
62181W        W30522  28.483   4.709   0.257
62182W        W30523  13.739  44.423   2.332
62183W        W30524  13.265   5.782   4.235
62184W        W30525  28.934  24.126   2.185
62185W        W30526  42.377  11.373   0.389
62186W        W30527  19.198  41.946  11.931
62187W        W30528  18.255  39.443  13.459
62188W        W30529  41.876  43.002  12.970
62189W        W30530  20.627  29.605   2.868
62190W        W30531   0.268  33.552  14.899
62191W        W30532  42.905  13.217  11.093
62192W        W30533  36.944  34.937  12.384
62193W        W30534  36.389   4.755  14.419
62194W        W30535  23.549  34.115   0.763
62195W        W30536  20.123  32.135  13.794
62196W        W30537  25.060  40.393  13.542
62197W        W30538  37.052   4.268   3.789
62198W        W30539  38.423  16.711  11.535
62199W        W30540  23.556  37.440  14.512
62200W        W30541  17.685  39.534  10.462
62201W        W30542  20.057   7.724  10.473
62202W        W30543  30.957  18.751   4.783
62203W        W30544   6.772  21.129  10.001
62204W        W30545  17.792  22.670   0.304
62205W        W30546  29.478   8.308  13.522
62206W        W30547  14.709   8.657   5.281
62207W        W30548  36.543   2.893   1.885
62208W        W30549   9.391  40.029   0.738
62209W        W30550  23.576  33.991  13.890
62210W        W30551  13.735  43.399   1.721
62211W        W30552  31.936  31.634   4.147
62212W        W30553  18.716  36.463   0.283
62213W        W30554  30.949  13.620  11.949
62214W        W30555  23.699  35.063   1.212
62215W        W30556   7.370  17.137  14.503
62216W        W30557  17.112   6.359   3.220
62217W        W30558  14.281  34.929   0.880
62218W        W30559  16.131  40.445   2.419
62219W        W30560  44.497  11.703  13.508
62220W        W30561  28.436  23.172   3.387
62221W        W30562   6.798  22.047  12.441
62222W        W30563  22.697  30.087   4.771
62223W        W30564  11.148  30.025  11.388
62224W        W30565  26.683  37.479  12.427
62225W        W30566  36.845   7.212  14.294
62226W        W30567  14.739   8.750   2.817
62227W        W30568  33.025  25.666   4.831
62228W        W30569  21.746  41.798  11.027
62229W        W30570   3.400   0.362   2.236
62230W        W30571  31.495  13.231   0.246
62231W        W30572  23.991  18.228  10.901
62232W        W30573  13.177  22.525  13.860
62233W        W30574  37.064   7.185  14.796
62234W        W30575  28.636  44.781   4.290
62235W        W30576  10.650  14.657  13.012
62236W        W30577  27.175  28.001   3.238
62237W        W30578  38.974  29.012  12.881
62238W        W30579  11.153  20.170  12.405
62239W        W30580  42.486  41.302  10.466
62240W        W30581  24.479  12.829   2.690
62241W        W30582  30.440  33.954   3.382
62242W        W30583  23.012  39.444   4.244
62243W        W30584  17.781   6.772   0.287
62244W        W30585  39.996  33.875  14.909
62245W        W30586   6.357  16.579   0.293
62246W        W30587   7.185  16.127  11.864
62247W        W30588  26.063  33.983   4.718
62248W        W30589  35.085   8.392  13.960
62249W        W30590  14.756  26.508   4.238
62250W        W30591  29.058  12.727   0.728
62251W        W30592  41.407   3.824   4.266
62252W        W30593  12.827  23.633  13.819
62253W        W30594  27.186  20.726  10.925
62254W        W30595  44.799  29.462   4.658
62255W        W30596  37.971  36.952  11.606
62256W        W30597   0.967   6.388   3.147
62257W        W30598  17.647  29.090  10.583
62258W        W30599   7.207  36.097   2.850
62259W        W30600  28.138  37.508  14.786
62260W        W30601  25.625  13.317   3.676
62261W        W30602  31.943   5.276  11.489
62262W        W30603   6.311  15.328   4.211
62263W        W30604  33.559  27.524  11.104
62264W        W30605  15.194  12.664  14.830
62265W        W30606  23.581  16.714  14.484
62266W        W30607   8.846  44.385  14.341
62267W        W30608  22.061  29.077  12.854
62268W        W30609  41.853  33.496   4.298
62269W        W30610  36.849   2.938   4.189
62270W        W30611  11.348  44.476  10.529
62271W        W30612  21.018  15.641   4.674
62272W        W30613  40.937  29.974   1.250
62273W        W30614  31.027  41.904  14.345
62274W        W30615   2.300  20.069   1.331
62275W        W30616  24.510  30.612   2.753
62276W        W30617  10.815  37.964  13.871
62277W        W30618  38.067  27.049  12.481
62278W        W30619   7.754  11.215  10.941
62279W        W30620  30.587   6.299   0.311
62280W        W30621  21.736  41.016  10.569
62281W        W30622  34.061  17.261  12.936
62282W        W30623  13.805   0.938  12.963
62283W        W30624  30.144   3.331  12.429
62284W        W30625  40.009  29.923  12.536
62285W        W30626  35.910   9.668   3.750
62286W        W30627  16.770   5.733  12.459
62287W        W30628  36.996  15.786  14.407
62288W        W30629   5.399   7.205   1.701
62289W        W30630   2.803   5.776   0.466
62290W        W30631  23.234  39.918  12.370
62291W        W30632   3.759   8.830   0.366
62292W        W30633  33.473  11.791   4.711
62293W        W30634  27.019  41.382  14.364
62294W        W30635  34.072   3.278   1.916
62295W        W30636  36.434  44.307   5.186
62296W        W30637  29.095  10.691  13.959
62297W        W30638   2.340   2.435  14.380
62298W        W30639  37.047  26.147  12.926
62299W        W30640  13.703   9.691   1.450
62300W        W30641  12.658  41.878  14.454
62301W        W30642  18.552   7.713   2.255
62302W        W30643  36.989  31.502  14.790
62303W        W30644  27.606   3.749   1.427
62304W        W30645  38.014  22.146  11.105
62305W        W30646  36.994  11.346   3.674
62306W        W30647   7.811  36.039   2.862
62307W        W30648  37.487  24.191   3.332
62308W        W30649  34.071  25.211  14.957
62309W        W30650  25.031  38.070  10.535
62310W        W30651  14.152  37.056  11.550
62311W        W30652  27.667  29.589   2.182
62312W        W30653   8.763  21.561   2.415
62313W        W30654   3.731  28.668   0.475
62314W        W30655  12.157  23.566  13.358
62315W        W30656  23.715  16.734  14.005
62316W        W30657  15.613  19.758  10.148
62317W        W30658  35.038   6.809   3.854
62318W        W30659  11.230  37.068   3.294
62319W        W30660  40.356  33.944  11.576
62320W        W30661  22.008  11.672  14.921
62321W        W30662  22.623  18.071  12.479
62322W        W30663   5.745  20.257  14.820
62323W        W30664  20.032  38.903   2.178
62324W        W30665  28.124  25.602  14.840
62325W        W30666  33.455  13.620  11.126
62326W        W30667  25.185   1.237  14.831
62327W        W30668  12.337  31.984   4.283
62328W        W30669   5.229   6.215  12.938
62329W        W30670  25.568  12.334  12.515
62330W        W30671  10.687   4.396   2.287
62331W        W30672   6.406   6.249  12.492
62332W        W30673   8.833  21.169   4.292
62333W        W30674  30.513  35.900   2.881
62334W        W30675   8.311  30.963   2.389
62335W        W30676  37.484  21.527  14.883
62336W        W30677  32.493  44.460  12.529
62337W        W30678  43.819   8.160   3.651
62338W        W30679  12.851  44.455  14.432
62339W        W30680  12.197  38.481   3.246
62340W        W30681  38.571  21.188  11.981
62341W        W30682  17.127   5.776  14.768
62342W        W30683   5.747  29.982  12.877
62343W        W30684  12.655   7.331  12.356
62344W        W30685   7.322   7.373   0.877
62345W        W30686   5.229  31.116  13.369
62346W        W30687  14.776  22.058  10.609
62347W        W30688  39.486   0.783  10.533
62348W        W30689  22.613   0.775   1.219
62349W        W30690   1.796  13.667  11.963
62350W        W30691  33.043  32.520   2.347
62351W        W30692  18.773   1.756   0.968
62352W        W30693  42.356   4.809  10.502
62353W        W30694   9.732  21.147   3.701
62354W        W30695  42.865  26.586  10.639
62355W        W30696  20.683  38.354   2.220
62356W        W30697  19.177   8.295  13.411
62357W        W30698  44.327  40.380  13.047
62358W        W30699  43.370  11.131   3.739
62359W        W30700  29.536  30.083   2.316
62360W        W30701  23.569  44.781   2.192
62361W        W30702  34.115  41.036   1.359
62362W        W30703  36.084  44.428  13.365
62363W        W30704  31.955   4.875  10.567
62364W        W30705  43.411  26.110  11.434
62365W        W30706   2.380   2.918   4.322
62366W        W30707   7.875  21.550   1.894
62367W        W30708  20.640  42.428  11.913
62368W        W30709  26.990   6.216   3.153
62369W        W30710   8.270  13.320   3.370
62370W        W30711   2.252  34.900   5.316
62371W        W30712  29.109  41.314  10.957
62372W        W30713  23.550  19.240   1.782
62373W        W30714  10.293  26.956   9.970
62374W        W30715  42.333   2.757   2.218
62375W        W30716  29.630  36.041   4.182
62376W        W30717  38.001  40.974   4.804
62377W        W30718  20.226  26.137  13.528
62378W        W30719  37.051  30.962  13.464
62379W        W30720  43.008  40.931   4.253
62380W        W30721   6.676  13.178  11.520
62381W        W30722  29.058  25.000  14.485
62382W        W30723  15.086  23.187   0.467
62383W        W30724  15.130  18.075  12.038
62384W        W30725  31.593  14.283   2.308
62385W        W30726  31.986  44.009  12.898
62386W        W30727  33.986  15.709   3.259
62387W        W30728  17.599  18.112   1.344
62388W        W30729   7.695  26.547  14.434
62389W        W30730  38.051  24.059  13.867
62390W        W30731  34.387  17.577  10.915
62391W        W30732   0.488  40.821   1.749
62392W        W30733  16.090  30.130   2.665
62393W        W30734  26.122  40.398  13.958
62394W        W30735  32.932  43.925  13.349
62395W        W30736  38.465  40.812  12.438
62396W        W30737  37.445   8.174   4.201
62397W        W30738  39.981   1.944   2.810
62398W        W30739  18.603  40.493   0.404
62399W        W30740  41.930  24.166   1.824
62400W        W30741  31.135  15.113   4.718
62401W        W30742  38.945  40.415   1.838
62402W        W30743  24.116  22.109  11.503
62403W        W30744  35.449  17.089  14.917
62404W        W30745  15.663  34.944  12.881
62405W        W30746  11.755  43.779   2.718
62406W        W30747  41.295  29.665   3.209
62407W        W30748   9.743  28.063  11.587
62408W        W30749  20.222  19.717   1.368
62409W        W30750  11.769  33.114  10.510
62410W        W30751  36.991   9.181  10.892
62411W        W30752  39.432   1.395  14.030
62412W        W30753   4.252  28.494  12.485
62413W        W30754  41.394   5.735  10.475
62414W        W30755  39.032  31.974  11.883
62415W        W30756   8.891  26.999  13.874
62416W        W30757  22.189  19.633   1.740
62417W        W30758  11.808  38.819  12.919
62418W        W30759  16.087   8.775   4.180
62419W        W30760  31.591  17.734  12.343
62420W        W30761   8.250  39.486   4.653
62421W        W30762   1.956  18.563   5.149
62422W        W30763  42.974   7.855   0.289
62423W        W30764  30.502  13.195  14.429
62424W        W30765  29.433  20.626  12.861
62425W        W30766  24.561   8.175   0.245
62426W        W30767  37.888   6.752  11.982
62427W        W30768  20.716   6.681  14.465
62428W        W30769  23.178   0.873   1.253
62429W        W30770  20.182  27.488  14.981
62430W        W30771  43.946  16.227  13.023
62431W        W30772  33.420   2.261  11.114
62432W        W30773   3.870  32.909   1.449
62433W        W30774  15.738  10.367   2.360
62434W        W30775  18.145  11.753   2.791
62435W        W30776  37.982  29.477   1.886
62436W        W30777   7.271  36.965   0.471
62437W        W30778  33.118  34.996  12.981
62438W        W30779  34.028   0.786   4.761
62439W        W30780  23.090   0.870   1.858
62440W        W30781  16.233  10.339  13.852
62441W        W30782  26.580   7.283  11.450
62442W        W30783  27.650  11.313   3.202
62443W        W30784  19.062  11.143   4.781
62444W        W30785  19.659  28.475  14.506
62445W        W30786  14.218  33.548  12.459
62446W        W30787  29.042   4.400  14.508
62447W        W30788   3.837  29.578  13.308
62448W        W30789  17.278   4.336   1.695
62449W        W30790   4.326  44.991   1.404
62450W        W30791  35.004   0.356  10.492
62451W        W30792   7.392  11.807  12.403
62452W        W30793  34.539  23.066   2.755
62453W        W30794  30.080  16.131   0.887
62454W        W30795  11.171  40.483   2.669
62455W        W30796  25.032  43.478  14.360
62456W        W30797  35.064   0.473   1.375
62457W        W30798  35.524   4.792   4.631
62458W        W30799  32.009  11.253   0.384
62459W        W30800  29.140  22.100  13.001
62460W        W30801  15.790   7.172   5.133
62461W        W30802   1.446  17.704   5.192
62462W        W30803  37.437  28.027   0.400
62463W        W30804   3.837  38.930   3.688
62464W        W30805   3.385   1.756   3.687
62465W        W30806   8.221  38.333  11.098
62466W        W30807  43.871  12.655   4.140
62467W        W30808  12.626  43.374   3.852
62468W        W30809   1.295  41.507   2.891
62469W        W30810  33.583   3.907   0.360
62470W        W30811  28.138  34.513  12.455
62471W        W30812  41.466  13.315  14.859
62472W        W30813  20.750  42.472   4.715
62473W        W30814  33.504  15.184  13.446
62474W        W30815   7.365  43.009  13.045
62475W        W30816  42.014  36.030   0.730
62476W        W30817  20.657  41.344  12.940
62477W        W30818  14.792  36.942  12.437
62478W        W30819  23.032  12.657  12.503
62479W        W30820  44.816   0.378  13.881
62480W        W30821  24.573  19.700  12.528
62481W        W30822  33.110   9.789  13.516
62482W        W30823  35.447  35.438   0.905
62483W        W30824  37.484   9.155   3.681
62484W        W30825   7.854   1.961   4.256
62485W        W30826  43.764  40.402  14.953
62486W        W30827   9.729  41.042  11.378
62487W        W30828   7.345  17.220   1.759
62488W        W30829  31.095  33.066   1.244
62489W        W30830  35.517  11.200   3.828
62490W        W30831  44.902  32.953  14.279
62491W        W30832  21.180   1.926  12.466
62492W        W30833  31.945   4.438  12.067
62493W        W30834  22.072   5.326   3.685
62494W        W30835  16.607  17.721   1.227
62495W        W30836  34.528  20.239   1.703
62496W        W30837   6.787  43.012  12.038
62497W        W30838  22.176  17.622  12.043
62498W        W30839  21.039   1.854   1.767
62499W        W30840   1.394  10.365   1.844
62500W        W30841  36.563  41.854  13.321
62501W        W30842  26.541  38.059  13.535
62502W        W30843  26.073   4.771   9.976
62503W        W30844  15.092  44.426   4.681
62504W        W30845  34.573  30.491  14.975
62505W        W30846  31.982  21.210   2.330
62506W        W30847   1.369  41.454  13.064
62507W        W30848  20.657  43.859   3.370
62508W        W30849  37.004  12.637  13.821
62509W        W30850  35.441  43.950  14.820
62510W        W30851   6.796  26.997  11.446
62511W        W30852   8.766  43.309   0.937
62512W        W30853  29.108   4.276   0.375
62513W        W30854  22.089  12.333   4.757
62514W        W30855   7.839   0.475  14.331
62515W        W30856  22.502   6.291   4.725
62516W        W30857  19.235  21.115  12.920
62517W        W30858  37.444  21.155  11.896
62518W        W30859   5.209  34.979  12.511
62519W        W30860  35.507   3.937   1.236
62520W        W30861  28.593  40.006  14.929
62521W        W30862  10.153   1.331   4.826
62522W        W30863   5.423   9.738  14.373
62523W        W30864  38.360  27.989  13.813
62524W        W30865   3.909   0.982  10.991
62525W        W30866  36.540  18.779   2.306
62526W        W30867  18.553  26.004   2.810
62527W        W30868  19.255  22.166  11.467
62528W        W30869  25.102   0.286  11.541
62529W        W30870  43.329  40.897  14.386
62530W        W30871  41.511  35.973   2.232
62531W        W30872   8.793  44.305   4.248
62532W        W30873  18.052  35.441  10.933
62533W        W30874  13.759  22.593  11.983
62534W        W30875  43.939  20.216  14.432
62535W        W30876   0.901  14.120  10.963
62536W        W30877  21.668  16.314   1.268
62537W        W30878  21.533  42.303   4.765
62538W        W30879  43.313  24.008  12.452
62539W        W30880  37.449  28.941  13.431
62540W        W30881   9.272  34.976  14.452
62541W        W30882   7.773  39.481   1.448
62542W        W30883   2.870   8.713   3.757
62543W        W30884   2.386  21.187  11.548
62544W        W30885  35.104  37.398  14.387
62545W        W30886   3.256  29.023   4.785
62546W        W30887  20.652   9.662  10.604
62547W        W30888  29.505  22.107  12.536
62548W        W30889  14.172  11.850   4.154
62549W        W30890  30.497  30.637  14.802
62550W        W30891  11.719  15.133  12.912
62551W        W30892   0.759  13.269  12.084
62552W        W30893  42.033  43.421  14.004
62553W        W30894   0.254  44.925   0.301
62554W        W30895  44.939   3.909   2.673
62555W        W30896  29.522  42.858   2.224
62556W        W30897  44.885  39.447   0.827
62557W        W30898   9.873  18.073   2.833
62558W        W30899   5.198  40.410  13.852
62559W        W30900   6.780  13.657  14.438
62560W        W30901  18.674  32.450   3.149
62561W        W30902  43.454  37.553   4.666
62562W        W30903  18.676  18.071  13.910
62563W        W30904  23.491   8.838   1.211
62564W        W30905  32.461  34.418   3.800
62565W        W30906  38.444  10.376   2.664
62566W        W30907  42.028   0.336  14.509
62567W        W30908  12.637   7.762  12.842
62568W        W30909   3.329  32.590  11.871
62569W        W30910   5.687  35.919  14.900
62570W        W30911  25.145  32.491   1.889
62571W        W30912  43.309  21.087   0.247
62572W        W30913  44.936  40.950  11.949
62573W        W30914  35.982  20.645  11.542
62574W        W30915  23.162  17.744  10.018
62575W        W30916   5.745  41.829  11.416
62576W        W30917  27.172   7.843   3.150
62577W        W30918   4.226  40.438   4.621
62578W        W30919  11.138  40.485   3.280
62579W        W30920  34.904  28.536   1.809
62580W        W30921  40.342   3.375  12.519
62581W        W30922  38.431  17.764   1.792
62582W        W30923   6.221  44.964   0.313
62583W        W30924  19.251  15.104   0.388
62584W        W30925   5.296  43.866  12.857
62585W        W30926  31.154  39.865  12.398
62586W        W30927  16.593  39.997  10.415
62587W        W30928  32.475  44.478  14.897
62588W        W30929   0.492  43.857   0.775
62589W        W30930   8.853  36.579   0.793
62590W        W30931  28.567  20.768  11.403
62591W        W30932  21.564  14.663  12.579
62592W        W30933   3.408   2.833  10.484
62593W        W30934  34.586  10.778   2.383
62594W        W30935  15.186  16.612  11.863
62595W        W30936   4.354  30.152  12.580
62596W        W30937  16.652  44.322  12.474
62597W        W30938  12.196  28.572   3.870
62598W        W30939  22.149  12.836   2.841
62599W        W30940   3.416  32.416   4.161
62600W        W30941   9.884   4.847  14.788
62601W        W30942  35.885  27.161   1.725
62602W        W30943  44.310  34.567  13.977
62603W        W30944   2.798  25.480  13.521
62604W        W30945  40.476  16.618   3.326
62605W        W30946  35.871  35.366  13.405
62606W        W30947   4.238  18.706  14.881
62607W        W30948  28.129  33.461  13.826
62608W        W30949  13.178  22.527   0.752
62609W        W30950  20.741  10.158  11.030
62610W        W30951  10.746  30.948  14.837
62611W        W30952  27.950  26.619  14.472
62612W        W30953   9.646  21.156   4.803
62613W        W30954   6.422  35.527  10.631
62614W        W30955  21.645   3.358  14.385
62615W        W30956  19.659   4.433   4.215
62616W        W30957  38.820  43.441   4.343
62617W        W30958  20.271  40.032   2.415
62618W        W30959  23.993  17.572   1.302
62619W        W30960  23.591  27.518   1.275
62620W        W30961  28.005  17.652   4.688
62621W        W30962  13.275  32.458  12.828
62622W        W30963  22.681  32.603   1.316
62623W        W30964  32.431  18.294   1.741
62624W        W30965   5.715  15.280  11.994
62625W        W30966  39.388  12.188  11.394
62626W        W30967  34.457  10.836   1.783
62627W        W30968  37.418   3.220  11.546
62628W        W30969   5.294  38.426   2.892
62629W        W30970  38.396   8.802   0.930
62630W        W30971   2.409   8.257   2.746
62631W        W30972  33.623  41.494   1.847
62632W        W30973   5.694  11.169  12.876
62633W        W30974  27.188  12.782  10.528
62634W        W30975   6.876  42.907  13.488
62635W        W30976  30.652  17.766  14.873
62636W        W30977  10.834  16.621  14.465
62637W        W30978   8.697  37.367   4.317
62638W        W30979  26.465  19.677   2.314
62639W        W30980   0.972  11.287   2.780
62640W        W30981  30.100  36.843  12.935
62641W        W30982   5.419  37.006   4.150
62642W        W30983  19.137  35.947   0.814
62643W        W30984  21.105  15.147  14.467
62644W        W30985  12.779   7.283   0.248
62645W        W30986  42.905  43.284   4.310
62646W        W30987  44.261  11.244   2.410
62647W        W30988  22.527  32.451   3.198
62648W        W30989  27.025   4.919  14.488
62649W        W30990  10.687   9.353   0.248
62650W        W30991  28.620  44.988  13.511
62651W        W30992  19.694  32.925  10.476
62652W        W30993  13.755  37.832  10.598
62653W        W30994  43.002   9.340   4.708
62654W        W30995  25.509  24.985   0.390
62655W        W30996  13.750  39.451   5.125
62656W        W30997  21.195  43.767   2.269
62657W        W30998   1.446  41.439   1.435
62658W        W30999   8.315  16.677   0.881
62659W        W31000  10.255  24.213  10.918
62660W        W31001  18.779  31.424  10.920
62661W        W31002  10.259  27.999  11.856
62662W        W31003  28.552   9.697   2.271
62663W        W31004  21.169  35.545  11.019
62664W        W31005  28.644  16.770   3.765
62665W        W31006   7.317  35.855  12.424
62666W        W31007  16.765  10.844   0.843
62667W        W31008  28.495  23.218  10.956
62668W        W31009  11.788   2.432   1.371
62669W        W31010  42.828   0.946  14.923
62670W        W31011  44.298   5.693  13.011
62671W        W31012  14.732  11.204  10.605
62672W        W31013  28.953  19.579   0.928
62673W        W31014   8.884  38.922  11.087
62674W        W31015  41.874   6.754   2.856
62675W        W31016  21.757   7.385  12.924
62676W        W31017  41.896  43.410   5.805
62677W        W31018  32.026  18.752   2.308
62678W        W31019  15.192  30.139   2.795
62679W        W31020   9.730  42.885   4.813
62680W        W31021  18.057  41.867   1.802
62681W        W31022  40.959  11.770   0.342
62682W        W31023  26.499  42.793  11.433
62683W        W31024  21.713  12.301   4.181
62684W        W31025  27.176  15.727  12.923
62685W        W31026  21.745  32.022   4.680
62686W        W31027   5.255  33.541   3.701
62687W        W31028   2.366  41.924  14.829
62688W        W31029  24.662  25.647   3.693
62689W        W31030  30.971  19.181  13.969
62690W        W31031  13.284  31.977   1.734
62691W        W31032  19.568  43.980  12.974
62692W        W31033  40.822  25.626  11.000
62693W        W31034  33.547  22.665   9.928
62694W        W31035  19.076  10.238  11.493
62695W        W31036  17.181  25.071  13.812
62696W        W31037  43.312  13.339   4.197
62697W        W31038  25.612  14.236   4.797
62698W        W31039  24.605  32.061   0.774
62699W        W31040  13.149   6.258   1.777
62700W        W31041  35.912   2.782  12.947
62701W        W31042  18.710  12.768   2.313
62702W        W31043  21.244   5.837   9.945
62703W        W31044  18.732  40.305  12.849
62704W        W31045  36.019  12.185   3.665
62705W        W31046  40.817  12.177  14.935
62706W        W31047  39.889  40.043   3.810
62707W        W31048  35.558   3.757   2.853
62708W        W31049  37.957  39.379   4.682
62709W        W31050  35.868  31.471   0.731
62710W        W31051  21.073  34.107  10.620
62711W        W31052  41.987  31.575   0.743
62712W        W31053  42.430  22.550   2.388
62713W        W31054   6.270   7.891   1.295
62714W        W31055  40.365   1.459  10.537
62715W        W31056  25.497  25.522   4.164
62716W        W31057  28.639  42.426  11.887
62717W        W31058   8.397   1.432   3.836
62718W        W31059   4.892  13.290   4.303
62719W        W31060  24.223  44.409  12.026
62720W        W31061  29.956  38.412   4.253
62721W        W31062  11.333  36.000  12.348
62722W        W31063   5.706   7.305  12.422
62723W        W31064   6.787   1.782   0.901
62724W        W31065  11.726  27.616   3.643
62725W        W31066  16.777  17.118   4.174
62726W        W31067  18.638  20.766  13.359
62727W        W31068  44.896   6.906   4.692
62728W        W31069   0.289   8.876  10.561
62729W        W31070  24.600  28.463  14.307
62730W        W31071  24.069   0.956  11.114
62731W        W31072  20.596  17.609   1.869
62732W        W31073  20.251  32.454   1.215
62733W        W31074  22.598  23.569   2.730
62734W        W31075  39.397  25.655  11.419
62735W        W31076  31.149  15.822   3.760
62736W        W31077   6.893   6.265   0.874
62737W        W31078  22.121  19.147  14.407
62738W        W31079  22.639  35.102   2.885
62739W        W31080  34.424  26.086  12.890
62740W        W31081  21.736   0.958   2.188
62741W        W31082  42.303  18.268   0.751
62742W        W31083  31.081  41.939  10.408
62743W        W31084  38.484  22.163  10.439
62744W        W31085  42.938  27.184   0.275
62745W        W31086  31.448  17.262   3.263
62746W        W31087  24.122   4.758  11.966
62747W        W31088  23.113  28.947   0.340
62748W        W31089  42.372   5.774  10.892
62749W        W31090   4.268   3.298   1.756
62750W        W31091  33.915  15.785  14.357
62751W        W31092  23.086  26.490   3.699
62752W        W31093  13.765   9.729  11.904
62753W        W31094  37.840  28.559   2.783
62754W        W31095  44.360  22.743  13.874
62755W        W31096  11.644  43.893   3.178
62756W        W31097  29.568  34.038   1.395
62757W        W31098  15.684  32.031  14.884
62758W        W31099  23.511  16.118   1.764
62759W        W31100  44.976  15.652  10.605
62760W        W31101  37.399  33.399   4.664
62761W        W31102  15.743  41.496   1.824
62762W        W31103  18.781  17.788   3.376
62763W        W31104  33.516   2.430   4.743
62764W        W31105  29.114  41.429   4.287
62765W        W31106  41.996  26.119   0.315
62766W        W31107  30.458  14.735  10.513
62767W        W31108  14.162  24.538   3.865
62768W        W31109  35.406  15.282  12.465
62769W        W31110  43.817  23.197   0.788
62770W        W31111  14.673  32.475   0.424
62771W        W31112  29.074  16.653  14.792
62772W        W31113  31.626  41.024  14.423
62773W        W31114  24.685  17.619   2.846
62774W        W31115   7.727  14.632   4.726
62775W        W31116  40.818  44.803   1.260
62776W        W31117  20.239  30.565  11.003
62777W        W31118  13.147  14.297   2.775
62778W        W31119  10.207  39.460  13.867
62779W        W31120  31.915  26.037   0.269
62780W        W31121  24.017   3.258   0.264
62781W        W31122   5.257  10.865   3.298
62782W        W31123  36.385  39.469   3.748
62783W        W31124  31.960   5.856  13.467
62784W        W31125  22.008  20.712  11.967
62785W        W31126  43.770  26.089   2.379
62786W        W31127  16.204   2.811  10.575
62787W        W31128  40.809  41.878  12.345
62788W        W31129  27.080  36.041   3.306
62789W        W31130  33.054  33.943   2.854
62790W        W31131  22.654  32.901   4.249
62791W        W31132   0.405  20.208   2.818
62792W        W31133  31.100  27.680  14.959
62793W        W31134  11.665   0.429  14.021
62794W        W31135  12.674   2.899   0.428
62795W        W31136  10.242   6.914  14.954
62796W        W31137  42.006  41.971   4.666
62797W        W31138  34.512   0.330   4.634
62798W        W31139  12.790  15.279  13.479
62799W        W31140  23.233  38.426   0.835
62800W        W31141  17.701   0.925   0.446
62801W        W31142  33.616   5.859  12.076
62802W        W31143  32.598  31.606  11.381
62803W        W31144   8.164  43.812  11.970
62804W        W31145  19.548  23.725  10.969
62805W        W31146   4.235  40.878   1.264
62806W        W31147  42.905  16.271   0.343
62807W        W31148   8.804  16.311  10.635
62808W        W31149   8.679  25.553  11.967
62809W        W31150   0.475  42.513   0.822
62810W        W31151   9.663   5.253  11.931
62811W        W31152  14.170  18.600   4.329
62812W        W31153  37.577  18.065  14.788
62813W        W31154   7.334  22.149  11.957
62814W        W31155  19.146  26.123   4.821
62815W        W31156  28.504   0.897  14.802
62816W        W31157  43.964   5.878   4.224
62817W        W31158  16.161  21.151   2.276
62818W        W31159  27.666   1.319  13.476
62819W        W31160  18.781  30.006   1.237
62820W        W31161  43.363   2.469  10.418
62821W        W31162   1.788   0.421  12.353
62822W        W31163  19.756  33.096   2.715
62823W        W31164  32.887  11.291   1.840
62824W        W31165  29.000   0.866   3.352
62825W        W31166  28.067   2.846   4.667
62826W        W31167  32.950  21.629  13.003
62827W        W31168  21.733  36.875  14.958
62828W        W31169  36.590  20.537   2.662
62829W        W31170  28.462  43.378  13.324
62830W        W31171  35.854  34.611  14.781
62831W        W31172  12.265   1.265  14.487
62832W        W31173  42.949  39.538   2.259
62833W        W31174  33.396  17.216  10.460
62834W        W31175  19.170  42.966   5.100
62835W        W31176  28.947   1.840   0.842
62836W        W31177   9.204   5.302  14.834
62837W        W31178   9.157  40.380  13.950
62838W        W31179  36.920   1.413  14.460
62839W        W31180  42.001   6.232  14.357
62840W        W31181  18.056  20.760  10.969
62841W        W31182  26.559   5.297  10.424
62842W        W31183  31.147  28.176   3.818
62843W        W31184  38.055  43.282   0.740
62844W        W31185  22.551  16.308  11.035
62845W        W31186  12.781   1.388   2.392
62846W        W31187   8.315  19.719  14.350
62847W        W31188  25.657  30.047   2.780
62848W        W31189   1.900  44.430  11.469
62849W        W31190  29.127  23.167  13.490
62850W        W31191  16.264   6.416   3.859
62851W        W31192  13.767   5.899  13.858
62852W        W31193  33.618   1.905  10.605
62853W        W31194   4.414  16.295   3.231
62854W        W31195  10.687  37.938  12.426
62855W        W31196  17.764   0.314   0.276
62856W        W31197  37.893  41.397   2.735
62857W        W31198   0.267  23.171  11.598
62858W        W31199   2.731  42.895  10.491
62859W        W31200  10.852   1.867  13.372
62860W        W31201  39.481  32.996   1.396
62861W        W31202  41.458  37.900   1.386
62862W        W31203  15.610  36.513   2.825
62863W        W31204  23.542  30.541  12.358
62864W        W31205  14.326   6.779   0.261
62865W        W31206  11.358  31.051   0.438
62866W        W31207  33.119  18.276  14.788
62867W        W31208  36.588  10.365  10.603
62868W        W31209   7.828  34.009   3.167
62869W        W31210  38.873  18.755  13.013
62870W        W31211  17.187  26.099  10.462
62871W        W31212  38.419  30.995  13.954
62872W        W31213  22.685   9.776  12.914
62873W        W31214  33.055  34.109  14.980
62874W        W31215  35.852  42.440  11.918
62875W        W31216   2.391  31.645  13.312
62876W        W31217  37.340  23.724   0.752
62877W        W31218   5.306   2.246   4.641
62878W        W31219  39.429  41.795   2.276
62879W        W31220  27.984   4.331   0.382
62880W        W31221  39.386   2.721   3.694
62881W        W31222   1.386  23.099  11.109
62882W        W31223  24.506  33.062  13.494
62883W        W31224  31.971  22.090  14.287
62884W        W31225  40.484  31.615  13.434
62885W        W31226  33.468  27.160   3.209
62886W        W31227   2.403  22.055  14.980
62887W        W31228  26.078  27.031   0.430
62888W        W31229   0.772  30.453  10.469
62889W        W31230   1.297  44.481   2.295
62890W        W31231   3.776  15.155  14.962
62891W        W31232  19.143   8.714  10.627
62892W        W31233  26.550   9.683  11.094
62893W        W31234  11.725   9.864   0.890
62894W        W31235  16.180  12.722  12.520
62895W        W31236  35.461  36.844   3.263
62896W        W31237  18.578  28.559   2.226
62897W        W31238  17.578  40.038   2.410
62898W        W31239  14.809  39.016  11.952
62899W        W31240  21.205   6.903   3.313
62900W        W31241  20.153   0.850   4.772
62901W        W31242  29.148  13.753  12.520
62902W        W31243  25.140  11.674   1.399
62903W        W31244   0.792  31.495  13.025
62904W        W31245  41.874  42.778   0.943
62905W        W31246  40.425  24.493   4.783
62906W        W31247  24.628  44.269  11.520
62907W        W31248  21.031   0.747  13.474
62908W        W31249  32.935  39.047  12.432
62909W        W31250   6.318  20.727   2.279
62910W        W31251   1.381  37.997  10.516
62911W        W31252  14.616  22.544   0.454
62912W        W31253  28.042  34.103   3.170
62913W        W31254   1.339  20.154   2.718
62914W        W31255  25.967   2.338   3.376
62915W        W31256   6.294   5.397   1.914
62916W        W31257  42.450  30.098   2.294
62917W        W31258  32.453   4.335  12.877
62918W        W31259   9.258  20.099  10.586
62919W        W31260   3.425  34.436  13.957
62920W        W31261  36.875  27.637   0.368
62921W        W31262  25.575   9.647   3.739
62922W        W31263  21.162  34.598   4.636
62923W        W31264  21.603  35.055   2.717
62924W        W31265   5.916   1.920   3.707
62925W        W31266  15.775  37.466  14.029
62926W        W31267  12.235  10.638  14.807
62927W        W31268  17.560  19.143   0.776
62928W        W31269  21.526  13.109   3.321
62929W        W31270  38.331   7.868   0.352
62930W        W31271  11.370  22.216  11.948
62931W        W31272  15.305  44.412  10.501
62932W        W31273  14.697   8.664  11.502
62933W        W31274  18.569  33.060   0.442
62934W        W31275  44.932  43.435  13.992
62935W        W31276  37.449   0.964  11.964
62936W        W31277  17.636  38.833  14.884
62937W        W31278  28.933  39.498  11.922
62938W        W31279  44.402  11.211   1.763
62939W        W31280  24.183   7.258   0.785
62940W        W31281  24.684  26.059   4.683
62941W        W31282   2.458  20.124  11.456
62942W        W31283  26.087  20.715  14.290
62943W        W31284   8.183  34.604   3.713
62944W        W31285  10.810  39.978   1.814
62945W        W31286  27.964  43.801  11.889
62946W        W31287  32.043  34.368  10.427
62947W        W31288  28.109  33.899   1.814
62948W        W31289  43.273  23.507   1.347
62949W        W31290  31.032  25.214   1.314
62950W        W31291  15.797  23.562   2.749
62951W        W31292  27.003   8.680  12.547
62952W        W31293  19.683  24.682  11.900
62953W        W31294  25.189  10.282  12.889
62954W        W31295  12.120  41.484  13.922
62955W        W31296  24.157   4.704   1.731
62956W        W31297   9.875  18.183  10.911
62957W        W31298  44.796  37.375   0.837
62958W        W31299  11.750  20.084   2.696
62959W        W31300  36.947  36.900   1.777
62960W        W31301  43.971   4.212   3.695
62961W        W31302   7.859   7.713  13.497
62962W        W31303   5.742  15.679   0.773
62963W        W31304  33.571  19.140  12.868
62964W        W31305  35.598  26.069  14.920
62965W        W31306  35.852  36.387  14.899
62966W        W31307  23.590  26.598   0.251
62967W        W31308   9.689  11.675   9.479
62968W        W31309  30.958   9.658  11.102
62969W        W31310  36.376  21.622  12.958
62970W        W31311  11.309  30.964   3.767
62971W        W31312  14.619   5.312   3.146
62972W        W31313  22.572  29.929   4.328
62973W        W31314  12.708  25.660  12.488
62974W        W31315  22.224   7.348  10.460
62975W        W31316   4.927  21.558   4.742
62976W        W31317   6.270  40.958   0.839
62977W        W31318  15.312  28.950  12.835
62978W        W31319   5.199  39.050   2.393
62979W        W31320  42.521  18.225  13.833
62980W        W31321  31.932  31.921  11.469
62981W        W31322  39.985  26.201  11.902
62982W        W31323   9.801  24.683   4.206
62983W        W31324  11.752  16.277   1.699
62984W        W31325   6.208  39.060   4.780
62985W        W31326  11.187  37.400  13.801
62986W        W31327   0.485  43.948  11.391
62987W        W31328  28.579  27.146   4.151
62988W        W31329  27.647  11.864  14.291
62989W        W31330  18.726  10.232   0.865
62990W        W31331  10.222  35.440   1.243
62991W        W31332  11.737   8.874   1.814
62992W        W31333  21.192  11.166   2.741
62993W        W31334  25.636  12.239   4.221
62994W        W31335  37.022  17.112  12.370
62995W        W31336  23.156  25.541  13.935
62996W        W31337   0.268   4.851   4.240
62997W        W31338  30.064  38.859  14.310
62998W        W31339  32.399  22.095  11.487
62999W        W31340  41.499   5.402   2.723
63000W        W31341  17.103  26.128   2.701
63001W        W31342   2.794  20.631  12.496
63002W        W31343  31.595  28.478   4.684
63003W        W31344  15.727  44.474   3.346
63004W        W31345  35.513  18.107  13.339
63005W        W31346  23.178  31.445  14.404
63006W        W31347   8.278  25.653   2.310
63007W        W31348  18.656  38.424   3.712
63008W        W31349  43.852  36.440  12.944
63009W        W31350  24.634  21.728  13.326
63010W        W31351  20.112   0.473   0.462
63011W        W31352  31.099   0.255   3.337
63012W        W31353  22.534  21.165  10.409
63013W        W31354  16.628  20.758   5.152
63014W        W31355  12.617  25.558  12.088
63015W        W31356   1.458   2.754   4.829
63016W        W31357   0.895  35.410  14.805
63017W        W31358   2.959  39.814   3.242
63018W        W31359   0.387  20.573   5.257
63019W        W31360  36.448  10.834   4.824
63020W        W31361   0.818  34.001   4.717
63021W        W31362  42.447  28.168  14.007
63022W        W31363  13.682  18.203   4.722
63023W        W31364  22.185  20.748  11.081
63024W        W31365  40.314  38.070   0.275
63025W        W31366  23.168  25.103  10.515
63026W        W31367  34.975   6.731   0.887
63027W        W31368  18.114  21.685  13.818
63028W        W31369  41.834   8.258   4.682
63029W        W31370  21.032  13.806   3.790
63030W        W31371  27.006  37.465   2.790
63031W        W31372  25.093   3.444   0.898
63032W        W31373  12.230  28.584   0.295
63033W        W31374   2.742  25.703  14.342
63034W        W31375  30.558   7.313   1.408
63035W        W31376   5.825  14.111  10.458
63036W        W31377   1.964  24.646  10.564
63037W        W31378   3.908  39.894  12.928
63038W        W31379   0.848  36.548  10.979
63039W        W31380  14.210  24.229   3.366
63040W        W31381  12.673  39.341   4.204
63041W        W31382  12.123  33.958   2.287
63042W        W31383   3.305   0.823  14.816
63043W        W31384  37.892  42.833  11.443
63044W        W31385  31.994  17.268   4.184
63045W        W31386  27.669  29.979   2.872
63046W        W31387   6.747  33.033   0.824
63047W        W31388   5.794  31.420   0.418
63048W        W31389  10.704  12.206   1.367
63049W        W31390  32.921  35.462   1.826
63050W        W31391  11.789  36.414  13.420
63051W        W31392  14.800  12.721   0.787
63052W        W31393   0.917  29.962   4.347
63053W        W31394  11.318  19.763  14.983
63054W        W31395  42.479  24.555   3.629
63055W        W31396  36.566  38.448  11.100
63056W        W31397  21.747  17.190   4.262
63057W        W31398  15.639   8.873  13.533
63058W        W31399   9.311  34.984   0.375
63059W        W31400  38.533  25.004  12.081
63060W        W31401  23.097  34.999  13.818
63061W        W31402   7.711  27.037  13.854
63062W        W31403  42.776  38.341   1.913
63063W        W31404  44.499  15.741  13.016
63064W        W31405  11.312  11.136   4.797
63065W        W31406  42.436   6.907  11.583
63066W        W31407   9.215  19.615  10.469
63067W        W31408   1.392  13.350  11.090
63068W        W31409  25.194  28.477  12.097
63069W        W31410   3.256  30.560  12.909
63070W        W31411   5.823  35.530  14.967
63071W        W31412  13.345  11.196  11.976
63072W        W31413  24.558  11.190  10.503
63073W        W31414   8.790  44.969   1.828
63074W        W31415  28.011   0.488   3.867
63075W        W31416  29.930  42.518  12.492
63076W        W31417  14.827  26.189   2.778
63077W        W31418  27.154   8.868   2.864
63078W        W31419  33.499  44.450   5.141
63079W        W31420  37.999  35.560  14.765
63080W        W31421  23.728  37.893   3.671
63081W        W31422   3.326  24.055   1.756
63082W        W31423  40.444  36.388   1.278
63083W        W31424  38.472   6.867   3.805
63084W        W31425   0.844  41.402  10.644
63085W        W31426  34.104   3.838  11.444
63086W        W31427  40.887   1.423  13.976
63087W        W31428  32.451   1.962  10.931
63088W        W31429  19.156  21.737  14.778
63089W        W31430   6.908   7.182   1.292
63090W        W31431  10.276   3.738   0.911
63091W        W31432  28.461  30.069  10.966
63092W        W31433  36.364  24.159  10.894
63093W        W31434  41.006  33.106   3.721
63094W        W31435  19.050  23.084   0.276
63095W        W31436  31.410   2.310  12.058
63096W        W31437  19.588  42.896  11.457
63097W        W31438  11.157  34.594  13.474
63098W        W31439  22.124  44.287   4.303
63099W        W31440  38.043  31.929  14.378
63100W        W31441  29.629  29.043   3.690
63101W        W31442  14.275  21.704  13.507
63102W        W31443  38.954  30.417  12.079
63103W        W31444  42.459  17.088   0.412
63104W        W31445  35.383  13.790  13.527
63105W        W31446  22.015  14.127  14.015
63106W        W31447   1.384  41.977   1.845
63107W        W31448   6.774  24.707  11.996
63108W        W31449   7.347   1.779   3.706
63109W        W31450  40.463  44.353  10.001
63110W        W31451   7.785   3.878   1.413
63111W        W31452   8.851  44.969   2.352
63112W        W31453  44.496  14.203   0.773
63113W        W31454  15.634  19.226  10.428
63114W        W31455  15.147  11.684   3.714
63115W        W31456  28.600  11.235   0.462
63116W        W31457   2.441  40.844   0.304
63117W        W31458   5.271  37.434  14.275
63118W        W31459  39.429  43.397   9.451
63119W        W31460  25.049  11.244  14.019
63120W        W31461  19.707  26.595   1.280
63121W        W31462  38.333  25.168   0.402
63122W        W31463  40.324  41.831   5.296
63123W        W31464  42.792  41.351   0.445
63124W        W31465  38.915   6.216   0.445
63125W        W31466  32.540   2.408   2.738
63126W        W31467  11.623  34.425   0.764
63127W        W31468  16.750   9.326   4.709
63128W        W31469   6.425  13.806  14.031
63129W        W31470   9.201  35.080   4.691
63130W        W31471  10.172  44.967  14.329
63131W        W31472   1.327   4.838  13.019
63132W        W31473   6.211  40.850  13.950
63133W        W31474   3.374  11.709   3.848
63134W        W31475   6.723  43.777   2.340
63135W        W31476  24.163   4.345   0.816
63136W        W31477   7.236  11.296  11.034
63137W        W31478  27.495  27.574   4.271
63138W        W31479  12.798  37.937   5.136
63139W        W31480   2.828  42.480  12.348
63140W        W31481   8.699  27.155   1.435
63141W        W31482   3.940  16.315  14.510
63142W        W31483  10.348   4.263   2.247
63143W        W31484  19.679  10.811   2.762
63144W        W31485  21.075  40.306   2.253
63145W        W31486  31.020  36.942   3.188
63146W        W31487  31.910  37.440   1.916
63147W        W31488  22.236  25.963   1.919
63148W        W31489  29.492  20.270   0.303
63149W        W31490  10.817   9.802   4.247
63150W        W31491  17.760  36.559  13.487
63151W        W31492   8.220  39.477   0.879
63152W        W31493  15.782  27.582   9.986
63153W        W31494  15.584   2.964   4.671
63154W        W31495   7.908  12.806   1.903
63155W        W31496  13.812  27.662   3.228
63156W        W31497  36.986  37.376   1.880
63157W        W31498  11.207   8.852   3.298
63158W        W31499  27.460  23.499  12.922
63159W        W31500  17.623  11.244  10.422
63160W        W31501  39.509  31.114  12.083
63161W        W31502  43.462  42.863  14.802
63162W        W31503  42.894  27.103   3.772
63163W        W31504  11.768  10.853   0.281
63164W        W31505  12.242  30.152   1.866
63165W        W31506  21.124  36.557  10.442
63166W        W31507  34.972  43.838   3.700
63167W        W31508  16.741  15.235  12.823
63168W        W31509  20.173  20.111   4.717
63169W        W31510  28.060  15.647  13.470
63170W        W31511  40.481  37.082   2.339
63171W        W31512   2.382  18.762  12.355
63172W        W31513   6.277  27.527  10.407
63173W        W31514  30.008  44.333   4.669
63174W        W31515  42.322  39.438   2.412
63175W        W31516  43.453  15.580   1.719
63176W        W31517  33.406  33.599   4.821
63177W        W31518  11.359  15.259   3.641
63178W        W31519  37.352   3.382   3.319
63179W        W31520  21.238  29.595   0.481
63180W        W31521  42.780  39.001  13.042
63181W        W31522  11.302  42.323  12.542
63182W        W31523  32.929  12.742  12.834
63183W        W31524  36.590   5.316   2.872
63184W        W31525  29.035  10.775   0.257
63185W        W31526  41.022  39.999  13.842
63186W        W31527  38.494   1.960  13.005
63187W        W31528  25.026   4.262  11.468
63188W        W31529  17.621  29.044  14.969
63189W        W31530   5.196  11.185  12.578
63190W        W31531  26.495  40.396   2.679
63191W        W31532  19.058  18.776   4.302
63192W        W31533  13.657  26.462  10.902
63193W        W31534  20.074  36.555  13.880
63194W        W31535  30.912  32.996   0.432
63195W        W31536  44.947  12.774  10.547
63196W        W31537  28.452  41.516   3.767
63197W        W31538   6.676  14.297  14.978
63198W        W31539  25.043  15.634   1.426
63199W        W31540   0.821  23.205  13.002
63200W        W31541  25.642  17.796   3.697
63201W        W31542  41.435  22.627  14.927
63202W        W31543   2.269  36.436   0.300
63203W        W31544  31.627  26.664  14.277
63204W        W31545  25.504  27.060   0.817
63205W        W31546   1.975  21.117   0.419
63206W        W31547  26.648  40.855   2.393
63207W        W31548  34.388  40.503   4.157
63208W        W31549  11.155   8.300  13.048
63209W        W31550  24.501  16.781  11.585
63210W        W31551   8.370  17.082  11.550
63211W        W31552   1.396   8.760   0.802
63212W        W31553   5.789  23.198  13.885
63213W        W31554  13.150   6.214   2.180
63214W        W31555  31.474  29.576   4.606
63215W        W31556  14.202   7.261   1.917
63216W        W31557  38.991  20.651  14.299
63217W        W31558  24.514  41.799   0.957
63218W        W31559  38.532  13.124   2.884
63219W        W31560  24.582  26.665   5.303
63220W        W31561   9.358  16.802  14.925
63221W        W31562  15.139  39.932  13.943
63222W        W31563  33.576   3.316  13.984
63223W        W31564  32.003  20.217  14.418
63224W        W31565  41.402  40.518  12.467
63225W        W31566  20.750  37.374   1.290
63226W        W31567   7.219   9.283   3.859
63227W        W31568  42.873  35.487   0.886
63228W        W31569  13.845  35.105   4.704
63229W        W31570  36.923   0.390   1.348
63230W        W31571  14.636   5.435   2.860
63231W        W31572  18.176  38.570   2.835
63232W        W31573  39.335  23.687   1.710
63233W        W31574  34.095   4.720  14.409
63234W        W31575   4.391  21.724  11.101
63235W        W31576   6.745  25.125   2.774
63236W        W31577  32.486   4.906   4.740
63237W        W31578   3.256  38.462  14.367
63238W        W31579  29.041  23.652   2.400
63239W        W31580  43.871   6.784   1.369
63240W        W31581  40.879  38.484  11.474
63241W        W31582  15.126  37.060   2.735
63242W        W31583  19.261  32.074  12.894
63243W        W31584  41.443  11.766  13.946
63244W        W31585   4.380   8.843   2.199
63245W        W31586  13.185   4.434  12.466
63246W        W31587  20.034   1.804  13.517
63247W        W31588  22.168  41.312   1.241
63248W        W31589   5.226  20.526  13.925
63249W        W31590  25.062  17.272  14.986
63250W        W31591  25.561  16.143   1.883
63251W        W31592  20.547  27.112   0.927
63252W        W31593   0.944   1.426  11.394
63253W        W31594  35.981  36.468   4.143
63254W        W31595  44.896  41.373   0.877
63255W        W31596  21.638   9.724   3.221
63256W        W31597  37.417  37.460  14.410
63257W        W31598   8.851  44.956   3.370
63258W        W31599  20.134  28.004   2.888
63259W        W31600  30.031  33.875   1.222
63260W        W31601  40.810  10.302   2.823
63261W        W31602  16.153  26.076   3.864
63262W        W31603  19.163   3.929  10.530
63263W        W31604  40.350  32.921   4.730
63264W        W31605  44.872  11.750   0.825
63265W        W31606  14.693  44.991   0.246
63266W        W31607   2.233  16.232  13.996
63267W        W31608  14.631  19.242   2.885
63268W        W31609  36.367  40.990  10.890
63269W        W31610  17.701  18.126   2.707
63270W        W31611  41.353  43.378   3.857
63271W        W31612  39.944  38.907   0.951
63272W        W31613  19.213  35.938  10.578
63273W        W31614  40.924   1.898  14.762
63274W        W31615  36.506  32.544  12.858
63275W        W31616  42.807  18.117  14.794
63276W        W31617   5.856  39.322   2.258
63277W        W31618   4.723  16.155   1.718
63278W        W31619   5.910   5.700   1.830
63279W        W31620  39.915  26.664   2.799
63280W        W31621  31.506  44.450   0.848
63281W        W31622  25.019  33.061  13.311
63282W        W31623   5.248  40.925  14.424
63283W        W31624   5.712  42.947   0.932
63284W        W31625  41.444  23.989   4.783
63285W        W31626  20.603   8.350   1.320
63286W        W31627  23.163  19.082  10.933
63287W        W31628  26.111  30.565   3.201
63288W        W31629  31.922  32.946   2.762
63289W        W31630   3.914  10.195  14.787
63290W        W31631  17.789  33.522   0.282
63291W        W31632  36.954   6.844   3.688
63292W        W31633  13.134  40.456   4.702
63293W        W31634  37.996  23.591  10.563
63294W        W31635  23.052  21.262  12.486
63295W        W31636   2.371  12.673   3.816
63296W        W31637  33.084  43.388  10.559
63297W        W31638  40.884  41.826  13.884
63298W        W31639  25.551  13.698  12.904
63299W        W31640  28.643   4.277   0.739
63300W        W31641  28.466  42.504   1.418
63301W        W31642  11.683   3.387  10.056
63302W        W31643   0.863   9.374   1.760
63303W        W31644  44.347  31.428  14.430
63304W        W31645   3.794   9.653  13.437
63305W        W31646  10.770  31.036  13.881
63306W        W31647  37.340   5.932   4.262
63307W        W31648  20.177   6.845   1.763
63308W        W31649   3.434  34.506  12.366
63309W        W31650   4.850  44.365   1.727
63310W        W31651  15.755  27.496   2.880
63311W        W31652  17.592   6.713   1.420
63312W        W31653  34.528  23.101   3.759
63313W        W31654  36.910  42.364   4.194
63314W        W31655  10.260  28.567   3.273
63315W        W31656  27.128  37.405  13.380
63316W        W31657  37.001  40.846   0.459
63317W        W31658  24.549  15.267   0.932
63318W        W31659   9.832  40.848  12.036
63319W        W31660  37.492   4.933  11.597
63320W        W31661   3.901  19.676   1.845
63321W        W31662  30.999  28.940  14.275
63322W        W31663  24.140  27.121  14.949
63323W        W31664   6.409   9.720  13.390
63324W        W31665  19.279  42.909  13.309
63325W        W31666   9.887  23.040   0.314
63326W        W31667  14.318   4.360  12.054
63327W        W31668  28.129   8.682   3.264
63328W        W31669   0.329   2.316  13.800
63329W        W31670  33.069  23.676   4.253
63330W        W31671   0.914  38.941   1.885
63331W        W31672  35.086  27.147  10.465
63332W        W31673  37.013  17.570   3.649
63333W        W31674   3.879  18.085  12.065
63334W        W31675  38.849  25.182  11.526
63335W        W31676  22.532  29.090   0.244
63336W        W31677  31.598  11.733   3.707
63337W        W31678  24.507  26.011   2.693
63338W        W31679   0.427  29.539  14.348
63339W        W31680  34.417  26.135  11.397
63340W        W31681  38.998  10.668  14.923
63341W        W31682  36.033  22.080  11.580
63342W        W31683  32.433  39.519   1.422
63343W        W31684  27.173  39.554  11.459
63344W        W31685  34.056  31.532  11.934
63345W        W31686  12.855  17.222  13.324
63346W        W31687  20.712  28.978   3.720
63347W        W31688  37.440  34.598   1.377
63348W        W31689  29.018  14.187   1.239
63349W        W31690  15.646   4.431   9.978
63350W        W31691  12.843  18.772   2.237
63351W        W31692   5.380  20.051   4.714
63352W        W31693  34.548   1.282   0.754
63353W        W31694  39.317  41.907   5.305
63354W        W31695  36.577   9.863  10.535
63355W        W31696   3.721  36.459  11.126
63356W        W31697  21.036  15.227   0.936
63357W        W31698  36.067   8.174   4.616
63358W        W31699  18.551  21.585   4.805
63359W        W31700  24.176   9.764   0.379
63360W        W31701  21.061  21.074   1.914
63361W        W31702  23.171  12.828  13.414
63362W        W31703   7.694  35.586   3.670
63363W        W31704  16.754  40.383   0.806
63364W        W31705  41.919   5.787  12.078
63365W        W31706  43.000  44.842  13.500
63366W        W31707   3.948  42.807   5.261
63367W        W31708   2.352  16.762   4.246
63368W        W31709  38.874  12.738   3.376
63369W        W31710  15.672  25.184  12.444
63370W        W31711  28.556  12.325  10.930
63371W        W31712  34.978  28.660   1.313
63372W        W31713   9.166  28.487  10.995
63373W        W31714   1.747  23.226   3.700
63374W        W31715  18.123  12.309  13.522
63375W        W31716  19.625  42.500   3.825
63376W        W31717  18.074  40.908  11.869
63377W        W31718  22.116  41.022  13.984
63378W        W31719  30.437  18.281   1.435
63379W        W31720  32.934  12.299   1.371
63380W        W31721  32.413  15.583  11.946
63381W        W31722   0.392  16.800   0.841
63382W        W31723  43.397  32.977  10.899
63383W        W31724  41.358  42.348   4.305
63384W        W31725  17.082  16.078  11.926
63385W        W31726  17.769  21.118  10.945
63386W        W31727   4.738   5.859   4.124
63387W        W31728  24.047  35.016   3.632
63388W        W31729  33.613   5.375   1.391
63389W        W31730  43.771  19.111   4.812
63390W        W31731   2.447   5.923  11.380
63391W        W31732   1.764  31.587   4.615
63392W        W31733  30.098   7.368  10.546
63393W        W31734  32.511  36.502   0.366
63394W        W31735   1.258  20.254  13.349
63395W        W31736   0.873  25.626   0.732
63396W        W31737   1.861   2.378   0.890
63397W        W31738  32.895  35.453   3.651
63398W        W31739   0.928  20.616   0.931
63399W        W31740  39.989  37.419   1.391
63400W        W31741  37.564  20.766   0.337
63401W        W31742  39.948  10.704   0.424
63402W        W31743   2.735  13.323  11.022
63403W        W31744  33.444  30.989   0.386
63404W        W31745   7.343  24.669  11.475
63405W        W31746  12.155   9.323   1.786
63406W        W31747   2.433  22.020   1.434
63407W        W31748  30.924   8.179   0.260
63408W        W31749  22.636   2.755  10.642
63409W        W31750   5.931   1.777  12.092
63410W        W31751  18.620  24.013   4.620
63411W        W31752  30.908  44.433   4.724
63412W        W31753   3.330  22.532   2.783
63413W        W31754  16.135   6.809  11.442
63414W        W31755   4.333  36.589   1.391
63415W        W31756  17.791   0.347  14.477
63416W        W31757  22.744   3.310  14.936
63417W        W31758   2.929  38.976  13.890
63418W        W31759  19.671  14.118   4.628
63419W        W31760  43.394  18.167  14.464
63420W        W31761   3.414  21.675  11.587
63421W        W31762  23.598  11.868  14.464
63422W        W31763  19.619  41.521  13.447
63423W        W31764  15.661  42.876  14.019
63424W        W31765  44.761  19.702  13.447
63425W        W31766  19.578  13.248  13.958
63426W        W31767   0.398  39.997  11.871
63427W        W31768  36.376   6.208   3.350
63428W        W31769  33.016  33.482  13.479
63429W        W31770  33.051  39.035   5.113
63430W        W31771  10.213  18.052   3.338
63431W        W31772   9.696  12.361  12.852
63432W        W31773  22.505  25.094  12.872
63433W        W31774  40.391  35.023   1.777
63434W        W31775  15.288   0.886  13.411
63435W        W31776   1.925   9.807  11.115
63436W        W31777  23.047   0.861  13.541
63437W        W31778  12.785   6.266  11.995
63438W        W31779  29.614  42.404  14.275
63439W        W31780  41.874  14.644  14.333
63440W        W31781  18.791   4.355  14.350
63441W        W31782  42.014  16.700  12.838
63442W        W31783  22.085  36.391   3.736
63443W        W31784   9.796  23.490   0.354
63444W        W31785  21.596  40.393  12.401
63445W        W31786  26.133  19.541   4.676
63446W        W31787  35.565   1.295  12.562
63447W        W31788   4.376  42.939   3.333
63448W        W31789   3.287  36.565   4.637
63449W        W31790  29.653   0.749  12.081
63450W        W31791  40.952  20.708   0.810
63451W        W31792   0.291  13.153   1.770
63452W        W31793  17.081   3.243   3.674
63453W        W31794  34.105   1.965  11.461
63454W        W31795  30.909  26.088   1.763
63455W        W31796   4.773  38.053  12.011
63456W        W31797  30.105  18.277  13.988
63457W        W31798   5.795   6.252  13.888
63458W        W31799  16.630  34.008   4.154
63459W        W31800  10.383  16.244   1.853
63460W        W31801  35.949  20.660  12.539
63461W        W31802  42.524  11.661  12.981
63462W        W31803  43.838   9.664  12.534
63463W        W31804   7.834   2.918   1.746
63464W        W31805  22.701  24.683   1.358
63465W        W31806  24.999  36.388  11.571
63466W        W31807  10.719  11.685  10.144
63467W        W31808   8.846  31.531  14.891
63468W        W31809  44.355  33.592   0.777
63469W        W31810  28.008  18.647  14.908
63470W        W31811   3.719  22.641  12.999
63471W        W31812  38.464  14.216   0.845
63472W        W31813  24.042  17.606   9.985
63473W        W31814   0.798  30.612  11.450
63474W        W31815  35.370  21.610   1.337
63475W        W31816  12.699   4.228  14.767
63476W        W31817   5.194  39.876  13.339
63477W        W31818  16.685  21.712  14.334
63478W        W31819  11.245  39.540   0.887
63479W        W31820  11.794  13.707  13.927
63480W        W31821   9.867   0.817  13.395
63481W        W31822  10.772  19.070   1.444
63482W        W31823  42.947  36.377  14.975
63483W        W31824   8.185  10.713   1.312
63484W        W31825  24.536  15.636   0.382
63485W        W31826  10.675  37.425   0.437
63486W        W31827  34.886   7.372   0.890
63487W        W31828  31.107  30.926   1.930
63488W        W31829  40.992  18.772  14.390
63489W        W31830  16.720   9.295  13.901
63490W        W31831  44.911   2.800   0.373
63491W        W31832  22.701  10.297   1.255
63492W        W31833  34.873  27.454  12.469
63493W        W31834  15.720  43.021   2.333
63494W        W31835  19.656   4.301   0.871
63495W        W31836   9.738  39.422   4.718
63496W        W31837  20.185  19.173   4.277
63497W        W31838   5.694   6.812  10.535
63498W        W31839  21.043  23.594  10.587
63499W        W31840  21.564  30.107   1.852
63500W        W31841  38.056  35.579   0.369
63501W        W31842  40.053  29.009  12.007
63502W        W31843  36.423  13.241   2.706
63503W        W31844  37.066  26.070  12.415
63504W        W31845  21.725   1.323   3.289
63505W        W31846  30.617   8.263  12.831
63506W        W31847  39.946  10.360   4.152
63507W        W31848  26.482  26.161  13.464
63508W        W31849  14.710  38.494   2.371
63509W        W31850  14.644  22.067   0.957
63510W        W31851  14.754  33.102   3.768
63511W        W31852   4.727  42.522  14.806
63512W        W31853  29.921  21.240  14.345
63513W        W31854   0.327  29.020   3.737
63514W        W31855  38.326   5.724   2.798
63515W        W31856  39.459  40.877  10.515
63516W        W31857  40.517  28.117  14.472
63517W        W31858  14.216  44.971   2.359
63518W        W31859  38.947  31.576   4.760
63519W        W31860  10.814  42.430  14.932
63520W        W31861  18.138  19.082  12.079
63521W        W31862  23.638  17.265   1.429
63522W        W31863   2.911   7.806   1.842
63523W        W31864  43.811  19.147  14.970
63524W        W31865  23.078  13.279  10.491
63525W        W31866  39.466  18.265  13.914
63526W        W31867  27.091  32.452  12.071
63527W        W31868  42.522  44.901  11.491
63528W        W31869   6.267  38.916   2.298
63529W        W31870  29.469   3.795   4.288
63530W        W31871   3.914  29.598   4.687
63531W        W31872  16.279  19.119  10.464
63532W        W31873   4.346  39.516   0.945
63533W        W31874  21.068  24.995  10.439
63534W        W31875  35.460  37.864   0.878
63535W        W31876  28.539  23.164   4.315
63536W        W31877   0.463  40.908  12.044
63537W        W31878  43.503   7.750   4.644
63538W        W31879   5.398  16.707  14.436
63539W        W31880  11.708   0.798  14.439
63540W        W31881  17.738  16.594   1.934
63541W        W31882  27.478  37.852  14.460
63542W        W31883  24.636  17.757  10.417
63543W        W31884   8.675  39.503   0.338
63544W        W31885  22.599  38.532   2.768
63545W        W31886  35.597  24.117   1.704
63546W        W31887  14.675  44.001   2.872
63547W        W31888  31.581  13.149  12.546
63548W        W31889   5.896  32.570   2.274
63549W        W31890  26.058   1.824  12.971
63550W        W31891  39.338  44.956   0.320
63551W        W31892   8.792   9.383  10.444
63552W        W31893  44.446  14.705   0.367
63553W        W31894  10.707  32.987  13.903
63554W        W31895  40.332  17.101  14.453
63555W        W31896  37.453  40.420   0.937
63556W        W31897   6.889  14.309  13.358
63557W        W31898  22.054  40.433   4.808
63558W        W31899   9.679  10.800  12.415
63559W        W31900  22.521  34.053   3.635
63560W        W31901  22.235  30.979  14.343
63561W        W31902  41.870  13.198  14.494
63562W        W31903  42.510  16.728  14.436
63563W        W31904   5.819  35.398  10.638
63564W        W31905  36.516  11.288  12.941
63565W        W31906  27.472   4.700  14.957
63566W        W31907  34.973  19.745   3.170
63567W        W31908  29.488  28.011  13.999
63568W        W31909   3.361   7.697   3.823
63569W        W31910  41.490  41.825   2.676
63570W        W31911   8.224  38.407  13.420
63571W        W31912  19.208   5.197   4.349
63572W        W31913  24.084  15.294   2.250
63573W        W31914  23.587  37.486   4.798
63574W        W31915  37.441  22.724  14.358
63575W        W31916  32.141  38.441   5.292
63576W        W31917  14.182  15.124  13.370
63577W        W31918   0.752  41.005   4.684
63578W        W31919  28.036  31.920   2.702
63579W        W31920   0.809   2.326  10.464
63580W        W31921  30.438   5.736   0.939
63581W        W31922  41.493  38.843   3.226
63582W        W31923   6.367  41.950  13.817
63583W        W31924  21.104  43.319  14.794
63584W        W31925  31.443  42.907  11.091
63585W        W31926  11.331  23.097   1.700
63586W        W31927  36.880  28.475  14.486
63587W        W31928  29.495  23.517  10.642
63588W        W31929  32.421  42.833   4.635
63589W        W31930  10.738   4.810   4.320
63590W        W31931   4.806   6.243   3.849
63591W        W31932  16.149  42.965   4.611
63592W        W31933   5.861  22.724   2.351
63593W        W31934   6.808  35.482   4.775
63594W        W31935   8.659  42.510  14.997
63595W        W31936  29.582  27.118  12.534
63596W        W31937  17.788  38.406  11.023
63597W        W31938  38.028   0.767  11.011
63598W        W31939  21.173  27.173  12.457
63599W        W31940  17.163   9.754  10.960
63600W        W31941   9.857  33.049   2.758
63601W        W31942  39.484  14.803   0.372
63602W        W31943  40.978  26.658   2.237
63603W        W31944  25.644  30.137  10.645
63604W        W31945  32.969  43.482  14.501
63605W        W31946  34.551   0.804  13.993
63606W        W31947  27.099  40.945  10.569
63607W        W31948   2.872  20.707   0.323
63608W        W31949  42.486   5.734  14.360
63609W        W31950   5.312   1.811  11.509
63610W        W31951   7.171  26.468  10.618
63611W        W31952  24.605  15.084  12.521
63612W        W31953   7.221  30.617   4.823
63613W        W31954  15.184  14.162   4.330
63614W        W31955  31.524  15.317   0.278
63615W        W31956  10.324  44.431  12.449
63616W        W31957   9.688  13.311   5.093
63617W        W31958   2.754  42.963   0.933
63618W        W31959   2.456  16.611   3.220
63619W        W31960  11.134   1.757   4.632
63620W        W31961  32.555  41.885   2.778
63621W        W31962  38.371  14.191   1.723
63622W        W31963  39.511  22.558  12.920
63623W        W31964  41.317  39.383  11.960
63624W        W31965  39.507   0.789  11.920
63625W        W31966  19.730  31.431   1.281
63626W        W31967  11.313   7.390  12.845
63627W        W31968  41.843  36.936  12.510
63628W        W31969   4.282  14.135   0.770
63629W        W31970   6.358  23.135   1.913
63630W        W31971  18.077  30.577   2.736
63631W        W31972   8.875  43.307  10.616
63632W        W31973  30.008  33.907   2.332
63633W        W31974  32.024   4.876   3.171
63634W        W31975   5.225   8.746  14.356
63635W        W31976  19.576  34.095  13.978
63636W        W31977  37.080  10.191   3.795
63637W        W31978   2.861  35.483   1.803
63638W        W31979  12.836  44.413  11.979
63639W        W31980  29.035  40.805   2.192
63640W        W31981  44.466  29.991  10.024
63641W        W31982  29.478  41.933   2.879
63642W        W31983   5.282  12.117   2.324
63643W        W31984  39.874   3.434  12.556
63644W        W31985   3.845  32.926   0.474
63645W        W31986   4.330   3.805  13.935
63646W        W31987   5.290   4.290   2.887
63647W        W31988   9.880  41.879  11.125
63648W        W31989  36.419  20.035  11.125
63649W        W31990  33.883  28.017   4.122
63650W        W31991  22.532   5.823   4.637
63651W        W31992  23.704  14.676  12.424
63652W        W31993  14.606  38.873  13.916
63653W        W31994  43.473  18.143  11.462
63654W        W31995  25.642  15.249   3.745
63655W        W31996  27.594  15.325  13.406
63656W        W31997  30.656  34.932   3.646
63657W        W31998  32.445  22.600   2.358
63658W        W31999   7.813  35.546   2.768
63659W        W32000  31.955  27.166   3.274
63660W        W32001  10.814   1.760   4.168
63661W        W32002  23.984  16.137   0.434
63662W        W32003  39.001  23.038  11.105
63663W        W32004  35.929  34.400   0.729
63664W        W32005   2.318   7.822   1.704
63665W        W32006  33.953  41.913  11.043
63666W        W32007  27.044  29.027   4.750
63667W        W32008   7.788  11.189  14.807
63668W        W32009  17.066  37.348  13.942
63669W        W32010  36.010  33.530  10.569
63670W        W32011  28.984  22.523  13.473
63671W        W32012  28.515  24.217  12.830
63672W        W32013   1.836  17.669   1.765
63673W        W32014  13.165   0.444   2.673
63674W        W32015  24.010   5.303  12.517
63675W        W32016  11.190  36.552   3.673
63676W        W32017  31.067  33.483   2.713
63677W        W32018   1.261  29.650  11.863
63678W        W32019   4.429  44.970  10.463
63679W        W32020  18.586  30.564   0.778
63680W        W32021  20.037  38.965  10.527
63681W        W32022   1.824  30.642  11.897
63682W        W32023  38.333  12.143  12.846
63683W        W32024   7.767  32.471   0.736
63684W        W32025  13.350  16.313  12.950
63685W        W32026   3.732  15.263  12.046
63686W        W32027  44.427  16.579  13.990
63687W        W32028  41.499  11.154  13.461
63688W        W32029  39.871  33.621  14.800
63689W        W32030   2.431  32.122  10.078
63690W        W32031   6.876  32.561   2.742
63691W        W32032   3.457  34.370   3.681
63692W        W32033  11.363  21.577  14.446
63693W        W32034   2.814  41.833  10.938
63694W        W32035  35.945  25.072  11.452
63695W        W32036  22.543   0.447   1.726
63696W        W32037  44.772  30.557   4.213
63697W        W32038  17.682  20.708  14.964
63698W        W32039  36.965  26.990   2.788
63699W        W32040  43.342  17.768   1.240
63700W        W32041  25.616  35.487   3.645
63701W        W32042  39.828  19.600   5.258
63702W        W32043  13.173  14.236   1.920
63703W        W32044  10.725   0.483   1.775
63704W        W32045  29.475  30.553   0.738
63705W        W32046   0.934   1.407  14.341
63706W        W32047  31.631  18.774  11.875
63707W        W32048  33.431  26.020  12.468
63708W        W32049   5.282   2.872  12.352
63709W        W32050  12.236  14.831  12.007
63710W        W32051  18.570   8.219  14.428
63711W        W32052  23.051  30.027   2.216
63712W        W32053  24.008  29.055   2.696
63713W        W32054   8.884  42.032   3.788
63714W        W32055  11.829  18.771  10.965
63715W        W32056   9.873  32.456  13.413
63716W        W32057  18.271  35.018   2.337
63717W        W32058  10.151   3.344   2.701
63718W        W32059   3.739  30.026   3.856
63719W        W32060   1.270  13.808  11.886
63720W        W32061  35.410  14.651   2.278
63721W        W32062  26.081  36.940  10.435
63722W        W32063  35.539  27.507  12.499
63723W        W32064  20.221  14.711  13.467
63724W        W32065  15.608  11.771  12.453
63725W        W32066  25.526  42.944   1.242
63726W        W32067  30.605  10.687  11.500
63727W        W32068  30.489  27.596  11.091
63728W        W32069   1.921  19.277   1.789
63729W        W32070  17.248  24.074  13.955
63730W        W32071   7.287   6.406  11.864
63731W        W32072  26.108   2.459  13.353
63732W        W32073  28.139  30.447  13.848
63733W        W32074  33.095   9.739   3.744
63734W        W32075  29.664  41.484  10.159
63735W        W32076   5.903  25.608  13.427
63736W        W32077   4.906  17.174   5.271
63737W        W32078  39.021  44.337   4.639
63738W        W32079  39.399   9.212  14.298
63739W        W32080   2.773  20.058  12.372
63740W        W32081  28.490  33.571   3.154
63741W        W32082  33.028   8.808  14.014
63742W        W32083  13.645  37.876  14.922
63743W        W32084  39.346   0.826  11.065
63744W        W32085  10.258  14.158  13.532
63745W        W32086   0.785  37.889   4.781
63746W        W32087  36.354  14.803   3.246
63747W        W32088  37.357   7.832   3.297
63748W        W32089   7.898   9.666  11.381
63749W        W32090  16.174   2.963   0.282
63750W        W32091  13.348   6.386   1.292
63751W        W32092  40.868  39.522  10.465
63752W        W32093  17.734   4.359   4.716
63753W        W32094   8.380  37.503   4.120
63754W        W32095   7.877   2.233  11.933
63755W        W32096   0.830  12.201   1.812
63756W        W32097  25.094  19.089   4.238
63757W        W32098  21.689  37.892   1.343
63758W        W32099  20.611  22.008  11.913
63759W        W32100   7.205  19.242  12.092
63760W        W32101  44.992  19.155  11.028
63761W        W32102  12.840  39.979   4.749
63762W        W32103  23.671  10.741  13.022
63763W        W32104   3.414  42.797   1.363
63764W        W32105   7.902  39.334   0.927
63765W        W32106  32.004   5.323   1.895
63766W        W32107  22.689  31.948   4.311
63767W        W32108  14.619   0.849   3.233
63768W        W32109  39.048  36.538  10.073
63769W        W32110  34.563  39.940   4.636
63770W        W32111  44.810  34.913  10.617
63771W        W32112  12.358  21.553   2.385
63772W        W32113   5.242  28.086  13.329
63773W        W32114  15.145   6.216  10.602
63774W        W32115  18.707   8.273   0.834
63775W        W32116  21.226  16.621  14.915
63776W        W32117  36.844  39.012  12.823
63777W        W32118   9.189  26.038  12.052
63778W        W32119  16.774   1.239   1.383
63779W        W32120  23.022  30.116  12.380
63780W        W32121   1.937  22.084   3.242
63781W        W32122   1.340   1.296   2.885
63782W        W32123  14.601  39.391  14.937
63783W        W32124  27.486  41.409   2.271
63784W        W32125  26.681  20.725  14.886
63785W        W32126  28.015  35.108  14.835
63786W        W32127  10.831  43.277   3.339
63787W        W32128  17.204  35.892  11.491
63788W        W32129  44.003  40.325  12.999
63789W        W32130  30.031  30.012  12.095
63790W        W32131  33.072  26.066   0.743
63791W        W32132  33.952   7.745   2.355
63792W        W32133  33.524  12.126  11.495
63793W        W32134  25.708   0.931   1.859
63794W        W32135  38.968   1.442  14.338
63795W        W32136  11.637  37.352  10.141
63796W        W32137  42.336  33.019   2.824
63797W        W32138  28.621  26.657  13.469
63798W        W32139  17.174  21.646  13.463
63799W        W32140  27.623  43.882   4.267
63800W        W32141   3.273  30.491  11.417
63801W        W32142  31.632   1.875   3.192
63802W        W32143   8.808  37.569   2.238
63803W        W32144  12.614  11.182   1.381
63804W        W32145  13.634  21.025  13.974
63805W        W32146   9.386  27.183   4.812
63806W        W32147  30.137  21.038   0.413
63807W        W32148  30.027  39.921   4.791
63808W        W32149   7.827  28.542  14.780
63809W        W32150  25.638  36.463  14.991
63810W        W32151  20.265  23.624   2.246
63811W        W32152  25.506  20.044   3.355
63812W        W32153  19.617  23.093   4.246
63813W        W32154   6.857  21.724  12.982
63814W        W32155  38.011  44.331  10.094
63815W        W32156  40.543  29.593  10.947
63816W        W32157  17.637  42.504   4.727
63817W        W32158   3.716  44.987   1.316
63818W        W32159  35.062   8.763  14.909
63819W        W32160  21.187  23.707  12.545
63820W        W32161  11.353   8.769   2.748
63821W        W32162  44.451  33.621   5.314
63822W        W32163   1.889  43.788   0.937
63823W        W32164   5.894  22.013  14.958
63824W        W32165  24.687  36.446  14.992
63825W        W32166  15.237  44.367   4.335
63826W        W32167   3.312  38.380  11.390
63827W        W32168  39.031  14.305   4.829
63828W        W32169  36.360   9.776   0.372
63829W        W32170  28.182  41.296   1.881
63830W        W32171  28.680  35.883  11.088
63831W        W32172  33.059  26.168   4.765
63832W        W32173  27.964  32.068   4.667
63833W        W32174   1.256  28.447   3.331
63834W        W32175  20.115  40.005  13.978
63835W        W32176  12.762   2.962   4.808
63836W        W32177  20.568  20.705  13.822
63837W        W32178  16.808   9.393  14.424
63838W        W32179  36.863  11.796   0.898
63839W        W32180  19.774  13.207   4.121
63840W        W32181  44.861  39.980   1.315
63841W        W32182  38.382  10.837  14.886
63842W        W32183  30.607   8.857  13.833
63843W        W32184  26.162  24.978  13.426
63844W        W32185  16.280  44.404   1.281
63845W        W32186  26.544  39.500  14.976
63846W        W32187  34.970  20.134  12.088
63847W        W32188  22.545  36.563   2.858
63848W        W32189  14.113   0.790   5.295
63849W        W32190  31.940  35.375  12.436
63850W        W32191   3.364  22.208  13.967
63851W        W32192   5.264  22.205   1.848
63852W        W32193  29.092  42.496   0.845
63853W        W32194  11.231  38.473   3.750
63854W        W32195  32.969  31.981  14.821
63855W        W32196  14.210  20.037   2.737
63856W        W32197   0.413  15.182   0.763
63857W        W32198  34.580  32.500  10.421
63858W        W32199  38.419   9.663  10.534
63859W        W32200  31.132  24.135  12.493
63860W        W32201  17.700  23.647   5.670
63861W        W32202  35.904  36.864   0.465
63862W        W32203  10.279   4.791  10.922
63863W        W32204  23.155   2.833   0.450
63864W        W32205   0.887   8.802  10.949
63865W        W32206  20.032  19.549  14.491
63866W        W32207  43.007   9.887   3.632
63867W        W32208  22.182   2.807  11.997
63868W        W32209  15.784  36.085   0.421
63869W        W32210  30.463  22.621   4.775
63870W        W32211  12.240   2.749  12.490
63871W        W32212  16.284  16.642   0.372
63872W        W32213  37.462  10.162  12.022
63873W        W32214   5.820   7.342  10.619
63874W        W32215  13.301  30.971   1.380
63875W        W32216  40.433  29.612  13.856
63876W        W32217   4.258  37.063  10.448
63877W        W32218  30.645  24.717  10.546
63878W        W32219  41.456  38.554   4.291
63879W        W32220  36.586  21.103   1.831
63880W        W32221  13.322   5.292  14.892
63881W        W32222   4.791  24.603   0.382
63882W        W32223   4.784  29.172   3.679
63883W        W32224  15.603  39.544   1.417
63884W        W32225  26.978   8.206  10.541
63885W        W32226  26.664  42.901  10.595
63886W        W32227  22.649  43.348  12.382
63887W        W32228  21.609  22.076  10.516
63888W        W32229  29.456  26.649  11.498
63889W        W32230  12.217   4.371  11.874
63890W        W32231   5.819  26.478  13.838
63891W        W32232  14.260   0.844  14.348
63892W        W32233  22.008  18.743  13.449
63893W        W32234   0.927  22.223  13.851
63894W        W32235   1.263  22.029  10.924
63895W        W32236  42.839  37.499   1.902
63896W        W32237  35.963  32.546  13.803
63897W        W32238  18.086   6.916   1.883
63898W        W32239   1.298  13.189   0.841
63899W        W32240   7.223  18.296  13.397
63900W        W32241  12.299  24.541   3.780
63901W        W32242  42.966  26.143  12.884
63902W        W32243  11.850   9.221   0.917
63903W        W32244  20.582  19.638   3.161
63904W        W32245  30.501  23.021  11.422
63905W        W32246  39.825   4.837   2.853
63906W        W32247  14.242   9.834  12.035
63907W        W32248  41.459  16.751  10.976
63908W        W32249   0.284  42.522   3.258
63909W        W32250  22.667  42.362  12.012
63910W        W32251  19.548  15.642   2.841
63911W        W32252  13.653  13.292  13.045
63912W        W32253  42.829  23.677   0.408
63913W        W32254  14.814   5.194   1.813
63914W        W32255  15.723  20.617  10.024
63915W        W32256   2.321  36.522  12.543
63916W        W32257   5.866  15.182  10.934
63917W        W32258  39.996  44.935  11.565
63918W        W32259  16.766  18.775  12.540
63919W        W32260  22.649  26.036  13.527
63920W        W32261   0.374   7.876  14.490
63921W        W32262  40.352  30.548  14.930
63922W        W32263  23.048  31.036   2.375
63923W        W32264   8.235  11.236   3.334
63924W        W32265   3.805  32.537   3.737
63925W        W32266  28.099  27.986   3.232
63926W        W32267  12.332  34.983   1.833
63927W        W32268   9.379  11.705   2.289
63928W        W32269  40.826  37.884   2.900
63929W        W32270  43.361  41.502   0.924
63930W        W32271  43.342   1.357   1.704
63931W        W32272  41.436  26.034   2.870
63932W        W32273  39.005   5.695  10.585
63933W        W32274  41.345  43.375  13.336
63934W        W32275  23.732   5.797   3.773
63935W        W32276  34.591  44.790  13.489
63936W        W32277   9.274  18.050   3.725
63937W        W32278  36.975   0.492   0.940
63938W        W32279  25.619  31.609   4.184
63939W        W32280  11.139  14.779  14.448
63940W        W32281  39.915  37.047   4.828
63941W        W32282  41.957  35.470   0.364
63942W        W32283   4.772  23.057   2.726
63943W        W32284   0.322  30.560   1.923
63944W        W32285  14.129  35.960   4.804
63945W        W32286   4.910  31.463  12.093
63946W        W32287  13.827   0.346   0.299
63947W        W32288  34.020  29.627  14.485
63948W        W32289  32.567  16.147  11.392
63949W        W32290  42.485  28.167  11.476
63950W        W32291  23.120  15.140   0.276
63951W        W32292  29.486   5.852   4.135
63952W        W32293   1.937  11.717  11.457
63953W        W32294  23.073  27.032   3.844
63954W        W32295  42.489  15.296  10.992
63955W        W32296  38.066  29.508   3.231
63956W        W32297  17.229   5.824   3.147
63957W        W32298   6.298   0.282  10.901
63958W        W32299  32.118  19.547   2.415
63959W        W32300  42.310  22.549  11.940
63960W        W32301  22.191  18.606  12.473
63961W        W32302  23.202   0.821  12.461
63962W        W32303  33.624  19.229  14.841
63963W        W32304  24.174  38.503  13.045
63964W        W32305   8.712   8.817  13.030
63965W        W32306  13.775  20.651   1.749
63966W        W32307  37.993  32.137   2.705
63967W        W32308  41.384  19.638   4.116
63968W        W32309  20.618  27.487  12.867
63969W        W32310  14.161   9.769  11.116
63970W        W32311  31.477  24.056   2.661
63971W        W32312  22.700  26.052   3.385
63972W        W32313  24.059  36.096  11.530
63973W        W32314   6.782  27.675   4.761
63974W        W32315   7.221  18.263   0.893
63975W        W32316  25.171  43.384   1.809
63976W        W32317  14.744  38.023  13.892
63977W        W32318   2.446  42.316   4.199
63978W        W32319  31.107  13.692  14.458
63979W        W32320  40.017  41.034   1.876
63980W        W32321   9.879  31.588   3.633
63981W        W32322  32.904   0.961   4.138
63982W        W32323  41.449  15.791   0.452
63983W        W32324  39.950   3.869  10.974
63984W        W32325   7.374  37.849  11.406
63985W        W32326  43.790  38.434   2.725
63986W        W32327  22.528  17.089  14.959
63987W        W32328  11.363  17.747  10.505
63988W        W32329  34.919  22.717  14.883
63989W        W32330   9.869  37.582   2.712
63990W        W32331   6.187  14.315  13.976
63991W        W32332  23.189  42.798   2.809
63992W        W32333  31.567  15.800  11.879
63993W        W32334   7.802   9.264  14.292
63994W        W32335  28.113  44.797  12.368
63995W        W32336  40.881   8.861  11.856
63996W        W32337  21.666  28.596  11.061
63997W        W32338  43.856  25.471   0.761
63998W        W32339  42.507  26.607  14.984
63999W        W32340  11.825   7.911  10.443
64000W        W32341   1.434  34.869   4.604
64001W        W32342  27.969  17.257   1.925
64002W        W32343  40.838  10.633   0.955
64003W        W32344  23.081  20.150  14.369
64004W        W32345  30.515  27.013   2.738
64005W        W32346  23.732  19.593   1.743
64006W        W32347  25.204   3.922  12.530
64007W        W32348  29.966  33.083  10.891
64008W        W32349  10.329  36.873  10.114
64009W        W32350  33.409  37.958  11.371
64010W        W32351  44.872  14.123  10.594
64011W        W32352   9.827  22.034   1.346
64012W        W32353   6.220  30.628  13.963
64013W        W32354  37.426  11.181  11.551
64014W        W32355  39.063  33.398   2.820
64015W        W32356  43.439  29.128  12.893
64016W        W32357  16.291  28.056  11.441
64017W        W32358  21.052  30.048   2.682
64018W        W32359   6.293   9.204   3.840
64019W        W32360  43.903  20.047  14.805
64020W        W32361   9.869  10.869  13.981
64021W        W32362  11.173  17.747   2.800
64022W        W32363  31.493  18.225   4.341
64023W        W32364  10.635  20.731  14.901
64024W        W32365  16.180  38.867  14.810
64025W        W32366  11.784  13.337   5.646
64026W        W32367  41.859   3.266   0.404
64027W        W32368   0.343  43.473   0.382
64028W        W32369  17.204  12.816  11.593
64029W        W32370   6.352  26.956   0.379
64030W        W32371  38.919   9.224   0.244
64031W        W32372  42.462  15.665  11.958
64032W        W32373   6.685  35.961   2.840
64033W        W32374  25.052  38.891   2.705
64034W        W32375  44.918  22.606  14.406
64035W        W32376  10.668  44.787  14.413
64036W        W32377  10.226  14.598   4.245
64037W        W32378   0.853  22.620  13.480
64038W        W32379  10.327  12.356  12.477
64039W        W32380  12.286  39.515  10.095
64040W        W32381  10.326  33.003  13.971
64041W        W32382  38.894  33.601  13.499
64042W        W32383   4.933  41.352  13.898
64043W        W32384  20.679  34.530  10.635
64044W        W32385   1.745   2.371  12.532
64045W        W32386   5.384  27.193   3.172
64046W        W32387  11.624  29.611  13.038
64047W        W32388   3.945  14.275  14.297
64048W        W32389  41.426  36.517  13.930
64049W        W32390  30.965   3.911  13.538
64050W        W32391  42.912  22.714   4.820
64051W        W32392  35.442  41.505  13.891
64052W        W32393  32.579   0.273  11.086
64053W        W32394   7.902  42.444  14.303
64054W        W32395  41.863  22.235   0.926
64055W        W32396  42.368  36.900  13.967
64056W        W32397  26.532  37.847  10.897
64057W        W32398  21.077   0.306  10.910
64058W        W32399  20.213  21.653  13.882
64059W        W32400  30.450  29.575  13.938
64060W        W32401   6.208  35.903  10.547
64061W        W32402  43.774  28.466  12.999
64062W        W32403  39.366  29.021   0.340
64063W        W32404   5.352  36.853   3.782
64064W        W32405  11.768  42.329   2.319
64065W        W32406   9.261  28.087   0.784
64066W        W32407  43.784  41.371  11.506
64067W        W32408   0.768  18.122  10.032
64068W        W32409  33.434   8.719  12.573
64069W        W32410  15.607  34.059   3.758
64070W        W32411  33.477   0.308   2.276
64071W        W32412  43.993  42.526  14.800
64072W        W32413  13.720  44.404   1.333
64073W        W32414  40.451   3.783  14.381
64074W        W32415  44.367  33.983  11.943
64075W        W32416   4.843   4.918   4.792
64076W        W32417  29.132  29.497  14.885
64077W        W32418  19.169   0.756   3.714
64078W        W32419  33.535  40.407   0.310
64079W        W32420  29.975   4.414  12.859
64080W        W32421  44.945  21.748  10.060
64081W        W32422  14.302  27.125   0.905
64082W        W32423   1.327  36.593  12.363
64083W        W32424   9.685   1.322   0.392
64084W        W32425  22.233  28.556  11.490
64085W        W32426   1.391   8.803   5.193
64086W        W32427   9.327  31.084   4.151
64087W        W32428   3.776  31.031   3.265
64088W        W32429  22.172  36.023  11.015
64089W        W32430  13.234   1.339   3.192
64090W        W32431  28.079  33.491  12.520
64091W        W32432  17.208  22.736  14.917
64092W        W32433  27.556  22.221  12.984
64093W        W32434  19.665  31.412  12.000
64094W        W32435   3.264  42.398   3.798
64095W        W32436  33.129  35.548   2.194
64096W        W32437  32.915  20.118  14.485
64097W        W32438   7.843  29.025  12.000
64098W        W32439  21.539  27.620  13.337
64099W        W32440  10.859   6.405   1.445
64100W        W32441  25.534  30.147   0.407
64101W        W32442  24.577   1.734  11.081
64102W        W32443  20.163  28.672   4.178
64103W        W32444   8.272  38.447  13.958
64104W        W32445   2.248  22.065  12.402
64105W        W32446   8.295  19.256  12.345
64106W        W32447  21.182  44.498   4.255
64107W        W32448  34.957  27.131   2.305
64108W        W32449  26.615  35.016   1.921
64109W        W32450  33.408  32.136  12.509
64110W        W32451  29.595   2.454   3.317
64111W        W32452  22.555  44.366   1.763
64112W        W32453   3.909  39.050   2.187
64113W        W32454  39.004  35.471  13.348
64114W        W32455   6.692  11.809  13.857
64115W        W32456  31.113  37.529   0.934
64116W        W32457  12.761  27.496   4.793
64117W        W32458  14.601  17.631   4.314
64118W        W32459   5.884   1.336  13.987
64119W        W32460  22.147  18.221   1.873
64120W        W32461   4.902  36.576  12.016
64121W        W32462  44.458   5.735  10.147
64122W        W32463  23.165  44.421  12.501
64123W        W32464  26.457  30.623   0.348
64124W        W32465  37.387  29.142   2.237
64125W        W32466  29.063  31.958   3.255
64126W        W32467  19.235  39.477   1.382
64127W        W32468  34.872  20.640  10.491
64128W        W32469  21.084  15.087   3.661
64129W        W32470  44.980  19.121  11.517
64130W        W32471  19.719  15.598  13.991
64131W        W32472   3.921  23.525  11.057
64132W        W32473  24.664  19.736   9.528
64133W        W32474  18.704  32.475   0.307
64134W        W32475   7.346   8.801  11.422
64135W        W32476   7.874  33.442  14.347
64136W        W32477   6.899   1.446   1.269
64137W        W32478  26.487  28.939   5.169
64138W        W32479   1.263  35.952  11.097
64139W        W32480  16.196   0.250   0.761
64140W        W32481  17.798   6.896  10.500
64141W        W32482   8.309   6.685  12.932
64142W        W32483  39.317  44.805   0.866
64143W        W32484  35.548  36.520   3.667
64144W        W32485  38.557  26.040  11.857
64145W        W32486  35.085  30.920  11.562
64146W        W32487  41.324  37.385  12.484
64147W        W32488   2.771  22.585  12.864
64148W        W32489  10.245  32.453   4.756
64149W        W32490  30.025  20.173  10.500
64150W        W32491  31.998  24.084   1.397
64151W        W32492   7.207  12.133  12.438
64152W        W32493  16.196  43.387  14.356
64153W        W32494  21.195  38.350   0.732
64154W        W32495  17.572  37.873  13.398
64155W        W32496  35.010  27.170  14.301
64156W        W32497  20.721   3.254   0.254
64157W        W32498  12.163   5.300  13.361
64158W        W32499  32.949   9.322  11.058
64159W        W32500  43.407  14.175   4.659
64160W        W32501   8.406  22.569   1.805
64161W        W32502   9.322   4.825   0.911
64162W        W32503  23.715  27.452  10.480
64163W        W32504  34.911  41.452  13.482
64164W        W32505  33.517  18.775  14.381
64165W        W32506  20.621  10.186   3.361
64166W        W32507  14.258  26.617   5.138
64167W        W32508  15.715   7.783  13.533
64168W        W32509  13.335  39.536   1.703
64169W        W32510  17.704  12.663  14.964
64170W        W32511  26.650   0.954  11.044
64171W        W32512  42.316   1.778   1.806
64172W        W32513  12.669  23.546   3.300
64173W        W32514  44.282  23.725  11.449
64174W        W32515   2.739  25.475  11.021
64175W        W32516  21.166  10.225   3.155
64176W        W32517  25.521  22.572   4.635
64177W        W32518   7.348   2.834  12.921
64178W        W32519  38.984  38.398  12.939
64179W        W32520  42.801  35.591   0.388
64180W        W32521  16.265  17.146  12.070
64181W        W32522  25.006  10.150   5.155
64182W        W32523  31.924  43.970  12.363
64183W        W32524   4.214  28.563   3.223
64184W        W32525  38.991   5.799  11.420
64185W        W32526  41.364   4.353   1.244
64186W        W32527  17.633  43.986   4.681
64187W        W32528   6.225   5.710   0.410
64188W        W32529  14.725   9.185  13.976
64189W        W32530  30.096   6.783   3.345
64190W        W32531  39.399  12.615   3.697
64191W        W32532  29.624  10.368   0.754
64192W        W32533   1.925  33.500  10.966
64193W        W32534  18.623  44.298  11.064
64194W        W32535  39.026  10.302  12.965
64195W        W32536  12.264  32.973  14.772
64196W        W32537  42.976  21.138  14.012
64197W        W32538  43.443   0.404   0.937
64198W        W32539  31.448  33.915  13.352
64199W        W32540   2.469  16.750   1.350
64200W        W32541   5.379  34.373   0.415
64201W        W32542  44.943  14.195  12.018
64202W        W32543   0.314  37.075  12.432
64203W        W32544  17.566  29.437  12.534
64204W        W32545  35.955  17.187   4.192
64205W        W32546  22.616  42.376  11.455
64206W        W32547  25.551   5.726   4.731
64207W        W32548  12.309  43.300   1.324
64208W        W32549  30.046  11.703   0.464
64209W        W32550   7.273  11.832   4.294
64210W        W32551  25.171  38.074   4.810
64211W        W32552  21.723   9.728  11.932
64212W        W32553   9.263  11.861  11.417
64213W        W32554  28.537  21.632  10.543
64214W        W32555  11.710  31.477  11.016
64215W        W32556  32.071   3.397   2.844
64216W        W32557   6.284  14.829   2.733
64217W        W32558   2.956  26.072  14.282
64218W        W32559  13.844  34.562  14.447
64219W        W32560  38.878  42.926   0.282
64220W        W32561  21.561   8.366  11.542
64221W        W32562  26.551  42.954   1.708
64222W        W32563  36.069  34.990  11.011
64223W        W32564  20.231  39.020  12.034
64224W        W32565  33.502  41.309   4.295
64225W        W32566  20.154  22.725  11.117
64226W        W32567  43.826  41.343   4.213
64227W        W32568  37.017  16.736  12.839
64228W        W32569   7.343   2.393  14.494
64229W        W32570  29.972  18.269   2.793
64230W        W32571  21.181  17.089  11.025
64231W        W32572   3.809  31.406   0.776
64232W        W32573  24.484  44.437  10.982
64233W        W32574  44.775  10.292   2.676
64234W        W32575  23.013   3.269   4.321
64235W        W32576  32.948  30.087   3.215
64236W        W32577  30.444  17.783  12.483
64237W        W32578  13.145  25.661  13.329
64238W        W32579  16.791   6.258   3.768
64239W        W32580  44.984  36.391   2.753
64240W        W32581  16.147   0.934   0.842
64241W        W32582  12.697  30.093   4.163
64242W        W32583   1.482  35.540   0.295
64243W        W32584  38.955  40.977   1.785
64244W        W32585  44.783  26.170   4.615
64245W        W32586   7.240  44.437  14.342
64246W        W32587  11.860  34.976   5.284
64247W        W32588  18.177  23.671  14.964
64248W        W32589  12.804  43.967  11.069
64249W        W32590  42.346   5.858   0.376
64250W        W32591  24.563   9.865   0.904
64251W        W32592  37.403  26.639   3.195
64252W        W32593   6.220  44.301   5.132
64253W        W32594  17.724  35.474   4.706
64254W        W32595   7.759  28.078  13.871
64255W        W32596   9.727  14.311   1.394
64256W        W32597  19.159  16.149   0.442
64257W        W32598  14.200  28.132   3.651
64258W        W32599  15.297  35.099  13.433
64259W        W32600  35.485  18.648  11.444
64260W        W32601  24.517  37.908  14.982
64261W        W32602   4.739   3.382   0.838
64262W        W32603  13.742  14.690   1.326
64263W        W32604  39.539  26.607   2.246
64264W        W32605  26.049  39.517   2.742
64265W        W32606  36.535   3.394   3.322
64266W        W32607  42.004  18.716   0.812
64267W        W32608  37.031  18.749  10.968
64268W        W32609   6.337  20.535  11.061
64269W        W32610  17.649  13.111  14.873
64270W        W32611  16.169   0.252   1.698
64271W        W32612  27.154  22.579   0.903
64272W        W32613  16.290  19.637   5.226
64273W        W32614  20.751  38.007  11.424
64274W        W32615  22.184  42.476   4.144
64275W        W32616  35.566  29.005  12.449
64276W        W32617   7.352  38.057  10.631
64277W        W32618  42.517  26.976   0.400
64278W        W32619   5.822   3.785   4.203
64279W        W32620  26.521   6.399   0.247
64280W        W32621  40.964   7.673  10.412
64281W        W32622  10.718  10.227   5.730
64282W        W32623  37.564  36.424   3.640
64283W        W32624  16.607  14.314  12.071
64284W        W32625   8.825  36.347  13.449
64285W        W32626   0.768   3.728   0.729
64286W        W32627   9.298  13.269   3.868
64287W        W32628  28.475  41.375  13.831
64288W        W32629  36.936  32.954   0.756
64289W        W32630   8.842  28.082   4.754
64290W        W32631  34.399  31.904  12.838
64291W        W32632  23.205  41.910   4.649
64292W        W32633   0.827  18.579   9.459
64293W        W32634  19.552  10.723  14.844
64294W        W32635  20.128  18.685  11.436
64295W        W32636  26.204  28.104  14.967
64296W        W32637  10.236  40.476   4.273
64297W        W32638  31.522  33.100  14.942
64298W        W32639   9.712  42.295  12.454
64299W        W32640  43.471  23.710   3.763
64300W        W32641   7.809  36.457  14.825
64301W        W32642  39.830  28.165   1.410
64302W        W32643  30.544  43.964  14.780
64303W        W32644  25.204  37.488  11.947
64304W        W32645  41.818  26.185  12.877
64305W        W32646  14.250  20.580   1.210
64306W        W32647  13.705  23.515   4.797
64307W        W32648  11.845  19.635   4.116
64308W        W32649   6.816  25.137   0.260
64309W        W32650  11.814  10.738  13.018
64310W        W32651  39.941  36.026  12.836
64311W        W32652  36.577  32.089   0.331
64312W        W32653  22.545  30.503   0.904
64313W        W32654  25.527  35.363   1.277
64314W        W32655  19.774  44.931  12.412
64315W        W32656  16.787  44.266  10.446
64316W        W32657  32.629   6.904  12.889
64317W        W32658  12.247   2.820  14.803
64318W        W32659  18.706   9.760   2.723
64319W        W32660  29.493  43.780   0.246
64320W        W32661  42.357  31.940  13.835
64321W        W32662  44.000   3.271  10.479
64322W        W32663  11.328  26.079  11.988
64323W        W32664  34.587  44.341   0.864
64324W        W32665   8.209   1.975   0.793
64325W        W32666  28.621   5.355  11.595
64326W        W32667  30.566  41.478   1.271
64327W        W32668   0.291  39.540  12.360
64328W        W32669  10.660  32.925   0.483
64329W        W32670  27.016  43.364  11.076
64330W        W32671  27.605  42.367  11.446
64331W        W32672  37.535  16.273   1.303
64332W        W32673  42.463  29.950  11.871
64333W        W32674  13.281  21.553   2.833
64334W        W32675  32.988  13.252  14.346
64335W        W32676   9.272  16.074  12.548
64336W        W32677  44.916  18.604   1.231
64337W        W32678  25.073  24.060  14.800
64338W        W32679  10.756  21.733   2.794
64339W        W32680  26.016  25.165   1.751
64340W        W32681  26.063  16.187   4.690
64341W        W32682  19.126   5.928  14.483
64342W        W32683   7.880  42.781   4.739
64343W        W32684  25.184  27.663   4.334
64344W        W32685  33.025  36.913   4.116
64345W        W32686  37.853  12.773  11.025
64346W        W32687  19.642  21.536  14.435
64347W        W32688  41.878   8.809   2.888
64348W        W32689  32.015  38.430  12.496
64349W        W32690  31.459  12.734  14.313
64350W        W32691  30.646  38.967   0.446
64351W        W32692   4.248  21.180   1.929
64352W        W32693  24.652  15.106   0.325
64353W        W32694  32.449  25.480  14.968
64354W        W32695  12.809  30.572  11.045
64355W        W32696   8.348  20.728   3.195
64356W        W32697  43.334  12.755  11.568
64357W        W32698   1.264  18.083   1.293
64358W        W32699  10.305  26.995   1.376
64359W        W32700  18.761  24.080   3.798
64360W        W32701   0.474  41.461  11.867
64361W        W32702  33.388  25.176   2.893
64362W        W32703   5.405  26.614  11.479
64363W        W32704  31.568  19.588  12.978
64364W        W32705  33.897  11.372   2.315
64365W        W32706  32.634  17.621  12.486
64366W        W32707   6.426   8.759  14.834
64367W        W32708  32.008   7.171   1.220
64368W        W32709  18.146  35.515   1.219
64369W        W32710  20.141  13.121  13.364
64370W        W32711  36.866  39.525  14.442
64371W        W32712  15.248  19.069  11.966
64372W        W32713  33.620   8.230  13.904
64373W        W32714  25.167  12.231   4.669
64374W        W32715  21.627   9.163   4.134
64375W        W32716   2.316  33.894  14.312
64376W        W32717  14.131  43.306   1.892
64377W        W32718  34.398   6.422  11.461
64378W        W32719   7.215  23.505   0.359
64379W        W32720  20.584  18.102  14.813
64380W        W32721   0.422   3.259  14.308
64381W        W32722  43.459  41.326   4.820
64382W        W32723  33.610  29.118   2.279
64383W        W32724   8.188  27.105  11.114
64384W        W32725   3.868  12.234   4.281
64385W        W32726   1.279   5.316   2.861
64386W        W32727  26.074   1.732  10.548
64387W        W32728  34.936  13.125   4.148
64388W        W32729   2.229  22.578  10.508
64389W        W32730   6.723  17.792  14.759
64390W        W32731  31.934  34.980   1.903
64391W        W32732   3.414  21.708  12.404
64392W        W32733   1.363  14.758  12.908
64393W        W32734   7.274  26.464   4.655
64394W        W32735  16.734  16.616   0.747
64395W        W32736   9.859  15.760  13.804
64396W        W32737  11.287  36.572  13.343
64397W        W32738  43.335   5.378   1.244
64398W        W32739   2.438  35.415   2.668
64399W        W32740  15.176  28.453  13.881
64400W        W32741   2.445  29.043  13.531
64401W        W32742  27.051   0.470  14.812
64402W        W32743  36.590   2.317  10.963
64403W        W32744  36.553  34.867  13.839
64404W        W32745  35.867   4.238  10.437
64405W        W32746  13.802  42.885   2.418
64406W        W32747  43.831  26.611  11.506
64407W        W32748  10.378  32.011   4.648
64408W        W32749  34.093  25.477   0.839
64409W        W32750  37.857  26.589  12.564
64410W        W32751  25.966  37.483   1.901
64411W        W32752  27.595  38.552  14.916
64412W        W32753  44.769  27.636   2.255
64413W        W32754  28.130  34.952   3.226
64414W        W32755  19.569   0.802   3.153
64415W        W32756  26.458  33.918  13.317
64416W        W32757  25.158  11.832  10.448
64417W        W32758  28.025  35.537  14.784
64418W        W32759  15.715  23.624  14.364
64419W        W32760   0.338   5.785   1.760
64420W        W32761  34.090   7.832   3.709
64421W        W32762  19.646  37.376  11.458
64422W        W32763  12.724  33.008  10.463
64423W        W32764  37.002   3.223   1.394
64424W        W32765  43.462   4.859   1.873
64425W        W32766  16.161  18.072   3.238
64426W        W32767  40.824  14.600  13.525
64427W        W32768   6.239  10.739  11.555
64428W        W32769  21.545  40.516   4.631
64429W        W32770  41.537  15.316  11.995
64430W        W32771   0.279   1.366  12.845
64431W        W32772   7.682  31.574  13.952
64432W        W32773  43.938  24.008   3.188
64433W        W32774  39.333  34.993  10.527
64434W        W32775  44.309  32.003   5.158
64435W        W32776  36.990   7.785  12.466
64436W        W32777  13.744  17.629   1.336
64437W        W32778  22.216  24.045   0.866
64438W        W32779  18.194  35.487  14.451
64439W        W32780  31.941  37.543   2.678
64440W        W32781   4.782  30.599  14.928
64441W        W32782   5.323  30.656  12.404
64442W        W32783  32.023   8.167  12.917
64443W        W32784  18.740  41.406   0.407
64444W        W32785   2.920  29.136   4.139
64445W        W32786  32.985  12.179  14.833
64446W        W32787  17.240  16.129   4.681
64447W        W32788  30.418  43.970  13.974
64448W        W32789  35.883   2.371  14.401
64449W        W32790  41.337  16.626   0.481
64450W        W32791   1.247  29.505   0.796
64451W        W32792  24.595  13.125  12.910
64452W        W32793  42.881  16.786   3.647
64453W        W32794   6.760  38.907  12.422
64454W        W32795   5.319  12.319  13.342
64455W        W32796   2.384  41.817  14.278
64456W        W32797   0.475  37.930   2.359
64457W        W32798  36.476   2.958   2.191
64458W        W32799  10.306  20.213   0.921
64459W        W32800   0.770  26.585  10.147
64460W        W32801  25.963  10.182   3.870
64461W        W32802   1.785  34.973   2.835
64462W        W32803  24.030  30.422   1.445
64463W        W32804   7.368  38.042   3.752
64464W        W32805   0.939  36.435   1.768
64465W        W32806   8.311  28.939   4.739
64466W        W32807  29.465  40.360   3.774
64467W        W32808  10.781  14.226  12.978
64468W        W32809   8.228  34.006  13.435
64469W        W32810  13.230  30.641  12.864
64470W        W32811  11.714   4.294  12.415
64471W        W32812  23.178   3.216  11.080
64472W        W32813  36.087  42.303   3.157
64473W        W32814  10.726   5.250  11.417
64474W        W32815   5.204  20.620  13.519
64475W        W32816  38.889   3.347   0.799
64476W        W32817  26.516  28.985  11.032
64477W        W32818  39.811  26.673  13.918
64478W        W32819  24.577   4.334  14.000
64479W        W32820  41.029  29.515   1.434
64480W        W32821  25.538  25.545   0.312
64481W        W32822   7.907   7.885   1.384
64482W        W32823  15.670  17.705  11.963
64483W        W32824   9.340  10.822  13.429
64484W        W32825   0.277  36.065   3.262
64485W        W32826  44.980  18.213  13.845
64486W        W32827  22.252  34.508  11.521
64487W        W32828  24.553  21.675   4.655
64488W        W32829  22.162  17.563  12.472
64489W        W32830  38.477  17.796  11.026
64490W        W32831  37.525  26.654   3.672
64491W        W32832   9.673  27.131   4.636
64492W        W32833   6.731  40.859   0.255
64493W        W32834  12.828  29.935   2.850
64494W        W32835   9.211  20.761   3.677
64495W        W32836  23.023  14.203   2.675
64496W        W32837  43.912   2.444   4.282
64497W        W32838  17.162  37.425   2.884
64498W        W32839  42.318  18.250   5.101
64499W        W32840  10.205  13.129  12.951
64500W        W32841   5.928   6.190   4.797
64501W        W32842  42.384   9.703   3.292
64502W        W32843  31.144  22.608   3.339
64503W        W32844  33.047  32.481  10.966
64504W        W32845  35.554   9.363   3.690
64505W        W32846  24.220   9.789   4.279
64506W        W32847  44.346  43.894   2.869
64507W        W32848   3.807   5.747  11.509
64508W        W32849  13.741  36.998  10.961
64509W        W32850   3.905  19.168   3.197
64510W        W32851  30.946  41.439   5.223
64511W        W32852   3.343  27.638  11.997
64512W        W32853  10.316  33.494   5.297
64513W        W32854   3.901  11.316   2.703
64514W        W32855  20.598  22.083  12.851
64515W        W32856  10.651  23.647  13.424
64516W        W32857  19.211  13.311  10.540
64517W        W32858  26.541  13.281   2.764
64518W        W32859  25.673  41.893   2.243
64519W        W32860  35.865  44.949  14.031
64520W        W32861  42.427  36.062   1.914
64521W        W32862  18.664  40.390  11.390
64522W        W32863  18.284  21.607  11.588
64523W        W32864  31.610  18.723   2.307
64524W        W32865   8.785  21.566   1.269
64525W        W32866  32.038  42.440  14.823
64526W        W32867  31.067  10.805   0.256
64527W        W32868  17.261  24.521   4.806
64528W        W32869   1.458  38.501  14.379
64529W        W32870  15.710  31.408   5.263
64530W        W32871  23.053  15.621  13.810
64531W        W32872  22.023  40.887   4.709
64532W        W32873  30.943   5.837  14.314
64533W        W32874   8.256  25.687   1.222
64534W        W32875  37.908   8.754  14.495
64535W        W32876  19.690  29.974   1.748
64536W        W32877  27.164  38.418  11.076
64537W        W32878   9.781  41.978   2.686
64538W        W32879   2.912  11.628  12.446
64539W        W32880  33.001  13.244  12.076
64540W        W32881  10.370  28.645  12.412
64541W        W32882  30.541  36.456   0.934
64542W        W32883   8.363  36.918  14.319
64543W        W32884   0.875   0.929  11.439
64544W        W32885  19.208  17.698   3.703
64545W        W32886  40.427  18.144   4.716
64546W        W32887   0.441  44.849   1.728
64547W        W32888  44.355  19.563   5.174
64548W        W32889  27.469  27.987   5.186
64549W        W32890  27.988  10.185  10.922
64550W        W32891  43.434  31.136   2.682
64551W        W32892  36.576  13.335  13.540
64552W        W32893   9.365  31.451   1.830
64553W        W32894   7.243  31.995  10.993
64554W        W32895  37.413  24.713  11.877
64555W        W32896  12.244   4.770  12.461
64556W        W32897  13.297  32.105   4.635
64557W        W32898  33.978  11.147  11.890
64558W        W32899  20.227  16.604  11.551
64559W        W32900  42.937  27.122  12.378
64560W        W32901  25.116  15.162  13.363
64561W        W32902  14.828  39.811   3.694
64562W        W32903  26.190  13.152   0.289
64563W        W32904  40.501   6.828   2.783
64564W        W32905  17.249  26.590  10.498
64565W        W32906   1.329  41.826   3.703
64566W        W32907   3.771  14.237   1.819
64567W        W32908  25.157  17.769  10.931
64568W        W32909   4.822  43.810  13.327
64569W        W32910  23.706  23.721   2.312
64570W        W32911  37.087   6.918   1.345
64571W        W32912   4.729  44.456  13.342
64572W        W32913   6.259  19.659   2.408
64573W        W32914  31.626  23.676  12.557
64574W        W32915  10.381   1.281   3.869
64575W        W32916  21.735  35.399   1.428
64576W        W32917   1.265   1.908  14.783
64577W        W32918  20.690   4.917  11.969
64578W        W32919  39.888  35.054   2.380
64579W        W32920   9.332  42.981  12.085
64580W        W32921  12.685  27.647   2.355
64581W        W32922   8.174  28.038   4.337
64582W        W32923  42.397  27.577   3.207
64583W        W32924   6.736  35.425  11.084
64584W        W32925  37.577  35.499  12.849
64585W        W32926  33.123   1.966   1.436
64586W        W32927  36.966  16.702   0.916
64587W        W32928  43.995  19.278   1.276
64588W        W32929  42.430  32.115  12.465
64589W        W32930  38.000  44.263  12.413
64590W        W32931  19.210  17.671  11.005
64591W        W32932   7.845  35.565  13.364
64592W        W32933  32.022  43.444   3.362
64593W        W32934  25.567  35.500  13.369
64594W        W32935  30.968  32.100  11.079
64595W        W32936  13.245   4.839   4.230
64596W        W32937  35.474  17.757   2.198
64597W        W32938   6.791  42.849   2.685
64598W        W32939   4.273  34.525  11.994
64599W        W32940  30.619  44.827  11.109
64600W        W32941  31.488  25.579  12.019
64601W        W32942  15.581   9.255   0.339
64602W        W32943   6.834   7.752   3.743
64603W        W32944   2.929  11.855   2.391
64604W        W32945  14.274  28.574   3.736
64605W        W32946  12.327   8.304   2.709
64606W        W32947  29.468  22.653  13.938
64607W        W32948  21.053  11.677  13.510
64608W        W32949  15.580  39.839  10.038
64609W        W32950  44.333   2.286  13.469
64610W        W32951  30.987   1.861  11.019
64611W        W32952  44.383   5.194   3.794
64612W        W32953  38.845  28.941  14.786
64613W        W32954  22.209   1.815   0.344
64614W        W32955  15.753  42.323  11.107
64615W        W32956   8.809  11.721   0.728
64616W        W32957  25.608  15.779  10.462
64617W        W32958  31.421  37.895   0.317
64618W        W32959  39.542  41.862   2.665
64619W        W32960  12.207  20.761   3.331
64620W        W32961  44.329   7.759   3.650
64621W        W32962  27.646  14.608   1.224
64622W        W32963  19.187  12.729  13.978
64623W        W32964  22.676  11.847  13.896
64624W        W32965  39.396  44.931   1.373
64625W        W32966   0.475  39.938   4.128
64626W        W32967  33.111  15.100  11.015
64627W        W32968   3.789  23.600  14.283
64628W        W32969  28.057  34.598   3.672
64629W        W32970  32.395  29.665   3.351
64630W        W32971  19.219  22.131  10.942
64631W        W32972  28.552  14.252   0.420
64632W        W32973  31.414  25.173  12.921
64633W        W32974   4.812  40.001  14.851
64634W        W32975  16.115  44.836  12.412
64635W        W32976  11.747  34.592   4.631
64636W        W32977  42.971  34.981   4.139
64637W        W32978  40.044  39.066  14.920
64638W        W32979  32.952   6.902   1.723
64639W        W32980   9.156   3.815   2.855
64640W        W32981  37.866  38.358   2.743
64641W        W32982  42.943  10.717  11.078
64642W        W32983  38.484   4.425   4.254
64643W        W32984   8.817  25.632   1.770
64644W        W32985  23.576   1.811  13.930
64645W        W32986   5.893  17.634   3.200
64646W        W32987  26.538   2.315   4.755
64647W        W32988  22.015  44.975   1.320
64648W        W32989  32.459  20.221  11.966
64649W        W32990  27.089  15.582   2.875
64650W        W32991  41.505  34.117  11.060
64651W        W32992  15.668   6.824   0.848
64652W        W32993  14.752  24.230  11.400
64653W        W32994   0.449  37.530  11.464
64654W        W32995  32.051  39.903  12.070
64655W        W32996  44.765  29.967   1.413
64656W        W32997  30.544   2.317   1.922
64657W        W32998   0.845  25.067   2.396
64658W        W32999  31.085  14.793   1.834
64659W        W33000  20.250   6.359   1.916
64660W        W33001  10.773   7.182  10.425
64661W        W33002  23.679  34.012   3.811
64662W        W33003  37.046  28.004  10.492
64663W        W33004  29.477   2.937  10.554
64664W        W33005  22.664  28.500   0.406
64665W        W33006   6.701  33.908   2.855
64666W        W33007  41.308  24.089  11.396
64667W        W33008   4.872  22.585  11.860
64668W        W33009  32.099  36.051   4.601
64669W        W33010   5.352  35.889  14.412
64670W        W33011  26.560  35.073  12.880
64671W        W33012   0.911  29.171   0.766
64672W        W33013   8.811  34.937   0.435
64673W        W33014  28.958   8.376  13.022
64674W        W33015  19.664  38.028   2.295
64675W        W33016  22.566  33.952  11.469
64676W        W33017  17.583  18.598   4.181
64677W        W33018  39.020  25.144   1.787
64678W        W33019  40.440  42.958  13.509
64679W        W33020   3.398   4.421  12.940
64680W        W33021  16.567  38.367  13.540
64681W        W33022  19.767   2.439  11.372
64682W        W33023  32.610  23.074   2.875
64683W        W33024   6.694  23.727  14.416
64684W        W33025  34.102   0.756   2.385
64685W        W33026   1.280  35.498   3.777
64686W        W33027   8.677  44.984  14.892
64687W        W33028  23.063  36.372  13.991
64688W        W33029  27.142  14.171  14.972
64689W        W33030   4.861  21.658  11.430
64690W        W33031   4.442  39.488   2.365
64691W        W33032  37.983  33.515   4.602
64692W        W33033   9.292  19.622   0.270
64693W        W33034   0.784  10.177   5.274
64694W        W33035   7.718  34.892  12.457
64695W        W33036  32.604  26.518   4.337
64696W        W33037  44.782  41.301  13.389
64697W        W33038   7.367  40.976  14.508
64698W        W33039  12.782  36.444   3.222
64699W        W33040   5.924  42.414  13.877
64700W        W33041  22.551  28.161  10.624
64701W        W33042  38.917  43.457  13.313
64702W        W33043  31.130  42.027  13.967
64703W        W33044   8.241   0.346  13.371
64704W        W33045  35.471   6.381  11.031
64705W        W33046  19.717  33.609  11.948
64706W        W33047  29.116  22.182  12.347
64707W        W33048   2.752   2.414  12.827
64708W        W33049  33.061  24.056  14.945
64709W        W33050   8.403  38.405  10.449
64710W        W33051   9.694   8.714  12.451
64711W        W33052  29.451  26.169   4.715
64712W        W33053  31.073  13.195   5.130
64713W        W33054  38.546  44.815  14.774
64714W        W33055   8.378  16.760  13.011
64715W        W33056   7.822  39.528  14.444
64716W        W33057   5.695   6.893  11.374
64717W        W33058  31.583   3.410  12.013
64718W        W33059  11.146  44.777   2.326
64719W        W33060  12.844  10.873  14.814
64720W        W33061  17.130  40.937   4.275
64721W        W33062  26.103  39.543  10.629
64722W        W33063  44.369  41.461   3.764
64723W        W33064  27.540  22.682   4.214
64724W        W33065   9.284  38.439  14.814
64725W        W33066   2.355  15.156   2.753
64726W        W33067   3.241  17.177   5.235
64727W        W33068  44.993  44.834   4.159
64728W        W33069  31.144  41.344  12.059
64729W        W33070  27.983  23.548  12.069
64730W        W33071  40.033  28.181   4.239
64731W        W33072  26.567  39.848  13.833
64732W        W33073   9.817  18.671   2.336
64733W        W33074   0.743  40.378   4.227
64734W        W33075   9.371  13.182  14.461
64735W        W33076  29.940  27.160  13.315
64736W        W33077  28.612  11.713   1.814
64737W        W33078  13.725  20.107   2.378
64738W        W33079  24.148  31.614  11.920
64739W        W33080  20.123  13.609   0.347
64740W        W33081   3.784  26.973  13.463
64741W        W33082  25.533  12.650   2.728
64742W        W33083  38.017  42.298   5.582
64743W        W33084  26.599  10.349  13.871
64744W        W33085   0.927   7.789  12.375
64745W        W33086  43.283  23.547   0.319
64746W        W33087  32.970   4.345  13.361
64747W        W33088  40.344  36.995  11.044
64748W        W33089  42.445   0.752   0.281
64749W        W33090  32.485  29.950  10.457
64750W        W33091  17.170  12.316  14.367
64751W        W33092  11.233  38.343  10.953
64752W        W33093  25.631  34.047   2.237
64753W        W33094  22.719  15.279  13.445
64754W        W33095  11.283   9.754   2.353
64755W        W33096  38.514  34.388   0.845
64756W        W33097   4.222   8.900   2.807
64757W        W33098  15.114   0.270  11.475
64758W        W33099   4.699  13.247  12.418
64759W        W33100  14.304  36.354  13.995
64760W        W33101   7.331  39.817  14.006
64761W        W33102  35.584   4.928  14.407
64762W        W33103  22.678  17.623   4.184
64763W        W33104  32.548  27.979   2.729
64764W        W33105   7.271  29.646  14.924
64765W        W33106  13.663   2.815   1.874
64766W        W33107  39.506  10.275  13.061
64767W        W33108  28.581  26.689  11.417
64768W        W33109  15.260  17.689   3.690
64769W        W33110  17.156  35.987   9.982
64770W        W33111   2.321  36.471   4.643
64771W        W33112  40.407  41.966  14.020
64772W        W33113  38.355  24.223   0.363
64773W        W33114  23.020  21.591  13.909
64774W        W33115  38.065   3.874   3.353
64775W        W33116   8.700  33.046  11.446
64776W        W33117   7.322  20.259   3.844
64777W        W33118  14.220  35.498   2.842
64778W        W33119   1.313  43.350  14.028
64779W        W33120   0.776  19.041  13.035
64780W        W33121  31.108  41.476   2.342
64781W        W33122  21.578  14.241   0.462
64782W        W33123  30.621  15.681   1.710
64783W        W33124  41.841  40.418  13.457
64784W        W33125  16.161   0.754   1.895
64785W        W33126  40.326  37.932  13.517
64786W        W33127  27.627  25.711   3.793
64787W        W33128  17.560   1.451  11.980
64788W        W33129   8.194  26.683  14.781
64789W        W33130  42.283   2.849   1.390
64790W        W33131  16.714  28.655  12.917
64791W        W33132   5.303  44.420   2.397
64792W        W33133   5.296  22.204   2.353
64793W        W33134  30.980  10.845  12.830
64794W        W33135  36.458  33.928   1.438
64795W        W33136   3.945   0.303  12.958
64796W        W33137  24.178  43.913   1.853
64797W        W33138  20.618  11.232  11.456
64798W        W33139  24.075  24.028   1.836
64799W        W33140  31.025   4.781   3.740
64800W        W33141  14.757  30.581   0.868
64801W        W33142  31.640  33.976  14.802
64802W        W33143  24.644  31.537   4.126
64803W        W33144   0.955  21.068  13.031
64804W        W33145   1.821  11.310   2.236
64805W        W33146  27.491   8.171   4.127
64806W        W33147  41.911   9.674  13.336
64807W        W33148  38.454  38.932  10.893
64808W        W33149  23.188  25.090  13.045
64809W        W33150  14.647  13.234  14.426
64810W        W33151  34.096   9.373  10.931
64811W        W33152  40.957  20.078   2.229
64812W        W33153  32.418  35.098  14.824
64813W        W33154  20.241  38.017   4.744
64814W        W33155   5.705   3.724  13.345
64815W        W33156   3.268  39.523   3.803
64816W        W33157  32.910   5.884   4.293
64817W        W33158   5.278  36.425   0.847
64818W        W33159   8.749  29.669   4.645
64819W        W33160  14.661   4.233   4.625
64820W        W33161   5.354  32.522   3.756
64821W        W33162  12.627   4.409   4.249
64822W        W33163  33.400  36.094   1.392
64823W        W33164  34.991  31.629  12.053
64824W        W33165  12.215  29.484   4.132
64825W        W33166   9.778  40.040   1.379
64826W        W33167   0.897  21.746  12.047
64827W        W33168  14.234  12.264  11.868
64828W        W33169  37.911   1.832  13.482
64829W        W33170  39.431   5.268  12.378
64830W        W33171  43.774  31.945  13.860
64831W        W33172  43.429   3.448   1.282
64832W        W33173   9.369  28.099   2.389
64833W        W33174   8.696  39.868  13.831
64834W        W33175  44.989  23.219  11.511
64835W        W33176   3.304  25.536   4.289
64836W        W33177  40.883   7.173  13.371
64837W        W33178   6.421  18.740  10.918
64838W        W33179  38.942   7.390  14.851
64839W        W33180  28.042   1.795  14.304
64840W        W33181   5.908  33.543   0.802
64841W        W33182  18.061  29.572   1.733
64842W        W33183  12.327  44.468  11.452
64843W        W33184  33.090   9.387   2.717
64844W        W33185  16.810  39.928  14.952
64845W        W33186  34.047  16.130   3.865
64846W        W33187  32.910  29.081   0.916
64847W        W33188  38.857  42.001   3.769
64848W        W33189  33.990   3.418   3.747
64849W        W33190  28.997   4.797   1.770
64850W        W33191  28.634  15.266   3.293
64851W        W33192  19.069  29.580   2.719
64852W        W33193   3.935  17.790   0.754
64853W        W33194  27.608  15.212   0.278
64854W        W33195   0.760   5.771   1.296
64855W        W33196  29.648  42.349  11.425
64856W        W33197  21.042  41.847   0.271
64857W        W33198  34.113  29.060  11.884
64858W        W33199  42.490  44.329  12.982
64859W        W33200  25.581  16.771  14.880
64860W        W33201  32.040  42.803  10.918
64861W        W33202   1.877  21.062  13.060
64862W        W33203  42.789  34.042   3.228
64863W        W33204   9.869  20.212  11.405
64864W        W33205  14.226  44.335  11.921
64865W        W33206  16.296   0.424  12.037
64866W        W33207  18.269  39.821   1.427
64867W        W33208   1.417  37.895   3.320
64868W        W33209  23.490   0.902   0.375
64869W        W33210  21.728   7.387   3.798
64870W        W33211   6.859  29.069   1.759
64871W        W33212   0.928  21.068   1.324
64872W        W33213  21.097  31.978   3.784
64873W        W33214  36.373  30.052   4.195
64874W        W33215  33.012   4.884  11.524
64875W        W33216  38.461  24.195   1.408
64876W        W33217  43.292   8.737   3.749
64877W        W33218  30.656   7.171  12.846
64878W        W33219   5.808  19.281  13.957
64879W        W33220  29.101   2.419   2.184
64880W        W33221  33.959  31.906   1.769
64881W        W33222   6.288  34.883   4.685
64882W        W33223  19.592  19.238  11.542
64883W        W33224   2.322  29.072   0.820
64884W        W33225  36.570  34.553   1.900
64885W        W33226  20.195  36.858  14.783
64886W        W33227  26.161   6.410   2.672
64887W        W33228  29.043   5.698   3.191
64888W        W33229  13.771  41.043   9.489
64889W        W33230  12.343  33.467  13.954
64890W        W33231  42.872  39.992   2.345
64891W        W33232   9.683  23.055   4.153
64892W        W33233   2.910  11.310  11.972
64893W        W33234   6.721  19.225   1.388
64894W        W33235  29.035  37.396   1.695
64895W        W33236  20.161  18.613  11.017
64896W        W33237  34.469  42.330  11.427
64897W        W33238  13.163  33.890  13.346
64898W        W33239  40.906   7.762   2.781
64899W        W33240  31.435   2.252  12.909
64900W        W33241   6.881   0.749  14.857
64901W        W33242  11.837  35.032   1.245
64902W        W33243  41.012   3.357   4.277
64903W        W33244  39.919   2.781  14.022
64904W        W33245   2.812  13.280   3.218
64905W        W33246   2.325  23.093  13.908
64906W        W33247  17.666  24.678  11.488
64907W        W33248  34.904  40.972  10.529
64908W        W33249  12.199  32.929   3.817
64909W        W33250  17.747  19.211   1.853
64910W        W33251  44.860  24.058   1.443
64911W        W33252  23.724  19.243   2.264
64912W        W33253  16.306  35.109   4.263
64913W        W33254  22.710   8.712  11.064
64914W        W33255  28.154  31.418   3.296
64915W        W33256  36.460   4.355  11.000
64916W        W33257  14.272   1.799  10.984
64917W        W33258  42.509  40.016  11.433
64918W        W33259  32.061   1.751  10.946
64919W        W33260  20.087   3.305   3.158
64920W        W33261  26.123  39.514   2.406
64921W        W33262  40.485   3.428  11.955
64922W        W33263  11.800  32.504   0.732
64923W        W33264   9.335  23.499  13.349
64924W        W33265  34.000   8.771   4.224
64925W        W33266  23.557  39.533   3.733
64926W        W33267   9.175  22.094  13.489
64927W        W33268   3.401  38.860   4.323
64928W        W33269  28.177  22.222   4.204
64929W        W33270  14.170   1.381  11.457
64930W        W33271   9.160   4.264  14.902
64931W        W33272   3.432  41.868   1.450
64932W        W33273  16.596  10.223  11.551
64933W        W33274  30.965  30.574  13.905
64934W        W33275   9.818  35.854  11.943
64935W        W33276  19.062  28.600   1.724
64936W        W33277   5.276  30.090  11.494
64937W        W33278  34.589   0.294   0.804
64938W        W33279   9.647  14.656  13.907
64939W        W33280   3.332   5.724  13.908
64940W        W33281  32.612  24.654  11.870
64941W        W33282  19.659   9.824   3.854
64942W        W33283  13.629  33.016  12.094
64943W        W33284  41.295   0.920  10.508
64944W        W33285  40.965  26.095   4.767
64945W        W33286  38.569  42.959   4.280
64946W        W33287   5.909  36.408   4.749
64947W        W33288   3.360   1.734  10.140
64948W        W33289  26.584  18.764  10.597
64949W        W33290   0.921  38.882   0.325
64950W        W33291  39.925  13.776   0.421
64951W        W33292  31.442  30.131  13.976
64952W        W33293   8.747  40.023  11.468
64953W        W33294   0.355  28.098  13.406
64954W        W33295  44.947   0.784   3.284
64955W        W33296  14.706  30.475  12.035
64956W        W33297  37.066  23.557  12.991
64957W        W33298  25.046  16.254  11.056
64958W        W33299  35.998  38.362  12.412
64959W        W33300  41.912  29.120  14.422
64960W        W33301  30.054  38.550  14.427
64961W        W33302  42.943  28.460  12.550
64962W        W33303  33.028   7.266  10.476
64963W        W33304   4.743   2.843   3.158
64964W        W33305   4.411  32.619  12.075
64965W        W33306  11.292  30.056  14.896
64966W        W33307   5.207  33.004  11.054
64967W        W33308  26.458  15.615  14.900
64968W        W33309   4.448  32.469  14.803
64969W        W33310  31.639  43.331  14.346
64970W        W33311  41.367  26.092  11.572
64971W        W33312  34.973  40.837   0.851
64972W        W33313   0.967  42.847  13.965
64973W        W33314  13.657  22.718   2.238
64974W        W33315   6.719  33.459   4.319
64975W        W33316  40.799  36.994   0.882
64976W        W33317  20.667  25.205   3.241
64977W        W33318  13.303  20.531   4.172
64978W        W33319  35.398   8.830   1.384
64979W        W33320   8.283  32.954   4.155
64980W        W33321  39.930  26.043   2.664
64981W        W33322   4.897  38.501   3.176
64982W        W33323  16.182  30.017   1.896
64983W        W33324  18.752  11.846   9.961
64984W        W33325  12.218  34.117  13.909
64985W        W33326   7.787  17.225  10.554
64986W        W33327  19.615  38.485   4.153
64987W        W33328  21.687  38.493   0.814
64988W        W33329   2.837  25.016  11.952
64989W        W33330  20.143  11.313  11.472
64990W        W33331  38.413   9.750   4.163
64991W        W33332  28.030   0.917   0.867
64992W        W33333  22.732  27.179  12.386
64993W        W33334  14.827   8.160  14.511
64994W        W33335   9.226   3.765  10.962
64995W        W33336  28.162  10.308   2.384
64996W        W33337  34.614  29.573  14.842
64997W        W33338   9.846  40.922  14.399
64998W        W33339  20.620  30.425  12.009
64999W        W33340   9.815  11.254  13.839
65000W        W33341   4.290   9.212   2.327
65001W        W33342  41.042  42.456   0.727
65002W        W33343   2.451  29.953   1.352
65003W        W33344  12.637  19.611  13.381
65004W        W33345  24.196   6.708   1.901
65005W        W33346  36.488  25.590   0.454
65006W        W33347  18.722   2.256  11.999
65007W        W33348  10.747  27.140  12.900
65008W        W33349  33.474  15.682   0.959
65009W        W33350  40.442  28.075  10.982
65010W        W33351  26.089  39.519  13.902
65011W        W33352   2.252  18.597  10.970
65012W        W33353  40.387  22.174   3.322
65013W        W33354  30.935   1.265  13.862
65014W        W33355  21.528   0.848   0.886
65015W        W33356  41.864  19.197   2.714
65016W        W33357  40.340   0.477  11.572
65017W        W33358  43.971  39.958  11.057
65018W        W33359  11.304   0.453   3.676
65019W        W33360  16.583  20.700   3.789
65020W        W33361   5.849  32.034  12.373
65021W        W33362  38.018   9.257  13.437
65022W        W33363  17.588  25.628   1.840
65023W        W33364  36.465  20.029  13.547
65024W        W33365  11.274  43.941  10.411
65025W        W33366   0.276   6.908   0.826
65026W        W33367  21.745  19.622   3.823
65027W        W33368  29.016  10.841   2.800
65028W        W33369   3.714  43.937  11.919
65029W        W33370  17.262  38.473  11.990
65030W        W33371  42.820  28.603  13.041
65031W        W33372  20.185  35.904   2.873
65032W        W33373  12.847  26.520  10.903
65033W        W33374  16.185  21.593  10.426
65034W        W33375  22.042  44.799   3.157
65035W        W33376  10.246  20.710  12.072
65036W        W33377  16.769  21.732   3.806
65037W        W33378   6.308  19.579   2.730
65038W        W33379   4.334  27.652   1.327
65039W        W33380  33.053  21.622  13.907
65040W        W33381  39.019  29.999  11.560
65041W        W33382  36.955  16.097   1.293
65042W        W33383  14.787  34.612  12.967
65043W        W33384  36.474  29.485   0.934
65044W        W33385  18.749  10.741   1.401
65045W        W33386  17.668   8.721  11.126
65046W        W33387  43.785  34.573   2.328
65047W        W33388  34.385  26.666  11.546
65048W        W33389  32.568   1.421  10.547
65049W        W33390   4.778  23.545  13.877
65050W        W33391  36.504  33.000   4.659
65051W        W33392  18.623  13.202  14.954
65052W        W33393  37.885  35.577   4.233
65053W        W33394  18.740  17.558   1.429
65054W        W33395  27.007  18.576  11.038
65055W        W33396  11.320  27.613  10.481
65056W        W33397  29.659  25.615  14.368
65057W        W33398   1.479  38.520  12.375
65058W        W33399  27.172   5.208  11.587
65059W        W33400  28.165  34.987   2.805
65060W        W33401  19.211  24.220   4.724
65061W        W33402  34.107   0.971  12.089
65062W        W33403  14.596  31.139  10.596
65063W        W33404  17.281  27.959   3.871
65064W        W33405   0.364   9.206  14.783
65065W        W33406  40.951   1.355   0.458
65066W        W33407   1.970  13.641  10.635
65067W        W33408  21.655   0.483  13.317
65068W        W33409  28.968  37.557  12.986
65069W        W33410  28.113  37.511   2.400
65070W        W33411  34.567  12.649  10.414
65071W        W33412  12.751  26.499  13.544
65072W        W33413  34.097  11.336   4.200
65073W        W33414   6.821  16.585   1.745
65074W        W33415  40.834  39.988  12.516
65075W        W33416   7.750   0.828  14.499
65076W        W33417  29.617  32.888   1.740
65077W        W33418  11.337   6.248   1.711
65078W        W33419  39.962   9.840   1.352
65079W        W33420   6.378  37.500  11.913
65080W        W33421   7.304   0.351  11.096
65081W        W33422   4.709  21.172  14.828
65082W        W33423  25.052  12.306  12.087
65083W        W33424  18.596  11.233   4.661
65084W        W33425  22.593   1.426   2.363
65085W        W33426  38.952  26.017  12.938
65086W        W33427  20.158   2.275   4.133
65087W        W33428  39.320   6.740  14.284
65088W        W33429  21.527  34.460  10.499
65089W        W33430  39.452  44.756  14.278
65090W        W33431  25.121  15.216  12.565
65091W        W33432  29.495  34.532  10.564
65092W        W33433  26.156  14.252   3.196
65093W        W33434  33.062  39.415   3.224
65094W        W33435  18.072  29.103   3.153
65095W        W33436  33.051   6.402   2.677
65096W        W33437  40.539  19.567  10.595
65097W        W33438  29.564  35.530  14.008
65098W        W33439   2.941  35.010  14.278
65099W        W33440   6.412  17.065   1.800
65100W        W33441  30.576  17.685  11.587
65101W        W33442  35.087  29.569   5.212
65102W        W33443  15.781   8.776  10.020
65103W        W33444  15.603  20.222  13.452
65104W        W33445  23.605  14.833   0.299
65105W        W33446  33.920  18.563  12.557
65106W        W33447   6.918  19.102   2.874
65107W        W33448  40.967  25.125  12.446
65108W        W33449   1.826  43.803  11.868
65109W        W33450  27.977   4.242  11.395
65110W        W33451   8.251   3.751   1.761
65111W        W33452   7.698   4.426  10.943
65112W        W33453   5.884  37.550  14.512
65113W        W33454  27.682  14.306   0.858
65114W        W33455   4.222  27.966   4.115
65115W        W33456  44.317  43.954  13.439
65116W        W33457  21.066   1.415  13.847
65117W        W33458  14.596  12.235   4.623
65118W        W33459   6.850  31.613  14.814
65119W        W33460  31.475  13.211   3.342
65120W        W33461   9.389   3.950  12.026
65121W        W33462   0.386  37.086   3.857
65122W        W33463  41.326  24.492  14.473
65123W        W33464  32.949  37.008   0.425
65124W        W33465  44.801   5.897  14.851
65125W        W33466  42.894   4.265   1.274
65126W        W33467  19.178  21.571  14.482
65127W        W33468   2.260  28.504   4.296
65128W        W33469  12.629  18.581  11.921
65129W        W33470  41.335  22.649  13.350
65130W        W33471  20.717  39.877  12.468
65131W        W33472  43.891   1.279  12.383
65132W        W33473  33.092  35.372  14.276
65133W        W33474  33.439  39.381  14.938
65134W        W33475  18.637   4.306  13.310
65135W        W33476  21.555  44.451   3.368
65136W        W33477  41.440  19.191  11.466
65137W        W33478  17.784   3.323  11.007
65138W        W33479  31.609  20.524   4.141
65139W        W33480  18.600  33.011  10.488
65140W        W33481  22.052  19.115   1.421
65141W        W33482   6.421   0.943   4.340
65142W        W33483  38.353  41.331   2.839
65143W        W33484   7.677  28.184   5.222
65144W        W33485  23.077   0.372   2.826
65145W        W33486  41.012  38.395   4.812
65146W        W33487  16.280  11.807  12.489
65147W        W33488   1.315   5.425  13.024
65148W        W33489  25.151  30.466   1.796
65149W        W33490  37.073  35.581  14.994
65150W        W33491  25.985  20.068   2.210
65151W        W33492  26.492  22.050  13.859
65152W        W33493  26.040  27.161   4.229
65153W        W33494  16.666  18.292  13.045
65154W        W33495   4.905  26.193   4.295
65155W        W33496  40.863   4.844  11.416
65156W        W33497  41.904   4.277   0.910
65157W        W33498   0.270   8.781   1.374
65158W        W33499  25.506  43.379   3.160
65159W        W33500   7.830  16.578   3.871
65160W        W33501  39.033  27.968   1.451
65161W        W33502  40.019  31.528  11.105
65162W        W33503  13.788  29.634  11.451
65163W        W33504  23.539   3.911   2.209
65164W        W33505  42.781   4.390  12.539
65165W        W33506  27.971  16.182   2.861
65166W        W33507  43.898  38.328  13.813
65167W        W33508  13.261  42.445   0.350
65168W        W33509   3.821  31.536   4.764
65169W        W33510  21.620  31.471  12.400
65170W        W33511  43.921  23.522  10.435
65171W        W33512  19.691  16.622   3.634
65172W        W33513  13.725  32.583   2.325
65173W        W33514  32.509   6.304   2.403
65174W        W33515  40.521  18.108  13.469
65175W        W33516  11.223  20.262  13.455
65176W        W33517  42.515  39.054  12.089
65177W        W33518  44.412  32.051   4.598
65178W        W33519  20.204  40.854  12.857
65179W        W33520  25.095  18.164  10.930
65180W        W33521   7.379  21.643  10.639
65181W        W33522  40.455   6.201  12.015
65182W        W33523  39.446  32.435  12.863
65183W        W33524  18.569  29.661   2.871
65184W        W33525  17.785  24.159   1.836
65185W        W33526  34.429  40.346  14.437
65186W        W33527  38.865  34.478  11.100
65187W        W33528  31.459  38.954  12.514
65188W        W33529   0.348   3.888   1.746
65189W        W33530  12.802  28.960  14.473
65190W        W33531  32.991   6.195   2.257
65191W        W33532  20.568   9.316  11.862
65192W        W33533  25.477  23.044   4.215
65193W        W33534  19.169   5.797   4.234
65194W        W33535  28.582  32.572   3.828
65195W        W33536  38.936  12.726  11.947
65196W        W33537  21.600  42.344   1.935
65197W        W33538  35.024  22.063  14.281
65198W        W33539  28.071  24.567  12.960
65199W        W33540  14.336  41.889  14.452
65200W        W33541   0.898  31.968   4.753
65201W        W33542   3.299  30.513  12.544
65202W        W33543   2.449   5.857  11.902
65203W        W33544   1.819   1.331   3.710
65204W        W33545  39.496  12.795   0.394
65205W        W33546  32.895  33.616   4.770
65206W        W33547  37.396  24.546  12.556
65207W        W33548  21.560  24.134   3.354
65208W        W33549   6.184  23.557  13.997
65209W        W33550  15.638  10.648   4.834
65210W        W33551  41.511  22.603   0.879
65211W        W33552  26.204  17.167   9.924
65212W        W33553  31.896   7.342  11.447
65213W        W33554  37.043  23.190  14.989
65214W        W33555  18.129  37.847  14.278
65215W        W33556  29.967  37.961   2.775
65216W        W33557  13.655  32.903   2.304
65217W        W33558   0.825   2.937   0.930
65218W        W33559   7.416  43.815   2.731
65219W        W33560   7.757  32.987   0.909
65220W        W33561  18.638  44.770   2.737
65221W        W33562  13.265   1.956  14.359
65222W        W33563   7.714   8.180  14.513
65223W        W33564  31.477  35.506   3.232
65224W        W33565  37.570   0.884  11.374
65225W        W33566  29.992  14.694  11.482
65226W        W33567   8.784  28.140   0.251
65227W        W33568   6.856   6.396   0.427
65228W        W33569  40.845   7.847  12.489
65229W        W33570   0.898   8.400  14.871
65230W        W33571   1.774  33.048   4.704
65231W        W33572  40.527  42.429   4.649
65232W        W33573  27.064  31.607  13.014
65233W        W33574  11.285   6.321   0.909
65234W        W33575  17.236  30.465   0.842
65235W        W33576  14.211  25.149   1.882
65236W        W33577   4.237  10.371   1.755
65237W        W33578  15.804  30.528  12.487
65238W        W33579  33.947  10.252  14.471
65239W        W33580  29.566  33.884  12.470
65240W        W33581   6.785  36.085   1.221
65241W        W33582  39.508   4.218   1.279
65242W        W33583   6.850  14.663  13.358
65243W        W33584  32.418   6.775  10.500
65244W        W33585  10.155  38.437  10.606
65245W        W33586  28.458  10.799  14.772
65246W        W33587  36.851  37.441   0.451
65247W        W33588  29.492  42.362   2.182
65248W        W33589  32.946  10.287   1.839
65249W        W33590  27.641  26.084  11.919
65250W        W33591   6.359  43.915   1.396
65251W        W33592  23.226  42.841   2.230
65252W        W33593  11.641  40.387  11.931
65253W        W33594  32.459  37.043   4.170
65254W        W33595   2.277  11.803   9.926
65255W        W33596  44.424  44.969   1.713
65256W        W33597  30.506  28.602  14.364
65257W        W33598   1.442   7.277  12.378
65258W        W33599  18.261  27.612   4.783
65259W        W33600  30.064  21.160   0.897
65260W        W33601  16.717   7.350   2.326
65261W        W33602  37.417  42.422  10.484
65262W        W33603  28.089  19.189  11.997
65263W        W33604  41.909  39.348  12.973
65264W        W33605  42.980  25.674  14.288
65265W        W33606  44.895  10.638  11.546
65266W        W33607  15.147  11.643   3.193
65267W        W33608  36.973   2.253  12.990
65268W        W33609  37.338  13.175  11.981
65269W        W33610  28.998  26.010   2.743
65270W        W33611   1.353  25.994   4.214
65271W        W33612   2.917  19.620  10.485
65272W        W33613  33.060  26.014   0.313
65273W        W33614  19.266  26.533  12.948
65274W        W33615  15.680   9.295   1.888
65275W        W33616  14.835  21.640   0.744
65276W        W33617  13.719  40.423  14.887
65277W        W33618  13.723  22.535  10.627
65278W        W33619  17.291  32.511  13.338
65279W        W33620  37.383  35.575   3.210
65280W        W33621  43.017   8.278  12.470
65281W        W33622   3.304   6.225   3.372
65282W        W33623  21.062  21.636  12.057
65283W        W33624   5.300  12.328   1.451
65284W        W33625  14.160  14.791   1.762
65285W        W33626   1.353   7.718   2.260
65286W        W33627  15.121  38.934   4.767
65287W        W33628   1.775  35.923  12.070
65288W        W33629  12.322  25.167   3.842
65289W        W33630  32.439   4.252  14.878
65290W        W33631  36.431   7.305   1.701
65291W        W33632  14.182  11.270   2.417
65292W        W33633  43.280  15.217   3.648
65293W        W33634  43.931   8.378   1.715
65294W        W33635  32.937  44.826  11.904
65295W        W33636  12.660  34.392   0.876
65296W        W33637  11.202  16.696   2.260
65297W        W33638  13.238  20.619   3.730
65298W        W33639   5.904   6.321  11.941
65299W        W33640  22.581  43.324  11.871
65300W        W33641   0.970  37.923  13.362
65301W        W33642  33.887  40.367   3.795
65302W        W33643   0.805  11.671   1.797
65303W        W33644  20.102  38.916   0.442
65304W        W33645  13.141   7.411  11.895
65305W        W33646   6.277   5.255   0.446
65306W        W33647  21.633  41.420   4.304
65307W        W33648  24.667  12.302  12.474
65308W        W33649   2.788  11.370  10.532
65309W        W33650  35.413  19.746  12.936
65310W        W33651   6.329  17.130   4.632
65311W        W33652  31.481  22.588   3.352
65312W        W33653  13.845  25.188  10.510
65313W        W33654  38.436  17.622  11.858
65314W        W33655   0.785  40.306   5.236
65315W        W33656  44.295  28.646   0.775
65316W        W33657   3.353  14.274   3.865
65317W        W33658  24.224  33.117   2.804
65318W        W33659   4.945   0.473   4.830
65319W        W33660  18.587   6.866   3.343
65320W        W33661  33.580  20.617   5.241
65321W        W33662   9.389  33.011  13.356
65322W        W33663  38.841  18.562   2.898
65323W        W33664  13.105  16.246   0.886
65324W        W33665  30.964  38.073  12.849
65325W        W33666  13.822  34.098   2.334
65326W        W33667  23.646  26.460  14.810
65327W        W33668  26.699   0.963  12.931
65328W        W33669  18.259  16.629  14.376
65329W        W33670  35.953  41.887  13.524
65330W        W33671  42.894   3.872   1.365
65331W        W33672  17.642  22.208  14.305
65332W        W33673  28.652  37.377  11.421
65333W        W33674   3.932  11.272   1.300
65334W        W33675   6.766   2.287   1.919
65335W        W33676   3.399  41.495  12.883
65336W        W33677   8.756  16.268   4.631
65337W        W33678  33.930   4.794  11.996
65338W        W33679  35.477  36.842  10.522
65339W        W33680   0.315  37.494   0.475
65340W        W33681  25.497  17.780   0.951
65341W        W33682   9.798  12.167  14.835
65342W        W33683  30.963  25.619   0.728
65343W        W33684  14.229  14.617  12.976
65344W        W33685  13.108  20.261  12.561
65345W        W33686  26.033  26.671  14.028
65346W        W33687   7.408  30.516   0.300
65347W        W33688  36.051  39.918   2.180
65348W        W33689  17.753   2.229  12.368
65349W        W33690  25.074  44.430   0.290
65350W        W33691  44.503  15.600  14.846
65351W        W33692  35.983  35.457  11.007
65352W        W33693  23.173  32.516   1.862
65353W        W33694  32.403  36.493   4.248
65354W        W33695  13.165  38.357  14.346
65355W        W33696  18.077  19.582   2.736
65356W        W33697  21.622  34.876  11.396
65357W        W33698  32.552  10.800  14.027
65358W        W33699  43.464  30.503  11.587
65359W        W33700   6.706  19.689  12.063
65360W        W33701  10.768  28.471  11.414
65361W        W33702  18.211  32.074   2.409
65362W        W33703  30.998  40.524   4.730
65363W        W33704  30.641  20.562  10.547
65364W        W33705  29.080  41.319  12.959
65365W        W33706  44.349  13.208  12.824
65366W        W33707  43.487  42.438   1.230
65367W        W33708   0.264   7.261  13.841
65368W        W33709  41.397  32.974   2.284
65369W        W33710   5.703   7.195   3.315
65370W        W33711  43.016   6.891  14.515
65371W        W33712  34.561  29.015   2.348
65372W        W33713  33.540   4.900  10.935
65373W        W33714  10.828  15.683   2.353
65374W        W33715  22.549   3.253  13.450
65375W        W33716  31.061  38.543  14.844
65376W        W33717  36.429  10.297  14.421
65377W        W33718  33.905   7.286   1.366
65378W        W33719   9.210  11.349  14.016
65379W        W33720  19.591  35.586   2.779
65380W        W33721  43.790  43.996   2.391
65381W        W33722   2.854  37.983   2.879
65382W        W33723   7.844  20.154  11.387
65383W        W33724  28.570  24.660   0.858
65384W        W33725  38.977  44.890   0.798
65385W        W33726  25.611   4.816   2.665
65386W        W33727  24.544  32.956   4.677
65387W        W33728  33.478  38.554  11.968
65388W        W33729   8.672  34.556   0.904
65389W        W33730  41.033  30.926   0.428
65390W        W33731   6.745  42.352  11.526
65391W        W33732  26.499  28.066   0.843
65392W        W33733  31.434  26.534  10.586
65393W        W33734  24.087  12.168  12.880
65394W        W33735  11.813  24.556  12.881
65395W        W33736  43.356  37.361  14.979
65396W        W33737  18.191  39.824  14.371
65397W        W33738  13.286  22.642   4.667
65398W        W33739   9.292  17.247  13.938
65399W        W33740  43.304  42.366  11.581
65400W        W33741  19.650  35.912  12.472
65401W        W33742  20.636   8.835  14.848
65402W        W33743  16.698  21.254  10.618
65403W        W33744  18.253  17.691  14.032
65404W        W33745  35.881  20.083  11.928
65405W        W33746  17.064  25.634   2.805
65406W        W33747  32.559   1.249  12.871
65407W        W33748   1.945  34.978   4.640
65408W        W33749  36.009  18.092  12.397
65409W        W33750   9.745   4.405  13.929
65410W        W33751  22.605  27.648   3.359
65411W        W33752  38.420  32.637   4.630
65412W        W33753  23.534  16.120   4.721
65413W        W33754   2.865  38.027   1.697
65414W        W33755   4.345  12.249  12.891
65415W        W33756  35.963  23.988   3.214
65416W        W33757   3.754  14.782   3.319
65417W        W33758   5.411  19.277   4.288
65418W        W33759  19.756   5.416   4.764
65419W        W33760   7.853   9.270  13.393
65420W        W33761  17.269   8.697  10.533
65421W        W33762   2.450  25.690  11.097
65422W        W33763  33.556   8.759  13.308
65423W        W33764  18.136  25.691   3.664
65424W        W33765  27.557  21.755   1.232
65425W        W33766  11.287  13.751   0.470
65426W        W33767   9.305   9.325  13.483
65427W        W33768  34.883  20.181   0.481
65428W        W33769   5.748   3.867   1.279
65429W        W33770  31.107  33.066   4.800
65430W        W33771   5.340   4.775   0.956
65431W        W33772   8.663  31.950  14.773
65432W        W33773  11.232  29.923  14.325
65433W        W33774  29.651  32.000   1.323
65434W        W33775  38.019  41.814   2.367
65435W        W33776  30.931  21.578  11.510
65436W        W33777  40.351  19.120  14.318
65437W        W33778  19.190  44.004  12.543
65438W        W33779   1.410  36.459  13.997
65439W        W33780  34.899  21.613   3.826
65440W        W33781  40.026  21.186   1.289
65441W        W33782  22.560  15.614  13.502
65442W        W33783  30.125  37.860   0.901
65443W        W33784   1.952  19.725   0.428
65444W        W33785  44.999  13.783  14.396
65445W        W33786  34.386  40.458  10.496
65446W        W33787  40.421  39.349   0.743
65447W        W33788  32.102   9.380  14.491
65448W        W33789  26.173  40.032  10.956
65449W        W33790  39.431  37.461  12.091
65450W        W33791  40.313  37.085   2.724
65451W        W33792  36.545  10.369  12.949
65452W        W33793  43.773  26.503  14.334
65453W        W33794  14.766  10.739  11.484
65454W        W33795  18.134  42.884  11.462
65455W        W33796  35.399   3.946   4.171
65456W        W33797  20.061  36.873   3.859
65457W        W33798  29.071  13.308   1.833
65458W        W33799  27.496  17.781   4.134
65459W        W33800  31.612  28.177   1.262
65460W        W33801  17.148  15.762  11.958
65461W        W33802  31.477  33.022  13.943
65462W        W33803  23.713  34.981   3.787
65463W        W33804   4.894  18.564   2.683
65464W        W33805  37.518   9.798   4.351
65465W        W33806  19.607  43.868   0.775
65466W        W33807  16.188  18.145  12.418
65467W        W33808  19.718  19.235  12.427
65468W        W33809  24.098  19.591   4.215
65469W        W33810  34.930   1.378  14.380
65470W        W33811  28.097   9.670  13.019
65471W        W33812  33.045   1.805   4.669
65472W        W33813  41.346  28.942   3.790
65473W        W33814   8.725  27.951   5.271
65474W        W33815   7.722  12.665  10.887
65475W        W33816  35.360  37.035   0.862
65476W        W33817  32.903  33.383  11.504
65477W        W33818  42.025  43.456  12.853
65478W        W33819  31.622  13.676  10.634
65479W        W33820  34.056   1.372   4.250
65480W        W33821   3.376  31.897  11.551
65481W        W33822  18.268  36.041  12.914
65482W        W33823  18.097  33.529  14.408
65483W        W33824  42.019  18.252   3.317
65484W        W33825  15.621  33.088   5.162
65485W        W33826  13.249  34.425  10.548
65486W        W33827  24.014  21.546   2.828
65487W        W33828  41.953  37.987   3.337
65488W        W33829  38.858  44.788  13.402
65489W        W33830  10.675  31.103  12.519
65490W        W33831  37.563  43.453  13.415
65491W        W33832   2.803  22.684  14.810
65492W        W33833   7.869   8.373   2.415
65493W        W33834   5.879  29.562  13.850
65494W        W33835  35.095  30.590  10.633
65495W        W33836  34.595   9.363   1.372
65496W        W33837  30.998  29.643   2.265
65497W        W33838  43.280  28.539  14.513
65498W        W33839  10.663  28.111  10.971
65499W        W33840  22.563  38.545   3.335
65500W        W33841  12.856  43.908   2.763
65501W        W33842  18.086   6.241  13.332
65502W        W33843   5.200  25.096   3.344
65503W        W33844  44.286  30.594   2.378
65504W        W33845  15.809  12.838   2.733
65505W        W33846  35.877  23.164  10.403
65506W        W33847  25.981  40.813  14.496
65507W        W33848  42.378  32.037   2.704
65508W        W33849  27.086  43.913   1.278
65509W        W33850  15.702  17.099  12.420
65510W        W33851   6.267  21.601   3.692
65511W        W33852  21.168   2.944  14.500
65512W        W33853  44.848   5.211   4.119
65513W        W33854  23.172  11.248  14.363
65514W        W33855  16.812  22.541   4.195
65515W        W33856  39.413  15.643   4.184
65516W        W33857  43.916  32.963   1.721
65517W        W33858   1.470  20.112   4.354
65518W        W33859  42.873  28.989  12.842
65519W        W33860  37.871  11.193  12.496
65520W        W33861   9.307  36.090  14.841
65521W        W33862  22.053  14.832  14.465
65522W        W33863  14.739   1.465  10.555
65523W        W33864  17.123  42.477  12.352
65524W        W33865   3.757  16.693   1.848
65525W        W33866  28.971   4.824   4.766
65526W        W33867   8.367  10.738   0.815
65527W        W33868  10.749   0.926   2.808
65528W        W33869   8.705  30.110   2.364
65529W        W33870  29.458  27.989   5.193
65530W        W33871  43.797  25.083   1.719
65531W        W33872  44.966  24.607   0.455
65532W        W33873  22.060  10.680   0.414
65533W        W33874  34.591  26.648  10.418
65534W        W33875  13.337   5.260  11.024
65535W        W33876  26.118  41.951   2.816
65536W        W33877   0.924  27.538   4.177
65537W        W33878  42.516  38.970   2.753
65538W        W33879  34.567  19.044   1.423
65539W        W33880  22.009  18.655   0.869
65540W        W33881  37.525  37.070  12.881
65541W        W33882  44.326  15.655  13.911
65542W        W33883  35.886  17.760   0.305
65543W        W33884   4.912  17.604  14.842
65544W        W33885   7.724  29.598   0.766
65545W        W33886  23.200  43.825  14.487
65546W        W33887  29.582  28.028   3.791
65547W        W33888  21.736  36.899   4.178
65548W        W33889  15.674  14.095  10.539
65549W        W33890  35.523   2.941   0.406
65550W        W33891  41.297  42.976  12.459
65551W        W33892   5.745  31.070  13.378
65552W        W33893   9.375  10.753   9.603
65553W        W33894   6.284  12.856   9.993
65554W        W33895   6.382  35.913   4.668
65555W        W33896  19.225  16.656  13.453
65556W        W33897  29.432  44.298   0.363
65557W        W33898  22.029  10.788  14.012
65558W        W33899   9.824  12.706   5.570
65559W        W33900  11.185  40.346   1.345
65560W        W33901  26.632   8.826  11.393
65561W        W33902  15.695   6.384  13.934
65562W        W33903  27.119  21.174   3.182
65563W        W33904  38.518  18.069   1.701
65564W        W33905  40.837  14.772   4.623
65565W        W33906  23.527  40.506  13.432
65566W        W33907  17.656  17.607  12.953
65567W        W33908  30.011  44.278   3.656
65568W        W33909  14.619  18.147   3.690
65569W        W33910  19.054  24.982   2.832
65570W        W33911   6.229  24.973   9.927
65571W        W33912  37.346  26.683  11.014
65572W        W33913   6.728   1.295  14.778
65573W        W33914   3.242  32.025   0.456
65574W        W33915  43.778  12.128  14.846
65575W        W33916  22.709  17.126   4.800
65576W        W33917  16.155  14.333   2.882
65577W        W33918   8.720  35.930   3.210
65578W        W33919   2.300  21.199   5.249
65579W        W33920  42.303  38.900  14.358
65580W        W33921   6.340  22.212  13.015
65581W        W33922  21.568  32.441  12.824
65582W        W33923  16.582  24.127   4.823
65583W        W33924  10.208   1.737  11.103
65584W        W33925   4.432  22.508   4.657
65585W        W33926  14.322  15.701  12.410
65586W        W33927  29.991  37.427   3.862
65587W        W33928  17.620  29.066   0.817
65588W        W33929  41.910  11.637   4.159
65589W        W33930  35.519  23.510   3.670
65590W        W33931  32.005  37.497   3.176
65591W        W33932  23.229   1.950   2.396
65592W        W33933  17.668  19.074  10.564
65593W        W33934  24.666   7.339   1.369
65594W        W33935  31.529  43.495  13.375
65595W        W33936   4.790  29.047  12.497
65596W        W33937  36.507  32.408  14.009
65597W        W33938  30.913  27.074  14.863
65598W        W33939  30.920  33.572  11.524
65599W        W33940  11.681  38.333  13.054
65600W        W33941  31.439  23.730   4.233
65601W        W33942  19.198  15.095   1.838
65602W        W33943  13.753  14.668  12.877
65603W        W33944   8.361  30.505  14.801
65604W        W33945   6.837  13.124   4.602
65605W        W33946  39.558  18.161  11.051
65606W        W33947  21.048  19.152  14.327
65607W        W33948  33.100  17.193  11.893
65608W        W33949   1.288   9.177  12.505
65609W        W33950  28.435  22.217  14.329
65610W        W33951  43.912  27.593   3.674
65611W        W33952  36.352  20.531   3.746
65612W        W33953  11.155  29.115   0.266
65613W        W33954  21.150  19.189  11.071
65614W        W33955  31.409  22.740  11.031
65615W        W33956   7.219  35.406   0.900
65616W        W33957  43.290  18.662  11.447
65617W        W33958  27.503  11.150   1.924
65618W        W33959  12.343  37.541   1.782
65619W        W33960  30.579   9.764   3.675
65620W        W33961   4.341  41.028  12.996
65621W        W33962  25.633   6.837  13.362
65622W        W33963  14.718  24.187  12.388
65623W        W33964   5.866  36.075   3.706
65624W        W33965  42.376  16.622   0.877
65625W        W33966  21.676  23.098  10.939
65626W        W33967  35.580   2.268  12.926
65627W        W33968  40.054  17.090   1.769
65628W        W33969  23.199  17.762   0.269
65629W        W33970  24.672  26.996  13.508
65630W        W33971  23.194  25.168   4.706
65631W        W33972  15.693  12.833  12.558
65632W        W33973   7.887  20.070  13.980
65633W        W33974  44.802  18.169   5.729
65634W        W33975  44.937  19.258   1.883
65635W        W33976  43.772  40.432   3.309
65636W        W33977   1.293  14.231   3.808
65637W        W33978  20.694  39.458   1.780
65638W        W33979  37.452  39.375   3.732
65639W        W33980  26.055  43.362  14.961
65640W        W33981  35.951   4.847   2.392
65641W        W33982  10.180  40.826  10.952
65642W        W33983   4.851  38.946  12.955
65643W        W33984  40.882  43.332   1.292
65644W        W33985  31.028  15.772   4.161
65645W        W33986  21.205  30.083   0.739
65646W        W33987  33.608  35.902  13.809
65647W        W33988  15.084  39.954   0.903
65648W        W33989  33.960  17.231   1.845
65649W        W33990  40.305   1.355  12.003
65650W        W33991  40.497  32.936  12.092
65651W        W33992  27.485  36.040   3.828
65652W        W33993  33.567  14.341  11.012
65653W        W33994  12.132  20.680  14.466
65654W        W33995   0.903  32.558   3.296
65655W        W33996  43.886   1.293   1.400
65656W        W33997  23.707  32.542   1.873
65657W        W33998  33.067  29.111  13.793
65658W        W33999   2.856  29.950   3.342
65659W        W34000  38.071  17.610   1.446
65660W        W34001  13.233   3.357   3.323
65661W        W34002  43.765  37.840   1.741
65662W        W34003   3.780  32.073   0.273
65663W        W34004  33.934   8.372  10.637
65664W        W34005  38.544  18.673  12.377
65665W        W34006  29.048  10.662  11.935
65666W        W34007  13.822   9.308   3.332
65667W        W34008  33.514   0.875   4.221
65668W        W34009   3.457   1.850   4.228
65669W        W34010  39.923  41.914  12.883
65670W        W34011   8.793  30.001   0.261
65671W        W34012  26.695  22.523  12.494
65672W        W34013  24.080  43.991  12.389
65673W        W34014   6.340  40.488  12.989
65674W        W34015  41.309  36.949   3.647
65675W        W34016  19.252  34.607  11.883
65676W        W34017  22.169  42.009   4.225
65677W        W34018   1.384   3.432  14.855
65678W        W34019   9.324  33.039   2.777
65679W        W34020  25.709   8.703  10.977
65680W        W34021  40.392  38.369   3.191
65681W        W34022   2.455  27.488  11.492
65682W        W34023  36.372   5.422  10.619
65683W        W34024   1.957  37.045   0.757
65684W        W34025  25.610  13.794  14.363
65685W        W34026  27.960  22.134   2.870
65686W        W34027  27.191   3.835   1.385
65687W        W34028  19.196  43.950  10.616
65688W        W34029  37.386  35.500  12.574
65689W        W34030   8.394   0.421  11.916
65690W        W34031  23.492   4.236   0.310
65691W        W34032  28.650  33.433  14.451
65692W        W34033  30.959  32.594  11.393
65693W        W34034  16.263   6.898  14.508
65694W        W34035  25.510  22.740   1.312
65695W        W34036  37.025  31.020  11.977
65696W        W34037  19.206  12.353  13.447
65697W        W34038   5.879  23.688  11.417
65698W        W34039  12.164  30.438  14.432
65699W        W34040  39.500  39.367  10.434
65700W        W34041  23.628  21.701   2.856
65701W        W34042  36.068   0.414   2.321
65702W        W34043  14.612  42.318  13.899
65703W        W34044  37.920  15.661  12.892
65704W        W34045  30.428   2.335   3.248
65705W        W34046  32.116  32.920   1.870
65706W        W34047  40.932   7.330   3.185
65707W        W34048   6.224  38.568  12.404
65708W        W34049  38.061  31.451   2.310
65709W        W34050  39.951  24.517  14.759
65710W        W34051  18.774   5.899  14.023
65711W        W34052  34.020  18.696   1.248
65712W        W34053  10.841   8.867  11.435
65713W        W34054  40.874  23.109  12.455
65714W        W34055  11.832  16.674   1.730
65715W        W34056  19.252  31.630   0.344
65716W        W34057  28.672  37.927   0.897
65717W        W34058   6.324  38.369   4.205
65718W        W34059  41.002  30.580   0.768
65719W        W34060   9.315  43.496  14.910
65720W        W34061  23.688  38.441  13.312
65721W        W34062  27.674   9.882   4.264
65722W        W34063   7.703   1.845  11.856
65723W        W34064  32.511  22.670   1.422
65724W        W34065  12.823  13.329   3.220
65725W        W34066  28.635  20.062  12.474
65726W        W34067  32.086  12.165   0.329
65727W        W34068   0.414  42.859  12.097
65728W        W34069  16.114  20.185  10.613
65729W        W34070  41.971   5.279   3.384
65730W        W34071  28.481  14.308   2.185
65731W        W34072  31.902  21.177  11.064
65732W        W34073  18.093  15.758  10.456
65733W        W34074  43.381  39.340  13.384
65734W        W34075  16.668   3.816  14.811
65735W        W34076  41.459   1.381  13.962
65736W        W34077   4.801  17.587   4.265
65737W        W34078  25.111  19.685  14.846
65738W        W34079  21.617  17.636   0.279
65739W        W34080   5.240  19.203   3.675
65740W        W34081  35.418  37.494   0.430
65741W        W34082  24.506   3.877   1.883
65742W        W34083   9.156  44.905   1.839
65743W        W34084  42.950  41.511  14.510
65744W        W34085  26.564  17.298  13.995
65745W        W34086   1.351  42.505   2.724
65746W        W34087  27.168   1.886   3.354
65747W        W34088  16.675  21.582  14.931
65748W        W34089   8.205  28.059  12.499
65749W        W34090  23.506  11.718   3.666
65750W        W34091  28.077  29.959   0.857
65751W        W34092  17.575  27.103   2.246
65752W        W34093  13.328   2.317  13.507
65753W        W34094  44.781   5.727   4.270
65754W        W34095   4.289  19.537   3.157
65755W        W34096  31.955  31.972  10.989
65756W        W34097   2.893  41.986  11.419
65757W        W34098  11.275   2.814  12.493
65758W        W34099  24.976  25.012   2.309
65759W        W34100   2.905  37.387  12.503
65760W        W34101  19.589  11.824  11.987
65761W        W34102  13.724  21.528   2.292
65762W        W34103  10.799  14.290  11.433
65763W        W34104   9.720  24.542  12.539
65764W        W34105  16.575  12.217  14.499
65765W        W34106  37.842  26.146   4.836
65766W        W34107  21.595   1.440   3.632
65767W        W34108  35.026  26.153  13.453
65768W        W34109   3.847  10.375  12.563
65769W        W34110   9.279  26.646  13.507
65770W        W34111  29.495  39.340  12.879
65771W        W34112  22.525  29.008  14.829
65772W        W34113  43.405   3.392   3.635
65773W        W34114  25.554  28.538   4.113
65774W        W34115  17.248  20.706   4.741
65775W        W34116   7.693  32.587   1.320
65776W        W34117  17.061  23.125  11.948
65777W        W34118  41.929   5.304   2.376
65778W        W34119  11.189  12.647  11.008
65779W        W34120  16.218  28.604   3.173
65780W        W34121   8.366  43.995  14.772
65781W        W34122  23.189   6.904  14.425
65782W        W34123  28.096  14.617  12.014
65783W        W34124   8.864  16.109   3.722
65784W        W34125  43.382  36.930  13.804
65785W        W34126  12.318  16.216   0.850
65786W        W34127  39.020   3.330  14.280
65787W        W34128  40.326  28.127  12.053
65788W        W34129  19.250  16.580  11.507
65789W        W34130  10.213  38.390   3.309
65790W        W34131  15.303  28.543   2.351
65791W        W34132  25.697  17.714   9.940
65792W        W34133  11.210  32.620   3.638
65793W        W34134  32.599  20.666  14.459
65794W        W34135  11.320  39.867   5.209
65795W        W34136  29.151  13.755   0.366
65796W        W34137  25.051  19.048   0.467
65797W        W34138  32.063  42.398   0.417
65798W        W34139  12.213  13.824  14.334
65799W        W34140  19.687  23.065   0.736
65800W        W34141  44.898  33.419  10.635
65801W        W34142  14.223  42.945  12.404
65802W        W34143  23.540   3.338   1.284
65803W        W34144  31.935  20.109   2.721
65804W        W34145  39.511   0.880   2.331
65805W        W34146  19.592  12.211   1.304
65806W        W34147  12.196  16.288   4.297
65807W        W34148  35.462  18.743  11.986
65808W        W34149  27.964  17.225   0.451
65809W        W34150  35.975  41.374  13.505
65810W        W34151  21.223   8.371   3.146
65811W        W34152  39.017   8.669  13.946
65812W        W34153  28.098   7.825  10.945
65813W        W34154  36.466  38.966   9.933
65814W        W34155  38.499  24.513  14.913
65815W        W34156   7.288   9.355   2.679
65816W        W34157  28.551   8.359   2.401
65817W        W34158  14.297   3.835   2.222
65818W        W34159  19.183   6.391   3.813
65819W        W34160  31.010  35.549  12.943
65820W        W34161  27.632  36.350   2.778
65821W        W34162  44.291  40.799   4.783
65822W        W34163  39.533  37.050   0.749
65823W        W34164  23.138   4.785   0.904
65824W        W34165  29.021  21.217   0.332
65825W        W34166  21.569  28.034   3.864
65826W        W34167  35.972  21.621   0.329
65827W        W34168  31.975   2.358   0.943
65828W        W34169  44.290  25.005   1.214
65829W        W34170  25.561  28.095  11.972
65830W        W34171  37.900  31.908   3.675
65831W        W34172  13.837  19.201  12.852
65832W        W34173  35.028  35.871   5.146
65833W        W34174  38.003  26.171  11.107
65834W        W34175  23.122  39.544  14.818
65835W        W34176  17.774  37.458  11.926
65836W        W34177  42.493   2.308  13.029
65837W        W34178  30.437  19.187   2.886
65838W        W34179  31.019  19.710  12.557
65839W        W34180   4.839   7.375  12.892
65840W        W34181   3.935  11.249  10.054
65841W        W34182  17.253   4.360  14.403
65842W        W34183   5.715  44.879   4.790
65843W        W34184   2.862  33.887  14.369
65844W        W34185   6.373  38.893   3.665
65845W        W34186  37.839  41.980   1.223
65846W        W34187  16.639  32.143  13.016
65847W        W34188  40.520  40.307  11.591
65848W        W34189  17.138  33.909  14.011
65849W        W34190  20.638   3.783   0.328
65850W        W34191  35.887  34.892  14.420
65851W        W34192  28.119  27.490   0.317
65852W        W34193  24.568   4.762   3.222
65853W        W34194  24.627  27.079  14.466
65854W        W34195  34.980  16.264   3.362
65855W        W34196  18.155  42.953   1.834
65856W        W34197  19.263   8.262  14.939
65857W        W34198  44.804   9.370   0.953
65858W        W34199   4.234   6.892   4.148
65859W        W34200   4.875  44.838   0.844
65860W        W34201  36.902  14.212  11.537
65861W        W34202  17.628   8.771  14.426
65862W        W34203   1.423   1.433   3.803
65863W        W34204   2.424  35.921  14.836
65864W        W34205  19.677  28.937   0.900
65865W        W34206  11.740  19.746  12.459
65866W        W34207  35.358  32.107  13.325
65867W        W34208  19.724   1.465   0.743
65868W        W34209   4.320  24.186  12.547
65869W        W34210  24.230   4.841  13.533
65870W        W34211  11.294   7.292  14.986
65871W        W34212  10.289  34.902  13.046
65872W        W34213  16.608  31.631   5.588
65873W        W34214  15.579  42.780  13.049
65874W        W34215  17.764  39.467  11.058
65875W        W34216  14.701  30.024   2.178
65876W        W34217  30.027  15.741  10.902
65877W        W34218   5.280   4.389  14.024
65878W        W34219  26.694  40.435   1.280
65879W        W34220  18.245  22.057  11.013
65880W        W34221   2.260  20.148   3.752
65881W        W34222  28.666   0.874   1.927
65882W        W34223  28.028   7.724   1.739
65883W        W34224  12.635   5.273  11.539
65884W        W34225  15.663  30.539  14.951
65885W        W34226  25.608   1.390   3.766
65886W        W34227  25.070  16.187   5.105
65887W        W34228   7.306  32.055   3.174
65888W        W34229  30.953  20.079   1.885
65889W        W34230  27.560  18.660  14.468
65890W        W34231  18.090  17.726   3.160
65891W        W34232  38.033   9.312   2.736
65892W        W34233  13.126  34.558   4.772
65893W        W34234  12.748  14.781  10.578
65894W        W34235  37.047  18.571   2.407
65895W        W34236  26.539   4.223   4.756
65896W        W34237  27.692  29.511  13.792
65897W        W34238  32.607  13.750   1.220
65898W        W34239  35.929  24.481   3.779
65899W        W34240  42.361   9.273   4.216
65900W        W34241  19.662  24.720  14.776
65901W        W34242  12.720  11.843  10.976
65902W        W34243  35.881  44.346  11.917
65903W        W34244  24.978  28.954  14.998
65904W        W34245  33.543  15.150   0.407
65905W        W34246  26.652  43.875   4.621
65906W        W34247  21.584   2.322  14.515
65907W        W34248  32.123  25.153  12.445
65908W        W34249  41.488  33.462   1.308
65909W        W34250  20.229   4.415  10.413
65910W        W34251  28.597   4.699  11.886
65911W        W34252  10.284  44.360  11.095
65912W        W34253  20.078   0.302  13.904
65913W        W34254  41.535   9.667  12.030
65914W        W34255  20.550   2.389   1.351
65915W        W34256  28.168  29.605   1.929
65916W        W34257   9.266   4.449  12.426
65917W        W34258  44.971  10.689   3.727
65918W        W34259   6.308  35.421  12.043
65919W        W34260  13.655  43.449   4.183
65920W        W34261  38.027   0.749   0.436
65921W        W34262  37.042  16.283   2.842
65922W        W34263  29.529  36.091  14.818
65923W        W34264   7.249  36.948  11.998
65924W        W34265  44.965  12.812   4.158
65925W        W34266  24.700  18.297  12.516
65926W        W34267  33.437  38.999  13.867
65927W        W34268   8.215  37.467   2.259
65928W        W34269  32.113  38.486   0.931
65929W        W34270  43.406  25.180  11.932
65930W        W34271   5.731  40.936  10.429
65931W        W34272   6.271  30.474  10.074
65932W        W34273  28.973  31.618   2.734
65933W        W34274  14.186  19.556   1.742
65934W        W34275  10.149  30.032  13.412
65935W        W34276  20.236  40.341   2.854
65936W        W34277  27.158  31.421  10.470
65937W        W34278   4.412  44.765   2.202
65938W        W34279  35.561  27.165   4.822
65939W        W34280  36.554  32.031   3.303
65940W        W34281  27.671  33.457  11.567
65941W        W34282  30.975  38.887   3.688
65942W        W34283   8.259  12.188   4.322
65943W        W34284  44.792  17.779  14.341
65944W        W34285  12.312  38.959   1.810
65945W        W34286  40.840  14.619   1.922
65946W        W34287  19.654  27.480   4.161
65947W        W34288  12.784  41.419   4.180
65948W        W34289  41.953  30.077  14.333
65949W        W34290   9.208  15.707  14.474
65950W        W34291   7.899  10.382   5.115
65951W        W34292   5.867  10.166  13.307
65952W        W34293   0.965  29.560   5.157
65953W        W34294  25.180   1.763  11.548
65954W        W34295   0.325   3.924  10.530
65955W        W34296  36.876  21.071   2.675
65956W        W34297  23.165  25.566   1.766
65957W        W34298   0.983   2.867   3.813
65958W        W34299  14.643  42.831   2.265
65959W        W34300  11.866  11.829   3.800
65960W        W34301   9.171  20.738   2.236
65961W        W34302  41.515  13.735  14.274
65962W        W34303  44.965   4.236   0.827
65963W        W34304  30.603  32.488   1.869
65964W        W34305   8.672  28.615   1.321
65965W        W34306  18.651  31.474  14.845
65966W        W34307  16.680  21.593   4.259
65967W        W34308  27.660  36.983  11.527
65968W        W34309  35.957  17.270  11.126
65969W        W34310  23.168  15.647   0.349
65970W        W34311  40.402  43.935   2.355
65971W        W34312  44.756  17.116   1.720
65972W        W34313  31.101  33.957   2.413
65973W        W34314   1.429   4.833   1.304
65974W        W34315  18.619  37.035  12.860
65975W        W34316  43.781  31.492   1.811
65976W        W34317  24.178  18.748  13.817
65977W        W34318  22.738  40.309   0.443
65978W        W34319   9.287  43.005   2.774
65979W        W34320  17.582  34.059   3.342
65980W        W34321  14.700   2.720  13.913
65981W        W34322  43.918  17.716  12.372
65982W        W34323  21.028  12.707  14.807
65983W        W34324  31.463  30.963  10.459
65984W        W34325   0.854  27.178   2.897
65985W        W34326  16.147   2.852   4.269
65986W        W34327  10.762  16.577  11.961
65987W        W34328   7.857  12.157   2.862
65988W        W34329  42.450  30.923  12.473
65989W        W34330  25.124  31.635   3.358
65990W        W34331   0.385  39.976  12.537
65991W        W34332  29.119   3.390   1.907
65992W        W34333  44.417  17.289  12.892
65993W        W34334  42.904  44.923   4.300
65994W        W34335  38.545  23.036   2.411
65995W        W34336  27.983   6.815   2.801
65996W        W34337  39.011  38.340   0.475
65997W        W34338   4.710  13.641  12.017
65998W        W34339   8.281  32.425  11.032
65999W        W34340  29.999  10.185   2.897
66000W        W34341  16.133  37.931  11.488
66001W        W34342  44.810  28.529   2.365
66002W        W34343  41.525  35.003   3.336
66003W        W34344  42.474  27.533  12.447
66004W        W34345   9.866  31.432  11.069
66005W        W34346  36.026  29.571   4.836
66006W        W34347  28.490  39.356  12.370
66007W        W34348  17.761  44.455   3.251
66008W        W34349  26.117  37.417  13.920
66009W        W34350   7.381  23.656   1.839
66010W        W34351  22.125  41.904   3.332
66011W        W34352  41.802  21.044   1.410
66012W        W34353  38.056   4.361   3.340
66013W        W34354  32.062  32.931  12.911
66014W        W34355  26.622  29.971  14.814
66015W        W34356  36.590   1.971   1.768
66016W        W34357  22.164   2.930  11.590
66017W        W34358  14.122  17.167  11.900
66018W        W34359  34.569  27.608  10.640
66019W        W34360   8.702   3.770   1.435
66020W        W34361   4.209  11.739  12.064
66021W        W34362   6.232  44.335  12.983
66022W        W34363  33.082  21.543   1.307
66023W        W34364  12.331  28.576  14.898
66024W        W34365   7.270   2.408   4.790
66025W        W34366  26.959  30.932  13.795
66026W        W34367  24.128  44.831   2.862
66027W        W34368  37.945  25.482  14.860
66028W        W34369  26.601  35.894  14.826
66029W        W34370  43.280  25.577   4.698
66030W        W34371  16.682  10.774  12.891
66031W        W34372  36.852  34.055  12.410
66032W        W34373  12.220  32.096  13.016
66033W        W34374  23.689  18.717  14.860
66034W        W34375  41.856  37.466   2.785
66035W        W34376  44.388  36.575   2.188
66036W        W34377  19.655  20.654   4.695
66037W        W34378   6.233  42.366  12.907
66038W        W34379   5.382  18.142   4.694
66039W        W34380  21.122  22.653   2.759
66040W        W34381   4.229  24.024   0.341
66041W        W34382  19.137  33.120  12.015
66042W        W34383  41.535  42.347  14.379
66043W        W34384   5.352  18.213   0.926
66044W        W34385  12.362   1.776   0.892
66045W        W34386  13.624   9.350  13.540
66046W        W34387  13.298   3.811   3.799
66047W        W34388  37.934  16.174  14.437
66048W        W34389  21.149   1.392   0.889
66049W        W34390  28.113  20.076  14.955
66050W        W34391  18.054  31.420   3.841
66051W        W34392  22.180   1.763   3.829
66052W        W34393   8.317   6.866  13.312
66053W        W34394   4.214  41.307   3.321
66054W        W34395   2.284   5.402   2.386
66055W        W34396  13.261   1.849   2.388
66056W        W34397  39.016  33.928  10.557
66057W        W34398   6.201  34.069  13.866
66058W        W34399   5.869   8.657   4.128
66059W        W34400   6.190  26.180   3.372
66060W        W34401  28.036   6.227   2.340
66061W        W34402  38.866  17.751   1.778
66062W        W34403  29.601  31.511  10.624
66063W        W34404   0.915   4.741  10.431
66064W        W34405  21.725   3.354   0.368
66065W        W34406  27.474   4.382  14.394
66066W        W34407  36.551  28.485   3.781
66067W        W34408   3.450  28.658  12.909
66068W        W34409  16.677  32.021  12.399
66069W        W34410  15.186   9.714  12.041
66070W        W34411   0.286   2.901   4.689
66071W        W34412  43.882  17.249  10.986
66072W        W34413  14.098  14.665  12.385
66073W        W34414  14.330  22.728  14.918
66074W        W34415  28.608  41.806   1.775
66075W        W34416  23.177   8.287  10.625
66076W        W34417  14.214  22.591  11.394
66077W        W34418   4.837   4.328   1.422
66078W        W34419  29.546  23.536   2.276
66079W        W34420  29.111  21.591  14.924
66080W        W34421  29.068  32.005   1.251
66081W        W34422   3.727  37.069  13.499
66082W        W34423  10.319  19.737   3.865
66083W        W34424  18.547  34.420  10.957
66084W        W34425  31.623  31.628   4.618
66085W        W34426  27.063  38.937   3.665
66086W        W34427  20.642  25.602   2.183
66087W        W34428  33.018  20.186  13.973
66088W        W34429  30.588  34.028  10.634
66089W        W34430  40.014  11.851   2.198
66090W        W34431   9.839  35.569  13.373
66091W        W34432   5.933  16.660  11.503
66092W        W34433  14.624  22.070  11.598
66093W        W34434  42.811   7.240   3.303
66094W        W34435  25.965  42.917  12.850
66095W        W34436  43.972  27.631  13.372
66096W        W34437  20.173   6.215   3.346
66097W        W34438  22.624  26.146   3.807
66098W        W34439  11.742  40.010   3.699
66099W        W34440  28.011  19.719  13.982
66100W        W34441   9.749  44.383   0.377
66101W        W34442   8.358  17.092  13.827
66102W        W34443  40.861  20.625   3.346
66103W        W34444  39.883   7.254   4.268
66104W        W34445  34.387  30.519   0.792
66105W        W34446  28.033  15.122  14.879
66106W        W34447  40.820  36.578  14.431
66107W        W34448  36.916  12.121   0.833
66108W        W34449  16.164  42.455   4.345
66109W        W34450  21.173  16.243   0.323
66110W        W34451  23.654  34.877  11.416
66111W        W34452  42.794   4.943  14.025
66112W        W34453  39.912  38.842   1.837
66113W        W34454  10.643   1.237   2.197
66114W        W34455  37.977  25.672   4.307
66115W        W34456  42.342  38.919   0.736
66116W        W34457  22.104  30.016  11.910
66117W        W34458  28.001   5.730   4.612
66118W        W34459  25.024   8.394   3.352
66119W        W34460  25.699   9.333  12.926
66120W        W34461  40.965   1.272  10.448
66121W        W34462   6.248  20.237   2.672
66122W        W34463   2.347  34.610  12.491
66123W        W34464  21.663   9.366  10.612
66124W        W34465   9.755  17.606   3.206
66125W        W34466   0.762  40.442   3.665
66126W        W34467   6.201  25.146   1.301
66127W        W34468  43.415  18.217   3.810
66128W        W34469  19.125  33.028   4.294
66129W        W34470  16.222  28.512   4.619
66130W        W34471  40.897  16.267  11.434
66131W        W34472  42.804  32.895  13.011
66132W        W34473  26.511  23.605  10.111
66133W        W34474  15.588   7.884   3.796
66134W        W34475  15.671  26.115   1.372
66135W        W34476   0.749   8.300   0.920
66136W        W34477  16.127  41.821   0.862
66137W        W34478  20.583  21.571   3.158
66138W        W34479  39.945   9.380  11.925
66139W        W34480  10.318   7.244   1.261
66140W        W34481  34.454  22.101   3.292
66141W        W34482  40.959   7.196   4.748
66142W        W34483   9.856  38.069  10.406
66143W        W34484   6.695  25.034  13.425
66144W        W34485  34.905  40.920  13.339
66145W        W34486  17.126  11.791  14.410
66146W        W34487  14.647  37.041   4.812
66147W        W34488  27.670  28.019   2.243
66148W        W34489  23.139   9.362   2.184
66149W        W34490   4.233  34.017   3.326
66150W        W34491  40.382  38.061   4.194
66151W        W34492  37.547  25.675   3.338
66152W        W34493  25.508  30.593  12.460
66153W        W34494   6.810  42.857  12.499
66154W        W34495  38.039  29.172  14.391
66155W        W34496  12.740   4.276  13.396
66156W        W34497  20.621  44.468  13.344
66157W        W34498  25.620  16.300  13.817
66158W        W34499   9.709  21.183  13.362
66159W        W34500  43.461   5.696   3.711
66160W        W34501  35.544  29.063  10.580
66161W        W34502  23.662  23.007  10.575
66162W        W34503   8.315  27.655  14.463
66163W        W34504  26.487  27.497  13.035
66164W        W34505  28.005  43.358  12.928
66165W        W34506  24.051   3.815  13.974
66166W        W34507   3.425  42.856   2.712
66167W        W34508  29.956  36.461  13.443
66168W        W34509  11.324   9.278  13.465
66169W        W34510   2.247  35.061  11.593
66170W        W34511  37.556  15.086  13.314
66171W        W34512  33.918   3.736  10.502
66172W        W34513  11.315   8.401  11.044
66173W        W34514  21.647  34.919   3.862
66174W        W34515   8.366  21.089  12.548
66175W        W34516  30.062  23.040  10.638
66176W        W34517  39.856  41.982   1.791
66177W        W34518  36.014  15.753  10.573
66178W        W34519  43.989  13.702   3.766
66179W        W34520   7.406  24.148   3.798
66180W        W34521   3.338   5.703   2.843
66181W        W34522  33.411  37.993  10.964
66182W        W34523   0.446  42.009   3.804
66183W        W34524  31.535  33.576   0.911
66184W        W34525  15.112  25.575   2.691
66185W        W34526  23.998  13.179  12.976
66186W        W34527  13.774  17.218  14.305
66187W        W34528  25.573  21.524  13.448
66188W        W34529  38.487  42.856   1.927
66189W        W34530  38.932   1.474   2.416
66190W        W34531  33.015  26.994   3.663
66191W        W34532   1.882  24.715   2.829
66192W        W34533  32.530  43.473  12.370
66193W        W34534   6.411  34.488  14.798
66194W        W34535   0.897  20.070   4.703
66195W        W34536  41.327   7.685  13.410
66196W        W34537  36.377  23.611   3.205
66197W        W34538  25.006  29.970   0.332
66198W        W34539  39.434  36.051   2.670
66199W        W34540  24.202  12.338  11.463
66200W        W34541  42.437  11.787   0.858
66201W        W34542  21.726  31.079  14.781
66202W        W34543  36.051   1.857  12.486
66203W        W34544  43.316  20.586   3.222
66204W        W34545  31.137   7.298   0.736
66205W        W34546  26.154  17.730  13.962
66206W        W34547  32.051  42.029   3.375
66207W        W34548  42.833  20.062  14.342
66208W        W34549  21.061   5.859   4.156
66209W        W34550  24.536  32.599   3.852
66210W        W34551  37.894   3.810  14.922
66211W        W34552  29.928   4.355  14.783
66212W        W34553  31.485  19.081   0.269
66213W        W34554   5.382   1.781  10.611
66214W        W34555  34.572  24.126   2.390
66215W        W34556  10.852  40.539   4.300
66216W        W34557  28.458   7.741   1.767
66217W        W34558  44.865  42.892   2.843
66218W        W34559  10.787   4.269  11.920
66219W        W34560  35.381  28.179  11.017
66220W        W34561  38.335   4.944   4.643
66221W        W34562  33.533  44.394  10.575
66222W        W34563  42.400  34.404  14.920
66223W        W34564  24.996   5.284   0.402
66224W        W34565  42.405  17.740   3.203
66225W        W34566  41.298  43.997   2.856
66226W        W34567  30.561  39.860   5.122
66227W        W34568  41.978  38.869  11.424
66228W        W34569  10.169  23.212  11.055
66229W        W34570  43.405  11.777  13.485
66230W        W34571  31.989  38.981   1.314
66231W        W34572  43.463  36.984   0.852
66232W        W34573   5.332  27.522   4.746
66233W        W34574  20.045  40.018   4.707
66234W        W34575  10.786  13.619  12.859
66235W        W34576  14.833  42.524   2.362
66236W        W34577  24.493  18.683   0.853
66237W        W34578  31.130   6.879   1.243
66238W        W34579   0.913   0.373  12.539
66239W        W34580   4.700  38.941   5.218
66240W        W34581  31.567  11.694  13.379
66241W        W34582  44.949  20.136   0.918
66242W        W34583   8.312  15.087  12.572
66243W        W34584  26.576   4.340  13.315
66244W        W34585  37.474  39.951  10.976
66245W        W34586  30.963  44.812   0.316
66246W        W34587  11.361   2.754  10.478
66247W        W34588  37.911  39.380   1.433
66248W        W34589   8.390   7.190   1.218
66249W        W34590   4.415   6.764  13.890
66250W        W34591  35.088  13.130   1.888
66251W        W34592  14.280   9.261  11.416
66252W        W34593  18.704  14.630   4.157
66253W        W34594  11.368   3.752  12.877
66254W        W34595  42.788  21.549   1.807
66255W        W34596  33.945  32.395  13.483
66256W        W34597   5.244  22.240   3.173
66257W        W34598  22.102  12.261  11.542
66258W        W34599  33.990  10.216   3.731
66259W        W34600  33.537  21.644   0.242
66260W        W34601  44.871  12.796  12.929
66261W        W34602  12.128  28.501   3.204
66262W        W34603  40.315  26.571  13.355
66263W        W34604   6.348  10.312   1.723
66264W        W34605  13.646   5.856   2.308
66265W        W34606  30.160  16.117   2.777
66266W        W34607  25.104   0.823  10.992
66267W        W34608  15.793   6.691   4.597
66268W        W34609  10.193  27.009  11.913
66269W        W34610  39.368  23.641  11.429
66270W        W34611  28.669  16.091  12.536
66271W        W34612   5.928  32.400   4.217
66272W        W34613   8.833  21.038  12.986
66273W        W34614  43.333   3.422   2.764
66274W        W34615  29.079  16.745   0.895
66275W        W34616  35.091  12.128   1.225
66276W        W34617  38.546  25.991   4.680
66277W        W34618  36.384  19.615   4.688
66278W        W34619  10.236   0.440   4.345
66279W        W34620  27.048  40.870   2.667
66280W        W34621  33.457  31.127  13.796
66281W        W34622  23.126  15.261   1.767
66282W        W34623  27.030   2.966  12.984
66283W        W34624  23.731  32.074  13.812
66284W        W34625  34.069  25.516   4.753
66285W        W34626  42.966  14.145   0.281
66286W        W34627  29.004  33.620   3.791
66287W        W34628  40.355  29.667  13.337
66288W        W34629  11.228  24.000  10.431
66289W        W34630  42.492  12.186  11.121
66290W        W34631  12.635   8.874   1.218
66291W        W34632  11.306  44.859  14.764
66292W        W34633   8.853   7.883   2.887
66293W        W34634  42.859  33.590  14.996
66294W        W34635   3.326  42.857   3.868
66295W        W34636  37.941  23.627  14.823
66296W        W34637  13.824  23.046  12.959
66297W        W34638  22.592  10.376  11.053
66298W        W34639  21.139  40.457   4.147
66299W        W34640  37.898  13.689  12.945
66300W        W34641  40.999  38.927   2.285
66301W        W34642  12.203  11.827  11.969
66302W        W34643  34.119   3.450   5.322
66303W        W34644   8.811  31.031  10.563
66304W        W34645  23.519   5.249   0.904
66305W        W34646   5.197   5.403  10.991
66306W        W34647   0.282  44.977  11.605
66307W        W34648  39.332  28.088   1.933
66308W        W34649  12.832  15.300   2.873
66309W        W34650  13.612  30.647   4.154
66310W        W34651  39.460  20.641   0.802
66311W        W34652  21.752  31.047  12.999
66312W        W34653  18.671  22.222   0.874
66313W        W34654  30.948  31.906  10.482
66314W        W34655  36.589  44.389   0.382
66315W        W34656  18.118  12.663  14.837
66316W        W34657  14.094  15.304   1.333
66317W        W34658  41.917  36.890   3.717
66318W        W34659  21.246  12.682   0.866
66319W        W34660   2.939  44.336  14.774
66320W        W34661  23.105   3.300  12.926
66321W        W34662  35.989  19.118  11.468
66322W        W34663   7.826   4.840   3.196
66323W        W34664   1.830  34.584   1.900
66324W        W34665  35.476  14.246   2.805
66325W        W34666  41.305   9.732  12.505
66326W        W34667  13.844  42.848   4.722
66327W        W34668  23.107  23.238  12.468
66328W        W34669  22.528  17.737   2.375
66329W        W34670  13.802   7.197   3.360
66330W        W34671   3.299   4.895   1.821
66331W        W34672  27.149  11.205  13.381
66332W        W34673   7.365  38.410  11.470
66333W        W34674  27.535  25.081   3.261
66334W        W34675  13.843  10.247  12.356
66335W        W34676  36.003  22.192   3.837
66336W        W34677  41.877  32.591  11.915
66337W        W34678  39.360  10.227  11.548
66338W        W34679  29.668  37.559   1.400
66339W        W34680  38.479  38.963   0.275
66340W        W34681   6.333  19.278   1.392
66341W        W34682  12.346  12.321  11.036
66342W        W34683  43.783  13.117  14.407
66343W        W34684  21.721  31.089  13.472
66344W        W34685  18.707  18.104  11.093
66345W        W34686  14.793   8.303  11.919
66346W        W34687  24.552  13.195  13.799
66347W        W34688  14.654  35.420   4.194
66348W        W34689  18.617  39.545  14.923
66349W        W34690   1.242   0.863   0.916
66350W        W34691   4.926   9.655   3.775
66351W        W34692  13.282  37.882   5.286
66352W        W34693  43.404  40.449  11.611
66353W        W34694  12.729  43.277  11.068
66354W        W34695  39.394   6.777  10.483
66355W        W34696  22.546  24.132  12.022
66356W        W34697  11.658  20.174  13.807
66357W        W34698  24.173  24.012  11.969
66358W        W34699  21.738  33.544  10.476
66359W        W34700  30.504  41.932   4.719
66360W        W34701  39.892   3.451  12.989
66361W        W34702   4.834  27.057  11.998
66362W        W34703   4.374  35.001   2.800
66363W        W34704  23.995   8.788   2.738
66364W        W34705   5.792  28.129   1.902
66365W        W34706  13.813  10.323  11.542
66366W        W34707  20.609  28.044  10.922
66367W        W34708  41.916   3.808  14.978
66368W        W34709  40.303  34.431   0.763
66369W        W34710  22.615  30.977  14.008
66370W        W34711   6.912  31.983  14.930
66371W        W34712  37.941  36.084  12.916
66372W        W34713  22.045  34.445   4.816
66373W        W34714  27.463  41.309   4.698
66374W        W34715  42.997  30.014  11.934
66375W        W34716  33.474  41.965   4.154
66376W        W34717  12.140  25.593  14.919
66377W        W34718  14.313  32.064  11.981
66378W        W34719   0.351  23.637  10.973
66379W        W34720  30.065   8.179  14.776
66380W        W34721  22.196  30.617  13.033
66381W        W34722  23.709  25.483   0.440
66382W        W34723   1.257   2.236   0.884
66383W        W34724  30.006  41.307   0.789
66384W        W34725   7.214  18.058   0.410
66385W        W34726  16.711  38.055  14.377
66386W        W34727  23.098  22.176  11.954
66387W        W34728  40.860  11.846  13.037
66388W        W34729  37.959   1.747  10.591
66389W        W34730  30.458  31.497   4.195
66390W        W34731  31.410  27.446   2.294
66391W        W34732  28.067  28.087   5.169
66392W        W34733  41.364  29.460  12.423
66393W        W34734  30.546  18.591  14.416
66394W        W34735  40.054  22.217   2.308
66395W        W34736  30.157   2.759  12.862
66396W        W34737  26.595  16.278  12.971
66397W        W34738  32.452  41.027   4.734
66398W        W34739   0.278  12.673   2.843
66399W        W34740  36.040  35.432   1.868
66400W        W34741  32.935   1.284   3.267
66401W        W34742   9.186  25.205   4.657
66402W        W34743   2.927  36.043  11.079
66403W        W34744   0.487  27.478  10.519
66404W        W34745  24.581   2.789   3.681
66405W        W34746   4.304  40.032   1.843
66406W        W34747  31.525  37.974  12.887
66407W        W34748  11.234  25.152  12.417
66408W        W34749  35.513   1.238   2.313
66409W        W34750  35.516  30.478   3.301
66410W        W34751  29.435   1.746  11.553
66411W        W34752  40.410  14.608  12.948
66412W        W34753   2.323  23.714   2.691
66413W        W34754  22.062  16.579  11.856
66414W        W34755  21.541  20.115   1.429
66415W        W34756  24.173  27.487   3.269
66416W        W34757  31.079  34.393   1.447
66417W        W34758  42.989   9.166  10.529
66418W        W34759  36.406  22.179   1.430
66419W        W34760   0.790   9.220   1.242
66420W        W34761   2.453  27.035  12.987
66421W        W34762   1.278  34.019   1.238
66422W        W34763  37.976   0.261   3.824
66423W        W34764  30.584   4.774  12.407
66424W        W34765  30.640  17.290  13.444
66425W        W34766  26.199  33.120  13.348
66426W        W34767  19.263   6.201  13.941
66427W        W34768  19.617  23.516  14.811
66428W        W34769  18.620  40.959  13.823
66429W        W34770  22.221   9.166   4.759
66430W        W34771   1.309  33.501  11.008
66431W        W34772  10.151   7.904  14.812
66432W        W34773  19.124  35.903   4.267
66433W        W34774  37.500  18.557  14.439
66434W        W34775   8.311  11.682  13.424
66435W        W34776   8.755  36.543  11.884
66436W        W34777  31.122  12.129  12.376
66437W        W34778  13.841  32.140   2.401
66438W        W34779  43.512   6.752  13.955
66439W        W34780   9.251   9.161  10.501
66440W        W34781  42.892  43.508   3.384
66441W        W34782   5.242   1.357   2.829
66442W        W34783   7.406   9.817  11.386
66443W        W34784  27.633   9.738  13.528
66444W        W34785  19.651  36.093  10.420
66445W        W34786   7.273   2.903   1.897
66446W        W34787   8.851   3.857   2.242
66447W        W34788   6.846  16.729  10.547
66448W        W34789  33.069  40.023  13.457
66449W        W34790  21.183  37.973   4.156
66450W        W34791  36.477   9.787   3.805
66451W        W34792  37.552  10.205  12.943
66452W        W34793  39.832  23.141  13.906
66453W        W34794  11.137  32.967  14.839
66454W        W34795  29.442  31.029   0.309
66455W        W34796   6.236  23.138  14.494
66456W        W34797  40.320  36.506  10.640
66457W        W34798  10.232   9.367  14.856
66458W        W34799  11.770   5.288  13.416
66459W        W34800  10.868  15.150   3.170
66460W        W34801  26.994  31.029  10.952
66461W        W34802  30.044  33.412   4.811
66462W        W34803  37.844   0.437   2.838
66463W        W34804  32.598  25.671   2.414
66464W        W34805  19.213  42.307   1.241
66465W        W34806  30.995  29.927  12.571
66466W        W34807  41.892   1.939  14.825
66467W        W34808  18.121  13.175  11.609
66468W        W34809   1.870  33.613   2.359
66469W        W34810  13.147  19.648   3.362
66470W        W34811  31.646  30.105  14.921
66471W        W34812  32.452  28.641   1.797
66472W        W34813  32.988  14.240  13.361
66473W        W34814  21.053  25.682   1.877
66474W        W34815  20.526  15.091   1.444
66475W        W34816   1.398   9.731  14.298
66476W        W34817   5.894  37.854  11.858
66477W        W34818   5.383  40.950   4.697
66478W        W34819   2.862  34.474   4.186
66479W        W34820  40.360  15.583   9.967
66480W        W34821  33.019  22.713  14.923
66481W        W34822  35.484   0.856  13.532
66482W        W34823   3.250   7.249  14.772
66483W        W34824  16.690   5.813   0.812
66484W        W34825  20.535  21.053   1.816
66485W        W34826  18.627  37.390   1.720
66486W        W34827  17.751  10.720   1.408
66487W        W34828  31.591  44.366   9.952
66488W        W34829   5.778  14.801   3.381
66489W        W34830   1.816  37.836   1.399
66490W        W34831  42.523  30.032   3.224
66491W        W34832   0.454  27.176   2.828
66492W        W34833  19.569  28.086   2.695
66493W        W34834  43.499  29.043  11.383
66494W        W34835  11.234   6.381   2.792
66495W        W34836   7.201  31.484  11.403
66496W        W34837  12.313  13.605  11.514
66497W        W34838   3.407  22.139   2.697
66498W        W34839  31.557  35.440  11.395
66499W        W34840  11.251   6.370  12.889
66500W        W34841  33.107  39.346   1.426
66501W        W34842   6.863   4.911  13.046
66502W        W34843  38.917  30.648  12.416
66503W        W34844  15.760  15.103   4.835
66504W        W34845  17.641  30.654  13.471
66505W        W34846  25.092  21.234  13.450
66506W        W34847  39.900  38.029  12.856
66507W        W34848   9.169   5.201   0.459
66508W        W34849  11.691  16.810   1.394
66509W        W34850  43.417  28.527   4.763
66510W        W34851  27.509  15.629   2.741
66511W        W34852  33.481  26.063  11.006
66512W        W34853  37.884  42.397  11.966
66513W        W34854  15.106  23.633   2.743
66514W        W34855  29.504  37.960  13.343
66515W        W34856  43.006  25.005   3.208
66516W        W34857  20.070  24.081  14.367
66517W        W34858  35.086  34.378   2.244
66518W        W34859  27.664  18.241  10.424
66519W        W34860   7.891   6.387  11.590
66520W        W34861   4.271  11.353   0.275
66521W        W34862  31.588  28.674  11.065
66522W        W34863  18.057  29.019  14.428
66523W        W34864   2.793  21.198  11.533
66524W        W34865  32.046  19.072   2.257
66525W        W34866  34.869  17.271  11.071
66526W        W34867  27.642  27.480   3.806
66527W        W34868  42.807  14.607   4.228
66528W        W34869  37.020  29.968   3.359
66529W        W34870  18.102   0.967   3.355
66530W        W34871  28.568  24.091  12.556
66531W        W34872  18.685   5.304  13.016
66532W        W34873  37.553   5.211  14.933
66533W        W34874  12.177   2.841   1.930
66534W        W34875  21.600  31.502   2.185
66535W        W34876  28.185   3.948   4.625
66536W        W34877  17.204  17.645  10.456
66537W        W34878  32.019  37.963  12.416
66538W        W34879  42.474  34.379   0.846
66539W        W34880  34.032  37.085  13.007
66540W        W34881  30.080  29.937   1.386
66541W        W34882  16.696   1.777  12.474
66542W        W34883  38.847  40.820   2.196
66543W        W34884   9.199  26.098   4.145
66544W        W34885  19.193   7.852   1.437
66545W        W34886   0.474  27.957   2.753
66546W        W34887  13.802  40.315   5.231
66547W        W34888   8.784  33.941  10.645
66548W        W34889  24.026  20.105   3.295
66549W        W34890  34.119   6.391  13.518
66550W        W34891  16.805  19.537  13.959
66551W        W34892  34.119  22.597   2.244
66552W        W34893  30.632  26.001   4.752
66553W        W34894  36.351   6.849  14.975
66554W        W34895  42.471  27.138  11.587
66555W        W34896  37.502  12.741  13.847
66556W        W34897  16.717  32.513  13.443
66557W        W34898  31.133   1.851  10.561
66558W        W34899  14.121  40.482  10.564
66559W        W34900  25.015  41.004   1.816
66560W        W34901   4.871  17.781  13.887
66561W        W34902  41.918   2.367  12.568
66562W        W34903  34.946  38.373   1.392
66563W        W34904  30.635   1.913  12.828
66564W        W34905  14.327  36.505   1.758
66565W        W34906  22.208  22.644  14.339
66566W        W34907  34.582  41.848  12.919
66567W        W34908  32.058  38.051   1.343
66568W        W34909  30.934  21.619   0.381
66569W        W34910   9.829  39.557  10.408
66570W        W34911  36.996  12.789   1.817
66571W        W34912  14.290   4.219   0.356
66572W        W34913  16.280  10.753  12.954
66573W        W34914  43.936   9.803   4.344
66574W        W34915  33.892   4.361  13.818
66575W        W34916   7.255  43.354  14.458
66576W        W34917  31.429  39.901   5.281
66577W        W34918  35.865  16.754   1.793
66578W        W34919   8.806  20.597   0.773
66579W        W34920  17.293  43.310   3.849
66580W        W34921   8.175  43.430   3.776
66581W        W34922   7.241  13.800  12.860
66582W        W34923   8.168  29.001  10.493
66583W        W34924  35.419  12.152  13.880
66584W        W34925  14.723  42.292  11.050
66585W        W34926   2.835  16.674  14.031
66586W        W34927  18.690  30.947  11.584
66587W        W34928  40.431   9.393  11.888
66588W        W34929  17.685  31.463   0.779
66589W        W34930  30.554  43.947   0.879
66590W        W34931  23.525   3.457   5.248
66591W        W34932  29.945  39.065  11.093
66592W        W34933  30.952  10.328   0.265
66593W        W34934  20.100  31.566  13.384
66594W        W34935  20.234  26.983   0.775
66595W        W34936   2.856  14.172   3.795
66596W        W34937   1.307  21.672  13.943
66597W        W34938  26.999   0.841  14.874
66598W        W34939  12.255  26.198  10.890
66599W        W34940  23.240  14.636  12.863
66600W        W34941   1.393  19.550  12.472
66601W        W34942  43.009  14.639  13.353
66602W        W34943  22.102  22.688   1.220
66603W        W34944  27.108  42.958  14.288
66604W        W34945  43.909  11.239   3.847
66605W        W34946  14.792  36.461  14.428
66606W        W34947  13.813   5.728   0.767
66607W        W34948  19.721  13.189   4.611
66608W        W34949  39.430  24.106  13.329
66609W        W34950  33.051   2.913   4.329
66610W        W34951  39.336  42.963   2.313
66611W        W34952   0.426  16.641   3.181
66612W        W34953  10.668  16.175  14.415
66613W        W34954  36.477  19.622   3.193
66614W        W34955  25.150  27.059   5.110
66615W        W34956  18.645   9.152   0.411
66616W        W34957   5.896   2.937  14.005
66617W        W34958  32.511   8.816  12.057
66618W        W34959  39.883  13.303   0.927
66619W        W34960  13.757  44.930   2.220
66620W        W34961  15.312  32.907   1.722
66621W        W34962  37.079  42.937  10.426
66622W        W34963  14.215  22.158   1.293
66623W        W34964  37.350  14.260  11.957
66624W        W34965   6.219  24.535  13.003
66625W        W34966  15.597  44.341  13.051
66626W        W34967  11.837   4.811   5.135
66627W        W34968  29.486   0.259  14.930
66628W        W34969   3.916  24.628   1.895
66629W        W34970  20.743   7.709   1.707
66630W        W34971  25.079  15.641  10.557
66631W        W34972   6.761  43.511   0.263
66632W        W34973  21.095  18.658   4.622
66633W        W34974  34.510  27.061   4.172
66634W        W34975  22.684  38.984  12.392
66635W        W34976   6.853  34.069   1.213
66636W        W34977  39.867   6.820  13.828
66637W        W34978   2.242  37.865  11.955
66638W        W34979  34.505   1.357  14.821
66639W        W34980   5.418  11.739   1.708
66640W        W34981  31.918  42.831   2.712
66641W        W34982  20.630  13.788  12.904
66642W        W34983  17.555  28.104   0.283
66643W        W34984   5.767   8.886  14.907
66644W        W34985  28.584  33.950  12.511
66645W        W34986  42.786   9.856  11.090
66646W        W34987  10.252   2.379  13.388
66647W        W34988  34.891  16.601  11.443
66648W        W34989  33.998  41.429   1.756
66649W        W34990   4.224  20.522  14.771
66650W        W34991  31.598  20.243   4.198
66651W        W34992   2.297  27.520  13.511
66652W        W34993   0.288  35.035  10.895
66653W        W34994  41.499  22.093  14.812
66654W        W34995  18.119  40.370  11.933
66655W        W34996  21.702  31.569  14.949
66656W        W34997  21.254  37.060  13.530
66657W        W34998  21.670  26.978  14.282
66658W        W34999  40.852  25.217   4.744
66659W        W35000  41.792   0.430   0.785
66660W        W35001  44.973  36.070  14.995
66661W        W35002  19.610  37.055   3.793
66662W        W35003  37.852   4.241   0.913
66663W        W35004  23.129  42.393   4.172
66664W        W35005  10.877  34.370   4.222
66665W        W35006   2.461  30.157  14.293
66666W        W35007  44.772  23.579  11.453
66667W        W35008   0.319  18.753   2.850
66668W        W35009  32.995  33.490   4.174
66669W        W35010  33.906   5.803   0.792
66670W        W35011  11.832   2.426   4.756
66671W        W35012   8.796  43.902  12.371
66672W        W35013  30.650  21.741   0.295
66673W        W35014  38.383   5.744   3.238
66674W        W35015  10.300  19.766   5.135
66675W        W35016   5.900   6.398   2.782
66676W        W35017  26.676  28.652  13.800
66677W        W35018  12.801  38.960   0.451
66678W        W35019  28.469   2.391  11.593
66679W        W35020  17.295  39.001  10.466
66680W        W35021  35.956  19.556   2.407
66681W        W35022  12.170  18.674  13.493
66682W        W35023  29.128  13.709   4.737
66683W        W35024   5.788  22.072  13.906
66684W        W35025  24.174   9.176   2.371
66685W        W35026  27.979  40.999   0.762
66686W        W35027  18.560  41.972  14.890
66687W        W35028  24.021   8.289  12.400
66688W        W35029   0.293  18.248   2.298
66689W        W35030  11.360  30.585   0.888
66690W        W35031  14.239  44.344   2.240
66691W        W35032  20.251  38.381   3.768
66692W        W35033  25.030  39.434   4.665
66693W        W35034  34.414   2.903   0.919
66694W        W35035  34.944  28.138  10.478
66695W        W35036  19.156  13.807  11.598
66696W        W35037  35.945  33.390  10.915
66697W        W35038  30.090   0.980  10.563
66698W        W35039  28.576   7.301  11.099
66699W        W35040   2.833  43.352   3.783
66700W        W35041  27.029  26.681   1.840
66701W        W35042  34.036   6.739  13.802
66702W        W35043   3.275   4.860   1.273
66703W        W35044   3.837  29.945   0.736
66704W        W35045  18.155   4.828  12.013
66705W        W35046   0.312   8.874  12.526
66706W        W35047   3.402  32.429  12.987
66707W        W35048  16.287  39.421   1.388
66708W        W35049  17.613   0.791  13.928
66709W        W35050   2.883  20.722   3.265
66710W        W35051  24.660  11.809   1.900
66711W        W35052  25.596  31.481   2.213
66712W        W35053  32.636  21.577  11.422
66713W        W35054  31.416   6.309  12.423
66714W        W35055  39.915  21.721  12.884
66715W        W35056  38.927  11.623  10.917
66716W        W35057  23.040  19.578   0.777
66717W        W35058  16.656  16.801  14.342
66718W        W35059  12.193  39.041  14.772
66719W        W35060  35.075  14.644  13.343
66720W        W35061  35.037  11.177  14.945
66721W        W35062  15.752  30.430   3.755
66722W        W35063  33.092  43.827   1.283
66723W        W35064  35.430  42.854   3.856
66724W        W35065   0.808   6.866   2.663
66725W        W35066  15.637   4.921   0.340
66726W        W35067  40.806   1.321   4.148
66727W        W35068  18.193   4.411  11.894
66728W        W35069  38.351  13.150  14.388
66729W        W35070  34.112  35.426  14.914
66730W        W35071  38.836  12.193   3.171
66731W        W35072   8.845   1.315  13.026
66732W        W35073   3.934   4.231  13.501
66733W        W35074  28.984  29.070  11.522
66734W        W35075  42.283  38.885   4.240
66735W        W35076  17.673  35.966  11.034
66736W        W35077  25.593   0.249  13.025
66737W        W35078  22.058   5.919  11.104
66738W        W35079  32.621   1.819   1.255
66739W        W35080  27.993  14.660  11.601
66740W        W35081  29.567  32.441  11.525
66741W        W35082  35.497  10.316  10.532
66742W        W35083   0.950  36.872  11.064
66743W        W35084  36.067  11.806   4.210
66744W        W35085  11.729  33.057  11.108
66745W        W35086  16.778   0.416   0.914
66746W        W35087  38.854  29.521  14.863
66747W        W35088   8.728  17.134   0.758
66748W        W35089   0.456   4.712  12.943
66749W        W35090  31.514   0.366   0.347
66750W        W35091  16.162  19.683  13.525
66751W        W35092  10.692  36.912  14.947
66752W        W35093  42.404  39.471  14.454
66753W        W35094  31.436  27.085  14.794
66754W        W35095   1.355  15.805   1.799
66755W        W35096  41.535  40.036  12.501
66756W        W35097  36.961  26.975   0.479
66757W        W35098   5.214  18.220  13.851
66758W        W35099  39.395   1.907  11.531
66759W        W35100  23.137   1.762   3.271
66760W        W35101   2.737  32.983  12.026
66761W        W35102  11.315  35.513  13.380
66762W        W35103  27.521  36.959  10.600
66763W        W35104  18.143   6.419  11.020
66764W        W35105  24.633  21.253  11.554
66765W        W35106  44.936  39.384   2.207
66766W        W35107  14.153   1.353   1.896
66767W        W35108   5.887   5.297  11.421
66768W        W35109  29.520   3.940  11.483
66769W        W35110  26.007  36.469   1.435
66770W        W35111   1.428  31.593   1.841
66771W        W35112  15.182  38.044  11.029
66772W        W35113  33.893  30.143   3.859
66773W        W35114  34.480  43.853   0.335
66774W        W35115  25.966   3.227  13.883
66775W        W35116   6.208   4.348   2.846
66776W        W35117  19.605  33.925  13.006
66777W        W35118  29.471  41.408   0.382
66778W        W35119   6.190  10.785  12.565
66779W        W35120   6.259  11.202   1.300
66780W        W35121  42.412   2.288   3.253
66781W        W35122   6.747  44.943  11.563
66782W        W35123  30.131  19.105  12.899
66783W        W35124   2.466  11.214   2.291
66784W        W35125   8.793  22.655   3.167
66785W        W35126  18.226   7.721  14.350
66786W        W35127  43.392  38.352  12.951
66787W        W35128  25.018   4.426   0.384
66788W        W35129   7.290  22.534   1.215
66789W        W35130  33.449  19.591  10.521
66790W        W35131  22.542  38.458  11.462
66791W        W35132  13.169  13.615   0.367
66792W        W35133  12.241  11.292  13.020
66793W        W35134  35.526   4.936  12.415
66794W        W35135  28.468  38.510  14.449
66795W        W35136  18.240   7.814   4.804
66796W        W35137  13.318  14.720  11.468
66797W        W35138  33.427  10.697  14.494
66798W        W35139  24.198  16.629   0.812
66799W        W35140  20.144  14.720  11.425
66800W        W35141  43.421  23.173  11.871
66801W        W35142  18.102  14.337   2.691
66802W        W35143  40.303  26.594   1.218
66803W        W35144   6.904  38.376   2.360
66804W        W35145  31.572  36.367  12.396
66805W        W35146  23.555  34.109   4.172
66806W        W35147   1.277  26.462   4.341
66807W        W35148  19.716   9.197  11.018
66808W        W35149  32.976  41.850  13.405
66809W        W35150  14.336  13.706   4.647
66810W        W35151   5.890  42.016   3.703
66811W        W35152   0.794  43.965  12.922
66812W        W35153   8.388  26.550   9.930
66813W        W35154  32.576  25.004  10.931
66814W        W35155  26.463  20.134   2.267
66815W        W35156  35.586   2.947   3.810
66816W        W35157  25.707  25.511   1.361
66817W        W35158  22.229  20.578   1.900
66818W        W35159  43.012  21.683   3.777
66819W        W35160  25.036   5.910   0.315
66820W        W35161  29.091   2.839   1.849
66821W        W35162   9.313  32.514  14.298
66822W        W35163  11.320   9.317   5.300
66823W        W35164   1.466  26.468  12.911
66824W        W35165  23.137   7.195   4.654
66825W        W35166  22.111   9.783  12.507
66826W        W35167  31.551  17.271  11.550
66827W        W35168   2.276  43.840  10.980
66828W        W35169  34.600  41.032   2.786
66829W        W35170  34.081  33.118  14.484
66830W        W35171  14.613   2.898  13.525
66831W        W35172   3.756  29.065  14.387
66832W        W35173  22.131  12.155  14.358
66833W        W35174  30.417  25.043  14.932
66834W        W35175  34.041  24.621   1.278
66835W        W35176  20.127  33.414  10.137
66836W        W35177  22.640  28.525  13.454
66837W        W35178  37.568  23.219  13.927
66838W        W35179  22.596  32.019  11.972
66839W        W35180  36.078  25.519   0.420
66840W        W35181   4.870   5.747   3.286
66841W        W35182   3.762  42.498   1.760
66842W        W35183  41.432  18.623  12.856
66843W        W35184  10.192  16.163  12.856
66844W        W35185  43.470  14.674   3.707
66845W        W35186  25.101  37.538   2.865
66846W        W35187  24.093   5.212   0.257
66847W        W35188  42.008  20.721   1.234
66848W        W35189  15.285  16.258   2.200
66849W        W35190  42.790  24.056  10.979
66850W        W35191  42.455  33.505  14.897
66851W        W35192  16.734  18.657   0.770
66852W        W35193  23.666  28.043  10.592
66853W        W35194  16.245  31.134  13.904
66854W        W35195   5.790  28.936  10.443
66855W        W35196  12.720   6.300   1.782
66856W        W35197  20.225  13.712  10.966
66857W        W35198   9.160  32.966  10.607
66858W        W35199  44.266   8.888   2.747
66859W        W35200   8.683  27.599   4.621
66860W        W35201  31.569  18.257   4.792
66861W        W35202  19.596  11.690  12.877
66862W        W35203   6.706  32.139  11.453
66863W        W35204  44.260  37.381   9.968
66864W        W35205  44.828  44.320   0.868
66865W        W35206   6.730  11.844  12.006
66866W        W35207  37.475  43.014  12.064
66867W        W35208  42.369  20.110   2.738
66868W        W35209   6.793  42.958   0.751
66869W        W35210  41.516  43.816   3.170
66870W        W35211  32.985  22.176   2.871
66871W        W35212  20.607  42.357   2.382
66872W        W35213  29.126  22.057  11.116
66873W        W35214  37.938  15.165   2.285
66874W        W35215  29.952  36.051  10.939
66875W        W35216  43.468  34.896  10.508
66876W        W35217   3.739  35.413   3.670
66877W        W35218  19.040  18.132   2.315
66878W        W35219  41.416  17.238  11.610
66879W        W35220  38.840  18.664   3.237
66880W        W35221  25.062   8.723  11.608
66881W        W35222   8.229  29.598  11.521
66882W        W35223  42.908  28.054   2.192
66883W        W35224   9.232  40.479  12.502
66884W        W35225  23.651   9.722   1.874
66885W        W35226   0.763   1.409   3.235
66886W        W35227  11.787  44.422  10.980
66887W        W35228  10.364  10.369  14.474
66888W        W35229  30.548  26.690  11.384
66889W        W35230  19.554   3.418  13.315
66890W        W35231  44.502  39.812  14.816
66891W        W35232  28.931  18.692   3.325
66892W        W35233  44.409  44.776  10.093
66893W        W35234  32.553  18.259  10.534
66894W        W35235  14.164  10.323   3.649
66895W        W35236  21.535   0.834   1.901
66896W        W35237  12.829  27.161  10.934
66897W        W35238  33.589   1.913   3.222
66898W        W35239  32.052  13.805  14.923
66899W        W35240  15.721  28.022   2.322
66900W        W35241  30.471   6.251   3.776
66901W        W35242  35.604   7.814   2.359
66902W        W35243  38.330  34.534   1.450
66903W        W35244  11.291   4.914  11.095
66904W        W35245  36.063   8.187   0.773
66905W        W35246  14.296  32.406  11.958
66906W        W35247  30.943  35.973   3.157
66907W        W35248  22.552   7.908   3.659
66908W        W35249  25.713  19.757   4.186
66909W        W35250   7.777  10.180   0.868
66910W        W35251   9.817   5.397   0.339
66911W        W35252  35.101  32.952   0.390
66912W        W35253  23.023  29.577   1.254
66913W        W35254   5.367  10.299   4.680
66914W        W35255  19.055  12.778  12.058
66915W        W35256   9.238  36.024   3.181
66916W        W35257  37.367  22.685  14.948
66917W        W35258  41.504  18.625  14.307
66918W        W35259   4.345  27.542  10.623
66919W        W35260   4.403  41.043   3.811
66920W        W35261   6.361  38.936   9.964
66921W        W35262  13.136  31.112   4.249
66922W        W35263  15.272  44.804   4.776
66923W        W35264   9.682  18.711  10.637
66924W        W35265  29.616  17.249  13.875
66925W        W35266   7.252  40.538  12.999
66926W        W35267  23.723  35.431   2.721
66927W        W35268  34.943  12.155   3.835
66928W        W35269  30.977  35.880  10.989
66929W        W35270  14.126   6.919  12.440
66930W        W35271  25.569  40.882   2.191
66931W        W35272  20.727  44.888   1.746
66932W        W35273  27.662  34.906   0.784
66933W        W35274   3.876  27.556   4.307
66934W        W35275  30.008  16.139  11.058
66935W        W35276  40.537  22.076   4.759
66936W        W35277   7.783  15.261  13.488
66937W        W35278  20.618  10.752   0.395
66938W        W35279  44.885  39.855  11.559
66939W        W35280  13.156  16.724   0.831
66940W        W35281   9.280  40.511  11.579
66941W        W35282   3.904   4.225   1.926
66942W        W35283  40.007   1.925  12.049
66943W        W35284  31.418  37.554   5.191
66944W        W35285  43.488  37.358   1.227
66945W        W35286  24.125  32.965  14.842
66946W        W35287   1.814  35.985  11.062
66947W        W35288  33.416   3.421  13.485
66948W        W35289  34.055  18.226   0.269
66949W        W35290  38.431  37.929  14.370
66950W        W35291   6.408  36.916   0.273
66951W        W35292   7.279   1.953  12.842
66952W        W35293   7.209  28.964   3.200
66953W        W35294  27.013  32.581   2.765
66954W        W35295   6.424  29.941   1.813
66955W        W35296  37.962  43.855  11.868
66956W        W35297  29.973   1.306  10.999
66957W        W35298  25.527  17.612   1.904
66958W        W35299  32.635   4.305   1.271
66959W        W35300   5.844  14.210  12.526
66960W        W35301   3.318  24.676  13.317
66961W        W35302  38.421  28.517  10.579
66962W        W35303  11.203   5.276   2.198
66963W        W35304  14.322  36.494  11.113
66964W        W35305  40.370  21.600   3.762
66965W        W35306   2.312   6.772  11.476
66966W        W35307  16.086  15.168   3.326
66967W        W35308  21.019  32.623   2.184
66968W        W35309  23.210  37.010   2.790
66969W        W35310   6.243  34.092  13.038
66970W        W35311  31.448  39.870  14.913
66971W        W35312  37.456   4.724  14.781
66972W        W35313  13.221   4.785   2.361
66973W        W35314  18.120  38.887  14.329
66974W        W35315  41.427  12.239  11.049
66975W        W35316  37.483   7.685  10.895
66976W        W35317   9.151   0.413   2.796
66977W        W35318  25.128  32.005  12.504
66978W        W35319  36.924  10.161  14.477
66979W        W35320  38.819   8.706  14.826
66980W        W35321  39.838  25.470   1.417
66981W        W35322  23.528  44.280   4.678
66982W        W35323  25.036  15.205   1.411
66983W        W35324  24.712   3.723   3.636
66984W        W35325  31.902  16.642  12.985
66985W        W35326   6.243  44.429  11.043
66986W        W35327  31.038   3.827  14.278
66987W        W35328  25.117  40.385  10.991
66988W        W35329  27.534  28.087  13.981
66989W        W35330  38.854  18.576  11.476
66990W        W35331   6.278   2.290  10.510
66991W        W35332  19.735  18.758   0.277
66992W        W35333   0.964  34.078  12.893
66993W        W35334  31.935   8.816   0.841
66994W        W35335  43.020   3.417   1.261
66995W        W35336  25.576  21.588   2.186
66996W        W35337  32.519  24.721  10.506
66997W        W35338  36.563  33.060   3.300
66998W        W35339  10.761  12.306   4.212
66999W        W35340  14.098  23.573  11.964
67000W        W35341  22.700  37.855  13.898
67001W        W35342  40.797  38.480  10.924
67002W        W35343  17.668  40.825  11.561
67003W        W35344  16.690  37.488   0.380
67004W        W35345  16.583  41.920  12.563
67005W        W35346  23.523   8.225  13.479
67006W        W35347  34.494  36.539  14.283
67007W        W35348  23.010  42.408   0.794
67008W        W35349   1.283   0.358  11.114
67009W        W35350  39.529   1.833   1.788
67010W        W35351  14.194  31.003   3.286
67011W        W35352  29.444  12.822  12.971
67012W        W35353   5.723  16.619   4.790
67013W        W35354   6.725   2.448  14.482
67014W        W35355  27.958  37.864   3.350
67015W        W35356  14.614   1.828  11.426
67016W        W35357  38.409   8.794  14.294
67017W        W35358   2.900  41.864  12.551
67018W        W35359  37.081  41.989   4.291
67019W        W35360  13.703  31.902  14.292
67020W        W35361  12.854   8.179  11.562
67021W        W35362  41.936  15.313  13.451
67022W        W35363  10.218   2.757   4.669
67023W        W35364  41.438  18.085   3.689
67024W        W35365  10.261  29.960   4.669
67025W        W35366   4.759  15.577  12.094
67026W        W35367   3.770  39.417   0.426
67027W        W35368  35.071  44.955  10.509
67028W        W35369  15.306  34.410  12.020
67029W        W35370  16.254   2.755  13.896
67030W        W35371  27.545  23.497  12.453
67031W        W35372  30.045   5.713  13.310
67032W        W35373  34.915  23.603   1.408
67033W        W35374  13.185  43.959  11.913
67034W        W35375  18.217  18.705   4.122
67035W        W35376  34.516  44.984   1.857
67036W        W35377  36.075   5.382  13.867
67037W        W35378  32.578  26.093  11.079
67038W        W35379  44.279  42.520   1.373
67039W        W35380  33.584  20.582   2.245
67040W        W35381   4.373  15.651   9.939
67041W        W35382  40.496  20.143  13.815
67042W        W35383  31.587  11.196   2.371
67043W        W35384  21.532   2.384   4.800
67044W        W35385  39.933  14.703  13.984
67045W        W35386  28.098   5.281   3.849
67046W        W35387  27.531  30.164   0.388
67047W        W35388  24.510  32.452   4.136
67048W        W35389  11.727  43.464   3.305
67049W        W35390  39.505  42.321  12.366
67050W        W35391   1.289  32.062   2.823
67051W        W35392  39.812  39.962   1.697
67052W        W35393  24.600  18.780   1.248
67053W        W35394  44.502  31.978   0.256
67054W        W35395  22.586  19.059   1.277
67055W        W35396  23.175  21.560  11.038
67056W        W35397  20.566  28.140  12.339
67057W        W35398  40.495  22.667  12.385
67058W        W35399   3.217  30.968  14.966
67059W        W35400  25.629  30.480  10.145
67060W        W35401  16.665  42.320   3.794
67061W        W35402  30.142  20.273  12.922
67062W        W35403  44.926  23.157   3.249
67063W        W35404  10.164  36.479  14.385
67064W        W35405  29.535  26.577  10.542
67065W        W35406  20.633   0.293   3.193
67066W        W35407   1.804   4.919  12.555
67067W        W35408  14.209  41.411   2.818
67068W        W35409  24.492  41.832  10.416
67069W        W35410   5.418  40.986   2.393
67070W        W35411  28.520  30.990   3.704
67071W        W35412  14.612  18.136   1.928
67072W        W35413   7.909  35.994   2.266
67073W        W35414  44.798  33.065   4.287
67074W        W35415  41.296   1.360   4.350
67075W        W35416  29.520  33.469   4.117
67076W        W35417  12.285   3.724  11.415
67077W        W35418  28.669  38.527  12.392
67078W        W35419  12.812   6.765   0.772
67079W        W35420  18.123  29.995   3.302
67080W        W35421  14.212   1.851   3.638
67081W        W35422  13.714  12.799  13.540
67082W        W35423  34.036   5.246   2.373
67083W        W35424  24.654  18.766   0.329
67084W        W35425  44.413  34.973   1.298
67085W        W35426  14.622  43.942   3.366
67086W        W35427  10.700  42.852   3.183
67087W        W35428  27.619  36.916   2.413
67088W        W35429   9.276  36.854   0.910
67089W        W35430  31.988  36.395   2.727
67090W        W35431  30.470  42.898   0.743
67091W        W35432  39.897  40.843  13.434
67092W        W35433  37.876  37.891   0.965
67093W        W35434   1.908  43.790   4.197
67094W        W35435   8.253  36.390   3.264
67095W        W35436  26.204  23.085  14.363
67096W        W35437  44.341  33.601  12.369
67097W        W35438  30.979  33.389   2.320
67098W        W35439  12.734  34.435   3.187
67099W        W35440  38.519  21.185   0.258
67100W        W35441  24.120   1.389   1.890
67101W        W35442  44.418  41.338  14.959
67102W        W35443  28.939   5.241   3.196
67103W        W35444  15.771  32.476   3.332
67104W        W35445  34.111  11.787   0.454
67105W        W35446  31.942  16.768  10.439
67106W        W35447  16.730   0.462  10.520
67107W        W35448  25.598  29.593   3.283
67108W        W35449  44.266   4.254  12.481
67109W        W35450  28.006  11.226   1.827
67110W        W35451   9.358  35.360  11.115
67111W        W35452  34.510  40.329  12.498
67112W        W35453  30.045  41.320  13.406
67113W        W35454  17.071  31.641   9.625
67114W        W35455  15.585  42.406   3.158
67115W        W35456  25.544   7.890  10.447
67116W        W35457  31.431   6.228   0.481
67117W        W35458  20.690   2.724  12.030
67118W        W35459  28.539   3.740  10.914
67119W        W35460  12.202  23.136   1.298
67120W        W35461  30.160   1.903  14.378
67121W        W35462  41.837  21.616  12.950
67122W        W35463  28.936  36.065   3.178
67123W        W35464  42.853  32.957  13.484
67124W        W35465  21.755  11.215  13.450
67125W        W35466  27.142  13.287  11.856
67126W        W35467  44.782  39.401  10.574
67127W        W35468   9.790  12.324   2.209
67128W        W35469  11.317  39.907  13.388
67129W        W35470  31.096   1.483   2.901
67130W        W35471  24.990   3.810  14.436
67131W        W35472  25.050  41.380   3.169
67132W        W35473  44.271  19.108  10.587
67133W        W35474  30.610  29.636   3.687
67134W        W35475  38.453  39.560   0.793
67135W        W35476  37.933  27.966  14.396
67136W        W35477  27.126  25.573   4.289
67137W        W35478   5.707  20.553  10.968
67138W        W35479  37.546  20.697  12.370
67139W        W35480   4.831  33.016  10.129
67140W        W35481  42.846  20.245   3.366
67141W        W35482  13.636  33.546   4.194
67142W        W35483  41.294  25.154   2.349
67143W        W35484  36.051  36.028  13.905
67144W        W35485  34.462   4.880  10.615
67145W        W35486  23.613  11.200  13.006
67146W        W35487  25.533  30.566   2.681
67147W        W35488   7.406  42.330   3.745
67148W        W35489   7.820  10.822   0.293
67149W        W35490  32.392  34.106   0.466
67150W        W35491  13.325  12.684   4.766
67151W        W35492  33.952  25.007  11.513
67152W        W35493   5.863  31.112  12.066
67153W        W35494  42.894  27.119  14.935
67154W        W35495  16.690  27.470   0.369
67155W        W35496  38.910   9.858   1.249
67156W        W35497   1.321  12.138   3.661
67157W        W35498  14.700  11.844  12.922
67158W        W35499  34.571  29.121  14.853
67159W        W35500  25.665  38.883   0.760
67160W        W35501  11.341  27.181  14.342
67161W        W35502  12.242  24.179   2.693
67162W        W35503  40.030  30.092   3.326
67163W        W35504  13.325  35.017   3.651
67164W        W35505   3.841   0.793   0.254
67165W        W35506  17.254  28.037  14.276
67166W        W35507  25.965   1.255  14.383
67167W        W35508  43.482   5.749   1.927
67168W        W35509  23.178  34.587   0.814
67169W        W35510  29.935  23.510   3.180
67170W        W35511  38.909   5.701  12.829
67171W        W35512  35.072  29.479   0.849
67172W        W35513  30.653  18.248  10.473
67173W        W35514  24.189  14.797   4.751
67174W        W35515  40.989  24.976  10.966
67175W        W35516  35.582   6.866   4.798
67176W        W35517   5.360   8.397   3.842
67177W        W35518  27.113  42.780   3.832
67178W        W35519   4.385  20.256  11.446
67179W        W35520   9.391  12.331   5.663
67180W        W35521  22.210  43.774   3.382
67181W        W35522  21.647   4.246  12.389
67182W        W35523   9.347  43.784   3.257
67183W        W35524  39.051  33.964  14.369
67184W        W35525  12.145  41.802   2.289
67185W        W35526  40.926  14.268  10.615
67186W        W35527  10.734  29.452  11.030
67187W        W35528   5.361  34.089   0.326
67188W        W35529  34.029   5.711   1.351
67189W        W35530  35.398  31.576   1.357
67190W        W35531  19.536  38.025   1.367
67191W        W35532  39.495  35.583   3.311
67192W        W35533   5.206  26.985  13.902
67193W        W35534  22.062  41.971  12.567
67194W        W35535  21.231   5.748   3.273
67195W        W35536  41.930  42.420  12.060
67196W        W35537  20.200  13.190   2.396
67197W        W35538  32.015  12.176   1.238
67198W        W35539  20.560  29.485  11.568
67199W        W35540  22.121  10.856   4.353
67200W        W35541  25.676  41.929  11.446
67201W        W35542  14.737   3.350   3.683
67202W        W35543  21.106   0.886   0.387
67203W        W35544   4.882  22.544   5.118
67204W        W35545  40.541  14.268  11.566
67205W        W35546  22.234  33.055  10.994
67206W        W35547  22.212  23.011  14.331
67207W        W35548   5.409  41.390   4.243
67208W        W35549  21.725  44.858   3.225
67209W        W35550  20.525  36.374  12.532
67210W        W35551  37.429  11.355  13.396
67211W        W35552  22.706  24.207  13.064
67212W        W35553  41.004   3.942  12.372
67213W        W35554  41.319  17.158   3.741
67214W        W35555  35.051   8.775   0.361
67215W        W35556  44.312  28.112  14.837
67216W        W35557  17.144  27.521  12.836
67217W        W35558  11.698  39.897   5.640
67218W        W35559   7.678  16.179   1.788
67219W        W35560  30.558  27.971   2.728
67220W        W35561  15.695  43.970   1.294
67221W        W35562   1.258  33.509   2.708
67222W        W35563   1.801  36.490   4.741
67223W        W35564   8.359  32.075  12.511
67224W        W35565  25.500  15.667  14.294
67225W        W35566  15.211  36.560   3.700
67226W        W35567  27.573  16.097  11.574
67227W        W35568  18.115  11.709  10.407
67228W        W35569  32.461  21.242  13.996
67229W        W35570  10.345   2.448   2.292
67230W        W35571  21.677  41.881  12.472
67231W        W35572  10.298  29.976  10.499
67232W        W35573   3.288  17.706   5.104
67233W        W35574   4.933  21.243  11.974
67234W        W35575  12.205  17.077   2.287
67235W        W35576  39.996   0.757  11.949
67236W        W35577  40.936  21.744   4.811
67237W        W35578  42.427   4.737  10.120
67238W        W35579  34.050   5.763  10.428
67239W        W35580   3.817  34.581  12.444
67240W        W35581  34.461  31.105  11.552
67241W        W35582  26.158   7.718   3.782
67242W        W35583  41.335  14.159   0.269
67243W        W35584  39.475   6.195  13.499
67244W        W35585  28.646  11.859   1.256
67245W        W35586   9.877  29.922   4.791
67246W        W35587   7.384  29.985   0.254
67247W        W35588  30.463  20.652   4.762
67248W        W35589   7.779  24.486   4.284
67249W        W35590  11.372  11.796  12.414
67250W        W35591  38.389   5.764  10.583
67251W        W35592  13.225   0.750   5.153
67252W        W35593  10.654  29.176  13.794
67253W        W35594   2.737  13.791   4.312
67254W        W35595  38.960  15.640   3.654
67255W        W35596  38.000  20.168   0.282
67256W        W35597  41.457  24.718  11.401
67257W        W35598   5.209  12.713   0.468
67258W        W35599  34.414  17.261  12.963
67259W        W35600  19.078  33.422  12.396
67260W        W35601  20.725  30.042   3.771
67261W        W35602   4.877  35.529   2.323
67262W        W35603   7.776   8.867  13.901
67263W        W35604  32.978  29.450   1.900
67264W        W35605   0.842  25.514   3.378
67265W        W35606  17.077  30.647   4.723
67266W        W35607  41.464   3.837   2.419
67267W        W35608  27.123  11.640   0.448
67268W        W35609   3.458   1.762   3.250
67269W        W35610   4.830  43.963   3.170
67270W        W35611  17.066   0.423   2.394
67271W        W35612  15.116   2.745  12.551
67272W        W35613  44.906  43.869   2.377
67273W        W35614   1.261  37.844   4.702
67274W        W35615  42.790  22.687   1.291
67275W        W35616  18.295  30.473  11.490
67276W        W35617  10.739  33.597  10.913
67277W        W35618  25.071   6.416   3.832
67278W        W35619  27.050  41.818  12.522
67279W        W35620  31.985  41.808   3.778
67280W        W35621  26.525   8.733  13.503
67281W        W35622  21.550  21.545   2.252
67282W        W35623  35.474  17.795  10.975
67283W        W35624  33.960  26.101   4.313
67284W        W35625  21.651  39.978   4.229
67285W        W35626  35.852  42.871   0.881
67286W        W35627  15.236  10.763  12.366
67287W        W35628   5.874  22.519   1.431
67288W        W35629   0.277  30.503   1.425
67289W        W35630  44.312  44.828   1.413
67290W        W35631  17.214  39.910   2.209
67291W        W35632  12.834  17.192  13.920
67292W        W35633  35.953  15.205   0.288
67293W        W35634  12.853  39.325   4.648
67294W        W35635  21.242  39.064   2.675
67295W        W35636  42.424  24.624   4.808
67296W        W35637  44.919  11.785  11.071
67297W        W35638   9.295  42.901  11.486
67298W        W35639  28.973  25.470  10.481
67299W        W35640   8.377  32.047   4.139
67300W        W35641  33.535   8.327   1.738
67301W        W35642  32.564   2.359   1.828
67302W        W35643   1.406  39.853   0.917
67303W        W35644  38.551  36.398  10.572
67304W        W35645   3.813  21.568   0.874
67305W        W35646  37.862   8.870   2.392
67306W        W35647   8.767  44.868  12.040
67307W        W35648  40.508  42.845  14.016
67308W        W35649  39.877  42.824  12.947
67309W        W35650  33.400  28.060   2.670
67310W        W35651  31.075  12.225   0.336
67311W        W35652  31.052  15.158  12.947
67312W        W35653  35.429  25.625   0.393
67313W        W35654  27.967  35.082  10.623
67314W        W35655  18.784  23.208   2.804
67315W        W35656   7.249  29.008   2.876
67316W        W35657   3.852  43.427  10.930
67317W        W35658  37.054  11.313  12.906
67318W        W35659  32.036  30.471  10.978
67319W        W35660  42.775  24.480   1.831
67320W        W35661  15.668   5.877   0.331
67321W        W35662  29.137  34.596   3.772
67322W        W35663  25.211   2.297  10.498
67323W        W35664  27.504  27.194   2.257
67324W        W35665  15.235   1.324   0.402
67325W        W35666   9.764  25.621  13.429
67326W        W35667  27.974  36.408  13.412
67327W        W35668  22.073  24.228   0.346
67328W        W35669   3.349  28.155  11.490
67329W        W35670  21.215  27.174   1.822
67330W        W35671  38.977  13.279   1.259
67331W        W35672  35.473  43.938  11.931
67332W        W35673  38.534  26.082  14.425
67333W        W35674  30.619  29.624  11.917
67334W        W35675  19.649  24.679   4.605
67335W        W35676  41.362  23.589  13.058
67336W        W35677  36.501  25.979   3.360
67337W        W35678   3.461   7.381   1.403
67338W        W35679  33.582  38.943   5.190
67339W        W35680  19.054  20.047  12.016
67340W        W35681  32.399  16.587   2.873
67341W        W35682  27.027   3.426   3.361
67342W        W35683  24.047  41.498   0.918
67343W        W35684  33.004  17.636  14.762
67344W        W35685   1.754  24.484   0.434
67345W        W35686  41.043  24.548  12.507
67346W        W35687  16.691  27.173  13.984
67347W        W35688   0.846  37.466   4.711
67348W        W35689  32.461  14.113   1.348
67349W        W35690  31.531  19.041   0.886
67350W        W35691  44.905  33.392   4.347
67351W        W35692   8.764  35.056  11.413
67352W        W35693  16.629  41.965   0.948
67353W        W35694   0.420  22.526  14.918
67354W        W35695  23.994  38.391  13.394
67355W        W35696  11.829   1.287   3.261
67356W        W35697  17.135  24.665  14.374
67357W        W35698  17.066  41.362  11.526
67358W        W35699  12.198  14.692   1.705
67359W        W35700  11.640  39.035   1.926
67360W        W35701   0.384  17.262  11.076
67361W        W35702  10.325   6.742  13.939
67362W        W35703  16.318   1.470   2.727
67363W        W35704  21.688   0.275   2.373
67364W        W35705  37.478  18.131   4.784
67365W        W35706  23.226  43.868  14.845
67366W        W35707  16.616   9.688   1.407
67367W        W35708   2.447  28.665   1.357
67368W        W35709  24.203  18.642   2.411
67369W        W35710  42.819   4.421  10.942
67370W        W35711  20.241  21.584   0.952
67371W        W35712  24.129  41.325   3.662
67372W        W35713  36.920  35.456   0.385
67373W        W35714  15.662  29.571  10.079
67374W        W35715  19.099   6.355   0.364
67375W        W35716  34.082  12.803  14.954
67376W        W35717  15.670  32.124   3.362
67377W        W35718  12.649  19.109  13.502
67378W        W35719   3.428  25.703   2.366
67379W        W35720  18.176   5.196   2.317
67380W        W35721  44.990  40.516   0.866
67381W        W35722  17.666  17.272  10.904
67382W        W35723  40.907  14.609   4.182
67383W        W35724  28.960  39.376  11.611
67384W        W35725  23.626   2.825   0.385
67385W        W35726   3.829  30.109   4.689
67386W        W35727   2.732   5.349   1.705
67387W        W35728   5.890  28.514   4.801
67388W        W35729  24.979  26.580   0.329
67389W        W35730  12.301  44.885   2.332
67390W        W35731  31.615  15.683  13.974
67391W        W35732  36.053  22.049  10.518
67392W        W35733  41.432  23.089   2.411
67393W        W35734  32.119  41.333  14.280
67394W        W35735   9.646  28.975  14.997
67395W        W35736  13.307   1.964  13.311
67396W        W35737   9.173  31.935   9.942
67397W        W35738  42.314  14.767  14.409
67398W        W35739   7.352  19.222   0.850
67399W        W35740  14.228   0.959   2.762
67400W        W35741  30.635  15.237  13.033
67401W        W35742  13.613  22.697  12.495
67402W        W35743  43.800  12.259   4.726
67403W        W35744   5.830  44.776  11.541
67404W        W35745  28.598  22.225   1.290
67405W        W35746  11.700   8.213  13.847
67406W        W35747  14.617  28.574  10.485
67407W        W35748   5.408   8.242   4.829
67408W        W35749   4.425  31.148  10.497
67409W        W35750   7.276  28.447   1.427
67410W        W35751  32.397  37.847  13.964
67411W        W35752  18.595  44.990   0.438
67412W        W35753  28.623  40.424  14.916
67413W        W35754   9.655  14.759   1.816
67414W        W35755  26.658  33.579   0.449
67415W        W35756  25.070  18.258  14.377
67416W        W35757  16.802  34.939   3.354
67417W        W35758  41.308  14.594  12.980
67418W        W35759  43.420  31.501   3.637
67419W        W35760   5.200  32.027   0.284
67420W        W35761  43.786  33.408  12.992
67421W        W35762  18.704  39.044  10.058
67422W        W35763  41.347  10.641  12.963
67423W        W35764  33.116   4.710  10.573
67424W        W35765   7.905   2.470  11.544
67425W        W35766  32.136   0.426   4.697
67426W        W35767  14.248   4.210  11.449
67427W        W35768  42.410  37.507   0.807
67428W        W35769  38.995  14.124  14.929
67429W        W35770   7.770   2.409  12.498
67430W        W35771  15.328  31.573  12.485
67431W        W35772  27.131  16.121  10.989
67432W        W35773  29.470  37.429  14.887
67433W        W35774  21.577  39.905  14.912
67434W        W35775  16.076   6.247  13.849
67435W        W35776  40.547  17.232  11.915
67436W        W35777  11.300  43.360   3.198
67437W        W35778  24.130  11.206  12.351
67438W        W35779  17.287  32.067   5.285
67439W        W35780  44.940  27.622   0.937
67440W        W35781   3.347  40.824  12.457
67441W        W35782  44.955  23.116   2.310
67442W        W35783  19.576  31.903  13.911
67443W        W35784  43.514   7.371   4.645
67444W        W35785  19.547  22.169  13.049
67445W        W35786  32.580   1.385   0.385
67446W        W35787  30.929  13.763   3.835
67447W        W35788  15.286   7.382  14.452
67448W        W35789  37.027  38.415  14.917
67449W        W35790  20.555  12.174  13.308
67450W        W35791  15.110  25.574   3.670
67451W        W35792   8.739   9.206   0.397
67452W        W35793  32.996  38.450  10.428
67453W        W35794  13.692  12.838  11.036
67454W        W35795   2.287  29.621   3.645
67455W        W35796  26.173  31.448  14.275
67456W        W35797  23.988  30.633   0.351
67457W        W35798  12.730  12.666   3.248
67458W        W35799  15.617  17.281  11.560
67459W        W35800   8.317   0.461  14.992
67460W        W35801  10.336  32.010   0.269
67461W        W35802  21.702   2.240   0.828
67462W        W35803  41.307  10.733   2.192
67463W        W35804  27.973  41.929   1.361
67464W        W35805  25.215  39.528  12.420
67465W        W35806  36.527  19.070  10.459
67466W        W35807   3.742  37.945   1.318
67467W        W35808  31.950  44.436   4.119
67468W        W35809   8.686  30.504  13.035
67469W        W35810  24.492  41.507  14.024
67470W        W35811   6.303   6.759  11.451
67471W        W35812  11.689  37.387  12.567
67472W        W35813  32.530  43.944  10.548
67473W        W35814  29.643   7.713  13.344
67474W        W35815  10.324  10.295   4.223
67475W        W35816  39.940  33.066   4.185
67476W        W35817   4.443   4.419  12.017
67477W        W35818   8.726   8.267   4.162
67478W        W35819  33.066  41.311  12.896
67479W        W35820  10.295  27.944   2.798
67480W        W35821  31.527  12.849  13.842
67481W        W35822  21.545   8.706   1.303
67482W        W35823  25.603  30.504  10.611
67483W        W35824  22.669   0.304   3.760
67484W        W35825  37.552  23.633  10.059
67485W        W35826   0.785  39.500  12.471
67486W        W35827  24.093  15.795  11.478
67487W        W35828  27.595  21.053  14.819
67488W        W35829  17.184  30.079  12.001
67489W        W35830  36.457   7.725  13.493
67490W        W35831  23.667  43.450  11.024
67491W        W35832  43.830  31.120   3.770
67492W        W35833   3.753  34.009  14.885
67493W        W35834  18.696   8.811   3.812
67494W        W35835  22.590  16.751   0.891
67495W        W35836  31.064  30.472   2.297
67496W        W35837  26.109  12.187   2.350
67497W        W35838   8.662  44.764  12.400
67498W        W35839  16.181  33.601   4.643
67499W        W35840  16.100  41.495  10.550
67500W        W35841   6.758  14.099  12.419
67501W        W35842  15.786   1.308  12.062
67502W        W35843  23.054  14.201  11.910
67503W        W35844  27.549   3.951  13.849
67504W        W35845   7.348  19.717  12.509
67505W        W35846  11.193  30.158   4.234
67506W        W35847   5.849  16.779  11.871
67507W        W35848  43.993   5.725  12.440
67508W        W35849   9.194  20.108   3.224
67509W        W35850  35.963   6.201   1.400
67510W        W35851   4.409  22.091   1.420
67511W        W35852   7.840  42.985  13.939
67512W        W35853  30.102   2.822   4.680
67513W        W35854  21.682  26.039   2.417
67514W        W35855  23.118  15.229  14.924
67515W        W35856  10.737   5.715   3.219
67516W        W35857  39.367  11.770   3.172
67517W        W35858  23.085   6.825   1.235
67518W        W35859  21.026  28.527  14.306
67519W        W35860  41.818  40.051   4.811
67520W        W35861  33.942  38.339   3.346
67521W        W35862  28.044  43.884  14.799
67522W        W35863  41.917   7.686  12.928
67523W        W35864  32.401  22.704  14.306
67524W        W35865   4.766  38.917  11.045
67525W        W35866  38.418  10.663   0.822
67526W        W35867  30.646  25.058  11.021
67527W        W35868  19.568  37.549   4.308
67528W        W35869  42.823   5.716   4.236
67529W        W35870   7.782  36.911   2.219
67530W        W35871  36.390  10.223  11.997
67531W        W35872  27.018  31.592   4.774
67532W        W35873  20.177  36.851   4.162
67533W        W35874  39.920   0.798  11.076
67534W        W35875   3.811  35.368   0.353
67535W        W35876   1.751  16.626   1.785
67536W        W35877  25.093  34.434   0.947
67537W        W35878  32.534   7.733  12.499
67538W        W35879   2.747   1.960   2.267
67539W        W35880   0.960  41.832  11.482
67540W        W35881   0.395   3.791  12.079
67541W        W35882  16.309  13.218  13.480
67542W        W35883  41.007  37.571  13.479
67543W        W35884  33.489  19.621   2.188
67544W        W35885   8.687  30.965   4.115
67545W        W35886  31.510  31.007   0.823
67546W        W35887   7.905   7.712   4.698
67547W        W35888  17.634  22.525  10.938
67548W        W35889  18.257  16.090  10.597
67549W        W35890  44.874   5.741  11.421
67550W        W35891  21.524  40.457  13.439
67551W        W35892  44.953  29.995  12.576
67552W        W35893  41.518  14.204  12.904
67553W        W35894  41.423  24.580   2.305
67554W        W35895  31.918  24.551  14.403
67555W        W35896   8.774  28.965   4.259
67556W        W35897   6.901   1.273   4.201
67557W        W35898  10.788  22.722  10.643
67558W        W35899  35.084  21.139   3.369
67559W        W35900   4.911   2.330   0.841
67560W        W35901  33.021  16.652   1.843
67561W        W35902  26.023  26.101   1.298
67562W        W35903  23.016  17.606   4.130
67563W        W35904   2.757  18.566  13.474
67564W        W35905  27.950  42.961   2.361
67565W        W35906   1.858  20.566   3.855
67566W        W35907  22.075   9.708   0.837
67567W        W35908  44.304  30.147  12.898
67568W        W35909  35.525   6.359   4.606
67569W        W35910  30.428  28.619  14.850
67570W        W35911  17.798   6.863  13.417
67571W        W35912  27.012  38.836   2.888
67572W        W35913  36.930  33.465   4.343
67573W        W35914  33.923   2.298  11.999
67574W        W35915   7.712  19.731  12.401
67575W        W35916  40.895  23.683   0.376
67576W        W35917  40.413  11.856   4.261
67577W        W35918  40.861  21.083   3.782
67578W        W35919  28.634   1.361  13.499
67579W        W35920  15.814  32.587   1.257
67580W        W35921  10.365   6.307   0.897
67581W        W35922   5.202   3.395  10.614
67582W        W35923  39.868  26.505  14.878
67583W        W35924  26.978  32.451  11.555
67584W        W35925  34.021   9.160  14.812
67585W        W35926   5.866  21.704  12.477
67586W        W35927  27.940  29.123   4.738
67587W        W35928  13.335  14.736   3.661
67588W        W35929  23.713  29.056   2.333
67589W        W35930   7.665  17.625   3.640
67590W        W35931  42.886  28.561  11.075
67591W        W35932  17.725  44.850  13.030
67592W        W35933  31.505   5.831   1.910
67593W        W35934  29.079  17.250  10.493
67594W        W35935  18.702  20.134   0.863
67595W        W35936   1.772  35.952  10.458
67596W        W35937  42.790  44.439  13.398
67597W        W35938   8.235  38.516   2.709
67598W        W35939  14.802  12.261  14.485
67599W        W35940  37.062  20.216  12.879
67600W        W35941  19.616  43.846   2.206
67601W        W35942  22.042  41.808  10.907
67602W        W35943  26.187  42.784   2.817
67603W        W35944  14.239   2.245  12.883
67604W        W35945  35.599  17.793   2.786
67605W        W35946  11.676  32.059   1.881
67606W        W35947  31.902  41.978   2.274
67607W        W35948  42.814   5.214  12.081
67608W        W35949  33.985   1.360  10.931
67609W        W35950  32.470  10.843  12.427
67610W        W35951  42.941  39.516  12.449
67611W        W35952  38.346  21.740  14.839
67612W        W35953  28.185   1.449   2.197
67613W        W35954  21.148  12.639  14.346
67614W        W35955   3.763  24.649  12.515
67615W        W35956  11.859  31.027   3.858
67616W        W35957  43.996   3.245  13.488
67617W        W35958  11.813  23.186   4.278
67618W        W35959  18.191  37.431  11.481
67619W        W35960  27.680  32.497   3.171
67620W        W35961   3.761   6.835   4.223
67621W        W35962  43.357  15.796  12.420
67622W        W35963  38.988  32.962  10.064
67623W        W35964  17.648  19.083  13.416
67624W        W35965  16.807  42.978  11.566
67625W        W35966  40.799  37.980   0.363
67626W        W35967  34.923   9.381  13.798
67627W        W35968  10.153   1.784   3.156
67628W        W35969  14.770   0.931   2.728
67629W        W35970   3.455  35.589  14.941
67630W        W35971  16.093  10.737   4.685
67631W        W35972  22.502  24.522  13.390
67632W        W35973  29.943  11.626  14.945
67633W        W35974  32.104   6.863  11.571
67634W        W35975  25.020   9.213   3.198
67635W        W35976  37.009  24.097   4.294
67636W        W35977  34.561  23.033   1.815
67637W        W35978   5.895   0.370  12.910
67638W        W35979   1.252  23.661  14.397
67639W        W35980  25.713  42.498  13.476
67640W        W35981  37.000   4.383   2.885
67641W        W35982  35.055  43.784  13.060
67642W        W35983  34.583  36.858   2.319
67643W        W35984  25.203  37.039   3.201
67644W        W35985   8.349  22.007   1.256
67645W        W35986   4.326  32.398   4.286
67646W        W35987   5.203  16.241  14.894
67647W        W35988  36.523  23.510  14.780
67648W        W35989  42.912  14.645   1.720
67649W        W35990  36.508  28.990  11.599
67650W        W35991  29.543  39.409   3.164
67651W        W35992  37.020   9.778   1.319
67652W        W35993  15.218  26.653   4.701
67653W        W35994  35.491  43.847   2.374
67654W        W35995  14.673  39.817  13.032
67655W        W35996  24.004  24.691   3.348
67656W        W35997  32.451   8.785  11.473
67657W        W35998  30.138  32.398   0.789
67658W        W35999  39.481   7.317  12.364
67659W        W36000  17.728  25.090   0.307
67660W        W36001  41.902  11.248   2.207
67661W        W36002  10.710  24.116  12.359
67662W        W36003  35.106  39.830  14.437
67663W        W36004  10.780  40.347   1.319
67664W        W36005  35.584  41.341  14.397
67665W        W36006   1.737  44.904   4.688
67666W        W36007   0.913  19.165   2.356
67667W        W36008  42.927  18.606  11.389
67668W        W36009   4.831  10.286  14.313
67669W        W36010   9.825  14.281   1.703
67670W        W36011  41.537  44.418  14.398
67671W        W36012  17.180  34.032  13.394
67672W        W36013  41.038   3.741  11.464
67673W        W36014  13.115  33.049  11.990
67674W        W36015   0.912   1.948   1.396
67675W        W36016  10.219  28.096  13.951
67676W        W36017  37.950  35.489  11.973
67677W        W36018  17.647   2.436  11.571
67678W        W36019  38.846  19.552  14.954
67679W        W36020  40.380  40.918   3.722
67680W        W36021  35.419  18.726   4.354
67681W        W36022   2.315  21.115   4.139
67682W        W36023  10.713  24.660  11.863
67683W        W36024  23.120  30.105   1.291
67684W        W36025  10.731  41.822   0.466
67685W        W36026  27.105  16.179   0.247
67686W        W36027  12.701   9.774   3.249
67687W        W36028  21.090  39.828   9.920
67688W        W36029   7.828   2.825  12.869
67689W        W36030  25.477   5.238  13.818
67690W        W36031  23.631  25.032  12.862
67691W        W36032  42.929  12.612   3.271
67692W        W36033  16.188  19.724   2.842
67693W        W36034  31.944  12.744   0.464
67694W        W36035   9.163  37.876   3.247
67695W        W36036  31.434  24.683  12.978
67696W        W36037   1.413  34.453  11.504
67697W        W36038  34.949  28.438   0.933
67698W        W36039  19.675  10.288   3.711
67699W        W36040  23.194  12.258   3.221
67700W        W36041  14.204  28.667   2.805
67701W        W36042  10.851   5.209   1.695
67702W        W36043  31.502  32.540   0.749
67703W        W36044  22.094  24.515  14.031
67704W        W36045   9.748  10.164   1.732
67705W        W36046   3.953  41.788  14.817
67706W        W36047   0.255  39.049  13.933
67707W        W36048  10.792  34.065   4.818
67708W        W36049  15.631  21.221   4.117
67709W        W36050  25.018   9.317  14.889
67710W        W36051  15.585   9.674  13.983
67711W        W36052   3.366  20.584  10.408
67712W        W36053  30.584  26.497  14.460
67713W        W36054  26.114  43.850   4.152
67714W        W36055  30.105  29.481   3.322
67715W        W36056   3.806  36.915  12.414
67716W        W36057   1.878  18.584   0.742
67717W        W36058  20.619  32.953   0.411
67718W        W36059  26.097  15.272   1.429
67719W        W36060  23.727  26.004   2.246
67720W        W36061   8.241  10.307  13.852
67721W        W36062  19.688  31.642  11.464
67722W        W36063  35.603   4.231   0.890
67723W        W36064  12.314  28.143   4.676
67724W        W36065  11.859  32.000  11.084
67725W        W36066  18.158   2.351   1.358
67726W        W36067  43.829  41.404  12.419
67727W        W36068  36.439  42.935   2.783
67728W        W36069   5.284  43.785   4.124
67729W        W36070  35.910   1.903  12.027
67730W        W36071  32.009   4.325   4.272
67731W        W36072  25.632   8.395  14.913
67732W        W36073  28.661  11.138   4.331
67733W        W36074  34.023   2.902  14.470
67734W        W36075  37.560  19.116  11.415
67735W        W36076  32.474  32.951   3.333
67736W        W36077  26.548  33.419  12.451
67737W        W36078  26.673  44.283   1.906
67738W        W36079  42.342   6.341   3.726
67739W        W36080  11.761  19.730   5.263
67740W        W36081  29.139  12.303   2.272
67741W        W36082  22.081  19.746   4.672
67742W        W36083  31.945  10.351   0.745
67743W        W36084  12.165  37.565  11.531
67744W        W36085   0.901   5.871   2.857
67745W        W36086  26.661   9.839   2.354
67746W        W36087  18.700  33.973   0.944
67747W        W36088  39.494  10.282  11.923
67748W        W36089   8.728  29.537   3.776
67749W        W36090   3.815  32.565  13.461
67750W        W36091  40.447   3.713  13.520
67751W        W36092   1.396  21.756  12.399
67752W        W36093  29.957  18.772  11.506
67753W        W36094  17.127  30.939   0.449
67754W        W36095  32.114  11.157  14.330
67755W        W36096  16.113   2.411   4.302
67756W        W36097  11.832   9.373  14.391
67757W        W36098  23.682  13.796   0.355
67758W        W36099   4.346   1.259  10.965
67759W        W36100  21.195   8.280  13.379
67760W        W36101  33.935   1.335   2.871
67761W        W36102  12.807  34.943   3.332
67762W        W36103  33.419   6.764   3.712
67763W        W36104  23.522   8.664   3.183
67764W        W36105  16.730  21.519   2.732
67765W        W36106  33.943  18.181   3.229
67766W        W36107   7.298  29.616  12.403
67767W        W36108  17.639  15.616   4.640
67768W        W36109  26.663  15.790  10.946
67769W        W36110  16.734  30.973   4.710
67770W        W36111  10.716  34.599  13.822
67771W        W36112  44.265  38.905   3.156
67772W        W36113   9.255  13.302  11.609
67773W        W36114  19.186  40.468   4.742
67774W        W36115  12.795  25.581   1.243
67775W        W36116  22.098  33.095   1.406
67776W        W36117  15.801  31.451   2.668
67777W        W36118  30.429  36.053  11.430
67778W        W36119  39.062  32.990  11.951
67779W        W36120  44.415  25.974   3.176
67780W        W36121   0.784  19.767   3.258
67781W        W36122  14.300   1.844   0.744
67782W        W36123  17.280  22.025   3.302
67783W        W36124  31.581  40.907   1.409
67784W        W36125  21.650  43.794   3.296
67785W        W36126  15.761  20.266  12.517
67786W        W36127  32.572  38.463   1.839
67787W        W36128   6.423  20.160  13.958
67788W        W36129  34.044   4.922   1.296
67789W        W36130  34.515  39.540  14.304
67790W        W36131  37.026  43.976   0.743
67791W        W36132  32.541  19.743  11.414
67792W        W36133  36.955  19.575   1.322
67793W        W36134  15.294  26.474  10.500
67794W        W36135   6.830  21.554  11.492
67795W        W36136  16.707  30.635  14.277
67796W        W36137  24.669   5.863   0.883
67797W        W36138  13.614  10.173   3.807
67798W        W36139  18.577  30.123  12.000
67799W        W36140  27.457  14.134  10.638
67800W        W36141  23.222  20.222  11.432
67801W        W36142  26.625  26.653   3.687
67802W        W36143  10.853  43.005   1.869
67803W        W36144  18.148  41.836  11.937
67804W        W36145   0.407   6.409  11.890
67805W        W36146  37.396  12.186  14.483
67806W        W36147  19.638  27.631   1.870
67807W        W36148  21.559  33.970   3.752
67808W        W36149   7.893   9.863  11.859
67809W        W36150  24.211  13.622   3.635
67810W        W36151   3.238  10.676   3.284
67811W        W36152  29.992   2.295   0.909
67812W        W36153  23.135  22.713   1.811
67813W        W36154  25.006  14.246  12.991
67814W        W36155  21.569  40.823  14.810
67815W        W36156  35.046  41.013   1.452
67816W        W36157   2.952  14.324   0.737
67817W        W36158  31.570   9.812  12.984
67818W        W36159  23.213  34.420  10.896
67819W        W36160  36.973  15.714   1.874
67820W        W36161   7.786  12.282   3.260
67821W        W36162  11.294  10.337  10.589
67822W        W36163  17.589   4.897   4.784
67823W        W36164  39.817  14.142   2.885
67824W        W36165   6.866  27.977   0.288
67825W        W36166  42.962   9.166  11.961
67826W        W36167  36.479  36.535   0.413
67827W        W36168  12.635   3.786  13.439
67828W        W36169  41.881   8.758   4.152
67829W        W36170  37.878  29.544  12.359
67830W        W36171  15.750  31.464   3.824
67831W        W36172  17.069  23.188  12.450
67832W        W36173  39.461  39.494  14.299
67833W        W36174   0.749  38.043   0.921
67834W        W36175  40.928   2.863  12.955
67835W        W36176  25.508  22.185   1.819
67836W        W36177  36.031   1.972  11.122
67837W        W36178  25.088   8.281  12.580
67838W        W36179  20.071  35.423   1.847
67839W        W36180  29.107  16.170   0.792
67840W        W36181  16.224   0.312  14.952
67841W        W36182  16.725  35.953  12.979
67842W        W36183  37.013  12.851  13.003
67843W        W36184  23.225  38.981   3.272
67844W        W36185   3.326   6.310   4.770
67845W        W36186   2.774  41.505  12.467
67846W        W36187  41.535  34.561   3.323
67847W        W36188   6.285  31.590  14.934
67848W        W36189  23.632  21.074   3.193
67849W        W36190  41.292   9.169   3.149
67850W        W36191   0.889   2.331  10.970
67851W        W36192  35.490  40.821   2.332
67852W        W36193  21.170  10.245  10.889
67853W        W36194   1.971  34.441   1.316
67854W        W36195  15.688  22.241   2.358
67855W        W36196  10.850   6.733  11.408
67856W        W36197  24.180  23.999   0.253
67857W        W36198  12.157  41.849   0.303
67858W        W36199  35.974  44.404  14.816
67859W        W36200   9.159  42.846   3.755
67860W        W36201   2.230  20.559  11.564
67861W        W36202   7.667  26.528  13.934
67862W        W36203   2.729   0.363   3.673
67863W        W36204   5.894  30.961  13.865
67864W        W36205   9.239   6.221   2.281
67865W        W36206  17.570   6.355   1.404
67866W        W36207  37.024  30.526   4.215
67867W        W36208  29.577  33.003  14.374
67868W        W36209   6.244  13.711  11.006
67869W        W36210  31.543   7.186   1.341
67870W        W36211   0.465  17.734   5.180
67871W        W36212  22.106   2.415   0.945
67872W        W36213   9.295   6.750   4.333
67873W        W36214  23.727  18.219   4.758
67874W        W36215   6.294   0.953   1.844
67875W        W36216  21.213  21.134  10.406
67876W        W36217  39.556  36.913   1.859
67877W        W36218  30.021  19.060   4.191
67878W        W36219   0.484  21.741   1.850
67879W        W36220   4.849  38.498   2.721
67880W        W36221  28.605  34.408  11.538
67881W        W36222  26.485  24.551  12.520
67882W        W36223  11.707  33.112   4.142
67883W        W36224  18.643  32.933  14.399
67884W        W36225  15.108  33.383   0.894
67885W        W36226  12.201  32.970  10.645
67886W        W36227  38.329  19.166   0.365
67887W        W36228  28.657  15.636  11.579
67888W        W36229  40.953  41.523  11.914
67889W        W36230  40.988  18.265   4.144
67890W        W36231  12.793  44.833   2.686
67891W        W36232  15.741  39.334   4.350
67892W        W36233  33.973  42.937   4.232
67893W        W36234  38.513  32.587  12.052
67894W        W36235  24.506  21.132   0.954
67895W        W36236  26.034   3.377   1.352
67896W        W36237  42.496  27.186  14.497
67897W        W36238  11.704  25.139   2.220
67898W        W36239   4.261  38.450   1.305
67899W        W36240  22.585  27.092  12.054
67900W        W36241  12.313  35.500   3.208
67901W        W36242  17.625  35.085   4.724
67902W        W36243  44.417   8.884   4.316
67903W        W36244  10.203  32.076   3.324
67904W        W36245  36.592  37.070  12.979
67905W        W36246  25.077   6.837   2.259
67906W        W36247  22.143   2.819  14.967
67907W        W36248   7.183  35.388   4.779
67908W        W36249   1.297  21.127  14.818
67909W        W36250   1.469  24.183   4.804
67910W        W36251  12.267  11.210   3.812
67911W        W36252  25.515   8.255  12.479
67912W        W36253  38.934  41.525  11.863
67913W        W36254  39.420  43.847  11.427
67914W        W36255  27.944  43.946  12.447
67915W        W36256  18.159  37.854  13.489
67916W        W36257  11.244  22.192   0.467
67917W        W36258  13.328  24.162   0.810
67918W        W36259  15.136  24.698   3.832
67919W        W36260  11.373  21.154   3.693
67920W        W36261   3.861  29.581   1.282
67921W        W36262  24.226  27.474  10.534
67922W        W36263  12.695  14.671  11.907
67923W        W36264   8.751  17.188  14.516
67924W        W36265  18.580  36.969  13.883
67925W        W36266  14.603  13.708   0.321
67926W        W36267  32.109  12.774   3.376
67927W        W36268  22.616  26.541   0.772
67928W        W36269  25.535   9.790   0.917
67929W        W36270  27.575  11.339   4.826
67930W        W36271  10.295  15.743   0.443
67931W        W36272  14.115   6.282   1.760
67932W        W36273  30.051   8.187  12.926
67933W        W36274   6.255  12.649  12.373
67934W        W36275  37.362   6.220  14.902
67935W        W36276   3.715  41.529   2.805
67936W        W36277  14.251  44.437  13.898
67937W        W36278   0.849  16.113   1.868
67938W        W36279  18.654   5.829   4.797
67939W        W36280  17.762  31.973  12.878
67940W        W36281   5.431  40.865   1.723
67941W        W36282   1.328  23.511  13.841
67942W        W36283  35.990  10.653  14.334
67943W        W36284   7.235  44.759  11.096
67944W        W36285  30.144  28.158  11.436
67945W        W36286  17.673  20.197   4.699
67946W        W36287  28.003   9.763   4.830
67947W        W36288  13.755  15.606  13.016
67948W        W36289  37.416  25.106  11.534
67949W        W36290  35.057  34.963   4.622
67950W        W36291  14.660  29.644   0.933
67951W        W36292  26.068  42.863   3.231
67952W        W36293  13.646   9.744   0.389
67953W        W36294  35.948  37.011  14.387
67954W        W36295  43.970  22.184  13.434
67955W        W36296   4.356   7.716  13.959
67956W        W36297  24.194  13.260   4.714
67957W        W36298  29.055  10.334   1.262
67958W        W36299  32.491  10.675  14.827
67959W        W36300  30.924   9.712   2.745
67960W        W36301  30.618  26.155  11.949
67961W        W36302   4.824  22.035   3.367
67962W        W36303   8.845  26.467  13.803
67963W        W36304  16.289  26.160  10.587
67964W        W36305   2.361  20.123  10.121
67965W        W36306   9.229   1.442  13.975
67966W        W36307  19.173  26.539  13.837
67967W        W36308   0.347  36.078   4.294
67968W        W36309  30.414  42.016  14.842
67969W        W36310   9.359  22.660   3.774
67970W        W36311  21.669  33.912   4.134
67971W        W36312   7.883  23.228  12.414
67972W        W36313  34.093  30.141  14.397
67973W        W36314  17.802  21.724  10.576
67974W        W36315  30.123  18.714   0.427
67975W        W36316   8.358  30.033   2.305
67976W        W36317  40.929  28.514   3.833
67977W        W36318  43.921  31.612  11.021
67978W        W36319   9.724   1.437  14.505
67979W        W36320  20.187   9.389  12.896
67980W        W36321  42.847   8.661   0.747
67981W        W36322   8.271   0.278   4.787
67982W        W36323   5.335  10.383  11.901
67983W        W36324  15.792  36.091  10.987
67984W        W36325  25.583   1.871  11.874
67985W        W36326  16.769  17.259   4.782
67986W        W36327  15.260  36.350  12.844
67987W        W36328   8.717  33.033  13.804
67988W        W36329   6.222   2.460  13.019
67989W        W36330  25.705  31.535   1.349
67990W        W36331  36.927   0.912  11.571
67991W        W36332   7.207  25.088   2.837
67992W        W36333  10.283   8.361  12.983
67993W        W36334  36.394  30.644  10.475
67994W        W36335  31.928  17.173   1.742
67995W        W36336  19.697  29.521  13.476
67996W        W36337   9.702  22.727  12.023
67997W        W36338  26.557   8.209   3.775
67998W        W36339   9.371  23.519   0.448
67999W        W36340  44.791  11.178   4.700
68000W        W36341  10.752  15.209   2.343
68001W        W36342  44.912  10.234   3.249
68002W        W36343  15.087  37.909   4.791
68003W        W36344  19.086   8.671   0.869
68004W        W36345  25.555  13.305   2.725
68005W        W36346  15.223  31.897   5.216
68006W        W36347  44.757  42.407   2.297
68007W        W36348  23.005   5.712   0.792
68008W        W36349  10.191   7.393  11.506
68009W        W36350  36.936  18.136  12.078
68010W        W36351  20.569  44.380  12.900
68011W        W36352  14.094  43.938   2.690
68012W        W36353  30.609  24.657  14.361
68013W        W36354  16.226  34.489  12.027
68014W        W36355  42.501  29.471   1.833
68015W        W36356   2.837  38.911   0.752
68016W        W36357  39.933   7.232  14.967
68017W        W36358  26.073  38.559  14.423
68018W        W36359   4.885   9.816   2.373
68019W        W36360  44.393  40.456   4.714
68020W        W36361   5.742   1.950  13.052
68021W        W36362   3.728   7.849  11.572
68022W        W36363  40.517  32.636  14.834
68023W        W36364   7.258  11.837  14.390
68024W        W36365  38.424  24.709   2.757
68025W        W36366  39.041   2.780   4.342
68026W        W36367   5.784  32.927  10.473
68027W        W36368  18.169   9.249  14.365
68028W        W36369  26.565  25.507   0.312
68029W        W36370  44.917  31.471  14.479
68030W        W36371  42.491  38.378   2.702
68031W        W36372   0.941  20.272   2.878
68032W        W36373   4.721  44.835  12.366
68033W        W36374  15.789  14.772  12.920
68034W        W36375  36.461   0.984   4.629
68035W        W36376  34.932  38.889   5.214
68036W        W36377  27.499  33.424  10.990
68037W        W36378  12.842  15.719  14.851
68038W        W36379  20.250   2.961   0.448
68039W        W36380  44.758   3.260   3.162
68040W        W36381  44.370  39.531  12.430
68041W        W36382  17.272   4.772   3.691
68042W        W36383   4.834  41.896  10.443
68043W        W36384   4.768  37.044  10.546
68044W        W36385  33.404  20.260  14.854
68045W        W36386  28.502  23.141   3.754
68046W        W36387  25.134  24.982   4.351
68047W        W36388  19.721   9.324  13.537
68048W        W36389  25.198  26.980   1.846
68049W        W36390  11.641  40.421   1.694
68050W        W36391  12.686  22.507  10.535
68051W        W36392  25.159  43.901  10.985
68052W        W36393  23.110  17.790  10.970
68053W        W36394  10.182  14.654   2.309
68054W        W36395  21.688  34.915   1.287
68055W        W36396  40.024  14.116   4.301
68056W        W36397  24.576   3.422   3.855
68057W        W36398   4.235  38.046   0.735
68058W        W36399  32.392  15.320   0.325
68059W        W36400   7.343  29.460   4.598
68060W        W36401  44.375  13.642   1.799
68061W        W36402  19.697  14.630   4.302
68062W        W36403  37.450  40.947   1.423
68063W        W36404  40.438  12.799   2.895
68064W        W36405  29.623  29.063   1.410
68065W        W36406  15.263  28.973   0.425
68066W        W36407   1.367  37.399   4.800
68067W        W36408  31.072  37.411  13.977
68068W        W36409  41.978   1.482  11.981
68069W        W36410  16.569   0.923   0.776
68070W        W36411  41.404   3.720  11.378
68071W        W36412  10.192  18.186  12.518
68072W        W36413  40.512  18.747  13.542
68073W        W36414  21.246  38.062  11.446
68074W        W36415  42.326  44.830  10.628
68075W        W36416  24.011  14.192   2.407
68076W        W36417   6.890  23.989   3.276
68077W        W36418  12.207  34.523   3.763
68078W        W36419  37.524   0.891   3.706
68079W        W36420   7.875  31.938   3.315
68080W        W36421  38.960  41.455   1.740
68081W        W36422  16.170  18.771  14.515
68082W        W36423  28.944  22.517   0.896
68083W        W36424  27.982  27.508   1.822
68084W        W36425  40.462   5.860   2.385
68085W        W36426   0.310  28.038  12.572
68086W        W36427  42.972   4.442  12.884
68087W        W36428  28.515  41.934  11.859
68088W        W36429  35.504  44.790  12.879
68089W        W36430  27.954   1.364  13.018
68090W        W36431  30.537  10.868  12.476
68091W        W36432  24.198  29.525   0.754
68092W        W36433  14.265  20.601   3.197
68093W        W36434  41.351  30.089  10.434
68094W        W36435  35.579   0.918   3.298
68095W        W36436  26.499  42.988   3.659
68096W        W36437  17.668  34.099  11.499
68097W        W36438  16.668   7.880   2.405
68098W        W36439  18.702  15.111   1.914
68099W        W36440  19.779  22.668  13.464
68100W        W36441  10.346  16.155  10.505
68101W        W36442  25.527  29.029   2.238
68102W        W36443  31.469   3.402  13.409
68103W        W36444   1.972  14.771   0.780
68104W        W36445   4.775   9.363  12.449
68105W        W36446   1.444   6.890  13.845
68106W        W36447  43.781  39.976   0.321
68107W        W36448  32.913   6.912  11.588
68108W        W36449   9.675  18.265  14.395
68109W        W36450  32.586  39.005  14.406
68110W        W36451  10.215   4.719   5.085
68111W        W36452  26.063   3.424  12.923
68112W        W36453  26.678  29.071  12.414
68113W        W36454   3.731  36.363   4.182
68114W        W36455   7.771   1.912   9.979
68115W        W36456  27.125  34.576  14.418
68116W        W36457  39.963  16.801  12.995
68117W        W36458  35.371   3.735  13.908
68118W        W36459  36.584  29.991   1.919
68119W        W36460  16.634  26.489   2.845
68120W        W36461   8.727  28.631   4.645
68121W        W36462  27.547  28.988   4.310
68122W        W36463  15.125  44.485  14.767
68123W        W36464  27.541  42.469   2.365
68124W        W36465  28.574  32.533  12.560
68125W        W36466  39.425  39.435   4.774
68126W        W36467   3.354  19.683   0.867
68127W        W36468  43.403   2.407   0.309
68128W        W36469  22.673  28.986  13.850
68129W        W36470  19.715  32.533   1.700
68130W        W36471  29.539   7.179  13.394
68131W        W36472  34.555  14.100   2.313
68132W        W36473  35.065   8.316   2.271
68133W        W36474  20.138  11.781   4.308
68134W        W36475   5.812  33.917   1.736
68135W        W36476   9.339  15.255   0.294
68136W        W36477  11.352  17.223  11.094
68137W        W36478  21.172  39.816  12.928
68138W        W36479   1.890  14.335   2.316
68139W        W36480   7.683  36.468   1.865
68140W        W36481  42.982  44.340   5.223
68141W        W36482  34.091   5.828  12.047
68142W        W36483  22.573  33.997  10.888
68143W        W36484  41.908  22.723   1.930
68144W        W36485   8.847  10.742  14.282
68145W        W36486  21.608  33.497   4.606
68146W        W36487   9.826  11.736  11.383
68147W        W36488  10.248  26.606  10.488
68148W        W36489  26.998   7.719  12.501
68149W        W36490  41.470  44.826   2.338
68150W        W36491  11.161  21.248   4.827
68151W        W36492  14.734   9.313   0.281
68152W        W36493  39.535  30.080  10.596
68153W        W36494  20.156  39.452   3.171
68154W        W36495  29.160  31.640  14.397
68155W        W36496  24.658  36.449   3.740
68156W        W36497   9.745  38.066  13.953
68157W        W36498  36.964  19.588  13.481
68158W        W36499  19.249   1.874   0.731
68159W        W36500  21.039   7.215  12.088
68160W        W36501  30.070  22.657   2.874
68161W        W36502  20.700  15.192  14.379
68162W        W36503   9.846  16.623  12.553
68163W        W36504  16.611  16.177   2.790
68164W        W36505  43.397  18.184   2.796
68165W        W36506  17.295  14.685  14.946
68166W        W36507  19.119  15.703   0.769
68167W        W36508  34.514   0.255  11.897
68168W        W36509  22.559   0.462   4.612
68169W        W36510   2.379  26.031   3.727
68170W        W36511   6.894  14.813  11.606
68171W        W36512  25.030   3.283   1.779
68172W        W36513   5.704   7.799  12.055
68173W        W36514  12.840  27.123   4.783
68174W        W36515   1.767  19.732   4.669
68175W        W36516  34.410  26.027  14.002
68176W        W36517   7.375  44.425   2.348
68177W        W36518   8.227   2.267  10.960
68178W        W36519  11.333  20.115   4.683
68179W        W36520  44.955  12.697  14.489
68180W        W36521  18.293   8.175  13.896
68181W        W36522  35.521  44.836   3.791
68182W        W36523  33.965  43.856  10.619
68183W        W36524  28.932  17.695  14.795
68184W        W36525  20.082   7.805   2.264
68185W        W36526  11.740  24.199  11.557
68186W        W36527   1.977   8.343  11.383
68187W        W36528  35.477  42.810   3.343
68188W        W36529  13.789  21.224  10.960
68189W        W36530  31.999   0.455   1.924
68190W        W36531  17.801  33.950  10.147
68191W        W36532   4.258  39.556   3.276
68192W        W36533   8.735  41.841  10.591
68193W        W36534  15.232  33.555   4.238
68194W        W36535  34.600  38.502  14.473
68195W        W36536  26.564  34.409   1.451
68196W        W36537  35.889  12.266   1.785
68197W        W36538   0.383  40.326  12.013
68198W        W36539  17.567  36.467  11.034
68199W        W36540  27.662  21.700  14.392
68200W        W36541  43.806  44.499   3.162
68201W        W36542  14.639  31.128   2.688
68202W        W36543  14.609  15.227  13.436
68203W        W36544  14.829  20.246  11.613
68204W        W36545  16.085  41.511   2.184
68205W        W36546  42.024  15.693   5.155
68206W        W36547  12.347  28.935   2.290
68207W        W36548   7.707   3.876   0.342
68208W        W36549  31.150   0.942   9.952
68209W        W36550  15.744  37.008  11.929
68210W        W36551  42.322   0.895  14.914
68211W        W36552  41.534  32.474  10.468
68212W        W36553   7.199  36.899   3.665
68213W        W36554  25.000  41.354  10.425
68214W        W36555  27.544  41.330   0.274
68215W        W36556  24.180   3.770  14.388
68216W        W36557  44.915   2.356  11.034
68217W        W36558  31.549  35.586  14.855
68218W        W36559  41.339  25.004  13.839
68219W        W36560  23.029  32.104  13.897
68220W        W36561  25.580  39.818   2.667
68221W        W36562  20.577  27.030  14.355
68222W        W36563  41.946  24.002   2.292
68223W        W36564  14.296  34.463  14.334
68224W        W36565   3.749  26.015   3.155
68225W        W36566  31.938  23.698  14.357
68226W        W36567  21.649  26.176   1.274
68227W        W36568  27.019   8.195   1.228
68228W        W36569  34.032  19.224   4.206
68229W        W36570  14.129  15.259   0.384
68230W        W36571  26.616  10.699  13.366
68231W        W36572  37.447  20.681  12.832
68232W        W36573  30.514  42.819   1.725
68233W        W36574  26.698  38.339   0.271
68234W        W36575  18.132  26.560   4.143
68235W        W36576  43.330   2.864  11.549
68236W        W36577  25.519   4.836   9.994
68237W        W36578   7.687  21.156   1.725
68238W        W36579  29.965   6.771   4.299
68239W        W36580  30.081   9.872  14.446
68240W        W36581   8.286   2.849  11.483
68241W        W36582  30.459   1.862   2.758
68242W        W36583  43.305  27.526  14.296
68243W        W36584  20.274  31.099   3.717
68244W        W36585  26.088  21.084  11.092
68245W        W36586  23.524  26.697  11.386
68246W        W36587   0.420  15.622  10.574
68247W        W36588  19.616  12.339  10.423
68248W        W36589  25.962  43.300   2.844
68249W        W36590   7.900   3.784   0.786
68250W        W36591  38.385  35.461  11.076
68251W        W36592  24.601   5.378   4.723
68252W        W36593  29.094  35.001   3.804
68253W        W36594  23.196  43.018   3.712
68254W        W36595   4.401  31.925  13.446
68255W        W36596  31.507  10.211  12.858
68256W        W36597  21.026  24.163   3.269
68257W        W36598  27.147   4.842  14.893
68258W        W36599  17.227  18.570   1.780
68259W        W36600  18.759  27.098   0.765
68260W        W36601   1.242  13.277  14.030
68261W        W36602  44.351  22.609  10.474
68262W        W36603   7.890  17.699  13.870
68263W        W36604  31.941  12.153  13.460
68264W        W36605  29.622  27.139   2.673
68265W        W36606  35.929  34.462  13.808
68266W        W36607  43.340  25.070   4.345
68267W        W36608  44.422  19.238  11.070
68268W        W36609   4.213  39.060   3.151
68269W        W36610  39.828  34.043  10.448
68270W        W36611   3.932  17.580   5.622
68271W        W36612  33.046  19.668  14.313
68272W        W36613  18.260  23.216  11.500
68273W        W36614  44.880  24.205  13.872
68274W        W36615  33.543  24.520   2.697
68275W        W36616  10.362  24.662  14.498
68276W        W36617  37.987   3.906   4.217
68277W        W36618  24.093  29.588  10.920
68278W        W36619   2.774   7.880   3.731
68279W        W36620  40.352  41.803  11.095
68280W        W36621   0.844  27.582  11.904
68281W        W36622   6.187  32.472   1.879
68282W        W36623  29.552   0.308   4.821
68283W        W36624  39.323  26.110  12.016
68284W        W36625  20.734  34.590   4.681
68285W        W36626  23.059  42.343   3.861
68286W        W36627  31.991   4.290   0.261
68287W        W36628   8.367  41.457  14.874
68288W        W36629  32.535  23.103   4.764
68289W        W36630   1.255   2.283  14.298
68290W        W36631  28.578  33.517  10.988
68291W        W36632   3.883  13.644   3.682
68292W        W36633  26.137   1.977   4.623
68293W        W36634   5.789  23.513   3.651
68294W        W36635  25.613  18.066  12.452
68295W        W36636  33.124  22.507   3.787
68296W        W36637  29.955  15.800  11.447
68297W        W36638  28.538   1.423   3.806
68298W        W36639  16.782   6.787  14.820
68299W        W36640   8.757  37.046  10.507
68300W        W36641   5.850  34.539   0.869
68301W        W36642  28.960   2.945   2.229
68302W        W36643  31.590   6.188  11.022
68303W        W36644  42.452  41.422  13.019
68304W        W36645  32.901  17.572   0.913
68305W        W36646  26.671  26.615  13.467
68306W        W36647  39.511  14.181   2.223
68307W        W36648  21.160  33.509   2.400
68308W        W36649  17.204  41.842  13.996
68309W        W36650  15.313   0.746  12.994
68310W        W36651  11.150   4.901   0.840
68311W        W36652  41.313  31.644   0.820
68312W        W36653  25.566  24.209  13.483
68313W        W36654   5.687  13.111   0.876
68314W        W36655  13.321   2.806  11.565
68315W        W36656  41.513  32.611   4.247
68316W        W36657   2.859   8.376   4.353
68317W        W36658  19.153  42.010   0.822
68318W        W36659  18.774  18.211  11.517
68319W        W36660  21.515  11.168   1.850
68320W        W36661   7.328  43.811   3.150
68321W        W36662   4.309  44.945   3.361
68322W        W36663  44.294  40.906   4.152
68323W        W36664  21.591  43.279   2.275
68324W        W36665  30.473  11.219  11.958
68325W        W36666  34.061  19.567   4.191
68326W        W36667   2.740  39.455   4.210
68327W        W36668  42.523   5.276   2.331
68328W        W36669  26.546   1.425  13.946
68329W        W36670  12.335  33.057   1.758
68330W        W36671  15.684  36.071  14.332
68331W        W36672  38.021  39.489   3.285
68332W        W36673  32.420   7.322   0.450
68333W        W36674  11.372   9.784  11.095
68334W        W36675  42.399  21.083   0.446
68335W        W36676  38.035  40.464   0.303
68336W        W36677   5.424  11.658   3.278
68337W        W36678  18.198   5.292   3.372
68338W        W36679  29.623  27.675  14.008
68339W        W36680  39.557  43.377   2.747
68340W        W36681   0.331  39.385  11.437
68341W        W36682  20.613   8.347  12.371
68342W        W36683  22.097  18.209   0.359
68343W        W36684  20.194  42.944   3.240
68344W        W36685  35.555  28.944  11.905
68345W        W36686  41.400  25.982  13.393
68346W        W36687  28.169  18.091   0.814
68347W        W36688   0.335  16.290  12.466
68348W        W36689  33.884  33.086   0.904
68349W        W36690  28.509   1.903  13.044
68350W        W36691   2.386   4.240  14.895
68351W        W36692  11.193  34.583  11.549
68352W        W36693  32.611  42.419   5.631
68353W        W36694   1.915  40.438  13.457
68354W        W36695  27.633  20.769  12.855
68355W        W36696  36.072  27.614   3.195
68356W        W36697  23.692  39.989  12.414
68357W        W36698  36.429   8.216   2.890
68358W        W36699  44.988  16.682   0.325
68359W        W36700  34.110   6.243   4.682
68360W        W36701   7.853  14.234   5.231
68361W        W36702  43.863   3.802   4.350
68362W        W36703  35.421  27.089   1.252
68363W        W36704  15.128  20.635   0.823
68364W        W36705  36.489  35.929  11.464
68365W        W36706  29.566  43.940  11.555
68366W        W36707   1.869  16.790   3.335
68367W        W36708  16.213  43.819  14.333
68368W        W36709  32.893  10.215   3.155
68369W        W36710   5.423   1.447  11.510
68370W        W36711   2.433  42.877   4.311
68371W        W36712  37.356  36.900  10.950
68372W        W36713  41.533  39.985  14.989
68373W        W36714   3.220  12.163   1.261
68374W        W36715  35.523   4.821  14.767
68375W        W36716   1.352  43.388   3.174
68376W        W36717  27.121  20.743   1.249
68377W        W36718  15.599  24.045   4.190
68378W        W36719  12.223  28.478  11.535
68379W        W36720  19.283  13.311  14.393
68380W        W36721  11.211  24.099  14.297
68381W        W36722  41.933   2.879   4.760
68382W        W36723   5.314  18.643   0.793
68383W        W36724  33.911   4.229   2.245
68384W        W36725  41.810  16.139   4.170
68385W        W36726   1.369  13.718  12.983
68386W        W36727  17.090  16.084  13.800
68387W        W36728   2.915  14.684   4.280
68388W        W36729  39.439  44.464   0.951
68389W        W36730  33.021  35.874  11.431
68390W        W36731  23.195  16.798   1.236
68391W        W36732  20.557  14.710   3.740
68392W        W36733  16.238  26.985   1.766
68393W        W36734   0.393  34.463  13.904
68394W        W36735  19.171  16.646  14.768
68395W        W36736   2.287  19.686  10.617
68396W        W36737   1.940  35.974   0.429
68397W        W36738  27.458  22.169  13.804
68398W        W36739   3.221  30.158   4.201
68399W        W36740  29.103   5.304  14.826
68400W        W36741   0.436  15.279   0.335
68401W        W36742  40.494   9.238  10.559
68402W        W36743  18.592  13.657  12.998
68403W        W36744  31.642  17.693  12.017
68404W        W36745  38.024  40.026  10.593
68405W        W36746  30.090  36.967  13.476
68406W        W36747   0.490  16.608   4.699
68407W        W36748  34.966  21.152  11.874
68408W        W36749  42.445  14.253   3.280
68409W        W36750   6.346  10.814   0.736
68410W        W36751  21.558  36.533   2.886
68411W        W36752  17.705  24.531   1.435
68412W        W36753  28.999  12.714   4.199
68413W        W36754   0.451  41.847   0.881
68414W        W36755  12.825  28.439   3.848
68415W        W36756   3.254  10.328   0.903
68416W        W36757   8.371  13.811   0.434
68417W        W36758  29.973   1.961   4.787
68418W        W36759   3.863   6.920  12.499
68419W        W36760   0.891  21.676  14.378
68420W        W36761   9.698   6.279   4.238
68421W        W36762  44.399  12.669   0.437
68422W        W36763  28.056   3.302  12.899
68423W        W36764  14.151  10.777   1.411
68424W        W36765  29.424   7.907   3.157
68425W        W36766  17.212   5.317  12.057
68426W        W36767  19.275  23.507  11.018
68427W        W36768   0.765  27.624   0.427
68428W        W36769  38.009   8.295   2.405
68429W        W36770  11.658  41.347   3.857
68430W        W36771   1.350   9.749   2.418
68431W        W36772  20.692   9.797  13.388
68432W        W36773  25.600  20.135   2.344
68433W        W36774  41.929  10.647  14.503
68434W        W36775  22.666   9.754   4.788
68435W        W36776   0.838  15.652  12.469
68436W        W36777  31.897  31.118   2.231
68437W        W36778  21.521  29.056   2.696
68438W        W36779   1.946  43.487  10.589
68439W        W36780  23.729   8.795  11.857
68440W        W36781  32.025  32.988   3.282
68441W        W36782  24.123   7.232  11.071
68442W        W36783  27.972  40.847  11.951
68443W        W36784   5.360   2.399  11.087
68444W        W36785  12.821  25.608  14.874
68445W        W36786  18.219   2.867   0.728
68446W        W36787  32.531  32.127  14.878
68447W        W36788   8.714   3.341  14.459
68448W        W36789  29.450  26.118  10.485
68449W        W36790  12.149  25.559   0.968
68450W        W36791   0.759   4.804   1.371
68451W        W36792  42.491  44.476   4.606
68452W        W36793  18.183  32.118   1.446
68453W        W36794  40.806  32.075   9.948
68454W        W36795  19.558   3.351  12.931
68455W        W36796   2.885  30.977  13.473
68456W        W36797  26.129  38.566   3.153
68457W        W36798  29.952  41.925   2.686
68458W        W36799   7.259  32.966   4.670
68459W        W36800  22.570  23.668  12.406
68460W        W36801  28.529  36.055   0.889
68461W        W36802  27.168  24.062  13.966
68462W        W36803  21.251  42.348   4.832
68463W        W36804  29.568  35.561   0.382
68464W        W36805  22.593  21.724  13.431
68465W        W36806  43.962  18.186  13.316
68466W        W36807   9.725  14.104  12.489
68467W        W36808  40.541   2.452  13.864
68468W        W36809  21.094  30.469  13.064
68469W        W36810  30.459   2.944   4.136
68470W        W36811   3.439  13.675  10.947
68471W        W36812  39.023  27.130   4.145
68472W        W36813   6.295  16.602   3.206
68473W        W36814  11.689  14.780  13.973
68474W        W36815  10.216  17.797   4.629
68475W        W36816  26.470  43.881   2.774
68476W        W36817  43.299  27.588   0.823
68477W        W36818  33.410  16.211  14.902
68478W        W36819  15.746  38.014  14.481
68479W        W36820   7.185  27.019   1.883
68480W        W36821  39.523  34.864   3.721
68481W        W36822  24.999  34.029  14.374
68482W        W36823  20.699  22.662  10.976
68483W        W36824   4.251  37.841  11.558
68484W        W36825  33.880  16.635  11.858
68485W        W36826   2.786  40.481  11.955
68486W        W36827  12.842  21.260   1.360
68487W        W36828  41.932   0.284  11.408
68488W        W36829  28.116   0.786  13.350
68489W        W36830   8.890  36.084  10.935
68490W        W36831   9.322  31.044   3.765
68491W        W36832   4.914  28.180  12.440
68492W        W36833   3.728  29.933  11.941
68493W        W36834  35.482  33.490   2.192
68494W        W36835  15.287  12.248   1.721
68495W        W36836  26.553  24.652   4.317
68496W        W36837  13.268  33.610   1.318
68497W        W36838  29.971  26.496  14.442
68498W        W36839  40.949  43.379   5.783
68499W        W36840  30.000  26.085  12.351
68500W        W36841   4.237  36.903   4.352
68501W        W36842  22.576  31.039  14.416
68502W        W36843  24.607   2.367  13.453
68503W        W36844  29.520  14.124   2.883
68504W        W36845   2.398  43.811  12.550
68505W        W36846  22.515  12.799   4.242
68506W        W36847  31.512  34.073   4.185
68507W        W36848  16.312  44.975   3.827
68508W        W36849   6.683  12.651  11.383
68509W        W36850  23.035  26.087  11.042
68510W        W36851   2.864  21.695   1.854
68511W        W36852  38.958  28.567   1.335
68512W        W36853  29.115  28.524   3.299
68513W        W36854  11.818  10.350  13.041
68514W        W36855  20.114  27.458   4.290
68515W        W36856   9.807   6.400   0.840
68516W        W36857  17.739  15.295  14.978
68517W        W36858  17.265  33.976   1.905
68518W        W36859   1.875  17.713  14.514
68519W        W36860  33.904  26.604   5.212
68520W        W36861  17.234  29.959  14.427
68521W        W36862  34.600  23.693   4.782
68522W        W36863  19.664  10.247   4.833
68523W        W36864   2.759  37.435   2.339
68524W        W36865   4.228  43.823   1.932
68525W        W36866  36.485  23.536  13.355
68526W        W36867  39.375  23.225   0.269
68527W        W36868  15.811  14.304   0.815
68528W        W36869  26.697  42.475  10.931
68529W        W36870  27.523   9.252  12.483
68530W        W36871  42.790  33.930  11.990
68531W        W36872  31.030  27.613   0.416
68532W        W36873  26.149  42.001   4.723
68533W        W36874  29.957  39.511   0.943
68534W        W36875  19.282  17.189  13.481
68535W        W36876  30.491   1.825   4.741
68536W        W36877   4.763  29.068   9.983
68537W        W36878  29.929  14.689   4.197
68538W        W36879   3.805   0.339  10.498
68539W        W36880  42.372   5.275   3.304
68540W        W36881  24.002  24.088  14.459
68541W        W36882  25.662   5.211  13.310
68542W        W36883  44.864   8.308  12.989
68543W        W36884  23.617  42.986  12.402
68544W        W36885  25.147  27.967  14.441
68545W        W36886   6.378  20.730  12.510
68546W        W36887  23.109  18.567   9.604
68547W        W36888  15.152  13.749   3.193
68548W        W36889  34.402   4.703  12.429
68549W        W36890  31.126   4.365   2.323
68550W        W36891  13.159  30.547   3.632
68551W        W36892  19.247  16.278  10.590
68552W        W36893  12.305  12.264   2.858
68553W        W36894  19.056  13.785   0.921
68554W        W36895   0.859  18.589   3.823
68555W        W36896  23.173  40.431  12.551
68556W        W36897  25.633  19.603  14.341
68557W        W36898   2.743  28.485   2.740
68558W        W36899  27.565  36.431  12.463
68559W        W36900  42.775   8.743  10.929
68560W        W36901  17.569  34.548   0.834
68561W        W36902   4.737   8.728   0.857
68562W        W36903  13.171  34.474  11.952
68563W        W36904   4.828   8.655  10.588
68564W        W36905  11.816  27.947  11.000
68565W        W36906   6.760  28.441  11.945
68566W        W36907  41.459  19.272   2.682
68567W        W36908  26.050   7.354  14.495
68568W        W36909  19.664  38.065  12.047
68569W        W36910  19.206  28.969  14.868
68570W        W36911   2.895  24.540  13.944
68571W        W36912  22.707  16.286   0.735
68572W        W36913  42.353  43.855  12.865
68573W        W36914  36.082   8.727  12.021
68574W        W36915  30.578  38.452   1.843
68575W        W36916  44.756  12.263  11.113
68576W        W36917  40.031  37.434  11.414
68577W        W36918  14.759  29.427  11.605
68578W        W36919   1.974  18.157   2.223
68579W        W36920  27.564  36.549  14.406
68580W        W36921  21.125  40.321   5.222
68581W        W36922  19.040   0.773   3.277
68582W        W36923  26.098  26.507   9.646
68583W        W36924  39.501  22.651   1.866
68584W        W36925  28.629  30.503   4.788
68585W        W36926   2.737   9.710  12.479
68586W        W36927  32.533  32.110  13.347
68587W        W36928  38.430   8.277  14.444
68588W        W36929  15.195  11.141   4.716
68589W        W36930  15.173  23.012   3.219
68590W        W36931  19.587  27.060   3.308
68591W        W36932  12.798  18.573   1.896
68592W        W36933  44.961  25.602  13.377
68593W        W36934  41.307  34.023  13.369
68594W        W36935  31.630  44.918   1.848
68595W        W36936  25.050  30.115   2.318
68596W        W36937  28.020   3.392   4.154
68597W        W36938  23.683  20.576  11.554
68598W        W36939  33.535  17.622   5.204
68599W        W36940  35.431  23.078   3.294
68600W        W36941  18.106  41.006  14.282
68601W        W36942  37.539  21.133   0.919
68602W        W36943   8.273  32.061  10.508
68603W        W36944  32.436  10.645  13.362
68604W        W36945  40.503  12.233   4.189
68605W        W36946  19.745  36.552   0.405
68606W        W36947   8.233  34.591  12.064
68607W        W36948   1.775   9.889  13.393
68608W        W36949  38.047  11.190  14.332
68609W        W36950   9.783   9.171  12.465
68610W        W36951   0.898  43.994   0.774
68611W        W36952  30.478  32.141   2.767
68612W        W36953  15.321  35.541   4.677
68613W        W36954  37.855   6.311   4.290
68614W        W36955  21.600   7.277   1.288
68615W        W36956  28.534  25.000   4.617
68616W        W36957   7.380   1.852   0.786
68617W        W36958  37.034  26.140  10.438
68618W        W36959  40.394  18.088   3.256
68619W        W36960  20.107  42.506   0.370
68620W        W36961  44.444  12.293  13.484
68621W        W36962  43.921  23.122   2.741
68622W        W36963  36.528  25.205   5.185
68623W        W36964  32.106  11.632   0.283
68624W        W36965  35.440  30.642  11.558
68625W        W36966  40.420  33.997   4.122
68626W        W36967  14.753  35.875  14.384
68627W        W36968  16.187  14.271   2.229
68628W        W36969  26.533  10.703  11.434
68629W        W36970  41.315   4.733   1.268
68630W        W36971  32.108   8.899   3.652
68631W        W36972  13.653  43.439  13.468
68632W        W36973   1.319  42.783  11.904
68633W        W36974  31.096   6.872  13.011
68634W        W36975  36.383   5.719  10.538
68635W        W36976  14.812   6.428  14.453
68636W        W36977  18.577  23.984  12.451
68637W        W36978  42.996  36.928   3.260
68638W        W36979  34.878   6.733  13.059
68639W        W36980   7.846  25.630   4.169
68640W        W36981  41.838   5.375   4.730
68641W        W36982  12.689  39.886  14.788
68642W        W36983   9.196  16.699   4.240
68643W        W36984  29.496   6.274   5.180
68644W        W36985  29.510  33.950   0.935
68645W        W36986  14.246  24.677   0.323
68646W        W36987   8.342  33.594  12.433
68647W        W36988  10.672  41.794   1.801
68648W        W36989  18.256  33.529   4.227
68649W        W36990  38.875   3.325  11.487
68650W        W36991  15.677  15.286   4.259
68651W        W36992  11.762  14.200   0.379
68652W        W36993  14.657  31.484   3.266
68653W        W36994   9.724  37.979  11.055
68654W        W36995  16.307  13.134   4.187
68655W        W36996  10.777  27.988   4.790
68656W        W36997  21.097  14.136   2.299
68657W        W36998  36.387  42.466  13.393
68658W        W36999   6.367  12.348   3.846
68659W        W37000  30.550  40.938  11.955
68660W        W37001  39.815   2.249  14.418
68661W        W37002  11.810  15.737  11.410
68662W        W37003  36.888  21.125   3.274
68663W        W37004   0.805   9.214  14.457
68664W        W37005  32.088   7.714  14.430
68665W        W37006  19.188   3.366   4.133
68666W        W37007  32.577  31.448  10.562
68667W        W37008   6.365   2.747  10.088
68668W        W37009  39.403  23.191   1.298
68669W        W37010  43.950  20.110   2.202
68670W        W37011  31.645  32.580   1.399
68671W        W37012  28.149   8.294  14.017
68672W        W37013  25.618  44.977  13.867
68673W        W37014  25.471  21.103  14.407
68674W        W37015  32.923  23.994   0.900
68675W        W37016  22.136  34.038  10.597
68676W        W37017   0.852  38.453  14.359
68677W        W37018  36.857  43.473   3.349
68678W        W37019  36.480   0.810   4.174
68679W        W37020  12.631   8.288   1.287
68680W        W37021  41.472  21.635  13.354
68681W        W37022   7.706   7.756   4.263
68682W        W37023  24.174   7.235  11.933
68683W        W37024   6.230  18.682  12.007
68684W        W37025   7.770   7.756  12.967
68685W        W37026  43.976  34.051  12.553
68686W        W37027  25.033  41.842   4.235
68687W        W37028  26.065   6.859   0.912
68688W        W37029  15.795  34.483  10.540
68689W        W37030  14.305   9.336  11.936
68690W        W37031  26.662   5.743   0.335
68691W        W37032  32.511  30.646  14.804
68692W        W37033  13.268  38.039  13.476
68693W        W37034   7.910  10.218  11.502
68694W        W37035  34.987  10.268  13.987
68695W        W37036  11.362  30.086   0.867
68696W        W37037  34.472  28.187   0.916
68697W        W37038  26.025   3.797  13.063
68698W        W37039  42.990   5.352   4.201
68699W        W37040  38.502   3.342  12.490
68700W        W37041  23.141   0.860  13.953
68701W        W37042  28.556  18.716  13.879
68702W        W37043  26.119   8.297   1.753
68703W        W37044   9.683  41.910   4.337
68704W        W37045  26.691  40.047   1.810
68705W        W37046  10.290  44.897   0.405
68706W        W37047  42.027  34.953  14.303
68707W        W37048  25.555  12.149   2.838
68708W        W37049  41.466  27.643   4.631
68709W        W37050   3.394  15.092  11.404
68710W        W37051  34.922  37.347   0.311
68711W        W37052  12.776  44.994  12.908
68712W        W37053  41.826  38.531   3.868
68713W        W37054  21.619  25.970   4.601
68714W        W37055  29.449  17.698   3.242
68715W        W37056  35.017  18.614   1.276
68716W        W37057   1.465  27.095   0.296
68717W        W37058  31.491  14.322  14.816
68718W        W37059  35.518  17.289   3.790
68719W        W37060  24.679  34.059   1.220
68720W        W37061  10.735  10.378  10.620
68721W        W37062  22.635  31.643   0.339
68722W        W37063  43.970  25.485   3.821
68723W        W37064  26.968  11.354  13.927
68724W        W37065  39.828   6.218  11.906
68725W        W37066  15.310   2.818  10.450
68726W        W37067   3.257  38.336   0.929
68727W        W37068  39.861  27.509   2.686
68728W        W37069  39.396   7.192  10.961
68729W        W37070   3.856  42.959   2.744
68730W        W37071  32.983  32.121  10.153
68731W        W37072  37.527  25.031   1.889
68732W        W37073  37.420  20.051  11.491
68733W        W37074  40.995  31.531  11.935
68734W        W37075  44.426  30.058   2.408
68735W        W37076  26.183   7.316   3.867
68736W        W37077  19.069  33.110  11.401
68737W        W37078  42.507  18.283   2.876
68738W        W37079  23.659   6.284   1.406
68739W        W37080   3.326  37.350   1.282
68740W        W37081  14.212  36.536   4.184
68741W        W37082  44.796  24.633   3.816
68742W        W37083  26.123  38.892   1.444
68743W        W37084  16.718  44.936   1.831
68744W        W37085   9.185  16.756  14.482
68745W        W37086   0.798  19.718  10.599
68746W        W37087  23.671   8.282  14.308
68747W        W37088  20.227   2.364   0.388
68748W        W37089  38.506  38.458   1.890
68749W        W37090  19.195  34.107   3.719
68750W        W37091  36.968   1.748   4.609
68751W        W37092  40.450  27.676   2.774
68752W        W37093  22.082   7.826   4.791
68753W        W37094  32.983  19.663  13.527
68754W        W37095   9.350  36.000   2.776
68755W        W37096  33.029  42.818   1.827
68756W        W37097   1.837  39.009  13.052
68757W        W37098  33.603  44.269   2.271
68758W        W37099  10.180  32.078   3.699
68759W        W37100   1.290  26.073  13.964
68760W        W37101  25.035   3.287  10.467
68761W        W37102  18.285  42.860  13.420
68762W        W37103   4.333   1.927   4.321
68763W        W37104   4.731   2.417   1.721
68764W        W37105   9.379  12.681  12.982
68765W        W37106  40.391  17.770  12.926
68766W        W37107   3.328  21.661  14.388
68767W        W37108  20.636  27.064  11.081
68768W        W37109  12.260   9.698  13.827
68769W        W37110  41.352  23.622  14.397
68770W        W37111  22.523  25.664   3.198
68771W        W37112   3.365   7.794  12.562
68772W        W37113  13.606  24.202   4.316
68773W        W37114  29.610   8.233  14.768
68774W        W37115   6.873  34.039   4.219
68775W        W37116  33.404  27.596  14.879
68776W        W37117  25.996   8.341   4.114
68777W        W37118   6.419  25.499   4.319
68778W        W37119   8.278  42.428  11.439
68779W        W37120  11.636  43.491  11.974
68780W        W37121   1.934  20.624  10.644
68781W        W37122  32.600  39.017   5.274
68782W        W37123  36.576  18.213  11.458
68783W        W37124  10.300  43.764   0.320
68784W        W37125   0.870  12.127  11.580
68785W        W37126  29.440   1.848   0.384
68786W        W37127  44.777  35.561   0.744
68787W        W37128  32.611  34.964   1.227
68788W        W37129   1.765   3.760  10.602
68789W        W37130  19.250   2.467  13.403
68790W        W37131  27.550  16.770   4.152
68791W        W37132  30.136  11.226  10.473
68792W        W37133  26.176   2.731   0.448
68793W        W37134   0.438  30.603   4.757
68794W        W37135  11.626  38.821   0.829
68795W        W37136  31.055   3.767  12.353
68796W        W37137  20.666  20.669  11.416
68797W        W37138  40.883  32.415   0.397
68798W        W37139  13.769   7.832  14.288
68799W        W37140  37.413  42.370   3.789
68800W        W37141  33.051  38.842   4.821
68801W        W37142  25.629  10.246  12.384
68802W        W37143  25.538  37.905  12.960
68803W        W37144  10.215  14.163   0.444
68804W        W37145  43.339   5.228   0.393
68805W        W37146   7.268  27.621  10.440
68806W        W37147  42.479   3.366   1.448
68807W        W37148  27.163  15.596   4.207
68808W        W37149  25.512  28.529  10.117
68809W        W37150   2.314  41.387   2.705
68810W        W37151  27.154  21.655   0.758
68811W        W37152  11.832  34.930   0.887
68812W        W37153  41.896  25.114   4.225
68813W        W37154   1.962  22.996   4.351
68814W        W37155   9.761  10.849   4.756
68815W        W37156  36.544  12.173  13.029
68816W        W37157  39.439   3.952   4.293
68817W        W37158  28.151   4.886  13.912
68818W        W37159  26.463  20.213   1.216
68819W        W37160  24.041  38.384   3.640
68820W        W37161  15.788  33.922  12.850
68821W        W37162  29.562   2.802  11.925
68822W        W37163  39.431  13.159   4.790
68823W        W37164  17.144   5.798  13.883
68824W        W37165  13.310  15.704   3.223
68825W        W37166  19.713  20.059   0.907
68826W        W37167  40.374  14.189   3.364
68827W        W37168   5.699   2.234  10.564
68828W        W37169   6.333  22.162  11.476
68829W        W37170   8.213  30.117  13.791
68830W        W37171  39.872   6.283   3.861
68831W        W37172  27.020  27.134   3.189
68832W        W37173   8.327  31.970  14.001
68833W        W37174   9.157  41.831  10.458
68834W        W37175   1.937  11.628   4.707
68835W        W37176  19.571  38.051   4.298
68836W        W37177  15.139  11.641  11.996
68837W        W37178  35.369   4.762   1.920
68838W        W37179   6.776  29.564   0.753
68839W        W37180  17.243  30.578  14.839
68840W        W37181  34.553  15.769   0.297
68841W        W37182   8.276  21.144  12.825
68842W        W37183  10.724  24.125  10.995
68843W        W37184   6.822  24.577  11.433
68844W        W37185  32.973  23.998   2.206
68845W        W37186   7.298  35.559   3.156
68846W        W37187   3.287  10.292   3.735
68847W        W37188  27.061  26.691  14.015
68848W        W37189  12.236  30.988   1.331
68849W        W37190  40.458  20.712   3.789
68850W        W37191   2.276  38.362  10.500
68851W        W37192  44.362  21.258   3.847
68852W        W37193  42.890   7.187  12.843
68853W        W37194  31.442  23.526   2.711
68854W        W37195  43.019   0.455   2.761
68855W        W37196  16.253  43.352  11.611
68856W        W37197  39.440  11.658   0.888
68857W        W37198  27.159   4.799   1.244
68858W        W37199  39.315   0.480   2.705
68859W        W37200  40.939  14.162   4.631
68860W        W37201  12.773  25.516   2.305
68861W        W37202  17.244  36.455  13.017
68862W        W37203  32.007   1.365  12.565
68863W        W37204  23.001  42.360  13.480
68864W        W37205  12.248  10.832   2.290
68865W        W37206  35.979  40.460  14.502
68866W        W37207  43.020   7.684   2.243
68867W        W37208   9.274   7.893  12.421
68868W        W37209  42.342  27.621   3.704
68869W        W37210  30.957  32.601   0.387
68870W        W37211  24.214   3.381  13.063
68871W        W37212  26.087  35.424   0.295
68872W        W37213   0.938  44.403   2.839
68873W        W37214  12.826   4.262  11.489
68874W        W37215  39.936  37.538   3.236
68875W        W37216  16.205  12.123  12.410
68876W        W37217  29.143  43.923  11.993
68877W        W37218   4.340   4.894  11.020
68878W        W37219   5.751   9.180  11.461
68879W        W37220  10.729  21.200  14.349
68880W        W37221  26.549  36.065   1.451
68881W        W37222  35.998   2.313   1.353
68882W        W37223   1.937  38.875   1.270
68883W        W37224  13.794  32.591  14.857
68884W        W37225  28.487  20.106  11.937
68885W        W37226  33.543  38.955  12.528
68886W        W37227  25.581  39.037   3.231
68887W        W37228  21.204  12.658  12.874
68888W        W37229  22.736  43.803   3.853
68889W        W37230  44.489  23.220  13.825
68890W        W37231  15.210  17.122  13.412
68891W        W37232  27.553  30.135   1.258
68892W        W37233  37.428  40.393   3.846
68893W        W37234  29.562  36.924   4.769
68894W        W37235   2.369  34.488  11.586
68895W        W37236  42.989   4.766   3.806
68896W        W37237   1.790  28.933   0.872
68897W        W37238  42.410  22.067   4.184
68898W        W37239   5.246  40.978   2.797
68899W        W37240  35.562  42.451   4.715
68900W        W37241  33.419  33.127   4.619
68901W        W37242  26.190   0.790   4.256
68902W        W37243  25.146  31.998  10.443
68903W        W37244  42.937  37.375   0.764
68904W        W37245  26.142  17.560  14.339
68905W        W37246  37.033  10.145  10.554
68906W        W37247  43.367  20.535   1.804
68907W        W37248  26.986   5.838  10.516
68908W        W37249   5.867  39.488   1.803
68909W        W37250  15.806  26.040   1.793
68910W        W37251   8.231  42.964  13.859
68911W        W37252   3.723  31.550  14.373
68912W        W37253  37.885  17.593   3.196
68913W        W37254  44.406  30.101   3.354
68914W        W37255  15.110   9.182   3.705
68915W        W37256  10.217  24.513   4.248
68916W        W37257  33.592   0.353  13.050
68917W        W37258  35.861  31.037  13.792
68918W        W37259  10.781  40.444   3.787
68919W        W37260  10.226  12.306   4.150
68920W        W37261  27.046  28.000   1.271
68921W        W37262  32.623  12.283  12.385
68922W        W37263  28.141  20.662  13.473
68923W        W37264  35.430  11.717   3.669
68924W        W37265  21.121   9.763   0.944
68925W        W37266  16.776  36.891   2.286
68926W        W37267  14.219  37.432  14.277
68927W        W37268  20.221  35.555  14.787
68928W        W37269  40.309   3.879   4.214
68929W        W37270  23.108  30.945   0.856
68930W        W37271  33.496  29.517  10.589
68931W        W37272  25.578   2.880  11.872
68932W        W37273  11.133  31.957   0.835
68933W        W37274   2.872  36.453   1.313
68934W        W37275   1.287  40.007  10.586
68935W        W37276  25.029  16.169   0.829
68936W        W37277   3.379   1.370  10.539
68937W        W37278  21.738  15.270  13.969
68938W        W37279   5.437  20.148  12.016
68939W        W37280  19.636  36.893   0.358
68940W        W37281   6.211  20.670   0.947
68941W        W37282  44.310  17.239  14.774
68942W        W37283   8.361  43.764   0.873
68943W        W37284  25.991  42.476   4.183
68944W        W37285  38.930   4.395   3.216
68945W        W37286  24.720   5.883   3.819
68946W        W37287   4.421  13.620   3.702
68947W        W37288  25.151  35.454  14.515
68948W        W37289  22.236  13.804  14.931
68949W        W37290  26.616  23.212  13.318
68950W        W37291  22.066   8.813   4.258
68951W        W37292   0.389  30.992   0.258
68952W        W37293  18.782  10.707   1.862
68953W        W37294  20.175  14.695  12.475
68954W        W37295  38.494  12.308  14.302
68955W        W37296  11.653   3.247   2.718
68956W        W37297   2.883  32.038   3.184
68957W        W37298  10.857   9.682   2.872
68958W        W37299  26.487  21.068   1.308
68959W        W37300  19.280  33.050   0.456
68960W        W37301  21.611  39.388  13.866
68961W        W37302  35.876  12.146   0.961
68962W        W37303   0.347  27.474  11.421
68963W        W37304  13.827   6.314   0.252
68964W        W37305  44.781  12.190  11.435
68965W        W37306  43.404  17.083  13.912
68966W        W37307  41.919  16.774   4.243
68967W        W37308  13.320   8.689  10.944
68968W        W37309  13.758  44.857   3.255
68969W        W37310  36.066  18.690  11.010
68970W        W37311  36.574   5.702   4.718
68971W        W37312  37.561   5.293   1.358
68972W        W37313  31.402  16.627  11.126
68973W        W37314  29.656  17.169  13.010
68974W        W37315  22.539  32.520   3.856
68975W        W37316  24.623   4.751  14.892
68976W        W37317  25.474  27.570   2.715
68977W        W37318  16.579  14.148   2.402
68978W        W37319   4.717  44.407  11.511
68979W        W37320  24.188  16.632  13.326
68980W        W37321  10.736  32.610  13.508
68981W        W37322  29.025  36.048  11.381
68982W        W37323  42.387  36.385  11.993
68983W        W37324  29.598  12.719  14.467
68984W        W37325  32.605   5.319   0.964
68985W        W37326  21.705   6.783   1.296
68986W        W37327  13.228  11.140   4.240
68987W        W37328   2.300  19.682  12.994
68988W        W37329  21.659  37.053   2.365
68989W        W37330  21.097  17.157   3.288
68990W        W37331   5.201  35.063   3.385
68991W        W37332  36.555   9.880   2.732
68992W        W37333  24.486  20.081  10.607
68993W        W37334  23.553  22.675  12.496
68994W        W37335  43.445  15.672   3.726
68995W        W37336  31.060  43.280   4.753
68996W        W37337  10.714  39.420   3.676
68997W        W37338  37.960  41.498   5.595
68998W        W37339   3.291   5.707  13.387
68999W        W37340  17.753   8.870   2.283
69000W        W37341  28.106   7.198   3.243
69001W        W37342  37.487  17.239   0.248
69002W        W37343  25.649  19.059   1.849
69003W        W37344  20.080  30.057  12.396
69004W        W37345  16.785  28.110   1.280
69005W        W37346  37.502  39.404  13.387
69006W        W37347   8.251  20.674  11.067
69007W        W37348  36.986  31.083   0.340
69008W        W37349  33.001  17.590   1.889
69009W        W37350   9.809  41.815   1.296
69010W        W37351  24.664  12.150   0.840
69011W        W37352  31.012  43.482   1.274
69012W        W37353   6.330  33.119  12.979
69013W        W37354   6.235   1.389   0.247
69014W        W37355   7.686   1.421  12.530
69015W        W37356  27.534  10.732   3.850
69016W        W37357  19.123  16.194   1.431
69017W        W37358  12.347  34.070  12.945
69018W        W37359  42.501  43.302  13.314
69019W        W37360  25.643   1.897  13.416
69020W        W37361  11.688  36.908   2.860
69021W        W37362  18.082  28.061  11.594
69022W        W37363   0.860   8.242  13.836
69023W        W37364  20.523  17.620   2.299
69024W        W37365  38.499  33.890   4.251
69025W        W37366  39.842  19.131   1.369
69026W        W37367  40.494  42.990  11.000
69027W        W37368   2.901   9.178  14.941
69028W        W37369  39.825  36.059  14.005
69029W        W37370  20.099  13.727   3.197
69030W        W37371  20.134  42.424  14.332
69031W        W37372   2.314   8.688   3.696
69032W        W37373  44.886   7.809  13.481
69033W        W37374  30.431  40.526   2.772
69034W        W37375  36.490  33.506   0.816
69035W        W37376  30.092  17.785   2.822
69036W        W37377  14.263  10.739  13.869
69037W        W37378   4.871   9.292  14.989
69038W        W37379  25.573  22.729  14.904
69039W        W37380  40.836  34.528  11.556
69040W        W37381   7.884   5.775  13.514
69041W        W37382  33.969  21.075   4.742
69042W        W37383  11.807  42.953   3.697
69043W        W37384   8.722   9.855  12.080
69044W        W37385   8.803   4.854  11.408
69045W        W37386  29.074  22.532   1.926
69046W        W37387  25.046  42.506  13.469
69047W        W37388  25.094  40.848   4.143
69048W        W37389   8.197  22.059   0.803
69049W        W37390  21.258  24.489   2.206
69050W        W37391  17.248  13.175   2.246
69051W        W37392   0.489  23.583   4.650
69052W        W37393  20.571  42.308   3.178
69053W        W37394  28.079  19.612  10.084
69054W        W37395  19.258  16.747  11.077
69055W        W37396  43.421   5.913  14.928
69056W        W37397  42.411   6.918  13.409
69057W        W37398  28.103  21.041  13.482
69058W        W37399  44.785  35.493   2.752
69059W        W37400  34.546  39.426   4.824
69060W        W37401  37.411   6.689  11.409
69061W        W37402   4.768  37.868  12.393
69062W        W37403   5.881  30.136   3.706
69063W        W37404  12.842  40.931   3.669
69064W        W37405   6.862  44.476   1.814
69065W        W37406   5.888  31.598  13.833
69066W        W37407  29.530  10.825  11.491
69067W        W37408   6.848  22.578  14.355
69068W        W37409  21.618  22.696  14.349
69069W        W37410  17.115  39.962  13.307
69070W        W37411   4.424   1.287   1.281
69071W        W37412  28.032  11.332   2.320
69072W        W37413  27.977   5.896  13.508
69073W        W37414  42.951  42.849   4.332
69074W        W37415  42.364   8.374  14.999
69075W        W37416   9.839  33.978  13.930
69076W        W37417  29.587   2.408  13.403
69077W        W37418   1.434  37.933   1.229
69078W        W37419  38.551  35.382  12.516
69079W        W37420   8.201  15.216  10.544
69080W        W37421  12.219  17.773  12.052
69081W        W37422   2.335  37.900  11.611
69082W        W37423  44.330   6.795  12.021
69083W        W37424   8.700   0.441  10.641
69084W        W37425   8.667  18.767   2.220
69085W        W37426  17.687  40.460  14.012
69086W        W37427  31.972  12.166  14.774
69087W        W37428  24.043  33.391  14.835
69088W        W37429  41.496  33.411  11.446
69089W        W37430  10.289   4.448  10.941
69090W        W37431  28.625  30.570   2.380
69091W        W37432  38.452   4.364   1.441
69092W        W37433   7.294   6.221   4.340
69093W        W37434  25.133   8.702  11.977
69094W        W37435  23.529  33.601   0.879
69095W        W37436   4.863  11.324  10.509
69096W        W37437   6.907  18.644   4.274
69097W        W37438  23.154  41.388   2.341
69098W        W37439   2.786  35.525  14.487
69099W        W37440  34.426  28.150  13.974
69100W        W37441  43.994  14.748  14.419
69101W        W37442  24.725   1.841   0.293
69102W        W37443  30.020  12.303   0.916
69103W        W37444  14.762   5.840   2.404
69104W        W37445   2.914   7.295   2.715
69105W        W37446  22.246  10.238  14.830
69106W        W37447  37.376  15.621   4.252
69107W        W37448  38.559   8.191  13.351
69108W        W37449   8.768  11.339  12.558
69109W        W37450  11.231  22.526   3.182
69110W        W37451  17.121  29.158  10.893
69111W        W37452   5.897  21.643   4.253
69112W        W37453  24.496   7.392   4.298
69113W        W37454  17.148  35.504   1.439
69114W        W37455  15.278   1.238   4.265
69115W        W37456   7.207   9.316   2.357
69116W        W37457  33.903   1.948   0.863
69117W        W37458  11.687  31.472   4.749
69118W        W37459   2.342  16.727   5.219
69119W        W37460  35.037  16.110  10.613
69120W        W37461  16.252  39.388  10.424
69121W        W37462  14.139  11.689   3.858
69122W        W37463  12.755  31.558  11.605
69123W        W37464  15.238  29.557   0.900
69124W        W37465   0.412  32.124  12.991
69125W        W37466  26.685  39.327   3.696
69126W        W37467  44.341   4.857   4.317
69127W        W37468  27.074  32.099   3.311
69128W        W37469   6.680   4.821  11.097
69129W        W37470   1.964  44.867   1.292
69130W        W37471  16.118  34.901   2.900
69131W        W37472  24.484  15.699   2.716
69132W        W37473   2.438  43.879  12.009
69133W        W37474   0.794  22.240  11.554
69134W        W37475  30.942   8.683   2.773
69135W        W37476  30.087  12.295  10.541
69136W        W37477  16.812  15.781   0.458
69137W        W37478  14.312   1.769   9.920
69138W        W37479  37.902  37.988   1.294
69139W        W37480  33.575  30.426   5.281
69140W        W37481  16.241  37.381  13.842
69141W        W37482  27.127  41.309   4.131
69142W        W37483  13.701  16.281   2.245
69143W        W37484  33.986  19.643  10.478
69144W        W37485   7.198  40.525   2.418
69145W        W37486  34.883   5.761  13.327
69146W        W37487   5.324  29.522  11.565
69147W        W37488  36.960   8.178  13.961
69148W        W37489  37.480  22.690   1.851
69149W        W37490  36.525   1.972  12.991
69150W        W37491  37.507  39.560   2.729
69151W        W37492  37.405  42.811   3.793
69152W        W37493  37.896  38.069  14.398
69153W        W37494  17.645  18.721  13.499
69154W        W37495   9.702  15.810  14.862
69155W        W37496  33.052   6.743   0.733
69156W        W37497  23.117  14.202   5.153
69157W        W37498  38.413   7.688   3.284
69158W        W37499  28.517  28.069   0.410
69159W        W37500   5.733   3.396   2.814
69160W        W37501  39.480  19.050  14.497
69161W        W37502  18.682  36.446   2.874
69162W        W37503  20.656  16.625  12.849
69163W        W37504  20.739  11.689  14.290
69164W        W37505  27.578  21.133   4.823
69165W        W37506  41.311  10.325  11.466
69166W        W37507  33.083   9.201   3.170
69167W        W37508  14.233  10.143  14.502
69168W        W37509   3.786   5.410  14.333
69169W        W37510   5.415  10.159   0.382
69170W        W37511  20.137  44.380   3.154
69171W        W37512  32.943  43.783  14.425
69172W        W37513  21.187  34.119   3.653
69173W        W37514   8.202  21.037  14.336
69174W        W37515   8.788   9.241   4.825
69175W        W37516  31.936  37.420  11.039
69176W        W37517  24.003  19.266   5.307
69177W        W37518   4.432   4.809  13.841
69178W        W37519  36.577  23.048  13.903
69179W        W37520  29.465  21.101   4.605
69180W        W37521  44.819  27.114   3.225
69181W        W37522  41.526   7.242  12.545
69182W        W37523  38.568  34.389   2.201
69183W        W37524   9.332  19.551  12.874
69184W        W37525  25.081  15.733  11.933
69185W        W37526  41.395  22.705   0.457
69186W        W37527  29.958  39.521   0.343
69187W        W37528  28.948   5.758  12.512
69188W        W37529  10.259  40.820   1.877
69189W        W37530  37.884  26.526   1.802
69190W        W37531  32.392  23.147  13.063
69191W        W37532  20.124  19.559  12.425
69192W        W37533  11.284   3.735  11.501
69193W        W37534  37.929   3.829  11.514
69194W        W37535   7.772  22.150   3.269
69195W        W37536  30.461  42.946   4.613
69196W        W37537  42.899  14.217  14.454
69197W        W37538  40.398   7.260   1.790
69198W        W37539  35.961  42.463   2.894
69199W        W37540   2.919  31.514   2.897
69200W        W37541  31.126  20.616   0.458
69201W        W37542   8.892  24.107   3.802
69202W        W37543  33.399  37.029   1.846
69203W        W37544  38.939  26.188  10.516
69204W        W37545  28.019   6.243  14.384
69205W        W37546  41.381   1.977  10.902
69206W        W37547  43.454  10.251  12.872
69207W        W37548  31.097  38.563  14.335
69208W        W37549  41.521  27.017   2.198
69209W        W37550  28.630  13.254  14.964
69210W        W37551  15.823  33.109   0.858
69211W        W37552  39.901  21.225   1.820
69212W        W37553  42.296  36.843   3.695
69213W        W37554  11.636  31.015   9.950
69214W        W37555  38.457  28.558   1.389
69215W        W37556  39.487   7.681  11.882
69216W        W37557  44.486  26.596   2.178
69217W        W37558  35.043   1.787   2.697
69218W        W37559  34.607  39.897  13.449
69219W        W37560  16.679  19.077   3.743
69220W        W37561   3.712  23.694   2.224
69221W        W37562  11.808   1.413   1.301
69222W        W37563  30.004   5.861  12.962
69223W        W37564  38.835  16.676   0.289
69224W        W37565  30.477  21.626  11.422
69225W        W37566  43.861  21.754   1.280
69226W        W37567  35.876   3.245   0.872
69227W        W37568  17.711   1.482   4.127
69228W        W37569  37.518  37.489  14.956
69229W        W37570  11.723  37.542  13.365
69230W        W37571   1.460  35.418   1.714
69231W        W37572  16.766  28.999   0.742
69232W        W37573  32.616   4.905   4.200
69233W        W37574  42.462  34.397   1.856
69234W        W37575  14.096   9.729  13.350
69235W        W37576  32.582  20.588  11.928
69236W        W37577  24.560  27.106  14.838
69237W        W37578  44.326  38.009  14.458
69238W        W37579  27.186  44.376   1.254
69239W        W37580  26.488  37.396   0.812
69240W        W37581  34.585  27.691   3.812
69241W        W37582  31.496  22.566   3.805
69242W        W37583   3.838  11.632  14.960
69243W        W37584   3.223  36.933   2.272
69244W        W37585  17.720  40.508   1.210
69245W        W37586  17.263  24.552   9.926
69246W        W37587  44.957  16.792  11.463
69247W        W37588  20.570   9.791  13.983
69248W        W37589  24.992  25.514  14.417
69249W        W37590  23.006  44.815   1.420
69250W        W37591  33.887   7.216  13.023
69251W        W37592  14.589  33.034  10.585
69252W        W37593   4.769  28.446   1.447
69253W        W37594  14.732  38.519   1.392
69254W        W37595  20.235  24.604   3.789
69255W        W37596  25.629  16.788   9.461
69256W        W37597  16.580  43.950   1.772
69257W        W37598  10.839  27.507  12.921
69258W        W37599  28.086  20.750  10.960
69259W        W37600   4.241  26.168  14.935
69260W        W37601   9.758  28.058   3.301
69261W        W37602   3.887  25.087  12.875
69262W        W37603  41.371  34.478  14.477
69263W        W37604   2.330  37.916   4.678
69264W        W37605  33.081   9.881   0.727
69265W        W37606   3.872  13.777  12.843
69266W        W37607  14.763  17.129   3.707
69267W        W37608  29.987  43.363  12.405
69268W        W37609  24.582  24.687   2.873
69269W        W37610  33.578  15.290  10.568
69270W        W37611  25.584  25.664  14.987
69271W        W37612  20.539  18.279   4.230
69272W        W37613  30.440  27.043  11.029
69273W        W37614   0.374  18.578  11.895
69274W        W37615  37.434  37.507   2.325
69275W        W37616  44.348  15.794   4.278
69276W        W37617   8.200  41.407   1.233
69277W        W37618  35.552  27.943   2.196
69278W        W37619  16.740  34.594   2.386
69279W        W37620  44.331  35.917  13.452
69280W        W37621  37.398   9.698  12.055
69281W        W37622   5.719  20.108  10.916
69282W        W37623  23.096  32.479  12.363
69283W        W37624  20.704  25.530   1.867
69284W        W37625  33.888  42.995   0.360
69285W        W37626   5.387  33.984   4.175
69286W        W37627  43.872  21.157  14.428
69287W        W37628  25.698  34.499  10.525
69288W        W37629   7.170   9.740   3.368
69289W        W37630  22.100  21.059   4.222
69290W        W37631  23.186  23.143  11.893
69291W        W37632   5.721  36.464   2.739
69292W        W37633   5.357   3.912   3.851
69293W        W37634  40.367  17.282  12.949
69294W        W37635  12.674   3.245   1.782
69295W        W37636   7.674  33.084   1.742
69296W        W37637  18.556  35.501   1.818
69297W        W37638  40.537  24.544   3.379
69298W        W37639  22.595  17.152  13.027
69299W        W37640  30.113  14.697  13.455
69300W        W37641  44.475  12.321   0.342
69301W        W37642  33.446  22.999  11.561
69302W        W37643  26.467  13.614   1.399
69303W        W37644   1.414  13.260  12.969
69304W        W37645  36.011  39.926   1.795
69305W        W37646   2.377  11.857  14.279
69306W        W37647   3.951  22.197   2.707
69307W        W37648  26.597  19.068   1.428
69308W        W37649  11.239  12.675  11.462
69309W        W37650  36.575   7.232   2.248
69310W        W37651  25.196  35.496  10.904
69311W        W37652   9.318  14.137   1.759
69312W        W37653  25.034  30.573  13.825
69313W        W37654   0.328   3.800   2.755
69314W        W37655   2.346  28.678  12.453
69315W        W37656  12.738   8.216   2.328
69316W        W37657  28.669  36.007  14.767
69317W        W37658  27.117  21.219   4.652
69318W        W37659   7.880  30.162  11.051
69319W        W37660   3.827  19.586  13.395
69320W        W37661  37.029  37.337  10.122
69321W        W37662  33.071   0.348  11.910
69322W        W37663   5.388  20.274   3.366
69323W        W37664   7.809   6.204  13.538
69324W        W37665  34.580  18.213   1.340
69325W        W37666  32.998  32.634  10.477
69326W        W37667   8.209   1.252   4.783
69327W        W37668   1.266  14.733  13.869
69328W        W37669  42.933  37.337   2.735
69329W        W37670  42.899   8.663  14.012
69330W        W37671  33.392  22.106   4.727
69331W        W37672  24.641  12.666  14.002
69332W        W37673  19.570  14.139  14.497
69333W        W37674  26.594   4.919   0.244
69334W        W37675  39.382  16.653  11.483
69335W        W37676  15.227  28.603  10.637
69336W        W37677  35.453  21.147  12.953
69337W        W37678   5.738  18.149   3.249
69338W        W37679   7.693   6.875   3.161
69339W        W37680  21.698  34.403   4.117
69340W        W37681  28.642   5.776   3.650
69341W        W37682   1.383   4.309   0.951
69342W        W37683  27.089  36.405  11.972
69343W        W37684   3.749   1.398  13.534
69344W        W37685  35.411   7.390   0.391
69345W        W37686  23.240  27.538   0.436
69346W        W37687   8.209  24.038   4.290
69347W        W37688  12.201  36.028  11.406
69348W        W37689   3.764  15.199   0.761
69349W        W37690  11.270  14.178  14.329
69350W        W37691  10.714  27.575   0.908
69351W        W37692  28.936  31.481  10.559
69352W        W37693  41.953  41.352  13.447
69353W        W37694   0.421   4.328  12.901
69354W        W37695  37.943  14.818   4.829
69355W        W37696  38.332  35.936   3.203
69356W        W37697  25.099  34.403   3.367
69357W        W37698   5.433  28.675   4.704
69358W        W37699  30.932  32.618   4.719
69359W        W37700  18.090  27.619  13.841
69360W        W37701   5.245  40.531   3.751
69361W        W37702  20.147  19.641  13.810
69362W        W37703  15.689  32.520  11.906
69363W        W37704  14.309  38.944   4.715
69364W        W37705  32.946  42.321  14.515
69365W        W37706   3.897   6.816  11.601
69366W        W37707  13.668   5.371  10.475
69367W        W37708  16.081  40.967  13.428
69368W        W37709  37.413  37.861  13.942
69369W        W37710  33.112  20.622   1.380
69370W        W37711  39.469  31.416  14.925
69371W        W37712  41.801  34.552   1.819
69372W        W37713  34.119  15.813  11.434
69373W        W37714  26.665  13.134  11.384
69374W        W37715  17.239  22.097  13.376
69375W        W37716  43.812  39.499  13.958
69376W        W37717  20.675   4.838   4.348
69377W        W37718  25.084  18.650  11.981
69378W        W37719   1.881  22.200   4.778
69379W        W37720  35.947   3.798   4.836
69380W        W37721  39.832  27.126   2.747
69381W        W37722  22.218  19.110  13.397
69382W        W37723  33.112  25.637   2.334
69383W        W37724  39.063  36.054   0.786
69384W        W37725  12.617  27.031   0.740
69385W        W37726  15.242  22.009  11.470
69386W        W37727  21.202  39.321   1.704
69387W        W37728  38.024   8.866  12.011
69388W        W37729  28.626  18.668   0.460
69389W        W37730  13.727  16.089   3.692
69390W        W37731   4.924  16.299  11.584
69391W        W37732  35.405   3.950   2.182
69392W        W37733  27.489  35.489   2.252
69393W        W37734  10.142  29.955  13.811
69394W        W37735  20.067   8.301   2.866
69395W        W37736  20.128   5.319   2.383
69396W        W37737   1.888  32.408   1.697
69397W        W37738  18.610  12.836  12.076
69398W        W37739   1.917  10.315  10.639
69399W        W37740  30.655  15.815   3.375
69400W        W37741   2.417  43.802   2.743
69401W        W37742  41.040  31.468   4.661
69402W        W37743   9.283  19.274   2.855
69403W        W37744   0.979  27.034   4.149
69404W        W37745   6.265  26.649   4.149
69405W        W37746   6.832  41.862  13.539
69406W        W37747   9.780   8.664  12.871
69407W        W37748  28.029  24.496  13.807
69408W        W37749  33.597  16.788  11.537
69409W        W37750  29.008   9.320   3.816
69410W        W37751  39.847  28.478   1.366
69411W        W37752  33.069  27.010   4.124
69412W        W37753   2.327   8.672   2.895
69413W        W37754  22.223  11.752  12.924
69414W        W37755  11.151  16.687   4.649
69415W        W37756  18.544   3.316  13.962
69416W        W37757  31.457   2.891   3.188
69417W        W37758  18.241  22.077   4.691
69418W        W37759  29.973  41.887   0.766
69419W        W37760  33.590   9.209   1.823
69420W        W37761   5.257  25.533  10.452
69421W        W37762   4.321   4.891  12.576
69422W        W37763   7.223  14.632   3.830
69423W        W37764  14.724  34.473   4.309
69424W        W37765  30.528  18.097   3.824
69425W        W37766  25.525  26.497   0.906
69426W        W37767  33.552  34.594   1.426
69427W        W37768  26.462  18.243  13.365
69428W        W37769  26.515  28.589   2.345
69429W        W37770  43.435   2.282  11.555
69430W        W37771  19.168   0.899   0.429
69431W        W37772   5.361  43.384   2.676
69432W        W37773  28.943   7.261   4.621
69433W        W37774  29.964  35.064   3.340
69434W        W37775  17.261  42.931   5.144
69435W        W37776   1.754  15.794   0.392
69436W        W37777  30.503   7.358  14.911
69437W        W37778   6.903  44.414  11.408
69438W        W37779  43.831  24.065  14.372
69439W        W37780  41.901   3.220  10.103
69440W        W37781   3.350  12.133   0.785
69441W        W37782   9.804  42.458  11.011
69442W        W37783  26.631  26.700   2.271
69443W        W37784  43.873  13.156   1.331
69444W        W37785  15.591  24.193   9.969
69445W        W37786  43.864  27.981   1.856
69446W        W37787  12.199  11.727   0.356
69447W        W37788  22.513  40.514   1.814
69448W        W37789  37.832  42.409  11.386
69449W        W37790  19.660  33.029  14.938
69450W        W37791  32.061  34.094  10.922
69451W        W37792  29.531  24.200   2.247
69452W        W37793   3.747  26.682  12.380
69453W        W37794   1.405  21.131   4.711
69454W        W37795  43.340  32.452   4.644
69455W        W37796  13.681  34.885   3.808
69456W        W37797  35.402   8.351  14.447
69457W        W37798  11.847   0.784   4.183
69458W        W37799  20.216  36.471  11.551
69459W        W37800  26.129  27.447  13.411
69460W        W37801  40.451  25.697  12.969
69461W        W37802  14.111  11.719   2.795
69462W        W37803  15.766   4.345  12.543
69463W        W37804  23.087   9.203   1.320
69464W        W37805  39.880  29.643   3.337
69465W        W37806  19.281   8.200   0.323
69466W        W37807  42.461  29.172  14.497
69467W        W37808   8.795  21.215   4.825
69468W        W37809  17.201   8.256   0.781
69469W        W37810  29.940  13.137  12.868
69470W        W37811  19.672   6.739   0.916
69471W        W37812  37.554  20.152   3.326
69472W        W37813  20.760  38.342  13.957
69473W        W37814  29.056  22.162  12.028
69474W        W37815  11.350  16.620  10.895
69475W        W37816   7.331  38.362  13.376
69476W        W37817  35.563  22.599   2.740
69477W        W37818  36.568  19.169  14.310
69478W        W37819   4.723  15.270  13.412
69479W        W37820  27.951   7.888  12.447
69480W        W37821   8.346  44.870   3.826
69481W        W37822  28.437   3.730  14.277
69482W        W37823  21.216   5.350  12.473
69483W        W37824  16.244   2.779   1.834
69484W        W37825  11.669  27.626  13.350
69485W        W37826   5.823  33.996   0.400
69486W        W37827  16.270  22.225   3.266
69487W        W37828  34.586  38.330  14.014
69488W        W37829  36.575  27.645   3.840
69489W        W37830  44.774  27.124   0.406
69490W        W37831  10.866  34.452   1.803
69491W        W37832  44.768  21.089   1.361
69492W        W37833  24.128   6.707   3.379
69493W        W37834  14.114  44.478   0.256
69494W        W37835  44.267   1.399  14.776
69495W        W37836  14.611  38.967  12.904
69496W        W37837  15.704  21.563   4.347
69497W        W37838  17.175   7.692  11.991
69498W        W37839  19.704  35.894  12.898
69499W        W37840  11.326  23.624   0.825
69500W        W37841  22.638  43.001   0.868
69501W        W37842  31.588  16.659  14.010
69502W        W37843   0.824  42.782   4.612
69503W        W37844   0.417  26.666   3.803
69504W        W37845  42.803   1.395  12.467
69505W        W37846   7.706   8.796  12.375
69506W        W37847  36.924  31.030  10.416
69507W        W37848  38.011   7.911   2.844
69508W        W37849  37.944  11.799   1.347
69509W        W37850  42.843   7.851  10.930
69510W        W37851   5.776  20.171  13.528
69511W        W37852  26.145  13.270  12.830
69512W        W37853  32.085  12.794   3.834
69513W        W37854   2.890  30.054  11.579
69514W        W37855  14.786   7.340   4.787
69515W        W37856   1.849  30.955   0.363
69516W        W37857  31.595  11.261   0.274
69517W        W37858  24.648  35.421  14.426
69518W        W37859  21.542  11.224   4.277
69519W        W37860   8.303  15.153   4.817
69520W        W37861  12.776  18.159  12.363
69521W        W37862  33.513   2.357  11.971
69522W        W37863  35.564  30.115  14.005
69523W        W37864  43.502  36.522   0.954
69524W        W37865   3.787   0.977  10.528
69525W        W37866  20.658  32.565   4.312
69526W        W37867   8.367   1.459  11.492
69527W        W37868   5.833  44.368  14.008
69528W        W37869   6.258  19.773   1.392
69529W        W37870  44.777  21.612   1.284
69530W        W37871  35.940   7.255   2.306
69531W        W37872   1.972  24.057   2.836
69532W        W37873   5.426  44.953   2.278
69533W        W37874  44.414   5.877  13.470
69534W        W37875  34.378  18.553  11.488
69535W        W37876  13.720  37.971   1.387
69536W        W37877  33.130  34.449   0.251
69537W        W37878  10.802  26.555   3.779
69538W        W37879   5.925  15.657  13.815
69539W        W37880  19.686  13.213  12.382
69540W        W37881  33.540  29.431  12.974
69541W        W37882   7.729  30.523  10.504
69542W        W37883  10.166  14.117  13.925
69543W        W37884   6.866  28.577   4.232
69544W        W37885   8.761  16.576   2.899
69545W        W37886   3.408  39.343   4.305
69546W        W37887  39.896  39.812  10.479
69547W        W37888  10.718  30.935   2.290
69548W        W37889  35.524  18.658   3.686
69549W        W37890  11.250   1.831  14.888
69550W        W37891  14.760  43.951   0.748
69551W        W37892  18.273  22.232  13.911
69552W        W37893  33.103  20.080   2.722
69553W        W37894  23.726  23.066   0.391
69554W        W37895  11.153  38.828  13.545
69555W        W37896   4.880   1.930  13.013
69556W        W37897  16.717   5.350  11.570
69557W        W37898  19.146  23.674   3.291
69558W        W37899  23.573  29.964   4.717
69559W        W37900  21.603  39.542  13.366
69560W        W37901  14.152   7.203   2.329
69561W        W37902  10.680  42.512  12.382
69562W        W37903   6.819   3.281  13.856
69563W        W37904  25.562  37.842  10.986
69564W        W37905  41.008  16.808   0.936
69565W        W37906   9.258  13.820  14.948
69566W        W37907  43.481  24.983   4.636
69567W        W37908  23.043   6.390   1.748
69568W        W37909  37.557   2.843  11.017
69569W        W37910   4.384  39.432  10.466
69570W        W37911  43.804  11.786   1.904
69571W        W37912  15.620  15.644   1.748
69572W        W37913  32.056   9.165   3.326
69573W        W37914   9.276  13.677  12.931
69574W        W37915  27.987  24.049   3.241
69575W        W37916   8.684  17.663   3.160
69576W        W37917  25.048  35.067   0.937
69577W        W37918  14.182  10.375  10.914
69578W        W37919   1.895   2.849  10.617
69579W        W37920  19.775  26.472  11.386
69580W        W37921  12.724   1.899   0.436
69581W        W37922  16.626  28.498   0.754
69582W        W37923  24.689  40.914   1.393
69583W        W37924  39.528   1.405  13.357
69584W        W37925   9.700  32.468   2.292
69585W        W37926  27.483   0.858   1.300
69586W        W37927  33.597   4.877  12.044
69587W        W37928  32.491  10.309   3.182
69588W        W37929   9.172  37.451   1.913
69589W        W37930  38.837  39.834   4.189
69590W        W37931  26.062  21.112  13.033
69591W        W37932  10.187   9.845  11.044
69592W        W37933  18.577  10.844   0.913
69593W        W37934  34.937  40.886  10.102
69594W        W37935  16.292  42.344   0.763
69595W        W37936  42.791  24.681   2.734
69596W        W37937  17.789  19.699  11.877
69597W        W37938  32.995  41.855  14.459
69598W        W37939  16.245  33.574  12.503
69599W        W37940  21.075  15.729   5.097
69600W        W37941  44.791   6.907   3.858
69601W        W37942   9.249   2.736   3.718
69602W        W37943  17.260  41.813  11.504
69603W        W37944  11.226  16.675  14.416
69604W        W37945  22.586   3.814  13.500
69605W        W37946   4.792  42.817   4.731
69606W        W37947  39.919  22.149   1.880
69607W        W37948   8.665  13.243   2.837
69608W        W37949  19.230  39.950   3.227
69609W        W37950   6.852  16.116   3.192
69610W        W37951   1.951   8.178  13.317
69611W        W37952  37.452  32.434   3.830
69612W        W37953  22.615   9.650  11.908
69613W        W37954  38.533  10.316   0.876
69614W        W37955  39.357   9.862  14.003
69615W        W37956   5.818  39.345  10.638
69616W        W37957  19.092  16.602  12.828
69617W        W37958   0.774  17.255  10.087
69618W        W37959  14.700  14.655   1.323
69619W        W37960  23.183  21.538  14.878
69620W        W37961  12.709  26.187   2.391
69621W        W37962   7.247   7.861   4.823
69622W        W37963  14.781  30.477   1.233
69623W        W37964  42.391   2.872  10.411
69624W        W37965  41.423   3.217   0.895
69625W        W37966  29.969  25.992  13.325
69626W        W37967  39.977  42.940  10.642
69627W        W37968  31.543   2.743  14.773
69628W        W37969  23.718  37.040  14.446
69629W        W37970   7.398  10.298  12.385
69630W        W37971   7.247  30.624  12.890
69631W        W37972  42.888  30.485   4.778
69632W        W37973  17.685  29.166  14.293
69633W        W37974  41.300  27.578  11.561
69634W        W37975   1.968   4.392   0.726
69635W        W37976  40.523  34.461  12.956
69636W        W37977  25.685   5.282  11.484
69637W        W37978  19.599   5.819   0.247
69638W        W37979   7.260  21.621   3.798
69639W        W37980  26.993  16.121   0.875
69640W        W37981  32.435  16.185   0.783
69641W        W37982   5.725  42.033   1.267
69642W        W37983  28.570  24.141  13.804
69643W        W37984  31.563  20.547  11.490
69644W        W37985  30.622  28.443   3.748
69645W        W37986  38.991  27.960   0.894
69646W        W37987  13.181  43.949  11.083
69647W        W37988  25.623  41.990  13.915
69648W        W37989  42.353  28.463  13.019
69649W        W37990  28.477  29.922   2.793
69650W        W37991  15.716  12.308  12.014
69651W        W37992   6.760  41.963   2.864
69652W        W37993  15.758  16.724   0.373
69653W        W37994  21.672  30.104   0.788
69654W        W37995   5.416  31.587  11.449
69655W        W37996   2.753  27.969  14.390
69656W        W37997  44.839  25.157   1.449
69657W        W37998  34.527   3.454  11.543
69658W        W37999  36.550  21.171  12.401
69659W        W38000  26.084  40.378   2.734
69660W        W38001  26.130  29.510  14.381
69661W        W38002  31.914   2.449  14.828
69662W        W38003   1.265  19.204  14.897
69663W        W38004  36.446   6.677  14.464
69664W        W38005  13.829  12.846  11.901
69665W        W38006  29.981   3.898  10.434
69666W        W38007  37.441   9.877   2.897
69667W        W38008  34.470  39.848  11.902
69668W        W38009  42.414  40.540   1.424
69669W        W38010   7.360  37.043  13.329
69670W        W38011  18.573   1.927  10.035
69671W        W38012  15.713  19.190  13.825
69672W        W38013   8.262   2.415   2.378
69673W        W38014   4.923  43.824   4.774
69674W        W38015  36.373  37.987   2.397
69675W        W38016  21.640   9.349   4.613
69676W        W38017  28.030   5.402   4.731
69677W        W38018  39.322  26.044   0.898
69678W        W38019  32.942   4.272   4.830
69679W        W38020  32.559  41.860   2.310
69680W        W38021  13.648  26.042   3.838
69681W        W38022  11.215  36.543   1.868
69682W        W38023   7.360  30.097  13.023
69683W        W38024   3.246  21.056  14.291
69684W        W38025  35.387  44.810  14.298
69685W        W38026   8.374  21.020   1.441
69686W        W38027  12.749  13.675   4.339
69687W        W38028  33.584   3.912  11.937
69688W        W38029   8.260   9.728   2.673
69689W        W38030  28.607  37.047   4.131
69690W        W38031  24.046  36.568  13.023
69691W        W38032  21.669  38.467   2.673
69692W        W38033  12.117  44.003  11.989
69693W        W38034  32.933  19.192   4.833
69694W        W38035  17.132  40.826  14.334
69695W        W38036  35.505   7.823  12.458
69696W        W38037  29.971  27.154  11.607
69697W        W38038  32.063  18.060  12.976
69698W        W38039  40.381  19.101   0.949
69699W        W38040  44.318  36.374   0.915
69700W        W38041  24.977  40.351   4.185
69701W        W38042  33.004   0.850   0.905
69702W        W38043  26.157  23.225   1.838
69703W        W38044   7.670  18.596   2.346
69704W        W38045  13.342   2.722   1.715
69705W        W38046   2.309   6.347  14.955
69706W        W38047  36.886  23.614   4.348
69707W        W38048  25.561  39.542   3.317
69708W        W38049  31.423   5.775   3.691
69709W        W38050  24.055  25.107   2.838
69710W        W38051  16.668  44.267   1.780
69711W        W38052   1.444  37.979   0.924
69712W        W38053  39.947   2.860  14.444
69713W        W38054  22.581  12.700   1.396
69714W        W38055   9.268  21.600  12.408
69715W        W38056  35.398   4.832  13.890
69716W        W38057  24.686  26.591   0.413
69717W        W38058  27.676  13.349  10.971
69718W        W38059  33.481  36.503  10.904
69719W        W38060   0.983   5.408   1.242
69720W        W38061   6.790  31.913   4.716
69721W        W38062  25.193  15.108  13.927
69722W        W38063  38.456  14.647  11.875
69723W        W38064  39.524  37.965  10.627
69724W        W38065   2.900  12.827   2.835
69725W        W38066  24.719  41.339   3.734
69726W        W38067  26.143  36.490  10.947
69727W        W38068   9.750  33.429  10.611
69728W        W38069   2.800  10.793  10.964
69729W        W38070   8.164  25.019  11.381
69730W        W38071  21.636  33.508   2.679
69731W        W38072   1.892  34.917   1.415
69732W        W38073  21.757  36.066   5.253
69733W        W38074  13.732  22.171   1.918
69734W        W38075  34.024  19.195  14.808
69735W        W38076  30.999  35.918  10.062
69736W        W38077  10.817   0.330   3.245
69737W        W38078   8.699   8.193   1.833
69738W        W38079   5.847  25.158   0.261
69739W        W38080  14.630  31.555   4.760
69740W        W38081   1.304  44.939  13.406
69741W        W38082  37.528  12.778  13.486
69742W        W38083  32.967  35.039  12.369
69743W        W38084  28.452   2.874   4.693
69744W        W38085  31.461   6.309   3.748
69745W        W38086   1.887   6.226   4.191
69746W        W38087  33.589   1.810   4.286
69747W        W38088  28.080  26.686  10.101
69748W        W38089   4.236  24.605  12.365
69749W        W38090   3.329   4.861  14.782
69750W        W38091  11.255   8.219  10.417
69751W        W38092  22.742  42.836   9.929
69752W        W38093  21.640  22.619   2.325
69753W        W38094  42.897  25.523   0.814
69754W        W38095  23.130   7.768   2.215
69755W        W38096  36.857  39.343  10.940
69756W        W38097   5.898  40.991   4.147
69757W        W38098  20.150   5.390  10.601
69758W        W38099  33.042  10.665   1.858
69759W        W38100  32.110  41.343   2.393
69760W        W38101   0.342  19.576  11.050
69761W        W38102  19.133  33.952  11.890
69762W        W38103  32.032  36.871   3.327
69763W        W38104  33.586   0.950   4.760
69764W        W38105   9.659  36.441  14.463
69765W        W38106  14.229  37.432  13.983
69766W        W38107   5.901  24.048  13.851
69767W        W38108   1.890   2.229   3.673
69768W        W38109  23.135  18.210   0.458
69769W        W38110  40.371   3.232  10.437
69770W        W38111   8.368  24.021  13.875
69771W        W38112  10.642  39.938   3.647
69772W        W38113  17.617   8.753   1.437
69773W        W38114  31.516  19.231   3.806
69774W        W38115  18.600  28.988  14.454
69775W        W38116  34.425  33.894   1.243
69776W        W38117  30.542  19.118  14.026
69777W        W38118  36.531   4.248  14.907
69778W        W38119  40.994  42.899   9.478
69779W        W38120  43.949  20.078   2.704
69780W        W38121  43.868  22.544  14.321
69781W        W38122   3.405  25.495   3.167
69782W        W38123  27.040  28.620   9.553
69783W        W38124  35.397  20.543  11.564
69784W        W38125   2.805  15.581   3.179
69785W        W38126  43.916   6.196  14.021
69786W        W38127  40.327   3.812   4.817
69787W        W38128  35.455  18.213  10.422
69788W        W38129  26.589   6.319   1.932
69789W        W38130  22.041  34.930  12.479
69790W        W38131   3.332   8.801   2.724
69791W        W38132   1.879   9.789   4.196
69792W        W38133  44.867  12.622   3.629
69793W        W38134  18.217  36.026   3.754
69794W        W38135  29.015  31.503  11.036
69795W        W38136  13.224  38.470   4.760
69796W        W38137  14.673  29.107  10.916
69797W        W38138  36.040  44.325  12.376
69798W        W38139   2.252   6.741  14.807
69799W        W38140   7.370   5.256  12.994
69800W        W38141   6.196  18.684   2.344
69801W        W38142  16.793   5.770  13.522
69802W        W38143  27.047   7.675  11.027
69803W        W38144  43.338  13.682   0.760
69804W        W38145  20.038  40.924  14.465
69805W        W38146  27.115  27.970  12.061
69806W        W38147   3.377  10.197   0.266
69807W        W38148  29.036  10.302   4.215
69808W        W38149  39.034  27.645  11.054
69809W        W38150  36.398   2.945   0.317
69810W        W38151  24.572  43.304  14.413
69811W        W38152  22.743  21.579   0.301
69812W        W38153  42.297   8.240   4.219
69813W        W38154  30.089   8.271   1.866
69814W        W38155  36.078   1.325   3.330
69815W        W38156  19.637  43.811  13.339
69816W        W38157  33.388  20.750   3.240
69817W        W38158  30.633  20.743  14.356
69818W        W38159  37.908  23.579  13.415
69819W        W38160  10.208  43.494   4.353
69820W        W38161  37.019  18.152  11.087
69821W        W38162  11.321  18.191  13.025
69822W        W38163  37.996  32.460   3.781
69823W        W38164   2.283  41.923   0.244
69824W        W38165  22.067  17.175  13.451
69825W        W38166  11.363   5.290  14.391
69826W        W38167   5.864  41.343  13.896
69827W        W38168  10.778   5.237  13.907
69828W        W38169  23.208  30.082  12.912
69829W        W38170  40.020  29.011   2.370
69830W        W38171  16.655   8.379   0.453
69831W        W38172  14.123  24.225   4.345
69832W        W38173  15.730  26.616  12.533
69833W        W38174  18.588  28.585   1.318
69834W        W38175  44.971  33.890   2.835
69835W        W38176  21.187  18.564  13.015
69836W        W38177   6.228  20.187   0.339
69837W        W38178   9.179   9.756  11.872
69838W        W38179   8.293  42.927   0.930
69839W        W38180   6.809  30.657  13.499
69840W        W38181  39.006   3.335   3.799
69841W        W38182  19.208   9.699   0.870
69842W        W38183  25.196  10.844   4.649
69843W        W38184  39.972  12.813  10.502
69844W        W38185   1.751  43.009  14.432
69845W        W38186  32.915   5.288  13.319
69846W        W38187   1.785  38.522  10.492
69847W        W38188  32.601  38.340  14.935
69848W        W38189  32.487  15.228  10.560
69849W        W38190  38.441  20.263  13.468
69850W        W38191   0.411  22.220  14.820
69851W        W38192  33.969  44.806  14.021
69852W        W38193  15.757  42.442   4.334
69853W        W38194  44.767  29.126  11.904
69854W        W38195   1.455  14.686   1.294
69855W        W38196  15.713  15.822   2.796
69856W        W38197  15.126   5.861  12.995
69857W        W38198  23.068  16.093   4.324
69858W        W38199   9.815  11.773   0.366
69859W        W38200  39.393  23.656   0.267
69860W        W38201  26.660  25.495  13.525
69861W        W38202  30.943  34.868   2.769
69862W        W38203   6.865  37.977   1.780
69863W        W38204   5.754   1.397   2.378
69864W        W38205  23.620  11.341  13.932
69865W        W38206  28.185  17.678   3.159
69866W        W38207   8.232  18.217  13.974
69867W        W38208   1.418  36.983   3.656
69868W        W38209  19.174  18.153  13.991
69869W        W38210  22.163   5.328   1.355
69870W        W38211  24.522  28.455   1.744
69871W        W38212  35.434  36.426   2.411
69872W        W38213  11.242   2.926  11.027
69873W        W38214  19.669  10.355  13.449
69874W        W38215  19.208  15.751  14.928
69875W        W38216   4.235   8.236  11.591
69876W        W38217  34.950  11.237  14.427
69877W        W38218  23.143  17.120   3.236
69878W        W38219  38.422  15.294   1.918
69879W        W38220   6.919  35.088   4.710
69880W        W38221  36.587  31.935   2.874
69881W        W38222  31.044  21.636   0.749
69882W        W38223  35.092  34.386   4.241
69883W        W38224  30.612   8.695   1.752
69884W        W38225  30.525  13.111   2.776
69885W        W38226   7.203  15.818  12.895
69886W        W38227  41.925  17.593  12.839
69887W        W38228  17.689  14.262  11.545
69888W        W38229   9.691  44.807   3.712
69889W        W38230  14.105  34.999  12.062
69890W        W38231  41.376   9.200   1.369
69891W        W38232  31.076   5.699   4.207
69892W        W38233   7.672   0.274  10.550
69893W        W38234  38.537  16.086   1.707
69894W        W38235  16.173  31.468   5.205
69895W        W38236  24.671   9.355   2.667
69896W        W38237   2.798  12.241  14.332
69897W        W38238  34.962   5.427   0.763
69898W        W38239  25.477  25.119   2.846
69899W        W38240  13.161  28.478  11.558
69900W        W38241  27.967  21.154  14.507
69901W        W38242  35.033  33.885  12.559
69902W        W38243  15.605   3.458  13.944
69903W        W38244  25.691  37.464   0.750
69904W        W38245  17.794   4.394  13.027
69905W        W38246  33.520  11.337  12.494
69906W        W38247  40.391  42.417   0.795
69907W        W38248   8.396  39.549   4.276
69908W        W38249  34.520   7.193   4.252
69909W        W38250  22.085   8.208  14.924
69910W        W38251   7.831   5.815   0.391
69911W        W38252  35.024   5.210   4.665
69912W        W38253  41.433   9.860   2.197
69913W        W38254  40.352   9.736   4.152
69914W        W38255  41.840   0.932   3.694
69915W        W38256  38.882  34.903   5.232
69916W        W38257   4.791   7.300   4.127
69917W        W38258   9.856  42.327  14.761
69918W        W38259  21.677  23.012   0.844
69919W        W38260  10.370  14.098  10.431
69920W        W38261  11.364  14.105   0.373
69921W        W38262  17.284   9.767   2.240
69922W        W38263  25.645   6.324  12.371
69923W        W38264   6.718  43.474  10.621
69924W        W38265   0.956  23.063  13.424
69925W        W38266  41.456  25.980   3.371
69926W        W38267  38.939  43.283   4.776
69927W        W38268  38.539   2.848  13.447
69928W        W38269  31.600  40.420  10.131
69929W        W38270   2.331  30.461   2.260
69930W        W38271  29.607  21.567  14.859
69931W        W38272  40.335  25.102   2.284
69932W        W38273  37.552  42.005   4.266
69933W        W38274   6.242  34.931   0.770
69934W        W38275  30.420  18.270  11.095
69935W        W38276  40.890   8.395   1.864
69936W        W38277  18.226  41.326  12.388
69937W        W38278  44.994  25.074   2.851
69938W        W38279  18.154  36.881   0.350
69939W        W38280  31.627   9.317  13.488
69940W        W38281  26.987  12.677  14.802
69941W        W38282  38.388  15.788  12.830
69942W        W38283  32.057  14.236   1.265
69943W        W38284  30.066  34.090   2.690
69944W        W38285  28.983  25.152  12.546
69945W        W38286  40.369  15.736   4.293
69946W        W38287  20.254   1.316  12.504
69947W        W38288  27.989  31.040  10.971
69948W        W38289   4.760  25.476   4.186
69949W        W38290  39.903  14.699  11.505
69950W        W38291   6.681  36.894  13.441
69951W        W38292  29.077  17.597  11.939
69952W        W38293  19.234  14.097   1.359
69953W        W38294  44.305  12.686   1.307
69954W        W38295  20.691  43.770  14.884
69955W        W38296  23.232  28.600   1.913
69956W        W38297  15.600  37.412   2.224
69957W        W38298  11.750   4.325   1.752
69958W        W38299  19.555   3.948   4.712
69959W        W38300  11.816  40.999  10.097
69960W        W38301  36.093  33.056  13.517
69961W        W38302  15.793   9.370   4.637
69962W        W38303  42.917  27.052  14.441
69963W        W38304   0.419  14.330  12.845
69964W        W38305  12.232  22.094   3.781
69965W        W38306  26.137  29.552  13.988
69966W        W38307   6.345  30.142   4.155
69967W        W38308   6.196   5.814   4.650
69968W        W38309  36.508  39.023  12.437
69969W        W38310   4.876   0.441  10.918
69970W        W38311   0.397   4.424   3.859
69971W        W38312  13.706  28.434  12.968
69972W        W38313  27.078  10.863   4.746
69973W        W38314  35.539   7.889   3.340
69974W        W38315  38.368  17.801   1.242
69975W        W38316  32.504   9.834  13.034
69976W        W38317  21.240  15.746  14.781
69977W        W38318  10.164   8.720   9.927
69978W        W38319  25.629  14.329  12.532
69979W        W38320  10.751  14.608   3.760
69980W        W38321  31.116  21.018  13.363
69981W        W38322   1.771   2.300   4.262
69982W        W38323  40.892  19.625  13.404
69983W        W38324  13.634  10.172   4.179
69984W        W38325  19.166   7.850  12.555
69985W        W38326  10.182  23.115  10.418
69986W        W38327   9.745  31.626  11.576
69987W        W38328   6.342  32.980  14.437
69988W        W38329  11.659  39.921  10.587
69989W        W38330  24.503  43.338  10.551
69990W        W38331  17.111  10.780  13.929
69991W        W38332  27.691  10.830   2.864
69992W        W38333  28.476  22.111  13.340
69993W        W38334   9.859   9.838  10.019
69994W        W38335  29.505  36.519  13.469
69995W        W38336   9.195  32.079   1.884
69996W        W38337  16.708  19.192  10.556
69997W        W38338  25.045  39.815   0.292
69998W        W38339  14.294  31.049   0.747
69999W        W38340  44.302  30.085  10.932
70000W        W38341  24.186  35.997  13.546
70001W        W38342  33.035   1.463   0.364
70002W        W38343  22.537  17.622   4.822
70003W        W38344  23.113  31.591   1.418
70004W        W38345  36.003   3.857  12.346
70005W        W38346  13.762  41.019   3.805
70006W        W38347  16.313  44.500  14.507
70007W        W38348  16.252  20.066   3.722
70008W        W38349  18.225  17.191   0.445
70009W        W38350  42.939  20.731  11.426
70010W        W38351  42.461  19.675   4.329
70011W        W38352   5.802  43.819   2.700
70012W        W38353  39.001  28.444   3.377
70013W        W38354  22.113   9.390  11.434
70014W        W38355  40.477   6.330   2.237
70015W        W38356  36.862  20.198   1.221
70016W        W38357  32.498  32.575  14.785
70017W        W38358  33.874  12.671   2.745
70018W        W38359  30.497  28.443   4.140
70019W        W38360  29.443  14.616   4.343
70020W        W38361  16.291  31.639   4.692
70021W        W38362  16.210  24.567  10.938
70022W        W38363  20.189  30.108   4.739
70023W        W38364   4.911   6.848  10.438
70024W        W38365   5.823  40.502   3.313
70025W        W38366  33.910  31.516   3.268
70026W        W38367   5.240  30.995   3.689
70027W        W38368   3.215  13.338   3.364
70028W        W38369  28.658   4.755   2.363
70029W        W38370  39.510   0.249   4.263
70030W        W38371  34.036  42.470   4.723
70031W        W38372  19.129  36.929   1.771
70032W        W38373  25.190  43.987  13.348
70033W        W38374  37.563  44.467   4.656
70034W        W38375  10.312  13.200  10.552
70035W        W38376  39.393   4.213   1.875
70036W        W38377   8.841  10.697  13.543
70037W        W38378   5.254  15.260   2.716
70038W        W38379  10.329  36.983   2.230
70039W        W38380   5.717  23.601   3.308
70040W        W38381  13.630  21.607  13.836
70041W        W38382  22.021  44.754  14.809
70042W        W38383  16.218  36.382  12.950
70043W        W38384  11.660  35.950   2.379
70044W        W38385  15.736  18.240  10.552
70045W        W38386  13.205   3.942  11.494
70046W        W38387  10.249  11.732   3.692
70047W        W38388  15.822   3.346  13.462
70048W        W38389  21.594  30.603  12.019
70049W        W38390  44.301  13.723  12.344
70050W        W38391   7.707  29.546   4.179
70051W        W38392  12.801   2.297   0.482
70052W        W38393  33.535   7.184  10.955
70053W        W38394  35.865  26.650   2.761
70054W        W38395  16.585  33.418  10.084
70055W        W38396   7.803  11.802  12.876
70056W        W38397  18.568   7.726  14.497
70057W        W38398  31.054  37.521  11.010
70058W        W38399  28.184  27.638   3.340
70059W        W38400  21.033  36.506   3.676
70060W        W38401  35.939  31.021   0.433
70061W        W38402  13.806  32.908   2.713
70062W        W38403  18.558  40.798  14.770
70063W        W38404   9.261  35.456   0.430
70064W        W38405  36.477  33.437   3.242
70065W        W38406  31.499  20.149   0.379
70066W        W38407  23.598  35.917   0.345
70067W        W38408  31.026  37.897  14.424
70068W        W38409   9.367   0.913  12.836
70069W        W38410  38.371  19.764  13.403
70070W        W38411  28.510  32.075   3.669
70071W        W38412  44.333   5.705   4.176
70072W        W38413   9.679  15.321  14.423
70073W        W38414   5.373  39.999   2.771
70074W        W38415  11.735   2.864  11.959
70075W        W38416  14.804   8.193  13.378
70076W        W38417  12.249   8.228   0.283
70077W        W38418   2.234   2.770  11.425
70078W        W38419  27.654   8.260   3.200
70079W        W38420   6.397   7.676   2.316
70080W        W38421  37.955  14.611  12.552
70081W        W38422  19.747  16.681  13.449
70082W        W38423  20.099  21.536  14.957
70083W        W38424  38.375  34.384   2.771
70084W        W38425   9.301  34.419   3.322
70085W        W38426   9.154   6.287   3.240
70086W        W38427  32.038   1.778  13.036
70087W        W38428  22.728   7.182  12.894
70088W        W38429   7.201  21.173  10.587
70089W        W38430   4.724   5.797   3.781
70090W        W38431   0.356  37.503  12.998
70091W        W38432  16.575  19.273   0.322
70092W        W38433  24.604  13.318  14.963
70093W        W38434  21.731  39.415   1.859
70094W        W38435  18.567  27.954  10.071
70095W        W38436  36.868  25.116   2.226
70096W        W38437  39.440  23.007  11.052
70097W        W38438   1.749   4.399  14.763
70098W        W38439   7.791  30.105   2.776
70099W        W38440  35.370  25.194   4.300
70100W        W38441  11.193  18.169  12.457
70101W        W38442  20.086  25.702   3.837
70102W        W38443  26.579  43.406  13.330
70103W        W38444   3.724  33.029  11.040
70104W        W38445   2.857  19.215   5.749
70105W        W38446   9.698  27.983  12.516
70106W        W38447  22.179  30.514  14.984
70107W        W38448  30.524  35.553   3.368
70108W        W38449   8.213   2.460   3.831
70109W        W38450  15.795  17.099  13.317
70110W        W38451   6.300  27.003  14.286
70111W        W38452  14.153   7.877   1.716
70112W        W38453  42.306  25.028   3.286
70113W        W38454  14.720  31.531  13.490
70114W        W38455   2.252  22.250  13.034
70115W        W38456  15.785  42.498   1.236
70116W        W38457  26.000  20.095   0.363
70117W        W38458  37.492  17.776   0.880
70118W        W38459  44.851  35.018  12.493
70119W        W38460  22.652   4.301   0.372
70120W        W38461  29.934   4.414   1.762
70121W        W38462  44.401  30.606   0.445
70122W        W38463  43.315  12.687  12.367
70123W        W38464  15.645   0.854   0.850
70124W        W38465  19.629   4.438   2.884
70125W        W38466  15.684  42.295   2.244
70126W        W38467  42.933   1.240   1.249
70127W        W38468  43.835  22.084   4.238
70128W        W38469  38.565  39.906  14.374
70129W        W38470  36.458  43.987  12.461
70130W        W38471   5.413  39.475  10.432
70131W        W38472  20.211  30.951   2.315
70132W        W38473  25.973   6.184  12.887
70133W        W38474  26.955  20.061  14.421
70134W        W38475  16.179  39.841  12.558
70135W        W38476  39.378  17.116   3.235
70136W        W38477   6.294  28.572   2.803
70137W        W38478  42.887   6.896  13.942
70138W        W38479  43.516   4.295  13.396
70139W        W38480  39.479   2.266   1.758
70140W        W38481  20.738  38.842  14.887
70141W        W38482  24.195  22.507  12.982
70142W        W38483  26.065   3.813  10.438
70143W        W38484   6.222  31.931  10.083
70144W        W38485  18.090  37.526  11.988
70145W        W38486   5.199  20.201  11.484
70146W        W38487  28.653  22.525   2.721
70147W        W38488  28.666  38.454   2.806
70148W        W38489  17.240  43.942  11.397
70149W        W38490   3.281  12.327   0.366
70150W        W38491  20.566   2.410   2.791
70151W        W38492  36.360  32.065  14.875
70152W        W38493   8.797  44.011  13.381
70153W        W38494   6.731   1.808  12.077
70154W        W38495  36.081  35.996  11.983
70155W        W38496  35.434  19.765   1.935
70156W        W38497  21.142   8.740   4.781
70157W        W38498  38.899   6.211   3.214
70158W        W38499  26.544  44.925   0.938
70159W        W38500  26.683  44.954   3.341
70160W        W38501  14.744  34.016   1.777
70161W        W38502  41.987  14.319  10.405
70162W        W38503  40.999  23.165   1.366
70163W        W38504   4.400  34.391   3.153
70164W        W38505  16.672  37.048   4.613
70165W        W38506  38.514  43.401   1.380
70166W        W38507  44.392  29.127   4.202
70167W        W38508  14.810  10.361   0.450
70168W        W38509  17.747   6.736   2.221
70169W        W38510   0.443  44.447   2.258
70170W        W38511  17.745   9.232  13.382
70171W        W38512  23.095  21.184  11.937
70172W        W38513  32.128  36.461   0.828
70173W        W38514  27.047   0.791  12.961
70174W        W38515   0.833  11.809  12.094
70175W        W38516  32.405  39.053  12.898
70176W        W38517  43.464  41.863  10.411
70177W        W38518   5.204  24.597   0.767
70178W        W38519  14.757  38.895   2.781
70179W        W38520  29.537  18.648  12.862
70180W        W38521  38.034  36.073  13.951
70181W        W38522   5.395  29.130  12.039
70182W        W38523  30.075  21.651  11.573
70183W        W38524  42.944  13.599  14.947
70184W        W38525  41.393   8.334  11.468
70185W        W38526  31.097  21.592  13.517
70186W        W38527  33.915   3.344  12.527
70187W        W38528   5.399  11.308  13.491
70188W        W38529  35.406  21.597   3.176
70189W        W38530   1.366  20.104   1.401
70190W        W38531  25.174   5.398   3.815
70191W        W38532  39.383  25.962  12.481
70192W        W38533  21.196  39.878  14.775
70193W        W38534  15.718  35.909  10.578
70194W        W38535  30.548  27.633  14.957
70195W        W38536   2.813   2.381  14.972
70196W        W38537  36.861  38.889  14.850
70197W        W38538  34.046  34.489  12.903
70198W        W38539  40.419  36.063   1.819
70199W        W38540  39.920  20.135  12.047
70200W        W38541  30.474  26.147   3.161
70201W        W38542  24.045   6.291   4.745
70202W        W38543  18.057  30.115  13.500
70203W        W38544  39.437  24.005   3.751
70204W        W38545  44.842  17.610   3.163
70205W        W38546   5.220  38.443   0.395
70206W        W38547  13.633   0.386   3.147
70207W        W38548  12.348  42.898   4.788
70208W        W38549  39.906   0.453  14.479
70209W        W38550   1.386   4.799   0.916
70210W        W38551  21.513  21.684   2.831
70211W        W38552  31.476  12.776  12.015
70212W        W38553   0.830  35.895   3.856
70213W        W38554  43.490   4.901  13.502
70214W        W38555  17.768  19.554   2.235
70215W        W38556  26.104  38.355  13.920
70216W        W38557  32.414   3.344   4.198
70217W        W38558  13.245  44.346  14.978
70218W        W38559  10.208  26.496  12.088
70219W        W38560  41.293  32.071  10.578
70220W        W38561   0.320  36.564   1.716
70221W        W38562  10.681  41.391  10.538
70222W        W38563  28.048  21.721  14.439
70223W        W38564  22.559  20.216   4.663
70224W        W38565   3.350   6.337  11.977
70225W        W38566   2.425  34.936  10.907
70226W        W38567  28.639  27.519   4.764
70227W        W38568  30.468  39.538   3.147
70228W        W38569  24.707  18.068   3.223
70229W        W38570  31.567  26.699   1.907
70230W        W38571  34.868  15.156  13.999
70231W        W38572  42.442  44.827   1.392
70232W        W38573  19.547  20.530   3.369
70233W        W38574   9.247  38.827   3.828
70234W        W38575   3.430   6.702   4.670
70235W        W38576  27.973  40.333   4.250
70236W        W38577   3.941  26.698   3.796
70237W        W38578   5.436  20.719  10.907
70238W        W38579  11.223  17.576  12.367
70239W        W38580   7.356  20.199  13.865
70240W        W38581  35.891  10.808  13.950
70241W        W38582  24.096  41.035  10.527
70242W        W38583  28.474  24.658   1.228
70243W        W38584   5.883  32.470  13.449
70244W        W38585  31.096   0.287   2.884
70245W        W38586  23.514  29.430  14.438
70246W        W38587  40.373  16.770  14.353
70247W        W38588  15.257  44.384  12.978
70248W        W38589  14.337  13.285   4.827
70249W        W38590   7.798  26.670   3.686
70250W        W38591  17.568  16.726   4.113
70251W        W38592  21.156  32.941   2.218
70252W        W38593  42.926  23.152   4.640
70253W        W38594   8.752  16.264   2.294
70254W        W38595  21.164   9.795  13.446
70255W        W38596  36.060  12.347  14.458
70256W        W38597   3.798   4.356  12.580
70257W        W38598  28.007   1.469  12.503
70258W        W38599  16.237  30.082   4.253
70259W        W38600  18.785  27.957  10.440
70260W        W38601  40.540   3.777   2.722
70261W        W38602  38.458  27.658   0.463
70262W        W38603  12.187  21.589  11.989
70263W        W38604  19.214  34.062  10.505
70264W        W38605  32.625  33.011   2.392
70265W        W38606  10.327  15.173  10.967
70266W        W38607   8.766  38.365   2.797
70267W        W38608  23.520   1.380   2.667
70268W        W38609  20.540   8.855  10.477
70269W        W38610  42.407   1.852   3.229
70270W        W38611  34.507  36.571  11.376
70271W        W38612   5.320  17.127   0.402
70272W        W38613   9.353  11.651   1.361
70273W        W38614  18.280  43.972   1.708
70274W        W38615   6.837   9.210  14.436
70275W        W38616  34.896  29.159   4.838
70276W        W38617  13.828  36.485   3.155
70277W        W38618  15.785  26.576   1.698
70278W        W38619  14.326   1.834  13.812
70279W        W38620  33.989  26.701  13.396
70280W        W38621  31.103  20.041   0.848
70281W        W38622   9.651  25.578   4.260
70282W        W38623   7.174  35.446   1.788
70283W        W38624  33.082  36.929  11.998
70284W        W38625  29.037  37.061  14.007
70285W        W38626  36.419   8.701  11.440
70286W        W38627  34.614  35.372   0.741
70287W        W38628  32.630  14.147   2.194
70288W        W38629   3.920  31.593   2.323
70289W        W38630  36.541  33.956  10.942
70290W        W38631  42.831  23.148  10.484
70291W        W38632  43.269  41.330  11.916
70292W        W38633  40.875  21.632  13.994
70293W        W38634  17.697  10.270  14.285
70294W        W38635   4.729  28.965  14.336
70295W        W38636  30.095  31.518  12.015
70296W        W38637  11.848  34.015  10.960
70297W        W38638  11.140  27.687  14.791
70298W        W38639   3.752  13.619   1.400
70299W        W38640  22.713  39.045  14.309
70300W        W38641  23.509  18.256   2.693
70301W        W38642   3.232   8.694  14.027
70302W        W38643   9.754  38.515  12.986
70303W        W38644  43.363  24.578   4.269
70304W        W38645  16.107  44.843  14.393
70305W        W38646  23.000  37.445   3.802
70306W        W38647  26.634  28.944   9.578
70307W        W38648  20.549   1.245  11.474
70308W        W38649  25.042  23.566   0.335
70309W        W38650  20.681  44.347  12.346
70310W        W38651   9.186  32.886   0.331
70311W        W38652  14.329  33.128   0.774
70312W        W38653  14.314  34.905  12.465
70313W        W38654  11.318  24.116   4.225
70314W        W38655  12.339  42.511  13.368
70315W        W38656  19.540  36.408   2.803
70316W        W38657   7.304   0.821  10.496
70317W        W38658  30.032   7.298   2.227
70318W        W38659  32.534  44.984   2.253
70319W        W38660  26.559   8.656   1.280
70320W        W38661  41.473  23.612   4.605
70321W        W38662  19.710   9.334  14.395
70322W        W38663  14.796  19.651   1.217
70323W        W38664  27.975   7.263  13.315
70324W        W38665  10.773  22.671  11.060
70325W        W38666  14.262  24.524  11.592
70326W        W38667  38.958   7.821   2.670
70327W        W38668  20.060  14.289   1.383
70328W        W38669  19.284   7.897  14.859
70329W        W38670  35.941   8.836  14.352
70330W        W38671  10.785   2.387  10.895
70331W        W38672  19.161  32.086   0.919
70332W        W38673  28.035  11.214  11.589
70333W        W38674   9.751   9.646   3.748
70334W        W38675  10.288   6.740  10.982
70335W        W38676  41.842  17.639  10.960
70336W        W38677  40.438   5.315  13.489
70337W        W38678  26.108  36.578  12.007
70338W        W38679  42.427  23.719  14.895
70339W        W38680  20.061  38.004  11.082
70340W        W38681  18.249  29.112   3.856
70341W        W38682   3.936  23.242  14.790
70342W        W38683   6.419  41.866   2.339
70343W        W38684   4.846  23.598   3.330
70344W        W38685   7.715  10.361  11.967
70345W        W38686  44.282  27.181  14.334
70346W        W38687   4.261   1.896   3.344
70347W        W38688   0.457  25.021  12.445
70348W        W38689  32.432   0.273  13.860
70349W        W38690  25.980   1.240   2.878
70350W        W38691  26.056  29.612   0.864
70351W        W38692  31.054  15.133   1.829
70352W        W38693   1.357  40.029  12.054
70353W        W38694  29.024  26.664  14.481
70354W        W38695  39.827  17.558   3.849
70355W        W38696  26.655  43.910   0.265
70356W        W38697  43.341  28.598  14.025
70357W        W38698  13.821   8.740  10.571
70358W        W38699  15.640   9.810  11.507
70359W        W38700  34.456  11.704  13.053
70360W        W38701  35.081  34.026   2.185
70361W        W38702   9.174   2.927  12.061
70362W        W38703  18.171  34.119   9.507
70363W        W38704  16.099  16.086  13.448
70364W        W38705  21.583  23.592   4.790
70365W        W38706  17.693  11.649  14.429
70366W        W38707  37.012  17.669  10.923
70367W        W38708  12.299   0.417  10.562
70368W        W38709  32.404  32.598  14.374
70369W        W38710  17.223  14.659  10.446
70370W        W38711  21.050  33.968  11.967
70371W        W38712  10.242  20.118   2.194
70372W        W38713   0.357  10.732  12.458
70373W        W38714  36.407  35.520  13.310
70374W        W38715   1.769  27.969  11.902
70375W        W38716  42.923  42.856   0.461
70376W        W38717  18.136   0.327  14.781
70377W        W38718  36.070  21.258  12.380
70378W        W38719   4.409  29.121   3.740
70379W        W38720  10.690  23.531  14.874
70380W        W38721  29.095  13.637  11.586
70381W        W38722   0.988  22.707  10.010
70382W        W38723   8.267  31.586   4.663
70383W        W38724  42.487  24.621  13.019
70384W        W38725  20.690  40.913  14.905
70385W        W38726   7.409  38.856   4.835
70386W        W38727  10.752  19.621  12.451
70387W        W38728   5.216   9.344   3.157
70388W        W38729  31.962  43.975   2.770
70389W        W38730   6.247  21.187   0.343
70390W        W38731  38.367   0.970   3.816
70391W        W38732   3.385  32.056   1.426
70392W        W38733   9.661  39.405  13.835
70393W        W38734   3.910  34.893  10.062
70394W        W38735  38.345  21.101  11.550
70395W        W38736  34.534  42.936  14.028
70396W        W38737  14.605  26.693  14.029
70397W        W38738  26.666  40.354   3.841
70398W        W38739   9.688  30.947  11.091
70399W        W38740  33.408  21.168  14.429
70400W        W38741   8.255  24.596  11.077
70401W        W38742  19.576  22.049   2.869
70402W        W38743  18.574   8.264  10.901
70403W        W38744  15.228   4.877  11.528
70404W        W38745   5.286  13.772   1.799
70405W        W38746  17.612  10.350   1.299
70406W        W38747   2.404  25.626   3.324
70407W        W38748   7.255  23.008  12.860
70408W        W38749   4.380   4.791   0.732
70409W        W38750  22.169  26.682   3.257
70410W        W38751  15.623   1.754   0.269
70411W        W38752  17.772  33.515   0.859
70412W        W38753  16.223   9.295   4.665
70413W        W38754  44.932  44.294   3.773
70414W        W38755  11.183  16.105   4.646
70415W        W38756  39.025  40.887   0.749
70416W        W38757   0.847  41.323  11.469
70417W        W38758  40.364  42.001  14.382
70418W        W38759  37.556  12.306   3.219
70419W        W38760  44.412   4.764  13.965
70420W        W38761  16.186   1.406   4.298
70421W        W38762  33.614  40.047  13.841
70422W        W38763  30.620  22.554   5.199
70423W        W38764  11.324  18.645   3.705
70424W        W38765  37.397  43.934  12.056
70425W        W38766   2.445  32.422   1.359
70426W        W38767  39.515  31.899  12.988
70427W        W38768  35.992   6.910   0.887
70428W        W38769  44.372   8.853   3.236
70429W        W38770  20.032   8.745  11.410
70430W        W38771   3.436  21.566  10.470
70431W        W38772  32.953  32.994   4.705
70432W        W38773   7.705   5.313   0.774
70433W        W38774  28.967  38.548   4.151
70434W        W38775  12.738   7.862  11.067
70435W        W38776  30.084   2.881  13.802
70436W        W38777  33.056  10.770   0.912
70437W        W38778  21.242  12.753   1.831
70438W        W38779   7.243  39.008   2.834
70439W        W38780  37.917  24.571  14.473
70440W        W38781  34.054  41.888   3.354
70441W        W38782  38.542  41.993  13.335
70442W        W38783  38.959   9.227   4.263
70443W        W38784  27.514  28.610  11.904
70444W        W38785  16.639  24.550   9.923
70445W        W38786  33.905  40.878   2.293
70446W        W38787   8.870  37.522   0.879
70447W        W38788  23.635  28.668   4.786
70448W        W38789  10.272  31.512   1.696
70449W        W38790  12.323  15.099   0.378
70450W        W38791  40.488  10.779   1.751
70451W        W38792  28.975   3.946   2.229
70452W        W38793  31.917  40.343   0.432
70453W        W38794   3.728  31.550  14.977
70454W        W38795  30.119   0.969  11.932
70455W        W38796  33.940  26.126  10.616
70456W        W38797  26.589  37.909   1.385
70457W        W38798  39.401   8.160  13.920
70458W        W38799  43.347   9.767  13.385
70459W        W38800  35.891  31.025  13.418
70460W        W38801  18.220  44.462  10.950
70461W        W38802  16.246  15.253   2.713
70462W        W38803   4.231   5.704   2.382
70463W        W38804  13.691  33.109  13.517
70464W        W38805   4.377  43.485  11.542
70465W        W38806  17.210   0.330   0.434
70466W        W38807  38.052  20.741   0.435
70467W        W38808  15.735   1.404   4.774
70468W        W38809  24.061  40.343  10.927
70469W        W38810  28.135  27.056   3.245
70470W        W38811  16.140  20.095   2.214
70471W        W38812  14.160   3.270   2.851
70472W        W38813  20.641   0.945  10.948
70473W        W38814  23.579  16.568   5.804
70474W        W38815  42.422  21.241   1.859
70475W        W38816   6.285  22.216   0.787
70476W        W38817  35.427   0.881   0.907
70477W        W38818  42.032  22.225   1.697
70478W        W38819  41.470   5.367  10.921
70479W        W38820  42.368  24.211   3.716
70480W        W38821  16.711  15.220  13.892
70481W        W38822   6.885  38.046  11.416
70482W        W38823   5.802  40.466   0.765
70483W        W38824  23.534  21.645  11.453
70484W        W38825  39.448  26.111   0.307
70485W        W38826   8.836  12.239  11.039
70486W        W38827  24.022   0.380   4.612
70487W        W38828  11.862   3.398  10.596
70488W        W38829  31.601   3.722   2.666
70489W        W38830  30.441   3.779   3.744
70490W        W38831   6.878  27.677  11.587
70491W        W38832  29.969   7.686  11.980
70492W        W38833  30.932  38.421   3.161
70493W        W38834  43.360   7.855  14.439
70494W        W38835  18.748   4.715  10.956
70495W        W38836  35.091  41.389   4.788
70496W        W38837  41.415  27.001   4.308
70497W        W38838   8.822  38.821   2.803
70498W        W38839  27.603   4.236   0.844
70499W        W38840  34.404   2.398   3.171
70500W        W38841   3.814  20.587   0.933
70501W        W38842  18.257   5.290  10.615
70502W        W38843   0.835  12.132   0.413
70503W        W38844  28.546  32.130  11.413
70504W        W38845  37.577  28.445  11.909
70505W        W38846  39.033  35.971  10.136
70506W        W38847   7.345   3.855   2.884
70507W        W38848  15.233  44.285  11.040
70508W        W38849   3.395  20.561   2.715
70509W        W38850  36.032   9.324  14.001
70510W        W38851   7.699  26.635  11.077
70511W        W38852  17.280  38.888  11.051
70512W        W38853  11.169  36.924   0.261
70513W        W38854  44.976  21.222   3.693
70514W        W38855   9.380  28.594  14.298
70515W        W38856  36.068  11.826  13.490
70516W        W38857  44.789  24.999  14.979
70517W        W38858  36.555  18.769  14.363
70518W        W38859   8.318   2.459  12.014
70519W        W38860  13.229  23.076   4.175
70520W        W38861  44.380  44.498  10.564
70521W        W38862  41.003  25.193   0.901
70522W        W38863  29.994  20.640   2.680
70523W        W38864  21.609   4.927  12.900
70524W        W38865   6.411  43.011  12.873
70525W        W38866  22.629  16.660   2.345
70526W        W38867  33.111   4.782   2.285
70527W        W38868  18.243  11.360  13.457
70528W        W38869  34.405  31.443  11.535
70529W        W38870  33.456  27.112   0.894
70530W        W38871  12.694   9.186  12.012
70531W        W38872  11.349   5.439  13.425
70532W        W38873  18.187   6.200   2.180
70533W        W38874   4.265  24.054   1.778
70534W        W38875  21.185  44.492  14.823
70535W        W38876  23.626   1.334  12.059
70536W        W38877   9.796  13.628  10.573
70537W        W38878  28.003  25.097   2.733
70538W        W38879  32.464  19.608  13.507
70539W        W38880   6.269  13.816  11.909
70540W        W38881  12.326  33.548   0.857
70541W        W38882  35.409  28.077   1.297
70542W        W38883  34.429  42.950   3.800
70543W        W38884   4.329  24.497  14.840
70544W        W38885   7.235   5.769   0.323
70545W        W38886  35.988  30.152  14.766
70546W        W38887  23.138  13.272  14.968
70547W        W38888  13.167  27.015   3.678
70548W        W38889   6.855  30.922   1.291
70549W        W38890   8.249   8.376  10.518
70550W        W38891  39.428  29.045   1.218
70551W        W38892  38.440  32.636   2.384
70552W        W38893   0.795  24.647   1.303
70553W        W38894   4.786  19.262   1.283
70554W        W38895  26.482   5.822  14.843
70555W        W38896   7.355  19.717   1.258
70556W        W38897  13.793  21.663  11.016
70557W        W38898  21.575  15.667  11.048
70558W        W38899  35.910   7.288  12.924
70559W        W38900   1.811   7.408  12.849
70560W        W38901  15.209   2.403  10.907
70561W        W38902   7.291  44.456   1.748
70562W        W38903   2.396   1.477  13.315
70563W        W38904  11.307  37.961  11.440
70564W        W38905  15.239  18.228   0.728
70565W        W38906  17.718  29.101  14.001
70566W        W38907  43.823  25.491  14.385
70567W        W38908   7.266  18.601   2.863
70568W        W38909   0.451  36.421   3.162
70569W        W38910   3.416  33.080  14.400
70570W        W38911   6.913   6.684  11.947
70571W        W38912  39.871  17.728   1.224
70572W        W38913  25.079  16.648  10.556
70573W        W38914  22.008  11.309   0.906
70574W        W38915  11.751  33.423   4.730
70575W        W38916  43.352   3.398  14.451
70576W        W38917  26.072  27.986   9.998
70577W        W38918  38.003  34.489  10.537
70578W        W38919  30.991   0.463  11.490
70579W        W38920   3.455  16.310  13.466
70580W        W38921   0.481  44.994  11.049
70581W        W38922  12.328  18.738   4.122
70582W        W38923  35.537  26.078   2.334
70583W        W38924  40.540   5.767   1.279
70584W        W38925  25.010  29.436  13.402
70585W        W38926   4.890  28.988   0.392
70586W        W38927  44.954  20.734   1.445
70587W        W38928  44.446   6.215  11.863
70588W        W38929  19.677  13.797  12.078
70589W        W38930   9.316  20.223  11.116
70590W        W38931  32.468  18.264  14.937
70591W        W38932  21.118  42.349  13.990
70592W        W38933  24.526  35.905   1.389
70593W        W38934  17.170   4.739   1.870
70594W        W38935  39.347  15.239   4.830
70595W        W38936   7.244  17.261  10.893
70596W        W38937  32.038  37.088  10.429
70597W        W38938  12.126  17.157   4.797
70598W        W38939   2.308   1.420   4.683
70599W        W38940  24.104  42.865   5.262
70600W        W38941   4.862  17.124   3.756
70601W        W38942  36.021  17.190   3.283
70602W        W38943   7.845  37.000   4.299
70603W        W38944  32.491  42.492  12.396
70604W        W38945  37.851  14.672   3.653
70605W        W38946  22.708  33.127   0.827
70606W        W38947  27.161   5.357   3.317
70607W        W38948  19.062  31.463   2.338
70608W        W38949  42.474  39.513  14.993
70609W        W38950  30.939   6.321   3.275
70610W        W38951  13.208  31.463   4.800
70611W        W38952   4.879   2.728  12.095
70612W        W38953  20.045  24.590  13.822
70613W        W38954   5.326   9.395   0.287
70614W        W38955   7.414   7.365  11.884
70615W        W38956  29.078   2.855  13.808
70616W        W38957   0.264  44.411   3.759
70617W        W38958  26.579  31.025   5.102
70618W        W38959  27.074   4.740  10.148
70619W        W38960  40.031   7.817  13.517
70620W        W38961  18.561   8.755  11.082
70621W        W38962   4.869  26.116   0.316
70622W        W38963  35.924  23.702   2.671
70623W        W38964  36.853  36.856   3.335
70624W        W38965  30.605  15.591  13.435
70625W        W38966   8.243  42.913   5.242
70626W        W38967   8.258  41.322   4.314
70627W        W38968  10.721  34.504  11.512
70628W        W38969  13.196  33.055   4.268
70629W        W38970  22.645  22.575   1.260
70630W        W38971  20.143  25.100  14.297
70631W        W38972   0.903  21.090   4.819
70632W        W38973   6.746  32.425  14.861
70633W        W38974  20.105  10.197  14.930
70634W        W38975  39.841  43.793   4.204
70635W        W38976  28.171  41.477   1.353
70636W        W38977  40.041  43.425  13.479
70637W        W38978   9.240   4.386   1.861
70638W        W38979  34.614  42.935   4.254
70639W        W38980  20.714  24.013   1.246
70640W        W38981  17.785   8.316  11.530
70641W        W38982  33.600  43.465   0.841
70642W        W38983  37.447  26.063   3.185
70643W        W38984  42.908  33.901   1.371
70644W        W38985   4.315  10.726   2.391
70645W        W38986  39.356  25.069  12.984
70646W        W38987  15.731  38.476   1.440
70647W        W38988  25.053  44.953  12.095
70648W        W38989  28.108  14.655  14.446
70649W        W38990   2.793  35.384   4.813
70650W        W38991   2.273   7.281  13.877
70651W        W38992  35.879  38.045  12.078
70652W        W38993  34.897  17.242  13.907
70653W        W38994  22.515  30.132   2.845
70654W        W38995  24.151  34.435   3.659
70655W        W38996  23.090  38.365   1.335
70656W        W38997   7.752  23.510  11.446
70657W        W38998  11.717   3.929  11.482
70658W        W38999   7.713  18.752  13.835
70659W        W39000  10.349  12.821  12.884
70660W        W39001   0.311   0.856   0.764
70661W        W39002  16.249  17.123   2.797
70662W        W39003  22.664  35.370  10.923
70663W        W39004  25.681  15.679  12.475
70664W        W39005  20.587  30.963  12.911
70665W        W39006  34.085  11.712  11.492
70666W        W39007  12.647  21.639   0.312
70667W        W39008   7.879  28.483   2.180
70668W        W39009  25.581   7.906  14.285
70669W        W39010  36.463  18.225  14.833
70670W        W39011   0.948  34.568   5.138
70671W        W39012  39.823  26.629   4.836
70672W        W39013  23.226  12.130  11.567
70673W        W39014  43.804  26.459  12.544
70674W        W39015  27.168  22.070   2.215
70675W        W39016  34.106   8.399  14.922
70676W        W39017   1.482   9.156   0.942
70677W        W39018  42.839   3.764  10.460
70678W        W39019  44.317  15.084   2.759
70679W        W39020  26.085  42.518   2.297
70680W        W39021  35.008   0.915   1.435
70681W        W39022  15.723   3.826   0.352
70682W        W39023  35.968  10.165  11.999
70683W        W39024   6.262  21.034  10.528
70684W        W39025  25.608   1.330  13.007
70685W        W39026  23.204   2.853   2.246
70686W        W39027  30.025  42.934  13.897
70687W        W39028   2.840  42.352   2.262
70688W        W39029  20.648  40.807   2.294
70689W        W39030   6.730  37.983  12.830
70690W        W39031  25.175  38.024  11.520
70691W        W39032   5.236  24.034   3.314
70692W        W39033   2.875  20.052   9.456
70693W        W39034   3.364  39.967  10.414
70694W        W39035  16.718  43.417  11.566
70695W        W39036  16.756  37.938   0.734
70696W        W39037   7.285   1.477   1.697
70697W        W39038  18.641  27.980   2.849
70698W        W39039  22.675  33.465   0.358
70699W        W39040   7.723  44.467  10.084
70700W        W39041  29.446  40.392   2.249
70701W        W39042   9.172  24.216   1.883
70702W        W39043  37.036   9.688  14.778
70703W        W39044  22.009   2.933  13.007
70704W        W39045   4.720   8.240   4.325
70705W        W39046  17.069  44.994   0.840
70706W        W39047  12.854  11.847   1.822
70707W        W39048  40.053  23.207   0.790
70708W        W39049  39.832  36.988   3.304
70709W        W39050  39.474  23.627  12.549
70710W        W39051  11.172  40.971   4.831
70711W        W39052   4.725  27.536   2.715
70712W        W39053   4.333   5.834   2.685
70713W        W39054   5.291   0.767   3.734
70714W        W39055  13.269   5.868   2.360
70715W        W39056   0.864  35.565  13.510
70716W        W39057  12.820   7.265  10.418
70717W        W39058  13.695   8.341   4.147
70718W        W39059   0.491  40.827  11.602
70719W        W39060  14.095  22.746  12.949
70720W        W39061  36.538  13.121   3.809
70721W        W39062   8.226  35.952  14.964
70722W        W39063  24.048  17.216   4.305
70723W        W39064  39.855  23.118   3.148
70724W        W39065  31.498  23.160  13.384
70725W        W39066  17.794  23.591  13.947
70726W        W39067  22.676   7.697   3.335
70727W        W39068   7.245  27.492   2.337
70728W        W39069   4.698   3.249  14.844
70729W        W39070  44.419  11.813   5.120
70730W        W39071   6.330  32.473  13.030
70731W        W39072   9.161  16.277   1.346
70732W        W39073   9.316  34.115   1.724
70733W        W39074  20.208  17.280  13.409
70734W        W39075  11.652  29.658   1.884
70735W        W39076  24.533   8.843   3.216
70736W        W39077  27.071  25.679   0.361
70737W        W39078  11.700  23.676   2.295
70738W        W39079  15.303  10.222   0.863
70739W        W39080   5.688  37.381  11.030
70740W        W39081   4.440  12.227  12.509
70741W        W39082  32.007   5.779  14.390
70742W        W39083  39.957  28.937   3.308
70743W        W39084  26.972   4.399   2.326
70744W        W39085   5.260  37.017   4.661
70745W        W39086  28.508  25.499   1.775
70746W        W39087  41.412  19.680  11.910
70747W        W39088   8.323   1.473  14.003
70748W        W39089  31.527   2.472  12.568
70749W        W39090   4.251  15.823  13.047
70750W        W39091  16.172  31.588  14.446
70751W        W39092  41.814   0.352   2.738
70752W        W39093  21.547  40.972   1.326
70753W        W39094   5.314  28.063   3.818
70754W        W39095  17.624  24.144   2.314
70755W        W39096   0.858  38.522  13.878
70756W        W39097  36.448   0.980   3.275
70757W        W39098  28.958   6.862   2.711
70758W        W39099  31.544  10.832  11.504
70759W        W39100  37.049  29.921  11.963
70760W        W39101  11.826  33.451  10.137
70761W        W39102  11.277   4.448   4.296
70762W        W39103  33.539  41.463  11.603
70763W        W39104   7.273  13.698  13.990
70764W        W39105  17.769   0.435  13.470
70765W        W39106  39.430  15.632  10.952
70766W        W39107  15.788   2.858  11.897
70767W        W39108  10.316  44.798  12.969
70768W        W39109  20.241  44.444   0.252
70769W        W39110  12.187   5.713  12.832
70770W        W39111  38.018  40.424   1.307
70771W        W39112  40.797   4.352  13.514
70772W        W39113  12.646  31.502  12.401
70773W        W39114  18.288  14.312  14.504
70774W        W39115  29.666  14.320  13.437
70775W        W39116   5.200  15.730  11.429
70776W        W39117  44.844  41.788  11.864
70777W        W39118  38.417  11.754  12.571
70778W        W39119  21.046  10.169  12.910
70779W        W39120  40.449  26.038   0.457
70780W        W39121  11.830  27.499  11.959
70781W        W39122   3.715  31.031   1.733
70782W        W39123  26.182  19.045   1.242
70783W        W39124  32.042   2.403  13.856
70784W        W39125   0.768  17.129   2.384
70785W        W39126  13.126  26.602  10.139
70786W        W39127  16.072   4.803  14.891
70787W        W39128  44.856  23.530   4.257
70788W        W39129  10.351  43.865   4.651
70789W        W39130  26.199  24.184  12.359
70790W        W39131   5.402  40.969   3.699
70791W        W39132  21.079  22.678  13.827
70792W        W39133  12.758  21.123  14.845
70793W        W39134  30.930  21.653   4.624
70794W        W39135  27.987  13.826  11.939
70795W        W39136  31.540  10.253   2.759
70796W        W39137   3.274  34.445  10.128
70797W        W39138  37.055   5.427   2.839
70798W        W39139  13.603  42.340   4.326
70799W        W39140   6.682   1.898   0.483
70800W        W39141  43.879  17.740   9.573
70801W        W39142  27.090  34.899   1.230
70802W        W39143  11.151  41.509   2.329
70803W        W39144  21.261  37.517   0.260
70804W        W39145  30.124  39.554   2.411
70805W        W39146  23.073  33.397  11.423
70806W        W39147  42.811  15.242  13.319
70807W        W39148   1.253   9.811   1.933
70808W        W39149  34.427  11.147   0.402
70809W        W39150  29.993  15.683   3.319
70810W        W39151  27.116  28.512   5.631
70811W        W39152   5.272  26.615  14.902
70812W        W39153   2.288   3.310   5.225
70813W        W39154  16.244   0.362   1.241
70814W        W39155  31.031  29.565   4.702
70815W        W39156  13.707  17.106  10.607
70816W        W39157  31.096  24.518  11.411
70817W        W39158  44.993   1.764  13.837
70818W        W39159  31.044  11.302   3.280
70819W        W39160  40.496  33.062  14.419
70820W        W39161   8.703   2.354  10.633
70821W        W39162  13.301  37.908  11.084
70822W        W39163  38.901  17.218   4.289
70823W        W39164  12.838  16.190   0.391
70824W        W39165  41.430   8.672  12.543
70825W        W39166  18.161  26.982  12.574
70826W        W39167  33.399  15.083   2.811
70827W        W39168  22.251  31.119  14.770
70828W        W39169   1.265   7.761   0.378
70829W        W39170  33.458   4.764   1.814
70830W        W39171  13.244  35.561  14.983
70831W        W39172   2.944   6.697   2.328
70832W        W39173  22.202  26.591  13.425
70833W        W39174   2.455  34.103  10.939
70834W        W39175  11.202  20.561   2.746
70835W        W39176  31.402  26.124  11.051
70836W        W39177  24.596  38.400  13.323
70837W        W39178  23.559  21.038   2.384
70838W        W39179  10.322  35.546  12.994
70839W        W39180  28.959  16.241   4.755
70840W        W39181  25.589  27.517   3.747
70841W        W39182   0.988  44.830   0.336
70842W        W39183  30.956  38.836  11.513
70843W        W39184   0.351  40.023   4.643
70844W        W39185  28.024  16.684  14.954
70845W        W39186  14.165  40.815   9.972
70846W        W39187   3.887  25.564   3.661
70847W        W39188  30.989  20.746  11.895
70848W        W39189  27.089  33.937   2.390
70849W        W39190  21.643  28.936  12.483
70850W        W39191  14.804  39.056   3.329
70851W        W39192  17.558   8.336  10.427
70852W        W39193  35.369  38.862  12.541
70853W        W39194   7.888  36.046  12.898
70854W        W39195  28.673  41.501   1.271
70855W        W39196   6.868  42.848   3.825
70856W        W39197  34.030   1.763   1.298
70857W        W39198  19.071   6.699  11.605
70858W        W39199  29.650  36.025   4.764
70859W        W39200  38.861   3.838   1.712
70860W        W39201  20.257  14.146   3.319
70861W        W39202  43.984  33.104  12.561
70862W        W39203  44.956  14.177  11.045
70863W        W39204  26.554  27.618  13.999
70864W        W39205  38.379  31.946   3.161
70865W        W39206  16.242  40.038   3.341
70866W        W39207  25.515  31.518  11.573
70867W        W39208  16.117  19.071   1.899
70868W        W39209  18.654  36.961  11.501
70869W        W39210  38.534  10.221  11.996
70870W        W39211   5.436  25.483   2.839
70871W        W39212  20.652  19.669   0.353
70872W        W39213  15.216   7.701  14.290
70873W        W39214  29.976  21.529   1.929
70874W        W39215  39.872  44.324   0.350
70875W        W39216  40.446   6.387  13.444
70876W        W39217  42.975   6.882   1.899
70877W        W39218  10.694  12.229  14.796
70878W        W39219  14.832  41.924   4.628
70879W        W39220  30.523  14.648   0.874
70880W        W39221  29.550  39.324   4.345
70881W        W39222  10.753  43.348   4.123
70882W        W39223   7.847  34.489  14.947
70883W        W39224  23.588  24.656  14.477
70884W        W39225   6.867  28.631  12.868
70885W        W39226  32.498  28.078   0.257
70886W        W39227  25.039  27.035   4.612
70887W        W39228   3.877  11.713  12.395
70888W        W39229  22.539  17.080  14.439
70889W        W39230   6.781  12.346  11.885
70890W        W39231  15.305  13.686   2.273
70891W        W39232  22.527  36.858   0.955
70892W        W39233  39.465  40.865   4.657
70893W        W39234   8.745  40.506   4.805
70894W        W39235  24.017  16.265   5.575
70895W        W39236  26.471  13.268   3.781
70896W        W39237   3.399   0.750  11.485
70897W        W39238  24.166  20.179  10.544
70898W        W39239  37.406  19.256  12.556
70899W        W39240  12.318  27.961   0.871
70900W        W39241  43.338  25.198  14.872
70901W        W39242   5.351  39.367   4.124
70902W        W39243  24.552  36.499   1.920
70903W        W39244  26.155  27.537   0.775
70904W        W39245  19.602  35.987  14.987
70905W        W39246   1.468  27.017   2.197
70906W        W39247   7.690  17.150   3.379
70907W        W39248  26.998  39.931   1.796
70908W        W39249   5.760  38.025  14.028
70909W        W39250  22.715  35.925   0.406
70910W        W39251   1.777  32.564   2.878
70911W        W39252   7.316   0.449  10.529
70912W        W39253  18.638  33.046  14.945
70913W        W39254  26.987  27.140   2.308
70914W        W39255   6.204  20.161   2.365
70915W        W39256  35.526  28.959   4.152
70916W        W39257  12.141  35.942  11.976
70917W        W39258   3.933  13.109   3.673
70918W        W39259  27.969  11.769   3.203
70919W        W39260   1.772  41.329  11.037
70920W        W39261  35.379   8.823   2.694
70921W        W39262  12.164  38.401  12.950
70922W        W39263  13.761   0.401  10.533
70923W        W39264  15.679  44.299   4.706
70924W        W39265  18.670  42.470  11.040
70925W        W39266  39.895  10.824   2.344
70926W        W39267   3.240  35.603   1.711
70927W        W39268   3.344  33.938  10.603
70928W        W39269  11.342   7.327   2.358
70929W        W39270   2.325   8.218   0.740
70930W        W39271   9.688   5.374  12.461
70931W        W39272  43.779  22.127  14.329
70932W        W39273  17.799  44.830   0.304
70933W        W39274  29.171  20.244   3.320
70934W        W39275  38.947  41.386  14.775
70935W        W39276  44.495  35.929   4.776
70936W        W39277  25.170   9.332   0.757
70937W        W39278  14.647  21.074  14.344
70938W        W39279  35.592  10.650   3.783
70939W        W39280  39.510  43.980  11.898
70940W        W39281   8.695   2.298  14.853
70941W        W39282   5.916  26.980  12.467
70942W        W39283  20.257  44.931  11.563
70943W        W39284  23.502  13.131   3.803
70944W        W39285   3.318  24.587   2.879
70945W        W39286  28.637  33.081  14.509
70946W        W39287   2.935  33.030  11.440
70947W        W39288  26.461  32.916  12.084
70948W        W39289  37.051  37.890  12.369
70949W        W39290  41.010  22.660  13.838
70950W        W39291  26.018   5.826  11.125
70951W        W39292  34.425  37.894  11.412
70952W        W39293  39.935  17.174   4.749
70953W        W39294  29.596  13.345   1.282
70954W        W39295  40.546  15.150   4.247
70955W        W39296   0.446  37.478  14.281
70956W        W39297  41.987  14.770   2.662
70957W        W39298  13.280  11.805   2.774
70958W        W39299  39.340  33.967   4.132
70959W        W39300  10.374  18.210   2.370
70960W        W39301  12.283   3.415  14.874
70961W        W39302  16.157   4.233   1.365
70962W        W39303  22.594  27.985   5.279
70963W        W39304  27.009   3.770  12.428
70964W        W39305  34.942  26.583   0.905
70965W        W39306  36.081   4.442  14.793
70966W        W39307   9.345  34.117   2.774
70967W        W39308  27.989   8.654  11.538
70968W        W39309  28.454  15.584   2.702
70969W        W39310  25.514  37.083   0.325
70970W        W39311  10.858  23.505   2.349
70971W        W39312  40.466   2.417   1.860
70972W        W39313   0.364   7.259  12.032
70973W        W39314  38.512  30.055  11.951
70974W        W39315   7.410  38.022  14.800
70975W        W39316  22.578  40.405  13.831
70976W        W39317   9.683  28.993  13.543
70977W        W39318  28.062  44.845  13.311
70978W        W39319   0.878   9.651   1.816
70979W        W39320  18.238  26.501   3.274
70980W        W39321  20.719   3.867  10.972
70981W        W39322   9.394  43.471   3.334
70982W        W39323  23.205  19.763  13.975
70983W        W39324   3.381  18.692  12.073
70984W        W39325  16.204  29.004   1.798
70985W        W39326   3.875  30.919  12.834
70986W        W39327  26.620  27.073  10.597
70987W        W39328  17.580  30.132   1.345
70988W        W39329  16.240  39.824  13.957
70989W        W39330  15.260  16.583   1.733
70990W        W39331   4.318  13.172   3.689
70991W        W39332  37.956  20.150   0.839
70992W        W39333   9.832  44.857  13.413
70993W        W39334  28.007   5.892  12.541
70994W        W39335  43.357  20.214   0.761
70995W        W39336  44.472  23.077   3.727
70996W        W39337  18.207   7.674   3.343
70997W        W39338  36.476  20.542  11.561
70998W        W39339  26.612  25.506   3.199
70999W        W39340   3.422  34.463   2.832
71000W        W39341   3.304  16.283   4.258
71001W        W39342  38.498   5.773  13.853
71002W        W39343  23.985  22.519   2.394
71003W        W39344   7.350   1.851  14.918
71004W        W39345  10.283  44.274  14.992
71005W        W39346  42.902  40.533   3.786
71006W        W39347  17.644  37.889   4.355
71007W        W39348  44.390  16.602  12.966
71008W        W39349  26.163   3.283   4.326
71009W        W39350   7.314  15.199  14.021
71010W        W39351   3.898  37.459  14.928
71011W        W39352  30.475  25.489  13.408
71012W        W39353   0.384  10.249   3.799
71013W        W39354  16.589  26.515  10.575
71014W        W39355  40.826   2.964   4.239
71015W        W39356  22.608   7.234  11.100
71016W        W39357  11.673  22.037  11.994
71017W        W39358  27.080  20.668   2.773
71018W        W39359  24.709  25.698   4.773
71019W        W39360  12.762  25.035   0.312
71020W        W39361  44.468  40.460  14.765
71021W        W39362  25.189  24.159   3.265
71022W        W39363   9.201  24.711   1.847
71023W        W39364  32.462  41.305   0.434
71024W        W39365  34.562  28.066   1.389
71025W        W39366  15.154  19.749   0.286
71026W        W39367  19.213  16.692   0.756
71027W        W39368   7.380  43.356   4.234
71028W        W39369  20.078  30.610   5.267
71029W        W39370  37.852  44.790   4.265
71030W        W39371  41.478   5.255  13.377
71031W        W39372   9.208  29.621  11.891
71032W        W39373   7.255   6.856  11.482
71033W        W39374  13.290  35.427   2.212
71034W        W39375  21.549  41.367   1.254
71035W        W39376   2.346  29.974  14.996
71036W        W39377  38.478  31.462  14.513
71037W        W39378  29.106  23.987   3.843
71038W        W39379  19.592  43.362   4.742
71039W        W39380  25.614  12.826  11.601
71040W        W39381  35.600  31.046  14.452
71041W        W39382   9.277  24.195   4.134
71042W        W39383  12.637  24.979   4.767
71043W        W39384  32.523  26.552   3.791
71044W        W39385  37.010  34.563  11.462
71045W        W39386   3.347   3.896  14.862
71046W        W39387  10.690   1.820  13.811
71047W        W39388  20.144   6.719  12.845
71048W        W39389  20.187   2.265   3.632
71049W        W39390  31.122  26.587  11.935
71050W        W39391  24.973  42.318   1.850
71051W        W39392   8.262   2.768  12.091
71052W        W39393  35.408  15.320  10.595
71053W        W39394  16.202  24.037  12.420
71054W        W39395  36.022  15.157   1.696
71055W        W39396   1.256   3.423  12.881
71056W        W39397  42.871   7.888   1.418
71057W        W39398  10.816  38.896  12.997
71058W        W39399  38.822  16.290   3.740
71059W        W39400  37.935   9.192   4.182
71060W        W39401  35.486  17.632  13.433
71061W        W39402  13.338   7.360  13.028
71062W        W39403   9.226   7.339  11.588
71063W        W39404  37.566  37.083  13.945
71064W        W39405  28.171  24.112   1.853
71065W        W39406  31.476  44.273   1.814
71066W        W39407   0.956  39.937   1.283
71067W        W39408  28.079  14.791   2.306
71068W        W39409  19.563   0.901   0.477
71069W        W39410  11.745  28.512   3.242
71070W        W39411  14.635  11.164  12.453
71071W        W39412  25.665  34.498   1.235
71072W        W39413  42.377  19.651  13.967
71073W        W39414  33.548  34.027   4.149
71074W        W39415  43.917  23.155   1.393
71075W        W39416  24.677  26.568  12.091
71076W        W39417   7.205  23.517   4.734
71077W        W39418  33.989   8.317   3.328
71078W        W39419  30.447  42.344   4.236
71079W        W39420  13.726  31.537  11.386
71080W        W39421   9.368   0.344  14.476
71081W        W39422  30.600   3.843   1.226
71082W        W39423  18.196  26.155   4.182
71083W        W39424  28.597  13.204   3.325
71084W        W39425  44.501  38.385  12.877
71085W        W39426  24.211   2.735  14.002
71086W        W39427  42.786  30.910  12.540
71087W        W39428  19.644  24.504  11.562
71088W        W39429  37.573   9.377  11.508
71089W        W39430  27.012   5.786   2.833
71090W        W39431  30.962  37.391  12.460
71091W        W39432   5.275   2.459  13.933
71092W        W39433  23.509  32.625  14.016
71093W        W39434  14.107  13.254  14.339
71094W        W39435  25.480  39.902  11.123
71095W        W39436  10.724  25.020   5.215
71096W        W39437  21.623  14.749   3.220
71097W        W39438  20.149   1.842  12.858
71098W        W39439  10.210  34.094  11.966
71099W        W39440  16.284  11.658  13.007
71100W        W39441  20.170  34.413   2.371
71101W        W39442  43.815  18.177   4.754
71102W        W39443  28.112  32.423  12.458
71103W        W39444   0.392  23.232  14.479
71104W        W39445  29.601  40.854  13.898
71105W        W39446  36.453   9.313   2.296
71106W        W39447  19.774   9.316  13.981
71107W        W39448  26.500  30.595   9.929
71108W        W39449  17.168  14.827   2.275
71109W        W39450  13.244  12.163  12.972
71110W        W39451   7.302   6.778   1.885
71111W        W39452  20.113  27.174   2.823
71112W        W39453  17.572  40.403   3.172
71113W        W39454  22.183  40.455   0.884
71114W        W39455  40.829  26.088  12.948
71115W        W39456   5.280  22.738   0.913
71116W        W39457  42.949   0.789   1.402
71117W        W39458   7.366   3.818  13.343
71118W        W39459  17.075  36.540  14.008
71119W        W39460  40.846   0.759   4.602
71120W        W39461  11.288  19.239  10.892
71121W        W39462  23.029  11.812  11.014
71122W        W39463  18.608  30.557   3.374
71123W        W39464  37.543   6.248  12.567
71124W        W39465  12.354  21.629  12.466
71125W        W39466   5.835  39.846   3.180
71126W        W39467  40.802  13.726   2.314
71127W        W39468  11.167  42.998   1.337
71128W        W39469  16.571  42.795   4.699
71129W        W39470  20.725  36.498   3.836
71130W        W39471   5.376  30.460   3.803
71131W        W39472  11.778  26.150   3.661
71132W        W39473  10.809  22.023  11.098
71133W        W39474  12.786  28.997   2.774
71134W        W39475  23.139  29.007  13.867
71135W        W39476   0.410   2.825  12.563
71136W        W39477  10.291  43.896  13.000
71137W        W39478  10.696  44.415  11.608
71138W        W39479  40.358  10.311  13.427
71139W        W39480  35.999  10.683   1.224
71140W        W39481  43.813  22.525   1.858
71141W        W39482  36.993  12.748  11.912
71142W        W39483  44.871  25.102  11.909
71143W        W39484  10.211  15.249  14.411
71144W        W39485  36.491  17.195  14.496
71145W        W39486  24.585  36.478  12.363
71146W        W39487  21.604   8.209   2.673
71147W        W39488  23.141  43.450  12.479
71148W        W39489  23.497  30.937   0.359
71149W        W39490   2.811  29.635   0.736
71150W        W39491  42.469  33.444   4.645
71151W        W39492  10.664  35.536   4.643
71152W        W39493  12.754  39.990  10.105
71153W        W39494  42.282  13.237   4.788
71154W        W39495  12.766   5.734  14.884
71155W        W39496  12.766  17.757  14.855
71156W        W39497  10.834  16.596   4.741
71157W        W39498  28.145  30.016  14.406
71158W        W39499  33.473  18.122   4.274
71159W        W39500  26.018  40.864  13.377
71160W        W39501  12.232  39.005  11.866
71161W        W39502   4.721  16.789   3.639
71162W        W39503  19.076  14.737   0.927
71163W        W39504  39.915   6.871  14.323
71164W        W39505  35.537  29.464  13.840
71165W        W39506   7.858  19.556   1.253
71166W        W39507  14.332  36.093  14.870
71167W        W39508  40.505  24.006  14.436
71168W        W39509   3.301  21.629  14.766
71169W        W39510  39.945   8.751   2.337
71170W        W39511   9.773  32.107  11.477
71171W        W39512  23.239  20.769   1.735
71172W        W39513   1.795   8.795  12.041
71173W        W39514  35.363  41.937  11.895
71174W        W39515  10.183  13.646   0.333
71175W        W39516  31.005  41.925   3.684
71176W        W39517   8.374  37.911   1.863
71177W        W39518  34.881  37.840  13.960
71178W        W39519  37.461  42.331   0.361
71179W        W39520  24.621  36.869   1.697
71180W        W39521  20.636  13.666  14.397
71181W        W39522   8.291  42.527   2.822
71182W        W39523   6.238   1.244  14.894
71183W        W39524  37.880   9.733  14.380
71184W        W39525   6.360  18.653   2.771
71185W        W39526  24.149  27.995   0.858
71186W        W39527  29.603  27.197   4.765
71187W        W39528  42.030  21.604   2.725
71188W        W39529  33.041   9.668  11.072
71189W        W39530  43.833  35.549  14.298
71190W        W39531  16.316   8.718  13.525
71191W        W39532  32.904   8.835   2.250
71192W        W39533  31.590  36.531   3.727
71193W        W39534  37.534  28.077  10.579
71194W        W39535   7.264  19.743  11.028
71195W        W39536   7.370   1.793  12.520
71196W        W39537  20.164  16.157  12.086
71197W        W39538   0.313  18.782   5.697
71198W        W39539   8.327  44.417  14.955
71199W        W39540  15.603  29.940   3.836
71200W        W39541  25.195  10.143  13.942
71201W        W39542   9.297  36.514   3.659
71202W        W39543  11.840   4.797  13.797
71203W        W39544  25.040   1.320  13.915
71204W        W39545  42.423  18.701   5.126
71205W        W39546   4.933  28.634  11.940
71206W        W39547   4.812   5.694  10.966
71207W        W39548  42.020  29.566  11.402
71208W        W39549  29.447  10.839   4.161
71209W        W39550   9.851  25.543  12.996
71210W        W39551  21.117   9.644  11.547
71211W        W39552  18.571  17.229   5.311
71212W        W39553   0.367  42.780   1.226
71213W        W39554  41.858   3.264   0.759
71214W        W39555   7.757  33.460   1.919
71215W        W39556  23.557  31.009  13.443
71216W        W39557  34.453  20.712   4.337
71217W        W39558  27.135  14.653   1.296
71218W        W39559  35.973  10.766  12.972
71219W        W39560  32.615  32.510   1.928
71220W        W39561   7.298  30.599  10.505
71221W        W39562   7.756   9.852   3.270
71222W        W39563  19.672  44.798   1.410
71223W        W39564  44.760  19.629   4.281
71224W        W39565   3.350  16.118  14.976
71225W        W39566   0.458  36.446  13.378
71226W        W39567   8.708  20.067  14.451
71227W        W39568  14.285  43.902  11.589
71228W        W39569  23.536  40.356   2.696
71229W        W39570  26.177  29.545   1.219
71230W        W39571  33.435  36.039   2.208
71231W        W39572  31.103  17.651  10.492
71232W        W39573  44.848  18.659   2.326
71233W        W39574  27.109  26.177   0.269
71234W        W39575   2.929  34.073  10.626
71235W        W39576   0.488  34.057  11.894
71236W        W39577  32.965  17.193  11.462
71237W        W39578  14.679  24.074   3.331
71238W        W39579  37.562  18.106  13.932
71239W        W39580  14.250   3.715   1.752
71240W        W39581  14.226  16.802   0.754
71241W        W39582  29.921   4.701  11.001
71242W        W39583   2.245  34.026  11.563
71243W        W39584   0.862   2.252  13.879
71244W        W39585  20.188  13.752   3.660
71245W        W39586  37.972   3.223   3.265
71246W        W39587  30.464  15.819  10.629
71247W        W39588  32.990  38.342   5.750
71248W        W39589   7.362  34.522  12.996
71249W        W39590  44.369  13.838   2.253
71250W        W39591  41.318  31.460  11.531
71251W        W39592  31.919  38.465  11.065
71252W        W39593  31.473  38.449   4.671
71253W        W39594   0.857   3.813   2.819
71254W        W39595   7.174  21.039  11.436
71255W        W39596  41.978  39.809  14.275
71256W        W39597  12.784  16.808  14.826
71257W        W39598  27.538  16.757  12.565
71258W        W39599   8.293  30.030   2.808
71259W        W39600  38.826  35.099   1.831
71260W        W39601  27.470  16.782  12.054
71261W        W39602  29.450  38.929  12.050
71262W        W39603  43.429  38.375   1.267
71263W        W39604  28.676  14.601  11.498
71264W        W39605  28.064  40.047  14.494
71265W        W39606  37.907  42.520  10.485
71266W        W39607  21.182   8.790   9.997
71267W        W39608  44.487   7.801  13.969
71268W        W39609  13.335  21.645  12.852
71269W        W39610  38.562   6.359  12.475
71270W        W39611  43.460  38.929  14.888
71271W        W39612   8.392   7.403  10.973
71272W        W39613  17.575   1.271   0.391
71273W        W39614  21.626   7.868   1.839
71274W        W39615  29.468  40.830   4.217
71275W        W39616  16.687   1.789  12.033
71276W        W39617   6.726  31.508   4.302
71277W        W39618  34.434  23.626   1.311
71278W        W39619   2.441  24.014  14.371
71279W        W39620  21.749  11.361  14.283
71280W        W39621  25.164  23.540  12.879
71281W        W39622  44.898   5.293   0.409
71282W        W39623   7.281  35.466   1.450
71283W        W39624  14.808  42.901   4.767
71284W        W39625  12.808   8.746   4.723
71285W        W39626  38.369  20.233  11.588
71286W        W39627  26.481  15.263   9.992
71287W        W39628  42.398   0.485   3.308
71288W        W39629  17.253  18.137   0.857
71289W        W39630  21.543  22.606  11.881
71290W        W39631  20.231  18.733  12.546
71291W        W39632  29.979  18.153   4.239
71292W        W39633  18.646  14.182   4.276
71293W        W39634   9.720   2.834   4.274
71294W        W39635  21.652   0.806   4.245
71295W        W39636  13.778  39.333  13.370
71296W        W39637  30.470  11.689   5.168
71297W        W39638  39.061  21.257   3.738
71298W        W39639   0.972  10.199   0.823
71299W        W39640   3.723   9.742  11.057
71300W        W39641  33.000   3.751   4.604
71301W        W39642  32.596  44.818  12.860
71302W        W39643  27.141  23.000   2.770
71303W        W39644  43.795   3.807   4.672
71304W        W39645  16.110  28.466  10.430
71305W        W39646  43.002   1.797   0.338
71306W        W39647  21.157   3.362  12.401
71307W        W39648  36.048   7.191  13.871
71308W        W39649  32.945  10.643  12.082
71309W        W39650  11.251  30.638   3.327
71310W        W39651  44.331  15.264   4.341
71311W        W39652  10.646  21.697  11.024
71312W        W39653  33.916  31.940   2.408
71313W        W39654  43.986  30.530   5.098
71314W        W39655  18.547  21.061   4.145
71315W        W39656  22.154  25.659   2.680
71316W        W39657  41.445   4.345   3.278
71317W        W39658  12.203  38.849  11.031
71318W        W39659  28.062  44.789  11.541
71319W        W39660  34.595  16.781  11.372
71320W        W39661  12.295   0.978  10.971
71321W        W39662  39.980   5.436  13.046
71322W        W39663   8.351   0.865  11.535
71323W        W39664  41.976   3.917  13.943
71324W        W39665   8.287   8.334   3.349
71325W        W39666   2.951  31.553   0.806
71326W        W39667   6.408  22.543   3.181
71327W        W39668  26.204   5.848   0.444
71328W        W39669   1.955  21.176   5.210
71329W        W39670   5.343  36.897  13.844
71330W        W39671  15.234  29.533   3.319
71331W        W39672  36.062  25.625  12.085
71332W        W39673  30.053  11.265  11.871
71333W        W39674  25.996  18.098  13.966
71334W        W39675   1.248  19.072  12.983
71335W        W39676  21.737  12.806   3.833
71336W        W39677  39.935  17.738  12.395
71337W        W39678   2.318  26.571   2.187
71338W        W39679  40.880   9.665  11.929
71339W        W39680  39.923  17.729   1.812
71340W        W39681  36.391  32.107   3.807
71341W        W39682  30.106  13.608  11.935
71342W        W39683  12.666  23.530   3.750
71343W        W39684  43.932   5.828   3.634
71344W        W39685  16.682  10.862   2.243
71345W        W39686  24.588  26.573   4.171
71346W        W39687  21.727  34.116  11.529
71347W        W39688  44.796  44.261  14.363
71348W        W39689  27.627  34.949  11.537
71349W        W39690  12.717  40.436  12.349
71350W        W39691  28.155  42.802  13.905
71351W        W39692  11.301  10.215  12.927
71352W        W39693  25.678  23.566   0.853
71353W        W39694  41.414  35.469  13.344
71354W        W39695   0.764   5.356   3.206
71355W        W39696  21.699  31.992   3.195
71356W        W39697  28.090   7.892   0.353
71357W        W39698   5.346   0.929  12.373
71358W        W39699   4.255  21.223  14.955
71359W        W39700  37.545  26.993  14.345
71360W        W39701  33.951  38.366  10.629
71361W        W39702  18.588  33.877  14.455
71362W        W39703  21.574  28.666   4.652
71363W        W39704   6.248  32.995   2.700
71364W        W39705   7.299  13.120  11.872
71365W        W39706   1.894  19.116   9.959
71366W        W39707  31.073  32.456  12.387
71367W        W39708  26.656  35.879   2.356
71368W        W39709   4.321  19.655  11.392
71369W        W39710  35.506  14.591  13.039
71370W        W39711  10.281   4.943  12.517
71371W        W39712  25.540   4.750   1.711
71372W        W39713   9.278  17.238   2.200
71373W        W39714   3.788  40.897   2.375
71374W        W39715  14.707   8.162   4.626
71375W        W39716   9.202   7.840  10.983
71376W        W39717  34.052  43.512   2.262
71377W        W39718  13.601  42.969   3.323
71378W        W39719  37.077  38.333  12.512
71379W        W39720  33.439   6.785  13.329
71380W        W39721   5.742   4.796   3.325
71381W        W39722  33.483  21.197  13.967
71382W        W39723  30.515   0.762  12.469
71383W        W39724  24.133  34.914  10.104
71384W        W39725   8.175  32.534  10.442
71385W        W39726  10.847  32.522   1.233
71386W        W39727  44.449   0.300  12.385
71387W        W39728  24.219  25.128  12.549
71388W        W39729   9.338  16.110  13.821
71389W        W39730   7.375  16.807   0.752
71390W        W39731  32.399  44.405  12.863
71391W        W39732  18.741   4.859   5.109
71392W        W39733  30.032  20.526  12.076
71393W        W39734  43.418  22.620  11.560
71394W        W39735  33.554  32.894  12.837
71395W        W39736  42.391  30.509  11.961
71396W        W39737  13.286  39.020  12.916
71397W        W39738  10.362  15.158   4.662
71398W        W39739  14.751  28.612   4.124
71399W        W39740   6.756  38.997  11.053
71400W        W39741   2.841  34.914  10.606
71401W        W39742   4.243  18.728   0.773
71402W        W39743   6.782   7.300  14.947
71403W        W39744  31.605   0.745  11.958
71404W        W39745  42.411  31.559  11.935
71405W        W39746   3.832  23.026   3.810
71406W        W39747  26.054  34.935  13.996
71407W        W39748   1.927  21.697   4.223
71408W        W39749   2.963  35.499   0.765
71409W        W39750  27.175   8.685  14.448
71410W        W39751  42.021  41.930  11.935
71411W        W39752  15.094  24.548  14.870
71412W        W39753  14.159  14.182  12.907
71413W        W39754  11.312   8.769  10.903
71414W        W39755  39.457  33.613   4.618
71415W        W39756   8.765  20.737  12.451
71416W        W39757  27.989  10.771  10.911
71417W        W39758  17.792   9.258   0.892
71418W        W39759  15.239  11.350  10.967
71419W        W39760   8.320   1.347   1.858
71420W        W39761  13.759  10.659  13.369
71421W        W39762  17.152   8.705  10.911
71422W        W39763  24.007  14.743   4.328
71423W        W39764  37.490  33.603  14.995
71424W        W39765   8.390   3.425   3.661
71425W        W39766  12.808  16.290   4.290
71426W        W39767  18.273   8.725   4.195
71427W        W39768  18.264   8.802   4.770
71428W        W39769  12.655  40.973  10.132
71429W        W39770  20.562  26.677  11.533
71430W        W39771  39.397  38.995   3.814
71431W        W39772  29.540   0.404  12.562
71432W        W39773   5.785   1.272  11.437
71433W        W39774  25.201  38.453   3.681
71434W        W39775  21.071  31.146   4.324
71435W        W39776  35.105  44.465   4.792
71436W        W39777   4.794  36.076   2.834
71437W        W39778  19.574  36.915   1.258
71438W        W39779   8.855  12.266   2.775
71439W        W39780   0.358  20.639   1.387
71440W        W39781  35.549  12.693   3.255
71441W        W39782   6.314  34.018  10.442
71442W        W39783  32.505  23.550  10.561
71443W        W39784  14.809   0.268   2.340
71444W        W39785  19.137   8.739   2.337
71445W        W39786  32.974   9.755  13.861
71446W        W39787  36.059  41.793   1.779
71447W        W39788  31.094  37.074  13.867
71448W        W39789  29.085  19.766  10.579
71449W        W39790  31.972  19.612   3.257
71450W        W39791  22.049  44.984   4.167
71451W        W39792  36.052  17.791   1.341
71452W        W39793   0.809   0.399  10.952
71453W        W39794  25.625   8.272   3.763
71454W        W39795  18.661  20.555  14.895
71455W        W39796  34.914   2.780   4.600
71456W        W39797  11.719  28.008   1.366
71457W        W39798  23.625  10.696  10.565
71458W        W39799   9.334   1.262   2.789
71459W        W39800  30.925  40.364  12.081
71460W        W39801  11.632  14.105   1.288
71461W        W39802  14.756  26.623  11.948
71462W        W39803   9.259  32.511   4.768
71463W        W39804  23.053  20.171   2.813
71464W        W39805  13.786   4.847  12.964
71465W        W39806   4.323  14.613  10.628
71466W        W39807  41.534  28.608   3.781
71467W        W39808  14.688  25.114  14.502
71468W        W39809  31.957  31.075  14.417
71469W        W39810  16.662   8.211  14.491
71470W        W39811  17.571  29.528  10.469
71471W        W39812  36.909  21.048   4.741
71472W        W39813   2.841  37.070   0.302
71473W        W39814  37.514   4.350  10.506
71474W        W39815   1.359  13.254   1.720
71475W        W39816   7.343  31.459   1.423
71476W        W39817  35.478  43.378   1.743
71477W        W39818  14.259   7.752  12.917
71478W        W39819  11.204   7.718   3.344
71479W        W39820   5.760  35.586  10.977
71480W        W39821  22.542  44.426   2.220
71481W        W39822   1.380  40.845  14.449
71482W        W39823  34.923  12.140  10.541
71483W        W39824  38.537  41.983   4.663
71484W        W39825  23.613   5.254  11.109
71485W        W39826  28.996  26.990  12.368
71486W        W39827   6.282  43.296   4.808
71487W        W39828  14.728  30.099  10.530
71488W        W39829  32.581  24.094  10.160
71489W        W39830  25.556  36.993   3.190
71490W        W39831  41.949  32.002  11.960
71491W        W39832  20.273   3.944  11.517
71492W        W39833  11.326  14.679   0.840
71493W        W39834  22.725   5.260   2.262
71494W        W39835  20.199  42.287  12.428
71495W        W39836  15.281  23.644   3.308
71496W        W39837  24.104  28.056   5.196
71497W        W39838  38.956  24.133   2.259
71498W        W39839   7.407  38.926  10.544
71499W        W39840  18.704   7.903   4.797
71500W        W39841  39.348  24.491   1.261
71501W        W39842   0.772   6.323  14.968
71502W        W39843  19.119  41.437  13.962
71503W        W39844   7.379   8.771   3.310
71504W        W39845  29.931  14.775  14.368
71505W        W39846  16.761   1.768  13.812
71506W        W39847  35.493  39.450   4.125
71507W        W39848  16.692  23.688   1.237
71508W        W39849   8.317  42.389   0.848
71509W        W39850  43.974   0.891   1.879
71510W        W39851   9.881  16.167  11.432
71511W        W39852   3.727  14.098  11.026
71512W        W39853  39.485  43.911  14.366
71513W        W39854  19.583  14.831  12.912
71514W        W39855  38.468  30.092   4.346
71515W        W39856  30.066  19.089  10.433
71516W        W39857  20.194  11.729  13.322
71517W        W39858  31.086  28.446   1.417
71518W        W39859  33.601  21.602  10.592
71519W        W39860   6.411  22.238   1.326
71520W        W39861  13.776  13.162  11.026
71521W        W39862  12.198  20.159   3.314
71522W        W39863  18.674  32.611  10.920
71523W        W39864   6.696  16.231   2.395
71524W        W39865  41.869  27.518  13.340
71525W        W39866   4.369  23.699   0.314
71526W        W39867   3.881  41.961  11.452
71527W        W39868  39.439   7.791  12.459
71528W        W39869  12.227  33.539   1.703
71529W        W39870  36.386  26.982  12.574
71530W        W39871   5.752  38.057  11.428
71531W        W39872  25.694  23.242   2.199
71532W        W39873  19.076  31.517  14.911
71533W        W39874  17.799  43.796  13.874
71534W        W39875   2.337  24.012  13.972
71535W        W39876  22.519   3.849   4.296
71536W        W39877  34.053  15.810  11.914
71537W        W39878  44.326  39.432   4.819
71538W        W39879   2.727  29.970   4.171
71539W        W39880  42.439  12.761   4.797
71540W        W39881  16.290  30.136  14.841
71541W        W39882  20.764  29.015   2.247
71542W        W39883  19.251  23.219  12.575
71543W        W39884  26.698  24.032  10.915
71544W        W39885  31.428  33.115   0.895
71545W        W39886   3.733  25.571  11.087
71546W        W39887  43.881   2.824  11.426
71547W        W39888  24.579  20.058   1.704
71548W        W39889  41.935  16.573  11.396
71549W        W39890   9.282  29.602  14.342
71550W        W39891  24.492  11.344   1.312
71551W        W39892  43.976  29.479   2.835
71552W        W39893  30.416  33.574  12.007
71553W        W39894  24.164  38.077   3.202
71554W        W39895  11.705  14.199  10.076
71555W        W39896  12.626  25.098  14.766
71556W        W39897   6.770  43.498   0.817
71557W        W39898  15.806  12.723   5.152
71558W        W39899  29.540   5.212   1.371
71559W        W39900  26.604  39.840  10.037
71560W        W39901  27.066   3.766   4.811
71561W        W39902  36.973  14.231   1.754
71562W        W39903   3.855  41.824   1.392
71563W        W39904   5.416  30.073   0.387
71564W        W39905  14.785  12.645  12.430
71565W        W39906  38.947  12.306  11.047
71566W        W39907  13.753  40.899  11.016
71567W        W39908   1.453  32.434  14.426
71568W        W39909  42.428  28.442   4.187
71569W        W39910  18.066  43.787  14.295
71570W        W39911  34.590  35.977  11.552
71571W        W39912  33.027  41.040   3.146
71572W        W39913   5.321   0.978   2.395
71573W        W39914  29.580  39.023  13.419
71574W        W39915  39.422   2.296   4.699
71575W        W39916  21.651  13.652   4.799
71576W        W39917  15.629  22.551   2.327
71577W        W39918  35.421   1.474  12.868
71578W        W39919   0.309   1.367   1.270
71579W        W39920  41.305  17.636   0.271
71580W        W39921  18.191  11.808   0.250
71581W        W39922  12.619  29.459   3.159
71582W        W39923  29.471   0.490   1.823
71583W        W39924  21.203  39.340   0.414
71584W        W39925   5.833  22.594   3.267
71585W        W39926   8.293  44.833   3.255
71586W        W39927  12.127   7.864   2.261
71587W        W39928  38.881  17.279  14.488
71588W        W39929  14.809   5.832  13.823
71589W        W39930  33.556  34.967   2.283
71590W        W39931  15.122  15.264  10.458
71591W        W39932   4.278  29.638   0.871
71592W        W39933   9.793  14.169  11.565
71593W        W39934  19.212  13.196   4.145
71594W        W39935  30.122  31.606   1.350
71595W        W39936  27.128  24.137   0.320
71596W        W39937  37.951  22.169  13.535
71597W        W39938  12.135  19.059  12.510
71598W        W39939  15.616  16.079   4.664
71599W        W39940  18.074  13.167  12.059
71600W        W39941  22.246  14.680  10.515
71601W        W39942  26.480  19.207  11.549
71602W        W39943  34.873  38.532  13.842
71603W        W39944  29.578  26.104   3.779
71604W        W39945  23.119  29.161   0.752
71605W        W39946  13.202  40.021  10.533
71606W        W39947  37.971  32.603  10.635
71607W        W39948  10.857  41.837  10.533
71608W        W39949  19.065  32.448   1.921
71609W        W39950  21.666  34.394   3.170
71610W        W39951  24.090  28.656  13.815
71611W        W39952   7.331  39.350   1.864
71612W        W39953  17.621  36.979   1.850
71613W        W39954   3.747  31.910   2.700
71614W        W39955  44.794  41.003   4.195
71615W        W39956  12.813  40.004   3.733
71616W        W39957  40.398  13.805  11.906
71617W        W39958   1.783  30.438  13.933
71618W        W39959   3.875  16.600   3.647
71619W        W39960  17.234  25.070  10.500
71620W        W39961  35.403  31.100   2.895
71621W        W39962  29.623  35.537   2.270
71622W        W39963  25.677  18.752  12.502
71623W        W39964  44.424  40.856  10.156
71624W        W39965  38.413  37.011   3.234
71625W        W39966  10.262  17.254   2.689
71626W        W39967  31.089  43.843  10.464
71627W        W39968   1.782  16.272   1.403
71628W        W39969  40.454  15.796   4.770
71629W        W39970  22.599  12.226  11.963
71630W        W39971  43.944  32.063  12.860
71631W        W39972   0.789  34.576  10.454
71632W        W39973  27.021  42.310  10.405
71633W        W39974  36.989   6.827  13.829
71634W        W39975  44.288  17.164  13.384
71635W        W39976  29.118  11.171   2.344
71636W        W39977  23.572  32.916  14.837
71637W        W39978  16.178   9.795   4.834
71638W        W39979  37.515  19.555  11.098
71639W        W39980  11.266  34.447   4.645
71640W        W39981  18.701   9.368  12.471
71641W        W39982  21.609  19.264  11.008
71642W        W39983   9.788   3.740  10.493
71643W        W39984  41.904   0.316  10.581
71644W        W39985  24.108  13.705  12.059
71645W        W39986   8.356   5.386   2.388
71646W        W39987  25.198  23.988   4.249
71647W        W39988  37.966  22.242  12.469
71648W        W39989  20.152  40.929  12.456
71649W        W39990   5.222  13.830  12.517
71650W        W39991  34.094  17.178  13.363
71651W        W39992   3.226  12.624  10.471
71652W        W39993  10.190  17.725   3.665
71653W        W39994   2.262  20.264   0.757
71654W        W39995  31.018  26.668   4.688
71655W        W39996  14.621   2.441   0.881
71656W        W39997  33.513  19.253  11.070
71657W        W39998  27.114  40.509   0.257
71658W        W39999  14.749  41.899  14.887
71659W        W40000  29.971  38.884   0.442
71660W        W40001   3.427  27.601  14.313
71661W        W40002   6.814  23.647  13.898
71662W        W40003  23.182  38.447   0.325
71663W        W40004  42.489  33.085  11.607
71664W        W40005  14.730  18.648  13.335
71665W        W40006  33.584  30.961  10.483
71666W        W40007  21.205  42.948  12.893
71667W        W40008   6.796  29.976   4.655
71668W        W40009  34.080  34.593  12.549
71669W        W40010   2.450  30.652   0.924
71670W        W40011   2.306  24.576   3.280
71671W        W40012  28.574  25.165   1.416
71672W        W40013  27.480  36.990   3.367
71673W        W40014  25.568  40.427   0.368
71674W        W40015  25.552  43.013  11.393
71675W        W40016  26.107  30.943   3.765
71676W        W40017  24.002  34.561  13.912
71677W        W40018   6.422  43.515   3.334
71678W        W40019   1.422  29.960   3.165
71679W        W40020  26.663  17.714   1.935
71680W        W40021  17.730  33.478  12.512
71681W        W40022  20.156  17.563   4.163
71682W        W40023  12.152   2.262  13.494
71683W        W40024   6.908  18.560  12.946
71684W        W40025  32.534  15.258  12.856
71685W        W40026   2.765  31.522  12.930
71686W        W40027  37.860  31.952   4.159
71687W        W40028  25.212  19.258   3.842
71688W        W40029  26.967  31.549   1.409
71689W        W40030  20.606  40.431   1.301
71690W        W40031  41.372  40.846   4.598
71691W        W40032  29.004   1.448  14.328
71692W        W40033   8.660  19.206  13.497
71693W        W40034  37.536  30.091  11.013
71694W        W40035  21.026  39.058   0.838
71695W        W40036  38.822  15.241  11.027
71696W        W40037  24.486  23.497   2.280
71697W        W40038  23.172   0.751  10.410
71698W        W40039  23.995   9.174   0.343
71699W        W40040  11.853   2.307   4.164
71700W        W40041  38.387  39.968  11.898
71701W        W40042  38.057  19.205  12.982
71702W        W40043   1.281  11.329  11.059
71703W        W40044  30.607  36.575   4.304
71704W        W40045  28.482  43.837   0.329
71705W        W40046  28.011  44.299  12.944
71706W        W40047  34.074  34.382   1.382
71707W        W40048  16.176  12.775  14.867
71708W        W40049  35.553  23.079   1.388
71709W        W40050   8.745  42.901   9.959
71710W        W40051  33.103  27.609  13.524
71711W        W40052  40.393  28.989  12.950
71712W        W40053   7.344  28.653  11.095
71713W        W40054   0.812  25.100   0.833
71714W        W40055   0.966  19.576   5.224
71715W        W40056  13.256   3.286  13.342
71716W        W40057   5.285  20.589   3.266
71717W        W40058  36.404  43.486  14.782
71718W        W40059  23.146  40.312   1.444
71719W        W40060  13.169  16.810   2.681
71720W        W40061  22.173  22.633   3.359
71721W        W40062  18.658  23.551   1.298
71722W        W40063  41.879  44.399   2.410
71723W        W40064  24.035  38.513   2.662
71724W        W40065  31.443  13.275   1.876
71725W        W40066   1.743  33.944  14.964
71726W        W40067  24.561  35.403  13.473
71727W        W40068  32.000  10.872  13.483
71728W        W40069  13.319  23.707  14.872
71729W        W40070  14.274  38.022   5.653
71730W        W40071  19.253  10.257  13.831
71731W        W40072  38.480  42.002   0.394
71732W        W40073   7.682  44.887  11.589
71733W        W40074  16.790   4.376  14.832
71734W        W40075  43.342   5.323   3.675
71735W        W40076  42.868  25.708   4.166
71736W        W40077  42.828  11.631  14.436
71737W        W40078  38.826  38.472  13.946
71738W        W40079  17.299  16.073  13.324
71739W        W40080  14.718  36.096   1.250
71740W        W40081  44.004  22.226  12.341
71741W        W40082  17.733   5.265  14.844
71742W        W40083  13.193  37.984   1.342
71743W        W40084  24.596  11.278   2.415
71744W        W40085  39.443  40.902  14.888
71745W        W40086  16.158  27.016   4.350
71746W        W40087   1.772  38.500  13.504
71747W        W40088   8.219  29.645   0.860
71748W        W40089  41.838  17.236   0.881
71749W        W40090   5.924   9.792  12.063
71750W        W40091  29.499   9.763  11.096
71751W        W40092   4.859  33.003  11.489
71752W        W40093  14.129  36.965   2.798
71753W        W40094  12.767  41.399  11.006
71754W        W40095  28.967  12.159  12.479
71755W        W40096  27.544  44.930   1.380
71756W        W40097  34.031  44.356   4.674
71757W        W40098  32.068  41.397   9.933
71758W        W40099  14.289  33.548   1.846
71759W        W40100  37.075  37.941   1.215
71760W        W40101  16.716  16.807  13.321
71761W        W40102  31.455  10.665  13.309
71762W        W40103  31.121  14.686   2.363
71763W        W40104  15.648  16.153  12.975
71764W        W40105  14.637  11.364   2.404
71765W        W40106  30.113  42.801   3.865
71766W        W40107  33.050  42.891   3.308
71767W        W40108   4.270  10.769   3.853
71768W        W40109  17.634  20.059  13.977
71769W        W40110  39.413  24.007  14.966
71770W        W40111  34.079  33.553  14.878
71771W        W40112  41.305  27.142  13.895
71772W        W40113   7.278  33.505   3.789
71773W        W40114  40.047  14.157   3.381
71774W        W40115  29.520  31.101  14.406
71775W        W40116  20.617  27.576  10.590
71776W        W40117  22.717  39.373   4.671
71777W        W40118   5.399  10.230   2.717
71778W        W40119  41.530  31.963   4.137
71779W        W40120  27.551   3.390   2.192
71780W        W40121  29.048  11.702   1.740
71781W        W40122  23.092  25.084  14.892
71782W        W40123  35.600   5.365   4.313
71783W        W40124   5.195  24.186   0.418
71784W        W40125  41.325   4.824  11.461
71785W        W40126   8.802  31.577   3.778
71786W        W40127  30.048   3.268   1.391
71787W        W40128  44.350   5.417  11.566
71788W        W40129  37.865  36.955  10.999
71789W        W40130  37.873  32.453  14.775
71790W        W40131   4.708   7.891   1.351
71791W        W40132   0.460  16.623  11.576
71792W        W40133  23.671  10.877  11.947
71793W        W40134   0.875  24.133  11.092
71794W        W40135  32.549  28.589   4.770
71795W        W40136  23.601  20.221   9.480
71796W        W40137  40.945  13.202  11.934
71797W        W40138   7.867  20.148  13.018
71798W        W40139   0.364  36.551   4.186
71799W        W40140  27.599  30.648   1.367
71800W        W40141  38.522  39.429   3.860
71801W        W40142  18.287   6.904  10.890
71802W        W40143   2.836  41.870   4.197
71803W        W40144   6.323  19.105  10.477
71804W        W40145  18.766  17.135   1.889
71805W        W40146   0.765  30.610   3.170
71806W        W40147   3.342   3.881  12.935
71807W        W40148  42.510  28.039   4.756
71808W        W40149  36.470  44.416   4.232
71809W        W40150  13.307  13.699   3.227
71810W        W40151   0.745  11.231   0.749
71811W        W40152  23.161  34.385  12.071
71812W        W40153  19.170  16.131  12.429
71813W        W40154  26.044  24.694   4.150
71814W        W40155  10.306  34.533  12.570
71815W        W40156  34.873   3.844  10.459
71816W        W40157   9.395   4.321   4.598
71817W        W40158  14.304  16.258  10.931
71818W        W40159  11.713   9.768   0.471
71819W        W40160  41.843  38.901   4.603
71820W        W40161  25.219  38.942   5.140
71821W        W40162  32.141  23.656   2.799
71822W        W40163  38.847  31.623   1.766
71823W        W40164  34.109  41.458   5.090
71824W        W40165  16.125  11.314   2.343
71825W        W40166  14.772  36.015   3.768
71826W        W40167  42.416  22.661  10.890
71827W        W40168  12.155  26.564   0.342
71828W        W40169   3.726   3.315  13.507
71829W        W40170  31.933  19.571   3.716
71830W        W40171  25.504   4.376  14.407
71831W        W40172   9.646   5.854  11.961
71832W        W40173  42.318  12.240  13.406
71833W        W40174   9.306  14.203   4.190
71834W        W40175  33.420   3.933   2.788
71835W        W40176  17.721  30.624  11.598
71836W        W40177  39.934  14.240   3.697
71837W        W40178  23.223   6.819   2.752
71838W        W40179  15.635  39.974   3.720
71839W        W40180  19.196   3.306  14.948
71840W        W40181  12.848  10.653  11.034
71841W        W40182   5.412  15.152  11.128
71842W        W40183  27.453   8.351  12.059
71843W        W40184   6.716  38.407   3.707
71844W        W40185   3.884  22.747  11.373
71845W        W40186  32.113  10.234   2.815
71846W        W40187  16.782   1.373  12.897
71847W        W40188  39.992  21.120  11.420
71848W        W40189  38.435  14.244  12.429
71849W        W40190  33.888  20.723  13.899
71850W        W40191  25.212  35.988  10.592
71851W        W40192  20.099  35.863   5.127
71852W        W40193  13.222   5.921  11.557
71853W        W40194  21.574  18.266  13.964
71854W        W40195  15.085  39.846   0.384
71855W        W40196  10.753  14.589   3.384
71856W        W40197   0.886  18.209   5.307
71857W        W40198  15.217  40.496   0.356
71858W        W40199  19.258  33.118   4.639
71859W        W40200  17.228  36.399   4.740
71860W        W40201  35.996  34.958   2.690
71861W        W40202  28.140  36.927  10.556
71862W        W40203  20.632  22.676   4.261
71863W        W40204  38.954  11.222   0.925
71864W        W40205  33.611  33.625  14.896
71865W        W40206  44.281  34.983   5.105
71866W        W40207  13.750  34.101  11.086
71867W        W40208  39.360  15.680   1.751
71868W        W40209  24.496  31.609   3.273
71869W        W40210  31.959  15.189  13.533
71870W        W40211  39.364  27.652  11.020
71871W        W40212   2.794  10.687   4.734
71872W        W40213  30.456  21.053   1.793
71873W        W40214  37.875  25.043   1.346
71874W        W40215  36.447   4.443  12.050
71875W        W40216  43.911  30.608  11.018
71876W        W40217   0.785   9.175   4.766
71877W        W40218   6.251  25.089   5.222
71878W        W40219   6.854   4.722   3.177
71879W        W40220  18.679  39.062  11.602
71880W        W40221  12.846  12.785  12.989
71881W        W40222  31.959   5.336  13.481
71882W        W40223  38.872  42.009  11.454
71883W        W40224   6.329   0.386   0.939
71884W        W40225  22.728  36.967  14.489
71885W        W40226  12.834  41.462  12.844
71886W        W40227  25.039  22.163   1.698
71887W        W40228  11.828  35.458   1.335
71888W        W40229   3.394   0.248   1.365
71889W        W40230   9.372  25.090   5.100
71890W        W40231   7.248  12.783  11.393
71891W        W40232   1.907  34.584  10.997
71892W        W40233  25.198  41.993  12.039
71893W        W40234  13.253  32.938  14.978
71894W        W40235  35.959  28.147  14.982
71895W        W40236  33.005  11.218   4.631
71896W        W40237  39.314  29.527  12.558
71897W        W40238  40.313  41.957  12.995
71898W        W40239   8.205  12.852   3.364
71899W        W40240  17.282  42.327   2.342
71900W        W40241   3.234  20.719  14.276
71901W        W40242  32.560  13.614  13.441
71902W        W40243  23.157  20.085   2.216
71903W        W40244   5.205  37.939  12.861
71904W        W40245  26.633  10.860  14.426
71905W        W40246  19.280  34.412  14.933
71906W        W40247  33.060   2.422   0.811
71907W        W40248  10.375   8.849  10.632
71908W        W40249  25.161  16.235   0.413
71909W        W40250  17.711  27.582  14.842
71910W        W40251  23.612  42.953  14.986
71911W        W40252  29.009  13.784  11.044
71912W        W40253  37.913  30.527  10.534
71913W        W40254  36.893  43.829   0.321
71914W        W40255   0.256  13.764   0.320
71915W        W40256   9.674  22.612   1.311
71916W        W40257  27.047  10.369   2.228
71917W        W40258  38.501  36.419   3.176
71918W        W40259  43.927  18.265   3.190
71919W        W40260  11.683  33.890  13.457
71920W        W40261   5.365  39.459   2.732
71921W        W40262  18.775  32.002   0.381
71922W        W40263  39.938   9.849   0.334
71923W        W40264  23.626  39.552  10.966
71924W        W40265  12.143   0.310  13.525
71925W        W40266   3.918   3.371   1.245
71926W        W40267  34.865  18.547   3.205
71927W        W40268   4.310   1.858  10.983
71928W        W40269  19.556  44.797   2.690
71929W        W40270   8.357  30.941   3.329
71930W        W40271  15.696   8.804  14.828
71931W        W40272  29.159   2.307  11.601
71932W        W40273  17.259  37.502  13.011
71933W        W40274  35.882  18.182   3.251
71934W        W40275   3.261  40.493   3.757
71935W        W40276  13.138  13.191  14.370
71936W        W40277   9.190  33.991   0.937
71937W        W40278  27.962  13.312   3.634
71938W        W40279  23.107  44.815   3.235
71939W        W40280  17.174   9.754   2.810
71940W        W40281  17.235  18.277  12.438
71941W        W40282   1.887  40.909  11.435
71942W        W40283  31.091  10.152  10.518
71943W        W40284  43.348  24.482  10.618
71944W        W40285  15.308  13.750  10.951
71945W        W40286  26.143  20.669   4.236
71946W        W40287   0.947  15.183   4.724
71947W        W40288  12.855  18.191   4.810
71948W        W40289  20.677   4.389  14.772
71949W        W40290  25.968   0.753  10.992
71950W        W40291  32.499  16.098   0.445
71951W        W40292  30.918  37.469   3.780
71952W        W40293  35.907  12.150   1.438
71953W        W40294  40.343  44.413   5.149
71954W        W40295   7.844  10.634   4.301
71955W        W40296  11.848  43.956  14.835
71956W        W40297  24.610   1.273  12.534
71957W        W40298  17.630   3.347   3.752
71958W        W40299  43.295  26.543   3.340
71959W        W40300  25.173  26.011  13.854
71960W        W40301  43.330  37.046  13.323
71961W        W40302   7.336  27.178  14.932
71962W        W40303  14.178   1.436   3.773
71963W        W40304  43.981   4.890   1.418
71964W        W40305  16.281  18.086  12.082
71965W        W40306  35.064  14.627   0.817
71966W        W40307  32.610  13.645  12.830
71967W        W40308   9.357   1.733  11.900
71968W        W40309  24.655  38.906   0.313
71969W        W40310  38.011  27.132  11.559
71970W        W40311   0.947  30.038   2.383
71971W        W40312   5.316  10.710  13.914
71972W        W40313  40.825   5.845  13.829
71973W        W40314  17.110  10.366  13.381
71974W        W40315  38.960   2.746   3.346
71975W        W40316  38.526  25.513   0.386
71976W        W40317  24.519  14.672   4.181
71977W        W40318  10.175  20.172  10.636
71978W        W40319  26.521  11.176   4.794
71979W        W40320  25.616  34.529  10.156
71980W        W40321  29.629   1.914   1.286
71981W        W40322  13.786  13.257   3.287
71982W        W40323   6.724   3.311   4.647
71983W        W40324  30.562  38.333  12.487
71984W        W40325  24.992   7.236   3.785
71985W        W40326  36.010  26.490  11.531
71986W        W40327  19.771  40.803   4.661
71987W        W40328  29.114  27.971  12.879
71988W        W40329  16.748  26.523  11.992
71989W        W40330  14.142  29.918   3.729
71990W        W40331  30.498  27.986  12.837
71991W        W40332  36.452  24.672   4.790
71992W        W40333   8.835  19.738   0.751
71993W        W40334  24.050  20.613   2.354
71994W        W40335  27.997  27.635  13.466
71995W        W40336  40.304   4.393   0.369
71996W        W40337  26.093   6.907   4.175
71997W        W40338  37.835  16.660   0.307
71998W        W40339  40.377  38.914  14.398
71999W        W40340  13.782   4.443  12.078
72000W        W40341  40.856  44.345  13.017
72001W        W40342  38.561  35.044   2.713
72002W        W40343  37.910  28.178   1.245
72003W        W40344  28.672  42.019  10.954
72004W        W40345   0.398  18.223  13.897
72005W        W40346  26.638  34.903  14.876
72006W        W40347  27.122  11.653  12.487
72007W        W40348   5.229  15.175  10.439
72008W        W40349  37.544  40.833   4.161
72009W        W40350  19.564   9.313   1.388
72010W        W40351  39.825  41.825   0.877
72011W        W40352  36.474  32.432  11.013
72012W        W40353  17.612  32.562  12.476
72013W        W40354  25.675  36.011   0.748
72014W        W40355   9.320  29.551   3.656
72015W        W40356  43.294   3.377  13.487
72016W        W40357  42.295  35.568   3.294
72017W        W40358  39.916  42.866  12.560
72018W        W40359  42.284   0.922   2.276
72019W        W40360  16.762  32.954   4.334
72020W        W40361  21.584  41.788   3.353
72021W        W40362   5.736  12.822   1.415
72022W        W40363   3.324  14.195  14.917
72023W        W40364  17.698  13.759   4.807
72024W        W40365  42.521  30.975  13.054
72025W        W40366  23.493  12.234  14.506
72026W        W40367   7.668  21.087  12.391
72027W        W40368  35.978  25.597  10.417
72028W        W40369   3.932  43.395  10.601
72029W        W40370  35.592  10.312   1.720
72030W        W40371  26.108   7.352   0.852
72031W        W40372  39.435  15.641  14.451
72032W        W40373  39.989  32.524   2.728
72033W        W40374  34.613   1.806   2.837
72034W        W40375  20.204  37.959  12.856
72035W        W40376  23.068   6.871  10.513
72036W        W40377  10.384  25.054  12.851
72037W        W40378  30.467   1.913  10.455
72038W        W40379  37.859  13.286  13.852
72039W        W40380  37.073  19.272   0.425
72040W        W40381   3.786   2.317   1.414
72041W        W40382  11.630  29.057  14.389
72042W        W40383  28.063  16.145  12.395
72043W        W40384   1.295  14.171  10.497
72044W        W40385  17.571  38.869  12.384
72045W        W40386  28.544  44.499  14.444
72046W        W40387  23.147  37.498   4.261
72047W        W40388  26.045   0.385  14.944
72048W        W40389  15.276   8.262  11.928
72049W        W40390  44.422   1.405   2.344
72050W        W40391  25.702  34.992   3.370
72051W        W40392   9.256  29.100  14.465
72052W        W40393  15.580  14.112   4.652
72053W        W40394   3.244  41.428   9.938
72054W        W40395   2.892  25.173  11.458
72055W        W40396  10.361  36.094  14.462
72056W        W40397  18.611  22.031   2.334
72057W        W40398  26.064  35.394  14.905
72058W        W40399   5.843  44.873   0.768
72059W        W40400  21.108  24.142   3.832
72060W        W40401   4.237   2.272  12.023
72061W        W40402   4.210  27.101  11.532
72062W        W40403  27.034  19.284  11.582
72063W        W40404  36.525  22.629   3.722
72064W        W40405   2.449  17.224  14.404
72065W        W40406  35.023  16.578  12.978
72066W        W40407   2.779  42.888  13.865
72067W        W40408   0.787  34.872   4.661
72068W        W40409  23.103  17.235   1.338
72069W        W40410  38.902  42.928  14.362
72070W        W40411  32.106  18.656   1.887
72071W        W40412   4.798  12.718  11.486
72072W        W40413  32.472  13.662  11.872
72073W        W40414  38.909  38.998  14.432
72074W        W40415  10.794   0.808   1.414
72075W        W40416  10.733  10.864   0.909
72076W        W40417  17.149  37.469  13.480
72077W        W40418  14.104  10.153  14.818
72078W        W40419   5.802  18.113  12.350
72079W        W40420  13.126   8.358  11.566
72080W        W40421  36.543  17.716   4.661
72081W        W40422  42.311  34.408   4.283
72082W        W40423   9.725   5.799   3.307
72083W        W40424  34.413  43.508  12.868
72084W        W40425  13.804   1.827   0.781
72085W        W40426  27.566   0.383  14.464
72086W        W40427  39.920  35.913  12.054
72087W        W40428  23.723  10.329  10.483
72088W        W40429  10.847  15.603   4.209
72089W        W40430  20.663  12.132  12.988
72090W        W40431  33.930   9.792   1.347
72091W        W40432  11.318  12.321   4.341
72092W        W40433   6.697   7.288  13.811
72093W        W40434  16.609  10.650   3.745
72094W        W40435  10.302  30.508   0.897
72095W        W40436  32.997  44.276  12.351
72096W        W40437  38.940  37.038  10.037
72097W        W40438  12.796  34.447   3.775
72098W        W40439  37.444  26.533  12.480
72099W        W40440  38.355  16.590   0.751
72100W        W40441  29.977  27.488  13.371
72101W        W40442  28.963  28.076   3.844
72102W        W40443  12.256  25.972  12.370
72103W        W40444  17.771   7.396  12.907
72104W        W40445  36.938  20.759  13.364
72105W        W40446  28.556  16.609   3.379
72106W        W40447  17.666  24.547   3.198
72107W        W40448   9.883  29.424   4.610
72108W        W40449  11.854  11.853  14.944
72109W        W40450  11.639   7.264   1.703
72110W        W40451  31.642  10.726  14.298
72111W        W40452  44.929  28.035  14.829
72112W        W40453  17.627  35.067   1.338
72113W        W40454   7.211  12.759  13.357
72114W        W40455  29.500  37.878   4.149
72115W        W40456  31.051  23.564   1.428
72116W        W40457  33.936  31.554   0.472
72117W        W40458  29.529  12.327   2.187
72118W        W40459  37.967  39.895   4.641
72119W        W40460   0.424  32.554   0.417
72120W        W40461  11.237   9.294   0.736
72121W        W40462  24.480  35.063   2.768
72122W        W40463  19.248  15.241   4.758
72123W        W40464  38.461  30.976   2.221
72124W        W40465  21.157  22.648  10.576
72125W        W40466   2.925   0.793   1.440
72126W        W40467  19.118  42.281  14.413
72127W        W40468   3.911  23.008  11.485
72128W        W40469  20.687   0.317   0.818
72129W        W40470   6.305   7.782   3.844
72130W        W40471  13.309  18.573  14.885
72131W        W40472  24.190  28.004  11.551
72132W        W40473   4.736  17.561  12.508
72133W        W40474  36.938  10.766  12.896
72134W        W40475  10.356  44.863   3.162
72135W        W40476  29.489   6.310  12.357
72136W        W40477  12.226  10.229   2.273
72137W        W40478   7.215  30.481  11.413
72138W        W40479  19.268  37.878   0.363
72139W        W40480  37.906  30.502   0.322
72140W        W40481  10.354  32.912   3.793
72141W        W40482   9.303  12.148   4.724
72142W        W40483  11.825  37.481   3.848
72143W        W40484  20.081  38.482   2.287
72144W        W40485  39.342  42.331  11.899
72145W        W40486   8.845  12.837  13.539
72146W        W40487  31.977   7.828   2.276
72147W        W40488  36.939  13.239  13.845
72148W        W40489  17.085  35.978  14.450
72149W        W40490  43.343  22.164   4.127
72150W        W40491  43.773  27.087  11.947
72151W        W40492  23.654  36.919  13.335
72152W        W40493  31.642  37.476   1.342
72153W        W40494  11.795   8.828  12.028
72154W        W40495  37.581  23.146   3.726
72155W        W40496   4.447  37.028   1.228
72156W        W40497  10.374  33.088  11.932
72157W        W40498  43.351  43.004   5.317
72158W        W40499  42.466   9.835  13.880
72159W        W40500  41.310   2.805   4.243
72160W        W40501  35.056  34.484  10.934
72161W        W40502  18.699  10.878  12.358
72162W        W40503  14.152   1.856  12.872
72163W        W40504  17.618  29.495  13.522
72164W        W40505  19.604   9.864   2.346
72165W        W40506   8.893  17.798   4.673
72166W        W40507  37.989  32.104  14.888
72167W        W40508  37.080   9.840  11.042
72168W        W40509  37.977   3.951   2.759
72169W        W40510  26.119  30.017   3.213
72170W        W40511  25.027  34.899  12.515
72171W        W40512  29.474  10.817   0.278
72172W        W40513  11.859  34.047  14.803
72173W        W40514  39.051  39.064   3.780
72174W        W40515  26.671  44.418   3.634
72175W        W40516  27.043   7.889   1.352
72176W        W40517  19.261  30.134  14.316
72177W        W40518  14.140  25.109  14.879
72178W        W40519   4.260  35.058  14.394
72179W        W40520  28.482  40.809   2.797
72180W        W40521  22.654  36.968   2.704
72181W        W40522  15.168  11.348  12.993
72182W        W40523  12.199  27.672   0.889
72183W        W40524  27.612  14.811  12.523
72184W        W40525   4.380  34.080  11.606
72185W        W40526  22.131   3.845  13.385
72186W        W40527  20.648  34.449  14.995
72187W        W40528  18.790  29.545  13.458
72188W        W40529  24.087  14.676   3.838
72189W        W40530  20.092  17.674  14.901
72190W        W40531  42.503  34.378  14.286
72191W        W40532   2.812  38.845  12.865
72192W        W40533  20.558  17.129  11.018
72193W        W40534  42.003  24.203  11.409
72194W        W40535  36.540  15.096  13.916
72195W        W40536   2.833  26.110  12.419
72196W        W40537  33.567  21.035   2.292
72197W        W40538  23.577  26.591  13.816
72198W        W40539  26.153  43.957  13.524
72199W        W40540  24.588  31.034  12.382
72200W        W40541  42.982  32.504  10.409
72201W        W40542  33.564  28.655  14.785
72202W        W40543  37.972   4.933  10.639
72203W        W40544  28.032  39.925   1.399
72204W        W40545  39.055  40.839  14.916
72205W        W40546   5.219  33.424   4.669
72206W        W40547  34.506   0.903  11.460
72207W        W40548  36.014  21.021  11.569
72208W        W40549   9.179  35.517  11.532
72209W        W40550  32.931  19.134   0.442
72210W        W40551  27.047   7.408  11.599
72211W        W40552  25.968  11.826  13.442
72212W        W40553  30.498  28.500  13.995
72213W        W40554  15.291  10.229  14.430
72214W        W40555  31.470  31.537  14.498
72215W        W40556   6.421  10.789   4.680
72216W        W40557  29.063  36.009  12.404
72217W        W40558  30.143   8.853   2.887
72218W        W40559   1.848   6.383  11.540
72219W        W40560  14.615  21.578   3.821
72220W        W40561  24.723  16.195   0.796
72221W        W40562  19.647  40.959   3.261
72222W        W40563  38.527   6.234   4.297
72223W        W40564  20.111  15.153   3.364
72224W        W40565   0.964  32.440   4.201
72225W        W40566   8.365  37.476  14.856
72226W        W40567   9.882   2.729  14.014
72227W        W40568  42.026  39.020  11.052
72228W        W40569  19.066  35.525  14.007
72229W        W40570  26.653  15.712  12.878
72230W        W40571  34.578  19.100  11.489
72231W        W40572  26.635   3.225   3.261
72232W        W40573  34.388   7.846  12.053
72233W        W40574  11.867  37.367  12.836
72234W        W40575  36.855  12.648  14.993
72235W        W40576  33.926  18.197  12.880
72236W        W40577  40.368   5.398  12.918
72237W        W40578   2.794  38.891  13.401
72238W        W40579  36.568  26.479  13.345
72239W        W40580  18.212  30.071  11.485
72240W        W40581  32.394  30.539  12.498
72241W        W40582  20.145  16.700  12.036
72242W        W40583  30.459   8.403   2.417
72243W        W40584  23.196  22.098  10.418
72244W        W40585  43.381  18.243  11.079
72245W        W40586  18.156  42.498  13.502
72246W        W40587  37.913   2.738  13.477
72247W        W40588  34.511  17.302   0.871
72248W        W40589   7.213  25.640   3.692
72249W        W40590  25.060   9.386   1.922
72250W        W40591  10.649  25.982   1.815
72251W        W40592  13.840  36.543  10.893
72252W        W40593  35.994  28.680  14.938
72253W        W40594  34.393   8.212  13.432
72254W        W40595  38.975  16.172  13.521
72255W        W40596   3.726  10.212   0.789
72256W        W40597  26.206  36.427  13.355
72257W        W40598   9.682  27.082  11.596
72258W        W40599   5.311  30.577  12.945
72259W        W40600  32.931  32.563  14.932
72260W        W40601   9.696  20.060   3.733
72261W        W40602   7.669  25.503   2.842
72262W        W40603  24.115  31.488  13.834
72263W        W40604   5.842  25.493  13.940
72264W        W40605  13.157  24.682   1.915
72265W        W40606   4.212   0.399   3.359
72266W        W40607   3.317  40.886   2.292
72267W        W40608  43.385   4.757  10.926
72268W        W40609  21.025  32.950   3.820
72269W        W40610  11.628   6.780   2.199
72270W        W40611   4.345  32.482  14.355
72271W        W40612  18.248  13.836   2.847
72272W        W40613  38.068  22.022   0.820
72273W        W40614   5.828  27.060   4.783
72274W        W40615   4.707  24.623  14.329
72275W        W40616  14.801  38.429   5.645
72276W        W40617  34.869  13.175  12.863
72277W        W40618   1.261   8.348   3.827
72278W        W40619  37.374  20.732  14.869
72279W        W40620  11.230  40.877  12.992
72280W        W40621   8.677  30.125  13.921
72281W        W40622  23.108  18.232  10.106
72282W        W40623  13.816  38.467   1.703
72283W        W40624  33.538  42.795  13.897
72284W        W40625  38.440  14.300  13.521
72285W        W40626  44.945  33.529  10.913
72286W        W40627  29.533  43.999   3.261
72287W        W40628  35.564   4.285   3.860
72288W        W40629   7.856   5.251  13.985
72289W        W40630  37.040  18.140   4.697
72290W        W40631  10.313   8.175  12.421
72291W        W40632  22.164  19.257  12.577
72292W        W40633  14.195  30.655   2.815
72293W        W40634  39.819  36.554  11.030
72294W        W40635  35.052  40.523   2.405
72295W        W40636  27.544   2.812   0.398
72296W        W40637  28.966   9.647   4.115
72297W        W40638  24.558  25.604   4.271
72298W        W40639   3.870  42.352  12.511
72299W        W40640   5.214  36.955  14.809
72300W        W40641  20.584  22.512  13.511
72301W        W40642   8.826  11.753   4.697
72302W        W40643  39.000  41.864   5.134
72303W        W40644  25.586  29.542   9.938
72304W        W40645  17.597  38.401  13.807
72305W        W40646  11.693  35.889  12.986
72306W        W40647  15.119  13.323   3.823
72307W        W40648  36.984  25.647   2.210
72308W        W40649  32.620  41.813  13.527
72309W        W40650  17.577  31.476   5.234
72310W        W40651  31.927   2.809   0.386
72311W        W40652   3.744  38.825  10.496
72312W        W40653  43.275   1.926  13.418
72313W        W40654  26.677   5.920   2.893
72314W        W40655  42.846   6.343  11.069
72315W        W40656  42.827  27.674   4.789
72316W        W40657  40.371  44.395   4.649
72317W        W40658  35.576  17.693  12.499
72318W        W40659  25.562  16.102  13.473
72319W        W40660  18.219  12.762  10.548
72320W        W40661  23.991  27.080   5.692
72321W        W40662  14.796  19.614   0.867
72322W        W40663  37.919  14.210   0.383
72323W        W40664   5.243   9.718   3.157
72324W        W40665  33.120  12.212   3.714
72325W        W40666   3.843  41.031   2.729
72326W        W40667  42.853  19.206  11.402
72327W        W40668  37.927   2.234  11.520
72328W        W40669  23.717  15.586   4.158
72329W        W40670  34.073  11.686  14.388
72330W        W40671  29.534  41.806  10.896
72331W        W40672  12.131  14.619   4.832
72332W        W40673  21.604  30.926   2.702
72333W        W40674  21.149   6.310  11.094
72334W        W40675  20.165  18.207   1.332
72335W        W40676   2.425   6.415  11.558
72336W        W40677  29.656  42.858   2.685
72337W        W40678  15.589  15.177   3.722
72338W        W40679   7.847  20.639  12.980
72339W        W40680  12.779  34.433  11.469
72340W        W40681  34.968  34.118   4.315
72341W        W40682  44.912   5.753  13.400
72342W        W40683  30.075  38.519   3.819
72343W        W40684  40.399  12.751   1.724
72344W        W40685  23.591   3.218   4.342
72345W        W40686   9.168  29.444  13.818
72346W        W40687  34.088  35.071   1.895
72347W        W40688  35.414   5.204  14.334
72348W        W40689   2.381   6.748  14.459
72349W        W40690  42.799  16.650  13.031
72350W        W40691   7.776   5.222  14.955
72351W        W40692  22.674  23.197  13.877
72352W        W40693  44.842  29.551  12.013
72353W        W40694   0.895  30.627   1.785
72354W        W40695  29.037  21.523   4.324
72355W        W40696  39.016   6.357  13.016
72356W        W40697  21.023   9.233   4.242
72357W        W40698   9.228  25.062   9.938
72358W        W40699  37.943   0.766  11.943
72359W        W40700  16.725  28.154  12.088
72360W        W40701  33.611  30.632   1.750
72361W        W40702  24.126  39.952   0.391
72362W        W40703  23.175  21.154  11.423
72363W        W40704  18.576  25.174   3.357
72364W        W40705  43.352  29.167   0.469
72365W        W40706  28.436  17.138   1.924
72366W        W40707  39.843  41.350   5.316
72367W        W40708   4.918  32.936  14.004
72368W        W40709  30.541   2.459  12.363
72369W        W40710  26.977  31.936  13.918
72370W        W40711   7.413  12.770   4.656
72371W        W40712  21.051   3.845   1.760
72372W        W40713  13.686  35.952  14.366
72373W        W40714   7.906  31.618  11.583
72374W        W40715  14.642  21.223   9.970
72375W        W40716  37.834   3.897   1.294
72376W        W40717   9.883   4.384   3.294
72377W        W40718  37.942  14.220   4.189
72378W        W40719  34.923   3.778  11.926
72379W        W40720  42.301   6.249  10.544
72380W        W40721   1.791  28.017   0.900
72381W        W40722  14.236  41.022   4.293
72382W        W40723  36.476  24.695   2.382
72383W        W40724   0.400  16.256  14.978
72384W        W40725  12.150  41.007  11.988
72385W        W40726  33.475  33.077  10.964
72386W        W40727  43.473  32.539  13.822
72387W        W40728  29.105  35.896  11.920
72388W        W40729  33.041  25.633  14.774
72389W        W40730  14.641  33.018  10.970
72390W        W40731  11.656   5.797  13.978
72391W        W40732  34.004  24.015   2.246
72392W        W40733  33.926  43.352  12.072
72393W        W40734  15.158  16.319  13.035
72394W        W40735  43.849   3.738  10.596
72395W        W40736  25.699  11.803   3.866
72396W        W40737  34.589  36.917  12.486
72397W        W40738  27.487  29.447   4.599
72398W        W40739  13.656   0.830  14.324
72399W        W40740  44.281  21.591  10.897
72400W        W40741  29.042  38.824  12.847
72401W        W40742  27.061   6.793   4.130
72402W        W40743  13.223  29.050  11.005
72403W        W40744   8.680  26.054  14.440
72404W        W40745  10.382   3.261  14.303
72405W        W40746  42.503  14.821  11.562
72406W        W40747  25.625  22.630   4.305
72407W        W40748  17.769   3.887  11.112
72408W        W40749  37.880  17.577  12.394
72409W        W40750  31.130  17.165   2.289
72410W        W40751  38.398  15.199   2.258
72411W        W40752   2.363  37.867  13.846
72412W        W40753   5.832  15.646   2.397
72413W        W40754  42.833  35.876   2.772
72414W        W40755  41.504  34.099   0.830
72415W        W40756  11.307  12.762   3.161
72416W        W40757  37.531  42.440  13.797
72417W        W40758   8.169  27.103   0.315
72418W        W40759  41.527  39.009  14.380
72419W        W40760  17.263  24.061  12.432
72420W        W40761  21.692  29.004  11.917
72421W        W40762   3.859   8.716  13.905
72422W        W40763   5.316   5.240  14.979
72423W        W40764  29.571  33.566   2.781
72424W        W40765  24.542   3.372  11.613
72425W        W40766   1.934  31.029  13.915
72426W        W40767   0.977  24.645  10.541
72427W        W40768  34.059  35.075  13.008
72428W        W40769  10.285  36.470  11.590
72429W        W40770   7.241  24.206   1.922
72430W        W40771  40.417   3.819  14.912
72431W        W40772  42.936  28.673   4.736
72432W        W40773  40.821  42.421  12.392
72433W        W40774  16.296  38.370   0.753
72434W        W40775  24.592  34.523   2.343
72435W        W40776  20.147  44.480   2.900
72436W        W40777  16.109  24.081  13.032
72437W        W40778  37.435  35.980  13.466
72438W        W40779  35.604  39.983  14.836
72439W        W40780  37.388  15.096   3.386
72440W        W40781   0.338  15.161   1.325
72441W        W40782  33.582  38.365   0.296
72442W        W40783  18.094   8.825  12.825
72443W        W40784  17.560  39.894  10.469
72444W        W40785  32.570  33.013  12.995
72445W        W40786  11.235  27.651   2.419
72446W        W40787  23.020  22.555  11.494
72447W        W40788  27.663  17.590   3.633
72448W        W40789   1.960  20.698   0.796
72449W        W40790  30.640   7.905   2.894
72450W        W40791   1.883  20.555   0.390
72451W        W40792  24.113  27.614  11.045
72452W        W40793   4.422  26.703  10.635
72453W        W40794  20.667   3.317   3.778
72454W        W40795   8.198  44.918  14.809
72455W        W40796  27.123  15.743   3.265
72456W        W40797  31.476  23.092  11.059
72457W        W40798  38.032  43.899   4.312
72458W        W40799   1.250  41.452   0.833
72459W        W40800  38.956   3.233  10.093
72460W        W40801  13.641  19.182  13.524
72461W        W40802  44.500  25.613  11.389
72462W        W40803  43.786   8.235   4.205
72463W        W40804  14.271  36.023  11.378
72464W        W40805  23.671   8.825   4.794
72465W        W40806   3.752  14.622   0.758
72466W        W40807  16.680   2.308   2.761
72467W        W40808  19.588  44.373  12.552
72468W        W40809   1.753  26.486  12.498
72469W        W40810  35.490   1.947  12.915
72470W        W40811  27.116   0.805   2.307
72471W        W40812   5.417  20.653   1.276
72472W        W40813  39.494  17.739  11.420
72473W        W40814  11.719  43.978   0.305
72474W        W40815   8.332   7.769  14.892
72475W        W40816  36.560   2.280  14.866
72476W        W40817  25.134  29.541   0.334
72477W        W40818  16.617  28.062  10.583
72478W        W40819  24.649  32.925   3.649
72479W        W40820   2.263   2.254  11.875
72480W        W40821  41.441  15.591  13.470
72481W        W40822  13.299  15.316   3.353
72482W        W40823  37.852  39.991  14.770
72483W        W40824   5.845  33.939   3.356
72484W        W40825  33.053   3.358   2.862
72485W        W40826  13.137  39.841  12.902
72486W        W40827  41.029  31.472  11.057
72487W        W40828  25.588  39.959   4.239
72488W        W40829  33.057   7.183   4.598
72489W        W40830  13.749  20.714   1.363
72490W        W40831  36.958  25.078   3.307
72491W        W40832  28.040  10.153   3.778
72492W        W40833  25.643  28.637   3.814
72493W        W40834  17.239  15.129   1.872
72494W        W40835  32.585  28.130  13.985
72495W        W40836   1.832  24.121  10.489
72496W        W40837  26.096  44.000  12.420
72497W        W40838  26.196  20.060   3.203
72498W        W40839   3.760  37.982  11.911
72499W        W40840   5.854  32.133   0.474
72500W        W40841  12.711  39.033  14.492
72501W        W40842  14.636  17.147  12.463
72502W        W40843   4.941  12.790   2.200
72503W        W40844  21.256  36.457  14.303
72504W        W40845   5.689  19.256  11.065
72505W        W40846  13.842   2.945  10.947
72506W        W40847  21.534  44.777  11.993
72507W        W40848  11.208  22.591  14.820
72508W        W40849  12.132  26.569   3.241
72509W        W40850  20.544  35.482   4.138
72510W        W40851  41.984  17.218   3.789
72511W        W40852   0.774  20.196   4.149
72512W        W40853  25.655   1.470  13.380
72513W        W40854  37.058  35.404   4.176
72514W        W40855  20.268  22.614  13.501
72515W        W40856   4.275  12.348  14.959
72516W        W40857  18.709  26.113   0.374
72517W        W40858  37.443  43.793  11.608
72518W        W40859  35.457   7.256  14.511
72519W        W40860  40.465  32.094   4.131
72520W        W40861  17.566  39.344   2.858
72521W        W40862  42.502  35.465  11.033
72522W        W40863  14.807  17.269   3.166
72523W        W40864  12.175   3.754   2.276
72524W        W40865   8.786   3.288   3.357
72525W        W40866  31.586  11.720   2.792
72526W        W40867  32.005  15.802  11.594
72527W        W40868  39.968  23.602   3.788
72528W        W40869  20.547  13.613   0.409
72529W        W40870   6.872  42.337  13.009
72530W        W40871  21.134  13.831  13.409
72531W        W40872  30.960  32.122  13.981
72532W        W40873  33.035  39.977   1.824
72533W        W40874  32.589  29.138  10.501
72534W        W40875  16.630  26.496  11.482
72535W        W40876  32.444  39.822  13.017
72536W        W40877  19.723   0.304  10.497
72537W        W40878  21.193   5.382   0.923
72538W        W40879   9.784  44.814   4.199
72539W        W40880  11.670  18.156  14.011
72540W        W40881  26.177  14.761   4.783
72541W        W40882  31.073  38.877  11.968
72542W        W40883  24.678   3.791  11.065
72543W        W40884  12.170  41.908   4.209
72544W        W40885  32.614  41.298  13.999
72545W        W40886  11.308   4.301  14.830
72546W        W40887  35.893  34.461   0.259
72547W        W40888  37.558  38.907  11.125
72548W        W40889  42.932  20.617  13.333
72549W        W40890  34.550  23.045   4.117
72550W        W40891   7.331  41.987   1.427
72551W        W40892  16.072  30.963  14.278
72552W        W40893   7.892  19.277  11.121
72553W        W40894  40.846  19.064  12.529
72554W        W40895  19.642  33.031  12.082
72555W        W40896  12.813  34.493  14.931
72556W        W40897  35.049  36.549  11.499
72557W        W40898  28.523   8.780  13.027
72558W        W40899  14.726  25.025  10.640
72559W        W40900  11.263  44.272   0.435
72560W        W40901  25.075  42.341  14.491
72561W        W40902  32.517   5.713   3.370
72562W        W40903  12.213   3.381   2.318
72563W        W40904  24.711  13.763  13.343
72564W        W40905  12.782  22.585   2.761
72565W        W40906   5.880  11.328   4.208
72566W        W40907   3.824  28.492  14.936
72567W        W40908  25.056  38.465  13.962
72568W        W40909  16.244   8.808  12.515
72569W        W40910  38.896  25.041   1.246
72570W        W40911   6.381   3.934   4.773
72571W        W40912   7.704  23.206   4.690
72572W        W40913  41.352  40.916  14.337
72573W        W40914  37.903  31.151  10.898
72574W        W40915  32.113  28.478   3.822
72575W        W40916   3.447  32.964  12.511
72576W        W40917  24.120  28.442   0.425
72577W        W40918  42.017  28.048  14.471
72578W        W40919  24.057   5.753  13.524
72579W        W40920  11.332  35.521  13.803
72580W        W40921  23.011   3.287  10.541
72581W        W40922  33.503  31.965  13.938
72582W        W40923  16.279   8.364   2.817
72583W        W40924  15.208  35.492   3.788
72584W        W40925  12.726   4.218  10.559
72585W        W40926  19.214  33.451   3.195
72586W        W40927   2.233   0.958   2.290
72587W        W40928  14.332  10.195  13.548
72588W        W40929  43.321  32.631   3.220
72589W        W40930   2.738  17.159   0.333
72590W        W40931  40.511   0.374   3.870
72591W        W40932  18.545   2.840   4.240
72592W        W40933  37.889  16.293   3.737
72593W        W40934  30.591   5.318   3.327
72594W        W40935  28.119  27.647  11.451
72595W        W40936   3.282  11.279   4.744
72596W        W40937  35.954   9.372   2.390
72597W        W40938  39.962  11.741  13.861
72598W        W40939  24.043  13.324   1.392
72599W        W40940  42.829  35.067  11.440
72600W        W40941  19.143  16.225   2.404
72601W        W40942  44.366  38.377   4.680
72602W        W40943  42.449  30.915   2.807
72603W        W40944  19.595  42.448  11.116
72604W        W40945  17.256  29.930  11.543
72605W        W40946  28.618  33.484  12.857
72606W        W40947  19.121  11.145  14.900
72607W        W40948  21.126   5.276   4.791
72608W        W40949  12.646  31.146   0.287
72609W        W40950  35.079   7.313  12.986
72610W        W40951  20.547   5.214  14.358
72611W        W40952  32.981  44.422  10.158
72612W        W40953  36.586  20.173  11.907
72613W        W40954  31.633  13.690  14.800
72614W        W40955  41.446  18.560  13.469
72615W        W40956  35.942  18.181   4.760
72616W        W40957  42.466  41.967  13.527
72617W        W40958   9.203  24.503   4.221
72618W        W40959  37.449  39.856  14.032
72619W        W40960   6.387  39.321   0.793
72620W        W40961  18.263  20.592   0.758
72621W        W40962  39.473  42.950  11.523
72622W        W40963  25.985  25.471   1.888
72623W        W40964  24.607  11.760  14.345
72624W        W40965  14.589  39.429   2.405
72625W        W40966   4.272  14.150  13.935
72626W        W40967  40.870  30.952  11.069
72627W        W40968   5.875   6.328   0.800
72628W        W40969   1.907  36.063   1.825
72629W        W40970   0.879   3.846  11.013
72630W        W40971  40.346  13.330  13.004
72631W        W40972  26.585  40.454   0.313
72632W        W40973  43.921  33.428   0.291
72633W        W40974  13.162  40.371  11.956
72634W        W40975   6.873   5.195  14.856
72635W        W40976   1.735  30.607   2.419
72636W        W40977  38.974   4.442  11.516
72637W        W40978  44.366   7.192  10.607
72638W        W40979  27.979  18.104   4.276
72639W        W40980  39.859  22.715   2.869
72640W        W40981  28.061   6.413  14.936
72641W        W40982  19.666  32.936  13.045
72642W        W40983   9.285  42.334  10.892
72643W        W40984  20.258  30.589   0.264
72644W        W40985  22.501  23.624   2.398
72645W        W40986   3.875  13.822   2.224
72646W        W40987  43.281  41.012   2.411
72647W        W40988  24.671  29.053   5.255
72648W        W40989  37.441  17.305   1.870
72649W        W40990   6.736  11.365  10.988
72650W        W40991  25.708   3.323   1.739
72651W        W40992  40.936  34.466  12.542
72652W        W40993   0.926  28.993   3.363
72653W        W40994  35.985  28.127   3.678
72654W        W40995  22.015  20.056   0.270
72655W        W40996   4.848   6.777  12.079
72656W        W40997  14.142   9.280  13.327
72657W        W40998   0.909  40.313   1.723
72658W        W40999  16.196  11.705  11.380
72659W        W41000  32.457  36.567  11.568
72660W        W41001   0.757  25.034  13.894
72661W        W41002  26.663  21.211  11.377
72662W        W41003  39.874   8.385   2.902
72663W        W41004  28.656   6.768   3.858
72664W        W41005  27.053  31.490  14.394
72665W        W41006  18.738   5.217  13.812
72666W        W41007  23.561  15.738   2.681
72667W        W41008  32.961  25.019  14.932
72668W        W41009  21.679  32.491   1.438
72669W        W41010  41.981  11.136   4.223
72670W        W41011  39.868  42.390  10.618
72671W        W41012  44.456  43.443  13.974
72672W        W41013  14.177  19.547  13.941
72673W        W41014   5.244  30.077   2.806
72674W        W41015  21.129   6.201   1.758
72675W        W41016  22.249  10.795  10.498
72676W        W41017  28.650  43.399   0.342
72677W        W41018  20.633   7.850  12.502
72678W        W41019  20.124  24.552  13.404
72679W        W41020  26.532  14.100  11.045
72680W        W41021  11.717  23.055  11.513
72681W        W41022  35.947  21.102   3.637
72682W        W41023   0.412   6.850  14.437
72683W        W41024  30.568  27.135   3.813
72684W        W41025  34.063  39.845  13.417
72685W        W41026  25.594  19.257   1.378
72686W        W41027  17.649   5.902  13.007
72687W        W41028  44.936  43.273  11.492
72688W        W41029  12.120  15.737  10.465
72689W        W41030  14.121  13.812  13.513
72690W        W41031  23.613  22.516  13.967
72691W        W41032  15.599  44.808   1.450
72692W        W41033  27.559  40.007  14.885
72693W        W41034   0.297  31.102  14.343
72694W        W41035  11.855  38.058   9.943
72695W        W41036  32.047  11.296   2.236
72696W        W41037  25.977  38.886  10.072
72697W        W41038  30.136  30.531   3.635
72698W        W41039  25.533  27.189  14.408
72699W        W41040  17.576  37.964  12.904
72700W        W41041   7.413  13.268   1.248
72701W        W41042   5.204  14.749   0.950
72702W        W41043  26.658  20.248  13.026
72703W        W41044  19.556  27.675  12.923
72704W        W41045  31.525  21.037   0.315
72705W        W41046   8.725  37.075   0.258
72706W        W41047  18.668  39.866   0.466
72707W        W41048  29.133  26.550   1.260
72708W        W41049   2.953  30.994  12.446
72709W        W41050  17.256  23.650   2.794
72710W        W41051  34.066   5.877   4.291
72711W        W41052   7.725  26.951   2.686
72712W        W41053  22.638   0.790  14.473
72713W        W41054  11.338  23.639  10.496
72714W        W41055  14.106  35.534   2.284
72715W        W41056  31.897  23.103   0.346
72716W        W41057   2.826  41.820  11.970
72717W        W41058  44.877  26.965  13.423
72718W        W41059  23.063  34.951  14.896
72719W        W41060  32.006  12.312   3.683
72720W        W41061  28.080   4.434  10.577
72721W        W41062  24.605  13.251   0.916
72722W        W41063   2.255  30.930  11.605
72723W        W41064  28.982  38.483  12.579
72724W        W41065  37.996  40.333   4.117
72725W        W41066  11.189   6.823   1.891
72726W        W41067  20.754  24.993  13.805
72727W        W41068  21.165  17.603  11.096
72728W        W41069   3.419  39.441  13.017
72729W        W41070  34.525  35.008   1.789
72730W        W41071  36.383  11.130   2.880
72731W        W41072  32.045  43.857   0.460
72732W        W41073  13.640   5.813  10.575
72733W        W41074   7.684   7.194   1.887
72734W        W41075  12.643   8.878  12.017
72735W        W41076  11.298  30.132  13.333
72736W        W41077  25.524  44.481   4.671
72737W        W41078  20.029  25.181   3.213
72738W        W41079  19.750   8.181   4.189
72739W        W41080  40.802  44.757   0.446
72740W        W41081  21.245  24.208  14.484
72741W        W41082   3.358  42.852  11.886
72742W        W41083  12.751  24.172   4.186
72743W        W41084   0.440  35.062  13.411
72744W        W41085  13.732  10.271   1.385
72745W        W41086   4.261  34.581   4.136
72746W        W41087  43.445   1.910   4.141
72747W        W41088   9.661  20.710  11.083
72748W        W41089  15.647  29.440  14.504
72749W        W41090  14.830   7.371  14.470
72750W        W41091   0.341   9.250   3.204
72751W        W41092  39.374  43.879  12.832
72752W        W41093  16.155  22.688   4.212
72753W        W41094  41.379  38.359  13.976
72754W        W41095  40.921  29.550  13.357
72755W        W41096  31.897  23.207   3.638
72756W        W41097  15.145  24.067  11.949
72757W        W41098  26.700  40.884   3.368
72758W        W41099  13.657  42.802   1.880
72759W        W41100  43.299  25.078  12.872
72760W        W41101  22.995  33.906  10.495
72761W        W41102   8.242  32.554  13.001
72762W        W41103  29.426   3.829   2.738
72763W        W41104  33.488   1.883   4.750
72764W        W41105  41.979  10.675  13.466
72765W        W41106  38.914  24.147   4.703
72766W        W41107  25.470  33.043   1.721
72767W        W41108   7.183  42.313  11.381
72768W        W41109  25.666   1.791   4.174
72769W        W41110  34.466  40.504  13.523
72770W        W41111   9.271  28.553  10.571
72771W        W41112  16.647  37.481   2.691
72772W        W41113  11.706  13.231   2.704
72773W        W41114   4.703  31.612  10.998
72774W        W41115  37.532  21.250  11.064
72775W        W41116  22.747  12.124   1.923
72776W        W41117  42.485  40.016   3.291
72777W        W41118  11.299  39.922  12.349
72778W        W41119  31.089  28.071   5.134
72779W        W41120  16.155   5.282   0.779
72780W        W41121  21.536   5.350  13.918
72781W        W41122  26.129  15.148   2.808
72782W        W41123   5.806   1.405  10.417
72783W        W41124  39.343  26.103   4.168
72784W        W41125  32.032  34.548   4.158
72785W        W41126  14.198  34.373  14.999
72786W        W41127  17.299  35.086   3.814
72787W        W41128   2.879  20.086  11.511
72788W        W41129   6.254  35.923   0.775
72789W        W41130  35.521  14.266  11.931
72790W        W41131   6.251   4.796   2.819
72791W        W41132  25.077  19.559  13.457
72792W        W41133  12.235  12.303   4.638
72793W        W41134  29.600  15.612   2.748
72794W        W41135  24.100  19.701   3.339
72795W        W41136   9.172  23.563   0.855
72796W        W41137  38.000  38.872  14.883
72797W        W41138  18.699   8.295   2.763
72798W        W41139   2.773  36.354   2.222
72799W        W41140  41.878  41.967   5.740
72800W        W41141  31.439  31.412  13.802
72801W        W41142  13.685  36.585   3.666
72802W        W41143  13.167   9.718   3.342
72803W        W41144  29.567  27.034   0.296
72804W        W41145  41.897  22.073  10.481
72805W        W41146   0.742  40.501  12.563
72806W        W41147  39.002   6.268  14.807
72807W        W41148  22.561   4.417  11.611
72808W        W41149  20.660  11.358   2.837
72809W        W41150  11.304  16.801  11.993
72810W        W41151   3.858  42.345   2.293
72811W        W41152  42.827  44.294  13.983
72812W        W41153  14.312   7.709   2.680
72813W        W41154  41.441  16.288   1.719
72814W        W41155   9.221  41.326   3.190
72815W        W41156  29.428  33.561   3.861
72816W        W41157  26.054  16.795   2.882
72817W        W41158   2.946  23.635  12.019
72818W        W41159  10.279  25.085   4.332
72819W        W41160   4.296  40.961  13.863
72820W        W41161  26.152  10.815   0.285
72821W        W41162  22.537   8.783   3.721
72822W        W41163   2.436  11.201  11.061
72823W        W41164  42.836  33.432   2.711
72824W        W41165  28.933  28.059  11.397
72825W        W41166   3.418   3.230   3.289
72826W        W41167  43.500  34.955   4.639
72827W        W41168  25.619  39.519  11.373
72828W        W41169  16.103  42.515  11.546
72829W        W41170  41.872   0.463  12.867
72830W        W41171  27.050  40.956   3.172
72831W        W41172  14.633  33.931  10.945
72832W        W41173  38.974  39.336   4.808
72833W        W41174  19.189  27.571   1.836
72834W        W41175  13.757  14.318   4.145
72835W        W41176  40.876  40.433   1.906
72836W        W41177  44.867   7.712  14.505
72837W        W41178  19.698  23.110   3.213
72838W        W41179  32.938  17.174  12.397
72839W        W41180  39.333   3.906   3.294
72840W        W41181  38.928   9.247   2.265
72841W        W41182  43.827  33.434  10.109
72842W        W41183  36.588   7.771  12.371
72843W        W41184  28.543   0.417   4.214
72844W        W41185  16.752  32.545   2.839
72845W        W41186  38.532  16.634   1.280
72846W        W41187  13.251  33.382   0.252
72847W        W41188  26.623  14.803   4.194
72848W        W41189   2.722  37.502   4.148
72849W        W41190  18.294  33.569  12.920
72850W        W41191  24.160   6.220   1.791
72851W        W41192  23.577  27.108  10.554
72852W        W41193  33.909  29.944  10.490
72853W        W41194  12.690  43.839  11.580
72854W        W41195   6.241  10.795   1.338
72855W        W41196  13.180  26.089  11.872
72856W        W41197   7.272  27.447  11.111
72857W        W41198  31.646  39.414   3.234
72858W        W41199   4.866  12.671  13.947
72859W        W41200  41.811  19.090   1.823
72860W        W41201  38.981  22.091   0.873
72861W        W41202  23.563  30.436   1.344
72862W        W41203  20.222  24.593  12.919
72863W        W41204   6.292  14.710   3.823
72864W        W41205   1.827   4.405   2.825
72865W        W41206  35.523  39.031  10.110
72866W        W41207  25.488   5.706  14.922
72867W        W41208  13.344  28.023   0.877
72868W        W41209   5.852  16.302  13.056
72869W        W41210  37.885  28.500   4.704
72870W        W41211  26.615  31.478   2.402
72871W        W41212   8.787  21.571   3.727
72872W        W41213  11.807  25.154  11.458
72873W        W41214  24.190   4.421  14.761
72874W        W41215   8.849  30.483  10.545
72875W        W41216  41.895  43.368  14.456
72876W        W41217  42.370   6.894   2.268
72877W        W41218  39.015  24.609   2.785
72878W        W41219   9.207  11.348   1.298
72879W        W41220  30.013  41.508  14.329
72880W        W41221  44.933  17.100  13.979
72881W        W41222  40.936  32.552   2.662
72882W        W41223  14.320  36.460   0.834
72883W        W41224   8.407  22.602  11.596
72884W        W41225  42.426   3.758  13.520
72885W        W41226   4.295  12.279   1.771
72886W        W41227  36.883  24.217  11.510
72887W        W41228  39.340  15.686  12.061
72888W        W41229   6.852  40.858  13.805
72889W        W41230  33.092  24.662   2.193
72890W        W41231   2.417  27.189  11.078
72891W        W41232  19.230  11.807  13.929
72892W        W41233  23.518  41.425   2.767
72893W        W41234   5.282  21.598   3.371
72894W        W41235  43.499  35.368  10.924
72895W        W41236  25.145  26.043   5.751
72896W        W41237  14.770   6.905  14.759
72897W        W41238  33.624  16.620   4.696
72898W        W41239  19.702  11.316  10.973
72899W        W41240  20.058   7.244   2.279
72900W        W41241  18.559  11.812   2.887
72901W        W41242  42.506  13.720   1.326
72902W        W41243   7.896  18.124  10.923
72903W        W41244   0.968  12.758  11.865
72904W        W41245   5.327   6.918   4.707
72905W        W41246  34.089   3.854   0.901
72906W        W41247  28.453  28.002  12.027
72907W        W41248  35.485  27.574   3.230
72908W        W41249  39.460  41.404  10.497
72909W        W41250  26.609   6.872  10.970
72910W        W41251  22.731  37.561  10.548
72911W        W41252  41.819  39.462   2.290
72912W        W41253  44.940  40.310  12.393
72913W        W41254  36.898  36.842   3.815
72914W        W41255  13.616  41.791   1.840
72915W        W41256  11.786   4.378  10.516
72916W        W41257  10.718  21.683   4.774
72917W        W41258  42.916   3.375  13.394
72918W        W41259  27.535  19.654   0.420
72919W        W41260  33.034  31.641   3.687
72920W        W41261  38.482   8.321  10.494
72921W        W41262  41.938  19.650   1.771
72922W        W41263  13.109  42.833   3.644
72923W        W41264  20.082  25.981   1.334
72924W        W41265  32.549   1.948  14.825
72925W        W41266  20.547  38.493   0.319
72926W        W41267  41.340  15.624   2.749
72927W        W41268  27.144  27.484  13.439
72928W        W41269  41.876  19.657  13.833
72929W        W41270   7.366  10.340   1.297
72930W        W41271  27.034  42.917  12.436
72931W        W41272   3.810   0.343   2.356
72932W        W41273  16.079  42.016   4.640
72933W        W41274   6.375  11.219  12.343
72934W        W41275  43.507  35.460   2.873
72935W        W41276   7.769  27.471   2.188
72936W        W41277  43.871  12.288   3.146
72937W        W41278  35.896   1.258   0.845
72938W        W41279  13.728  32.418  10.639
72939W        W41280  13.157  37.439   3.667
72940W        W41281   3.442  44.405   0.957
72941W        W41282  28.672  24.013   2.899
72942W        W41283  38.068  25.983   2.745
72943W        W41284  24.706  12.296   1.894
72944W        W41285  41.845   7.337   5.107
72945W        W41286  28.611   3.830  13.478
72946W        W41287  39.055  27.460   3.780
72947W        W41288  30.046  37.527   1.901
72948W        W41289  19.136  27.567  12.860
72949W        W41290  23.127  39.441   1.412
72950W        W41291  34.872  15.199  11.045
72951W        W41292  14.704   3.452  14.841
72952W        W41293  10.346  37.051  10.535
72953W        W41294   5.330   1.916  14.307
72954W        W41295  26.620  19.265  10.891
72955W        W41296   4.358  16.096  11.047
72956W        W41297  13.631   0.859  10.551
72957W        W41298   1.422  44.478   0.764
72958W        W41299  39.481  40.000   0.784
72959W        W41300  31.413  32.937   0.450
72960W        W41301   5.255  24.563   4.751
72961W        W41302  41.421   7.850  13.863
72962W        W41303   4.274  25.469  10.515
72963W        W41304  14.790  28.024   0.397
72964W        W41305   1.351  11.129   3.327
72965W        W41306  14.725  29.048   3.694
72966W        W41307  44.781  28.442   3.174
72967W        W41308   1.467   9.841   4.833
72968W        W41309  33.042  13.784   4.157
72969W        W41310  43.953  11.317  12.571
72970W        W41311  10.284  24.130  12.093
72971W        W41312  28.674   8.837  12.369
72972W        W41313   0.976  31.918   0.760
72973W        W41314  40.855  32.601   1.403
72974W        W41315  30.645  21.111   2.865
72975W        W41316   7.172  31.634  10.561
72976W        W41317  38.909  44.754   3.263
72977W        W41318  35.507  22.516  13.501
72978W        W41319   0.314  20.766   2.344
72979W        W41320  39.946  29.151   4.182
72980W        W41321  29.534  34.988   1.767
72981W        W41322  17.661  30.634  12.948
72982W        W41323  28.655  24.105  14.411
72983W        W41324  11.778  27.652   0.373
72984W        W41325  44.329   6.236   2.744
72985W        W41326  31.410  11.303  10.607
72986W        W41327  42.504  43.501   2.753
72987W        W41328  34.434  40.973  12.944
72988W        W41329  31.147  23.233   3.305
72989W        W41330  16.718   7.317   1.226
72990W        W41331  36.545  33.590  13.806
72991W        W41332  14.716  23.552   0.798
72992W        W41333  17.201   7.708  11.499
72993W        W41334  40.034   9.755  12.964
72994W        W41335  33.075   6.791  12.356
72995W        W41336  43.899  41.456  14.493
72996W        W41337  34.937  34.076  10.980
72997W        W41338   9.284  10.655  12.461
72998W        W41339  38.878  25.118  14.888
72999W        W41340  42.457   5.334   4.663
73000W        W41341  26.041  41.492  12.349
73001W        W41342  24.491  16.751   2.253
73002W        W41343   1.319  12.830  10.588
73003W        W41344  32.536  25.177   3.296
73004W        W41345  17.260  42.390   4.766
73005W        W41346  33.533  22.608  13.314
73006W        W41347   9.366  30.029  13.319
73007W        W41348  27.585  14.813   4.160
73008W        W41349  25.610   6.210  12.869
73009W        W41350   2.385  22.154   4.150
73010W        W41351  36.579  10.841  12.010
73011W        W41352  41.357  11.181   2.206
73012W        W41353  33.954  14.808   2.719
73013W        W41354  44.835  25.650   1.707
73014W        W41355   5.384  37.962   1.352
73015W        W41356  35.527   0.426   3.372
73016W        W41357  10.250  22.604   4.818
73017W        W41358  29.921  39.038   0.914
73018W        W41359   7.357  42.325  12.868
73019W        W41360  22.025  40.429   0.449
73020W        W41361   5.717   7.258   0.782
73021W        W41362  11.622  38.367  13.437
73022W        W41363  15.730  20.242  14.285
73023W        W41364   2.391  33.476   4.345
73024W        W41365   9.715  13.138   1.741
73025W        W41366  10.713  16.598   0.745
73026W        W41367  40.806  39.535   3.209
73027W        W41368   4.354  38.498   0.761
73028W        W41369  36.960   7.759   0.439
73029W        W41370   4.317  18.574   1.781
73030W        W41371  38.014  16.157   0.358
73031W        W41372   4.223  34.414   0.858
73032W        W41373   3.919  41.503  14.323
73033W        W41374  28.099   3.230  10.627
73034W        W41375   8.324  23.673   2.754
73035W        W41376  10.211   4.781  10.063
73036W        W41377  41.993   7.381   0.927
73037W        W41378   0.488   5.196  10.952
73038W        W41379  19.120  15.115  11.371
73039W        W41380   8.739   4.319  12.539
73040W        W41381   8.857   0.918  14.929
73041W        W41382   8.892   5.222  13.873
73042W        W41383  11.268  36.361   0.255
73043W        W41384  33.519  39.335   5.714
73044W        W41385   7.785  21.640   0.748
73045W        W41386   8.684  32.092   5.081
73046W        W41387  24.570  10.642   1.438
73047W        W41388  10.829  37.370  14.807
73048W        W41389   0.368   6.696   0.409
73049W        W41390  38.819  31.032   2.219
73050W        W41391  39.973  37.084  10.581
73051W        W41392  18.208  44.788  12.903
73052W        W41393   8.690  39.929   4.633
73053W        W41394  10.316  19.603   1.806
73054W        W41395  18.744  37.039  12.058
73055W        W41396   1.453  22.038   0.299
73056W        W41397  15.643  18.691  14.860
73057W        W41398  42.000  10.301  11.382
73058W        W41399  17.154  31.406  10.013
73059W        W41400  32.002   8.670   0.334
73060W        W41401  31.564  42.794  13.457
73061W        W41402   5.717   5.222  13.502
73062W        W41403  41.339   2.322  10.955
73063W        W41404  44.460   7.667   2.715
73064W        W41405   9.163  16.137  11.529
73065W        W41406   2.936  27.969   4.773
73066W        W41407   3.941   8.869   4.352
73067W        W41408  38.027  28.122   4.321
73068W        W41409  42.789  15.121  11.438
73069W        W41410  16.072  31.084   2.836
73070W        W41411  14.758  43.360  13.413
73071W        W41412  23.986  44.983  10.977
73072W        W41413  13.719   1.970   2.817
73073W        W41414  18.549   8.718   2.770
73074W        W41415  10.158  41.831   0.433
73075W        W41416  27.007  33.095  14.029
73076W        W41417  19.577   5.265  13.428
73077W        W41418  28.538  10.364  10.961
73078W        W41419  17.704  16.195  10.996
73079W        W41420  26.674  22.557   5.134
73080W        W41421  32.465   5.723   0.911
73081W        W41422  21.095   1.293   2.797
73082W        W41423  23.105  44.900   3.630
73083W        W41424  26.962  27.565   3.235
73084W        W41425  24.997  27.001   2.900
73085W        W41426  42.031   7.266  11.125
73086W        W41427  14.686   6.752  12.845
73087W        W41428  12.261  26.514  10.571
73088W        W41429  31.608  32.124  13.504
73089W        W41430  41.344  33.474  13.853
73090W        W41431  20.566  37.561  13.973
73091W        W41432   2.727  16.575   5.261
73092W        W41433  29.598   2.235  12.367
73093W        W41434   7.776  27.035  12.527
73094W        W41435  44.370   7.808   3.338
73095W        W41436  24.658  19.640  14.772
73096W        W41437  11.165  36.089  11.900
73097W        W41438  41.397  38.405   0.776
73098W        W41439   8.663   5.375  12.572
73099W        W41440  18.096  38.494  11.547
73100W        W41441  17.232  35.973   2.899
73101W        W41442  35.944   8.690   5.298
73102W        W41443  42.285   3.922   1.900
73103W        W41444  16.679  18.712  12.874
73104W        W41445  34.051  24.073   3.655
73105W        W41446  18.580  10.231  10.506
73106W        W41447   2.877   6.311  13.847
73107W        W41448  30.919   3.397   2.296
73108W        W41449  38.331  12.648   1.430
73109W        W41450  29.503  13.338   5.140
73110W        W41451  23.996  41.518   5.149
73111W        W41452  41.903   4.266   0.388
73112W        W41453   6.240  14.702   1.267
73113W        W41454  21.625  31.647   4.227
73114W        W41455   6.342  24.633   1.442
73115W        W41456  26.195   6.362  14.781
73116W        W41457  43.418  29.663   1.740
73117W        W41458  15.258   2.962   4.157
73118W        W41459  22.089  31.449   3.642
73119W        W41460  35.456  24.221  12.527
73120W        W41461  12.361   5.912   3.381
73121W        W41462   5.304  22.555   0.270
73122W        W41463  20.265  23.489  10.525
73123W        W41464  13.697  29.146  12.918
73124W        W41465  17.225  17.117  10.036
73125W        W41466  32.018  27.665  13.309
73126W        W41467  16.595  39.941  13.334
73127W        W41468  37.567  15.765  11.885
73128W        W41469   8.248  33.596   3.630
73129W        W41470  39.504  38.428  12.932
73130W        W41471   3.949   6.704   4.609
73131W        W41472  31.098  16.691  14.513
73132W        W41473  43.016  11.861   4.289
73133W        W41474  44.808  42.899  14.333
73134W        W41475  21.147  14.158   0.296
73135W        W41476  27.457  17.114   3.336
73136W        W41477  33.997  38.958  14.299
73137W        W41478  34.046  33.607   3.151
73138W        W41479  21.253  33.452   2.851
73139W        W41480  36.061  32.543   0.401
73140W        W41481  31.902   4.293  13.357
73141W        W41482  43.310   9.174  11.525
73142W        W41483  26.045  32.543  11.979
73143W        W41484  18.714  19.724  14.498
73144W        W41485  27.559   9.357   0.814
73145W        W41486  43.404  11.670  11.881
73146W        W41487   0.913  36.967  14.436
73147W        W41488  19.045  25.616   0.948
73148W        W41489  22.082  17.236  11.991
73149W        W41490   6.316   1.263  11.023
73150W        W41491  16.259  17.111   0.294
73151W        W41492  37.044  40.869   2.283
73152W        W41493   3.333  37.500  10.567
73153W        W41494  13.617  24.060  11.602
73154W        W41495  24.047  12.739  11.978
73155W        W41496  35.373  38.444   4.119
73156W        W41497   1.369  11.369  10.541
73157W        W41498  18.229  18.579   0.363
73158W        W41499  10.777  28.180  12.440
73159W        W41500  44.823  30.447  12.546
73160W        W41501  37.535  34.371  13.893
73161W        W41502  39.963  37.470  14.770
73162W        W41503  40.845  22.166  11.962
73163W        W41504  36.023  27.114   0.413
73164W        W41505  16.072  44.981   4.160
73165W        W41506  12.833  19.779  13.912
73166W        W41507   9.322  28.023  14.486
73167W        W41508   1.454   6.913   3.644
73168W        W41509   1.903  11.662   0.325
73169W        W41510  21.156  44.007  13.794
73170W        W41511   7.257  39.522  11.985
73171W        W41512  16.074   9.236  14.819
73172W        W41513  38.988  43.896  13.830
73173W        W41514  11.681  44.895   2.371
73174W        W41515  12.679  13.246   0.276
73175W        W41516  13.688  11.680  12.527
73176W        W41517  16.179  14.258  14.970
73177W        W41518  36.084  14.603   4.778
73178W        W41519  16.296  40.388  13.043
73179W        W41520  34.582   2.894  11.857
73180W        W41521  36.052  42.890  14.892
73181W        W41522  25.619  20.607   2.716
73182W        W41523  33.532  14.818  11.471
73183W        W41524  16.720  14.302  14.899
73184W        W41525  23.619  10.181   4.739
73185W        W41526  42.434  10.219   4.292
73186W        W41527   8.181  27.160  13.503
73187W        W41528  26.554  12.362  10.479
73188W        W41529  44.904  18.594   0.738
73189W        W41530  41.841  42.304   3.696
73190W        W41531   1.933  11.223  14.382
73191W        W41532  18.568  44.326  14.865
73192W        W41533  37.832  17.151   3.386
73193W        W41534  41.937  39.430   3.159
73194W        W41535  32.093  28.130  13.064
73195W        W41536  37.072  36.894  12.854
73196W        W41537  17.269  27.061  10.636
73197W        W41538  24.155   3.289   2.898
73198W        W41539   5.780  34.073   2.778
73199W        W41540  29.617  28.559   2.756
73200W        W41541  11.242  13.830   4.797
73201W        W41542  13.319  15.733  10.006
73202W        W41543  39.354  37.991   1.768
73203W        W41544  28.106  18.776   3.792
73204W        W41545   1.437  28.468   1.808
73205W        W41546   3.751  41.875  12.047
73206W        W41547  10.685  22.154  10.557
73207W        W41548  28.597  37.544   0.915
73208W        W41549  27.176  11.207   1.258
73209W        W41550  17.758  28.033   3.808
73210W        W41551   5.902  36.369  11.120
73211W        W41552  24.615  25.707   2.768
73212W        W41553  13.342  34.895   2.294
73213W        W41554  29.039  16.179  12.939
73214W        W41555  43.937  20.604   5.776
73215W        W41556   6.864  27.089  13.319
73216W        W41557  32.011  35.423  13.876
73217W        W41558  35.026  17.640  13.031
73218W        W41559  35.090  11.261   2.720
73219W        W41560   4.858  21.753   4.161
73220W        W41561   3.408  23.685   4.307
73221W        W41562  19.134   7.381   4.717
73222W        W41563  15.208  14.721   4.216
73223W        W41564  34.576  32.467  13.824
73224W        W41565   9.868   3.445   1.717
73225W        W41566  30.001  16.791   2.895
73226W        W41567  33.522  19.585   5.201
73227W        W41568  38.382  13.652  12.888
73228W        W41569  15.581  18.289  12.974
73229W        W41570  37.948  29.574   1.421
73230W        W41571   4.254  21.589  10.488
73231W        W41572   4.851  40.897  14.454
73232W        W41573  26.093  34.424  12.347
73233W        W41574  30.090  11.778  12.095
73234W        W41575  28.034   3.318   9.931
73235W        W41576  42.342  19.200   0.957
73236W        W41577  43.881  29.633  10.427
73237W        W41578  33.613  35.040  14.784
73238W        W41579   5.367  25.494  14.875
73239W        W41580  36.849   9.381   4.636
73240W        W41581  33.495  39.318   0.911
73241W        W41582   4.802  25.977  14.803
73242W        W41583  29.112  34.002   3.656
73243W        W41584  14.170  36.970  13.795
73244W        W41585   4.418  41.445   2.295
73245W        W41586   7.692  34.429   3.687
73246W        W41587  23.585  40.932   0.742
73247W        W41588  19.094  44.870   0.437
73248W        W41589  35.952  43.853   4.285
73249W        W41590  14.219  26.557  12.558
73250W        W41591  15.147  38.335   9.555
73251W        W41592   5.349  41.473   1.335
73252W        W41593  11.334  38.491  13.841
73253W        W41594  29.086  40.998   1.886
73254W        W41595  22.683  13.191   3.179
73255W        W41596  23.129  25.176   1.407
73256W        W41597  27.631  38.384  12.028
73257W        W41598  44.819  28.455  14.938
73258W        W41599  37.536  34.109  11.443
73259W        W41600  12.361   7.824  13.861
73260W        W41601  44.413  18.727  12.379
73261W        W41602  16.128  13.265   2.718
73262W        W41603  40.995  43.459   2.844
73263W        W41604  22.683  20.593   0.399
73264W        W41605   0.310  24.482   1.705
73265W        W41606  30.541  30.574   3.632
73266W        W41607  34.570   0.367  13.425
73267W        W41608  18.214  17.286  13.854
73268W        W41609  25.192  14.305  10.935
73269W        W41610  36.421  24.184   3.227
73270W        W41611  37.515  27.976  12.940
73271W        W41612  13.792  30.127  11.008
73272W        W41613  24.634  24.528  11.503
73273W        W41614  25.145  16.598   3.241
73274W        W41615  16.581   0.836  10.502
73275W        W41616   4.799  42.313   2.203
73276W        W41617  21.636  28.540   1.834
73277W        W41618  28.978  10.823  12.956
73278W        W41619  41.988   3.781   3.801
73279W        W41620   9.804   8.811  11.084
73280W        W41621  23.143  18.634   5.249
73281W        W41622  17.724  15.768   1.902
73282W        W41623  28.499  39.397   4.608
73283W        W41624   2.720  23.160  10.943
73284W        W41625  31.092  19.666   0.806
73285W        W41626   8.739  37.357  13.422
73286W        W41627   5.380  26.600  12.455
73287W        W41628  24.161  36.000  13.796
73288W        W41629  23.053  18.624   2.787
73289W        W41630  21.730  37.947   4.305
73290W        W41631   2.231  21.038  10.528
73291W        W41632  14.647   2.784  12.879
73292W        W41633  39.559  18.738  13.932
73293W        W41634  21.066  44.909   0.745
73294W        W41635   6.336  33.621   3.734
73295W        W41636  37.010  15.650   2.731
73296W        W41637  38.383  32.489  10.424
73297W        W41638  40.819  24.569   3.298
73298W        W41639  22.067  37.527   1.276
73299W        W41640  42.792  40.027   4.682
73300W        W41641  44.335  10.145  13.417
73301W        W41642  21.620  31.082   0.940
73302W        W41643   6.407  41.965   0.856
73303W        W41644  23.673   1.377   3.844
73304W        W41645  13.633  19.254   3.172
73305W        W41646   7.247  20.128   1.706
73306W        W41647  20.555  23.524  14.885
73307W        W41648  14.123   1.348  14.779
73308W        W41649  37.561  35.430  13.851
73309W        W41650  12.190  24.053  11.539
73310W        W41651  17.093  14.223  12.404
73311W        W41652   4.750  42.311  13.341
73312W        W41653  25.575   3.409   4.674
73313W        W41654   5.207  21.751  14.490
73314W        W41655  21.528  34.449   4.764
73315W        W41656   0.360  20.039  12.444
73316W        W41657  41.366  34.369  12.065
73317W        W41658  34.904  18.584  12.410
73318W        W41659  33.523  36.496   2.701
73319W        W41660  32.492  13.243   3.755
73320W        W41661  31.915  39.497  14.979
73321W        W41662  29.024  20.576  14.914
73322W        W41663  24.544  42.527  11.404
73323W        W41664  10.218  44.479  13.316
73324W        W41665  38.545   6.187  11.088
73325W        W41666  13.735  33.064  10.926
73326W        W41667  43.013  13.714   4.666
73327W        W41668  21.093  35.455   4.780
73328W        W41669  22.147   5.349   3.379
73329W        W41670  26.008  37.842  10.593
73330W        W41671   1.920   3.256  12.396
73331W        W41672   2.366  35.421  13.428
73332W        W41673  17.194  12.182  10.958
73333W        W41674   3.931  29.929  10.478
73334W        W41675  41.035  35.461  12.350
73335W        W41676  17.227   0.752  14.977
73336W        W41677  41.468  44.261   4.300
73337W        W41678  38.356  30.535  13.542
73338W        W41679   3.758   0.822   2.823
73339W        W41680   7.810   6.403  14.450
73340W        W41681  43.501  21.236  11.494
73341W        W41682   0.350  43.428   4.834
73342W        W41683  26.508  17.557  14.850
73343W        W41684  41.302   0.750   0.745
73344W        W41685  35.977  32.626   2.354
73345W        W41686  15.586  20.562   3.813
73346W        W41687   7.883   4.903  10.539
73347W        W41688   5.439  32.958   4.677
73348W        W41689  28.964  16.713  10.570
73349W        W41690  17.231  27.004  11.077
73350W        W41691  11.323  19.093   2.293
73351W        W41692  12.635  20.625  12.374
73352W        W41693  36.904  31.616   2.307
73353W        W41694  36.446   4.389  13.515
73354W        W41695   9.323  27.525  14.435
73355W        W41696  38.875  40.435   1.246
73356W        W41697   4.266   2.308   0.315
73357W        W41698  19.676   8.395   1.398
73358W        W41699  10.339  23.659  13.872
73359W        W41700  31.502  41.956  13.925
73360W        W41701  18.708   9.784  14.889
73361W        W41702  21.023  25.587   2.285
73362W        W41703  44.955  38.325   4.784
73363W        W41704   4.895  15.299  13.917
73364W        W41705  22.191  27.573  14.452
73365W        W41706   6.858   5.230   2.316
73366W        W41707   3.915  17.204   0.359
73367W        W41708  30.609  37.002  11.472
73368W        W41709   3.816   6.776  14.464
73369W        W41710  26.620   4.883  11.382
73370W        W41711  15.090  21.140   4.770
73371W        W41712  22.738   6.844  14.920
73372W        W41713   5.757  26.068  11.936
73373W        W41714  41.854  31.144   3.211
73374W        W41715  32.108  17.115  14.881
73375W        W41716  38.411  15.777   0.349
73376W        W41717  42.816  39.538  14.909
73377W        W41718  13.778  28.675   4.630
73378W        W41719  23.180  37.494   2.886
73379W        W41720  23.023  36.078   3.249
73380W        W41721  20.768  11.849   1.210
73381W        W41722  30.986  40.353  14.977
73382W        W41723  44.479  13.655  13.942
73383W        W41724  36.386  42.947   0.933
73384W        W41725  36.961   0.765   3.325
73385W        W41726  37.947  11.326   4.790
73386W        W41727  17.091   6.206   1.248
73387W        W41728  25.555   7.699  13.874
73388W        W41729  36.035  44.796   3.280
73389W        W41730  29.539  29.076  14.430
73390W        W41731  27.084  26.185   2.270
73391W        W41732   5.220  14.144  13.402
73392W        W41733  41.531  16.656  12.930
73393W        W41734   2.727  23.103   3.181
73394W        W41735   6.745  34.506  12.444
73395W        W41736  37.439  15.603   2.323
73396W        W41737  19.624   7.819  11.450
73397W        W41738  39.517   0.327   4.725
73398W        W41739  25.040  14.200   0.746
73399W        W41740   0.398  19.217  10.570
73400W        W41741   3.303  26.119  14.482
73401W        W41742  30.431  34.545  12.926
73402W        W41743  25.016  15.321  13.022
73403W        W41744  15.235  12.148  14.422
73404W        W41745  12.256  22.586   2.184
73405W        W41746   7.860  42.466  10.538
73406W        W41747  40.311  34.456  11.064
73407W        W41748  36.574  35.375   2.236
73408W        W41749  39.055  20.245   3.760
73409W        W41750  16.677  16.075   4.604
73410W        W41751  31.978  42.947  10.111
73411W        W41752  36.858  44.833   2.418
73412W        W41753  38.952  42.968   0.728
73413W        W41754  11.359  17.681  13.315
73414W        W41755  24.506   5.793   3.231
73415W        W41756  22.544  11.233  13.482
73416W        W41757  33.506  21.067   0.946
73417W        W41758  17.161  31.939   4.721
73418W        W41759   6.845  25.594   0.483
73419W        W41760  21.137  26.070   4.352
73420W        W41761  20.275  11.354  13.885
73421W        W41762  36.045  20.158  10.404
73422W        W41763  33.070  18.275   1.919
73423W        W41764  18.573  33.582   3.147
73424W        W41765  44.832   1.299   3.841
73425W        W41766   6.739   6.265   4.185
73426W        W41767  23.534  19.636   4.671
73427W        W41768  24.112  38.953  13.046
73428W        W41769  34.968  35.909   0.415
73429W        W41770  37.512  36.405   1.859
73430W        W41771  11.258  35.051  14.412
73431W        W41772  16.698   3.411  11.609
73432W        W41773  11.773  43.481   1.803
73433W        W41774  10.173   9.809  13.011
73434W        W41775   1.410  35.409  13.996
73435W        W41776  44.965  37.082  13.050
73436W        W41777  26.098  24.164   0.440
73437W        W41778  33.435  41.957  12.932
73438W        W41779  10.350  31.528   2.316
73439W        W41780  39.916  32.957   2.732
73440W        W41781   8.863  43.983   3.375
73441W        W41782   3.365  17.165   9.601
73442W        W41783   5.361  29.574  10.583
73443W        W41784  18.227  29.606  13.540
73444W        W41785  23.116  33.909  12.062
73445W        W41786  29.440  25.023  13.860
73446W        W41787  38.025  16.738  12.975
73447W        W41788  43.833  27.182   0.431
73448W        W41789  40.448  15.741  11.533
73449W        W41790  40.919  24.180   4.327
73450W        W41791  24.699  34.602   0.770
73451W        W41792  11.821  26.647  11.047
73452W        W41793  44.921   1.312   1.842
73453W        W41794   4.400  42.524   3.818
73454W        W41795  40.043  40.811   2.686
73455W        W41796  40.821  15.138  11.916
73456W        W41797  21.590  25.041   0.461
73457W        W41798  24.664  44.857   4.757
73458W        W41799  40.445  17.205  12.456
73459W        W41800   4.739   3.278  13.458
73460W        W41801  30.087  31.536   4.824
73461W        W41802  44.453  13.326  14.920
73462W        W41803  31.055  24.647   4.296
73463W        W41804   6.780   0.816  10.543
73464W        W41805   7.734  17.720  14.953
73465W        W41806   1.283  21.529   1.231
73466W        W41807  17.632  28.932   4.126
73467W        W41808  41.832  42.469  14.820
73468W        W41809  32.456  21.596   3.702
73469W        W41810  34.086  28.952   1.935
73470W        W41811   9.706  37.493  13.950
73471W        W41812   4.420  33.479  11.942
73472W        W41813  25.553  37.878  12.005
73473W        W41814  42.333  34.933   4.675
73474W        W41815  16.781  42.828  13.411
73475W        W41816  24.595  24.058  12.964
73476W        W41817   5.305   2.262   3.226
73477W        W41818   0.300  38.868   3.864
73478W        W41819  10.639   2.831   0.403
73479W        W41820  21.082  12.146   3.354
73480W        W41821  36.519   7.175  11.106
73481W        W41822  26.968  24.020  11.512
73482W        W41823   7.707  21.125  14.397
73483W        W41824  10.361  13.642   1.732
73484W        W41825  28.542  34.108   3.727
73485W        W41826  12.737  30.972  11.555
73486W        W41827  24.719  23.127  14.878
73487W        W41828  42.302  14.190   4.794
73488W        W41829  15.143  36.054   1.801
73489W        W41830  10.669  17.129  13.392
73490W        W41831  33.096  40.433   3.273
73491W        W41832  17.157  23.129   1.232
73492W        W41833   1.764  31.973   4.825
73493W        W41834  29.440  30.046  13.967
73494W        W41835  44.498   0.373  12.983
73495W        W41836  24.204  42.030   1.770
73496W        W41837   3.724  17.155  12.980
73497W        W41838  38.935  43.386  12.826
73498W        W41839   6.409   5.809   2.253
73499W        W41840  20.075  41.340   4.619
73500W        W41841  44.405  29.582   1.748
73501W        W41842  30.972   1.449   0.735
73502W        W41843   1.799  22.659   1.895
73503W        W41844  28.613  17.623  14.779
73504W        W41845  43.438  21.668   3.801
73505W        W41846  32.418  30.617   4.248
73506W        W41847   5.356  23.515   2.370
73507W        W41848  36.021  36.862  12.532
73508W        W41849  32.040  21.076   4.263
73509W        W41850  14.126   0.855   0.355
73510W        W41851  14.266  43.314   4.729
73511W        W41852  43.512  31.989  10.937
73512W        W41853  42.012  41.019  10.530
73513W        W41854  15.645  16.794   3.831
73514W        W41855   3.863  10.827  10.485
73515W        W41856  31.599  25.151   0.736
73516W        W41857  23.615  44.311   3.659
73517W        W41858  14.807  22.711  13.002
73518W        W41859  34.473  37.943  13.808
73519W        W41860  42.282  29.046  12.046
73520W        W41861  43.931   5.836  12.938
73521W        W41862  26.145  16.813  11.890
73522W        W41863  41.925  11.130  11.948
73523W        W41864  14.174   7.377  13.478
73524W        W41865  34.497   9.740  11.503
73525W        W41866  41.792  36.032  10.015
73526W        W41867  25.679  10.214  12.914
73527W        W41868   0.413   5.897   2.755
73528W        W41869  12.688  16.216  14.851
73529W        W41870  30.925   3.397   2.800
73530W        W41871   2.933  28.550   3.270
73531W        W41872  28.947  40.828  10.477
73532W        W41873  42.914  33.016  10.596
73533W        W41874  40.898   5.834  12.959
73534W        W41875  12.690  11.197   0.460
73535W        W41876   7.384  10.635  13.421
73536W        W41877  38.057  25.671  11.926
73537W        W41878  22.676   0.387   9.942
73538W        W41879  32.626  12.679  14.308
73539W        W41880  24.202   8.357   0.377
73540W        W41881   0.286  19.643  12.499
73541W        W41882  37.470  27.174  12.520
73542W        W41883  42.944   2.761   2.737
73543W        W41884   6.828  26.615   4.126
73544W        W41885  36.564  14.796  11.444
73545W        W41886  28.570  29.983   4.617
73546W        W41887   7.412  27.097  10.897
73547W        W41888  34.540  37.873  14.962
73548W        W41889  10.169  19.276   4.666
73549W        W41890  11.373  28.586  12.522
73550W        W41891  41.890  37.908  14.893
73551W        W41892  14.244  24.135  14.799
73552W        W41893  24.021  28.109  14.370
73553W        W41894  13.718  19.214   2.226
73554W        W41895  15.721  44.935   2.304
73555W        W41896  28.591   4.271   0.422
73556W        W41897  10.635  20.204  12.422
73557W        W41898  28.549  30.077  11.943
73558W        W41899  13.781   0.487  11.475
73559W        W41900  21.030  18.568   1.416
73560W        W41901  37.416  39.492  12.560
73561W        W41902   8.327  27.621   1.735
73562W        W41903  44.762  41.294   2.283
73563W        W41904  21.099  16.782  13.447
73564W        W41905  17.697  30.053  11.521
73565W        W41906  15.191  36.523   1.789
73566W        W41907  44.971  41.962  14.460
73567W        W41908  28.123   9.284  12.389
73568W        W41909  13.818  25.105  11.376
73569W        W41910  31.959   2.813  11.430
73570W        W41911  23.665  17.178  14.790
73571W        W41912  28.508  25.477  13.508
73572W        W41913  13.300   4.369   4.192
73573W        W41914  28.934   1.412  11.474
73574W        W41915   9.730  24.626   1.884
73575W        W41916   6.733  22.501  10.922
73576W        W41917  23.539  20.756  11.064
73577W        W41918  15.124  34.948  12.065
73578W        W41919   7.358  30.648  13.496
73579W        W41920  35.944  12.813  14.004
73580W        W41921  31.506  38.928   0.812
73581W        W41922  10.342  38.359   0.423
73582W        W41923   7.359  42.285   4.662
73583W        W41924  38.985  22.724  14.367
73584W        W41925   5.429  22.103  14.932
73585W        W41926  33.386  12.339   4.354
73586W        W41927  10.348  26.597   2.388
73587W        W41928  34.513  15.104   3.788
73588W        W41929  17.570  36.405   3.150
73589W        W41930   7.380   1.297  10.603
73590W        W41931   9.220   9.278   0.917
73591W        W41932   8.254   9.168   1.775
73592W        W41933   5.310   6.826  12.492
73593W        W41934  30.086  15.118   2.758
73594W        W41935  14.235  22.192   0.898
73595W        W41936   1.454  36.869   2.281
73596W        W41937  36.941  12.205   0.409
73597W        W41938  25.152  15.095   0.309
73598W        W41939   5.379  34.988   3.832
73599W        W41940  43.487  40.860  13.791
73600W        W41941  44.272  36.388  14.350
73601W        W41942  41.025  15.182  11.020
73602W        W41943  10.236  24.616  13.499
73603W        W41944  20.237  21.050  14.383
73604W        W41945  25.095   7.396  14.813
73605W        W41946  26.633  36.523   5.171
73606W        W41947  13.795  36.918  13.921
73607W        W41948  18.050  21.155   5.161
73608W        W41949  25.622  27.662   1.423
73609W        W41950  10.861  30.912  11.898
73610W        W41951  26.622  19.713   0.329
73611W        W41952  40.929  34.607   0.777
73612W        W41953  14.589  19.635   3.174
73613W        W41954  10.384   9.844   3.374
73614W        W41955  39.507   0.880   1.794
73615W        W41956  17.124   8.739   1.234
73616W        W41957   9.329  11.327   2.718
73617W        W41958  29.463   0.879   4.652
73618W        W41959  43.796   0.887  12.097
73619W        W41960  42.329  19.268  14.913
73620W        W41961  22.043  27.459   3.168
73621W        W41962   0.859  12.679   3.320
73622W        W41963  18.558   3.233   1.873
73623W        W41964  34.004   9.751  11.536
73624W        W41965  11.187  41.878  14.342
73625W        W41966  16.743  19.160   1.921
73626W        W41967  24.145   4.268   0.424
73627W        W41968  16.810   2.295  12.520
73628W        W41969  42.523  42.449  13.971
73629W        W41970  32.479   8.304  10.452
73630W        W41971  18.667  30.956  11.037
73631W        W41972  25.136  35.971  14.826
73632W        W41973  28.041  32.452   2.358
73633W        W41974  39.553  40.386  12.432
73634W        W41975  33.000  19.110  14.913
73635W        W41976  36.992  33.032   3.208
73636W        W41977  44.391  30.066  14.947
73637W        W41978   0.474   5.210  14.306
73638W        W41979  39.388  25.502  13.444
73639W        W41980  37.358  10.377   0.768
73640W        W41981  36.437   1.961   2.199
73641W        W41982  39.484  42.410   0.757
73642W        W41983  36.845  41.533  10.912
73643W        W41984  20.648  13.203   0.810
73644W        W41985  25.503  30.982  12.469
73645W        W41986  10.744   4.322   4.675
73646W        W41987  40.980   9.164   0.422
73647W        W41988  29.174   2.864  11.398
73648W        W41989  31.581  27.091   0.362
73649W        W41990  41.941  20.234  14.472
73650W        W41991   5.354  15.811   2.335
73651W        W41992  34.893   0.932  13.883
73652W        W41993  12.731  23.494  13.440
73653W        W41994  14.769   8.731   9.972
73654W        W41995  37.998  28.086   4.685
73655W        W41996  15.789  22.028   3.783
73656W        W41997  12.140  34.091   0.481
73657W        W41998  26.549  44.839   2.373
73658W        W41999  11.833  36.078  13.896
73659W        W42000  25.593  16.674  14.007
73660W        W42001  29.924  40.831  13.958
73661W        W42002  16.072  30.538   5.285
73662W        W42003   8.378   1.803  11.971
73663W        W42004  38.827   2.830   1.343
73664W        W42005  29.426  13.116   4.690
73665W        W42006  19.182  20.559  13.928
73666W        W42007  26.691   7.295  10.510
73667W        W42008  28.530  40.858   4.200
73668W        W42009  41.011   1.937  11.105
73669W        W42010  37.375   7.666   0.956
73670W        W42011  41.875  35.966  14.932
73671W        W42012  43.496   6.410   1.290
73672W        W42013  14.748  17.265  12.010
73673W        W42014  28.609  43.832   0.856
73674W        W42015  18.598   6.891   4.798
73675W        W42016   1.783  28.509  11.065
73676W        W42017  30.448  33.011  12.469
73677W        W42018  44.771  37.439   1.322
73678W        W42019  10.736  38.897   0.731
73679W        W42020  31.491  10.370   3.186
73680W        W42021  36.957  21.135   1.860
73681W        W42022  25.524  21.168   0.929
73682W        W42023   3.246   4.373   2.872
73683W        W42024   2.269  24.086   1.373
73684W        W42025  12.745  28.144  12.893
73685W        W42026  20.049  29.068   4.667
73686W        W42027   1.764  24.541   3.246
73687W        W42028  41.356  29.925   3.357
73688W        W42029  42.893  43.316  10.512
73689W        W42030  40.962   9.650  13.410
73690W        W42031  23.016  38.535  12.346
73691W        W42032  11.827  38.948   4.247
73692W        W42033  29.435  30.573   1.925
73693W        W42034  40.351  13.318   2.882
73694W        W42035  31.957  44.490  12.869
73695W        W42036  25.102   6.860   2.841
73696W        W42037  38.888   4.776   0.778
73697W        W42038  22.008  39.923  10.565
73698W        W42039  20.145  16.708   2.866
73699W        W42040  18.114   4.746  13.026
73700W        W42041  31.565  21.655   2.314
73701W        W42042  31.153   6.425   1.735
73702W        W42043  11.646  25.501  14.013
73703W        W42044  12.337  33.906   3.752
73704W        W42045   8.241  11.294  12.457
73705W        W42046  20.646   2.325   0.811
73706W        W42047  36.371  38.964  13.958
73707W        W42048  38.844  42.949   2.901
73708W        W42049  38.846  28.526   2.845
73709W        W42050  31.575   2.238  10.559
73710W        W42051  34.531  44.413  13.433
73711W        W42052  30.029  28.539  12.876
73712W        W42053  40.001  38.929   3.234
73713W        W42054  11.728  11.715  13.999
73714W        W42055  39.478   1.950   0.291
73715W        W42056  19.643  32.391   3.153
73716W        W42057   9.821  34.958   1.843
73717W        W42058  12.819  15.686  10.455
73718W        W42059  41.924  23.110   1.395
73719W        W42060  18.777   3.780   2.686
73720W        W42061  16.212  31.119  10.463
73721W        W42062  33.422   4.329  11.048
73722W        W42063  38.460   7.332   2.185
73723W        W42064  43.427   3.254   3.299
73724W        W42065  34.604  19.729   1.249
73725W        W42066  37.514  11.728  10.918
73726W        W42067  19.578  20.620  11.375
73727W        W42068   9.282  32.078  10.637
73728W        W42069   2.251  25.691  12.835
73729W        W42070  31.950   6.369   0.290
73730W        W42071  27.952  36.992  10.015
73731W        W42072  22.699  21.726  10.460
73732W        W42073  31.601  44.336  11.048
73733W        W42074  13.650  28.602   3.739
73734W        W42075  24.711  33.064  14.275
73735W        W42076   0.395  16.272  12.833
73736W        W42077   3.354   4.228   4.722
73737W        W42078  23.110   5.363  13.531
73738W        W42079  29.106  33.552  12.964
73739W        W42080  17.158  20.205  13.397
73740W        W42081  21.171  44.905  10.915
73741W        W42082  32.994  37.444   4.172
73742W        W42083  18.194   3.751   3.309
73743W        W42084   3.896  28.168   1.425
73744W        W42085   8.253  16.641  13.926
73745W        W42086   6.683  23.107  10.522
73746W        W42087  30.041  42.004   1.337
73747W        W42088  28.484   7.263   3.162
73748W        W42089  12.218  41.498  13.485
73749W        W42090   4.800  18.275  10.094
73750W        W42091  41.016  13.298   4.671
73751W        W42092  36.956   3.939  14.302
73752W        W42093  26.524  29.098   3.301
73753W        W42094  33.004  30.986  11.021
73754W        W42095  20.547   1.312   1.368
73755W        W42096  44.283  24.128   3.866
73756W        W42097   0.940   7.316   3.741
73757W        W42098  32.980  44.871   3.195
73758W        W42099  10.203  11.666  13.038
73759W        W42100  43.902  16.706   1.876
73760W        W42101  12.807  34.952  12.473
73761W        W42102   5.907  21.747  14.420
73762W        W42103  31.603  42.392   2.877
73763W        W42104  16.287   4.313   2.343
73764W        W42105  13.331  37.395   4.171
73765W        W42106   4.930  35.903  14.371
73766W        W42107  37.084  40.024   2.855
73767W        W42108  15.101   6.893   4.179
73768W        W42109  24.698  42.017  12.471
73769W        W42110  27.097  42.506  11.431
73770W        W42111  34.384   3.740  12.430
73771W        W42112  44.984  17.632  10.892
73772W        W42113  37.574  18.078   1.748
73773W        W42114  22.747  22.711  14.018
73774W        W42115   0.341   3.234   1.311
73775W        W42116  32.142  36.076  13.953
73776W        W42117   3.336  24.635   1.882
73777W        W42118   5.249  43.405  14.868
73778W        W42119  40.393  42.847   2.341
73779W        W42120  17.177  33.502   1.241
73780W        W42121  35.937   0.879  13.820
73781W        W42122  27.507   6.209  12.002
73782W        W42123  36.485   4.249   0.831
73783W        W42124  31.638  41.431   3.742
73784W        W42125   5.353   6.346  12.452
73785W        W42126  33.003   9.208  10.631
73786W        W42127  35.590  30.418  10.915
73787W        W42128  26.518   1.409  12.457
73788W        W42129  36.505  22.663  11.046
73789W        W42130  17.244  44.922   0.350
73790W        W42131  10.323  23.648   0.397
73791W        W42132  21.657  42.023   4.219
73792W        W42133  30.458  40.428  11.042
73793W        W42134  39.524  21.564   1.414
73794W        W42135  20.749  27.508   2.414
73795W        W42136  18.239  29.437   2.392
73796W        W42137  44.417  43.378  10.453
73797W        W42138  14.190  30.452   4.616
73798W        W42139  11.656  24.495  13.983
73799W        W42140  43.924  37.437   4.201
73800W        W42141  22.660  20.758  13.002
73801W        W42142  29.625  23.535  12.535
73802W        W42143  40.512   9.686  14.474
73803W        W42144   2.935  17.143   5.200
73804W        W42145  19.710  24.066  11.982
73805W        W42146  23.109  33.900  14.007
73806W        W42147   5.394  37.343   3.314
73807W        W42148  18.076  21.182  12.450
73808W        W42149   8.223  38.899  14.828
73809W        W42150  28.675   1.392   2.389
73810W        W42151  36.857  24.125  12.878
73811W        W42152   6.387  21.155   3.338
73812W        W42153  40.307   3.446   9.923
73813W        W42154  19.142  40.815  11.865
73814W        W42155  12.179   3.401  13.513
73815W        W42156  10.813  36.376  13.843
73816W        W42157   3.425  37.490  11.544
73817W        W42158  44.470  18.717  13.825
73818W        W42159  26.622  19.762  10.932
73819W        W42160  14.672  31.499   1.746
73820W        W42161  39.544   5.793  13.046
73821W        W42162  40.506  25.157  13.307
73822W        W42163  16.226  22.183   3.649
73823W        W42164  18.222  30.644  13.392
73824W        W42165  28.610  27.010  14.983
73825W        W42166  20.605  20.621   0.883
73826W        W42167  33.535  36.922  11.869
73827W        W42168   2.762   2.830   4.731
73828W        W42169   4.894  41.451  12.432
73829W        W42170  13.670  27.453   4.323
73830W        W42171  31.150  15.582  10.059
73831W        W42172   1.383  44.799   2.377
73832W        W42173   5.226  15.812  14.867
73833W        W42174  30.638  18.625  13.019
73834W        W42175  42.422   7.856   0.855
73835W        W42176  15.699   5.746   1.910
73836W        W42177  28.636  35.892  11.528
73837W        W42178  16.622  27.675  13.947
73838W        W42179  37.578  37.860   0.958
73839W        W42180   5.732  17.794  10.504
73840W        W42181  27.022   1.967   1.248
73841W        W42182  44.967  17.596   9.442
73842W        W42183  10.633  15.587  13.996
73843W        W42184  10.657   0.908   4.617
73844W        W42185  23.666  16.110  13.791
73845W        W42186   7.692  32.968   1.236
73846W        W42187  30.051  33.901   0.440
73847W        W42188  36.080  17.645   3.681
73848W        W42189   7.402   0.274   3.302
73849W        W42190  33.130   2.885   0.895
73850W        W42191  36.937   4.778   4.313
73851W        W42192  31.022  33.495  10.405
73852W        W42193  19.134  44.318  14.280
73853W        W42194  26.959   0.270  13.053
73854W        W42195  38.456  21.728   4.783
73855W        W42196  18.564  23.652  10.050
73856W        W42197  27.075  38.439  12.409
73857W        W42198  37.563  12.357  12.498
73858W        W42199  15.695   9.795   4.770
73859W        W42200  22.536   3.348   3.179
73860W        W42201   6.757   6.197   1.389
73861W        W42202   4.792  30.642  14.499
73862W        W42203   1.348  26.459   0.845
73863W        W42204  31.455  28.519   0.296
73864W        W42205  39.050  17.572   2.229
73865W        W42206  20.571  25.496  12.907
73866W        W42207  21.126  26.635   4.312
73867W        W42208  14.700  18.674   2.199
73868W        W42209  18.170  35.483   0.313
73869W        W42210  12.850  20.131   2.795
73870W        W42211   9.782  22.209  11.469
73871W        W42212  16.657   4.834   3.377
73872W        W42213  42.511  14.622  11.081
73873W        W42214  10.664  25.468  13.508
73874W        W42215  42.304  30.449   3.285
73875W        W42216   1.792  33.938   3.818
73876W        W42217   6.276  34.922   1.392
73877W        W42218  32.006  19.151   1.211
73878W        W42219  20.665  20.584   1.724
73879W        W42220   1.285  35.977   3.159
73880W        W42221  43.288  42.493   3.344
73881W        W42222   7.246  26.032   4.133
73882W        W42223  28.674  20.725   0.441
73883W        W42224  38.921   4.278  14.420
73884W        W42225   8.793  10.331  11.468
73885W        W42226  20.627  39.381  12.002
73886W        W42227  44.422  30.450  12.041
73887W        W42228  19.185  25.556  12.387
73888W        W42229   6.294  11.164   4.682
73889W        W42230  26.033  28.541   4.251
73890W        W42231   7.814  35.450  10.475
73891W        W42232  42.002  44.809  11.379
73892W        W42233   4.881  31.027   0.832
73893W        W42234  36.007  41.469  11.596
73894W        W42235   2.946   3.865   2.836
73895W        W42236  31.638  19.228  13.434
73896W        W42237  36.933   6.687  12.524
73897W        W42238   6.289  21.074  14.876
73898W        W42239  31.626  17.742   4.173
73899W        W42240  29.014  17.267  10.912
73900W        W42241  25.643  28.153   4.609
73901W        W42242   2.342  11.680  10.986
73902W        W42243   2.873   9.257  12.889
73903W        W42244  12.130  42.393   0.418
73904W        W42245  22.538  20.728  11.457
73905W        W42246  13.138  36.978  13.530
73906W        W42247  35.523  38.465   2.751
73907W        W42248  30.075  24.495   3.756
73908W        W42249  35.407  32.485   0.947
73909W        W42250  30.477  36.480  13.470
73910W        W42251   8.206  38.402  12.850
73911W        W42252  27.058  26.632   4.212
73912W        W42253  37.084   1.923  10.428
73913W        W42254  24.555   2.365   1.815
73914W        W42255  22.645  27.579  12.445
73915W        W42256   0.290  39.867   0.924
73916W        W42257   8.358   5.438  12.482
73917W        W42258   6.834  42.512  12.547
73918W        W42259  12.645  41.316  12.032
73919W        W42260   6.189  35.511   3.366
73920W        W42261  15.705  28.613   4.255
73921W        W42262  25.590  23.590   3.856
73922W        W42263  22.667  12.634  11.906
73923W        W42264  14.222  43.787   3.724
73924W        W42265  17.207  17.168   2.399
73925W        W42266  23.707  17.120  11.499
73926W        W42267  17.176  20.216  13.948
73927W        W42268  35.044  15.598  14.908
73928W        W42269   2.281  40.015  12.964
73929W        W42270  24.600  30.999   4.782
73930W        W42271   7.876  37.551   4.192
73931W        W42272  10.278  22.517   4.312
73932W        W42273   8.676   3.952  14.997
73933W        W42274  40.038  28.663   2.183
73934W        W42275  34.918  43.306  11.909
73935W        W42276  42.868   8.876  11.903
73936W        W42277  25.999   5.873   4.345
73937W        W42278  28.622  34.550  13.971
73938W        W42279   1.358  33.923  10.556
73939W        W42280   9.888  19.069   1.697
73940W        W42281  16.077  20.189  12.428
73941W        W42282   7.777  42.869   1.248
73942W        W42283  23.608  19.112   1.379
73943W        W42284  33.918   1.944   0.366
73944W        W42285  35.935  12.220   2.193
73945W        W42286   3.429  18.176  10.424
73946W        W42287  12.145  22.232   2.221
73947W        W42288  11.309   5.751   3.179
73948W        W42289  11.255  22.154   4.139
73949W        W42290  22.172  21.535  14.407
73950W        W42291  11.732  41.917   2.193
73951W        W42292  42.919  10.738  13.452
73952W        W42293   9.299  37.347   5.149
73953W        W42294  11.842  23.732  14.865
73954W        W42295  22.707  16.766   5.101
73955W        W42296   4.228  24.088  11.935
73956W        W42297   5.753  19.743  14.902
73957W        W42298   1.284  21.736  13.519
73958W        W42299  30.120  37.355  14.001
73959W        W42300  18.063  15.815  11.381
73960W        W42301  18.200  43.505  13.881
73961W        W42302  31.964  38.515   1.296
73962W        W42303  38.954  32.091  10.500
73963W        W42304  29.522  26.671   2.353
73964W        W42305  21.156  25.141   3.724
73965W        W42306  26.177  38.962   0.428
73966W        W42307  40.958  19.546  14.986
73967W        W42308  37.420  37.910   0.290
73968W        W42309  43.506  34.442   2.755
73969W        W42310  20.200  23.509  14.804
73970W        W42311  29.160  41.442   3.760
73971W        W42312  43.822  32.038  14.437
73972W        W42313  33.092  12.734   1.694
73973W        W42314  22.657  16.725   3.758
73974W        W42315  11.803  12.800   5.777
73975W        W42316  23.554  13.728  11.004
73976W        W42317  27.958  16.303  12.863
73977W        W42318   4.292  43.339   4.201
73978W        W42319   7.394   6.909  14.769
73979W        W42320  19.714  42.007   4.724
73980W        W42321   6.305   2.854  12.065
73981W        W42322   9.727   8.242  11.483
73982W        W42323  34.409  32.902  14.996
73983W        W42324  32.995  44.268   0.369
73984W        W42325  33.054  35.089   0.835
73985W        W42326  28.049  12.636  10.006
73986W        W42327   2.322  31.433  10.564
73987W        W42328   4.446  19.163   1.901
73988W        W42329  34.419  29.458  12.991
73989W        W42330  24.096   2.245  14.463
73990W        W42331  28.995  20.165   4.324
73991W        W42332  17.605  26.206  14.994
73992W        W42333  44.450  11.840  14.479
73993W        W42334  22.205  12.122  12.405
73994W        W42335  37.034  34.932  11.075
73995W        W42336  35.948  32.577  12.405
73996W        W42337   2.455   3.912  10.406
73997W        W42338  29.553  25.577  10.499
73998W        W42339  28.155  12.684  14.780
73999W        W42340  40.983   1.407   1.866
74000W        W42341  12.725  25.699  11.105
74001W        W42342   6.404  14.153   2.256
74002W        W42343  43.843  41.493  10.553
74003W        W42344   7.299  34.900   2.775
74004W        W42345  40.866  43.838  12.028
74005W        W42346   9.694   6.246  12.842
74006W        W42347  38.832   5.782   3.653
74007W        W42348  41.321  38.969  13.317
74008W        W42349  42.931  10.814   0.809
74009W        W42350  33.027  30.638   1.738
74010W        W42351  24.708  43.950  10.501
74011W        W42352  28.181   8.388   3.822
74012W        W42353   1.318  34.928  11.404
74013W        W42354  29.040  33.393  13.333
74014W        W42355  14.595  14.228   5.236
74015W        W42356  22.011  13.174   1.291
74016W        W42357  15.789  17.620   0.864
74017W        W42358  37.895  24.054   2.330
74018W        W42359   9.276  16.159  13.398
74019W        W42360  17.654  33.966   1.839
74020W        W42361   6.228  34.393   4.247
74021W        W42362  36.876  31.974   2.384
74022W        W42363  26.693  38.424  11.918
74023W        W42364  14.673  33.410  11.872
74024W        W42365  37.052  31.489  12.507
74025W        W42366   2.741  21.616  13.926
74026W        W42367  14.747  24.658   1.264
74027W        W42368  14.196  33.515   1.423
74028W        W42369  19.251  12.252   3.256
74029W        W42370  40.448  15.709   0.937
74030W        W42371  22.120  11.645   2.277
74031W        W42372  21.752  12.852  10.404
74032W        W42373  19.657  35.074   4.740
74033W        W42374  15.118  29.639  12.395
74034W        W42375  26.639  22.556   0.941
74035W        W42376   4.933  43.845   1.287
74036W        W42377  33.956  27.613  10.971
74037W        W42378  13.806  33.014  14.477
74038W        W42379  41.986  41.538  11.596
74039W        W42380  28.479  16.786  14.312
74040W        W42381  32.966  30.416  10.542
74041W        W42382  37.033  39.060  11.506
74042W        W42383  39.360  18.600   1.765
74043W        W42384  44.932   4.741   5.181
74044W        W42385   2.360  40.014  11.388
74045W        W42386  17.266  44.994  11.415
74046W        W42387  11.230  10.371   4.216
74047W        W42388  10.688  44.371   4.677
74048W        W42389   0.757  27.051  11.590
74049W        W42390   5.886   8.863  14.280
74050W        W42391  11.142  41.295  11.582
74051W        W42392  13.692  15.585  14.354
74052W        W42393  29.140   0.772  13.491
74053W        W42394  24.002  43.301   4.689
74054W        W42395   7.284  15.713  10.604
74055W        W42396  40.458  39.973  13.534
74056W        W42397  22.508  43.384   0.376
74057W        W42398  29.655  23.694  14.289
74058W        W42399   6.288  31.521   2.762
74059W        W42400  15.330  13.191   0.745
74060W        W42401  11.263  21.254   2.359
74061W        W42402  13.318  13.119   4.212
74062W        W42403  25.092  18.627   5.788
74063W        W42404  12.277  15.329  12.076
74064W        W42405  43.466  35.467  10.622
74065W        W42406   6.834  23.586   4.838
74066W        W42407  38.940  32.428  12.855
74067W        W42408  23.048   7.218  13.825
74068W        W42409  37.512  10.221  14.333
74069W        W42410  26.044  16.163   3.368
74070W        W42411  31.039  28.466  11.065
74071W        W42412  19.058   5.746  12.944
74072W        W42413  42.352  31.942  14.343
74073W        W42414  31.980  31.906   4.721
74074W        W42415  40.532   4.845   3.361
74075W        W42416  39.551  19.768  11.075
74076W        W42417  40.034  37.015   0.478
74077W        W42418   6.711  34.519  11.459
74078W        W42419  12.256  34.450  13.950
74079W        W42420  36.570  25.016   2.279
74080W        W42421  37.979   0.392   4.656
74081W        W42422   6.409  33.947   2.301
74082W        W42423  34.450  17.664   3.772
74083W        W42424  24.674  36.983  11.378
74084W        W42425  15.144  28.484   0.447
74085W        W42426  39.455  36.578  14.365
74086W        W42427   5.702  16.298  14.914
74087W        W42428  40.320   9.267   3.686
74088W        W42429  37.335  40.463  13.544
74089W        W42430  38.939  15.681   0.381
74090W        W42431  10.312  27.958  13.343
74091W        W42432  37.077  12.174  10.949
74092W        W42433  20.111  30.942   4.614
74093W        W42434  36.439   8.853  10.512
74094W        W42435   6.689   5.359  11.018
74095W        W42436  10.278  11.341  14.958
74096W        W42437  18.119  42.314  12.982
74097W        W42438  24.708   2.354   0.912
74098W        W42439   2.368   6.866   0.285
74099W        W42440  11.829  11.189   3.165
74100W        W42441   6.375  41.938  10.940
74101W        W42442  26.482  41.435   0.925
74102W        W42443  25.131  44.924  11.601
74103W        W42444  33.536  34.389   5.316
74104W        W42445  30.117  14.812   1.893
74105W        W42446   0.306  20.164  11.124
74106W        W42447  15.227  11.149   4.334
74107W        W42448  17.195  40.954   3.692
74108W        W42449  11.720   9.769   5.252
74109W        W42450  21.549   3.720  14.865
74110W        W42451   8.196   3.904   0.435
74111W        W42452  42.845  29.105  13.813
74112W        W42453   6.877  44.435   4.235
74113W        W42454  15.154  42.496   0.925
74114W        W42455   3.437  23.121  14.405
74115W        W42456  15.192  43.902  14.906
74116W        W42457  17.796  15.154  13.032
74117W        W42458  11.789  36.847   0.794
74118W        W42459  39.870  28.477   0.311
74119W        W42460  40.835   5.819  10.914
74120W        W42461   1.394  36.364   0.420
74121W        W42462  40.887   4.414   1.366
74122W        W42463  27.989  44.923  10.594
74123W        W42464  32.037  23.695  13.044
74124W        W42465  41.995  42.313  12.874
74125W        W42466  38.426   4.342   1.772
74126W        W42467   7.295  29.664  13.036
74127W        W42468  10.678  40.381  10.479
74128W        W42469  42.946  32.068   0.334
74129W        W42470  33.416  22.653   4.611
74130W        W42471  44.459   4.863   1.290
74131W        W42472  30.121   9.190   3.176
74132W        W42473  26.150  22.652  12.045
74133W        W42474   7.766  34.052  12.558
74134W        W42475  24.023  14.691  12.509
74135W        W42476  11.345   0.264  11.029
74136W        W42477  13.218  43.427  14.894
74137W        W42478  13.138  21.107  11.605
74138W        W42479  15.687  43.804   4.757
74139W        W42480  40.381  16.205  13.983
74140W        W42481  31.544  27.003  10.998
74141W        W42482  33.119  32.619   4.322
74142W        W42483   9.758  16.106  14.303
74143W        W42484  12.769  41.826   4.673
74144W        W42485   9.164   0.273   3.164
74145W        W42486  26.981  26.505  10.536
74146W        W42487  20.061  31.503   0.811
74147W        W42488  23.210  23.517  12.090
74148W        W42489   2.773  23.123   4.281
74149W        W42490  14.193   0.382  10.895
74150W        W42491  15.110  37.949   3.282
74151W        W42492  14.184  22.740   0.840
74152W        W42493  34.012  35.470  13.311
74153W        W42494  27.010   3.245   4.777
74154W        W42495   8.854   8.356   3.804
74155W        W42496  24.106   8.755   4.738
74156W        W42497  31.517  32.001  13.898
74157W        W42498   0.450  25.988  12.468
74158W        W42499  28.511   7.828   4.676
74159W        W42500  25.636  21.559   3.703
74160W        W42501   2.381  13.739  12.980
74161W        W42502  36.879   9.749  14.476
74162W        W42503  21.583   8.851  10.979
74163W        W42504  11.713  41.294  12.942
74164W        W42505  11.340  16.315  12.964
74165W        W42506  11.238  29.521   3.738
74166W        W42507  23.032  17.615   1.395
74167W        W42508  10.738  32.466  12.884
74168W        W42509   8.347  23.587   3.293
74169W        W42510  13.837   9.173  11.473
74170W        W42511  15.602  11.727   3.355
74171W        W42512  36.364  32.113  10.546
74172W        W42513  27.539  13.822  14.032
74173W        W42514  32.537  12.713  10.903
74174W        W42515  13.297  41.374   1.293
74175W        W42516  35.530  24.188   3.839
74176W        W42517  25.980  21.671  12.930
74177W        W42518  35.592  40.512  14.333
74178W        W42519   2.779  23.607   0.416
74179W        W42520  10.662  21.181  13.366
74180W        W42521  35.441  25.157   1.742
74181W        W42522  42.821  28.164   3.268
74182W        W42523  29.167   8.327  14.947
74183W        W42524  30.025  18.757  14.413
74184W        W42525   2.877   7.187   3.288
74185W        W42526  20.177  17.733  12.401
74186W        W42527  44.502   6.213   2.289
74187W        W42528  30.534  36.858  13.805
74188W        W42529  20.180   4.735  14.402
74189W        W42530   3.743  35.439  13.886
74190W        W42531  33.905  41.538   3.226
74191W        W42532   5.898  18.168  10.953
74192W        W42533  31.908  31.001  10.482
74193W        W42534  10.226   0.889  14.007
74194W        W42535  27.613  22.675   2.207
74195W        W42536  38.859   6.409  13.834
74196W        W42537  37.073  39.865  13.807
74197W        W42538  36.079  13.631   3.186
74198W        W42539  14.722  39.867   2.407
74199W        W42540   3.409   9.778   1.394
74200W        W42541   4.346  16.092  12.880
74201W        W42542  30.478  25.623  13.874
74202W        W42543  19.601  19.641  12.396
74203W        W42544  32.942  36.456  14.376
74204W        W42545   2.755   4.321  10.427
74205W        W42546  13.275   4.375   2.825
74206W        W42547  28.069  43.307  13.455
74207W        W42548  27.011  19.688  13.965
74208W        W42549  11.214   6.196  14.883
74209W        W42550   6.826  11.837   4.312
74210W        W42551   2.230   1.277  14.354
74211W        W42552   1.262   0.345   4.150
74212W        W42553  24.034  14.142  13.425
74213W        W42554  27.008  26.208   3.205
74214W        W42555   1.842   2.721   0.407
74215W        W42556  26.630  31.991  14.421
74216W        W42557  23.208   9.807  10.929
74217W        W42558   7.344  21.683  13.881
74218W        W42559   0.334  12.725  10.591
74219W        W42560  14.207  17.223   3.175
74220W        W42561  18.714   7.791  11.081
74221W        W42562  25.043  33.025  14.027
74222W        W42563   7.843  13.810  12.841
74223W        W42564  25.056  28.122  11.020
74224W        W42565   6.769   7.688   1.776
74225W        W42566   9.226  25.667  11.459
74226W        W42567  11.655  36.892  11.889
74227W        W42568  30.544   0.389  13.333
74228W        W42569  13.302   8.686  14.815
74229W        W42570  23.716  37.543  12.035
74230W        W42571   4.841  24.086   3.786
74231W        W42572  35.557  34.380  13.490
74232W        W42573  23.715  23.578  11.093
74233W        W42574  13.839  42.396  13.389
74234W        W42575   2.337  15.245   0.905
74235W        W42576  30.091   6.836   2.679
74236W        W42577  20.594  41.018   0.402
74237W        W42578  21.251   6.428   4.154
74238W        W42579  31.101  43.386   4.278
74239W        W42580  14.319  39.326   2.233
74240W        W42581  44.852  30.134  11.986
74241W        W42582  22.106  17.137   3.695
74242W        W42583  14.730  28.439  14.980
74243W        W42584  38.959  11.234   5.126
74244W        W42585  18.128  36.001  10.640
74245W        W42586  26.162  31.137  14.009
74246W        W42587  17.252  30.162   0.834
74247W        W42588  43.397  42.995   0.945
74248W        W42589   7.251   9.727   4.206
74249W        W42590   3.877  25.490  12.447
74250W        W42591  36.860  11.838   1.394
74251W        W42592   7.398  26.076   3.167
74252W        W42593  39.505   5.748   4.341
74253W        W42594  12.823  10.290   2.365
74254W        W42595  24.635   2.376  14.357
74255W        W42596  37.442   7.808  12.900
74256W        W42597  41.338  26.676  12.909
74257W        W42598   1.244  20.709  13.420
74258W        W42599  30.602   9.297  11.449
74259W        W42600  10.725   6.407  11.002
74260W        W42601  20.081  18.064  10.077
74261W        W42602  44.443  17.599  11.417
74262W        W42603  15.799  34.949  13.472
74263W        W42604   3.796  32.563   1.280
74264W        W42605  16.248  31.466  13.307
74265W        W42606  39.919  29.648  12.032
74266W        W42607   8.279  28.971  13.998
74267W        W42608  31.416  29.484  11.491
74268W        W42609  38.835  21.119  13.327
74269W        W42610  36.860   0.977   0.467
74270W        W42611  22.544  41.921   3.718
74271W        W42612  41.470  42.360   9.977
74272W        W42613  13.748  39.054   1.738
74273W        W42614  19.754  36.591   4.347
74274W        W42615  31.525  21.692   1.323
74275W        W42616  17.111  33.977   4.777
74276W        W42617  34.927   8.716  10.020
74277W        W42618   8.284  44.403  11.122
74278W        W42619  44.951  37.991   4.829
74279W        W42620  30.549  20.104  10.470
74280W        W42621  28.975   8.729  12.066
74281W        W42622   1.479  24.537   2.671
74282W        W42623   3.358  17.583   0.957
74283W        W42624  25.963  34.045   2.770
74284W        W42625  13.223  44.377  10.592
74285W        W42626   4.297  18.075  12.025
74286W        W42627  40.880  35.929   3.292
74287W        W42628  15.588  21.055  11.536
74288W        W42629  39.814  32.896   2.276
74289W        W42630  25.682  26.546   3.231
74290W        W42631   8.813  36.991   3.151
74291W        W42632  31.989  29.997   1.695
74292W        W42633  38.831   9.235  11.574
74293W        W42634  36.460   7.904  14.318
74294W        W42635   5.238  15.647  11.891
74295W        W42636  32.508  10.805  10.983
74296W        W42637  25.026  11.220  11.898
74297W        W42638  38.511   3.326   4.153
74298W        W42639  11.142   4.387   1.896
74299W        W42640  20.232  33.951  13.998
74300W        W42641  43.336  37.347  10.520
74301W        W42642   0.782   9.252   0.372
74302W        W42643  22.063   6.773   2.270
74303W        W42644  41.790  37.577  14.803
74304W        W42645  35.912   7.224   0.327
74305W        W42646  10.316  38.821  13.968
74306W        W42647  35.554   4.766   0.894
74307W        W42648  43.385  36.408  13.429
74308W        W42649   5.300  11.814   1.222
74309W        W42650  13.605  35.368  13.939
74310W        W42651  44.853  10.213  13.389
74311W        W42652  39.369  22.237  13.420
74312W        W42653  28.618  22.577  14.277
74313W        W42654  29.425  24.133   1.785
74314W        W42655   4.751   4.773   4.321
74315W        W42656  42.325   4.284  10.963
74316W        W42657   8.767  44.861   4.168
74317W        W42658   7.214  33.497   4.125
74318W        W42659   3.878  28.525   3.661
74319W        W42660   1.310  43.269  14.282
74320W        W42661  14.804  24.719   3.759
74321W        W42662  17.636  30.963   1.265
74322W        W42663   2.790  26.528   3.635
74323W        W42664  25.713  27.074   3.231
74324W        W42665  41.528  18.213   4.183
74325W        W42666  14.804  30.057   1.266
74326W        W42667  25.177  16.771   4.641
74327W        W42668  10.217   5.766   3.159
74328W        W42669  41.986  44.830   1.247
74329W        W42670  22.149  31.045   0.915
74330W        W42671  29.069   0.470   2.270
74331W        W42672   0.473  28.446  14.918
74332W        W42673  10.665  12.792   2.900
74333W        W42674  24.154  39.414  11.911
74334W        W42675   0.913   3.810   2.279
74335W        W42676  12.788  26.170  11.612
74336W        W42677  14.124  13.788  13.045
74337W        W42678   9.268  41.009  14.359
74338W        W42679  36.940  44.454  14.423
74339W        W42680   1.412  11.359  12.959
74340W        W42681   6.257  43.426  14.801
74341W        W42682  32.049  18.706   3.214
74342W        W42683  43.379  30.082   1.357
74343W        W42684  27.941   1.977  10.121
74344W        W42685  28.499  19.197   3.635
74345W        W42686  28.471  44.313   2.194
74346W        W42687  14.651  40.349   5.123
74347W        W42688  33.458  37.032  13.055
74348W        W42689  10.794  11.138   4.669
74349W        W42690  36.983  12.798   4.286
74350W        W42691  26.580  40.910  10.426
74351W        W42692  33.040  18.262   2.897
74352W        W42693  21.692  13.728   3.764
74353W        W42694  13.117   4.296  13.417
74354W        W42695  28.476  19.612   2.745
74355W        W42696  34.946  13.678  14.401
74356W        W42697  37.964  18.654  12.981
74357W        W42698  34.109  43.442   1.382
74358W        W42699  37.850  37.030   3.370
74359W        W42700  41.875  20.155  13.524
74360W        W42701  22.158  24.143  14.322
74361W        W42702  42.288  36.083  10.462
74362W        W42703  33.384  27.101  11.538
74363W        W42704  10.752  31.542  14.357
74364W        W42705  36.008  10.317  13.535
74365W        W42706  38.390  10.243   1.836
74366W        W42707  38.908  38.983   2.693
74367W        W42708  22.583  15.154  11.442
74368W        W42709   2.233   0.396   1.305
74369W        W42710   7.184  15.158  14.816
74370W        W42711  40.383   1.365  14.372
74371W        W42712  35.397   9.814  13.520
74372W        W42713  34.554  12.215  12.522
74373W        W42714  21.206   4.225   0.770
74374W        W42715   5.346  42.897   2.710
74375W        W42716  11.639   1.878   5.184
74376W        W42717  23.520  30.960   2.716
74377W        W42718  43.877  26.108   3.228
74378W        W42719  16.263  25.014  11.090
74379W        W42720  16.159  37.568  10.513
74380W        W42721   7.294   5.725   0.736
74381W        W42722  26.958  43.289   0.766
74382W        W42723  44.010  34.390  12.367
74383W        W42724  40.034   3.912  11.571
74384W        W42725  10.818  24.025   4.628
74385W        W42726  21.110  44.837  12.464
74386W        W42727  40.923  15.710   4.767
74387W        W42728   0.262   1.470   3.199
74388W        W42729  40.328  35.565  12.866
74389W        W42730  43.294   5.908  12.527
74390W        W42731   1.253  41.984   2.285
74391W        W42732  18.111  13.666   0.408
74392W        W42733  13.792   2.236  12.827
74393W        W42734  11.208  41.367   4.650
74394W        W42735   9.852  21.183   2.277
74395W        W42736  44.933  33.528   1.848
74396W        W42737   9.161   3.241  12.826
74397W        W42738  39.835  37.479   0.449
74398W        W42739  23.507  12.836   4.280
74399W        W42740  22.190  43.784  11.526
74400W        W42741  43.010   3.399   9.983
74401W        W42742  44.898   8.824   2.747
74402W        W42743   7.287  40.043   4.730
74403W        W42744   3.944  10.842   1.795
74404W        W42745  35.601  15.201   4.222
74405W        W42746   2.290   0.833  13.998
74406W        W42747  39.348  18.596  11.094
74407W        W42748  20.700   5.743   3.868
74408W        W42749  33.014  20.192  12.882
74409W        W42750   4.728  13.773   1.864
74410W        W42751   9.335   1.290   4.324
74411W        W42752  33.878  39.424  14.890
74412W        W42753   9.341  38.927   0.393
74413W        W42754  12.168  21.727   3.318
74414W        W42755   1.812  17.665   3.742
74415W        W42756  41.339  41.941  11.068
74416W        W42757   9.872   2.247   1.248
74417W        W42758  31.094  40.353   2.709
74418W        W42759   9.301  20.259  13.484
74419W        W42760  12.188  35.858   0.800
74420W        W42761   0.980  23.611   4.811
74421W        W42762  10.338  15.097   1.745
74422W        W42763  17.078  41.304   5.175
74423W        W42764  24.195  23.650   2.823
74424W        W42765  14.198  12.747   4.769
74425W        W42766  17.261  29.033   3.323
74426W        W42767   7.855  15.279  12.394
74427W        W42768  39.876  13.113  11.996
74428W        W42769  20.208  12.268  13.833
74429W        W42770  17.093  36.408   2.796
74430W        W42771  35.434   2.890  12.850
74431W        W42772   1.824  33.069   0.827
74432W        W42773  35.363   9.271   2.324
74433W        W42774  28.110  38.074  12.579
74434W        W42775   8.793   6.422  13.470
74435W        W42776  11.766  24.987   9.993
74436W        W42777  15.579   1.846   1.908
74437W        W42778  33.916  18.056   2.774
74438W        W42779  32.931  25.042   4.717
74439W        W42780  11.262   6.916   3.179
74440W        W42781  29.465  13.310  14.420
74441W        W42782  17.286  39.832   3.760
74442W        W42783  38.353  33.015   4.342
74443W        W42784   7.909   2.242   1.797
74444W        W42785  35.459  33.452   4.313
74445W        W42786   9.769   2.916   3.810
74446W        W42787  16.247  20.595   2.900
74447W        W42788  28.938   7.736   3.852
74448W        W42789  19.595   2.750   0.479
74449W        W42790  18.056   3.843  14.918
74450W        W42791   0.925  20.098  13.923
74451W        W42792   8.234   9.705   0.278
74452W        W42793  41.030  20.584   1.828
74453W        W42794  17.590  44.959  12.364
74454W        W42795  33.547  42.452   3.321
74455W        W42796  11.849   3.358  12.834
74456W        W42797   3.251   3.398  11.013
74457W        W42798   7.212  25.662   2.708
74458W        W42799   6.316  19.129   4.789
74459W        W42800  21.745  18.173   4.793
74460W        W42801  34.080  12.171   0.317
74461W        W42802  10.275  18.265  13.969
74462W        W42803  19.538  26.598   1.818
74463W        W42804  35.939  42.416   4.801
74464W        W42805   8.162  27.061   3.312
74465W        W42806   7.226  14.656  13.928
74466W        W42807  38.901  42.443  11.439
74467W        W42808  39.863  30.494  12.028
74468W        W42809  31.608  34.489   1.696
74469W        W42810  32.576  20.076  12.427
74470W        W42811  30.106   1.844   3.210
74471W        W42812  24.065  10.182   3.386
74472W        W42813  31.643  24.675  10.623
74473W        W42814   1.910   4.229  14.349
74474W        W42815  31.966  17.150  10.568
74475W        W42816  36.394  17.753  10.922
74476W        W42817  44.969  36.383  13.942
74477W        W42818   0.883  23.069  10.622
74478W        W42819  16.118  36.968  10.523
74479W        W42820   9.329   6.834   0.746
74480W        W42821  31.120  25.036  11.933
74481W        W42822   6.223  41.915   4.253
74482W        W42823  39.521   6.803   2.235
74483W        W42824  13.806  13.184  12.068
74484W        W42825  36.588  15.123   0.385
74485W        W42826  19.761  27.687   1.217
74486W        W42827  32.093  16.770   2.702
74487W        W42828  38.459  15.790   1.766
74488W        W42829  21.181   5.831   0.406
74489W        W42830   8.755  38.544  14.789
74490W        W42831  41.960  10.365  12.872
74491W        W42832  30.658   2.305   1.375
74492W        W42833  40.807  14.282  11.087
74493W        W42834  11.796  23.557  14.381
74494W        W42835   9.746   4.429   2.317
74495W        W42836  18.545  15.223  10.644
74496W        W42837  10.173   2.296  12.080
74497W        W42838  37.890  14.808  10.545
74498W        W42839  12.804  12.129   5.190
74499W        W42840   7.327  14.816  12.022
74500W        W42841  14.210   1.331  12.953
74501W        W42842  25.473  10.818   1.444
74502W        W42843  30.126  42.378   4.672
74503W        W42844  24.230   1.259   2.337
74504W        W42845  29.164  27.599   0.250
74505W        W42846  25.533  44.458  14.847
74506W        W42847  20.767  10.169   4.223
74507W        W42848  22.176  28.072   3.347
74508W        W42849   0.315  28.647   4.255
74509W        W42850   7.763  28.548  11.953
74510W        W42851  38.478  18.260   0.251
74511W        W42852  10.721   1.884   1.265
74512W        W42853   9.313  23.156  13.933
74513W        W42854   3.422  43.334   3.789
74514W        W42855  25.602  23.656   4.120
74515W        W42856   2.430  31.961  13.880
74516W        W42857  18.130  19.176  12.999
74517W        W42858  34.989  11.136   0.354
74518W        W42859  34.919  32.983  11.005
74519W        W42860  28.985   3.301   1.355
74520W        W42861  42.902  37.430   4.257
74521W        W42862   0.437  14.689  14.940
74522W        W42863  43.969   5.868  11.992
74523W        W42864  21.177   7.902   2.692
74524W        W42865   8.756  30.146  10.982
74525W        W42866  20.116  20.690  12.437
74526W        W42867  24.607  38.431   4.666
74527W        W42868  27.568  11.787   3.799
74528W        W42869  36.933  38.461   3.737
74529W        W42870  22.612  10.856  12.905
74530W        W42871  44.266   6.357   3.165
74531W        W42872  37.526  26.139   3.769
74532W        W42873  15.661  13.282  14.379
74533W        W42874  20.225   3.346  14.811
74534W        W42875  21.151   6.815   0.346
74535W        W42876   7.902  33.488  13.480
74536W        W42877   7.299   4.349  13.338
74537W        W42878  13.688  14.167  11.552
74538W        W42879   9.798   8.753   0.816
74539W        W42880  17.128   7.363  12.976
74540W        W42881   5.855  11.844  14.343
74541W        W42882  13.773  11.639   1.718
74542W        W42883  39.991  34.897   4.317
74543W        W42884  28.455  44.357  13.044
74544W        W42885  24.507  16.275  12.562
74545W        W42886  20.038  40.909   3.354
74546W        W42887   3.729  13.288  13.846
74547W        W42888  28.121  38.943   9.931
74548W        W42889  41.903  22.577   0.377
74549W        W42890  44.293  36.091  12.910
74550W        W42891  23.127  15.796   4.205
74551W        W42892  28.678  35.521   0.381
74552W        W42893  40.422  20.120  11.894
74553W        W42894  37.958   6.884  10.547
74554W        W42895  39.469  22.047   4.211
74555W        W42896  19.140  11.709   2.414
74556W        W42897   8.310  25.094   1.215
74557W        W42898  40.365  25.047  12.408
74558W        W42899  26.170  32.976   4.302
74559W        W42900  12.719  41.966   3.323
74560W        W42901  41.499  16.290  13.062
74561W        W42902  37.077  40.974  14.506
74562W        W42903  35.400  25.967   4.251
74563W        W42904   8.292  13.702   2.687
74564W        W42905  42.838  13.331  11.388
74565W        W42906  23.201  16.805  14.772
74566W        W42907  15.707  11.183   3.826
74567W        W42908  38.403  21.211   4.181
74568W        W42909  37.881  20.526  11.553
74569W        W42910  38.023  36.391  13.824
74570W        W42911  22.140  39.336   4.649
74571W        W42912   1.947  28.539   3.324
74572W        W42913   5.897   1.476   4.756
74573W        W42914  24.677   0.473  12.401
74574W        W42915   5.829  37.034   3.856
74575W        W42916  15.792  19.181  11.443
74576W        W42917  24.511  10.694  12.992
74577W        W42918   8.697   2.246   4.636
74578W        W42919   5.841  28.557  10.901
74579W        W42920  18.582  26.619   4.155
74580W        W42921   5.318  32.954   2.220
74581W        W42922  15.248  39.500   3.260
74582W        W42923  36.059  22.612   2.878
74583W        W42924  29.971  16.718   4.148
74584W        W42925  42.405  18.115   3.289
74585W        W42926  23.011  25.551  14.383
74586W        W42927  32.085  34.550   4.772
74587W        W42928  32.069  29.464   2.269
74588W        W42929   2.368  29.126  11.991
74589W        W42930  32.003  12.304   2.739
74590W        W42931  21.630  41.374   3.869
74591W        W42932   0.438  25.170   3.327
74592W        W42933  37.990  18.237   4.825
74593W        W42934   3.432  11.258  13.024
74594W        W42935  27.558  35.930   3.178
74595W        W42936  39.551  39.356  12.921
74596W        W42937   4.930   7.861   0.382
74597W        W42938  38.340  18.234  11.499
74598W        W42939  19.719  15.667   3.635
74599W        W42940  25.683  16.606   4.225
74600W        W42941  31.604  13.640  13.042
74601W        W42942  15.737  15.114  13.976
74602W        W42943  30.530  11.211  12.356
74603W        W42944  26.197  14.207  11.123
74604W        W42945   3.356  13.263   2.243
74605W        W42946  42.472   6.759   0.426
74606W        W42947  37.353  28.521  10.918
74607W        W42948  17.612   8.311  14.414
74608W        W42949  26.188  35.583   3.697
74609W        W42950  44.496  32.987   0.831
74610W        W42951   8.360  13.674   4.279
74611W        W42952  27.173  38.883   1.409
74612W        W42953  40.837  10.787  13.832
74613W        W42954   9.761  26.669   0.416
74614W        W42955  42.886  36.399   0.873
74615W        W42956  11.158   5.201   4.778
74616W        W42957  21.078  39.837   2.879
74617W        W42958  13.306  38.978   4.150
74618W        W42959  14.791   6.314   1.390
74619W        W42960  19.168  22.009  14.800
74620W        W42961   1.764   3.914   0.351
74621W        W42962  42.902   9.862   1.848
74622W        W42963  42.779  40.840  13.827
74623W        W42964   5.901  35.923   0.402
74624W        W42965   1.261  44.895   0.252
74625W        W42966  35.987  22.680   0.935
74626W        W42967  17.657  16.278   4.205
74627W        W42968  33.593  17.718   3.159
74628W        W42969  27.090  33.909  10.483
74629W        W42970   9.345  35.018   0.807
74630W        W42971  32.915   5.852   0.362
74631W        W42972  41.302  26.186  13.901
74632W        W42973  26.557   3.444   4.226
74633W        W42974  28.040  27.537  13.849
74634W        W42975  20.607  21.181  12.352
74635W        W42976  14.795  29.498   3.283
74636W        W42977  21.060   1.821  13.921
74637W        W42978  22.590  12.757   0.342
74638W        W42979  12.781  39.418   2.846
74639W        W42980  29.504  13.220  10.406
74640W        W42981  32.130   6.759   0.331
74641W        W42982   7.665  14.802   0.806
74642W        W42983   1.828  44.927   2.670
74643W        W42984  34.930  33.938  11.376
74644W        W42985  32.544   8.291   0.792
74645W        W42986  43.959   0.977   2.862
74646W        W42987   3.911  40.034   3.686
74647W        W42988  35.585   6.805   3.674
74648W        W42989  24.214  22.622   5.134
74649W        W42990  18.067   3.803   0.434
74650W        W42991  36.379  12.335   3.827
74651W        W42992  15.283   1.290  11.537
74652W        W42993   2.949  25.030  10.482
74653W        W42994  35.389  21.521  10.614
74654W        W42995  37.057   6.205   2.726
74655W        W42996   5.845   5.254   3.288
74656W        W42997  41.809   7.225  10.085
74657W        W42998  12.224   3.233  11.902
74658W        W42999   8.335  30.486   3.822
74659W        W43000   3.846  30.538   0.367
74660W        W43001  40.456  17.676   1.230
74661W        W43002  35.044  16.176   2.739
74662W        W43003  42.881   3.319   2.290
74663W        W43004  24.176  15.686   4.209
74664W        W43005  27.500   8.674  12.439
74665W        W43006  21.659  28.530  13.868
74666W        W43007  20.607  43.284  12.071
74667W        W43008  39.976  25.593  14.849
74668W        W43009  13.289  14.197  13.916
74669W        W43010  34.533   5.709  12.827
74670W        W43011  24.593   7.343   3.209
74671W        W43012  30.980  42.876  10.954
74672W        W43013  22.240  41.429   4.147
74673W        W43014   7.349  34.025   3.749
74674W        W43015  11.630  27.687   3.317
74675W        W43016  12.694  22.532  10.894
74676W        W43017   3.288  32.627  10.608
74677W        W43018  25.607  11.647   0.275
74678W        W43019  15.257  36.582  10.955
74679W        W43020  10.674   4.777  11.511
74680W        W43021  13.736  17.078  13.865
74681W        W43022  11.723  43.792  10.973
74682W        W43023  35.030   9.759  12.052
74683W        W43024  36.458  23.517  11.015
74684W        W43025  37.887  31.503  10.510
74685W        W43026  26.125  23.044   2.714
74686W        W43027  21.122  39.495  10.408
74687W        W43028  20.594   9.687   2.313
74688W        W43029  17.794  38.979  14.440
74689W        W43030  14.641  36.961   4.265
74690W        W43031  11.276  21.104  12.902
74691W        W43032   9.815  27.594   1.283
74692W        W43033   0.974  44.958  13.330
74693W        W43034  39.448  28.039   2.668
74694W        W43035  29.454  17.625   2.790
74695W        W43036  12.290   0.797  13.810
74696W        W43037  29.155   9.887   1.710
74697W        W43038  44.827  41.792   0.867
74698W        W43039  33.977  13.639  11.027
74699W        W43040  26.110  22.688  14.860
74700W        W43041  28.063   5.370  13.898
74701W        W43042  42.492   9.659   4.775
74702W        W43043  37.975  17.684  10.934
74703W        W43044  20.559  29.936  12.413
74704W        W43045  32.456  11.146   0.450
74705W        W43046   7.681   4.435   2.274
74706W        W43047  23.005  39.840  13.957
74707W        W43048  21.609  29.650  11.441
74708W        W43049   8.767  25.501  11.508
74709W        W43050  39.389  31.560  14.385
74710W        W43051  35.440  20.201  11.044
74711W        W43052  32.005  11.774   4.612
74712W        W43053   1.754  36.483  10.540
74713W        W43054  35.917  24.185  12.507
74714W        W43055  19.637  11.725   4.626
74715W        W43056  16.810  31.433   3.370
74716W        W43057  22.190  33.928  11.967
74717W        W43058  33.077  44.385  11.580
74718W        W43059  36.877   3.447   2.760
74719W        W43060  33.424  39.013   4.630
74720W        W43061   3.405   1.419  11.908
74721W        W43062  37.886  27.047   1.286
74722W        W43063  10.722  34.554   4.739
74723W        W43064  14.283  29.131  11.095
74724W        W43065  26.961  36.523  14.849
74725W        W43066  44.279  11.307   0.779
74726W        W43067  18.607   3.872  12.901
74727W        W43068  12.697  32.096   3.291
74728W        W43069   6.750  30.957   4.684
74729W        W43070  10.215  22.166   4.762
74730W        W43071  37.494  15.162   0.916
74731W        W43072  16.591   4.381  13.841
74732W        W43073  44.858   6.879  12.392
74733W        W43074   8.721  29.547  11.921
74734W        W43075  16.693  37.531   1.440
74735W        W43076   8.876  33.451  14.009
74736W        W43077   4.356  32.986   1.859
74737W        W43078  16.202  30.504   4.336
74738W        W43079  10.308  28.111  10.588
74739W        W43080  12.150  31.529   1.425
74740W        W43081  12.813  42.907  14.957
74741W        W43082   6.383   1.901   1.337
74742W        W43083  20.059   6.405  13.397
74743W        W43084  33.550  26.492  10.955
74744W        W43085  10.673   8.185   1.261
74745W        W43086  28.636  36.405   1.862
74746W        W43087  39.015  21.197  11.120
74747W        W43088  14.200  13.720   2.295
74748W        W43089  44.866  21.630   2.824
74749W        W43090  18.667  40.519   0.752
74750W        W43091  33.578  38.399   2.358
74751W        W43092  33.104  21.585  10.538
74752W        W43093  18.566  18.086  10.051
74753W        W43094  31.115   8.763   0.891
74754W        W43095  44.947  41.348  14.437
74755W        W43096  27.156  17.706  10.560
74756W        W43097  18.682  42.880   3.227
74757W        W43098  28.995  12.661  10.966
74758W        W43099  21.217  38.526  14.760
74759W        W43100  34.956  25.118  13.890
74760W        W43101  34.100   8.815   1.305
74761W        W43102  14.727   3.802  14.976
74762W        W43103   3.711  37.842   3.249
74763W        W43104  21.553   4.900  14.344
74764W        W43105  22.170  16.601   2.367
74765W        W43106  34.611  10.379  11.403
74766W        W43107  10.805  31.627  12.008
74767W        W43108  36.583   5.317   1.906
74768W        W43109   1.850   4.846   0.833
74769W        W43110  29.655  38.471   2.739
74770W        W43111  37.915  26.090  12.977
74771W        W43112  26.029  17.739  13.020
74772W        W43113  36.561  39.335   1.318
74773W        W43114  13.614   4.390   4.713
74774W        W43115  19.573   0.864  12.458
74775W        W43116  44.818  40.509  14.838
74776W        W43117  17.298  28.660  11.557
74777W        W43118  38.407  32.473   3.663
74778W        W43119  30.607   6.391  11.587
74779W        W43120  21.224  40.411   1.797
74780W        W43121  19.625  20.533   4.317
74781W        W43122  26.971  20.220   3.679
74782W        W43123  43.014   9.284  12.888
74783W        W43124  24.654   0.493  11.904
74784W        W43125   4.249  23.686  12.040
74785W        W43126   9.692  23.549  12.945
74786W        W43127   9.726  10.192  11.995
74787W        W43128  38.393  25.482   1.271
74788W        W43129  22.176  16.089  12.060
74789W        W43130  34.571  31.574   4.202
74790W        W43131  43.993   2.755   4.628
74791W        W43132  36.987   9.266   1.427
74792W        W43133  27.536  38.427  13.390
74793W        W43134  17.123  16.570   2.875
74794W        W43135  38.534  28.649  11.049
74795W        W43136  21.090   4.935  11.063
74796W        W43137  14.244  17.714  13.812
74797W        W43138  20.766   1.858  10.507
74798W        W43139  24.143   4.225  14.031
74799W        W43140  20.034  33.954   4.155
74800W        W43141   9.354  32.079   2.342
74801W        W43142  35.545  29.150   3.330
74802W        W43143  40.020  38.986   4.339
74803W        W43144  28.528   5.881   2.698
74804W        W43145  32.471  32.087  14.281
74805W        W43146  30.035  28.556  14.320
74806W        W43147  21.042  13.287  12.550
74807W        W43148  44.846  11.791  12.507
74808W        W43149  37.458  41.929   1.250
74809W        W43150  41.014  37.020  11.590
74810W        W43151  38.892  42.427   2.280
74811W        W43152   7.170   0.947   1.924
74812W        W43153   7.777  21.572   4.737
74813W        W43154  41.446  15.637   4.709
74814W        W43155  34.003  33.551  10.035
74815W        W43156   4.360  17.737   0.765
74816W        W43157  11.306  29.508   3.203
74817W        W43158  17.104  15.784   2.349
74818W        W43159   0.887   9.321   4.280
74819W        W43160   8.702   7.321  14.821
74820W        W43161   8.300   2.755  11.059
74821W        W43162  30.519  38.501   0.945
74822W        W43163  31.939  11.831   1.828
74823W        W43164  38.854  41.840   2.709
74824W        W43165  41.470  37.959   4.750
74825W        W43166  29.563  33.398  11.967
74826W        W43167  21.136  32.415  12.896
74827W        W43168   7.782  10.765  12.355
74828W        W43169  42.017  42.823  11.379
74829W        W43170  12.230   6.742   2.799
74830W        W43171   8.785   8.325   0.847
74831W        W43172  22.538  21.697   2.688
74832W        W43173  25.093  28.566   3.655
74833W        W43174  21.090  11.640   0.396
74834W        W43175  16.733  34.070  10.036
74835W        W43176  33.034  12.686   0.961
74836W        W43177  21.186  38.427   1.378
74837W        W43178  14.834  29.106   0.910
74838W        W43179  32.435  30.948   3.311
74839W        W43180   9.338  36.468  13.369
74840W        W43181  41.011  40.797   1.737
74841W        W43182   8.838  20.079   3.216
74842W        W43183   2.341  17.143   2.700
74843W        W43184  35.513  27.948  14.880
74844W        W43185   5.840  12.734  14.807
74845W        W43186   4.703  41.372  11.418
74846W        W43187   3.770  36.952   3.301
74847W        W43188  23.997   8.797  14.863
74848W        W43189  19.063  23.063   9.508
74849W        W43190  44.302  18.758   3.668
74850W        W43191   1.416  24.575   3.180
74851W        W43192  34.079  42.411   0.901
74852W        W43193  16.761  23.999   2.738
74853W        W43194   2.929  39.815  12.516
74854W        W43195   9.879  10.861  13.469
74855W        W43196  44.376  13.643  12.932
74856W        W43197  29.996  25.640  13.395
74857W        W43198  38.941  38.532  14.347
74858W        W43199  17.217   4.926  11.027
74859W        W43200  15.197   8.752  12.535
74860W        W43201  10.807   0.785  14.470
74861W        W43202  26.142  23.616   0.337
74862W        W43203  26.679   6.813   4.621
74863W        W43204  40.798  21.195   3.356
74864W        W43205  26.488  17.795  10.995
74865W        W43206  19.733  32.057   1.904
74866W        W43207  27.046  18.631   0.338
74867W        W43208  18.680  17.639  13.375
74868W        W43209   6.696  32.611   4.619
74869W        W43210  23.536  39.873  14.834
74870W        W43211  11.373  18.198   1.840
74871W        W43212  17.763  33.068   2.839
74872W        W43213   7.736  35.908  14.791
74873W        W43214  11.759   7.792   1.873
74874W        W43215  22.528  33.101   2.754
74875W        W43216  44.328  18.707   0.820
74876W        W43217  27.079  34.478  11.410
74877W        W43218  35.077  27.059   3.326
74878W        W43219  43.507   0.486   0.437
74879W        W43220  29.150  28.585  13.531
74880W        W43221  20.655  26.506  14.342
74881W        W43222  25.039  18.660   0.286
74882W        W43223  39.827  27.072   0.801
74883W        W43224   5.874  29.633   4.831
74884W        W43225  22.043   6.415   3.356
74885W        W43226  20.221  28.652  13.908
74886W        W43227  42.338  21.021  12.444
74887W        W43228  26.585  39.552   0.924
74888W        W43229  44.895   9.862   1.709
74889W        W43230  31.472  19.703  10.629
74890W        W43231  31.029  15.742   1.835
74891W        W43232  28.963  42.442  13.987
74892W        W43233  41.831   5.834  14.954
74893W        W43234  18.136  28.600  10.969
74894W        W43235  22.068  24.489   1.923
74895W        W43236  20.560  10.828   4.258
74896W        W43237  10.179  44.481   5.160
74897W        W43238  25.516  29.588  10.906
74898W        W43239  40.808  42.900  14.808
74899W        W43240  12.280   7.224   2.203
74900W        W43241  38.009  43.960  11.510
74901W        W43242  21.657  30.545  11.562
74902W        W43243  21.088  20.705   0.853
74903W        W43244  32.137  16.649  12.026
74904W        W43245  41.985  19.118  11.943
74905W        W43246   5.829  24.028  14.849
74906W        W43247  15.089  12.142   3.296
74907W        W43248   5.281  33.437   2.867
74908W        W43249  12.648  41.992   2.243
74909W        W43250  26.581  31.472   1.909
74910W        W43251  12.175  12.692   1.279
74911W        W43252  32.936  29.481   3.772
74912W        W43253   1.440  31.461   1.216
74913W        W43254  37.393  10.300  13.458
74914W        W43255  40.048  24.030   1.367
74915W        W43256  31.123  24.627   0.449
74916W        W43257  11.674  26.187  13.451
74917W        W43258   3.899  16.273  13.356
74918W        W43259  12.121  18.076   2.376
74919W        W43260   9.196  10.724   5.672
74920W        W43261   3.253  12.728  12.490
74921W        W43262  28.063  33.981   1.339
74922W        W43263  15.769   1.270  11.459
74923W        W43264  24.152  41.925  13.509
74924W        W43265  13.134   2.916  12.859
74925W        W43266  12.295  24.618  10.458
74926W        W43267   7.374  22.569  10.620
74927W        W43268   5.921  14.598  10.601
74928W        W43269  15.100   6.368  12.066
74929W        W43270   4.292  26.138  13.906
74930W        W43271  27.109  24.076   4.264
74931W        W43272  29.942   0.850  11.100
74932W        W43273  25.030  17.302  12.469
74933W        W43274  36.354   2.759  14.993
74934W        W43275  28.933  35.945   1.907
74935W        W43276  25.619  25.977  14.483
74936W        W43277  19.701   9.195   2.735
74937W        W43278  12.261  31.631  14.444
74938W        W43279   2.358  23.716  11.119
74939W        W43280  32.486   1.740   2.205
74940W        W43281  10.832   0.347  13.455
74941W        W43282  12.291  15.096  14.489
74942W        W43283  41.516  15.689   3.155
74943W        W43284  14.169  42.491  11.598
74944W        W43285  29.645   6.811   0.383
74945W        W43286  20.190   6.402  11.524
74946W        W43287  13.698  24.602   1.246
74947W        W43288  25.650  13.105   0.845
74948W        W43289  39.536  26.958  13.441
74949W        W43290  40.853  10.176   2.396
74950W        W43291   6.272  31.005  11.465
74951W        W43292   0.912  38.358  13.015
74952W        W43293  39.827  26.982   0.388
74953W        W43294  24.192  20.234   2.811
74954W        W43295   2.763  25.987  12.878
74955W        W43296  32.023  10.751  12.374
74956W        W43297  36.391  15.300   4.194
74957W        W43298  19.187  33.453   4.624
74958W        W43299  34.093  32.936  10.411
74959W        W43300   6.197   2.789  10.955
74960W        W43301  23.563   6.372   2.690
74961W        W43302  33.930  13.197   1.735
74962W        W43303  24.037  20.568  14.999
74963W        W43304  36.506  42.887   5.240
74964W        W43305  11.339  25.006  12.861
74965W        W43306  30.136   0.397  10.986
74966W        W43307  32.005  29.575   4.769
74967W        W43308  41.798  28.601  10.514
74968W        W43309   3.783   7.724  12.517
74969W        W43310  15.725  38.869  14.413
74970W        W43311  38.518  37.007   2.881
74971W        W43312  37.861  35.086   3.738
74972W        W43313  13.251  27.583   2.242
74973W        W43314  39.996  35.497  11.606
74974W        W43315  39.366  21.100  13.357
74975W        W43316  36.852  37.412   3.240
74976W        W43317   5.224  38.902   4.235
74977W        W43318  26.669   8.167  12.516
74978W        W43319  21.054   3.438  14.762
74979W        W43320  10.217  23.150   1.216
74980W        W43321  36.583  39.818   4.713
74981W        W43322  13.787   6.251  13.963
74982W        W43323  42.892  27.611  10.502
74983W        W43324  16.269  23.229   2.751
74984W        W43325  17.726   6.182   4.304
74985W        W43326  30.945  12.675  10.141
74986W        W43327   5.710  40.913  12.441
74987W        W43328   6.362  14.322  14.349
74988W        W43329  21.534   4.363  14.993
74989W        W43330  23.634  14.636  10.907
74990W        W43331   1.421  12.779   4.317
74991W        W43332   5.715  13.789   0.953
74992W        W43333  22.108  44.776  12.050
74993W        W43334  11.739   8.362   1.272
74994W        W43335  31.133  36.390  14.932
74995W        W43336  41.474  18.239   1.835
74996W        W43337  12.161  39.843   1.901
74997W        W43338  29.149  29.454  13.047
74998W        W43339  13.306  40.429   3.372
74999W        W43340  15.592  15.227   0.450
75000W        W43341  42.336  27.002   4.749
75001W        W43342  18.787   7.238   4.178
75002W        W43343  13.796  24.715  10.908
75003W        W43344  29.526   0.292   2.274
75004W        W43345  24.566  29.542  12.424
75005W        W43346  38.031  11.276   3.236
75006W        W43347  20.032  35.597  11.890
75007W        W43348  25.134  18.197  12.047
75008W        W43349  39.557  39.541  11.869
75009W        W43350  24.510  25.649  14.812
75010W        W43351  43.822  34.427   2.681
75011W        W43352  14.649   9.338  14.984
75012W        W43353  13.237  35.934  13.833
75013W        W43354  12.838  40.355   2.751
75014W        W43355  25.092  40.906   2.810
75015W        W43356  23.713  20.720  14.286
75016W        W43357   0.475   0.954  10.569
75017W        W43358  41.345   0.877   3.756
75018W        W43359  30.955  20.663   2.292
75019W        W43360  19.182  15.642   3.155
75020W        W43361   0.380  41.890  13.036
75021W        W43362  30.564  27.171  11.472
75022W        W43363   8.391  37.409  10.891
75023W        W43364   9.281  23.540  14.285
75024W        W43365  40.322  35.544   4.615
75025W        W43366  11.653   2.921  13.490
75026W        W43367  21.587  31.925  10.980
75027W        W43368  17.102  25.604   4.319
75028W        W43369  26.693  27.138   3.683
75029W        W43370  10.360  30.004  12.042
75030W        W43371  24.602  13.813   0.386
75031W        W43372  14.645  24.171   1.350
75032W        W43373  43.413  34.956  14.985
75033W        W43374  26.607   0.483   4.783
75034W        W43375  26.174  14.632  14.911
75035W        W43376  12.116  27.172   2.187
75036W        W43377  21.211  15.623  13.932
75037W        W43378  10.274  26.526  14.349
75038W        W43379   2.823   1.753   3.227
75039W        W43380  33.021  41.033  13.444
75040W        W43381   0.885  22.191  13.335
75041W        W43382  11.359  12.642   0.813
75042W        W43383   7.393   9.655  14.772
75043W        W43384  31.500  42.844   2.418
75044W        W43385  13.105   6.185  11.907
75045W        W43386  38.973  18.098  11.983
75046W        W43387   1.933  14.808  10.643
75047W        W43388  26.065  23.587  10.900
75048W        W43389   4.339  34.540   1.297
75049W        W43390   9.740  34.970  12.853
75050W        W43391  39.902  25.602  12.091
75051W        W43392  31.910  23.589  10.457
75052W        W43393  36.022  16.172   2.786
75053W        W43394  33.585   3.429  12.409
75054W        W43395  20.178  38.850  12.500
75055W        W43396  44.407   5.724   4.743
75056W        W43397  42.911  32.618   4.225
75057W        W43398   5.917  33.058   1.400
75058W        W43399  11.726  12.842   0.849
75059W        W43400  21.636   7.747  13.395
75060W        W43401   1.967  13.131   1.339
75061W        W43402  13.668  16.731   2.286
75062W        W43403  33.556  36.405   4.637
75063W        W43404  33.072   2.432  13.898
75064W        W43405   8.882   3.859   0.300
75065W        W43406   6.893  19.770  13.819
75066W        W43407  26.168  18.119  10.928
75067W        W43408  13.661  37.898   2.717
75068W        W43409  40.417  19.735   9.933
75069W        W43410  19.625  44.409   2.900
75070W        W43411   7.821  20.075   2.345
75071W        W43412  12.675   2.249   2.761
75072W        W43413   1.338   9.647  12.555
75073W        W43414  32.079  33.601   3.237
75074W        W43415  26.460  32.470  13.056
75075W        W43416  25.623  32.469   0.786
75076W        W43417  23.179  42.889  13.923
75077W        W43418  24.987  42.425   1.339
75078W        W43419  13.643  12.210  12.475
75079W        W43420  11.224  36.447  10.578
75080W        W43421  19.609  27.076  11.382
75081W        W43422  30.480  17.179  11.940
75082W        W43423   3.376  15.220   4.184
75083W        W43424  18.216   4.715   3.668
75084W        W43425  16.211   7.859  12.512
75085W        W43426  43.509   8.250   3.339
75086W        W43427   7.231  24.156  11.578
75087W        W43428  37.449  32.522   0.834
75088W        W43429  31.433  44.289   4.674
75089W        W43430  15.707  38.984   2.706
75090W        W43431  35.441  34.578  13.941
75091W        W43432  17.077  23.123   3.324
75092W        W43433   0.881  34.374   1.298
75093W        W43434  29.557  35.558   4.285
75094W        W43435   9.718  33.100   0.963
75095W        W43436  19.127  15.712  12.088
75096W        W43437   8.749  39.458  13.401
75097W        W43438  30.526  35.379  12.091
75098W        W43439  28.132  42.450  13.517
75099W        W43440  23.620  14.324  11.450
75100W        W43441  30.528  32.434   4.676
75101W        W43442  41.971   2.351  12.906
75102W        W43443   1.353  24.541  11.974
75103W        W43444  23.188  25.981  14.516
75104W        W43445  10.137  25.598  12.374
75105W        W43446  43.483   8.820  12.502
75106W        W43447  14.201  33.607   0.855
75107W        W43448  38.468  15.644  10.541
75108W        W43449  29.542  38.964   4.803
75109W        W43450  30.988  28.002  10.642
75110W        W43451   6.688  39.064  12.911
75111W        W43452  14.146   4.768  14.863
75112W        W43453   4.931  38.445   1.855
75113W        W43454  37.934  44.989   4.783
75114W        W43455  44.756  44.912  10.519
75115W        W43456  26.631  33.572   5.222
75116W        W43457   3.235  33.580  14.409
75117W        W43458  40.930  39.446   2.860
75118W        W43459  14.678   1.774  12.939
75119W        W43460   3.815  36.884   4.822
75120W        W43461   0.953  31.007  14.496
75121W        W43462  16.082  42.475  14.815
75122W        W43463   7.667  13.297  10.586
75123W        W43464  43.374  15.726  13.916
75124W        W43465  20.150  33.894   3.838
75125W        W43466   2.817  40.392  13.445
75126W        W43467  37.537  19.235   4.131
75127W        W43468  12.147  42.854   2.758
75128W        W43469  35.899   9.741   0.247
75129W        W43470   9.253  30.136   1.369
75130W        W43471  31.031  33.563   3.709
75131W        W43472  39.925  25.618  12.388
75132W        W43473  28.022  20.524   2.338
75133W        W43474  25.209  22.701  11.571
75134W        W43475  35.997   3.407  12.434
75135W        W43476   7.850  25.213   2.350
75136W        W43477  25.020  38.065  12.937
75137W        W43478  44.312  39.316   3.727
75138W        W43479  44.797   4.428   1.764
75139W        W43480  28.121  15.704   4.743
75140W        W43481  37.411  14.725  10.567
75141W        W43482   4.399   0.457   2.199
75142W        W43483   8.714  34.902  14.870
75143W        W43484  38.455  42.498   5.103
75144W        W43485   2.460  44.934   0.440
75145W        W43486  32.116  19.659   1.220
75146W        W43487   7.816  26.676   5.149
75147W        W43488   9.709  30.640  13.849
75148W        W43489  11.864  41.856  10.446
75149W        W43490  21.695  15.166  12.353
75150W        W43491  35.951  41.923   4.155
75151W        W43492  37.389  22.073   3.866
75152W        W43493  22.513   1.776   4.345
75153W        W43494  29.107  14.279  14.897
75154W        W43495  33.897  40.916  14.934
75155W        W43496  26.956   7.696   4.616
75156W        W43497  14.133  35.453   1.725
75157W        W43498  13.265   8.740  11.562
75158W        W43499  42.974  22.206  12.371
75159W        W43500  36.481  40.371  13.938
75160W        W43501  31.458  34.589   4.139
75161W        W43502   6.880  23.490   0.764
75162W        W43503  43.386   9.795  12.404
75163W        W43504  25.518  43.355  11.559
75164W        W43505   9.828  28.172   4.162
75165W        W43506  20.228   3.387  11.398
75166W        W43507   7.299  31.133   2.809
75167W        W43508  23.556   7.391   3.866
75168W        W43509  11.866  32.086   0.410
75169W        W43510  20.139   0.386  14.999
75170W        W43511  20.610  42.463   0.273
75171W        W43512  10.725  13.348   0.320
75172W        W43513  12.300   9.799   4.336
75173W        W43514  21.133  38.412  10.953
75174W        W43515  11.211  27.115   2.761
75175W        W43516  37.997  19.756   5.176
75176W        W43517  28.988   1.260   3.852
75177W        W43518  18.141  34.015  10.144
75178W        W43519  28.165  38.433  13.535
75179W        W43520  41.978  20.542   4.248
75180W        W43521  26.477  25.604  11.485
75181W        W43522  19.158  25.661   1.729
75182W        W43523  42.979  23.212   0.830
75183W        W43524  40.989  25.523   1.842
75184W        W43525  21.091   9.158   2.867
75185W        W43526  12.132  19.780  10.626
75186W        W43527  27.559  30.968   2.363
75187W        W43528  35.603  19.693  11.067
75188W        W43529  38.351   1.906  14.308
75189W        W43530  26.123   5.733   3.329
75190W        W43531  15.097  31.003   0.941
75191W        W43532  14.665  12.799  11.918
75192W        W43533  40.954  43.786  12.365
75193W        W43534  40.983  35.468   1.900
75194W        W43535   7.757  28.965  11.415
75195W        W43536  18.296  19.679   4.754
75196W        W43537  30.113  27.489   2.807
75197W        W43538  40.968  12.316  11.952
75198W        W43539  37.951  26.494  10.512
75199W        W43540  44.897  24.569  12.959
75200W        W43541  32.394   3.249  14.468
75201W        W43542   1.926  41.954   4.611
75202W        W43543  29.172  10.864   1.844
75203W        W43544   3.434   9.366  12.999
75204W        W43545  24.545   7.827   0.910
75205W        W43546  11.363  25.669  11.092
75206W        W43547   6.724  33.388  11.924
75207W        W43548  30.019  30.933  12.928
75208W        W43549  17.150   1.318   3.867
75209W        W43550  15.259   3.346   2.337
75210W        W43551  16.261  26.476   3.860
75211W        W43552  11.850  29.028  13.447
75212W        W43553  44.918  26.175   1.226
75213W        W43554  10.879  44.436  10.589
75214W        W43555   6.694   0.906  12.040
75215W        W43556  10.247  16.078   4.720
75216W        W43557   1.237  34.597   3.264
75217W        W43558  19.231   9.851  10.642
75218W        W43559  19.537   2.386   2.729
75219W        W43560  20.655  31.540   3.722
75220W        W43561  38.006  43.441   2.327
75221W        W43562  34.038  28.628   1.862
75222W        W43563  24.535  40.510   2.191
75223W        W43564  17.752  26.580   1.870
75224W        W43565  22.176  27.148   3.255
75225W        W43566   4.348  38.389   2.848
75226W        W43567  21.533  44.905  14.293
75227W        W43568  19.185  26.110   1.740
75228W        W43569  18.240  29.579  10.913
75229W        W43570   0.473  28.555   2.814
75230W        W43571  25.034  41.957  11.526
75231W        W43572  23.629  20.211  12.853
75232W        W43573  28.658  42.405  13.987
75233W        W43574  16.152  18.747  14.857
75234W        W43575  29.091   5.356  10.954
75235W        W43576  22.576  44.829  13.881
75236W        W43577   9.783   9.268  10.460
75237W        W43578   6.743  37.479   1.892
75238W        W43579   6.746  15.310   0.782
75239W        W43580   6.392  35.416  13.830
75240W        W43581  35.951   3.823   4.141
75241W        W43582  24.226  12.225   2.377
75242W        W43583  18.722  30.440  10.418
75243W        W43584  28.129   8.281  14.864
75244W        W43585   0.778   2.876  10.906
75245W        W43586  36.856   9.205  12.869
75246W        W43587  37.931  43.935   4.768
75247W        W43588  10.698  40.981   0.781
75248W        W43589   1.940  13.259  11.453
75249W        W43590  30.517  14.664  13.411
75250W        W43591  15.120   0.477  10.492
75251W        W43592  31.508  41.526   0.478
75252W        W43593  42.831  11.147  11.904
75253W        W43594  23.075   9.740   1.759
75254W        W43595   4.333  26.015   4.727
75255W        W43596  18.618  17.193   0.857
75256W        W43597  42.511  21.608   3.832
75257W        W43598  31.408  10.344  14.349
75258W        W43599  15.263   1.439  13.880
75259W        W43600  41.003  21.637   2.270
75260W        W43601   4.434  12.680  12.987
75261W        W43602  42.948  41.329  11.587
75262W        W43603  44.779  15.233   4.345
75263W        W43604  16.272   1.347  14.827
75264W        W43605   9.175  40.515  11.892
75265W        W43606  41.939  25.037   0.869
75266W        W43607  26.644  25.110   4.794
75267W        W43608  14.674  29.663  10.914
75268W        W43609  28.649   4.760  13.912
75269W        W43610  13.641  31.543  10.996
75270W        W43611  30.911  43.403   0.383
75271W        W43612   0.478  13.759  12.032
75272W        W43613  25.514  29.013  12.010
75273W        W43614   4.239   7.200  10.433
75274W        W43615   3.918  29.923  13.974
75275W        W43616  18.093  28.569  14.870
75276W        W43617  25.016  16.661  11.916
75277W        W43618  32.914  25.115   0.371
75278W        W43619  12.337   6.740  12.996
75279W        W43620  34.978  42.433  10.624
75280W        W43621  44.762  30.109  13.469
75281W        W43622  23.604  34.442  11.889
75282W        W43623  43.371  37.875  13.968
75283W        W43624   8.328  17.288   2.663
75284W        W43625  42.790  26.663  10.977
75285W        W43626  31.985  24.013   1.796
75286W        W43627  30.015  37.966  13.310
75287W        W43628  25.193  20.585  10.895
75288W        W43629   2.773   4.900   1.741
75289W        W43630   8.388  42.804   1.299
75290W        W43631  41.789  33.874   2.252
75291W        W43632   3.293  41.997  13.346
75292W        W43633  29.942  42.876  14.291
75293W        W43634  22.514  16.733   5.613
75294W        W43635  40.829  44.890  14.383
75295W        W43636  23.106   2.773   4.641
75296W        W43637  35.066   4.846   2.889
75297W        W43638  44.489  42.456  12.030
75298W        W43639  28.533  44.940  11.128
75299W        W43640   8.746  18.061  11.866
75300W        W43641  22.067  21.231  14.476
75301W        W43642  16.653  30.538   2.890
75302W        W43643  16.763  31.005   2.323
75303W        W43644  32.469   4.300  11.069
75304W        W43645  13.225  12.747  12.827
75305W        W43646  14.624  15.596  13.960
75306W        W43647  10.732  13.600  11.396
75307W        W43648  42.391  33.503  11.989
75308W        W43649   8.183   0.808  12.074
75309W        W43650  35.460   0.299   2.812
75310W        W43651  38.937   4.399   0.469
75311W        W43652  39.323   6.723  11.522
75312W        W43653  10.639  19.640  11.452
75313W        W43654  43.277  43.342   1.302
75314W        W43655  43.775  39.414   1.708
75315W        W43656  40.941   8.871   1.866
75316W        W43657  35.505  34.100   1.279
75317W        W43658  12.118  37.035  11.555
75318W        W43659  12.650  42.456   4.148
75319W        W43660  35.362  23.497   1.753
75320W        W43661  30.018  18.747   1.402
75321W        W43662  37.980  27.032  10.641
75322W        W43663  19.065  26.566  11.389
75323W        W43664  20.570  43.427   0.369
75324W        W43665  37.525   2.810  12.563
75325W        W43666  22.040  15.206   4.180
75326W        W43667  14.831  42.945  12.834
75327W        W43668  28.965   4.445  12.563
75328W        W43669  17.199  40.407  14.981
75329W        W43670  20.752   4.702   2.264
75330W        W43671  19.256  38.017  13.832
75331W        W43672  33.092  20.249  11.871
75332W        W43673   3.852  34.496  13.375
75333W        W43674  39.493  30.519   0.747
75334W        W43675  19.743  19.600   2.185
75335W        W43676  33.545  10.705   2.762
75336W        W43677  24.063  11.790  13.914
75337W        W43678  37.525  26.537   0.322
75338W        W43679  28.947  30.512   2.383
75339W        W43680  40.362  27.674  12.968
75340W        W43681  33.482  17.254   4.692
75341W        W43682  23.198  37.018   0.912
75342W        W43683   9.222  10.261  11.606
75343W        W43684   2.328   8.669  10.979
75344W        W43685   8.738   6.208  11.856
75345W        W43686  12.770  41.428  13.836
75346W        W43687   4.780  27.160  12.369
75347W        W43688  13.256  25.965   4.156
75348W        W43689  31.054   5.237  11.582
75349W        W43690  40.356   5.270   3.796
75350W        W43691  13.229  39.539   4.137
75351W        W43692  33.570  33.002  12.082
75352W        W43693  13.712  10.819  14.934
75353W        W43694  35.452   6.916   2.306
75354W        W43695  14.591  32.444  14.836
75355W        W43696   7.831  20.149   4.663
75356W        W43697   3.350  39.861  11.983
75357W        W43698  12.353  12.659   1.815
75358W        W43699  43.294   4.710  10.146
75359W        W43700  24.022  17.761   0.399
75360W        W43701  17.272  38.507   0.784
75361W        W43702  26.634  22.624  13.876
75362W        W43703  43.812   6.284  14.516
75363W        W43704  16.177  26.012  12.545
75364W        W43705  41.811  34.893   2.883
75365W        W43706  15.586  29.956  13.043
75366W        W43707  33.556  25.669   0.253
75367W        W43708  44.474  25.151   5.124
75368W        W43709  28.436   7.877  10.589
75369W        W43710   4.338  43.802   1.309
75370W        W43711  22.241  16.243  13.392
75371W        W43712   6.319  37.539   2.769
75372W        W43713  38.000  27.659   4.254
75373W        W43714  16.217   2.899   0.956
75374W        W43715  23.497  36.892   1.822
75375W        W43716  23.717  43.936   4.335
75376W        W43717  44.861  33.880   3.839
75377W        W43718  42.779  33.575   2.338
75378W        W43719  33.961  28.441   2.409
75379W        W43720  32.923  29.556   1.326
75380W        W43721  20.149  25.666  10.918
75381W        W43722  41.802  38.463  14.004
75382W        W43723  37.535   2.290   1.400
75383W        W43724  38.325   5.731   4.341
75384W        W43725  31.623   9.746   3.364
75385W        W43726  26.128  42.372  13.976
75386W        W43727  43.477  29.534   0.263
75387W        W43728  13.667   8.212  11.122
75388W        W43729  38.938  36.408   0.792
75389W        W43730   1.949  29.076   1.392
75390W        W43731  12.201  29.563   2.300
75391W        W43732  34.938  32.008   0.864
75392W        W43733  17.693  22.502   2.678
75393W        W43734  39.368  27.622   1.905
75394W        W43735  33.902  19.744  12.361
75395W        W43736  38.495  17.785   0.880
75396W        W43737  30.562  30.992   3.761
75397W        W43738  19.125  17.737  12.838
75398W        W43739  24.596  23.055   3.252
75399W        W43740  25.114  19.565   0.374
75400W        W43741  22.508  37.862  11.583
75401W        W43742  19.041  26.194   4.195
75402W        W43743  37.894  18.631   3.750
75403W        W43744  25.054  30.455   3.714
75404W        W43745   3.257  33.623   4.292
75405W        W43746  15.282  12.820  13.858
75406W        W43747  40.382   5.706  13.515
75407W        W43748  40.919   7.229   1.901
75408W        W43749  25.486  25.479   2.847
75409W        W43750  24.719   2.865  14.773
75410W        W43751   0.386  29.602  11.965
75411W        W43752  44.990   2.854  10.442
75412W        W43753  29.996  22.576   0.295
75413W        W43754  44.493  30.097  11.561
75414W        W43755  38.368  22.520  12.980
75415W        W43756   6.339  32.964  11.524
75416W        W43757  20.234  35.452  13.814
75417W        W43758  39.540  19.062   2.857
75418W        W43759  23.106  29.523  12.041
75419W        W43760   0.323  10.349  11.006
75420W        W43761  33.964  41.939  14.482
75421W        W43762  29.142  30.559  10.938
75422W        W43763   0.977   5.821   0.326
75423W        W43764  37.429   2.268   4.625
75424W        W43765   5.725  17.262   0.865
75425W        W43766  17.708  18.176   2.305
75426W        W43767   3.399  11.662  14.876
75427W        W43768  25.539  32.064  11.547
75428W        W43769  32.447  24.504   2.799
75429W        W43770  38.531  43.480  12.431
75430W        W43771  26.699  37.894  12.371
75431W        W43772  31.132  40.860   0.245
75432W        W43773  26.582   7.703  12.952
75433W        W43774   2.834   8.685  11.505
75434W        W43775  21.620  33.953   0.409
75435W        W43776  32.019  18.142   3.291
75436W        W43777  15.722   1.403  12.433
75437W        W43778  35.888  20.260   3.192
75438W        W43779   6.793  15.613   3.804
75439W        W43780  38.352  43.381  14.516
75440W        W43781   3.400  37.889   2.751
75441W        W43782  34.878  31.551  14.914
75442W        W43783   0.922  43.965   1.341
75443W        W43784  13.197  33.626  11.057
75444W        W43785  37.544  28.581   2.703
75445W        W43786  33.539  43.911   3.629
75446W        W43787  14.645  19.731  14.772
75447W        W43788  18.196  33.128   1.876
75448W        W43789  35.425  22.713  12.935
75449W        W43790   2.448  34.383  10.014
75450W        W43791  39.466  43.843   2.886
75451W        W43792  25.522   9.676  13.049
75452W        W43793  13.656  16.746   2.827
75453W        W43794  10.140  35.488  14.975
75454W        W43795  21.201  38.998   2.237
75455W        W43796   6.274  34.091   1.382
75456W        W43797   1.955  12.838   2.380
75457W        W43798  27.010  30.908  14.916
75458W        W43799  25.645  13.236   1.299
75459W        W43800  32.420   3.326  14.870
75460W        W43801  41.514  29.036  11.469
75461W        W43802  38.449  27.022   4.661
75462W        W43803  11.631  31.518  11.445
75463W        W43804  21.756  23.557   0.781
75464W        W43805   7.347  34.868   1.213
75465W        W43806  41.875  19.556  10.525
75466W        W43807   9.261  25.667  12.085
75467W        W43808   4.904  30.613  11.477
75468W        W43809   2.426  34.446   2.216
75469W        W43810  37.027  26.160   3.257
75470W        W43811   0.890   0.972   3.287
75471W        W43812  42.302   4.821  11.076
75472W        W43813  37.935  39.371  14.910
75473W        W43814  37.007   3.273  12.443
75474W        W43815  29.454  32.597  12.375
75475W        W43816  38.327  25.202   0.829
75476W        W43817  13.709  37.875  14.014
75477W        W43818  18.225  35.457  10.457
75478W        W43819   7.681  36.994  13.941
75479W        W43820   3.368  22.088  12.579
75480W        W43821  10.785  22.235   3.218
75481W        W43822  17.093  18.147  11.503
75482W        W43823  18.086  36.036  11.015
75483W        W43824  38.012  14.205   2.273
75484W        W43825  40.426  22.550   5.223
75485W        W43826  35.382  25.204   3.201
75486W        W43827  35.015  27.464   0.434
75487W        W43828  44.904  18.582  12.570
75488W        W43829  27.099   7.190   1.336
75489W        W43830   7.284  41.499   1.736
75490W        W43831  23.695   9.170   3.304
75491W        W43832  21.095  35.105   3.764
75492W        W43833  22.681  40.007  10.017
75493W        W43834  24.556  14.154  14.902
75494W        W43835  17.612  15.196  11.509
75495W        W43836  20.097  32.442   1.922
75496W        W43837   3.342  15.776   4.253
75497W        W43838  18.788   2.255   0.376
75498W        W43839  24.049   6.849   4.668
75499W        W43840  44.309  15.168   4.694
75500W        W43841  20.525   1.869  12.545
75501W        W43842  24.007  18.236  14.761
75502W        W43843   6.782  36.511  11.086
75503W        W43844  27.059  15.619  14.901
75504W        W43845  14.709  19.771  12.545
75505W        W43846  19.575   8.875  13.859
75506W        W43847  40.934  20.556  13.357
75507W        W43848  32.971  28.452   2.292
75508W        W43849  33.097  43.903   0.244
75509W        W43850  19.688  28.014  13.925
75510W        W43851  34.425  33.130   4.168
75511W        W43852  10.216  17.083   4.687
75512W        W43853  21.064  11.310  10.157
75513W        W43854  36.491  31.587   3.722
75514W        W43855  23.517   3.926  14.501
75515W        W43856  44.299  32.535  13.491
75516W        W43857  39.003   4.318   1.700
75517W        W43858  33.911  39.856   4.822
75518W        W43859  42.509  24.593  11.127
75519W        W43860   3.755  42.974  14.779
75520W        W43861  28.490  17.777   0.467
75521W        W43862  18.260  40.815  14.897
75522W        W43863  31.622   1.938  13.824
75523W        W43864  34.583  10.218  13.388
75524W        W43865  27.639  17.193  11.971
75525W        W43866  11.729  19.145  13.362
75526W        W43867  25.650  28.991   4.685
75527W        W43868  17.103  40.401  13.956
75528W        W43869  35.602   3.215   1.282
75529W        W43870  21.174  34.995  13.443
75530W        W43871  44.909  27.959  11.030
75531W        W43872  20.098   0.360  12.464
75532W        W43873  30.489  19.636  13.822
75533W        W43874  22.226  44.467  13.432
75534W        W43875  34.495  28.100   2.796
75535W        W43876  18.161  15.270  11.550
75536W        W43877  24.625  22.519  12.904
75537W        W43878  29.115   0.458  12.877
75538W        W43879  39.887  12.173   0.911
75539W        W43880  36.452  41.824   1.362
75540W        W43881  20.632  33.546  10.551
75541W        W43882  28.034   3.810   1.396
75542W        W43883  38.567  37.980   1.357
75543W        W43884  21.175  31.428  11.594
75544W        W43885  33.891  21.717   0.839
75545W        W43886   7.366  15.746   3.753
75546W        W43887  41.790  37.921  14.456
75547W        W43888  38.947   6.252   0.765
75548W        W43889   9.196  26.016   4.735
75549W        W43890  25.149  30.454  11.498
75550W        W43891  35.102  25.054   4.665
75551W        W43892  34.949  32.053   2.901
75552W        W43893  12.756   4.353  11.083
75553W        W43894  21.687  21.216  10.554
75554W        W43895  16.224  14.340   4.724
75555W        W43896  36.082  39.953   1.442
75556W        W43897  22.697  16.097  11.429
75557W        W43898   1.268  21.681   4.327
75558W        W43899  35.481  34.064  13.407
75559W        W43900  33.509  35.564   4.160
75560W        W43901  28.441   8.659   2.183
75561W        W43902  33.894  26.503  14.299
75562W        W43903  40.327  33.478   2.306
75563W        W43904  38.837   7.312   4.153
75564W        W43905  18.260   5.312  11.914
75565W        W43906   8.779   1.428  10.539
75566W        W43907   5.876  24.573  12.989
75567W        W43908  21.542  31.044  11.908
75568W        W43909  44.260   3.858  12.088
75569W        W43910  29.462   1.362   4.151
75570W        W43911  28.141  39.856  10.007
75571W        W43912  30.043  25.677  14.355
75572W        W43913   1.384   9.360   4.789
75573W        W43914  29.021  18.624  10.893
75574W        W43915  22.048   4.827  12.413
75575W        W43916  29.434  20.115  13.905
75576W        W43917   5.318  38.963  12.408
75577W        W43918   4.898  17.288  13.044
75578W        W43919  35.896  35.081  12.951
75579W        W43920  33.411  24.708  13.895
75580W        W43921  13.662  41.966   0.295
75581W        W43922  23.213  21.642  10.481
75582W        W43923   8.874  28.122  12.946
75583W        W43924  26.987  22.238   2.853
75584W        W43925  19.194  24.700  11.028
75585W        W43926  15.683   7.298   1.254
75586W        W43927   1.913  20.531   1.280
75587W        W43928  34.455   6.222  12.881
75588W        W43929  14.340  10.252   4.156
75589W        W43930  31.123  33.901   1.923
75590W        W43931  24.012   0.287   2.768
75591W        W43932  10.327  36.925  13.980
75592W        W43933  36.998  27.026   3.215
75593W        W43934  21.137  40.950   0.287
75594W        W43935  33.009  22.223   0.269
75595W        W43936  22.648  20.049   2.226
75596W        W43937   5.722  20.077   0.249
75597W        W43938  14.629  12.270   0.814
75598W        W43939   2.284  21.210  12.006
75599W        W43940  12.672  13.729  10.412
75600W        W43941  25.503  37.017   1.273
75601W        W43942   1.415  37.022  12.014
75602W        W43943   2.368  33.433   2.808
75603W        W43944  28.469  13.200   4.167
75604W        W43945  28.048  36.587   3.847
75605W        W43946   0.890   0.903   2.203
75606W        W43947  22.207   2.398  11.562
75607W        W43948  41.010  41.030   5.116
75608W        W43949  28.552  12.153   3.360
75609W        W43950  34.455  12.220   2.772
75610W        W43951  32.449  38.007   3.688
75611W        W43952   1.407  41.516  12.061
75612W        W43953  35.022   7.722  13.386
75613W        W43954  17.110  25.594  13.814
75614W        W43955   6.826  25.165  11.862
75615W        W43956  23.679  13.163  14.476
75616W        W43957  36.861  11.360  12.466
75617W        W43958  12.809   7.219  11.944
75618W        W43959   4.725   8.234  11.987
75619W        W43960  23.712  17.194  14.310
75620W        W43961   7.282  42.014   0.789
75621W        W43962  35.591  44.440   1.221
75622W        W43963  39.977  30.931   1.765
75623W        W43964  22.056  31.416  13.440
75624W        W43965  33.897  25.674  13.970
75625W        W43966  16.762   8.390  12.037
75626W        W43967  21.631  15.123  14.806
75627W        W43968  16.725   1.854  13.512
75628W        W43969  25.188  37.355  14.433
75629W        W43970   7.298  43.459   3.172
75630W        W43971  26.022  12.212   1.384
75631W        W43972  14.314  38.940  10.464
75632W        W43973  17.610  31.576   3.691
75633W        W43974  30.065  21.084   3.764
75634W        W43975  37.893   6.319   1.722
75635W        W43976  26.078  31.913   4.209
75636W        W43977  15.316  41.399  11.955
75637W        W43978   4.292  16.142  12.439
75638W        W43979  44.819  43.513   0.851
75639W        W43980  10.725   9.350   1.724
75640W        W43981  31.986  35.407  11.960
75641W        W43982   6.902   0.330  12.431
75642W        W43983  44.771  26.520  12.502
75643W        W43984  18.653  40.965  11.568
75644W        W43985   3.449  22.101   0.930
75645W        W43986   2.467  21.187   0.397
75646W        W43987  16.262   7.276   4.823
75647W        W43988  17.196  38.387   1.360
75648W        W43989  12.166  42.290  14.779
75649W        W43990  40.029   8.674   4.154
75650W        W43991  29.540   3.349  10.120
75651W        W43992  29.154   0.323   4.681
75652W        W43993  31.558  16.661   3.806
75653W        W43994  36.989  16.215  14.883
75654W        W43995   6.275  28.012  13.466
75655W        W43996   4.776  21.212   5.321
75656W        W43997   6.428  10.276  13.965
75657W        W43998  23.526  19.223  13.044
75658W        W43999  30.590  20.196   2.302
75659W        W44000  39.352  24.610   1.892
75660W        W44001  44.350   2.859   1.409
75661W        W44002  16.746   6.761   3.202
75662W        W44003   2.384  28.483  13.428
75663W        W44004  29.634   5.729  10.407
75664W        W44005  28.147  38.922  12.526
75665W        W44006  34.432   3.722   2.234
75666W        W44007  23.683   7.671  11.445
75667W        W44008  26.582  16.612  12.426
75668W        W44009  30.477  13.344   3.724
75669W        W44010  31.459  35.599   1.908
75670W        W44011  23.122  13.340   4.282
75671W        W44012  42.017  34.080   4.263
75672W        W44013  13.337  31.967   3.783
75673W        W44014  27.526  37.383  13.401
75674W        W44015  24.141   9.831   3.200
75675W        W44016  24.108  12.188   0.827
75676W        W44017   5.432   6.769   2.669
75677W        W44018  35.027   7.187   1.442
75678W        W44019  35.555  43.354  12.414
75679W        W44020  13.234  27.574  13.478
75680W        W44021  22.556  11.861  12.870
75681W        W44022  42.996  20.212   2.389
75682W        W44023  32.513  24.576  13.548
75683W        W44024  14.109   4.746   4.336
75684W        W44025  41.041  30.588   4.179
75685W        W44026  37.480   0.384  12.009
75686W        W44027  19.706   7.261   4.803
75687W        W44028  36.465  15.584  12.499
75688W        W44029  37.907   4.386   0.480
75689W        W44030   9.274   9.781  12.902
75690W        W44031  44.781  28.040  12.060
75691W        W44032  22.566   6.385   3.259
75692W        W44033  13.698  35.580   1.337
75693W        W44034   9.741  22.640   2.252
75694W        W44035  18.733   0.463   3.630
75695W        W44036  25.138  28.464  12.888
75696W        W44037  39.438  11.670   1.729
75697W        W44038  24.494  16.105   3.788
75698W        W44039  11.258  18.599   2.244
75699W        W44040   6.718   9.239  12.060
75700W        W44041   2.777  17.574  11.888
75701W        W44042   6.348  32.952   4.229
75702W        W44043  32.427  34.546  10.444
75703W        W44044  24.984   2.249  14.318
75704W        W44045  11.840   9.350   1.874
75705W        W44046  33.907  21.086  12.029
75706W        W44047  18.293  35.903  11.966
75707W        W44048  34.066   9.789   2.880
75708W        W44049  38.832   5.849   1.301
75709W        W44050   3.278  21.174  12.894
75710W        W44051  44.957   2.454  13.408
75711W        W44052  22.653  36.880  12.024
75712W        W44053  28.134  35.904   3.656
75713W        W44054   0.824  10.218  10.985
75714W        W44055   3.934   7.296  12.834
75715W        W44056   4.715  10.336  11.873
75716W        W44057  25.020  22.681  14.295
75717W        W44058   2.251  41.857  13.522
75718W        W44059   7.238  31.907  14.964
75719W        W44060   9.394   2.240  11.508
75720W        W44061  19.734  28.077  14.489
75721W        W44062  26.481  17.567  13.467
75722W        W44063  30.626   9.326   1.808
75723W        W44064   4.833  19.668  11.992
75724W        W44065  43.795  34.403   0.367
75725W        W44066  15.157  12.150  12.385
75726W        W44067  27.550  42.495  14.349
75727W        W44068  17.616  24.089  10.438
75728W        W44069  11.318   3.416  10.453
75729W        W44070  21.053  36.947   3.352
75730W        W44071  10.311  43.410  10.607
75731W        W44072  28.959   5.405   3.842
75732W        W44073  13.349  28.121  10.645
75733W        W44074  23.594   5.233   2.388
75734W        W44075  28.644  44.860  14.448
75735W        W44076  42.988  28.462  14.849
75736W        W44077  44.916  27.182  11.493
75737W        W44078  39.060  30.525  14.482
75738W        W44079   3.415   8.894   3.645
75739W        W44080  27.123  38.054  11.453
75740W        W44081  29.949  38.565  13.807
75741W        W44082   2.859  34.882   3.765
75742W        W44083   7.248  11.334  12.397
75743W        W44084  44.309  10.697   1.272
75744W        W44085   2.870  13.674  13.007
75745W        W44086   8.303  20.209   2.198
75746W        W44087  31.138  42.297  14.500
75747W        W44088  26.972  39.047   4.684
75748W        W44089   7.217  23.595   0.937
75749W        W44090  21.132  20.057  14.427
75750W        W44091  33.625  11.368  12.857
75751W        W44092  43.810  17.706  14.931
75752W        W44093  30.622  17.581  13.471
75753W        W44094   7.871  20.032  13.353
75754W        W44095  11.761  39.495  11.111
75755W        W44096  23.611   9.649  13.537
75756W        W44097   7.321   5.305  13.975
75757W        W44098   0.494  40.496  10.407
75758W        W44099  40.871  38.854  11.378
75759W        W44100  38.868  19.704   3.263
75760W        W44101  27.068  41.516   3.761
75761W        W44102  36.069  15.198   4.266
75762W        W44103   6.395  23.646  14.420
75763W        W44104  39.421   2.780   2.395
75764W        W44105  36.481  18.758   0.935
75765W        W44106   0.438  38.392  12.048
75766W        W44107  41.893  38.473  11.952
75767W        W44108  36.535   1.951   4.201
75768W        W44109  36.375  19.120   4.182
75769W        W44110   9.207   6.389   2.767
75770W        W44111  24.011   7.295  14.030
75771W        W44112  24.130  37.883   1.407
75772W        W44113  20.218  18.678   2.330
75773W        W44114  19.621   8.326  13.436
75774W        W44115  28.612  44.856   1.241
75775W        W44116  22.214   0.287   3.632
75776W        W44117  25.979  18.713   0.877
75777W        W44118   2.723  40.442  11.559
75778W        W44119   0.482  16.288   0.453
75779W        W44120  11.677  35.872  11.064
75780W        W44121  26.498  38.981   3.835
75781W        W44122  40.493  21.551  13.489
75782W        W44123  10.366   6.212   2.839
75783W        W44124   2.958  41.953  10.417
75784W        W44125  43.801  34.045  11.383
75785W        W44126  29.092  17.229   3.762
75786W        W44127  39.861  35.950   2.821
75787W        W44128  24.985  12.671  10.589
75788W        W44129  33.917  17.579  12.468
75789W        W44130  38.933  39.059  10.587
75790W        W44131  20.190  16.569   1.388
75791W        W44132  25.062  26.480   5.646
75792W        W44133  28.179   7.226  10.009
75793W        W44134  25.683   6.418  14.505
75794W        W44135  33.547   9.662  11.431
75795W        W44136  30.031  32.511  10.917
75796W        W44137  41.920  15.684  10.450
75797W        W44138  20.636  10.723  10.481
75798W        W44139  17.302   9.174   0.825
75799W        W44140  25.998  17.567  10.996
75800W        W44141  42.347  26.143   0.476
75801W        W44142  39.510  41.914  14.444
75802W        W44143  29.564   7.207   2.755
75803W        W44144   7.867   2.923   2.362
75804W        W44145  44.320   8.192   0.474
75805W        W44146  38.021  33.533  13.850
75806W        W44147  16.697  15.210   1.711
75807W        W44148  12.210  28.622   1.297
75808W        W44149   8.890  18.134   3.357
75809W        W44150  27.108   3.296   2.860
75810W        W44151  15.784   0.344   2.312
75811W        W44152  31.507  24.492   3.751
75812W        W44153  13.315  32.547  11.455
75813W        W44154  43.833  19.568  10.636
75814W        W44155  12.216  11.721  14.485
75815W        W44156  25.590  36.491   0.382
75816W        W44157  10.696  10.347  14.366
75817W        W44158  34.440   3.347   0.450
75818W        W44159  35.568   2.312   2.812
75819W        W44160  43.500  26.457   0.737
75820W        W44161  41.325  24.645   2.783
75821W        W44162  41.800  31.492   1.819
75822W        W44163  28.442   5.885   0.375
75823W        W44164  38.496  21.610   1.447
75824W        W44165  18.636  39.473  12.495
75825W        W44166  25.080  24.502  14.012
75826W        W44167  23.105  27.647  10.933
75827W        W44168  13.629  27.559  11.104
75828W        W44169   7.206   6.815  10.979
75829W        W44170  26.115  17.720  12.460
75830W        W44171  31.901  31.035   1.371
75831W        W44172  27.068  27.492  10.141
75832W        W44173  38.069   2.855   0.459
75833W        W44174  23.051  27.953   0.833
75834W        W44175   8.760  24.578  11.391
75835W        W44176  24.619  40.853   4.150
75836W        W44177  22.224   2.799   4.129
75837W        W44178   7.759  35.030  14.516
75838W        W44179   6.681  20.229  11.869
75839W        W44180   4.409   2.909   0.940
75840W        W44181   4.919  34.399  12.541
75841W        W44182  42.857  17.142   1.412
75842W        W44183   0.818  11.224  14.883
75843W        W44184  23.125  10.713   4.628
75844W        W44185  17.200  32.019   2.711
75845W        W44186  22.084  11.190  10.922
75846W        W44187  40.927  32.101  11.898
75847W        W44188  20.196  20.124   1.720
75848W        W44189  41.417  10.378   0.953
75849W        W44190  39.334  28.970   3.192
75850W        W44191  11.269  10.246   3.347
75851W        W44192  44.776  39.402  11.901
75852W        W44193  25.046  44.011  13.054
75853W        W44194  19.715  35.931  11.916
75854W        W44195  22.103  24.003  14.869
75855W        W44196  23.181  30.914   0.262
75856W        W44197  28.587  42.968   1.849
75857W        W44198   1.743  40.848  10.530
75858W        W44199  12.717  36.894   2.388
75859W        W44200  41.504  22.177   1.757
75860W        W44201  41.395  30.913   1.296
75861W        W44202  27.615  24.562  12.524
75862W        W44203  32.104  17.204   0.316
75863W        W44204   6.224  25.086   4.671
75864W        W44205  11.207   8.711  12.452
75865W        W44206  35.858  37.939   3.870
75866W        W44207  34.397  10.173  12.058
75867W        W44208  32.447  18.784  11.122
75868W        W44209  29.563  13.666  12.902
75869W        W44210   8.726  38.829   1.396
75870W        W44211   0.284  11.370  11.004
75871W        W44212  38.532  40.883  13.904
75872W        W44213  44.771  43.886   3.859
75873W        W44214  20.525  20.064  11.383
75874W        W44215  28.994  27.068   2.297
75875W        W44216  13.327  44.475  10.046
75876W        W44217  31.069  30.101   0.281
75877W        W44218  10.693  22.570   0.319
75878W        W44219   1.915  27.148  12.053
75879W        W44220  28.118  35.396  13.797
75880W        W44221  42.795  35.361  10.626
75881W        W44222  43.400  25.629   4.342
75882W        W44223   6.187  44.456  13.468
75883W        W44224   1.353   2.780   2.903
75884W        W44225  32.601  38.394  11.442
75885W        W44226  31.407  27.613  11.094
75886W        W44227  35.563  21.244  14.997
75887W        W44228  15.240  17.196   2.381
75888W        W44229  23.149  16.307  11.546
75889W        W44230   3.321  25.632   0.425
75890W        W44231  30.023   1.841  14.001
75891W        W44232   1.774  15.307  11.467
75892W        W44233  19.129  38.038  14.894
75893W        W44234  14.134  41.309  12.896
75894W        W44235  38.866  38.048   4.777
75895W        W44236  32.916  11.220   2.774
75896W        W44237  34.888  35.038   3.786
75897W        W44238  30.577  33.623   1.901
75898W        W44239  20.556  39.965   0.330
75899W        W44240  27.600   3.871   3.701
75900W        W44241  14.608  19.660   4.224
75901W        W44242  27.980   8.791  13.884
75902W        W44243   4.346  31.151   1.406
75903W        W44244  27.182  20.628   3.689
75904W        W44245   0.458  35.579  14.891
75905W        W44246  41.011   7.878  12.912
75906W        W44247  28.533  24.188   0.861
75907W        W44248  27.519  20.088   0.773
75908W        W44249  29.546  30.460   3.849
75909W        W44250  28.536  12.223   1.914
75910W        W44251  25.215  43.808  14.801
75911W        W44252  43.416   5.300   3.259
75912W        W44253  36.484   8.735  13.976
75913W        W44254   0.464   0.385   0.410
75914W        W44255  14.667  23.589   1.274
75915W        W44256   5.690   4.228  14.876
75916W        W44257  15.613  40.359  14.980
75917W        W44258  39.986  24.552  11.574
75918W        W44259  15.190   2.873   4.631
75919W        W44260  35.995  38.057  14.285
75920W        W44261  11.162  41.907  10.408
75921W        W44262  30.995  25.642  14.018
75922W        W44263  18.084  13.800  10.592
75923W        W44264  32.098   2.881   1.364
75924W        W44265   1.779  44.765   1.762
75925W        W44266  41.835   9.814   3.373
75926W        W44267  30.050  42.803  11.386
75927W        W44268  27.523  31.121   4.758
75928W        W44269  18.611  20.741   2.368
75929W        W44270  20.028  11.203   3.320
75930W        W44271   4.763  18.560   0.359
75931W        W44272  15.142  36.981  14.451
75932W        W44273   5.302  12.169   0.432
75933W        W44274  36.896   8.852   4.689
75934W        W44275  28.136  39.437   4.261
75935W        W44276  28.506   9.699  14.979
75936W        W44277   9.789  41.352   2.903
75937W        W44278   2.327  42.372  11.540
75938W        W44279  19.619  42.961   5.093
75939W        W44280  14.214  43.806  10.905
75940W        W44281  20.627  34.540  10.969
75941W        W44282  32.466  37.955  13.381
75942W        W44283  30.065  34.575  14.893
75943W        W44284  42.915  44.919   1.914
75944W        W44285  31.071  26.078  14.949
75945W        W44286  22.133  42.873  10.553
75946W        W44287  24.165  23.624   1.288
75947W        W44288  14.644  33.603  13.330
75948W        W44289  12.643  24.091   1.398
75949W        W44290  41.353  12.623   4.839
75950W        W44291  19.718   3.949  14.878
75951W        W44292  26.605  38.417   2.835
75952W        W44293  27.580  38.351   1.827
75953W        W44294  20.667  42.813  14.767
75954W        W44295   5.715  21.231   4.719
75955W        W44296  32.963  15.663  14.796
75956W        W44297  25.064  17.149  10.472
75957W        W44298  31.646  40.904  11.550
75958W        W44299  11.769  16.630   4.742
75959W        W44300  22.714   7.340   2.307
75960W        W44301  28.463  31.132   4.743
75961W        W44302  35.951  13.333  14.397
75962W        W44303  35.049  43.482   3.379
75963W        W44304  16.085   3.264   1.289
75964W        W44305   5.274  15.261  11.602
75965W        W44306  43.947  31.120   4.620
75966W        W44307  37.506  24.157   4.715
75967W        W44308  27.491   3.922  14.453
75968W        W44309  38.504   8.319   3.176
75969W        W44310  13.769   2.748  13.417
75970W        W44311  17.744  15.113   0.305
75971W        W44312  20.213  30.005   3.216
75972W        W44313  44.289   1.258  12.543
75973W        W44314  39.935   2.312   4.724
75974W        W44315  15.259  41.303  10.981
75975W        W44316   7.330  33.050   4.202
75976W        W44317  44.965  15.197  12.858
75977W        W44318   9.768  30.916   1.409
75978W        W44319   2.408  31.463  14.815
75979W        W44320  41.530  35.551  14.500
75980W        W44321  29.650  25.062   3.755
75981W        W44322  42.473  31.153   0.941
75982W        W44323  43.482   2.894  14.802
75983W        W44324  41.997  13.768   0.480
75984W        W44325   7.681  19.726  14.819
75985W        W44326   9.702  15.725   4.812
75986W        W44327  21.144  15.290   1.709
75987W        W44328  16.285  14.711   0.965
75988W        W44329  19.137  41.341   2.901
75989W        W44330  22.204   7.201   3.729
75990W        W44331  27.978  21.719   1.263
75991W        W44332  16.133  18.104  10.993
75992W        W44333  36.571  11.299  12.026
75993W        W44334  20.124   0.317  12.867
75994W        W44335  35.070  27.540  13.548
75995W        W44336  32.428  38.993   5.690
75996W        W44337  10.302   1.838   1.314
75997W        W44338  44.971  26.517  13.382
75998W        W44339  42.916   7.264   4.676
75999W        W44340  43.956  31.583   4.220
76000W        W44341  33.561   4.896  14.938
76001W        W44342  36.015  44.983   0.309
76002W        W44343  43.922  40.842  14.961
76003W        W44344   6.296  34.562  14.292
76004W        W44345  21.100  27.087  13.532
76005W        W44346  31.421  35.107  13.895
76006W        W44347  44.436   7.268   0.811
76007W        W44348  15.660  10.161  11.506
76008W        W44349  44.287  26.509   3.774
76009W        W44350  25.975  31.536  13.427
76010W        W44351  17.231  30.071   4.259
76011W        W44352  43.286  40.454   3.776
76012W        W44353  28.547   8.293  14.329
76013W        W44354  22.683  42.431   1.398
76014W        W44355  15.124  32.578  10.579
76015W        W44356  31.047  16.254   4.146
76016W        W44357  37.875  12.631  13.423
76017W        W44358  39.516   7.246   0.246
76018W        W44359  11.782  22.094   4.617
76019W        W44360   1.395   8.715   1.835
76020W        W44361  25.988  44.410  11.906
76021W        W44362  14.152  25.517   4.202
76022W        W44363  17.773  13.109   3.196
76023W        W44364   0.475  24.018   1.705
76024W        W44365  33.930   4.805   2.353
76025W        W44366  20.273   5.422  14.905
76026W        W44367   8.396  44.264  12.011
76027W        W44368  31.934  13.149  14.859
76028W        W44369  39.371  12.181   2.331
76029W        W44370  25.530  29.046   5.132
76030W        W44371   1.808  22.118   2.706
76031W        W44372  30.969  17.242  11.022
76032W        W44373   4.779   0.453  11.947
76033W        W44374   4.331  33.061   4.218
76034W        W44375  37.344  14.211  13.938
76035W        W44376  33.426  41.520   3.282
76036W        W44377  25.176  21.053   5.236
76037W        W44378  18.591  11.139   2.219
76038W        W44379  32.613  29.097  13.490
76039W        W44380  16.210   7.835  11.449
76040W        W44381   3.733  35.597  12.410
76041W        W44382  44.382  42.421   3.648
76042W        W44383   4.821  15.104  12.408
76043W        W44384  15.131   9.818   0.856
76044W        W44385   7.358  30.035   4.689
76045W        W44386  22.622  21.642  13.945
76046W        W44387  26.568  37.465  12.839
76047W        W44388  11.282   0.754  11.045
76048W        W44389  15.133  13.647   4.285
76049W        W44390  18.594  32.906  11.526
76050W        W44391  12.362  22.537  10.562
76051W        W44392  41.521  14.625   1.325
76052W        W44393  41.375  44.400   3.662
76053W        W44394  40.801  22.243   2.820
76054W        W44395  35.984   9.391   2.775
76055W        W44396  10.662  19.121   3.839
76056W        W44397   1.278  41.513  14.016
76057W        W44398  11.731  33.589  12.440
76058W        W44399  34.378  28.097  11.865
76059W        W44400   4.785  30.511   5.196
76060W        W44401  29.626  43.857  11.922
76061W        W44402   1.884  22.200  14.765
76062W        W44403  15.180  15.084   1.844
76063W        W44404  43.501  36.078  12.968
76064W        W44405  35.486  23.546   2.859
76065W        W44406  33.408  38.370  14.851
76066W        W44407   7.842  30.131  14.973
76067W        W44408  37.557  17.782  11.932
76068W        W44409  21.249  10.816  13.949
76069W        W44410  39.334  28.478   2.832
76070W        W44411  44.426  41.528  10.159
76071W        W44412  19.685  22.185   4.239
76072W        W44413   1.806  26.956  13.950
76073W        W44414  39.442  22.587  13.880
76074W        W44415  40.347   0.919  10.482
76075W        W44416   1.885   5.271   4.832
76076W        W44417  43.328   4.850   3.205
76077W        W44418  25.118  33.537   3.355
76078W        W44419  38.860   2.332   1.286
76079W        W44420   6.748  34.030  12.953
76080W        W44421  28.447   7.676   4.352
76081W        W44422  18.146   5.832  12.042
76082W        W44423  25.031  25.152  14.827
76083W        W44424  18.088  44.269  13.811
76084W        W44425   5.328  34.032   4.701
76085W        W44426  11.256  17.115   4.755
76086W        W44427   5.220  12.830  11.987
76087W        W44428  36.847  21.685   2.894
76088W        W44429   1.872  17.611  12.568
76089W        W44430  44.866   5.859  10.604
76090W        W44431  23.011  43.800  13.030
76091W        W44432   2.845   3.347   0.902
76092W        W44433  36.868  22.205   1.713
76093W        W44434  19.113  21.574  11.520
76094W        W44435   1.421  23.212  12.841
76095W        W44436  30.988   8.295  14.897
76096W        W44437  38.393  12.774   2.693
76097W        W44438  33.570  43.814  12.882
76098W        W44439  21.517  14.297   2.359
76099W        W44440  15.136  29.658  14.759
76100W        W44441  41.365  14.190   1.351
76101W        W44442  15.781  20.617   3.292
76102W        W44443  14.247  14.121  12.351
76103W        W44444   9.772   8.215   0.318
76104W        W44445  10.825  36.842   4.253
76105W        W44446  22.583   9.182   4.803
76106W        W44447  42.984  40.040  11.486
76107W        W44448   3.862  28.112  14.850
76108W        W44449  26.113  15.218  10.989
76109W        W44450  37.582   4.817   5.113
76110W        W44451   2.437  30.627  12.547
76111W        W44452  44.778  31.633   1.396
76112W        W44453  20.570  11.318  10.531
76113W        W44454  13.205  25.185  11.968
76114W        W44455  33.915  37.397   4.617
76115W        W44456  28.047  29.615  11.991
76116W        W44457  30.424   8.728  11.899
76117W        W44458   4.354  11.135  13.840
76118W        W44459  16.080  41.993  11.427
76119W        W44460   8.387   3.946   1.389
76120W        W44461   1.779  14.714   0.309
76121W        W44462  22.195  39.464  13.927
76122W        W44463  22.218  26.536   4.783
76123W        W44464  20.617   0.974   4.313
76124W        W44465  44.961  10.222  13.992
76125W        W44466   3.423   0.799  12.560
76126W        W44467  38.993  20.682   3.284
76127W        W44468  36.014   0.862  12.942
76128W        W44469  41.873  39.973  14.796
76129W        W44470   2.937  37.449  11.520
76130W        W44471   0.290  18.134   1.817
76131W        W44472  43.976  42.319   3.313
76132W        W44473  33.460  14.609   4.614
76133W        W44474  28.515   0.936  14.299
76134W        W44475   1.881  23.645  12.950
76135W        W44476  32.077  36.415   3.179
76136W        W44477   7.791  37.383   1.366
76137W        W44478   3.406  43.274   4.669
76138W        W44479  34.874  29.079  13.487
76139W        W44480   1.739   7.327  14.020
76140W        W44481   8.870  32.948   1.311
76141W        W44482  42.461   3.787  14.769
76142W        W44483  14.290  42.030  11.027
76143W        W44484   3.758  42.481   3.279
76144W        W44485   8.386  22.116   1.833
76145W        W44486  21.082  19.707   3.816
76146W        W44487  22.134  21.572  12.518
76147W        W44488  37.433  29.489  14.481
76148W        W44489  40.400  25.541   4.739
76149W        W44490   8.706  43.011   1.421
76150W        W44491  40.318   7.325   2.663
76151W        W44492   8.371  27.526   3.312
76152W        W44493  19.713  25.149  10.527
76153W        W44494   8.247   4.356  11.868
76154W        W44495  27.626  12.655  14.020
76155W        W44496  36.511  27.577   4.737
76156W        W44497  39.402   3.786  13.536
76157W        W44498  16.789  31.939  11.387
76158W        W44499  31.906  27.163  10.441
76159W        W44500  28.642   5.339   2.685
76160W        W44501  36.413  14.668  10.593
76161W        W44502  35.509  30.652  10.558
76162W        W44503  13.172  44.358   1.287
76163W        W44504  38.007  23.067  14.402
76164W        W44505  36.867  38.990   1.864
76165W        W44506  33.024  19.134  11.461
76166W        W44507  43.435  18.614   1.800
76167W        W44508  15.648  14.269  12.036
76168W        W44509   0.357  31.520  14.396
76169W        W44510  28.065  29.036  12.039
76170W        W44511   6.414  42.801  14.400
76171W        W44512  17.724   2.925  12.835
76172W        W44513  33.050  19.669   3.857
76173W        W44514  42.332  20.634   0.879
76174W        W44515   0.318   3.249  11.590
76175W        W44516  26.466  36.513  14.824
76176W        W44517  37.346  10.340  10.479
76177W        W44518  43.286   0.966  11.568
76178W        W44519  26.510  15.736  11.933
76179W        W44520  11.230  28.530  13.840
76180W        W44521  44.295  37.907   5.123
76181W        W44522  36.020   5.433  12.473
76182W        W44523  19.157   1.938  13.805
76183W        W44524  18.738  32.128   3.374
76184W        W44525  26.975  14.610  14.969
76185W        W44526  10.844  43.486   4.728
76186W        W44527  41.992  29.495   3.334
76187W        W44528   6.856   0.393   3.277
76188W        W44529   9.821  16.202   2.891
76189W        W44530  30.014  29.017  14.293
76190W        W44531  42.858  26.599   0.752
76191W        W44532  39.402   5.346   4.203
76192W        W44533  36.459  30.447  14.875
76193W        W44534  44.386  34.425   3.668
76194W        W44535  18.649   5.922  14.323
76195W        W44536   8.342   2.238  13.044
76196W        W44537  22.122  18.564   4.711
76197W        W44538  36.456  41.375  11.045
76198W        W44539  22.540  44.277  11.038
76199W        W44540  36.365   4.707  12.531
76200W        W44541   4.443  38.063   3.721
76201W        W44542  21.210   8.189  13.010
76202W        W44543  14.822  29.043  13.864
76203W        W44544  30.107  36.383   0.907
76204W        W44545   1.874  42.313   4.812
76205W        W44546   5.204  27.603   1.286
76206W        W44547  32.078  20.697   3.743
76207W        W44548  21.599  10.355   1.288
76208W        W44549   2.428  28.996  14.406
76209W        W44550  11.709  18.191  12.896
76210W        W44551  44.784  20.138  13.940
76211W        W44552  22.029  41.358   3.749
76212W        W44553  25.693   4.239  10.958
76213W        W44554   0.912  14.134   1.897
76214W        W44555  12.708   0.253  12.063
76215W        W44556   3.882   1.351  13.814
76216W        W44557  28.997  18.185   1.812
76217W        W44558  27.638  30.015   1.750
76218W        W44559  40.456  19.092  11.108
76219W        W44560  11.274  10.257  11.874
76220W        W44561  27.017  11.192  11.045
76221W        W44562  28.982   7.881  10.617
76222W        W44563  37.946  15.200  12.040
76223W        W44564  28.569  11.322   3.850
76224W        W44565  28.161  10.317   5.111
76225W        W44566  28.642  21.174  12.900
76226W        W44567  25.130  43.007  11.888
76227W        W44568  17.070  43.272  13.367
76228W        W44569   9.240   4.789  11.566
76229W        W44570  12.162  26.515   4.143
76230W        W44571  35.507  26.542  14.401
76231W        W44572  16.138  31.942  11.000
76232W        W44573  15.710  44.805   0.930
76233W        W44574   7.862  26.537  11.586
76234W        W44575  32.013  24.696  14.986
76235W        W44576   4.884   7.834   3.177
76236W        W44577   4.706  43.349  12.554
76237W        W44578   0.742   5.395   2.290
76238W        W44579  18.578  33.068  13.498
76239W        W44580  16.289  37.910   4.602
76240W        W44581  22.734   7.775   0.907
76241W        W44582  25.057  29.011   4.786
76242W        W44583  25.053  42.960   0.348
76243W        W44584  30.928  15.212  11.517
76244W        W44585  23.613   1.848  12.002
76245W        W44586  29.646  19.712   4.340
76246W        W44587  14.288  14.593  11.988
76247W        W44588  24.603   2.358   0.247
76248W        W44589  11.785  26.504   3.820
76249W        W44590   0.379  26.486   0.447
76250W        W44591  21.536  10.703  12.434
76251W        W44592   6.756  24.014  11.923
76252W        W44593  44.873  36.097   2.368
76253W        W44594   9.811  14.699  12.339
76254W        W44595   3.368   4.229  10.589
76255W        W44596  21.522   0.852   0.380
76256W        W44597  39.438   8.823   4.684
76257W        W44598  20.610   1.424  10.574
76258W        W44599  42.835  32.025  13.546
76259W        W44600   0.921  34.386   2.882
76260W        W44601  37.916  25.605  10.540
76261W        W44602   9.830  42.876  12.857
76262W        W44603  38.542   6.259   0.751
76263W        W44604   2.275  42.793   1.827
76264W        W44605  11.847  39.979   1.894
76265W        W44606  10.232  43.001   2.706
76266W        W44607   3.388   4.382  12.411
76267W        W44608  32.597  21.159  12.949
76268W        W44609   1.754  17.630   4.679
76269W        W44610  39.378  44.291  14.029
76270W        W44611  30.454  29.047  13.393
76271W        W44612   5.419  35.083  14.292
76272W        W44613   4.275  20.610   2.702
76273W        W44614  15.121   6.309   1.359
76274W        W44615  17.802  24.138   0.864
76275W        W44616  37.020  20.219  14.306
76276W        W44617  35.380   5.775  13.491
76277W        W44618  43.351  39.516  14.348
76278W        W44619  11.194  37.030   4.214
76279W        W44620  36.983  29.093   2.282
76280W        W44621   2.305  35.014   3.311
76281W        W44622  17.737  35.028   0.272
76282W        W44623  30.093  31.631  14.840
76283W        W44624  43.321  24.646  14.411
76284W        W44625  26.004  30.039   0.808
76285W        W44626  35.887  29.446  14.505
76286W        W44627  13.118  30.129   2.324
76287W        W44628  43.289  27.504   3.797
76288W        W44629  31.517  17.659   0.277
76289W        W44630  36.937  34.567  12.921
76290W        W44631   9.745  32.140   3.249
76291W        W44632   5.290   4.879  13.010
76292W        W44633  28.458  27.598  12.999
76293W        W44634  26.145  44.933   2.817
76294W        W44635  22.587  34.552   4.607
76295W        W44636  43.937  33.105  11.593
76296W        W44637   8.877  32.563   1.377
76297W        W44638  26.983  26.633   0.463
76298W        W44639   4.356   2.239  10.644
76299W        W44640   8.798   4.906   4.222
76300W        W44641  35.487  42.920  12.062
76301W        W44642  11.814   8.181   2.885
76302W        W44643  11.244  14.208  13.409
76303W        W44644  32.139  39.428   4.220
76304W        W44645  32.543  43.379  13.892
76305W        W44646  11.298  35.857   3.699
76306W        W44647  19.065  18.251  11.559
76307W        W44648  19.575  34.972  10.976
76308W        W44649  41.347  30.012  14.968
76309W        W44650   3.422  39.836   0.820
76310W        W44651  23.111  40.343   4.328
76311W        W44652   7.357  39.019   3.667
76312W        W44653  10.159  23.592  11.884
76313W        W44654  30.119  32.023  13.012
76314W        W44655  22.199   0.971   0.842
76315W        W44656  22.533  39.392   0.289
76316W        W44657   5.255   7.302  14.383
76317W        W44658  40.430  40.935  13.339
76318W        W44659  37.575  44.416   3.242
76319W        W44660  42.487  10.192   3.306
76320W        W44661  43.002  43.458  12.428
76321W        W44662   9.809   0.481   1.835
76322W        W44663   9.747  11.359   1.730
76323W        W44664  11.844  27.559  14.306
76324W        W44665   0.960  35.975  11.441
76325W        W44666   9.337  22.645   3.259
76326W        W44667  40.434  26.554  10.416
76327W        W44668  16.763   6.427   4.241
76328W        W44669  14.182  19.691  12.052
76329W        W44670  30.476  20.242  11.565
76330W        W44671  10.264   6.426   5.179
76331W        W44672  28.030  21.052   3.828
76332W        W44673   7.287  29.491  13.992
76333W        W44674   3.955   4.402  12.951
76334W        W44675   0.854  33.406   0.878
76335W        W44676  10.651   3.226  11.429
76336W        W44677  44.480  19.268  11.469
76337W        W44678  36.859  37.996   3.765
76338W        W44679  42.803   9.207   2.192
76339W        W44680  17.648  41.507   4.619
76340W        W44681   2.938  28.114  12.094
76341W        W44682  22.703  23.602   0.801
76342W        W44683  35.417   5.255  14.831
76343W        W44684  15.278  44.392  12.417
76344W        W44685  15.754  34.546  13.543
76345W        W44686  28.974   9.285  10.917
76346W        W44687  28.024  30.082  13.457
76347W        W44688  26.178  24.224   3.319
76348W        W44689  19.242   0.966  12.878
76349W        W44690  29.517   9.357   0.795
76350W        W44691  25.602  27.157   4.658
76351W        W44692  25.206  26.565   1.815
76352W        W44693  27.637  39.348  12.576
76353W        W44694  27.966  27.066  11.486
76354W        W44695  24.112  31.006  13.943
76355W        W44696  36.493  13.212   0.734
76356W        W44697  44.315  35.560  14.828
76357W        W44698  44.282   2.466  12.045
76358W        W44699  27.168  28.604  13.951
76359W        W44700  43.316  41.843  11.091
76360W        W44701  26.056  37.481  10.099
76361W        W44702  16.679  35.928  11.030
76362W        W44703   2.733  40.405   4.157
76363W        W44704   0.867  38.975   2.269
76364W        W44705  27.057  44.782   3.631
76365W        W44706  10.730   2.816  12.975
76366W        W44707  40.390  16.184   1.266
76367W        W44708  42.337  16.733   1.223
76368W        W44709  28.058  44.439   1.863
76369W        W44710   6.771  19.243  13.394
76370W        W44711  23.505  14.815  14.425
76371W        W44712  37.411  32.409   1.433
76372W        W44713   6.775  34.021   3.273
76373W        W44714   9.388  12.252   0.373
76374W        W44715  19.060   6.810  12.076
76375W        W44716  14.334   9.371   0.444
76376W        W44717  12.259  42.885  10.632
76377W        W44718   1.839  42.994   4.191
76378W        W44719  42.395   2.945  12.407
76379W        W44720  35.984  28.613   0.942
76380W        W44721   2.894   7.333  12.030
76381W        W44722   4.827  43.313  10.907
76382W        W44723  43.511   5.356   1.749
76383W        W44724  27.631  18.735   4.804
76384W        W44725  19.040  42.002   0.357
76385W        W44726  33.420  28.541   2.872
76386W        W44727   3.395  29.571  13.422
76387W        W44728   6.766   1.344  12.514
76388W        W44729  32.586  42.864  14.963
76389W        W44730  10.167  29.147   3.679
76390W        W44731  36.353   6.756  10.954
76391W        W44732  26.070  36.542   1.798
76392W        W44733  20.179  35.063   3.867
76393W        W44734  33.588   7.828   3.369
76394W        W44735  22.128  32.089   2.306
76395W        W44736  28.667   3.390   3.173
76396W        W44737  14.241   3.745  14.415
76397W        W44738  30.027  14.199   4.183
76398W        W44739  20.107  15.593  12.455
76399W        W44740  33.514  29.488  14.921
76400W        W44741   0.278   2.904   1.899
76401W        W44742  19.758  40.961   0.887
76402W        W44743  20.128   8.656  14.820
76403W        W44744  19.220  38.040  13.044
76404W        W44745   8.168  12.679   3.699
76405W        W44746  32.053  42.356  10.513
76406W        W44747  11.222  10.818   0.386
76407W        W44748  17.163   1.289  11.871
76408W        W44749  39.370  28.130  11.940
76409W        W44750  10.679  41.297   0.444
76410W        W44751  24.105  26.511  10.969
76411W        W44752  11.714  21.666   4.697
76412W        W44753  29.573  32.070  14.488
76413W        W44754  24.482   6.205   1.717
76414W        W44755  17.193   6.245  11.391
76415W        W44756   7.793  42.960  10.618
76416W        W44757  16.166  37.538  12.464
76417W        W44758  11.262  26.119  10.590
76418W        W44759   0.281  15.765  14.482
76419W        W44760  10.818  20.092  11.888
76420W        W44761  42.297   3.920   2.205
76421W        W44762  38.900   8.857   2.769
76422W        W44763   2.853  26.088  14.007
76423W        W44764  17.574  23.156  14.786
76424W        W44765  36.968  23.569   0.261
76425W        W44766   1.848  29.107  13.042
76426W        W44767  33.553  14.720  10.493
76427W        W44768  41.470  30.578   0.953
76428W        W44769  15.677  22.586  13.921
76429W        W44770  10.682  43.902  12.824
76430W        W44771  22.551  20.649   1.390
76431W        W44772   1.773  20.086   3.805
76432W        W44773  37.909   0.844  10.111
76433W        W44774  20.039  40.990   0.305
76434W        W44775  43.805  32.119   1.308
76435W        W44776   7.173  38.013   1.309
76436W        W44777  12.711  41.419  11.473
76437W        W44778  15.647  36.944  12.934
76438W        W44779  29.521  29.121  11.958
76439W        W44780  43.507   7.833   3.329
76440W        W44781   7.902  16.726   2.724
76441W        W44782  13.752  12.782  11.559
76442W        W44783  24.694   6.747   0.451
76443W        W44784  14.783  12.732   2.707
76444W        W44785  23.638  37.904  14.948
76445W        W44786  10.741   6.864   1.317
76446W        W44787   0.491  25.520  11.888
76447W        W44788  10.336  23.233   0.785
76448W        W44789  14.177  10.707   2.812
76449W        W44790   9.314  19.250   4.166
76450W        W44791   1.779  13.289  12.997
76451W        W44792   4.299  19.185  10.937
76452W        W44793  37.352  42.014  12.888
76453W        W44794  15.159   7.309  10.559
76454W        W44795  17.617  25.601  13.482
76455W        W44796   7.854  10.752   2.864
76456W        W44797  31.488  17.794  13.379
76457W        W44798  33.473  25.058  10.141
76458W        W44799   2.408   1.307  14.902
76459W        W44800  22.161  32.026   4.832
76460W        W44801  30.085  16.666   4.625
76461W        W44802  18.100  22.535  12.897
76462W        W44803  39.965  13.318  14.434
76463W        W44804  25.183   2.268   1.912
76464W        W44805  29.529   1.366   1.412
76465W        W44806   1.406  44.289   4.175
76466W        W44807  12.344  12.676   0.862
76467W        W44808  30.632   6.202   2.400
76468W        W44809  20.649  42.419   3.737
76469W        W44810   0.312  17.269  14.513
76470W        W44811   3.347  27.673  13.502
76471W        W44812  26.955  27.676   2.378
76472W        W44813  13.171  12.845  11.899
76473W        W44814  31.468  12.173   0.765
76474W        W44815  28.512  42.944   4.746
76475W        W44816  31.083  24.550  11.883
76476W        W44817   5.931  13.127   0.436
76477W        W44818  28.034  40.419   0.254
76478W        W44819   5.722  15.204   2.202
76479W        W44820  30.635  29.652  10.449
76480W        W44821  21.049  38.559  10.094
76481W        W44822   1.858  26.082   0.845
76482W        W44823  11.829  19.202   1.909
76483W        W44824  18.790  19.062   1.871
76484W        W44825  13.237  16.158  13.841
76485W        W44826  36.362  31.943   0.812
76486W        W44827  36.587  39.990   1.709
76487W        W44828  12.736  29.578  14.455
76488W        W44829  29.055  36.011   1.413
76489W        W44830  44.965  29.982   0.895
76490W        W44831  37.859   7.220  12.078
76491W        W44832  16.136  22.114  12.071
76492W        W44833  34.454  26.499  14.343
76493W        W44834  26.627  34.465  11.457
76494W        W44835   1.365  11.241   0.805
76495W        W44836   2.449  30.493  12.856
76496W        W44837  13.306   7.182   3.860
76497W        W44838  13.203   8.886   2.691
76498W        W44839  25.541  36.026  10.104
76499W        W44840  16.309  38.007  10.645
76500W        W44841   3.403  30.471   3.174
76501W        W44842  37.075  16.162   2.293
76502W        W44843  37.479  19.258   4.820
76503W        W44844  12.171  32.125  11.050
76504W        W44845  42.485  41.367   3.364
76505W        W44846  19.124  36.856   2.229
76506W        W44847  39.829   3.314   3.819
76507W        W44848  18.235   7.877  12.559
76508W        W44849  26.044  33.523  12.060
76509W        W44850  38.060  12.172   2.824
76510W        W44851  25.528   7.176   1.753
76511W        W44852  13.188  16.076  10.557
76512W        W44853  21.577  10.384  14.477
76513W        W44854   1.895   5.321  14.396
76514W        W44855  39.054   0.277   1.934
76515W        W44856  21.140   8.257  14.326
76516W        W44857  11.789  13.236   4.191
76517W        W44858  31.636  16.177   3.176
76518W        W44859  10.139   3.850  11.481
76519W        W44860   6.357  25.202  13.356
76520W        W44861  34.029  37.420  14.444
76521W        W44862  31.931  32.021  12.853
76522W        W44863  25.631  12.653   4.143
76523W        W44864  43.461  28.503   3.850
76524W        W44865  40.048  33.582   3.222
76525W        W44866  37.515  18.639   4.330
76526W        W44867  22.067  18.559  12.979
76527W        W44868  28.029  37.371  10.946
76528W        W44869  44.446  27.607  11.458
76529W        W44870   8.169  32.986  10.422
76530W        W44871  44.770  11.306  14.292
76531W        W44872   5.918   7.338   1.212
76532W        W44873  37.883  28.956  13.397
76533W        W44874   9.168  22.139   3.801
76534W        W44875  44.445  30.969  11.100
76535W        W44876   8.400  41.995   2.272
76536W        W44877  10.333  10.311   3.205
76537W        W44878  16.681   3.909  11.556
76538W        W44879  29.155  23.178   1.328
76539W        W44880  31.990  37.352  13.532
76540W        W44881   9.288  34.607  11.612
76541W        W44882  28.098  31.452  10.462
76542W        W44883   1.294  12.640  12.944
76543W        W44884  21.184  37.543   5.098
76544W        W44885   4.330   3.286  10.575
76545W        W44886  24.190  25.092   5.180
76546W        W44887  22.692  10.344   9.957
76547W        W44888  42.838  34.900  13.011
76548W        W44889  26.577  21.160   0.834
76549W        W44890  14.224   7.375  14.014
76550W        W44891  32.018  23.631   4.701
76551W        W44892  40.987  40.797  13.793
76552W        W44893  16.599   9.843   3.315
76553W        W44894   9.303  20.252   2.221
76554W        W44895  30.021  12.131  11.542
76555W        W44896   6.811  38.439  14.420
76556W        W44897  19.753  42.825   3.757
76557W        W44898  37.030  24.660   0.907
76558W        W44899  40.303  43.950   3.732
76559W        W44900  22.123  15.207   3.344
76560W        W44901  15.307  43.897   4.208
76561W        W44902  43.840   0.357  14.835
76562W        W44903  29.535   3.223   5.214
76563W        W44904   9.751  28.538   3.748
76564W        W44905  33.899  31.570   2.179
76565W        W44906  33.979  43.880   4.793
76566W        W44907   8.780  43.475   4.344
76567W        W44908  33.492  44.892   3.770
76568W        W44909  30.103  29.494   0.767
76569W        W44910  24.102  39.821  12.898
76570W        W44911   6.774  28.139   1.218
76571W        W44912  29.163  10.375   3.816
76572W        W44913   4.259  10.166   3.378
76573W        W44914  35.372  31.618  11.441
76574W        W44915  42.443   5.207   0.448
76575W        W44916  19.623  38.571  10.629
76576W        W44917   0.348  14.662   1.235
76577W        W44918  16.222  24.198  14.488
76578W        W44919  16.277  39.427   4.262
76579W        W44920  23.223   9.881   2.304
76580W        W44921  13.313  18.742   1.831
76581W        W44922   4.214   6.298  12.550
76582W        W44923  12.724  35.941   4.225
76583W        W44924  23.527  20.210  12.396
76584W        W44925  23.605   8.309  10.923
76585W        W44926   3.949  36.882  10.546
76586W        W44927  23.222  23.123   3.745
76587W        W44928  29.454  25.059  11.561
76588W        W44929  44.472  43.942   4.239
76589W        W44930   5.435  41.458   2.796
76590W        W44931   5.195   4.886  12.409
76591W        W44932  14.643  17.179  11.054
76592W        W44933  11.149   3.372   0.812
76593W        W44934   4.744  12.626   0.954
76594W        W44935  35.580  22.619   4.836
76595W        W44936  25.022  13.722  14.892
76596W        W44937   6.798  19.228   2.402
76597W        W44938  23.642  22.020  13.327
76598W        W44939   0.766  34.533  13.835
76599W        W44940   0.845  20.769  12.383
76600W        W44941  43.304  15.105  12.916
76601W        W44942  17.598  24.632   3.698
76602W        W44943  44.367  28.966  13.467
76603W        W44944  16.763   1.317  14.483
76604W        W44945  39.048  10.797   4.637
76605W        W44946   0.927  42.472   4.168
76606W        W44947  31.409  22.097  12.353
76607W        W44948  23.020  44.311   0.819
76608W        W44949  33.399  21.092   1.854
76609W        W44950  33.545  36.894   1.236
76610W        W44951  41.869  33.036  12.905
76611W        W44952  33.465  35.086   1.278
76612W        W44953  40.435  10.283  13.981
76613W        W44954  35.435  40.349  12.463
76614W        W44955   0.417  29.543   4.713
76615W        W44956  17.233   4.810  12.467
76616W        W44957  32.946  42.465   3.344
76617W        W44958  28.661  26.000  10.472
76618W        W44959  17.111  35.600   4.817
76619W        W44960   0.967  21.575  11.530
76620W        W44961   2.338   3.900  11.490
76621W        W44962  13.341  13.311  10.465
76622W        W44963  20.727  23.042  14.785
76623W        W44964  34.530  36.960   2.855
76624W        W44965   1.797  23.655   1.696
76625W        W44966  21.057  31.925   0.449
76626W        W44967  43.813  42.328  10.946
76627W        W44968  26.154  35.970   4.798
76628W        W44969  32.009  28.546  10.917
76629W        W44970  35.976   6.731  12.428
76630W        W44971  36.858  14.694   0.247
76631W        W44972  27.137  38.962  10.037
76632W        W44973  30.981  33.421  12.578
76633W        W44974   1.290  21.056  12.878
76634W        W44975  28.125   0.304  11.596
76635W        W44976  40.388  19.073  13.489
76636W        W44977  33.439  44.913  11.955
76637W        W44978   9.838  32.018  14.800
76638W        W44979  36.580  19.742   0.435
76639W        W44980   5.719  30.486  11.394
76640W        W44981  35.037  17.570  13.799
76641W        W44982   0.290  25.014  10.971
76642W        W44983   6.905  17.655  12.366
76643W        W44984  19.154  21.698   3.181
76644W        W44985  18.621  12.212  12.406
76645W        W44986  15.291  35.585   2.384
76646W        W44987  10.691   5.365   1.344
76647W        W44988  19.112  28.176  12.457
76648W        W44989  44.992  43.802  10.893
76649W        W44990  42.932  27.164   4.122
76650W        W44991  21.604  19.624  11.580
76651W        W44992  21.570  23.695   2.367
76652W        W44993   4.854  43.489  14.322
76653W        W44994  24.553   6.738   1.345
76654W        W44995  23.105   8.247  11.067
76655W        W44996  38.442   0.412  11.970
76656W        W44997  11.251   8.310   2.185
76657W        W44998  44.353  21.716   9.452
76658W        W44999  40.549  20.587  13.057
76659W        W45000  19.277  25.489   3.722
76660W        W45001  43.499  43.288   0.367
76661W        W45002  12.662   7.361  14.431
76662W        W45003   0.374  41.789  10.504
76663W        W45004  41.316  31.580   4.603
76664W        W45005  40.501  35.979   0.852
76665W        W45006   6.834  33.454   2.371
76666W        W45007  14.244  17.727  11.007
76667W        W45008  41.893  38.076   4.238
76668W        W45009  18.240   7.687  13.992
76669W        W45010  31.554   1.464  12.867
76670W        W45011  17.280  12.628  10.632
76671W        W45012  38.821  29.037   1.330
76672W        W45013  19.169  18.564  11.489
76673W        W45014  42.317  44.433   1.379
76674W        W45015  10.762  20.722   4.114
76675W        W45016  38.427  19.138  13.913
76676W        W45017  42.909  35.913  10.948
76677W        W45018  21.596  25.609   2.753
76678W        W45019   0.867  19.065   4.338
76679W        W45020  19.114  44.950  14.379
76680W        W45021  27.089  44.436  13.860
76681W        W45022  11.151   4.320  13.480
76682W        W45023   2.408  37.342   0.351
76683W        W45024  18.778  44.500  13.367
76684W        W45025  35.363  39.402  13.000
76685W        W45026  26.060  38.449  12.009
76686W        W45027  26.668  23.610  13.484
76687W        W45028   7.796  20.190   0.925
76688W        W45029  41.321  40.902   0.800
76689W        W45030   8.161  13.839  11.525
76690W        W45031  20.699  34.058   2.747
76691W        W45032  37.462   9.388   5.310
76692W        W45033  40.817  35.479   1.381
76693W        W45034  22.671   1.446  13.327
76694W        W45035  24.137  44.951   0.382
76695W        W45036  11.255  34.904   4.730
76696W        W45037   3.235  43.272  13.010
76697W        W45038  27.113  24.023   1.273
76698W        W45039  13.605  15.119   2.290
76699W        W45040   4.712   3.879   0.261
76700W        W45041  16.758   1.316  12.423
76701W        W45042  44.862  27.121  14.912
76702W        W45043  21.730  12.629   0.250
76703W        W45044  26.614   8.359  12.914
76704W        W45045  20.252  32.498  13.524
76705W        W45046   4.330  36.428  11.416
76706W        W45047   1.770  29.562   0.379
76707W        W45048  35.061  44.309   3.146
76708W        W45049  34.370   2.962   4.226
76709W        W45050  21.647  35.516   2.349
76710W        W45051  32.636  14.730   3.373
76711W        W45052  44.424  42.994  11.511
76712W        W45053  44.448  15.786  14.452
76713W        W45054  39.906  14.238   4.754
76714W        W45055  44.936  14.169   4.114
76715W        W45056   0.792  35.972   3.184
76716W        W45057  18.280  44.788   4.141
76717W        W45058  27.009  19.144  14.023
76718W        W45059   3.319  42.937   4.664
76719W        W45060   1.809  40.358   2.347
76720W        W45061  18.731   3.365   0.939
76721W        W45062   5.709  30.473  13.810
76722W        W45063  12.830  20.654   4.114
76723W        W45064  20.251   7.901  11.577
76724W        W45065  19.253   3.261  13.344
76725W        W45066  12.644  24.686  12.998
76726W        W45067  33.608   6.738  10.534
76727W        W45068  10.320  18.070   1.741
76728W        W45069  32.444  36.002  14.806
76729W        W45070   2.357  44.406  11.078
76730W        W45071  17.180  15.808  10.012
76731W        W45072  19.089   4.708  13.928
76732W        W45073   1.287  31.931  13.407
76733W        W45074  34.544  30.481   3.762
76734W        W45075  18.646  43.430  12.349
76735W        W45076  24.186  21.667  14.919
76736W        W45077   9.673   0.816  11.936
76737W        W45078   7.358  18.243  11.123
76738W        W45079   9.705  42.364  13.311
76739W        W45080  10.672  25.135   3.177
76740W        W45081  33.451   2.413  12.891
76741W        W45082  20.183  11.131   0.940
76742W        W45083  12.778   9.214  12.954
76743W        W45084   9.786  41.523   1.930
76744W        W45085  32.501  41.884  12.485
76745W        W45086  39.945  28.486  11.075
76746W        W45087   0.253  42.386  14.465
76747W        W45088  41.515  13.285  12.002
76748W        W45089  25.647  12.852   3.238
76749W        W45090  43.444  37.957  14.404
76750W        W45091  14.740  10.291   0.736
76751W        W45092  44.280  40.501  14.358
76752W        W45093  25.520  21.249  10.440
76753W        W45094  17.077  21.745   0.874
76754W        W45095  20.654   7.859   3.639
76755W        W45096  44.260  33.559   2.291
76756W        W45097   4.258  31.908  14.277
76757W        W45098   5.310  19.262  13.811
76758W        W45099  41.823  12.293  12.390
76759W        W45100  40.832   0.319   0.861
76760W        W45101  40.995  17.272   1.399
76761W        W45102   1.860   1.838  13.843
76762W        W45103  34.374  18.124  14.438
76763W        W45104   7.728  26.070   2.185
76764W        W45105  44.332  23.985  13.365
76765W        W45106  36.479  29.563  12.568
76766W        W45107   6.305  36.009   2.397
76767W        W45108  25.019  18.066  11.504
76768W        W45109  16.643  14.320   0.747
76769W        W45110  33.945   2.298  13.460
76770W        W45111  19.754   6.335  14.879
76771W        W45112   3.741  15.232   0.245
76772W        W45113  25.140  38.958   1.230
76773W        W45114  15.171  23.142   2.680
76774W        W45115  23.646  13.836   4.808
76775W        W45116  26.016  19.259  12.937
76776W        W45117  31.136  29.152   4.659
76777W        W45118  38.375   8.182   2.369
76778W        W45119  15.669  24.716   4.132
76779W        W45120  31.412   2.317   4.260
76780W        W45121  24.498  27.005  11.082
76781W        W45122  10.296  30.986  13.438
76782W        W45123  27.637   8.315  14.893
76783W        W45124  26.188  30.641   3.655
76784W        W45125   0.264  35.545  11.936
76785W        W45126  18.250  41.797   2.227
76786W        W45127  15.650  35.906  14.990
76787W        W45128  40.819  31.533   2.882
76788W        W45129  30.590  39.358   0.823
76789W        W45130  35.566  35.540  12.509
76790W        W45131   8.659  12.161  11.511
76791W        W45132  34.017  12.265  10.590
76792W        W45133  12.641  24.499  14.018
76793W        W45134  23.191   5.253  12.909
76794W        W45135   5.849   6.416  14.995
76795W        W45136  27.572  40.855  13.441
76796W        W45137  34.001  39.347   3.633
76797W        W45138  34.532  27.167  13.818
76798W        W45139   2.729   4.264   1.920
76799W        W45140  17.122  13.661  14.785
76800W        W45141   1.851  33.997  13.981
76801W        W45142  14.100  21.659  12.531
76802W        W45143  40.465   5.408   2.863
76803W        W45144  11.768  35.459   3.228
76804W        W45145  25.077   3.229   4.693
76805W        W45146  43.787  34.373  13.938
76806W        W45147  34.106  32.545   3.161
76807W        W45148  38.338  27.578  12.063
76808W        W45149  15.130  24.507   1.794
76809W        W45150  11.127  17.249   2.744
76810W        W45151  31.921   9.209   2.270
76811W        W45152  26.188  26.974   1.855
76812W        W45153   2.748  27.515  14.336
76813W        W45154  38.336  14.106   4.142
76814W        W45155  30.627  28.135  13.876
76815W        W45156  21.042  32.057  13.454
76816W        W45157  33.080  20.559  10.470
76817W        W45158  43.372   1.411   3.382
76818W        W45159  11.264  33.922  11.399
76819W        W45160   2.283  43.390  12.830
76820W        W45161  20.555  38.883   4.143
76821W        W45162  41.854  22.211  11.107
76822W        W45163  14.683   7.303  13.439
76823W        W45164  31.592  37.446  14.315
76824W        W45165  36.386  17.124  13.026
76825W        W45166  42.319   7.807   4.695
76826W        W45167  26.689  10.823   2.321
76827W        W45168  29.619  39.467   3.833
76828W        W45169  11.337   8.778   4.307
76829W        W45170  15.092  34.011   4.632
76830W        W45171  20.665  41.007   3.157
76831W        W45172   4.438  38.821  11.081
76832W        W45173  43.004  29.661  12.931
76833W        W45174  15.146  24.509   0.808
76834W        W45175   9.197  39.008  13.809
76835W        W45176   8.277  14.645  14.417
76836W        W45177  14.273  18.119   2.823
76837W        W45178  27.970   7.279  12.438
76838W        W45179   2.434  30.579   2.666
76839W        W45180  19.573  28.119   3.355
76840W        W45181  35.368  35.968   3.829
76841W        W45182  28.443  25.988   4.299
76842W        W45183  10.263  30.041  14.996
76843W        W45184  42.447   0.420  11.524
76844W        W45185  34.374   2.356   2.251
76845W        W45186  15.238  13.339   2.247
76846W        W45187  38.520  22.206   0.292
76847W        W45188  33.389  23.143   3.153
76848W        W45189  11.219  32.085   4.340
76849W        W45190  20.715  20.042   1.816
76850W        W45191  18.711  18.191   0.761
76851W        W45192   4.361  42.453   2.808
76852W        W45193  28.615  11.175  14.808
76853W        W45194  39.898   6.186  10.437
76854W        W45195  12.270  15.755   0.425
76855W        W45196  37.573  44.466  11.007
76856W        W45197  23.190   7.843  11.098
76857W        W45198  18.776   1.898  11.943
76858W        W45199  42.825  37.367  13.923
76859W        W45200  35.472  19.244  12.396
76860W        W45201   9.802  39.044   2.775
76861W        W45202  41.820  14.703  12.078
76862W        W45203  12.621  38.369  13.368
76863W        W45204  28.030   6.400  11.399
76864W        W45205   0.460  26.561  12.534
76865W        W45206  25.161  14.738  14.326
76866W        W45207  26.481  36.545   1.868
76867W        W45208  26.180  44.323   2.740
76868W        W45209   8.161  42.999  11.565
76869W        W45210  17.216   8.764  10.062
76870W        W45211   7.311   8.767   1.443
76871W        W45212  37.957  40.821  11.520
76872W        W45213  38.562  35.938   0.959
76873W        W45214  14.244   7.412  10.448
76874W        W45215  42.997   4.360  14.818
76875W        W45216  15.158   6.338   3.214
76876W        W45217   0.368  20.608  12.524
76877W        W45218   9.249   9.169  11.375
76878W        W45219   6.413   2.746  13.503
76879W        W45220  40.342  18.787   1.854
76880W        W45221  39.528  41.790   3.323
76881W        W45222  13.255  33.937  10.981
76882W        W45223  24.011  21.692  13.376
76883W        W45224  44.421   3.895  13.872
76884W        W45225  12.651  40.037   2.293
76885W        W45226  29.531  16.305  14.311
76886W        W45227  25.053  10.332   4.607
76887W        W45228  12.702  26.606   2.839
76888W        W45229   3.241  37.377   5.296
76889W        W45230  42.896  22.731   5.290
76890W        W45231  36.865  43.444   1.870
76891W        W45232  25.047  27.533   3.760
76892W        W45233   6.415   3.373   4.657
76893W        W45234  38.524  42.981  13.038
76894W        W45235  39.062   9.268   1.277
76895W        W45236  42.494  35.006  11.408
76896W        W45237   2.851  26.100  11.883
76897W        W45238  31.048  24.188  11.553
76898W        W45239  12.708  43.995  12.515
76899W        W45240  27.135   6.254  11.453
76900W        W45241  15.711   6.206  12.961
76901W        W45242  16.116  36.375  14.841
76902W        W45243  19.231  12.168  13.902
76903W        W45244  44.963  43.877  11.884
76904W        W45245  23.501  42.029   0.302
76905W        W45246  32.005   6.742   2.788
76906W        W45247  23.537  35.982   2.717
76907W        W45248  43.274  39.014  13.892
76908W        W45249  28.601  38.849   4.632
76909W        W45250  42.893  43.513   3.730
76910W        W45251   8.794  35.039   3.304
76911W        W45252  22.725  28.654  12.536
76912W        W45253  32.912   8.773  13.050
76913W        W45254  31.645   2.434   4.780
76914W        W45255  19.266  12.747  11.462
76915W        W45256  26.977  23.646  14.326
76916W        W45257  42.852  18.684  13.943
76917W        W45258  33.508   5.912   4.636
76918W        W45259  13.744  13.210  12.421
76919W        W45260  43.340  34.510  14.286
76920W        W45261  24.043  43.771  10.564
76921W        W45262  29.963  18.677  13.416
76922W        W45263  31.150  13.259   0.289
76923W        W45264  30.594  32.609  13.951
76924W        W45265   8.695  29.590   0.318
76925W        W45266   3.805   0.866  12.903
76926W        W45267  18.225   9.329   0.884
76927W        W45268  33.519  43.362   2.852
76928W        W45269   6.728   7.801   2.272
76929W        W45270  15.184   8.384   3.836
76930W        W45271  27.537   7.244  12.501
76931W        W45272  27.177   3.913  14.979
76932W        W45273  31.515  33.885  13.957
76933W        W45274   6.322  29.460  11.916
76934W        W45275  31.025  43.848   2.294
76935W        W45276  18.226  21.020   1.295
76936W        W45277  10.811  33.446   0.244
76937W        W45278  13.218  17.065   3.198
76938W        W45279  13.781  36.985  13.341
76939W        W45280  26.193  31.487   4.249
76940W        W45281  19.076  43.503  14.016
76941W        W45282   5.314  43.855   3.281
76942W        W45283   1.301  39.544  10.598
76943W        W45284   2.749  43.824   1.372
76944W        W45285   1.449  36.953  10.951
76945W        W45286  14.213   7.269   3.824
76946W        W45287  12.740  26.566   2.214
76947W        W45288  10.378   6.773  11.959
76948W        W45289   5.315  32.411   3.284
76949W        W45290   7.407  24.654  14.383
76950W        W45291  18.545  27.557  10.947
76951W        W45292  15.657  12.148   2.787
76952W        W45293  23.073  36.370  11.957
76953W        W45294   8.164  29.984   1.717
76954W        W45295  18.699  19.163  11.023
76955W        W45296  25.480  25.698   3.853
76956W        W45297  44.345  32.592   0.441
76957W        W45298   7.266  35.874  12.992
76958W        W45299  29.015  15.688  11.859
76959W        W45300  44.859  40.803   0.784
76960W        W45301  29.559  14.211   4.216
76961W        W45302   4.406  27.140   1.444
76962W        W45303  32.508  22.237  14.495
76963W        W45304  44.935  16.605   3.738
76964W        W45305  14.322  44.340   1.771
76965W        W45306  23.156   7.187   0.364
76966W        W45307  38.479  27.626   1.433
76967W        W45308   5.303  26.680   1.893
76968W        W45309  37.836  12.129   0.776
76969W        W45310   9.371  18.296  14.500
76970W        W45311  40.328  44.973   3.302
76971W        W45312  23.676   9.700  12.358
76972W        W45313  40.859  44.904   4.146
76973W        W45314  21.097  14.235   2.721
76974W        W45315  37.068  27.149  12.875
76975W        W45316  38.441   1.831   0.376
76976W        W45317  23.584  29.550  13.494
76977W        W45318  36.468  12.127   0.360
76978W        W45319  30.151   1.280  13.835
76979W        W45320  24.499   1.954   3.154
76980W        W45321  32.449  18.219  11.876
76981W        W45322   0.288  37.986  14.796
76982W        W45323  28.515  30.003   4.148
76983W        W45324  16.638  43.775   4.117
76984W        W45325  39.441  31.629   3.237
76985W        W45326  12.140  32.016  12.435
76986W        W45327  14.755  31.433  11.383
76987W        W45328  15.313   4.786   3.266
76988W        W45329  22.628  10.697  13.918
76989W        W45330  11.138  40.477   0.742
76990W        W45331  11.243   6.335  11.613
76991W        W45332  33.903  18.154   1.860
76992W        W45333  17.283  35.895   1.852
76993W        W45334  11.658   7.768  14.793
76994W        W45335  35.531  40.983  10.517
76995W        W45336   1.866  20.174  10.077
76996W        W45337  10.663  11.321   9.941
76997W        W45338  20.251   1.246   4.146
76998W        W45339  31.406  35.868  13.999
76999W        W45340  25.573  17.203  14.443
77000W        W45341   0.368  37.355  10.447
77001W        W45342   3.874  15.806   4.190
77002W        W45343  35.913   3.416  14.452
77003W        W45344  15.769  38.570  12.082
77004W        W45345   1.949  19.214   4.309
77005W        W45346  12.675   9.680  10.604
77006W        W45347  14.166  41.462   4.165
77007W        W45348   3.803  15.623  13.810
77008W        W45349  39.498  42.361  14.394
77009W        W45350  38.953  35.363  10.948
77010W        W45351   4.882  36.496   2.694
77011W        W45352  44.328   5.230   4.730
77012W        W45353   0.392  29.002  11.555
77013W        W45354  23.520   2.367   4.248
77014W        W45355  39.002  18.110   2.870
77015W        W45356  40.878  11.829  12.018
77016W        W45357   2.376  15.702  13.877
77017W        W45358  31.522  42.371  10.542
77018W        W45359   9.824  27.059   0.272
77019W        W45360  28.648  44.300   2.763
77020W        W45361  12.759  14.166   1.216
77021W        W45362  36.876  30.423   0.943
77022W        W45363  38.901  13.140   0.375
77023W        W45364  19.056  39.966  14.502
77024W        W45365   9.371  37.934  14.289
77025W        W45366  18.086  30.057  12.422
77026W        W45367  24.040  39.425  13.534
77027W        W45368  37.376  38.046  12.397
77028W        W45369  29.155  11.772   2.756
77029W        W45370  25.074   5.839  10.986
77030W        W45371  30.446  25.068  14.299
77031W        W45372  36.073  37.043   2.187
77032W        W45373  38.071  44.998  13.373
77033W        W45374  14.596  41.851   0.380
77034W        W45375  36.072  32.513   4.607
77035W        W45376  24.644  38.052   0.399
77036W        W45377   3.363   6.885  10.436
77037W        W45378  12.203  40.409  14.472
77038W        W45379   0.829  27.494   0.937
77039W        W45380  42.813  26.123  12.527
77040W        W45381  42.021  31.931   2.866
77041W        W45382  27.597  16.578   3.645
77042W        W45383  39.046  29.549  13.436
77043W        W45384  21.696  23.225  14.293
77044W        W45385   4.939  24.228   4.335
77045W        W45386  31.079   7.267  10.020
77046W        W45387  26.129  23.579   0.945
77047W        W45388  23.162   9.793   3.759
77048W        W45389   7.350   9.667  11.024
77049W        W45390  13.156   2.737  12.471
77050W        W45391   8.265   1.735   1.730
77051W        W45392  16.247  20.591   4.753
77052W        W45393   7.705  41.910  14.030
77053W        W45394  40.980  38.429  14.009
77054W        W45395  14.333  24.125  14.356
77055W        W45396  25.075  43.865   2.688
77056W        W45397  21.655  42.002  11.866
77057W        W45398  40.970  24.077  12.056
77058W        W45399  22.165  10.710   3.254
77059W        W45400   6.737  30.974  12.560
77060W        W45401  30.537  15.618   3.691
77061W        W45402  15.089   2.929  14.027
77062W        W45403  28.102  24.140  11.608
77063W        W45404  38.561   1.954   0.934
77064W        W45405  19.674  44.769   3.207
77065W        W45406  11.804  30.114   2.225
77066W        W45407  17.287  13.351  14.486
77067W        W45408  18.672  40.387  14.440
77068W        W45409  40.505  21.020  10.613
77069W        W45410  30.436  20.733  11.562
77070W        W45411  39.889  14.292   1.917
77071W        W45412  16.790   7.865  11.092
77072W        W45413  35.384  37.881   3.714
77073W        W45414  44.273  25.038   3.834
77074W        W45415  26.654  10.257   0.374
77075W        W45416  42.944  41.293  12.566
77076W        W45417  34.486  29.661   2.411
77077W        W45418  17.068  21.053   0.817
77078W        W45419  33.587  28.659   4.295
77079W        W45420  17.696  34.032   3.690
77080W        W45421   7.879  23.636   3.790
77081W        W45422  23.129  33.440   3.242
77082W        W45423  40.007  39.446   1.253
77083W        W45424  40.415  40.913  11.962
77084W        W45425  11.340   1.392  12.885
77085W        W45426  17.129   6.858   2.841
77086W        W45427  35.562  34.953   4.293
77087W        W45428  28.466   2.947   0.942
77088W        W45429  27.020   3.281   4.324
77089W        W45430  33.910   5.765  12.920
77090W        W45431  26.630  34.888   1.451
77091W        W45432  43.835  39.960  12.079
77092W        W45433  38.526   5.402  12.028
77093W        W45434  15.790  38.361  14.349
77094W        W45435   4.391  33.443  14.994
77095W        W45436  41.999  35.947   3.321
77096W        W45437  44.496  29.135   5.102
77097W        W45438   6.879  24.122  11.046
77098W        W45439  37.557  38.866  11.587
77099W        W45440  23.037  32.549   0.334
77100W        W45441   5.282  22.590   4.129
77101W        W45442  38.508  36.852   4.767
77102W        W45443   0.755   8.838  14.787
77103W        W45444  28.105  19.089   0.931
77104W        W45445  30.094  14.130   1.371
77105W        W45446  24.519   6.695  14.848
77106W        W45447  19.228  20.578   0.308
77107W        W45448  17.217  31.420  14.953
77108W        W45449   6.403  18.225   0.416
77109W        W45450  19.252   2.268  14.378
77110W        W45451  35.887  28.140   1.847
77111W        W45452   9.204  30.084  10.995
77112W        W45453  30.011  42.289   3.749
77113W        W45454   6.806  33.415   0.251
77114W        W45455  44.440  20.636   2.766
77115W        W45456  23.104  15.162   2.784
77116W        W45457  22.680  43.482  13.363
77117W        W45458   9.373  27.536  14.030
77118W        W45459  11.812   3.316  12.067
77119W        W45460   2.233  38.979  14.410
77120W        W45461  13.670  23.645   1.229
77121W        W45462  33.405  30.996   9.977
77122W        W45463   8.249   8.893   4.759
77123W        W45464  15.202  12.785   0.341
77124W        W45465  23.677   9.857  11.551
77125W        W45466  14.191  33.892  10.556
77126W        W45467  36.845   8.247   3.868
77127W        W45468  24.141   2.829  13.375
77128W        W45469  22.559  40.889   3.752
77129W        W45470  18.253  25.566  11.452
77130W        W45471  35.966  21.612  14.982
77131W        W45472  19.182  21.110  12.029
77132W        W45473  34.549  44.428   3.326
77133W        W45474   3.421  32.440  13.809
77134W        W45475  30.114  16.723   0.392
77135W        W45476  17.582  39.435  12.529
77136W        W45477  10.789  31.465  12.532
77137W        W45478  13.117   3.433  10.444
77138W        W45479  40.032  33.505  11.993
77139W        W45480  12.335  40.525  14.959
77140W        W45481  22.661  14.303   5.161
77141W        W45482  29.565  19.537  10.521
77142W        W45483  28.631  14.224   5.210
77143W        W45484  28.656  23.100   4.735
77144W        W45485  22.183  30.048  12.931
77145W        W45486  10.206  30.520   3.323
77146W        W45487  36.429  14.733   1.263
77147W        W45488  26.457  16.700  10.408
77148W        W45489  43.436  30.632   3.829
77149W        W45490  27.473  20.151   1.399
77150W        W45491  44.863  18.135  14.863
77151W        W45492   1.852  39.013  14.423
77152W        W45493  18.558   2.767  12.048
77153W        W45494  44.966   0.324  12.931
77154W        W45495  24.490  41.977  11.998
77155W        W45496  36.533  27.972   2.285
77156W        W45497   3.852  44.897   2.732
77157W        W45498  37.892  23.039  14.992
77158W        W45499  19.627  24.588   1.338
77159W        W45500   3.398   3.269   1.816
77160W        W45501  31.124  10.747   3.314
77161W        W45502  21.735  38.957   3.377
77162W        W45503  35.358  19.623   4.144
77163W        W45504   7.342  26.066   4.621
77164W        W45505  31.099  26.470   0.772
77165W        W45506  18.104  43.867   0.897
77166W        W45507  29.938  21.261   1.441
77167W        W45508  40.414  32.050   9.956
77168W        W45509   5.753  21.154   1.362
77169W        W45510  39.341  11.295   2.188
77170W        W45511  28.443  12.611   0.405
77171W        W45512  43.439  36.986   1.704
77172W        W45513  28.166  43.495   0.806
77173W        W45514  43.421  19.273  13.382
77174W        W45515  41.028  42.984  13.360
77175W        W45516  38.867  44.417  12.922
77176W        W45517  42.334  10.703  12.985
77177W        W45518  33.044  22.109   3.382
77178W        W45519  27.150  38.070  14.997
77179W        W45520  22.143  37.397   1.731
77180W        W45521   2.296  19.116   4.741
77181W        W45522  15.634  35.369  10.060
77182W        W45523  11.661   6.359  11.051
77183W        W45524  15.581  21.574   9.519
77184W        W45525  14.131  30.559  12.056
77185W        W45526   2.285  18.653   0.939
77186W        W45527  33.002   7.825  11.580
77187W        W45528  33.077  24.104   3.739
77188W        W45529   6.891  38.414  11.536
77189W        W45530   3.861   9.176   2.676
77190W        W45531  12.153  43.850   1.301
77191W        W45532   3.764  36.462   2.262
77192W        W45533  16.256   7.797  13.424
77193W        W45534   8.202  38.906  13.499
77194W        W45535  11.149  18.732  12.929
77195W        W45536  26.137   9.368  12.401
77196W        W45537  43.483  11.697  14.335
77197W        W45538   3.752  21.127   3.781
77198W        W45539  22.225   6.824  11.993
77199W        W45540  14.143  17.100   3.705
77200W        W45541  40.797  32.105  14.810
77201W        W45542  21.116  39.543   4.821
77202W        W45543  44.493  11.332  12.031
77203W        W45544  32.590  12.153   2.737
77204W        W45545  40.841  11.177  11.401
77205W        W45546  37.509  30.924   2.227
77206W        W45547   5.285  33.536  14.786
77207W        W45548   6.800  14.828   3.338
77208W        W45549  42.805   6.783   2.205
77209W        W45550   7.911  18.054  10.611
77210W        W45551  11.799   5.388  13.816
77211W        W45552  32.123  21.601  11.560
77212W        W45553  26.584  19.228   2.757
77213W        W45554   7.843   2.391   2.830
77214W        W45555   1.737   4.720   3.217
77215W        W45556  29.438  32.941   4.292
77216W        W45557  26.629  20.115   0.282
77217W        W45558  42.033  20.255  12.050
77218W        W45559  22.016  17.657   3.772
77219W        W45560  20.733   6.317   3.733
77220W        W45561  43.019  12.716  12.082
77221W        W45562  14.720  17.655  11.512
77222W        W45563   2.932   6.849  14.320
77223W        W45564  23.542   2.459   1.342
77224W        W45565  12.624   4.219   2.303
77225W        W45566  16.589  44.839   2.754
77226W        W45567  30.039  13.703  14.423
77227W        W45568  29.510  16.671  10.551
77228W        W45569  10.381  10.860   5.249
77229W        W45570  14.725  18.234  12.898
77230W        W45571  29.577  18.244   4.305
77231W        W45572  13.713   3.760  13.934
77232W        W45573   6.424   7.221  10.626
77233W        W45574  43.393   2.249   2.701
77234W        W45575  42.881  15.164  14.930
77235W        W45576  44.461  41.343   0.388
77236W        W45577   5.727   9.845   1.781
77237W        W45578  12.854  31.990  13.001
77238W        W45579  10.313  24.698   1.325
77239W        W45580  32.600  36.053   3.867
77240W        W45581   3.287  10.372   4.306
77241W        W45582  18.285  34.118   3.741
77242W        W45583  36.525  16.695  12.865
77243W        W45584   0.966  24.189  13.894
77244W        W45585  41.363   5.411  14.810
77245W        W45586  24.171  31.547  13.424
77246W        W45587   9.737  39.025  10.906
77247W        W45588  16.792  31.477  11.455
77248W        W45589  18.680  26.999  12.999
77249W        W45590  14.776  30.124  11.549
77250W        W45591  23.058  28.132  13.832
77251W        W45592  24.704  27.096  12.444
77252W        W45593   6.357  43.801  13.906
77253W        W45594  20.545   4.919   0.395
77254W        W45595   6.413  32.965  14.895
77255W        W45596  20.693  10.260  10.451
77256W        W45597  10.850   3.867  13.414
77257W        W45598  14.166  27.117  14.941
77258W        W45599   7.847  41.808  11.390
77259W        W45600  34.437  30.155  14.500
77260W        W45601  37.404  28.963   3.329
77261W        W45602  35.522   7.857  13.793
77262W        W45603  29.119  42.311  12.946
77263W        W45604  20.561   5.267   4.346
77264W        W45605  22.699  28.125  14.794
77265W        W45606  15.703  43.338   0.812
77266W        W45607   0.474  10.205   4.747
77267W        W45608   2.956  12.838   0.905
77268W        W45609   8.703   9.661   2.798
77269W        W45610  10.355  42.993   3.383
77270W        W45611  36.420  30.034   3.834
77271W        W45612  25.532  32.896   3.678
77272W        W45613   2.242  21.131   4.793
77273W        W45614  15.663  43.281   3.267
77274W        W45615  29.020   1.297   4.656
77275W        W45616  36.087  36.420   1.387
77276W        W45617  25.215   8.863  14.906
77277W        W45618  16.273  24.636  11.904
77278W        W45619  21.737  16.708  14.298
77279W        W45620  39.511   4.360   3.638
77280W        W45621  23.524  28.022  14.782
77281W        W45622  36.522   6.407  12.884
77282W        W45623   0.867  38.846  14.010
77283W        W45624  40.452  25.133   2.786
77284W        W45625  35.551  33.969   4.798
77285W        W45626  10.324  27.540  14.401
77286W        W45627   8.800  26.610   3.764
77287W        W45628  18.203   8.171  10.975
77288W        W45629  11.148  32.004  14.793
77289W        W45630   4.742  23.216  10.418
77290W        W45631  35.093  19.273  13.370
77291W        W45632  44.004   9.673  10.917
77292W        W45633   3.451   3.273   2.744
77293W        W45634  24.546  35.490  13.943
77294W        W45635  44.297   0.863  13.062
77295W        W45636  38.019  38.454   0.810
77296W        W45637  37.533  17.260   4.252
77297W        W45638  44.325   8.375  14.979
77298W        W45639  16.121  40.325  12.436
77299W        W45640  25.168  28.074   1.916
77300W        W45641  31.430  30.437  11.478
77301W        W45642  43.929  22.707   0.943
77302W        W45643  12.785  34.932  14.281
77303W        W45644  44.853   4.242  13.016
77304W        W45645  36.904  32.935   4.155
77305W        W45646  16.139  14.105   3.371
77306W        W45647  24.527   3.255  11.912
77307W        W45648   4.866   6.241   0.344
77308W        W45649  26.008  40.333   0.289
77309W        W45650   2.958  37.001   1.280
77310W        W45651  29.615  32.405  10.958
77311W        W45652  29.920   2.360  10.496
77312W        W45653  21.069  28.168  12.540
77313W        W45654  43.402  35.513  14.298
77314W        W45655  14.152  16.261   0.885
77315W        W45656  11.668  31.440   4.191
77316W        W45657  18.593  31.613   3.841
77317W        W45658  15.718  19.652  13.957
77318W        W45659  18.051  10.239   1.795
77319W        W45660  31.992   6.390   3.676
77320W        W45661  18.727   1.250   4.813
77321W        W45662  33.505  21.227   1.268
77322W        W45663  10.814  36.990   0.270
77323W        W45664  26.071  12.825   0.406
77324W        W45665  20.739   3.238  10.409
77325W        W45666  38.864  36.898   1.322
77326W        W45667  34.448  18.109   1.854
77327W        W45668  40.017   6.230   0.449
77328W        W45669  25.639  19.665  11.483
77329W        W45670  40.917  13.336  13.834
77330W        W45671  10.314   9.833  12.354
77331W        W45672  44.371  34.545  11.932
77332W        W45673   5.904   4.220   3.774
77333W        W45674  27.679  28.605  13.377
77334W        W45675  31.456  34.468  13.506
77335W        W45676   1.291  28.613  12.562
77336W        W45677  35.877   9.229   1.415
77337W        W45678   9.279  43.985   1.905
77338W        W45679  11.195  29.527   2.877
77339W        W45680  22.571  23.037   1.715
77340W        W45681  28.620  20.653  10.574
77341W        W45682  23.017  19.041   0.809
77342W        W45683   9.849  31.480   2.292
77343W        W45684   7.397  24.539  11.049
77344W        W45685  28.046  13.144   0.365
77345W        W45686  43.491  10.766   3.367
77346W        W45687   7.223  29.954   3.643
77347W        W45688  35.926  24.132  14.906
77348W        W45689  18.549   3.329  10.423
77349W        W45690  42.421  15.239   3.164
77350W        W45691  43.371  26.192   3.206
77351W        W45692  21.681  37.936  12.342
77352W        W45693  17.286  35.057  13.530
77353W        W45694   5.198  14.602   3.828
77354W        W45695  41.360   8.301  14.913
77355W        W45696  43.817  21.190  10.951
77356W        W45697  13.127  38.007   2.304
77357W        W45698  30.050  22.744  14.367
77358W        W45699   8.195  19.237   0.406
77359W        W45700  25.165  15.224   4.289
77360W        W45701  38.521   1.824  13.543
77361W        W45702   7.202  33.517   2.673
77362W        W45703  39.321   2.754   0.756
77363W        W45704  36.444  38.399  10.555
77364W        W45705   2.742   4.341  12.510
77365W        W45706   9.284  40.388   2.277
77366W        W45707  40.810   8.333   4.147
77367W        W45708  36.444  25.194   4.666
77368W        W45709  18.089   1.874  12.444
77369W        W45710   0.987   1.918  14.920
77370W        W45711  14.319  17.202  12.357
77371W        W45712   1.963  32.088   1.246
77372W        W45713   1.751   9.330   4.785
77373W        W45714  17.177   1.440  13.369
77374W        W45715  35.919  37.569   2.844
77375W        W45716  17.160  15.739  14.344
77376W        W45717  15.708   6.763  13.794
77377W        W45718  36.381   4.817   3.795
77378W        W45719  13.619  40.940   3.299
77379W        W45720  11.719  32.612  10.608
77380W        W45721  16.093  41.932   3.851
77381W        W45722  38.859  24.716  10.460
77382W        W45723  35.979   2.721   0.772
77383W        W45724  14.290   8.368  12.898
77384W        W45725  24.215  16.195   5.243
77385W        W45726   8.198  30.471  11.907
77386W        W45727   1.257   3.911   2.703
77387W        W45728  26.682   1.322  10.446
77388W        W45729   1.943   3.810  14.488
77389W        W45730  13.790  12.151  13.063
77390W        W45731   3.312  25.652  14.411
77391W        W45732  19.041   5.373   1.306
77392W        W45733  31.561  20.219   1.283
77393W        W45734   3.773  40.011  13.381
77394W        W45735   1.762  12.157  13.965
77395W        W45736  25.033  17.624  12.405
77396W        W45737  44.798  37.985   1.741
77397W        W45738  16.632  37.045  13.418
77398W        W45739   9.160   5.710   4.661
77399W        W45740  43.270   3.392  12.554
77400W        W45741   9.328  38.366  10.498
77401W        W45742  11.155  27.535  14.350
77402W        W45743  42.781  19.188   3.312
77403W        W45744  20.711  38.873   1.798
77404W        W45745  38.016  42.503  13.488
77405W        W45746   6.782  40.986  12.511
77406W        W45747  22.570  39.931  14.795
77407W        W45748  13.228  37.475  10.916
77408W        W45749  42.422  39.393  12.075
77409W        W45750  11.627   3.312  14.335
77410W        W45751  10.301  31.556   4.653
77411W        W45752   3.909  10.639  11.954
77412W        W45753  23.234  39.997  12.960
77413W        W45754   0.454   9.795  14.452
77414W        W45755  30.987  14.177   1.219
77415W        W45756  32.980   0.912  11.068
77416W        W45757  17.260  13.641   4.349
77417W        W45758  34.460  41.858  13.822
77418W        W45759  44.493  35.858  11.960
77419W        W45760   7.375  37.856  13.509
77420W        W45761  24.705  32.620   1.807
77421W        W45762   9.160   2.732  14.997
77422W        W45763   4.917  25.507   0.846
77423W        W45764  30.511   0.977  11.976
77424W        W45765  44.892  43.399   1.716
77425W        W45766  38.915  14.688   1.412
77426W        W45767   5.731  28.159   3.821
77427W        W45768  39.875   4.218  11.566
77428W        W45769  32.090  20.729   4.683
77429W        W45770  27.959  41.391   3.731
77430W        W45771  13.660  30.415  13.315
77431W        W45772   7.786  35.040  11.536
77432W        W45773  18.768  15.238   4.722
77433W        W45774   4.885  27.053  14.464
77434W        W45775  14.674   0.425  14.932
77435W        W45776  13.652  44.471  11.863
77436W        W45777   9.173  16.651   1.856
77437W        W45778  21.233  30.907   0.831
77438W        W45779  14.199  33.898   3.831
77439W        W45780  10.248  43.818  11.032
77440W        W45781  19.673   3.747  10.578
77441W        W45782  44.320  42.345  10.972
77442W        W45783  40.496  27.686   2.325
77443W        W45784   5.927  43.892   0.876
77444W        W45785  20.586   8.366  13.790
77445W        W45786  13.776   2.790  13.027
77446W        W45787  24.078  38.928  10.154
77447W        W45788  34.600   3.320  13.891
77448W        W45789   2.299  43.332  11.952
77449W        W45790  27.173  33.396   4.654
77450W        W45791  16.143  40.895   0.267
77451W        W45792  31.476   8.232  14.910
77452W        W45793  25.654  31.004  14.026
77453W        W45794  24.600  19.729  13.512
77454W        W45795   8.818  34.530  14.287
77455W        W45796  21.022  28.645  10.551
77456W        W45797  35.459  20.569   2.308
77457W        W45798  19.046  44.463   3.815
77458W        W45799  12.252  14.699   0.382
77459W        W45800  13.136  17.730   3.852
77460W        W45801   5.866   2.823   4.815
77461W        W45802  12.337  14.589   0.853
77462W        W45803  16.628  17.787  14.980
77463W        W45804  10.333   6.402  10.451
77464W        W45805  31.971  34.570  13.056
77465W        W45806  43.875  17.669   3.265
77466W        W45807  12.633  32.065  10.921
77467W        W45808  26.103  29.102   0.866
77468W        W45809   8.209  32.457  11.384
77469W        W45810  15.214  26.597  14.774
77470W        W45811   6.426  28.667  11.052
77471W        W45812   4.382  20.523   3.690
77472W        W45813   5.741   0.479  13.814
77473W        W45814  29.493  31.596   3.167
77474W        W45815  17.679  14.591  10.955
77475W        W45816  20.236   3.816   0.282
77476W        W45817  12.842  35.954   1.921
77477W        W45818  31.134  27.167   0.961
77478W        W45819  39.374  26.487  11.450
77479W        W45820  18.597  31.993  14.802
77480W        W45821  29.487  22.506   2.690
77481W        W45822  24.542   0.338  13.361
77482W        W45823  10.780  26.195   0.293
77483W        W45824  34.038  11.217  11.539
77484W        W45825   3.791  20.671   4.634
77485W        W45826  34.868  41.846  13.058
77486W        W45827  26.614  41.442  14.493
77487W        W45828  11.367   2.357  12.869
77488W        W45829  23.545  14.706   2.843
77489W        W45830  19.258  16.307   1.786
77490W        W45831  26.578  36.881   0.299
77491W        W45832  33.607  29.644  11.113
77492W        W45833  11.700  37.030   3.720
77493W        W45834  29.080  35.435  13.539
77494W        W45835  36.522  27.162   1.396
77495W        W45836  39.497  32.624  10.579
77496W        W45837   0.324   7.684   2.298
77497W        W45838  23.062   0.350  12.074
77498W        W45839  15.763   3.950   1.763
77499W        W45840  42.449  30.574  11.048
77500W        W45841  16.686  28.962   4.635
77501W        W45842  34.086  11.814  11.892
77502W        W45843  17.280  32.587  12.406
77503W        W45844  31.474  19.673  10.994
77504W        W45845  28.123   1.764   3.236
77505W        W45846   3.223  31.916  14.986
77506W        W45847  43.425  37.399  13.846
77507W        W45848  12.249  36.492  10.590
77508W        W45849  40.445  34.904   0.956
77509W        W45850   8.829  21.593   2.885
77510W        W45851  11.150   0.493  12.922
77511W        W45852  26.193  33.482   0.939
77512W        W45853  19.753  12.332   3.310
77513W        W45854   0.887  11.859   4.347
77514W        W45855  22.549  30.589   4.818
77515W        W45856  44.949   4.425  10.590
77516W        W45857  21.128   6.414  13.038
77517W        W45858  14.705  15.774   1.908
77518W        W45859  29.617  33.616  13.538
77519W        W45860  43.492  30.004  13.526
77520W        W45861   8.190  14.777  13.992
77521W        W45862  11.730  42.387  11.009
77522W        W45863  12.720  29.528   0.784
77523W        W45864  13.601  19.209   2.722
77524W        W45865  20.249  32.113  12.503
77525W        W45866  40.376  27.593   4.240
77526W        W45867   1.920  29.114   2.671
77527W        W45868  39.467  35.885  13.526
77528W        W45869  19.732   4.750   3.792
77529W        W45870  28.932  25.979  11.937
77530W        W45871  17.106  39.436   3.158
77531W        W45872  25.965  36.949  10.936
77532W        W45873   9.155   0.946   3.271
77533W        W45874  38.502  27.637  11.115
77534W        W45875  15.181  26.597   4.146
77535W        W45876  31.049  37.916   0.397
77536W        W45877  40.027  32.010   3.297
77537W        W45878  12.250   7.290  11.578
77538W        W45879  13.128  43.969   0.752
77539W        W45880   9.285  43.904   3.724
77540W        W45881  38.844   1.822  12.084
77541W        W45882  11.794  24.493   2.792
77542W        W45883  23.658  14.288  13.980
77543W        W45884   6.690   7.811  12.492
77544W        W45885  34.063  23.130   3.766
77545W        W45886   2.429  20.085  14.950
77546W        W45887  15.196  41.905  14.882
77547W        W45888  43.900  30.984  12.537
77548W        W45889   8.361  18.711   1.760
77549W        W45890  10.708  30.125   1.928
77550W        W45891  27.560  28.185   3.758
77551W        W45892  40.389  25.531   3.374
77552W        W45893  36.846  11.671   3.779
77553W        W45894  40.496   6.701   1.276
77554W        W45895  31.070  41.496  13.028
77555W        W45896   7.674  23.037  12.983
77556W        W45897  42.857  22.682  14.835
77557W        W45898  34.120  33.091  12.070
77558W        W45899  13.804  38.010  10.916
77559W        W45900   5.196  26.572   3.282
77560W        W45901  29.571  11.767   3.320
77561W        W45902  15.167  10.171   4.642
77562W        W45903  17.197  32.521  14.811
77563W        W45904  12.831  11.795   2.716
77564W        W45905   9.866  40.976   0.953
77565W        W45906  40.433   4.941  11.479
77566W        W45907  11.772  39.505  13.831
77567W        W45908   4.744  14.122   2.776
77568W        W45909   2.332  38.042  12.375
77569W        W45910  26.578  29.947   3.823
77570W        W45911  20.213  42.305  11.981
77571W        W45912  17.251  35.030  13.961
77572W        W45913   6.740  36.899   2.418
77573W        W45914  13.127  10.354  14.503
77574W        W45915  21.651   0.435  12.985
77575W        W45916  24.058  17.634   3.161
77576W        W45917  36.979   8.236  10.623
77577W        W45918  33.876   6.370  10.415
77578W        W45919  36.592  36.072   1.296
77579W        W45920  23.641  11.822   2.760
77580W        W45921  28.463  18.696   0.947
77581W        W45922  36.009   1.930   3.209
77582W        W45923  34.032  44.872   2.355
77583W        W45924  21.113  21.707  13.862
77584W        W45925  17.120  14.304   0.756
77585W        W45926  16.776  37.461  13.332
77586W        W45927  34.935  33.559  14.331
77587W        W45928  20.719  42.836   5.135
77588W        W45929  36.064  14.660  14.454
77589W        W45930  29.066  43.438   2.394
77590W        W45931  27.973  32.074  11.533
77591W        W45932   7.781  29.049   4.783
77592W        W45933  39.442  14.232  14.486
77593W        W45934  26.632  38.343   1.335
77594W        W45935  24.056  22.047  12.031
77595W        W45936   3.390  28.543   2.829
77596W        W45937  21.148  32.565   4.333
77597W        W45938  43.427  29.436   0.887
77598W        W45939  31.556  12.330   1.432
77599W        W45940   3.806  14.160  11.490
77600W        W45941   0.926  29.608  12.855
77601W        W45942   2.851  22.586   0.825
77602W        W45943  33.585   9.757  14.915
77603W        W45944  37.942  32.567  14.512
77604W        W45945   5.918  23.023   2.765
77605W        W45946  24.512   9.664   3.850
77606W        W45947  12.284  43.313  12.567
77607W        W45948  30.518  23.660  13.948
77608W        W45949   7.397  39.521   0.286
77609W        W45950  22.536  36.918   3.215
77610W        W45951  22.251  12.650  13.435
77611W        W45952   5.335  43.801   4.710
77612W        W45953  11.327  11.826   2.214
77613W        W45954  32.574  15.785  10.466
77614W        W45955   9.732  28.142  14.785
77615W        W45956  10.702  40.907  11.943
77616W        W45957  34.031  28.114   1.261
77617W        W45958  24.660  28.670   5.250
77618W        W45959  26.626  31.410   0.863
77619W        W45960  30.631  13.122   1.821
77620W        W45961   5.257  30.094   0.919
77621W        W45962  30.950  34.378   0.321
77622W        W45963  19.557  12.129   4.834
77623W        W45964  36.999  30.109  10.956
77624W        W45965  33.131  23.088   4.319
77625W        W45966  35.009  32.134  12.905
77626W        W45967  35.050   0.477  12.421
77627W        W45968   3.836  29.610  10.052
77628W        W45969  32.566  37.445   4.760
77629W        W45970  23.139  44.381  13.382
77630W        W45971  14.231  16.186  11.937
77631W        W45972  32.033   3.221   0.355
77632W        W45973  38.034  16.663  14.995
77633W        W45974   5.382  43.018   0.884
77634W        W45975  23.525  36.844  12.991
77635W        W45976  31.108   7.201  11.433
77636W        W45977  29.486  38.929   4.221
77637W        W45978  22.109   1.360  11.557
77638W        W45979  38.415  39.879   0.916
77639W        W45980  15.169  41.345  13.939
77640W        W45981  16.731   0.262  11.064
77641W        W45982  19.761  26.633   5.244
77642W        W45983  18.168  26.169  14.760
77643W        W45984  41.359   2.447   4.231
77644W        W45985   0.827   8.756   3.213
77645W        W45986  37.068  20.061  13.920
77646W        W45987  30.151  35.523  11.857
77647W        W45988  32.932   6.236  13.797
77648W        W45989   7.795  35.049  10.986
77649W        W45990   0.451  22.548  14.484
77650W        W45991  32.968  21.244  12.580
77651W        W45992  26.567  15.599   0.338
77652W        W45993  41.866  18.110   1.280
77653W        W45994  28.116  41.837  10.956
77654W        W45995  36.092  32.086  13.827
77655W        W45996   3.867  10.841   4.177
77656W        W45997   9.376  24.069   3.214
77657W        W45998  24.006  23.077  12.480
77658W        W45999  44.463  41.920  13.965
77659W        W46000   1.954  12.746  11.382
77660W        W46001  35.084  37.546  12.953
77661W        W46002  16.217  15.800  10.467
77662W        W46003  22.523  31.466  13.937
77663W        W46004  34.102  28.951   1.239
77664W        W46005  44.794  31.495  12.431
77665W        W46006   8.785  11.651   4.224
77666W        W46007  39.453  32.401  13.844
77667W        W46008  29.095  11.628  13.972
77668W        W46009  41.857  27.950   1.449
77669W        W46010  34.870  34.449  12.478
77670W        W46011  38.424  27.545  13.902
77671W        W46012   4.354  33.091  10.571
77672W        W46013  21.230  14.195   1.702
77673W        W46014  13.741  10.722   1.253
77674W        W46015  41.907  37.424   4.168
77675W        W46016  15.713  21.029  13.948
77676W        W46017   8.704  14.113   0.836
77677W        W46018  31.980   0.254  10.404
77678W        W46019  32.040  38.873  13.835
77679W        W46020  36.356  30.048  11.486
77680W        W46021  27.088  36.446  11.555
77681W        W46022  21.548  40.825  14.426
77682W        W46023  24.167  12.241  14.923
77683W        W46024   5.900  42.509  12.911
77684W        W46025  39.993  40.533   3.365
77685W        W46026  43.845  24.551   3.210
77686W        W46027  27.167  42.814   1.820
77687W        W46028   4.761   8.888   5.160
77688W        W46029  25.682  38.455   3.311
77689W        W46030  29.469   7.715  11.542
77690W        W46031  41.291  43.965   1.340
77691W        W46032  10.865  15.159  10.418
77692W        W46033  25.627  41.890  11.008
77693W        W46034  19.046  27.622   3.274
77694W        W46035   4.745  34.574   0.765
77695W        W46036  31.520  31.152   3.228
77696W        W46037  33.561  32.399   2.884
77697W        W46038  32.556  25.094  11.974
77698W        W46039  35.919  19.728   0.858
77699W        W46040   9.259  16.741  13.320
77700W        W46041   2.235  33.398   3.837
77701W        W46042   5.914  25.691  12.841
77702W        W46043  34.915  35.960   2.403
77703W        W46044  18.789   4.865   4.707
77704W        W46045  20.664  29.045  13.384
77705W        W46046  11.363   9.835   5.192
77706W        W46047  37.920  34.368  14.898
77707W        W46048  11.715  17.563  10.933
77708W        W46049  30.923   2.325  11.944
77709W        W46050  34.389  18.192   3.289
77710W        W46051  24.086  43.020   2.330
77711W        W46052  34.585   8.337   2.363
77712W        W46053  28.635  23.635   3.809
77713W        W46054   2.256  30.421  11.534
77714W        W46055  44.501  11.816  12.377
77715W        W46056   3.830  43.384   4.778
77716W        W46057  26.182  15.185   3.200
77717W        W46058  15.119   6.769   0.755
77718W        W46059  39.486  24.675  11.124
77719W        W46060  29.991  17.747   2.276
77720W        W46061  26.068   3.235   3.781
77721W        W46062  27.983   8.160  10.133
77722W        W46063  34.051  30.437   1.255
77723W        W46064  17.732  10.860  13.524
77724W        W46065  36.939  10.171   3.351
77725W        W46066  19.160  30.426   2.679
77726W        W46067  31.128  18.652   2.345
77727W        W46068   5.244  26.472   2.843
77728W        W46069  25.121  28.657   4.790
77729W        W46070  42.459  20.064  14.312
77730W        W46071  32.410   5.379  13.809
77731W        W46072  22.557  13.632  14.354
77732W        W46073  25.019  10.795  10.920
77733W        W46074  38.386  16.766   2.759
77734W        W46075  31.099  24.684   4.710
77735W        W46076  29.494  17.170  11.543
77736W        W46077  11.804   7.341   3.150
77737W        W46078  11.785  27.649   1.430
77738W        W46079  18.752  10.316  13.348
77739W        W46080  36.919  42.318   1.428
77740W        W46081  17.293  30.065   1.861
77741W        W46082   4.703  43.494   3.651
77742W        W46083  22.073  43.470   2.383
77743W        W46084  34.058  32.578   2.869
77744W        W46085  12.834   5.803   1.730
77745W        W46086   5.393  34.905  13.035
77746W        W46087  42.838  39.891  13.469
77747W        W46088   7.770   6.357  13.897
77748W        W46089   4.387   2.262  12.522
77749W        W46090  21.672   5.742  10.979
77750W        W46091   8.752   5.801  13.393
77751W        W46092  18.112  24.012   5.160
77752W        W46093  44.001   5.398   1.935
77753W        W46094  40.399  18.066  11.990
77754W        W46095   4.329  14.828   0.879
77755W        W46096  19.734  39.491  14.314
77756W        W46097  30.102  44.890   3.212
77757W        W46098   9.697  44.471  10.569
77758W        W46099  11.730  44.503   0.414
77759W        W46100  33.442  36.845  14.814
77760W        W46101  27.112  27.968  13.378
77761W        W46102  21.543  26.134  14.864
77762W        W46103  32.942  42.949   3.710
77763W        W46104   6.309  41.497   0.958
77764W        W46105  20.585  25.557  13.449
77765W        W46106  19.587  37.366   2.390
77766W        W46107   7.910  26.563  10.626
77767W        W46108  16.254  21.153   2.793
77768W        W46109   6.767   3.834   2.292
77769W        W46110  33.012  25.987  12.960
77770W        W46111  21.629   5.898  14.971
77771W        W46112  39.835  28.993  13.847
77772W        W46113   2.443  28.667  10.929
77773W        W46114  33.524  35.410   3.328
77774W        W46115  33.586  33.444   3.343
77775W        W46116  28.663  34.488   3.383
77776W        W46117  13.804  37.996  13.310
77777W        W46118  30.565  25.651  12.006
77778W        W46119  44.975   8.241  14.499
77779W        W46120   2.470  36.592  12.867
77780W        W46121  24.025  31.460  14.454
77781W        W46122  24.140  36.485   0.821
77782W        W46123  17.800  41.390  13.509
77783W        W46124  19.154   4.335   0.255
77784W        W46125  26.544   6.226  11.068
77785W        W46126  39.980  13.771   1.331
77786W        W46127   8.248  43.441  10.582
77787W        W46128  16.700  31.905  14.362
77788W        W46129   2.386  41.802  11.887
77789W        W46130  16.648  19.721   2.395
77790W        W46131  15.655   1.758   2.267
77791W        W46132  19.256  19.207   4.132
77792W        W46133   7.301  41.002   3.678
77793W        W46134  16.653  19.202  14.815
77794W        W46135  40.931  37.953   0.913
77795W        W46136  33.534  27.585  13.347
77796W        W46137  27.588  16.174   0.940
77797W        W46138   3.743  43.782   4.327
77798W        W46139  40.864  35.881   0.259
77799W        W46140  10.634  39.816  11.014
77800W        W46141   6.888  20.183   1.408
77801W        W46142   0.399   9.357   1.710
77802W        W46143  25.050  23.071   3.183
77803W        W46144   0.347  24.638  12.953
77804W        W46145   5.818  24.528  13.456
77805W        W46146  12.196  27.068  13.907
77806W        W46147  12.356  24.069   1.424
77807W        W46148  15.691  19.199   4.829
77808W        W46149  40.444  27.045   2.773
77809W        W46150  24.714  18.750  10.156
77810W        W46151  23.719   7.309   2.725
77811W        W46152  38.003   5.894   2.675
77812W        W46153  41.822  16.098  14.873
77813W        W46154   1.328   1.302   0.919
77814W        W46155  40.406   2.775  14.981
77815W        W46156  30.442  15.182   1.779
77816W        W46157   7.778  35.936  11.035
77817W        W46158  17.663   6.362  13.898
77818W        W46159  41.485  44.968   3.349
77819W        W46160   8.865  14.268  13.977
77820W        W46161  41.515  38.390  10.441
77821W        W46162  18.747   0.974   4.200
77822W        W46163   6.402   0.860  12.895
77823W        W46164  32.452  43.453   0.816
77824W        W46165  27.138  23.185   0.874
77825W        W46166  24.147  16.621  10.062
77826W        W46167   8.799   6.195   2.417
77827W        W46168  23.010  14.120  12.927
77828W        W46169   4.231  17.797   4.632
77829W        W46170  41.981   0.965  12.876
77830W        W46171  28.983   6.377   4.115
77831W        W46172   9.217  18.280   0.897
77832W        W46173  11.768  10.166   2.253
77833W        W46174  36.369  24.074  10.466
77834W        W46175   2.922  30.005  12.863
77835W        W46176   0.971   7.408  11.397
77836W        W46177  12.135  31.617   2.775
77837W        W46178  12.202   9.389  12.392
77838W        W46179  38.940  25.185   0.937
77839W        W46180   6.744   4.447   3.740
77840W        W46181  25.216  40.860  14.432
77841W        W46182  25.199   4.796   2.771
77842W        W46183  11.657  10.316   5.745
77843W        W46184  39.376  19.726   2.279
77844W        W46185  37.549   9.284  10.972
77845W        W46186  25.145   6.197   2.283
77846W        W46187  18.567   8.169  11.905
77847W        W46188  34.369   4.399   0.341
77848W        W46189  29.491  17.635  12.907
77849W        W46190  42.365  20.258  10.507
77850W        W46191   8.166  37.483  12.520
77851W        W46192  19.086  15.754  14.344
77852W        W46193  17.606  41.431   1.760
77853W        W46194  33.504  38.963   3.712
77854W        W46195  12.713  29.610  13.834
77855W        W46196  40.821  22.099   4.141
77856W        W46197  32.493  22.065  14.028
77857W        W46198   3.745  41.008  13.482
77858W        W46199   8.394  34.396   1.908
77859W        W46200  19.763   2.342   3.341
77860W        W46201  30.453  37.904   0.827
77861W        W46202  19.677  19.678   2.743
77862W        W46203  41.943  34.439  13.444
77863W        W46204  13.741  27.945  14.331
77864W        W46205  27.140  37.059  10.514
77865W        W46206  15.241  19.731  14.490
77866W        W46207  15.122  25.033   4.655
77867W        W46208  18.638  33.450   1.887
77868W        W46209   8.331  38.449  14.495
77869W        W46210  22.608  28.139   4.671
77870W        W46211  17.294   9.278  12.846
77871W        W46212  10.374  12.273   5.124
77872W        W46213  17.187  40.350   0.336
77873W        W46214  42.984  18.241  12.844
77874W        W46215   0.931  35.089   1.859
77875W        W46216  29.432   7.785  12.440
77876W        W46217  10.637   1.478  14.897
77877W        W46218  12.247  38.372   2.412
77878W        W46219   1.321   2.794  13.414
77879W        W46220  21.634  10.148  12.940
77880W        W46221  35.998  10.142   3.370
77881W        W46222  32.407  19.607  12.999
77882W        W46223   1.411  36.404  12.080
77883W        W46224  16.215  34.982  11.875
77884W        W46225  27.473   0.340   1.270
77885W        W46226  22.724  32.026  11.596
77886W        W46227  17.710  33.899   0.778
77887W        W46228   3.752  20.091   1.707
77888W        W46229  40.831  25.187  13.514
77889W        W46230  39.872  15.642  12.042
77890W        W46231  30.558   9.679   2.674
77891W        W46232  10.239  14.779   1.216
77892W        W46233  38.892   2.278   2.263
77893W        W46234  43.884  32.108  10.937
77894W        W46235  20.101   8.194   2.416
77895W        W46236  38.381  14.606   4.275
77896W        W46237   9.837  41.420  14.449
77897W        W46238  20.221   6.879   1.310
77898W        W46239  40.958  22.246   0.733
77899W        W46240  17.088  36.462   0.303
77900W        W46241  26.149   6.200   2.260
77901W        W46242   9.278  36.869   3.685
77902W        W46243  15.683   8.249  13.921
77903W        W46244  39.051  35.419  12.950
77904W        W46245   9.732  12.835  14.991
77905W        W46246   0.881  28.138   0.965
77906W        W46247  13.772  23.527   0.857
77907W        W46248  12.853  20.056   3.642
77908W        W46249  31.017   3.242   0.328
77909W        W46250  34.967  25.108  12.010
77910W        W46251  30.003   9.731  14.856
77911W        W46252   6.783   1.756  14.961
77912W        W46253  30.096  38.497  10.489
77913W        W46254  39.896  10.335  11.429
77914W        W46255  17.590   4.727  12.084
77915W        W46256  26.621   5.325  12.020
77916W        W46257  31.428  32.489   2.329
77917W        W46258  34.983   7.782   4.818
77918W        W46259  14.111   2.338  10.571
77919W        W46260  27.654  26.142   0.294
77920W        W46261   9.241   4.433  13.851
77921W        W46262   3.930  42.926   3.376
77922W        W46263   5.733  23.637  13.003
77923W        W46264   7.333   9.204  10.902
77924W        W46265  33.014  38.915  10.601
77925W        W46266   9.836   9.678  12.024
77926W        W46267  42.864  37.053   1.849
77927W        W46268  41.529   9.295   4.673
77928W        W46269   5.234  34.507  12.902
77929W        W46270   5.369  27.963  13.910
77930W        W46271   4.741  42.484   0.464
77931W        W46272  23.500  27.609  14.001
77932W        W46273   8.382   3.453  14.955
77933W        W46274  31.618  39.954  12.970
77934W        W46275  15.263  22.179  14.821
77935W        W46276   9.200   9.690  10.495
77936W        W46277  29.637   7.865  14.857
77937W        W46278   2.740  41.525  12.895
77938W        W46279  27.178  17.726  11.886
77939W        W46280  44.484   6.688  13.367
77940W        W46281  24.131  44.856   2.233
77941W        W46282  37.065  11.353   1.889
77942W        W46283   5.838   8.735   1.919
77943W        W46284  38.929  32.450   4.223
77944W        W46285  15.293   8.792  13.030
77945W        W46286  20.190  25.493   1.812
77946W        W46287  10.643   9.711  12.970
77947W        W46288   7.415  12.625   1.260
77948W        W46289   2.863  37.525   1.932
77949W        W46290  17.168  14.801  13.509
77950W        W46291  13.318  39.394   0.319
77951W        W46292   0.448  34.557   2.367
77952W        W46293   5.922  21.048  12.899
77953W        W46294  33.483  18.632  13.441
77954W        W46295  34.477  25.141  14.329
77955W        W46296  35.079  44.303  12.924
77956W        W46297  11.317   7.372   4.221
77957W        W46298   5.808   2.463  12.019
77958W        W46299   9.239   4.309   2.827
77959W        W46300  29.485  27.067   4.168
77960W        W46301  28.158  44.439  10.643
77961W        W46302  30.994  26.974  11.416
77962W        W46303   4.328  29.562  13.382
77963W        W46304  18.660  41.319   9.973
77964W        W46305  28.064  38.819   3.804
77965W        W46306  27.130  38.358  14.857
77966W        W46307  43.869  25.512  14.763
77967W        W46308   3.381   8.237   1.333
77968W        W46309  32.892  24.979   1.843
77969W        W46310  22.621  11.348   2.347
77970W        W46311  18.722  26.185   1.842
77971W        W46312   7.791   5.900  10.955
77972W        W46313   1.256  31.506   0.316
77973W        W46314  20.071   6.912  12.579
77974W        W46315  20.672   7.315   4.611
77975W        W46316  35.991  19.255  14.812
77976W        W46317   2.841  14.308   0.293
77977W        W46318   4.437  15.187   2.744
77978W        W46319  28.073   4.747  11.914
77979W        W46320   3.733  39.836  11.585
77980W        W46321  28.642   5.435  13.802
77981W        W46322  15.092  36.870   3.670
77982W        W46323  28.129  20.108   3.802
77983W        W46324  30.148  34.899   0.288
77984W        W46325  18.121  33.073  10.940
77985W        W46326  42.442  13.298  14.343
77986W        W46327  44.953  25.607  12.986
77987W        W46328  40.897  21.675  13.475
77988W        W46329  27.578  19.571   0.851
77989W        W46330  32.142  44.901  11.404
77990W        W46331  15.760  42.025  12.399
77991W        W46332   8.887   8.401   2.858
77992W        W46333  43.840  21.027   9.544
77993W        W46334  28.958   1.357   0.967
77994W        W46335  17.125   2.405  11.925
77995W        W46336  20.035  15.262  10.461
77996W        W46337  16.744  25.170   1.296
77997W        W46338  39.475  38.949   4.202
77998W        W46339   2.345  36.351   3.782
77999W        W46340  24.720  19.671   4.822
78000W        W46341   2.863  29.143   3.237
78001W        W46342  33.034   5.306   4.694
78002W        W46343  30.036  33.125   4.142
78003W        W46344  15.625  28.069   1.918
78004W        W46345  42.298  16.659  14.824
78005W        W46346   4.225   7.238   1.308
78006W        W46347   7.305  30.022   1.849
78007W        W46348  17.582  41.911   0.394
78008W        W46349   8.850  13.154  12.925
78009W        W46350   0.378  25.964   1.766
78010W        W46351  11.705   4.751   3.746
78011W        W46352  10.190  33.551  10.960
78012W        W46353  38.390  14.105   2.733
78013W        W46354   2.431  10.378  14.024
78014W        W46355  19.213  13.136   4.817
78015W        W46356   9.222  39.809  14.438
78016W        W46357  36.903  24.032   3.343
78017W        W46358   1.277  24.528  11.091
78018W        W46359  13.845  18.137   0.727
78019W        W46360  21.732  39.812  13.405
78020W        W46361  38.477  10.646   2.204
78021W        W46362  20.207  16.177  10.999
78022W        W46363   0.944  15.645   4.716
78023W        W46364  19.539  22.158   2.377
78024W        W46365  23.017  28.481  11.462
78025W        W46366  32.557  10.249  12.386
78026W        W46367  35.367   2.894  14.854
78027W        W46368  22.597  26.178   0.305
78028W        W46369  31.969  44.924   3.310
78029W        W46370  37.035  41.906   3.327
78030W        W46371  10.262  18.664   1.347
78031W        W46372  29.991  42.361  11.905
78032W        W46373   0.797  29.620   2.387
78033W        W46374  38.887  28.144  12.078
78034W        W46375  27.152  12.723  11.127
78035W        W46376  12.211  14.715   2.278
78036W        W46377   5.244  26.979   1.326
78037W        W46378  29.125  39.013  11.108
78038W        W46379  43.984  23.736  14.361
78039W        W46380  30.529   8.778  12.550
78040W        W46381   6.311   6.797   1.278
78041W        W46382  15.133  21.660  10.464
78042W        W46383  21.591  12.329  12.380
78043W        W46384  21.643   6.363  14.967
78044W        W46385  42.460   2.350   1.411
78045W        W46386  12.774  44.268  13.886
78046W        W46387  31.598  43.768  14.934
78047W        W46388  42.372  14.310   1.718
78048W        W46389  19.543  12.315  12.970
78049W        W46390  13.162  44.468  12.451
78050W        W46391  15.136   0.338   2.662
78051W        W46392  35.964  27.652  11.093
78052W        W46393  15.171  29.498  10.542
78053W        W46394  33.429   4.394   4.316
78054W        W46395  18.638  35.058  10.518
78055W        W46396  35.439  40.986   0.419
78056W        W46397   7.381  28.629   3.253
78057W        W46398  22.525  29.546  12.899
78058W        W46399  29.437   5.364   4.620
78059W        W46400  28.092  36.391   2.787
78060W        W46401   9.685  20.693   3.343
78061W        W46402  42.497  27.081  12.886
78062W        W46403  30.639  16.616  10.611
78063W        W46404  17.660  30.482   3.283
78064W        W46405  15.225  43.284  12.563
78065W        W46406   4.306   0.352   1.385
78066W        W46407  14.211   6.201  12.457
78067W        W46408   5.433  31.990   1.335
78068W        W46409  29.968  44.977  12.469
78069W        W46410  20.617   1.740   3.173
78070W        W46411  10.702  22.603  14.319
78071W        W46412   8.680  10.799   4.328
78072W        W46413   6.858   7.402  12.422
78073W        W46414  30.478  39.341   4.121
78074W        W46415  10.300  44.290  11.471
78075W        W46416  12.817  44.448   4.343
78076W        W46417  24.995  18.757  10.571
78077W        W46418  22.028  32.088   3.786
78078W        W46419  39.522  40.904   1.769
78079W        W46420  14.814  34.079  13.048
78080W        W46421  11.758  44.349   2.316
78081W        W46422  38.820  41.532  12.462
78082W        W46423   8.886  15.194   1.700
78083W        W46424  24.987  43.997   4.246
78084W        W46425  24.062  40.399  10.559
78085W        W46426  15.119  22.171   5.662
78086W        W46427  31.455  14.734   1.934
78087W        W46428  10.157   4.427   0.963
78088W        W46429  29.030  30.475   0.254
78089W        W46430   7.844   2.810  10.896
78090W        W46431  17.564  40.869   4.603
78091W        W46432  32.983  42.031   2.271
78092W        W46433  24.041   0.962  14.881
78093W        W46434  44.303  12.331   1.432
78094W        W46435   0.981   4.778   1.788
78095W        W46436  26.099  27.566  10.527
78096W        W46437  24.500  34.603  11.006
78097W        W46438   4.758  15.810  12.356
78098W        W46439  35.430  18.637   4.698
78099W        W46440  28.186  37.915   4.137
78100W        W46441  29.046  44.846   1.445
78101W        W46442   9.877  23.173  14.887
78102W        W46443  24.010  43.005   2.723
78103W        W46444  17.773  40.930  13.544
78104W        W46445  32.467  29.954  14.362
78105W        W46446  44.356  27.508   0.365
78106W        W46447  31.442   1.930   3.653
78107W        W46448  30.545  31.544  13.049
78108W        W46449  20.158  25.581  13.018
78109W        W46450  10.838  39.508   0.733
78110W        W46451  42.913  31.620  13.520
78111W        W46452   7.670  16.112  13.407
78112W        W46453  44.802  26.138  10.416
78113W        W46454  40.346  42.379   0.310
78114W        W46455  10.314  23.227   3.826
78115W        W46456   7.695  36.037   0.345
78116W        W46457  10.321   1.465  11.909
78117W        W46458  29.093  23.073  12.405
78118W        W46459  37.050  38.981  10.901
78119W        W46460  13.164  14.643  12.853
78120W        W46461  37.417   9.864   1.374
78121W        W46462   5.225   3.437   4.667
78122W        W46463  42.342  42.862  14.909
78123W        W46464  11.220   6.378   3.335
78124W        W46465   9.212  15.800  14.759
78125W        W46466  25.083  19.042  10.097
78126W        W46467  18.150  23.027   4.194
78127W        W46468   5.312  36.086   4.769
78128W        W46469  43.866  37.862  10.895
78129W        W46470  18.760  20.092   2.735
78130W        W46471  20.767   9.179  12.997
78131W        W46472  31.487  37.847  10.417
78132W        W46473   0.396   6.842  11.475
78133W        W46474  38.008  24.628   0.306
78134W        W46475  24.983  20.549  12.429
78135W        W46476  22.608  33.094   4.802
78136W        W46477  43.903   4.222  11.017
78137W        W46478  13.144  36.881   0.817
78138W        W46479  34.892  43.979  13.891
78139W        W46480  27.073  29.531   2.182
78140W        W46481   0.897  18.240   2.802
78141W        W46482  11.307  36.366   2.768
78142W        W46483  19.615  38.496  14.378
78143W        W46484  19.048  43.344   1.852
78144W        W46485  34.899  40.504   0.416
78145W        W46486  16.203  10.710   1.348
78146W        W46487  37.545  27.542  14.788
78147W        W46488  35.480  26.056   0.857
78148W        W46489  19.188   7.348  13.977
78149W        W46490  35.995  25.171   3.758
78150W        W46491  36.096  19.061   4.760
78151W        W46492  22.180  10.826  14.792
78152W        W46493  44.282  27.470   1.865
78153W        W46494  18.129  37.895   1.702
78154W        W46495  44.829  28.598   1.898
78155W        W46496  28.055  39.021   2.715
78156W        W46497  19.121  12.300   4.328
78157W        W46498  26.184  12.306   3.311
78158W        W46499   4.381  34.058   2.294
78159W        W46500  24.479   3.844   0.482
78160W        W46501  24.587   2.752   3.155
78161W        W46502  30.559  16.242   0.727
78162W        W46503  21.618   2.871   4.188
78163W        W46504   0.955  22.608   4.126
78164W        W46505   5.924  28.088  11.430
78165W        W46506  25.661  26.126   4.269
78166W        W46507  11.345   5.823   3.825
78167W        W46508  21.576  21.167  11.590
78168W        W46509  30.462   1.282  12.557
78169W        W46510  34.078  14.810   1.815
78170W        W46511  17.596  29.078   2.352
78171W        W46512  25.172  17.679  12.880
78172W        W46513  34.497  16.117  14.315
78173W        W46514   8.398   1.362  14.944
78174W        W46515  15.208  42.777  13.927
78175W        W46516  31.021  37.534   2.753
78176W        W46517  25.473   0.854   4.616
78177W        W46518  35.082  28.117  13.891
78178W        W46519  38.048  14.598   4.144
78179W        W46520   1.255  28.681  10.597
78180W        W46521  40.019  41.319  12.999
78181W        W46522  34.037  42.007   4.756
78182W        W46523   7.230  23.180  13.917
78183W        W46524  16.758  27.008   1.288
78184W        W46525  33.952  38.531   2.714
78185W        W46526  40.859  32.939  13.345
78186W        W46527  37.542   3.726   3.729
78187W        W46528  42.507  38.043  14.868
78188W        W46529   3.783   1.319   3.215
78189W        W46530  37.574   3.841  10.938
78190W        W46531  17.229  10.207  10.154
78191W        W46532  22.648  36.476  10.116
78192W        W46533  25.621  37.428   0.323
78193W        W46534  29.032  25.988  11.521
78194W        W46535   3.246   7.838   2.361
78195W        W46536  32.102  14.266  10.460
78196W        W46537  42.895  25.490  13.943
78197W        W46538  19.217   9.296   4.604
78198W        W46539  19.544  40.541  13.917
78199W        W46540   9.671  16.716   3.186
78200W        W46541  33.952  17.661   3.858
78201W        W46542   2.875  38.981   3.319
78202W        W46543   8.178  10.674  10.955
78203W        W46544  11.724   9.343   0.445
78204W        W46545  33.935   5.908   2.750
78205W        W46546   5.789   0.297   1.793
78206W        W46547  37.968  10.860  12.573
78207W        W46548  20.140   6.333  14.892
78208W        W46549   9.216  29.115  12.998
78209W        W46550  32.018  11.290  13.042
78210W        W46551  10.751  16.247   2.851
78211W        W46552  40.474  41.431   2.317
78212W        W46553  27.605   6.271  13.338
78213W        W46554   2.765  36.375  12.444
78214W        W46555  41.828   4.769  11.026
78215W        W46556  34.407  27.449   0.463
78216W        W46557   6.823  16.257   4.680
78217W        W46558  23.493  15.298   3.849
78218W        W46559  22.216  37.859  12.403
78219W        W46560  17.632  24.644  11.923
78220W        W46561   6.379  30.437  13.062
78221W        W46562  13.350  40.036   3.166
78222W        W46563  19.244  18.115  14.941
78223W        W46564  26.623  37.073  11.060
78224W        W46565  41.500  17.754   1.794
78225W        W46566  27.000  35.871   0.827
78226W        W46567   6.251  27.058  11.111
78227W        W46568  44.866  37.059  12.340
78228W        W46569  14.599  39.315  11.990
78229W        W46570  25.706  14.731   1.375
78230W        W46571  39.377  43.463   5.286
78231W        W46572  19.639   4.699   3.163
78232W        W46573   4.830  30.454   2.227
78233W        W46574  17.656  40.352   4.700
78234W        W46575  40.534  25.695  11.471
78235W        W46576   5.278  35.889  13.413
78236W        W46577  25.070  34.060  11.586
78237W        W46578  21.063  19.686   4.241
78238W        W46579  10.666   2.793  12.424
78239W        W46580  40.411  42.454  10.505
78240W        W46581  39.337  26.063  13.859
78241W        W46582  25.024  24.713   4.194
78242W        W46583  31.005  26.122  13.311
78243W        W46584  20.746  19.711  14.964
78244W        W46585   9.181  35.365   3.294
78245W        W46586  22.569  16.112  10.508
78246W        W46587  25.038  18.668   2.813
78247W        W46588   3.364  27.468  10.537
78248W        W46589  13.265   1.844   0.455
78249W        W46590  16.087  25.713   2.353
78250W        W46591  13.243  42.507  14.985
78251W        W46592  12.174   9.774   3.331
78252W        W46593  17.748  39.059   2.275
78253W        W46594  41.382  30.072   0.893
78254W        W46595  25.488   1.378  12.370
78255W        W46596  18.572  32.130   2.367
78256W        W46597  24.189  25.529  13.899
78257W        W46598  31.131  29.059  12.565
78258W        W46599  41.911  12.633   0.892
78259W        W46600  31.577  39.428  10.494
78260W        W46601  31.984  38.920   1.812
78261W        W46602  42.426  28.183  12.906
78262W        W46603  31.507  44.992  13.392
78263W        W46604   2.772  21.192  13.503
78264W        W46605  28.455  39.985   4.786
78265W        W46606   6.689  16.581   2.377
78266W        W46607  38.373  34.997  14.998
78267W        W46608  27.022   8.799  10.925
78268W        W46609  25.159  28.500   2.411
78269W        W46610  37.550  21.027  11.568
78270W        W46611  42.865   1.256  12.003
78271W        W46612  33.425  37.451  10.482
78272W        W46613  44.785  19.163   2.398
78273W        W46614  25.208   8.331  13.960
78274W        W46615  24.651  41.462  14.893
78275W        W46616  31.100  30.438  10.623
78276W        W46617   5.346  25.091   2.263
78277W        W46618  29.102  21.707  12.879
78278W        W46619  37.410  24.209  14.910
78279W        W46620  30.973  18.162   3.632
78280W        W46621  15.319  30.101  13.464
78281W        W46622  18.277  34.954   1.796
78282W        W46623  35.034   3.730  13.532
78283W        W46624  15.277  19.069   2.395
78284W        W46625  36.062  22.593  13.794
78285W        W46626   7.680  32.005  11.995
78286W        W46627  38.460  12.759   4.351
78287W        W46628  20.052  17.794  13.914
78288W        W46629   9.256  44.990   0.789
78289W        W46630  23.181  43.320  11.468
78290W        W46631   8.882   6.885   0.472
78291W        W46632  40.461  30.420  10.017
78292W        W46633  26.465  10.202   5.311
78293W        W46634  11.806  26.049  13.807
78294W        W46635   3.248  14.689   1.240
78295W        W46636   7.318  37.011  14.811
78296W        W46637   3.225  14.330   0.248
78297W        W46638  18.128  23.120  10.566
78298W        W46639  26.960  24.668   0.432
78299W        W46640  34.906   8.741   4.661
78300W        W46641  25.065   3.303   3.636
78301W        W46642  24.489   3.804  12.380
78302W        W46643  42.776   8.171  11.079
78303W        W46644  11.344   4.937   0.403
78304W        W46645   3.817  43.303  11.399
78305W        W46646  25.481  10.159  11.113
78306W        W46647  12.642  12.792   4.283
78307W        W46648  34.387  34.530   1.226
78308W        W46649  39.436  13.345  13.957
78309W        W46650  12.691   1.339   4.257
78310W        W46651  25.975  41.830  13.374
78311W        W46652  11.339  16.721  14.880
78312W        W46653  28.659  16.217  14.378
78313W        W46654  12.637   8.238   3.247
78314W        W46655   4.839  42.458   3.272
78315W        W46656  40.523  37.555   2.186
78316W        W46657   4.810  26.067  13.012
78317W        W46658  24.621  44.968   2.718
78318W        W46659  19.206  17.124   4.323
78319W        W46660  32.933   8.358   2.871
78320W        W46661   7.404  10.726  14.792
78321W        W46662  36.941  14.703  13.481
78322W        W46663  28.616  10.380   2.335
78323W        W46664  29.001  10.766   0.844
78324W        W46665  35.433  36.427  12.477
78325W        W46666   4.286  15.724   0.334
78326W        W46667  27.658   0.483   2.221
78327W        W46668  44.790  20.189  11.878
78328W        W46669  42.982  34.442   1.711
78329W        W46670  31.446   8.686  12.987
78330W        W46671  13.618  17.090   0.872
78331W        W46672  37.391  14.767  12.847
78332W        W46673  17.756   1.805  14.914
78333W        W46674   2.421  31.624   2.724
78334W        W46675   0.960  33.066   2.351
78335W        W46676  40.971   3.336  12.577
78336W        W46677  21.627  42.987   3.367
78337W        W46678  14.118  33.052  14.011
78338W        W46679  34.951  21.110  14.436
78339W        W46680  32.447  19.625  10.600
78340W        W46681  19.282  16.638   4.637
78341W        W46682  22.234   2.322  13.369
78342W        W46683  13.135   1.959   3.816
78343W        W46684  44.502  18.645  10.605
78344W        W46685   5.717  41.354   1.858
78345W        W46686  24.599  29.436  11.056
78346W        W46687  32.056  38.025   0.767
78347W        W46688  29.539  22.148  12.069
78348W        W46689  14.326  19.719   2.286
78349W        W46690   4.827  27.996   3.856
78350W        W46691  22.111  44.806   1.781
78351W        W46692  13.149  36.416  11.863
78352W        W46693  10.232  38.963   1.929
78353W        W46694  34.072  30.112   1.255
78354W        W46695  36.576  32.924  13.510
78355W        W46696  17.143  16.318   2.412
78356W        W46697   9.657  20.088  13.349
78357W        W46698   3.414  33.030   3.837
78358W        W46699  19.120  17.668   2.796
78359W        W46700   7.736  18.210   0.332
78360W        W46701  13.193  18.605   3.180
78361W        W46702  32.503  17.186  13.317
78362W        W46703  16.723  14.660  11.439
78363W        W46704   9.159  41.369   0.473
78364W        W46705  30.481   3.796  11.880
78365W        W46706   3.360  26.957  13.339
78366W        W46707  30.570  35.495   1.362
78367W        W46708  27.132  33.932  13.544
78368W        W46709  26.582  12.717   4.782
78369W        W46710  10.333  15.730  14.024
78370W        W46711   0.350   6.414   4.254
78371W        W46712   0.750   1.851   2.284
78372W        W46713  25.603  11.761   1.758
78373W        W46714   0.404  27.979   4.309
78374W        W46715  27.960  24.068   4.268
78375W        W46716  16.208  15.743  13.443
78376W        W46717  31.985   3.303   4.621
78377W        W46718  42.032  36.081   4.710
78378W        W46719   0.396  24.587   2.793
78379W        W46720  36.452  30.986  13.808
78380W        W46721  27.463  18.566  13.051
78381W        W46722  41.323  28.161   0.758
78382W        W46723  42.301  16.665  10.643
78383W        W46724   9.167   3.723   4.738
78384W        W46725   2.723   5.874  11.924
78385W        W46726   3.243  35.091  14.470
78386W        W46727  23.087  44.482   2.343
78387W        W46728  28.129  37.031   2.300
78388W        W46729  37.075  12.149   4.810
78389W        W46730  15.726   0.442   2.694
78390W        W46731  16.684   0.271   2.860
78391W        W46732  26.489  31.513   2.885
78392W        W46733  16.601  12.843  13.920
78393W        W46734  27.160   1.479  14.504
78394W        W46735  31.906  18.250  12.084
78395W        W46736  15.715  14.689  14.935
78396W        W46737  31.918   5.416   3.759
78397W        W46738  17.786  26.960  12.038
78398W        W46739  28.471  32.475   0.305
78399W        W46740  33.425  22.227   2.266
78400W        W46741   0.886  30.480  11.868
78401W        W46742  16.696  18.741   1.368
78402W        W46743  24.082   9.232   0.951
78403W        W46744  11.163   7.352   0.442
78404W        W46745  35.385  30.056  13.034
78405W        W46746  14.324  29.424   3.348
78406W        W46747  10.349  37.453   3.340
78407W        W46748   3.833  35.568  11.890
78408W        W46749  13.607  42.903  10.464
78409W        W46750  41.427  20.142  11.585
78410W        W46751   5.919  25.562  11.998
78411W        W46752  34.418  23.043  13.395
78412W        W46753  20.117  13.762   2.882
78413W        W46754   2.725  39.018   2.815
78414W        W46755  29.967  12.173  14.877
78415W        W46756  36.950  19.161  14.963
78416W        W46757  16.625  24.156  14.864
78417W        W46758  44.429  31.545  11.389
78418W        W46759  18.200   4.702  12.498
78419W        W46760   3.259  44.333  14.315
78420W        W46761  30.962   3.361   9.933
78421W        W46762  13.628  32.517  13.400
78422W        W46763  10.761  39.978  11.535
78423W        W46764  28.145  20.523   1.342
78424W        W46765  15.722  40.049   3.292
78425W        W46766  27.140  32.032  11.465
78426W        W46767  41.803  43.857  10.481
78427W        W46768   8.398  41.994  13.888
78428W        W46769  12.786  42.518  13.374
78429W        W46770  42.978  11.718   0.346
78430W        W46771  17.204  14.758  14.445
78431W        W46772   7.323  38.990  11.558
78432W        W46773   2.747  10.769  12.463
78433W        W46774  38.360  10.279  12.517
78434W        W46775  39.541  41.403  14.309
78435W        W46776  12.278  34.586  11.576
78436W        W46777  11.198  44.767  11.600
78437W        W46778   7.723  12.837   2.254
78438W        W46779  24.694  28.619  14.967
78439W        W46780  37.983   8.265   3.752
78440W        W46781   4.204   6.864  13.377
78441W        W46782  16.248  33.011   3.659
78442W        W46783  25.145  36.522  13.041
78443W        W46784  17.699  40.966   0.773
78444W        W46785  43.008  16.166   2.700
78445W        W46786  39.498  31.105  14.772
78446W        W46787  10.234   5.368   4.327
78447W        W46788  42.308  28.172   3.677
78448W        W46789   8.670  28.159   4.182
78449W        W46790  20.174  33.894  12.493
78450W        W46791  35.518  12.120   0.880
78451W        W46792  24.646  30.979  13.462
78452W        W46793  37.045  36.405  13.525
78453W        W46794  33.589  35.472   2.890
78454W        W46795   5.363  22.633  12.568
78455W        W46796  26.512  22.143   4.163
78456W        W46797  16.240  17.140   1.800
78457W        W46798  23.679   5.196  13.517
78458W        W46799   6.263  14.652  13.806
78459W        W46800  22.029  30.642   4.136
78460W        W46801  39.898  11.669  12.440
78461W        W46802  44.329  35.468  12.947
78462W        W46803  10.279  27.495   2.884
78463W        W46804   5.392  17.703  10.446
78464W        W46805  23.183  10.769   4.120
78465W        W46806  33.887  30.657  12.967
78466W        W46807  25.709  37.373   4.345
78467W        W46808  23.656   6.710   2.347
78468W        W46809  21.150   7.827   5.319
78469W        W46810   9.332  30.653   2.376
78470W        W46811  32.968   2.229   2.182
78471W        W46812  21.526  22.011  14.871
78472W        W46813  40.009  42.520   5.084
78473W        W46814  42.411  44.821   2.706
78474W        W46815  39.460  19.542  11.894
78475W        W46816  35.863   3.459   1.351
78476W        W46817  44.864  29.990  13.051
78477W        W46818  20.689  13.817  14.795
78478W        W46819  27.963  40.539  10.432
78479W        W46820   1.388  37.903  13.910
78480W        W46821  43.359  12.233  10.539
78481W        W46822  26.671   0.757  12.043
78482W        W46823  38.409   5.791   0.945
78483W        W46824   3.315  18.279  11.528
78484W        W46825  26.142  24.571  11.113
78485W        W46826  39.936  23.706   2.397
78486W        W46827  29.544  26.033   2.704
78487W        W46828  26.650   5.707   0.839
78488W        W46829   8.713   8.224  11.452
78489W        W46830   1.774  29.441   2.790
78490W        W46831   3.948   7.232  13.836
78491W        W46832   3.343   7.891   0.407
78492W        W46833  30.134   4.835   1.439
78493W        W46834  38.973   1.477  14.898
78494W        W46835  30.515  31.505   1.337
78495W        W46836  27.149  14.791   4.325
78496W        W46837   2.457  22.516  14.297
78497W        W46838  43.380  36.365   1.213
78498W        W46839   5.397  27.052  11.482
78499W        W46840  23.054  25.081  13.518
78500W        W46841  16.696   2.770  11.077
78501W        W46842  17.149  42.422  12.025
78502W        W46843  15.736  24.530  12.889
78503W        W46844  26.594  33.984  11.053
78504W        W46845  19.066  44.502  14.938
78505W        W46846  22.100   6.811  12.453
78506W        W46847   0.757  30.053  10.470
78507W        W46848  29.512  10.755   2.333
78508W        W46849  38.392  19.573  11.419
78509W        W46850  31.124  41.035   4.813
78510W        W46851   0.790  33.525   3.739
78511W        W46852  19.083  37.550   3.312
78512W        W46853  26.996  44.385   4.167
78513W        W46854  26.525  42.494   3.239
78514W        W46855  32.928  24.113  11.114
78515W        W46856  19.533  16.214  10.457
78516W        W46857  23.730   7.276  14.847
78517W        W46858   5.839  21.095  14.809
78518W        W46859  25.125   5.782  12.005
78519W        W46860  13.601  19.601  10.984
78520W        W46861  41.985  32.441  13.385
78521W        W46862  41.913  24.524  11.504
78522W        W46863   6.753  28.025   2.778
78523W        W46864  17.573  35.558   4.176
78524W        W46865  24.556  42.291   0.333
78525W        W46866  39.994  20.566   4.791
78526W        W46867  36.853  21.556  10.525
78527W        W46868  15.770  36.436   3.808
78528W        W46869  40.834  33.416  10.535
78529W        W46870  28.009  25.512   0.883
78530W        W46871  11.734  29.504   2.189
78531W        W46872  40.337  27.540  12.424
78532W        W46873  19.539   1.255  14.896
78533W        W46874   3.811  10.799   2.321
78534W        W46875   2.352  43.458   4.155
78535W        W46876  25.485  44.389  10.957
78536W        W46877   7.397  39.937   2.811
78537W        W46878  33.528  21.512  13.363
78538W        W46879  19.547  14.327  13.523
78539W        W46880  34.574  28.498   4.622
78540W        W46881  38.489  18.790   3.749
78541W        W46882   6.353  13.274  11.097
78542W        W46883  12.653  14.289   1.922
78543W        W46884  42.503  20.186   0.799
78544W        W46885  12.228  20.577   0.399
78545W        W46886  18.247  26.983  10.487
78546W        W46887  11.221   5.818  14.982
78547W        W46888  20.732  42.908   2.194
78548W        W46889  28.504  18.226   1.821
78549W        W46890  36.428  16.724  13.462
78550W        W46891  29.133  12.701  10.630
78551W        W46892  21.630  24.693  14.828
78552W        W46893  10.783  32.616  14.893
78553W        W46894   8.898  23.669  11.878
78554W        W46895  39.986  30.510  13.986
78555W        W46896   8.721   5.375   0.375
78556W        W46897  37.970  15.619   4.123
78557W        W46898  36.568  41.340  13.474
78558W        W46899  35.442  23.498   4.309
78559W        W46900  33.462  42.424  12.379
78560W        W46901  29.144  32.949   0.264
78561W        W46902  43.396   9.795   3.796
78562W        W46903   2.914   4.938   2.396
78563W        W46904   9.684  40.860  14.785
78564W        W46905  28.647  15.633   5.166
78565W        W46906   7.197  27.191   2.843
78566W        W46907   1.762  21.254  12.457
78567W        W46908   5.323  14.285   2.884
78568W        W46909   1.478  25.156   4.731
78569W        W46910   3.828  11.325  11.081
78570W        W46911  19.128  41.476  14.829
78571W        W46912  26.079  37.564   2.339
78572W        W46913  12.765  35.039   2.190
78573W        W46914  22.536  13.616   9.928
78574W        W46915   7.723  13.246   3.251
78575W        W46916  26.144  16.747  10.953
78576W        W46917  30.004  10.764   4.749
78577W        W46918  32.905   5.233   1.446
78578W        W46919  22.695  29.656  10.524
78579W        W46920  32.620  36.960   2.342
78580W        W46921  35.086  34.592   3.261
78581W        W46922   0.747  11.346  12.087
78582W        W46923   2.866  32.133   4.352
78583W        W46924   0.454  25.633   3.729
78584W        W46925  22.119  36.492   2.307
78585W        W46926   7.417   4.756   2.740
78586W        W46927   3.812  43.930  14.358
78587W        W46928   9.755  21.603   1.927
78588W        W46929   6.835  13.778  13.480
78589W        W46930  30.648   6.276  14.361
78590W        W46931  23.166  17.075  11.555
78591W        W46932   2.778  34.954  13.369
78592W        W46933   2.770   3.326  10.469
78593W        W46934  39.903  14.625  14.394
78594W        W46935   6.228  33.623  12.455
78595W        W46936   7.759  11.342   1.917
78596W        W46937  39.515  32.543  12.073
78597W        W46938  30.614  16.220  11.869
78598W        W46939   2.864  43.476   3.379
78599W        W46940  14.808  14.176  12.393
78600W        W46941  37.553  23.706  12.029
78601W        W46942   3.736  37.994   4.705
78602W        W46943  14.202  21.165  11.922
78603W        W46944   1.259  27.166   4.165
78604W        W46945   2.329  44.349   4.159
78605W        W46946  31.460   2.368  11.042
78606W        W46947   3.227  37.555  12.452
78607W        W46948  13.777  43.788  14.879
78608W        W46949  16.705  43.773  10.888
78609W        W46950   7.703   0.319  12.870
78610W        W46951  30.071  22.241  14.940
78611W        W46952  26.685  44.840   1.864
78612W        W46953   6.881  27.041   0.966
78613W        W46954  43.277  43.948   1.256
78614W        W46955   6.877  28.086   3.207
78615W        W46956   8.657  29.994   1.386
78616W        W46957  11.643  37.368   3.162
78617W        W46958  21.201  18.642   4.231
78618W        W46959  11.340  29.669   4.181
78619W        W46960  28.133  15.686  11.610
78620W        W46961  22.185  36.094  11.568
78621W        W46962   0.752  20.650   3.271
78622W        W46963  21.096  16.286  10.639
78623W        W46964  10.782  30.539  11.470
78624W        W46965  40.307  18.120  12.414
78625W        W46966  32.582  20.719   3.758
78626W        W46967  18.645  21.159   1.728
78627W        W46968  41.901   7.902  12.544
78628W        W46969  14.600  17.213   2.283
78629W        W46970  38.077  21.696   0.317
78630W        W46971   5.903  29.997   2.301
78631W        W46972  26.616   5.860  13.036
78632W        W46973  31.978   1.864   1.266
78633W        W46974  20.043  25.202  13.960
78634W        W46975  38.480   2.790  13.816
78635W        W46976  41.867  11.715  12.970
78636W        W46977   6.391  13.691  14.777
78637W        W46978   5.704  30.108   4.818
78638W        W46979  27.564  20.760  12.535
78639W        W46980  10.664  33.962  12.526
78640W        W46981  24.229  10.332  11.972
78641W        W46982  14.214  43.856  14.502
78642W        W46983  24.566  41.410   4.780
78643W        W46984  16.206  16.271  12.457
78644W        W46985  20.610   7.342   2.248
78645W        W46986  32.024  13.804   4.207
78646W        W46987  14.192  11.141   1.448
78647W        W46988  26.050  25.701   1.285
78648W        W46989  41.997  30.089  13.930
78649W        W46990  19.569  33.445   3.200
78650W        W46991  34.879   4.780   3.809
78651W        W46992   4.941  24.632  13.893
78652W        W46993  27.140  26.468  14.991
78653W        W46994   2.961  10.692  14.482
78654W        W46995  31.998  18.142   2.362
78655W        W46996  18.742   1.885   1.243
78656W        W46997   8.777  24.610  13.341
78657W        W46998  12.649  25.963   0.871
78658W        W46999  36.077  10.768  14.970
78659W        W47000  18.639   0.281   2.844
78660W        W47001  35.988  20.126  11.052
78661W        W47002  20.610  23.096   1.740
78662W        W47003  38.445  14.717  12.555
78663W        W47004   9.657  24.117   2.231
78664W        W47005  26.043   6.230  13.800
78665W        W47006  30.624  35.904   0.355
78666W        W47007  12.192  44.001   4.824
78667W        W47008  11.219  22.526  11.941
78668W        W47009  38.864  29.999  13.895
78669W        W47010  12.659   4.883   2.841
78670W        W47011  19.589  18.272  11.603
78671W        W47012   2.237  32.086   2.798
78672W        W47013  38.545   8.398  12.359
78673W        W47014  19.109   2.961   3.828
78674W        W47015  33.035  10.876   4.638
78675W        W47016  33.095   6.867  14.463
78676W        W47017  38.050  35.053   4.719
78677W        W47018  35.397  29.507  10.959
78678W        W47019  12.236  19.240   0.330
78679W        W47020  29.056   4.252   2.755
78680W        W47021  42.844  33.033   1.704
78681W        W47022   5.325  37.396   2.221
78682W        W47023  32.043  29.595   1.915
78683W        W47024   0.766  38.463  10.604
78684W        W47025   8.811   4.286  14.320
78685W        W47026  10.226  23.179  13.928
78686W        W47027  42.465  36.083  12.394
78687W        W47028  24.226   7.850   3.756
78688W        W47029  23.170  32.615   0.787
78689W        W47030  15.223  24.686   1.431
78690W        W47031  30.044  19.264  11.975
78691W        W47032  44.331  22.634   5.270
78692W        W47033  15.324  12.725  12.036
78693W        W47034  20.648  41.333  10.616
78694W        W47035  40.919  24.684   3.722
78695W        W47036  32.987  13.306  14.840
78696W        W47037   3.266  17.218   5.719
78697W        W47038  10.632  34.612   0.735
78698W        W47039  20.626  27.664  13.469
78699W        W47040  25.016  44.367   2.756
78700W        W47041  25.218  18.576   0.920
78701W        W47042  27.126  14.241  12.823
78702W        W47043  20.542   4.725  13.398
78703W        W47044  15.268  30.565  12.355
78704W        W47045  14.661  28.977   0.327
78705W        W47046  42.002  42.920  11.028
78706W        W47047  43.833  14.317   0.876
78707W        W47048  34.512  26.171   0.454
78708W        W47049  43.899   9.319   4.720
78709W        W47050  40.379  21.199   4.644
78710W        W47051   5.898  20.637  13.807
78711W        W47052  26.951  17.568   2.226
78712W        W47053   6.384   6.307  10.570
78713W        W47054  14.776  24.186  11.079
78714W        W47055  26.023  21.537  11.951
78715W        W47056  34.991  25.529   3.317
78716W        W47057  14.300  21.173  13.878
78717W        W47058   7.762  44.950  10.924
78718W        W47059  19.660  38.340   3.296
78719W        W47060  20.549  37.556   4.345
78720W        W47061  25.038  39.914   1.343
78721W        W47062   0.743   6.802   3.807
78722W        W47063   3.900  33.546  13.387
78723W        W47064  37.876   2.724  10.547
78724W        W47065  40.865  36.011   2.244
78725W        W47066  12.261  40.888   5.586
78726W        W47067  17.776  22.017   4.183
78727W        W47068  24.704   5.276  12.465
78728W        W47069   4.732  14.099  14.351
78729W        W47070  33.903   7.360  13.504
78730W        W47071  42.377   8.319  14.288
78731W        W47072  16.640  10.781  14.428
78732W        W47073  25.097  41.425   2.888
78733W        W47074  18.742   8.820  14.480
78734W        W47075  18.716  30.573   5.262
78735W        W47076  12.718  43.876   1.310
78736W        W47077  11.348  25.623  12.092
78737W        W47078  16.114  40.803   2.787
78738W        W47079  14.667  24.554  14.007
78739W        W47080   9.745   7.750  11.965
78740W        W47081   8.805   7.777  13.939
78741W        W47082  15.766  16.606   1.716
78742W        W47083  16.293  23.121  11.527
78743W        W47084   7.281   7.313   2.345
78744W        W47085  40.400   7.199  11.531
78745W        W47086  17.142  13.803   1.932
78746W        W47087  31.598   7.834   0.785
78747W        W47088  34.460  25.155   3.171
78748W        W47089  25.607  22.244   3.702
78749W        W47090  27.546  20.567  11.108
78750W        W47091  31.475  16.742  11.544
78751W        W47092  29.449  30.039  11.073
78752W        W47093  21.027  27.681   4.765
78753W        W47094  32.547  28.143  10.136
78754W        W47095  21.028  32.521  14.931
78755W        W47096  35.512   7.805  11.865
78756W        W47097  41.004  38.028   4.669
78757W        W47098   2.463   5.733  13.922
78758W        W47099   6.326  20.547   4.765
78759W        W47100   5.762  30.587   1.828
78760W        W47101  13.612   5.703   4.763
78761W        W47102  29.521  12.129  14.390
78762W        W47103  26.601  43.982   0.846
78763W        W47104  20.669  26.679  10.642
78764W        W47105  31.144  16.271   2.402
78765W        W47106  18.735   0.749   1.857
78766W        W47107  22.221  22.161  12.879
78767W        W47108   2.845  34.456   0.450
78768W        W47109  23.223  30.551  11.868
78769W        W47110  30.954  35.368  13.890
78770W        W47111  13.344  24.992   2.377
78771W        W47112  31.419   3.439   0.760
78772W        W47113   4.790   7.307   0.826
78773W        W47114  21.069  15.756   4.334
78774W        W47115   4.704  21.700  12.885
78775W        W47116  21.623  20.543  13.830
78776W        W47117   6.812   2.365  12.095
78777W        W47118  14.328  41.037   1.897
78778W        W47119   7.340  27.595  11.610
78779W        W47120  38.901   9.169  12.449
78780W        W47121   8.224   4.774  13.933
78781W        W47122  25.484   6.375  13.340
78782W        W47123   7.818   5.816   0.950
78783W        W47124  23.126  18.702   3.320
78784W        W47125  23.081  44.418   1.921
78785W        W47126   2.409  14.756  14.851
78786W        W47127  10.864   4.338  13.953
78787W        W47128  36.025  18.168   0.327
78788W        W47129  11.848  20.056  13.410
78789W        W47130  12.686  24.650  13.533
78790W        W47131   3.336  13.129  14.779
78791W        W47132  42.341  23.612   2.720
78792W        W47133  11.721  18.713  14.855
78793W        W47134   1.814  26.558   5.236
78794W        W47135  28.564  35.561  10.902
78795W        W47136  15.194  10.719   0.891
78796W        W47137  20.679  15.135   4.805
78797W        W47138   0.975  25.477   1.304
78798W        W47139  12.652  31.487   4.629
78799W        W47140   6.396   0.479  12.416
78800W        W47141  44.969  22.618  10.932
78801W        W47142   1.481   5.927   2.203
78802W        W47143  33.925  21.087  10.920
78803W        W47144   2.917  30.126  12.036
78804W        W47145  34.899  39.810  12.481
78805W        W47146  16.632  12.288  11.442
78806W        W47147  31.016  20.532  13.012
78807W        W47148  16.724  44.813  10.437
78808W        W47149  42.458  36.012  12.866
78809W        W47150  44.862  36.976  12.086
78810W        W47151  15.724  32.613  10.593
78811W        W47152  11.782  30.154  11.996
78812W        W47153  41.983  40.460   3.255
78813W        W47154  39.478   8.342  10.910
78814W        W47155  29.960   6.891   3.756
78815W        W47156  34.446   9.372  13.045
78816W        W47157  26.616   3.373   9.973
78817W        W47158  38.342  37.024  12.408
78818W        W47159  30.926  39.020   4.619
78819W        W47160  36.868  33.002  11.080
78820W        W47161  34.999  31.457   2.672
78821W        W47162  43.799  20.172  11.968
78822W        W47163  39.812  18.579  10.947
78823W        W47164  31.588   4.361   0.750
78824W        W47165  37.462  10.378  10.913
78825W        W47166  33.071  31.908   1.353
78826W        W47167  21.694   2.875  13.051
78827W        W47168  23.507  42.860  13.054
78828W        W47169  22.746  31.593  10.627
78829W        W47170   7.852  36.425   4.823
78830W        W47171  20.765  44.330   1.354
78831W        W47172  17.751  22.137  11.433
78832W        W47173  37.346  14.250  11.068
78833W        W47174  37.550  13.785  11.857
78834W        W47175  36.045  17.108   5.122
78835W        W47176  43.890  27.447   2.769
78836W        W47177  44.814  32.110  13.852
78837W        W47178  20.055  23.016   2.321
78838W        W47179  10.216  44.916  13.976
78839W        W47180   3.901   2.275   4.349
78840W        W47181  15.740  34.983   9.534
78841W        W47182  29.125   5.384   1.704
78842W        W47183  16.699  18.126  11.063
78843W        W47184  22.214   9.782  14.369
78844W        W47185  36.963   5.709  11.893
78845W        W47186   0.939  13.726   1.281
78846W        W47187  36.367  18.083   4.201
78847W        W47188  27.615  18.661  10.571
78848W        W47189  41.035   3.330   2.410
78849W        W47190   8.316   9.249  14.943
78850W        W47191   2.313  40.815   0.919
78851W        W47192  16.586  21.698  13.431
78852W        W47193   3.910  19.158  11.076
78853W        W47194  29.608  11.701  14.354
78854W        W47195  19.237   0.388   3.690
78855W        W47196   5.739  11.130  11.884
78856W        W47197  39.027  40.529  12.497
78857W        W47198  34.942  38.872  13.814
78858W        W47199  42.316   6.234   1.808
78859W        W47200  33.104  18.283  12.366
78860W        W47201  34.573  44.781   1.382
78861W        W47202   6.293  34.564   3.685
78862W        W47203  36.031   9.839  13.971
78863W        W47204  22.103  17.571   0.465
78864W        W47205  41.472  34.993   2.295
78865W        W47206   4.865   0.317   0.820
78866W        W47207   3.735  22.164  12.580
78867W        W47208  12.149  27.953  12.902
78868W        W47209  10.837  13.643   0.245
78869W        W47210  37.356  16.769   0.268
78870W        W47211  24.572  21.038   5.095
78871W        W47212  32.497  23.144   2.386
78872W        W47213   3.403  23.109  14.815
78873W        W47214   5.418  22.112  14.406
78874W        W47215  30.065  19.087  12.519
78875W        W47216  14.775  32.617   0.828
78876W        W47217   6.797   0.398  14.312
78877W        W47218  30.133  38.833  12.071
78878W        W47219  29.144  42.918  11.413
78879W        W47220  22.154   0.438   0.390
78880W        W47221  11.846  25.162   2.764
78881W        W47222   6.234   5.194   2.178
78882W        W47223  28.095  35.885  13.901
78883W        W47224  19.596   0.423  11.933
78884W        W47225  40.419  44.370   1.855
78885W        W47226  29.428  35.525   4.809
78886W        W47227   3.382  36.461  10.949
78887W        W47228  32.473  14.100  13.030
78888W        W47229   7.760  24.084   0.881
78889W        W47230  32.580  28.667   2.286
78890W        W47231  34.578  21.043   4.343
78891W        W47232  24.572  26.962   2.338
78892W        W47233  26.174  25.091   2.324
78893W        W47234  27.158   1.300   2.403
78894W        W47235  26.177  20.094   4.733
78895W        W47236  32.462  38.037  12.970
78896W        W47237   5.739  37.580  11.581
78897W        W47238  28.994  26.606   0.357
78898W        W47239  39.054  20.058  10.477
78899W        W47240  18.223   0.749   1.354
78900W        W47241   9.176   4.853  14.908
78901W        W47242   2.891  13.193  11.477
78902W        W47243  28.679  10.726  12.971
78903W        W47244  25.653   4.425  13.946
78904W        W47245  16.630  27.031   2.850
78905W        W47246  32.924  28.518  14.367
78906W        W47247  13.654   9.876  12.387
78907W        W47248  13.337  39.861   3.705
78908W        W47249  12.335  21.175   4.603
78909W        W47250  14.805  36.050   1.923
78910W        W47251   1.421   2.459   4.607
78911W        W47252  12.714  38.542   1.790
78912W        W47253   9.168  39.844  12.578
78913W        W47254  32.442  28.534  11.439
78914W        W47255   8.655  35.364   3.155
78915W        W47256  37.940   7.815   1.292
78916W        W47257  36.486  11.834  13.460
78917W        W47258  28.539  12.672  14.898
78918W        W47259  19.657   3.348   0.304
78919W        W47260  34.391  21.033   1.395
78920W        W47261  30.613   0.361   3.188
78921W        W47262  37.530  38.453  12.501
78922W        W47263  28.527  38.939   3.775
78923W        W47264  23.632  38.952  11.864
78924W        W47265   3.729  29.017   4.617
78925W        W47266  39.440  33.954  11.971
78926W        W47267  37.553  31.086   0.951
78927W        W47268  17.203  19.089  14.843
78928W        W47269  40.924  34.599   0.482
78929W        W47270   0.842   6.784  12.823
78930W        W47271  11.195  14.319   0.869
78931W        W47272   7.896  17.085  13.028
78932W        W47273  38.048  15.105  11.424
78933W        W47274  21.114  32.571  13.884
78934W        W47275  14.186  19.110   1.722
78935W        W47276  13.293  29.492  13.471
78936W        W47277  20.552  33.543   4.132
78937W        W47278  42.432  39.328   1.315
78938W        W47279  38.471  20.731  14.418
78939W        W47280  33.382  33.062   0.755
78940W        W47281  42.797  17.776  14.441
78941W        W47282  33.443  16.778   1.423
78942W        W47283  13.200  36.084   0.797
78943W        W47284  40.330  13.712   1.439
78944W        W47285  27.586  29.167  13.895
78945W        W47286   0.828  10.687   2.859
78946W        W47287  33.877  10.338  14.908
78947W        W47288  41.983  38.491   2.315
78948W        W47289  36.520  15.687  11.872
78949W        W47290   7.288  11.622   1.251
78950W        W47291  12.733  32.621   0.396
78951W        W47292  36.484  42.498   0.420
78952W        W47293  25.664  18.571  10.027
78953W        W47294   5.697  11.180   0.837
78954W        W47295  23.008  35.566   1.351
78955W        W47296  19.570  29.427   4.832
78956W        W47297   1.822  15.810  12.445
78957W        W47298  28.641   3.395   3.760
78958W        W47299  28.948   0.452   3.174
78959W        W47300   9.149  38.366  13.409
78960W        W47301  16.769   6.263  10.941
78961W        W47302  19.235  17.143   1.233
78962W        W47303  16.202   0.373   4.278
78963W        W47304  12.838  30.602   2.761
78964W        W47305  28.136  12.738   1.411
78965W        W47306   3.837  15.303   1.827
78966W        W47307  32.120  43.406  12.560
78967W        W47308  40.947   2.241  10.938
78968W        W47309   4.226  15.660   4.800
78969W        W47310  28.987  15.118   3.192
78970W        W47311  20.099  34.585  12.548
78971W        W47312  32.966  33.381  12.845
78972W        W47313  21.735  33.017  11.405
78973W        W47314  10.686   7.903  12.429
78974W        W47315  12.269   4.707  13.943
78975W        W47316  37.580   6.823   4.298
78976W        W47317  43.470  30.466   4.325
78977W        W47318   4.934  43.385   5.114
78978W        W47319   3.276  29.501   0.888
78979W        W47320  39.833  38.370  13.370
78980W        W47321  25.690  14.203   1.861
78981W        W47322   1.324  28.044  13.042
78982W        W47323  36.488  29.975   0.965
78983W        W47324  34.379  22.109   3.759
78984W        W47325  36.869  15.105   2.785
78985W        W47326  12.184  16.686  14.945
78986W        W47327   3.855   8.185   1.355
78987W        W47328  42.816   7.316   1.787
78988W        W47329  37.961   1.949  12.047
78989W        W47330  39.416  26.700   3.164
78990W        W47331  19.056   7.176  13.476
78991W        W47332  26.169  38.039   1.911
78992W        W47333  20.060   5.748   0.864
78993W        W47334   4.710  17.080  13.504
78994W        W47335  16.649  39.003  12.090
78995W        W47336   5.724   2.436   1.213
78996W        W47337  23.079  41.964  11.025
78997W        W47338  40.857   5.226   1.715
78998W        W47339  37.553  16.222  13.891
78999W        W47340  38.427  40.935  10.930
79000W        W47341  30.143  33.885  12.095
79001W        W47342   1.327  27.494  12.515
79002W        W47343  23.194   0.384   4.220
79003W        W47344   8.162  11.355  12.888
79004W        W47345  25.002  23.169   3.829
79005W        W47346  40.902  22.194  11.058
79006W        W47347  30.467  15.783  12.952
79007W        W47348  26.128  32.453   2.404
79008W        W47349  38.436  39.037   3.775
79009W        W47350  19.763  25.548  13.850
79010W        W47351  37.472  17.612   3.275
79011W        W47352  24.082  19.634  11.523
79012W        W47353  40.893   2.838  13.985
79013W        W47354  24.975   0.975  13.396
79014W        W47355   3.863   8.359   4.791
79015W        W47356   6.722  28.060  11.018
79016W        W47357  34.068  12.627  11.861
79017W        W47358  16.077  19.697  11.927
79018W        W47359  25.170  35.007  14.899
79019W        W47360  27.948  22.555  13.468
79020W        W47361  25.105  26.587  10.468
79021W        W47362  22.234  20.246  12.490
79022W        W47363  21.687  37.838   4.776
79023W        W47364  41.857  31.137  10.567
79024W        W47365   5.291  32.984  13.862
79025W        W47366  41.313  35.426   0.963
79026W        W47367  14.325  32.932   0.333
79027W        W47368   5.388  27.007   2.827
79028W        W47369   8.172   3.402   0.753
79029W        W47370  37.881  24.084  12.061
79030W        W47371   5.329  29.167  12.944
79031W        W47372  32.483  35.594   4.141
79032W        W47373  13.105  34.569   3.169
79033W        W47374  37.483   2.962   0.313
79034W        W47375  34.404  20.042   1.354
79035W        W47376  39.847  19.238   4.720
79036W        W47377   7.231  29.515   5.317
79037W        W47378  34.952  21.084  14.955
79038W        W47379  19.733  19.238   3.149
79039W        W47380  12.240  26.645  11.590
79040W        W47381   2.885  34.377  11.372
79041W        W47382  12.655  28.662   4.680
79042W        W47383   3.922  44.433   3.630
79043W        W47384  24.582  18.220   1.391
79044W        W47385  10.343  13.327  11.549
79045W        W47386  21.241  18.237  10.943
79046W        W47387   1.915  24.574   1.243
79047W        W47388  32.000   4.279  11.380
79048W        W47389  14.221  12.613  10.580
79049W        W47390  39.373  34.611  12.548
79050W        W47391  25.151  14.743  12.870
79051W        W47392  10.166  12.772   3.278
79052W        W47393  24.517  41.468  10.515
79053W        W47394  15.608  10.812  10.523
79054W        W47395  15.656  19.658  14.767
79055W        W47396   3.447  40.416   4.271
79056W        W47397   0.787  43.852  14.812
79057W        W47398  16.749  21.691  11.519
79058W        W47399   8.659   2.326  14.515
79059W        W47400  34.550  16.090   3.158
79060W        W47401  40.521  11.648   2.674
79061W        W47402  43.475  14.193  12.377
79062W        W47403   4.750  44.474  13.816
79063W        W47404  24.124  37.972  13.360
79064W        W47405  43.437  39.900  13.423
79065W        W47406  24.490  28.014   5.117
79066W        W47407  43.989   5.306  12.551
79067W        W47408  18.641  30.645  14.975
79068W        W47409   0.966  30.555  14.761
79069W        W47410  43.823  38.998   3.381
79070W        W47411  36.411   5.732   2.346
79071W        W47412  16.187  27.471  13.980
79072W        W47413  36.900   5.859  10.969
79073W        W47414   6.883  39.894   3.816
79074W        W47415   7.843  13.821  10.553
79075W        W47416  28.930  16.690  12.884
79076W        W47417  22.744  22.067   1.792
79077W        W47418  15.577  42.930  10.633
79078W        W47419  42.295   7.798  11.527
79079W        W47420   1.383  39.486  13.865
79080W        W47421   1.748  22.745   4.680
79081W        W47422  41.864  15.673   4.322
79082W        W47423  35.507  25.204  13.538
79083W        W47424  32.938   2.746  14.446
79084W        W47425   6.371  25.671   1.799
79085W        W47426  31.908  25.975  12.974
79086W        W47427  40.454   6.921  12.580
79087W        W47428  41.387  17.160   4.807
79088W        W47429  40.921  32.539  11.059
79089W        W47430   1.461  28.178   1.873
79090W        W47431  29.615  38.523  14.392
79091W        W47432  25.091  26.079  14.917
79092W        W47433  44.277  28.036   4.809
79093W        W47434  33.893  40.412  14.882
79094W        W47435  14.817  39.372   0.457
79095W        W47436   6.771   1.339   3.851
79096W        W47437  34.119   2.893   1.373
79097W        W47438  41.984  36.050  11.110
79098W        W47439  40.421  22.092  14.927
79099W        W47440  11.363  30.462  13.543
79100W        W47441   2.233  18.183   1.265
79101W        W47442   7.753   0.939  12.075
79102W        W47443  28.559   5.228   0.763
79103W        W47444   4.368   6.368  11.876
79104W        W47445  39.412   5.724   3.283
79105W        W47446  13.163   9.252   0.823
79106W        W47447  14.181  19.227   3.855
79107W        W47448  20.079  39.912  11.937
79108W        W47449  15.114  21.037   3.354
79109W        W47450   7.339  19.582  13.004
79110W        W47451  24.999   3.933   2.792
79111W        W47452  42.788  23.039  14.029
79112W        W47453  15.135  40.992  10.934
79113W        W47454  40.037  17.768  11.967
79114W        W47455  32.967  33.099  12.569
79115W        W47456  39.388  14.198   1.890
79116W        W47457  43.899  10.841  12.415
79117W        W47458   6.711  28.528   0.827
79118W        W47459  17.587  16.182  12.481
79119W        W47460  16.626  11.282  11.568
79120W        W47461  20.218  31.909  10.645
79121W        W47462  30.996   8.239   4.345
79122W        W47463  39.376  24.700  11.427
79123W        W47464  15.217  27.123   3.827
79124W        W47465  28.565  18.109   4.692
79125W        W47466  20.672  27.944  13.318
79126W        W47467  29.160   2.289   4.226
79127W        W47468  41.989  29.546  12.431
79128W        W47469  13.247  16.747   0.323
79129W        W47470   7.275   7.763   0.301
79130W        W47471   4.320  17.305  12.380
79131W        W47472  22.216   0.909   0.265
79132W        W47473   9.704  11.714   9.954
79133W        W47474  27.187  37.564   5.266
79134W        W47475  16.746  14.601  13.534
79135W        W47476  28.656  21.025  10.954
79136W        W47477   8.188  22.601  14.765
79137W        W47478   6.818  16.192   1.419
79138W        W47479  25.133   0.861   0.820
79139W        W47480   9.810  14.829   3.648
79140W        W47481  40.923  22.549  10.641
79141W        W47482  27.511  14.656  10.579
79142W        W47483  19.187  37.911   1.319
79143W        W47484  31.971  42.312  11.455
79144W        W47485  13.134  18.206   4.311
79145W        W47486  23.641  24.616   3.718
79146W        W47487   0.388  34.941  12.062
79147W        W47488  25.050  35.074  10.508
79148W        W47489  38.889   2.773  14.879
79149W        W47490   6.852  28.936  12.965
79150W        W47491  40.362  30.510  12.361
79151W        W47492  29.158  32.018   4.718
79152W        W47493  44.357  42.005   4.810
79153W        W47494  28.127  29.159  13.931
79154W        W47495  22.642  11.278   3.158
79155W        W47496   2.471  29.424   3.160
79156W        W47497  15.814  19.741   0.336
79157W        W47498  40.351  17.645   0.812
79158W        W47499  26.125  31.608  13.961
79159W        W47500  24.643  24.653  11.044
79160W        W47501  44.755  42.338  13.967
79161W        W47502  22.141  18.659  11.934
79162W        W47503   2.454  37.549  12.343
79163W        W47504  14.266   7.192   1.281
79164W        W47505  24.092   6.702   3.631
79165W        W47506  26.038  35.431   3.165
79166W        W47507  12.354  36.850   2.769
79167W        W47508  28.641  22.575   4.710
79168W        W47509  39.358   1.377  12.972
79169W        W47510  39.005   9.311  14.983
79170W        W47511   2.918  38.507  11.005
79171W        W47512  24.151  30.047   4.820
79172W        W47513   9.189  40.982  11.961
79173W        W47514  31.648  27.581  12.054
79174W        W47515  16.806  24.696  12.393
79175W        W47516  14.095   0.287  13.538
79176W        W47517  35.949  21.116   0.963
79177W        W47518  21.097  22.242  11.911
79178W        W47519  12.656  43.272   3.319
79179W        W47520   6.739  38.957   3.383
79180W        W47521  23.662  30.515  11.533
79181W        W47522   5.354   9.288   0.807
79182W        W47523  21.720  34.462   1.258
79183W        W47524  18.553  28.983  14.847
79184W        W47525  18.059  24.230  14.801
79185W        W47526  24.693   1.870   2.278
79186W        W47527  23.038  28.109  12.835
79187W        W47528   1.250  15.684  13.461
79188W        W47529  11.139  18.759   1.409
79189W        W47530  16.074   3.844  14.897
79190W        W47531  15.606  27.670  14.329
79191W        W47532   5.377  41.296  11.437
79192W        W47533  14.664  33.525  14.891
79193W        W47534  28.086  18.125  14.794
79194W        W47535  17.203   0.919  12.931
79195W        W47536  16.294  18.113   4.761
79196W        W47537   8.890  10.692   5.271
79197W        W47538   9.702  11.160   9.970
79198W        W47539  22.151  42.875   3.316
79199W        W47540  32.915  21.668  12.046
79200W        W47541  35.925  40.814   3.860
79201W        W47542  25.570  27.165   2.779
79202W        W47543  23.596  41.981   0.894
79203W        W47544   8.740   8.387  10.965
79204W        W47545  42.938   6.738   3.859
79205W        W47546  36.086  39.517  13.850
79206W        W47547  36.095  26.953  13.980
79207W        W47548  25.095  44.833   4.603
79208W        W47549  12.273  41.999   3.339
79209W        W47550   6.858  19.284  10.567
79210W        W47551  28.106  22.169  10.637
79211W        W47552  32.993  14.602   0.375
79212W        W47553   9.339   7.277   1.802
79213W        W47554  42.888  26.703   4.669
79214W        W47555  38.842  41.811  13.937
79215W        W47556  21.631   7.805   3.322
79216W        W47557   8.195  41.990   3.791
79217W        W47558  35.037  21.219   0.807
79218W        W47559   3.775  34.004  14.440
79219W        W47560   2.864  14.747  12.402
79220W        W47561  44.316  23.238   2.753
79221W        W47562  18.645   2.358   2.328
79222W        W47563  15.669  22.997  10.890
79223W        W47564  34.608  41.482   3.804
79224W        W47565  11.132  37.003  10.506
79225W        W47566  38.467  36.965  14.834
79226W        W47567  11.145  44.488  13.059
79227W        W47568  24.705  38.931   4.277
79228W        W47569  10.652  19.167  13.031
79229W        W47570   9.155  12.228   9.551
79230W        W47571  29.955  35.981   2.736
79231W        W47572  24.603  44.831  14.501
79232W        W47573   0.280  41.393  13.521
79233W        W47574   4.435   9.729  13.355
79234W        W47575   0.815  31.938   3.779
79235W        W47576  27.144   1.966  14.858
79236W        W47577  44.385  31.963   3.204
79237W        W47578  40.473  39.380  13.020
79238W        W47579  11.140  10.662   0.854
79239W        W47580   2.895  35.095   2.771
79240W        W47581  43.958   7.282   0.332
79241W        W47582  29.532  26.152   0.305
79242W        W47583  43.391  20.238  10.466
79243W        W47584  39.965  32.113   2.883
79244W        W47585   3.370  19.148  14.506
79245W        W47586  37.955  31.412  11.948
79246W        W47587  35.379  42.469  12.827
79247W        W47588  11.831   6.216  14.974
79248W        W47589  32.889  42.781   5.298
79249W        W47590  29.963  22.210   4.712
79250W        W47591  42.323  10.850  12.466
79251W        W47592  31.583  34.923  12.575
79252W        W47593  33.991  20.702  12.419
79253W        W47594  14.183  30.507  11.391
79254W        W47595  39.313  30.544  10.446
79255W        W47596  29.562   1.750   2.337
79256W        W47597  33.506  41.312   5.183
79257W        W47598  16.733  27.460   0.871
79258W        W47599  42.969  19.111  13.844
79259W        W47600  37.009   7.182  11.462
79260W        W47601   0.326  11.322  13.030
79261W        W47602  43.509   8.708   0.267
79262W        W47603  39.451  32.000  14.025
79263W        W47604  32.053  43.014  12.880
79264W        W47605  25.124  34.996  13.405
79265W        W47606  11.158   7.698   1.252
79266W        W47607  28.054  42.840  10.541
79267W        W47608  34.531  32.630  10.908
79268W        W47609  32.631  39.984  14.406
79269W        W47610  28.564  34.119   4.830
79270W        W47611  40.348   3.786  11.428
79271W        W47612   7.872  39.496   0.259
79272W        W47613  25.564  16.596  10.986
79273W        W47614   7.270  14.247  13.436
79274W        W47615   9.750   7.789   0.799
79275W        W47616  26.200  12.329   2.774
79276W        W47617   6.789  37.864   4.173
79277W        W47618  34.913  33.622  11.876
79278W        W47619  28.159   1.263   0.310
79279W        W47620  14.606   2.449   4.817
79280W        W47621   9.803   9.842   2.894
79281W        W47622  12.153  22.139  12.089
79282W        W47623  24.557  31.492  14.926
79283W        W47624  33.119  21.186  11.970
79284W        W47625  14.223  23.990  11.858
79285W        W47626  21.048   8.808   4.114
79286W        W47627  29.588  31.540   0.921
79287W        W47628  24.582   6.218  14.373
79288W        W47629  10.241  19.696  12.933
79289W        W47630  21.051   9.376   0.318
79290W        W47631  29.926  13.295  12.511
79291W        W47632  19.051  32.570  11.881
79292W        W47633   1.936   3.786  11.453
79293W        W47634   9.770  35.873   0.960
79294W        W47635  42.356  23.024  12.901
79295W        W47636  41.966   9.326   3.733
79296W        W47637   2.389  23.071  12.064
79297W        W47638  39.065  21.163  12.959
79298W        W47639  19.109   7.231   3.819
79299W        W47640  35.901  28.570   2.386
79300W        W47641   4.756  39.997   4.156
79301W        W47642   9.761  10.162  11.407
79302W        W47643   7.701  11.687  11.499
79303W        W47644  23.678  34.895  13.315
79304W        W47645  34.375  18.632  13.323
79305W        W47646  16.631  23.534  10.488
79306W        W47647  10.284   7.754  10.477
79307W        W47648  20.760   1.459  11.922
79308W        W47649  10.309  27.548   1.264
79309W        W47650   6.716  12.643  12.073
79310W        W47651   1.882  31.571   2.843
79311W        W47652   7.178  38.531  14.920
79312W        W47653  37.508   2.755  13.456
79313W        W47654  14.123   3.456   0.740
79314W        W47655   0.889  32.968   0.345
79315W        W47656  22.604  37.396   4.770
79316W        W47657  34.996  26.692  13.991
79317W        W47658  29.448  14.688  13.992
79318W        W47659  36.351  37.418  10.102
79319W        W47660   5.721  10.846  10.955
79320W        W47661  30.016   8.762  13.987
79321W        W47662  36.885  40.909   4.730
79322W        W47663  35.492  36.506  14.859
79323W        W47664  25.624  30.971   1.258
79324W        W47665   5.253  11.275  14.768
79325W        W47666  22.617  12.710  13.415
79326W        W47667   4.309  25.172   1.272
79327W        W47668  37.390   1.824   0.960
79328W        W47669   7.397  42.797  12.042
79329W        W47670  33.047  24.653  11.006
79330W        W47671  17.772  44.782   0.759
79331W        W47672  43.925  13.217   0.739
79332W        W47673  31.125   4.404   1.694
79333W        W47674  41.933  18.558  13.378
79334W        W47675  43.277   3.876   0.797
79335W        W47676   4.911  15.589   4.801
79336W        W47677  18.742  26.163  12.061
79337W        W47678  16.658  44.807  11.483
79338W        W47679  20.028  34.880  10.558
79339W        W47680  26.191  39.972   1.738
79340W        W47681  27.459  35.917  12.391
79341W        W47682  17.791  29.092  12.446
79342W        W47683  15.139  32.391   3.716
79343W        W47684  25.514  21.530   0.887
79344W        W47685  16.238   1.735   2.682
79345W        W47686  39.425  40.305  14.462
79346W        W47687  40.868  20.186  11.048
79347W        W47688  22.605  18.116  10.040
79348W        W47689  32.433  38.554   1.226
79349W        W47690  30.462  11.791   4.231
79350W        W47691  37.568   3.727   1.857
79351W        W47692   8.369  12.727  13.961
79352W        W47693  14.272  37.850   2.834
79353W        W47694  39.945  14.287   2.355
79354W        W47695  40.018   4.770  11.377
79355W        W47696  30.483   5.291   4.132
79356W        W47697  13.243  44.983   2.214
79357W        W47698   5.747  28.980  12.473
79358W        W47699  34.525  12.208  11.412
79359W        W47700  42.803  10.338   3.669
79360W        W47701  33.536  34.480  13.810
79361W        W47702  35.570  14.613  12.469
79362W        W47703   8.377  43.009   2.813
79363W        W47704  27.085  28.596  10.605
79364W        W47705  31.898  32.431  10.631
79365W        W47706  29.427   1.773  13.983
79366W        W47707  34.887   9.812   3.672
79367W        W47708  21.122  14.272   4.242
79368W        W47709  42.301   9.695   2.821
79369W        W47710  42.012  12.687  13.002
79370W        W47711  21.167  12.631   2.862
79371W        W47712  11.840   3.437   2.282
79372W        W47713   5.770  35.975  11.570
79373W        W47714  34.065  27.128  14.365
79374W        W47715  10.709   0.853  11.031
79375W        W47716  35.480  16.184  11.931
79376W        W47717   5.370   3.832   0.799
79377W        W47718  14.132   2.841  13.824
79378W        W47719  25.184  34.597  13.322
79379W        W47720  10.143  22.590   2.375
79380W        W47721  16.278  43.445  13.887
79381W        W47722  11.288  11.219   3.235
79382W        W47723  43.902  28.513  14.495
79383W        W47724  12.681  12.627   1.301
79384W        W47725  37.515  34.070   3.234
79385W        W47726  35.523   7.359   2.367
79386W        W47727   7.355  39.375  12.894
79387W        W47728  24.041  22.547   3.162
79388W        W47729  21.537  10.157   0.781
79389W        W47730   5.325   8.749  14.943
79390W        W47731  37.341  39.013   4.263
79391W        W47732  34.071  36.934  12.020
79392W        W47733  22.202  20.158  11.536
79393W        W47734   2.861  40.965   2.355
79394W        W47735  43.922  41.479   3.690
79395W        W47736  26.981  31.001   0.928
79396W        W47737   2.283  38.941   2.252
79397W        W47738  31.424  33.074  12.880
79398W        W47739  21.038  40.008  12.083
79399W        W47740   6.297  16.211  11.040
79400W        W47741  19.778  37.026  13.918
79401W        W47742  43.483  44.390   3.314
79402W        W47743  22.024  24.075   1.926
79403W        W47744  41.364  19.614   2.228
79404W        W47745  41.331   9.743   4.632
79405W        W47746  30.600  41.368  13.966
79406W        W47747  36.016  26.457  13.064
79407W        W47748  17.587   9.248  11.053
79408W        W47749  23.073  30.425  10.553
79409W        W47750   3.896   2.732   0.364
79410W        W47751  23.707   8.724  13.792
79411W        W47752   1.917  11.242   2.882
79412W        W47753  28.121   5.858  12.978
79413W        W47754  10.375  14.133   5.087
79414W        W47755   6.390  14.300  12.868
79415W        W47756  42.349  10.809   2.728
79416W        W47757  11.698   8.843  10.644
79417W        W47758   3.286  33.967  14.400
79418W        W47759  33.038   4.203  13.962
79419W        W47760  20.161  36.570  14.418
79420W        W47761  14.697  25.608  14.891
79421W        W47762   8.390   8.673   4.247
79422W        W47763  19.589  12.724  13.317
79423W        W47764  29.448  25.155  11.910
79424W        W47765  12.613  35.966  12.374
79425W        W47766  31.132  10.166  13.379
79426W        W47767  20.195  23.074  12.954
79427W        W47768  43.462  34.113  12.574
79428W        W47769  34.462  22.211  14.337
79429W        W47770   1.815  43.830  11.089
79430W        W47771   9.855  19.611   3.365
79431W        W47772  16.580  14.797  13.852
79432W        W47773  28.158  39.377  12.353
79433W        W47774  26.693  41.405  12.877
79434W        W47775  26.039   4.749  12.431
79435W        W47776  40.932  26.645  13.972
79436W        W47777  23.166  11.825  10.476
79437W        W47778  20.225  43.803  11.595
79438W        W47779  23.985   1.415  12.872
79439W        W47780   3.807  35.900   4.161
79440W        W47781  18.662   4.347   2.226
79441W        W47782  28.973  20.582  11.473
79442W        W47783  31.612  21.703  14.323
79443W        W47784  10.202   2.782  11.569
79444W        W47785  34.011  22.182  12.040
79445W        W47786  23.570  12.750  12.432
79446W        W47787   4.295  29.169   2.199
79447W        W47788  36.999  44.762   1.326
79448W        W47789  13.140  38.466  12.885
79449W        W47790   6.844  29.456   1.929
79450W        W47791  16.710  27.944  14.445
79451W        W47792   3.408  24.127  12.954
79452W        W47793  37.079  23.647   2.816
79453W        W47794  25.608   4.410  12.848
79454W        W47795   5.843  19.729   0.811
79455W        W47796  22.126   1.806   2.857
79456W        W47797  43.808  27.961   3.316
79457W        W47798  35.965  16.093   0.459
79458W        W47799  27.494  15.178  11.583
79459W        W47800   8.693   1.884   1.252
79460W        W47801  25.107  28.623   0.471
79461W        W47802   9.813  43.319  11.956
79462W        W47803   7.675  22.738  12.824
79463W        W47804   7.778   0.919   4.741
79464W        W47805  25.512  35.578   4.607
79465W        W47806  13.249  13.836  12.925
79466W        W47807  13.716  41.029   4.348
79467W        W47808  10.655   7.849  11.114
79468W        W47809   2.780  33.969   3.866
79469W        W47810  40.873   0.944   0.472
79470W        W47811   5.856  25.029   2.850
79471W        W47812  29.012  19.609   1.841
79472W        W47813  25.482   7.687   1.835
79473W        W47814  36.372  28.943   3.183
79474W        W47815  43.452   7.906  12.979
79475W        W47816  21.691  30.969   4.161
79476W        W47817  26.184  29.175   9.565
79477W        W47818  29.582  40.389  13.013
79478W        W47819  21.129   7.344   3.683
79479W        W47820  35.069  38.517   2.884
79480W        W47821   8.403  14.754  11.600
79481W        W47822  33.919   3.316  12.841
79482W        W47823  23.675  21.522   0.294
79483W        W47824  39.384  35.885   0.282
79484W        W47825  39.438   0.957  13.815
79485W        W47826  11.245  18.056  11.517
79486W        W47827  25.710   1.431  14.440
79487W        W47828  13.617  27.127   3.204
79488W        W47829  11.186  43.822   2.261
79489W        W47830   2.929  14.668   2.231
79490W        W47831  12.166  33.123   2.205
79491W        W47832  43.998  12.273  12.090
79492W        W47833  15.682  33.558   0.933
79493W        W47834   0.771  28.936  12.994
79494W        W47835   7.792  29.960  10.493
79495W        W47836  33.605  35.444   0.884
79496W        W47837   1.283  23.499  10.608
79497W        W47838  36.480  42.499  10.971
79498W        W47839  41.382  20.630  14.516
79499W        W47840  44.405  31.975  14.447
79500W        W47841  17.244  13.244  12.422
79501W        W47842  37.538  32.622   4.735
79502W        W47843  31.950  14.619   4.721
79503W        W47844   8.749   9.832  13.013
79504W        W47845  30.505  12.696  11.461
79505W        W47846  28.938  22.586  12.090
79506W        W47847  33.396  22.084  11.039
79507W        W47848  28.139  31.560   1.408
79508W        W47849   3.434   0.829   1.815
79509W        W47850  43.933  38.510  13.372
79510W        W47851  21.666  18.207   1.891
79511W        W47852  33.912   0.323  13.344
79512W        W47853  29.515  33.604   4.738
79513W        W47854  40.535  21.261  13.872
79514W        W47855  44.456  24.636   0.380
79515W        W47856   8.669  19.578   2.380
79516W        W47857  41.397  15.686  11.100
79517W        W47858  41.393  12.728   4.301
79518W        W47859  23.108   2.317  14.449
79519W        W47860  18.621  38.383  10.639
79520W        W47861  32.949  17.130  12.960
79521W        W47862  17.770   6.787  11.425
79522W        W47863  40.525  20.244   3.240
79523W        W47864  29.050  37.850   1.724
79524W        W47865  34.063  26.195  11.543
79525W        W47866  16.317  25.081  13.850
79526W        W47867  29.168  37.069   3.369
79527W        W47868  35.590  37.460  13.877
79528W        W47869   2.791  41.411   0.930
79529W        W47870   5.253   3.430   2.892
79530W        W47871   7.751  30.012  14.340
79531W        W47872  33.089   9.676   1.366
79532W        W47873  26.018   1.356  10.468
79533W        W47874   9.736   1.407  11.057
79534W        W47875  20.055  15.252   0.809
79535W        W47876  39.530  29.042   4.611
79536W        W47877  36.018  31.108   2.218
79537W        W47878  31.940  27.612   2.814
79538W        W47879  27.606  29.545  14.370
79539W        W47880   1.815  21.030  11.040
79540W        W47881  30.935  14.655   0.425
79541W        W47882  44.284  42.997  13.407
79542W        W47883   3.918  31.442  10.415
79543W        W47884  39.381  33.498   3.817
79544W        W47885  31.435  42.406   1.257
79545W        W47886  13.227  11.359   3.736
79546W        W47887   9.251  20.612  13.865
79547W        W47888  20.061  42.467   2.781
79548W        W47889   6.232   8.832   3.374
79549W        W47890   6.210  23.034   4.143
79550W        W47891  39.953  12.306  13.536
79551W        W47892  29.633  34.397   0.423
79552W        W47893  30.015  11.265   0.442
79553W        W47894   7.737   7.198   3.213
79554W        W47895   4.286  14.732  13.991
79555W        W47896  22.562  17.629   1.924
79556W        W47897   4.322  39.395  14.936
79557W        W47898  39.509  39.511   3.727
79558W        W47899   6.690  42.026  14.317
79559W        W47900   7.695  43.966  13.910
79560W        W47901   2.452  39.376   2.200
79561W        W47902  27.547  26.541   2.731
79562W        W47903  22.153  35.095   4.748
79563W        W47904  23.058  22.182   2.693
79564W        W47905   6.731  12.718   1.443
79565W        W47906  13.607   5.755   3.341
79566W        W47907  37.021  32.595  11.594
79567W        W47908  16.282  36.005  11.950
79568W        W47909   9.888   6.343   3.190
79569W        W47910  10.290  38.020  13.885
79570W        W47911   7.236  22.743   0.860
79571W        W47912   3.305  44.912   0.809
79572W        W47913   2.241   6.248  12.446
79573W        W47914  32.439   2.790   4.278
79574W        W47915   2.869  23.505   2.795
79575W        W47916  18.128   6.846  13.365
79576W        W47917  26.599  44.772  14.415
79577W        W47918  39.405  41.841   1.276
79578W        W47919  13.822  11.298   2.863
79579W        W47920  11.316  20.045   2.716
79580W        W47921  14.807   0.337   2.767
79581W        W47922   0.436  20.250  14.908
79582W        W47923  29.626   9.817   1.378
79583W        W47924  13.837  30.487  12.984
79584W        W47925  39.024  31.018   0.783
79585W        W47926  23.714  31.635   0.915
79586W        W47927  32.977   7.232  13.907
79587W        W47928  25.484   6.908  14.838
79588W        W47929  13.700   5.237   0.863
79589W        W47930  31.061  18.748  14.929
79590W        W47931   5.214   7.245  11.540
79591W        W47932  13.794   5.381  12.380
79592W        W47933  30.946  20.150  11.398
79593W        W47934  22.039  19.105   1.792
79594W        W47935  36.972  18.160  13.897
79595W        W47936  34.510  26.110  11.027
79596W        W47937  37.377  25.470  11.990
79597W        W47938  14.645  31.633   3.760
79598W        W47939  44.875  21.578   2.257
79599W        W47940   1.451  24.551   2.409
79600W        W47941  14.588  21.177   3.794
79601W        W47942  22.501   1.424  13.810
79602W        W47943  32.089  32.112   0.329
79603W        W47944   3.945  15.807   1.444
79604W        W47945  34.614   6.683   3.226
79605W        W47946   8.277  15.745  13.440
79606W        W47947  25.509  11.820   4.706
79607W        W47948  39.819  38.557  13.989
79608W        W47949  29.514   2.824   3.738
79609W        W47950  16.612  23.199   3.182
79610W        W47951  13.260  40.872  10.557
79611W        W47952  37.497  37.416   5.170
79612W        W47953  37.885   3.912   2.196
79613W        W47954  37.344  31.423   0.791
79614W        W47955  22.030   6.797   4.676
79615W        W47956  27.053  34.022  11.400
79616W        W47957  12.151  18.273   1.420
79617W        W47958  38.413  11.169   2.221
79618W        W47959   1.274  25.665   2.875
79619W        W47960  17.100  20.127   4.132
79620W        W47961   2.822  10.847  14.973
79621W        W47962  35.438  40.944  13.361
79622W        W47963   4.911  42.979  10.888
79623W        W47964  33.900  37.031   3.670
79624W        W47965  12.173  30.097   2.891
79625W        W47966   6.718   4.893  11.891
79626W        W47967  14.219  12.725   2.770
79627W        W47968  38.482  44.966  11.473
79628W        W47969  26.497  25.629   3.692
79629W        W47970  10.202  16.101   0.444
79630W        W47971   7.907   4.841  14.031
79631W        W47972  33.108   5.700   3.815
79632W        W47973  24.974   5.809   1.742
79633W        W47974  13.318  14.232  11.866
79634W        W47975   3.849   9.165  11.546
79635W        W47976  15.098  16.075   3.729
79636W        W47977  41.357  23.580  13.965
79637W        W47978   7.384  24.019   0.313
79638W        W47979  34.948   2.324  13.925
79639W        W47980  11.336  42.512  11.587
79640W        W47981  33.124   2.797   2.288
79641W        W47982  16.774   3.767   1.256
79642W        W47983   1.426  22.030   3.644
79643W        W47984  34.473  21.699  10.922
79644W        W47985  38.433  13.153  13.875
79645W        W47986  23.119   4.267  13.415
79646W        W47987  19.097  34.573   3.254
79647W        W47988  26.016   9.772   0.838
79648W        W47989  19.546  19.213  12.849
79649W        W47990  40.503  30.627  13.535
79650W        W47991   9.160  42.349  11.543
79651W        W47992  41.972   9.210   2.374
79652W        W47993   7.188  31.594   2.767
79653W        W47994   0.908   0.891   4.712
79654W        W47995  33.910  18.594  13.506
79655W        W47996  19.183  35.492  10.455
79656W        W47997  14.762  34.020   9.617
79657W        W47998  12.325  20.719  13.522
79658W        W47999  29.921  25.125   2.258
79659W        W48000  38.437  24.104  12.929
79660W        W48001   0.922  38.847  11.482
79661W        W48002  19.645   2.397   1.230
79662W        W48003   1.254  43.426   0.369
79663W        W48004  20.561  37.839  13.389
79664W        W48005  35.492  23.036   0.753
79665W        W48006  13.155  34.041  14.498
79666W        W48007   6.328  44.893  12.469
79667W        W48008  26.143  42.396  13.017
79668W        W48009   0.308  19.155  14.901
79669W        W48010  42.431  38.326  13.415
79670W        W48011  23.127  10.734  14.821
79671W        W48012   6.231  15.696   4.723
79672W        W48013  13.643  23.547  12.970
79673W        W48014  44.882  23.217   1.241
79674W        W48015  28.022  40.860  11.405
79675W        W48016  29.920  19.151   0.789
79676W        W48017   7.296   2.723   3.814
79677W        W48018  24.036   6.906  13.056
79678W        W48019  16.094  32.955   4.122
79679W        W48020  38.875   9.308  12.985
79680W        W48021   5.422  39.889  11.978
79681W        W48022   6.374  37.008  11.575
79682W        W48023  35.075  17.701   2.749
79683W        W48024   7.230   2.737  13.855
79684W        W48025  27.055  36.528   2.332
79685W        W48026  14.248  44.297   4.770
79686W        W48027  13.610  28.644  10.616
79687W        W48028  21.739  28.948   0.246
79688W        W48029  43.955  15.759  13.504
79689W        W48030  44.795  37.362   4.272
79690W        W48031  18.167  15.674  12.379
79691W        W48032  43.965  21.584   3.783
79692W        W48033  41.824  42.905   4.653
79693W        W48034  39.353  36.878  12.848
79694W        W48035  21.757   7.827   0.833
79695W        W48036  37.501   1.418   0.342
79696W        W48037  16.081  30.604   2.851
79697W        W48038  38.389  15.791  11.423
79698W        W48039  33.014   3.834  14.498
79699W        W48040   5.249  17.105  13.534
79700W        W48041  26.694  43.459   0.960
79701W        W48042  27.573  31.063  14.797
79702W        W48043   4.758  41.402   0.309
79703W        W48044  18.212  31.529  14.784
79704W        W48045   8.807  40.534  12.557
79705W        W48046  33.922  44.913  14.951
79706W        W48047   8.251  10.263  14.291
79707W        W48048  18.095  34.120  13.396
79708W        W48049  34.487  41.980  11.485
79709W        W48050  10.850   2.784  12.070
79710W        W48051  31.631  20.043   2.828
79711W        W48052  10.665   0.374   4.337
79712W        W48053  43.811  10.251  11.432
79713W        W48054  28.612  12.353   0.315
79714W        W48055   1.859  16.647   5.097
79715W        W48056  16.106  11.655  13.934
79716W        W48057  38.933  32.543  11.931
79717W        W48058  23.228  40.970  11.605
79718W        W48059  26.093   9.800  14.478
79719W        W48060  15.275   5.812  14.888
79720W        W48061  32.953  42.836  11.477
79721W        W48062  37.452  16.642  10.406
79722W        W48063  28.451  14.761   3.848
79723W        W48064  21.223  20.569   4.320
79724W        W48065  33.071  13.287   3.209
79725W        W48066  36.038  37.538   3.263
79726W        W48067  44.391   8.164   0.785
79727W        W48068   9.790  15.589  11.610
79728W        W48069   1.955  39.497  11.562
79729W        W48070  23.165  12.298  13.379
79730W        W48071  40.830  35.854  10.961
79731W        W48072  34.546  32.929   1.865
79732W        W48073   7.813   2.774   2.717
79733W        W48074  15.218  42.872   1.383
79734W        W48075  20.237  24.186   4.122
79735W        W48076  38.824  37.981  12.841
79736W        W48077  30.046  40.447  10.529
79737W        W48078  26.077   0.448  12.003
79738W        W48079   8.356  33.927  11.523
79739W        W48080   3.794  27.593  13.435
79740W        W48081  25.557   2.463  14.354
79741W        W48082  23.186   6.687   0.287
79742W        W48083  26.057  13.762   4.254
79743W        W48084  21.218  36.047  13.885
79744W        W48085  37.066  36.040  12.406
79745W        W48086  40.863   4.868  13.388
79746W        W48087  17.725  18.656  12.504
79747W        W48088  31.465   6.257  13.925
79748W        W48089  36.512  44.935   1.697
79749W        W48090  40.968  18.743   1.915
79750W        W48091  23.531  20.609   3.762
79751W        W48092  29.053  25.193  11.418
79752W        W48093  14.788  13.179  13.445
79753W        W48094  44.958   3.782  12.049
79754W        W48095  12.225  35.869   0.434
79755W        W48096   3.255  41.897  12.838
79756W        W48097  14.266  41.345   0.254
79757W        W48098  31.414  28.141   4.215
79758W        W48099   8.722  40.874   4.199
79759W        W48100  24.651  25.178   4.674
79760W        W48101  14.692  13.236   9.989
79761W        W48102  15.099  41.418  12.894
79762W        W48103  17.604  42.966   3.327
79763W        W48104  30.110  31.595   0.839
79764W        W48105  21.182  37.562   2.780
79765W        W48106  43.786  30.087  11.001
79766W        W48107  38.340   4.733  12.516
79767W        W48108  12.822  44.923  14.027
79768W        W48109  21.143  19.044   4.749
79769W        W48110  41.412  10.674   2.705
79770W        W48111  41.025  15.658  12.387
79771W        W48112  21.517  21.536   1.779
79772W        W48113  12.746  27.563  12.347
79773W        W48114  17.152  10.831   2.815
79774W        W48115  28.620   6.695  12.549
79775W        W48116  40.542  28.967  10.451
79776W        W48117  12.721   6.691   4.752
79777W        W48118  18.702  33.094   2.786
79778W        W48119  29.043  37.835  13.059
79779W        W48120   3.276   8.345  11.982
79780W        W48121  17.642  44.841  13.996
79781W        W48122  20.540  28.148   1.350
79782W        W48123  32.536  34.442  11.458
79783W        W48124  22.741  22.189   3.716
79784W        W48125  29.999   3.776   1.888
79785W        W48126  13.214  30.073   1.848
79786W        W48127  17.568  16.301  13.358
79787W        W48128   6.374  40.386   1.434
79788W        W48129  39.404  19.069   1.772
79789W        W48130  44.396  37.917  11.999
79790W        W48131   5.393  35.895  11.549
79791W        W48132  41.951  44.482  12.022
79792W        W48133  11.865  41.830  11.899
79793W        W48134  20.131  39.551  12.079
79794W        W48135  13.655  13.314   2.751
79795W        W48136  11.230   1.400  12.448
79796W        W48137   4.401  20.259  11.051
79797W        W48138   7.802  44.904  11.976
79798W        W48139  24.552  23.655   4.723
79799W        W48140  14.140  13.760   4.147
79800W        W48141  31.071  35.907  11.964
79801W        W48142  38.981   4.753  10.961
79802W        W48143  34.402  28.143  14.365
79803W        W48144  22.732  19.276   1.885
79804W        W48145   0.914  31.018   1.265
79805W        W48146   5.300   0.324  12.024
79806W        W48147  27.007  12.650   4.216
79807W        W48148   0.749  18.145   1.223
79808W        W48149   5.888  42.969   4.235
79809W        W48150  24.130  39.955  14.509
79810W        W48151  14.281  38.070  13.936
79811W        W48152  35.574  39.541  11.485
79812W        W48153  24.117  26.613   5.228
79813W        W48154  41.875   1.932   2.679
79814W        W48155  18.187  22.510  10.031
79815W        W48156  42.446  37.981  10.953
79816W        W48157  35.412  12.165  11.450
79817W        W48158  38.876  40.474   2.286
79818W        W48159  23.505  16.641  10.637
79819W        W48160  15.599  38.548  11.089
79820W        W48161   8.331   6.714   1.759
79821W        W48162  20.653  31.940   0.938
79822W        W48163   5.283   5.777   4.823
79823W        W48164  36.968  19.766   0.253
79824W        W48165   0.827  33.412   1.415
79825W        W48166  34.967   0.971   2.758
79826W        W48167   0.260  40.498   0.276
79827W        W48168   0.398   1.773  13.799
79828W        W48169   5.423  28.010   2.360
79829W        W48170   9.304  26.468   4.291
79830W        W48171  28.657   1.301  11.126
79831W        W48172  21.233  39.466  11.478
79832W        W48173   4.214  11.268   2.415
79833W        W48174   6.319  43.491   0.373
79834W        W48175  40.914  41.942  14.793
79835W        W48176  39.025  27.570  13.505
79836W        W48177   9.779  20.528  14.763
79837W        W48178  38.848   1.782  14.430
79838W        W48179  34.943  29.056   2.835
79839W        W48180  26.555  40.052  12.972
79840W        W48181   1.463  18.125  14.866
79841W        W48182  27.021  40.899   3.810
79842W        W48183  11.676  34.545   2.728
79843W        W48184   2.254   3.744  13.352
79844W        W48185  34.497  22.077   2.724
79845W        W48186  29.605   2.851  10.892
79846W        W48187  39.392  23.551  12.900
79847W        W48188  22.065  13.844   3.238
79848W        W48189  21.671  33.132   2.323
79849W        W48190  43.449  30.918   1.806
79850W        W48191  21.133  11.633  11.077
79851W        W48192  30.434   7.226   1.732
79852W        W48193  24.684  36.431  12.089
79853W        W48194  34.991  21.651  14.496
79854W        W48195  18.118   3.456  12.514
79855W        W48196  26.648  19.676  13.471
79856W        W48197  21.103   5.256  14.928
79857W        W48198  11.361  24.053  13.972
79858W        W48199  10.825  12.805   3.645
79859W        W48200  40.908  17.692  11.480
79860W        W48201  37.393  15.203  12.492
79861W        W48202  37.945  16.584   2.892
79862W        W48203  32.461  37.487  12.459
79863W        W48204   9.188   1.808   1.801
79864W        W48205  44.299  30.630  13.898
79865W        W48206  26.969  39.506  14.321
79866W        W48207   1.374  25.176   3.856
79867W        W48208  38.841  36.591  11.594
79868W        W48209  42.458  44.411   0.456
79869W        W48210  23.699   5.208   3.804
79870W        W48211  43.817  35.046   4.647
79871W        W48212  17.632  26.115   4.649
79872W        W48213   3.895  44.938   1.892
79873W        W48214  43.408  44.972   0.795
79874W        W48215  17.235  43.980  10.136
79875W        W48216  40.548  22.068  11.542
79876W        W48217  37.351  41.493   0.308
79877W        W48218  22.716  16.741  14.015
79878W        W48219   1.775  25.140  14.795
79879W        W48220  41.291  27.653  12.455
79880W        W48221  39.900  25.007   3.838
79881W        W48222  18.143  23.063   0.463
79882W        W48223  32.138  38.934  12.847
79883W        W48224  31.435   5.358  11.037
79884W        W48225  26.000  21.720  13.411
79885W        W48226   1.272  42.971  12.579
79886W        W48227   2.231  37.899  10.448
79887W        W48228  24.723  24.137  14.932
79888W        W48229  42.478  13.224   3.630
79889W        W48230  19.587   4.409  14.478
79890W        W48231   1.800  22.204  13.989
79891W        W48232   3.377  17.751  13.898
79892W        W48233  27.045  19.158   4.646
79893W        W48234  21.096  20.546  13.935
79894W        W48235  16.688  36.387   3.665
79895W        W48236  37.949  15.726   2.227
79896W        W48237  27.512   0.281   4.258
79897W        W48238  24.212  16.138   2.676
79898W        W48239   4.742  44.423   4.290
79899W        W48240  17.610  35.552  13.392
79900W        W48241   6.712   5.725  12.400
79901W        W48242   3.309   3.291  13.873
79902W        W48243  27.052   6.881   4.734
79903W        W48244  17.590   8.758  14.769
79904W        W48245   7.301  17.798   2.838
79905W        W48246  14.241  27.477   0.812
79906W        W48247   8.237  42.844   1.920
79907W        W48248  42.489  18.073   1.712
79908W        W48249  39.816  11.227  10.441
79909W        W48250   5.347  36.987   1.808
79910W        W48251   2.821  17.217   1.926
79911W        W48252  19.099  26.467   4.155
79912W        W48253  32.928   3.798   3.299
79913W        W48254  12.241  22.676  10.951
79914W        W48255   5.196  15.263   2.222
79915W        W48256   5.387  13.135   4.761
79916W        W48257  44.302  27.114   4.821
79917W        W48258   6.906  30.012   0.423
79918W        W48259  38.022   7.775  14.979
79919W        W48260  37.951  32.449  13.384
79920W        W48261  18.742  32.976   3.760
79921W        W48262  38.393  42.527  14.286
79922W        W48263  23.518  22.646   3.151
79923W        W48264   3.347  39.027  14.336
79924W        W48265  39.314   4.703  14.933
79925W        W48266  16.689   6.334  12.057
79926W        W48267  14.755  24.611   0.847
79927W        W48268  14.798  26.673   1.694
79928W        W48269  17.566  29.655   2.357
79929W        W48270   6.354   0.852  10.041
79930W        W48271  11.811  38.056  14.980
79931W        W48272  25.572  34.407   4.716
79932W        W48273  11.333   0.404   1.365
79933W        W48274  41.881  31.598  12.576
79934W        W48275  41.500  36.567   1.240
79935W        W48276   4.881   2.918  12.463
79936W        W48277   2.857  22.030  11.857
79937W        W48278  31.068  28.079  14.956
79938W        W48279  15.661  35.394  10.455
79939W        W48280   3.226  34.534   4.602
79940W        W48281   6.908  11.666  12.437
79941W        W48282   4.369  26.603  14.486
79942W        W48283  42.799  30.105   2.271
79943W        W48284  10.291   8.778  13.868
79944W        W48285  29.035  13.281   4.273
79945W        W48286  43.337   3.898   3.348
79946W        W48287  32.066  41.009   0.943
79947W        W48288   0.771   0.459   1.253
79948W        W48289  29.471  18.623  12.532
79949W        W48290  32.040  25.581  14.480
79950W        W48291  44.331   4.833  11.432
79951W        W48292  43.829  37.881   0.429
79952W        W48293   7.290  12.247  13.064
79953W        W48294   6.264  42.306   4.783
79954W        W48295  23.665   0.879  14.919
79955W        W48296  22.623   1.886  10.929
79956W        W48297  39.468  10.234  10.153
79957W        W48298   5.751  24.619  10.409
79958W        W48299  41.018  25.565  10.440
79959W        W48300  36.063  30.921   1.760
79960W        W48301  43.358  12.808   1.875
79961W        W48302  38.061  24.130   4.153
79962W        W48303  31.140  23.213   2.779
79963W        W48304   0.896  13.224   2.773
79964W        W48305  17.250  21.232   2.355
79965W        W48306  25.497  20.683  14.025
79966W        W48307  16.312  27.455   2.240
79967W        W48308  14.199  26.013   2.309
79968W        W48309  26.972   9.217  10.896
79969W        W48310  40.526  32.899   2.869
79970W        W48311  35.081  24.706   3.629
79971W        W48312   3.925  23.064   0.876
79972W        W48313   6.388   8.862   0.309
79973W        W48314  22.590  34.051   2.743
79974W        W48315  39.834  44.792  13.439
79975W        W48316   5.808   7.703  14.463
79976W        W48317  10.662   9.192   4.328
79977W        W48318  38.434  23.132   1.837
79978W        W48319  23.668  17.798  13.907
79979W        W48320  33.476   6.759  12.454
79980W        W48321  37.513   3.429   1.781
79981W        W48322  20.216  18.230   3.742
79982W        W48323   4.340  37.545  11.039
79983W        W48324   9.293  12.309  10.916
79984W        W48325  10.338  35.454   4.682
79985W        W48326   0.813  23.214   3.804
79986W        W48327   2.446  38.918  10.095
79987W        W48328  18.647  36.967   0.891
79988W        W48329  40.804  43.014   4.141
79989W        W48330  35.469  13.816  10.558
79990W        W48331  23.172  12.354  14.788
79991W        W48332  28.025  20.036  13.521
79992W        W48333  32.490  35.987   2.272
79993W        W48334  41.929   2.778  14.308
79994W        W48335  43.898  17.230   4.342
79995W        W48336  44.380  28.633   4.816
79996W        W48337  37.942  35.042   2.202
79997W        W48338  41.422  26.645   4.171
79998W        W48339  24.015   4.390   2.341
79999W        W48340  37.488  29.135  11.099
80000W        W48341   9.296  35.420  13.996
80001W        W48342  42.398  14.669   2.385
80002W        W48343  35.413   4.374   3.149
80003W        W48344  20.526  17.792  14.945
80004W        W48345  16.259  39.003  12.382
80005W        W48346   8.388  25.471  13.345
80006W        W48347  42.377  36.472   3.334
80007W        W48348   1.354  44.967   4.651
80008W        W48349   2.416  22.158  14.474
80009W        W48350  43.872  24.660   2.189
80010W        W48351  15.608  30.052   3.327
80011W        W48352  29.512  41.822  10.618
80012W        W48353  28.020  43.440   3.860
80013W        W48354  25.052   2.306   2.197
80014W        W48355  27.573   4.708  10.999
80015W        W48356  32.019  11.752   0.763
80016W        W48357  21.693  34.869   0.816
80017W        W48358  20.121  28.626  12.513
80018W        W48359  30.608  20.133  12.960
80019W        W48360  18.159  42.025   3.801
80020W        W48361  36.903  16.694  13.525
80021W        W48362  43.302  29.071  14.300
80022W        W48363   3.854  13.269   1.777
80023W        W48364  13.603  43.337   3.206
80024W        W48365  18.211   1.847  10.574
80025W        W48366  37.969  40.534   0.910
80026W        W48367   8.837   5.831  10.530
80027W        W48368  21.042   7.800  11.438
80028W        W48369  32.613   8.182   1.875
80029W        W48370  22.625   1.466  14.342
80030W        W48371   5.882  10.147  11.965
80031W        W48372  36.440   1.241   4.244
80032W        W48373  33.500  34.036  11.575
80033W        W48374  16.801  31.412   2.713
80034W        W48375  30.557  21.687  14.435
80035W        W48376  10.869  13.622   4.212
80036W        W48377  13.318  23.040   4.776
80037W        W48378  30.066  20.170  13.818
80038W        W48379  15.141  43.860  10.482
80039W        W48380  17.300  31.433  14.421
80040W        W48381  35.083  26.179   2.794
80041W        W48382  15.233  35.074   3.672
80042W        W48383  20.664   1.753   0.781
80043W        W48384  42.964  15.199   2.773
80044W        W48385  19.259  35.467  12.493
80045W        W48386  13.693   5.352  12.055
80046W        W48387   5.793  40.040   2.877
80047W        W48388  10.160   5.842  11.041
80048W        W48389  11.135   3.848   3.189
80049W        W48390   7.387  33.457  12.073
80050W        W48391   8.305   5.258   3.844
80051W        W48392  44.314   2.345   2.200
80052W        W48393   2.472   6.276  10.011
80053W        W48394   5.224  41.983   2.264
80054W        W48395  21.602  22.061  12.506
80055W        W48396  18.574  23.705   0.777
80056W        W48397  10.766   6.372   4.725
80057W        W48398  38.056  12.275   3.270
80058W        W48399  35.517  37.406   2.372
80059W        W48400  26.154   2.784  12.558
80060W        W48401  32.572  23.006  14.509
80061W        W48402  22.202  24.120   4.119
80062W        W48403  23.157   8.270  13.021
80063W        W48404  38.944  34.081   5.111
80064W        W48405  29.071  42.324   2.369
80065W        W48406  22.184  15.145  12.560
80066W        W48407  27.977   6.838  12.558
80067W        W48408   6.296  36.927  14.804
80068W        W48409  16.191  11.792   1.241
80069W        W48410   5.878   0.749   0.967
80070W        W48411  34.006   6.228   1.275
80071W        W48412  19.256  29.163  12.005
80072W        W48413  30.970  20.765   3.766
80073W        W48414  24.019  21.680   1.324
80074W        W48415   8.826   4.782  13.521
80075W        W48416  20.725  29.021   3.152
80076W        W48417  43.911  40.471   2.415
80077W        W48418  25.059   1.870  14.494
80078W        W48419  25.611  39.928  13.026
80079W        W48420   6.767  36.433  13.535
80080W        W48421  16.290  19.212   2.689
80081W        W48422   4.404  29.168   1.770
80082W        W48423  35.054  28.496   4.820
80083W        W48424  18.182  11.182   2.185
80084W        W48425  16.653  13.842  13.310
80085W        W48426  13.659  25.106   1.746
80086W        W48427  26.703   6.417   0.941
80087W        W48428  30.464   8.368  13.803
80088W        W48429  44.907  22.074  10.560
80089W        W48430  27.655  18.294   2.399
80090W        W48431  21.633  29.169  13.957
80091W        W48432   1.873  43.983   1.421
80092W        W48433   5.384  44.795   0.898
80093W        W48434  41.811  17.127  14.775
80094W        W48435  24.004  27.052   1.260
80095W        W48436  18.643   3.334   1.335
80096W        W48437   4.226   7.806  12.023
80097W        W48438   4.232  19.661  11.029
80098W        W48439  16.103   4.907  10.132
80099W        W48440   0.923   7.824  14.758
80100W        W48441  27.004  26.666  12.491
80101W        W48442  19.249   0.491   4.763
80102W        W48443  31.056  28.085   4.164
80103W        W48444  36.356  35.924   3.224
80104W        W48445  16.286  39.969   4.769
80105W        W48446  21.580  14.169   3.266
80106W        W48447  37.553  44.872   0.345
80107W        W48448   5.742  13.606  11.587
80108W        W48449  12.327  39.499   0.962
80109W        W48450  34.458   2.244  12.533
80110W        W48451  12.796  34.925  11.516
80111W        W48452  21.667  34.100  14.964
80112W        W48453   1.793  44.334   2.234
80113W        W48454  14.809  36.911   1.286
80114W        W48455  41.978   8.836  10.476
80115W        W48456  12.294  26.528  12.515
80116W        W48457   9.777  37.978  12.886
80117W        W48458  12.258  36.892   1.440
80118W        W48459  32.971  20.527   2.417
80119W        W48460   1.937  12.803  11.951
80120W        W48461   1.854  21.179   4.117
80121W        W48462  22.501   7.752  12.400
80122W        W48463   4.274  37.533  14.861
80123W        W48464  13.746   3.289  11.088
80124W        W48465  29.072  19.585   1.435
80125W        W48466  13.315  35.036  13.931
80126W        W48467  41.939  36.081  11.915
80127W        W48468  38.999  38.938  11.950
80128W        W48469  10.156  44.789   0.847
80129W        W48470  23.074   0.890   4.176
80130W        W48471   1.360   2.355  11.107
80131W        W48472  27.568  27.620  14.793
80132W        W48473  12.288  26.467  14.778
80133W        W48474   7.758  24.104   3.366
80134W        W48475   9.779  16.091   1.914
80135W        W48476  32.068  38.360  13.860
80136W        W48477  12.642  11.235  13.938
80137W        W48478  40.908  37.895  11.968
80138W        W48479   8.354  17.180   3.725
80139W        W48480  36.475  41.944  10.468
80140W        W48481  24.659   4.221   1.907
80141W        W48482  29.063  15.096  10.906
80142W        W48483  26.604  16.644   3.725
80143W        W48484   2.229  19.774   2.786
80144W        W48485  28.171  24.708   3.825
80145W        W48486   1.825  29.094   3.657
80146W        W48487   8.260  36.967   0.831
80147W        W48488   7.904  32.110   4.741
80148W        W48489   9.372  31.575   0.256
80149W        W48490  10.694   4.828   2.873
80150W        W48491   9.166  35.088  11.584
80151W        W48492  41.807  19.610  14.777
80152W        W48493   5.704  33.896   2.210
80153W        W48494  31.054  41.472   0.824
80154W        W48495  10.770   7.326   3.251
80155W        W48496   3.359  44.451   3.163
80156W        W48497  29.429  22.569   5.281
80157W        W48498   4.819  29.632  11.393
80158W        W48499  30.069  29.127   1.353
80159W        W48500  11.825  22.606  10.036
80160W        W48501   6.212  23.622   4.696
80161W        W48502   3.780  20.598  10.470
80162W        W48503  12.772   9.883  12.063
80163W        W48504  15.314  33.003  14.307
80164W        W48505   2.766   9.242  13.500
80165W        W48506  16.774  10.174   0.443
80166W        W48507  24.166  14.179   0.917
80167W        W48508  22.714   1.350  10.905
80168W        W48509  19.280  38.539  14.794
80169W        W48510  29.550  27.629  12.888
80170W        W48511   3.416  14.105  12.478
80171W        W48512   0.832  19.615  12.417
80172W        W48513  28.158  14.138   1.214
80173W        W48514  31.584  18.157  10.974
80174W        W48515  15.782  16.780   5.221
80175W        W48516  32.628  31.085  11.973
80176W        W48517  14.830   1.453  13.939
80177W        W48518  26.593  13.194   3.384
80178W        W48519  16.101  20.145   0.939
80179W        W48520  24.578  10.287   4.281
80180W        W48521  36.978   0.770   4.116
80181W        W48522  43.008   0.806   0.364
80182W        W48523   2.459  11.244  12.561
80183W        W48524  28.983   9.644  12.889
80184W        W48525  43.812  22.113  12.971
80185W        W48526   6.736  41.791   0.430
80186W        W48527  19.117  19.186  13.335
80187W        W48528  20.559   7.345   4.321
80188W        W48529  12.787  16.592   0.888
80189W        W48530  20.177  30.944   1.725
80190W        W48531  17.783   2.766   1.400
80191W        W48532  11.848  38.477   4.174
80192W        W48533  43.835  19.149   2.689
80193W        W48534  40.845  35.530   0.244
80194W        W48535   2.759  40.982  10.536
80195W        W48536  27.988  26.619   2.343
80196W        W48537  19.580  28.566   1.438
80197W        W48538  18.083  30.053   0.338
80198W        W48539  11.741  12.226  12.361
80199W        W48540  35.543  44.759   0.310
80200W        W48541   2.438  19.190  11.446
80201W        W48542  23.218  33.530  14.319
80202W        W48543   4.785  44.297   1.409
80203W        W48544  16.594  20.615  13.981
80204W        W48545  21.240   8.187  12.064
80205W        W48546  15.124  20.090   4.776
80206W        W48547  41.330  29.611  13.317
80207W        W48548  29.461  40.443  12.577
80208W        W48549   1.424   3.309   0.896
80209W        W48550  33.428   6.803   2.706
80210W        W48551  27.494  26.174  13.320
80211W        W48552  31.912  31.931  11.883
80212W        W48553  26.639  42.400  10.476
80213W        W48554   7.297   7.870   3.255
80214W        W48555   7.392   6.905  11.972
80215W        W48556  16.282  37.398   9.968
80216W        W48557  34.518   7.309  11.421
80217W        W48558  41.980  11.285   2.845
80218W        W48559  23.622  38.960  12.427
80219W        W48560  31.410   8.292  13.454
80220W        W48561  44.479  27.538  14.416
80221W        W48562  39.401  30.097  12.575
80222W        W48563  34.420  37.850  12.929
80223W        W48564  20.627  24.191   2.257
80224W        W48565  32.492  11.185  13.312
80225W        W48566  23.587   8.359  10.495
80226W        W48567  22.542   4.793   4.635
80227W        W48568  40.475   5.707   4.599
80228W        W48569  42.004   7.732   4.130
80229W        W48570  16.654  19.552   2.750
80230W        W48571  30.034  31.121   4.242
80231W        W48572  20.720  27.077  11.383
80232W        W48573  27.622   7.334  11.960
80233W        W48574  44.293   2.247   3.746
80234W        W48575   2.852  17.790   3.296
80235W        W48576  12.237  20.161   2.871
80236W        W48577  39.901  35.996  10.619
80237W        W48578  19.098  44.776   4.290
80238W        W48579  28.520  18.227  12.354
80239W        W48580   0.765   4.864  13.432
80240W        W48581  29.043  41.815  12.382
80241W        W48582  26.542  41.433   4.684
80242W        W48583   7.359  27.446   3.749
80243W        W48584  26.571  22.688   4.297
80244W        W48585  41.916   3.833   2.361
80245W        W48586  10.377   4.258  12.943
80246W        W48587  28.555  32.567   1.400
80247W        W48588  34.075  23.993  14.891
80248W        W48589  33.012   1.834  12.347
80249W        W48590   0.977  23.529  14.951
80250W        W48591  16.640  11.197  12.917
80251W        W48592  42.948  33.039   2.329
80252W        W48593  42.904  23.644   0.883
80253W        W48594   4.789   3.300   3.242
80254W        W48595   1.309  26.968  10.942
80255W        W48596  38.073  35.411  12.558
80256W        W48597  33.614  41.818  10.405
80257W        W48598  41.788  23.666  14.801
80258W        W48599  17.171  37.546   4.289
80259W        W48600   5.827  10.761  11.886
80260W        W48601  40.517  12.752  13.347
80261W        W48602   6.276  16.761   3.640
80262W        W48603  10.168   5.275  13.932
80263W        W48604   7.410   1.795   1.254
80264W        W48605   8.864  23.111  14.028
80265W        W48606   7.177  21.062  13.857
80266W        W48607  18.080  16.134   1.765
80267W        W48608  15.084   5.388  11.558
80268W        W48609   8.368   7.349   0.747
80269W        W48610   4.896  44.963   2.419
80270W        W48611   3.792  19.735   4.798
80271W        W48612  29.062   9.206  11.390
80272W        W48613  34.873  32.579   4.351
80273W        W48614  39.438  42.353  13.444
80274W        W48615  41.381   3.415  11.005
80275W        W48616  37.582  14.340   4.190
80276W        W48617  44.898  11.696  13.392
80277W        W48618  32.007  36.528   1.423
80278W        W48619  28.614  34.035   2.419
80279W        W48620  43.278  13.295  14.325
80280W        W48621  10.146  21.692  13.836
80281W        W48622  24.714  11.653   0.849
80282W        W48623   6.208  27.046   2.818
80283W        W48624  30.116  23.716   3.686
80284W        W48625  24.110  12.662   3.753
80285W        W48626  10.681  19.546   3.815
80286W        W48627  33.405  20.532   2.706
80287W        W48628   7.344   0.869  12.942
80288W        W48629  40.972  18.744  12.971
80289W        W48630  40.931  17.577   1.293
80290W        W48631   4.408   3.729   2.214
80291W        W48632  12.164  20.691   4.810
80292W        W48633  20.071  24.981   4.205
80293W        W48634  35.579   0.941  12.434
80294W        W48635  35.088  39.989   2.303
80295W        W48636  38.334   4.220   3.820
80296W        W48637  20.097   4.318   3.344
80297W        W48638  40.934  44.973   3.772
80298W        W48639  14.671  27.951   3.854
80299W        W48640  22.579  10.642   4.752
80300W        W48641  38.833   9.738  12.514
80301W        W48642  37.026  24.696   1.822
80302W        W48643  40.864  18.556  11.563
80303W        W48644  27.971  31.484  12.001
80304W        W48645  32.591  40.988  14.324
80305W        W48646   0.831   2.798  13.504
80306W        W48647  11.313  28.497   2.711
80307W        W48648   2.782  38.950  12.425
80308W        W48649  18.775  20.686  12.882
80309W        W48650   7.413  14.134  12.546
80310W        W48651  23.037   6.770   4.232
80311W        W48652  20.696   9.299  11.525
80312W        W48653  33.911  41.367   2.261
80313W        W48654   2.906   2.363   1.718
80314W        W48655  40.006   1.280  12.937
80315W        W48656  38.335   9.253   1.769
80316W        W48657   6.791  33.427   3.707
80317W        W48658  44.968  25.198  10.608
80318W        W48659  35.556  34.458   2.680
80319W        W48660  29.570  11.350  10.026
80320W        W48661  21.020  31.961   1.729
80321W        W48662  17.689  12.761  11.936
80322W        W48663  29.011  44.005  11.098
80323W        W48664   6.700  30.593  14.003
80324W        W48665   2.281  36.967  13.480
80325W        W48666  29.985   6.267   4.174
80326W        W48667  35.386  15.712   0.308
80327W        W48668  23.240  23.993   4.201
80328W        W48669  17.279  40.496  13.321
80329W        W48670   1.466  31.476  10.534
80330W        W48671  20.135  16.566   1.819
80331W        W48672   8.265  40.403   1.814
80332W        W48673   5.220  38.011   3.782
80333W        W48674  22.153  15.620   1.747
80334W        W48675  44.433  13.183   2.255
80335W        W48676  26.556  23.150   4.173
80336W        W48677  26.534  42.314   2.229
80337W        W48678  39.430  23.180   2.307
80338W        W48679  40.406  22.528   4.736
80339W        W48680  11.217  11.211  11.572
80340W        W48681  25.085  40.898  10.539
80341W        W48682  40.358  16.199   3.333
80342W        W48683  43.505  36.952   4.212
80343W        W48684  32.928  21.685   0.907
80344W        W48685   3.752  43.321   0.869
80345W        W48686  38.477  33.450  12.059
80346W        W48687  21.064  29.538   0.893
80347W        W48688  29.518  13.108   4.145
80348W        W48689  32.897  24.996  11.124
80349W        W48690  42.815   1.389  10.502
80350W        W48691  25.976  18.053  14.911
80351W        W48692  16.175  26.531  14.830
80352W        W48693  29.603   8.323   3.660
80353W        W48694  10.252  16.700  14.793
80354W        W48695  35.583  14.284  12.543
80355W        W48696  21.036  40.847  11.946
80356W        W48697   1.313  34.970  14.022
80357W        W48698  30.489   6.297  10.893
80358W        W48699  38.481  12.638  13.970
80359W        W48700  27.533  29.658   0.935
80360W        W48701  13.842  43.866  11.570
80361W        W48702   8.170  31.409  13.309
80362W        W48703  11.158  30.536  13.809
80363W        W48704  12.195  42.918   1.385
80364W        W48705  12.209   6.775  13.513
80365W        W48706  39.515   8.826   5.140
80366W        W48707  20.216  43.273   4.726
80367W        W48708  31.035  41.487  10.047
80368W        W48709  43.356   9.191   0.784
80369W        W48710   5.904  27.083   3.708
80370W        W48711   3.766  13.300   2.885
80371W        W48712   5.206   0.309  11.426
80372W        W48713   1.350  15.165  12.352
80373W        W48714  30.433  15.769  10.979
80374W        W48715   6.301   0.808   3.200
80375W        W48716  16.162  35.051   9.948
80376W        W48717  37.521   1.323  11.414
80377W        W48718  39.354  14.795   1.732
80378W        W48719   1.850  29.446   2.221
80379W        W48720   3.305  36.996   2.776
80380W        W48721  31.046   3.902  11.958
80381W        W48722  42.782  15.655  12.055
80382W        W48723   5.918  25.025  12.360
80383W        W48724  16.077  38.550  14.335
80384W        W48725   8.201  19.044  10.464
80385W        W48726  18.566  44.409  13.931
80386W        W48727   7.677  10.272   3.367
80387W        W48728  27.103  37.347   4.652
80388W        W48729   6.405  29.552   0.779
80389W        W48730  42.379  36.999  14.977
80390W        W48731   0.313  33.992   4.329
80391W        W48732  27.026  20.145   0.483
80392W        W48733  35.076  13.315  11.897
80393W        W48734  27.646  26.627   3.307
80394W        W48735  37.991  25.052   4.180
80395W        W48736  18.647  13.262   1.359
80396W        W48737  34.609  30.945  14.803
80397W        W48738  36.848  40.870  11.916
80398W        W48739   5.709  39.357  10.928
80399W        W48740  10.797  32.597   4.735
80400W        W48741  24.085   9.826  13.386
80401W        W48742  39.917  22.038   3.774
80402W        W48743  26.108  22.733  12.949
80403W        W48744  42.359  30.136  13.948
80404W        W48745   2.898  26.599   0.777
80405W        W48746   0.879   4.345  10.519
80406W        W48747   2.844  29.114  13.875
80407W        W48748  34.061  28.646  13.483
80408W        W48749   6.341  42.777   1.817
80409W        W48750  38.907  16.756   2.207
80410W        W48751   3.822  27.486   2.874
80411W        W48752  23.640  29.112   4.721
80412W        W48753  13.288  21.636   3.661
80413W        W48754   8.782   1.903   3.638
80414W        W48755  35.545  17.794   4.202
80415W        W48756  37.013  41.517  10.467
80416W        W48757   4.882  35.555  12.412
80417W        W48758  15.201  28.631  14.311
80418W        W48759  23.032  44.406  10.903
80419W        W48760  44.780  42.463  14.430
80420W        W48761   9.389  43.766   2.392
80421W        W48762  28.090  28.978   2.409
80422W        W48763   5.933  33.921  14.808
80423W        W48764  37.025   0.977  14.332
80424W        W48765   4.871  28.489   4.641
80425W        W48766  10.685  39.943  12.524
80426W        W48767  41.472  27.536   3.701
80427W        W48768   4.706   2.434   3.313
80428W        W48769   5.762  39.829   4.777
80429W        W48770  31.628  20.233   4.742
80430W        W48771  15.263  23.491   2.414
80431W        W48772  43.802  19.210   3.734
80432W        W48773  12.196  10.284  11.989
80433W        W48774  21.650  40.488   1.311
80434W        W48775  40.026  35.973   0.325
80435W        W48776   0.277   4.265   2.690
80436W        W48777   1.322  16.285  10.449
80437W        W48778  21.061  42.823  10.997
80438W        W48779   9.795   5.730   3.751
80439W        W48780  13.728  32.596   0.924
80440W        W48781  25.532  43.484  14.967
80441W        W48782  18.693   7.391  10.569
80442W        W48783   8.817  25.562  14.278
80443W        W48784   3.899  27.084   3.165
80444W        W48785  18.098  15.760  12.061
80445W        W48786  24.034  18.193   3.381
80446W        W48787  28.585   1.483  12.375
80447W        W48788   9.736  36.463  14.762
80448W        W48789   0.402   5.916   4.808
80449W        W48790  25.482   2.226  10.460
80450W        W48791  44.864   8.896   0.290
80451W        W48792   4.242   9.716  11.533
80452W        W48793  27.611  16.630  12.932
80453W        W48794   7.216  23.039   2.862
80454W        W48795   0.440   3.393  14.761
80455W        W48796  35.400   2.336   4.252
80456W        W48797  26.168  34.877   0.808
80457W        W48798  40.415   7.851  14.020
80458W        W48799  22.220  43.877  11.036
80459W        W48800  10.792   3.418  14.930
80460W        W48801  41.326  36.408   3.260
80461W        W48802  42.807   8.700   0.461
80462W        W48803  20.089   0.298   4.343
80463W        W48804   4.378  36.098  12.015
80464W        W48805  25.989  13.717  13.373
80465W        W48806  15.239   2.321  10.426
80466W        W48807  39.454  15.228  11.910
80467W        W48808  32.425  39.870  10.600
80468W        W48809  24.612  23.512   3.738
80469W        W48810  15.224   2.795   3.262
80470W        W48811  29.941  38.885  10.518
80471W        W48812  30.539  15.095   4.143
80472W        W48813  33.507  44.439   3.785
80473W        W48814   1.365  29.989  14.365
80474W        W48815  43.776   3.837  13.484
80475W        W48816  10.870  14.764  12.090
80476W        W48817  44.265  21.106  11.611
80477W        W48818  42.023   2.760  11.083
80478W        W48819  22.170  32.620   4.193
80479W        W48820  34.534  12.674   3.286
80480W        W48821  16.289  30.107   0.470
80481W        W48822  39.382  16.110   2.748
80482W        W48823  17.699  36.979   0.368
80483W        W48824  40.851  18.227   0.736
80484W        W48825  34.982   5.715   0.750
80485W        W48826  26.067  23.533  13.936
80486W        W48827  40.822  19.757  12.968
80487W        W48828  18.763  42.284  14.499
80488W        W48829  28.065   2.898  10.007
80489W        W48830  15.221  25.021   1.416
80490W        W48831   4.845  24.678   3.195
80491W        W48832   6.786   9.273  13.011
80492W        W48833  39.473  30.103  12.826
80493W        W48834  16.217  40.449  11.408
80494W        W48835  44.790  22.652  11.533
80495W        W48836  22.115  19.205  11.483
80496W        W48837  32.934  33.417  14.510
80497W        W48838  21.511  12.685   3.310
80498W        W48839  19.225  44.794  12.449
80499W        W48840  43.296  40.462   2.697
80500W        W48841  20.661  27.674   4.782
80501W        W48842  12.857  37.034  14.022
80502W        W48843   6.361  21.606  13.523
80503W        W48844  35.908  43.787  14.974
80504W        W48845  15.709  40.413  13.487
80505W        W48846  14.820  43.854  13.037
80506W        W48847  42.464   0.469   1.838
80507W        W48848  22.999  21.049   1.906
80508W        W48849  12.806   6.682  14.782
80509W        W48850  29.091  32.001  11.046
80510W        W48851  25.219  14.277  10.610
80511W        W48852  39.894  22.546  14.491
80512W        W48853   1.371  22.013   1.277
80513W        W48854  38.035  26.193   2.265
80514W        W48855  37.878  26.987   1.933
80515W        W48856  21.142  16.228   4.754
80516W        W48857  41.976  17.777   2.389
80517W        W48858  27.115  40.916  13.322
80518W        W48859  11.855  33.902   1.918
80519W        W48860   9.703  17.169   4.262
80520W        W48861  35.480   1.775  11.930
80521W        W48862  35.390  15.672   1.424
80522W        W48863  23.657  35.104  11.033
80523W        W48864  38.373  31.582   2.214
80524W        W48865   2.236   3.426   2.378
80525W        W48866  35.919  16.250   0.925
80526W        W48867  14.826   4.380   1.934
80527W        W48868  17.204  20.711   9.638
80528W        W48869  24.592  12.676   3.164
80529W        W48870  16.112  43.481  13.028
80530W        W48871  37.338  41.969   2.728
80531W        W48872  13.710  38.451   3.809
80532W        W48873   0.450  19.201  11.610
80533W        W48874  43.885  14.105  11.923
80534W        W48875  14.294   7.692  11.408
80535W        W48876  14.709   6.238  13.983
80536W        W48877  34.116  11.776  13.843
80537W        W48878  37.951  42.366   4.815
80538W        W48879  41.828  36.363  10.467
80539W        W48880   6.746  31.992  11.011
80540W        W48881   6.782  12.655  10.420
80541W        W48882  11.677  33.965  12.578
80542W        W48883  44.898  30.121  11.069
80543W        W48884  35.541  39.034   3.285
80544W        W48885   7.258  24.037   4.656
80545W        W48886  16.626   6.749   4.602
80546W        W48887  15.808   5.197  14.473
80547W        W48888  36.561  14.282  14.397
80548W        W48889  42.942  32.530  10.968
80549W        W48890  40.848   9.308   1.915
80550W        W48891   3.262   3.733  12.578
80551W        W48892  40.802  16.170   2.857
80552W        W48893  22.018  31.135   3.861
80553W        W48894   1.748   6.349  13.997
80554W        W48895  24.004  30.483   5.193
80555W        W48896   9.800  37.021  11.508
80556W        W48897  22.635  34.955   2.262
80557W        W48898  17.226  17.275  14.444
80558W        W48899  25.513  26.598  11.562
80559W        W48900  15.315  11.832  12.916
80560W        W48901  15.819  10.635  13.925
80561W        W48902  20.572  41.990  14.887
80562W        W48903  41.859  17.076   4.119
80563W        W48904  38.850  25.611  13.804
80564W        W48905   5.702  24.561   1.366
80565W        W48906  42.323   5.196  13.863
80566W        W48907  19.085  41.502  12.487
80567W        W48908  19.738  31.950  10.495
80568W        W48909   9.657  10.271  14.496
80569W        W48910  16.206  24.146   1.874
80570W        W48911  32.526  34.948   0.435
80571W        W48912  43.998   2.859   3.326
80572W        W48913   7.291  44.504  11.960
80573W        W48914  19.676  35.022   0.427
80574W        W48915  39.035  25.485  11.104
80575W        W48916  13.261  39.998   2.310
80576W        W48917  11.163  12.782   0.444
80577W        W48918  29.660  35.000  11.440
80578W        W48919  14.151  26.029   1.874
80579W        W48920  23.661   5.293   4.729
80580W        W48921   9.291   7.783  11.893
80581W        W48922   4.388  28.156  13.974
80582W        W48923  21.578   4.324   0.820
80583W        W48924  36.574  19.139   0.927
80584W        W48925  37.886  22.567   4.155
80585W        W48926   3.267  43.478  14.455
80586W        W48927  20.729  44.867  11.065
80587W        W48928  23.202  17.594  13.519
80588W        W48929  35.921  27.115  14.331
80589W        W48930  20.574  12.620  13.942
80590W        W48931  30.445  20.530  13.417
80591W        W48932   1.847  10.651   4.809
80592W        W48933  40.384   4.779  12.372
80593W        W48934  41.893  37.517   3.845
80594W        W48935   9.293  36.881  14.758
80595W        W48936  17.152  29.118   9.989
80596W        W48937  42.895  29.550   1.318
80597W        W48938  34.416  34.942  14.311
80598W        W48939  30.478  22.129   2.759
80599W        W48940  14.128   3.290   4.311
80600W        W48941   3.719  23.126   2.739
80601W        W48942  33.050   9.232   3.654
80602W        W48943   8.817  44.003   4.675
80603W        W48944   0.433  20.089  12.957
80604W        W48945  11.760  37.901   2.401
80605W        W48946  10.675  31.619   1.792
80606W        W48947  33.524  25.161  11.495
80607W        W48948  22.223  21.537   2.197
80608W        W48949   4.854   4.302  10.449
80609W        W48950  43.365  34.471   1.367
80610W        W48951  29.589  24.119  11.452
80611W        W48952  24.637  29.987   2.392
80612W        W48953  32.982  43.930   1.895
80613W        W48954  15.286  23.175  14.955
80614W        W48955  23.154  16.794   0.413
80615W        W48956  22.603  43.329  10.987
80616W        W48957  37.841  26.078   1.899
80617W        W48958  42.862  43.370  13.000
80618W        W48959  13.203  24.107   0.457
80619W        W48960  27.969   7.726  13.324
80620W        W48961  32.392  41.302   4.301
80621W        W48962  36.491  15.726   0.922
80622W        W48963  29.093  44.833  13.430
80623W        W48964  31.506  25.628  13.447
80624W        W48965  44.468   9.859  13.422
80625W        W48966  34.542  16.700  13.853
80626W        W48967  27.546  23.681  13.391
80627W        W48968  19.583  30.986  11.937
80628W        W48969  33.616  24.628   3.642
80629W        W48970  43.435   8.165  13.802
80630W        W48971  43.999  32.898  12.039
80631W        W48972  42.460  13.282   2.231
80632W        W48973   3.439  43.948  10.108
80633W        W48974  16.569   9.650  12.477
80634W        W48975  31.441  29.053  11.534
80635W        W48976  15.282  40.488   3.863
80636W        W48977  22.033  27.977   3.789
80637W        W48978  18.097  10.751  10.617
80638W        W48979   5.732   4.395   0.260
80639W        W48980  36.558   3.392   1.444
80640W        W48981  13.812   7.208  14.482
80641W        W48982  24.673  23.991   2.349
80642W        W48983   3.424  26.493  14.491
80643W        W48984  42.861  35.980  12.997
80644W        W48985   7.783  39.874  11.120
80645W        W48986   2.302  39.821  14.509
80646W        W48987  31.518   8.677  13.320
80647W        W48988  11.253   7.747   2.773
80648W        W48989  16.287  12.745   3.763
80649W        W48990  10.299  22.205  11.612
80650W        W48991  16.673  34.953   1.869
80651W        W48992  35.496  31.509   3.817
80652W        W48993  12.132  18.565   3.265
80653W        W48994  31.645  20.557   0.337
80654W        W48995  23.178  41.964  14.963
80655W        W48996   5.224  18.654  14.936
80656W        W48997  14.217  32.440  12.473
80657W        W48998   4.425  28.551  13.506
80658W        W48999  22.130  39.461   2.862
80659W        W49000  12.759  23.172  13.844
80660W        W49001  23.613  40.020   1.288
80661W        W49002  31.951  40.832  10.917
80662W        W49003  33.995   2.740  11.966
80663W        W49004  31.914  29.636  13.991
80664W        W49005  31.944  15.604   3.853
80665W        W49006  10.879  32.982   2.741
80666W        W49007   5.754  33.473  14.323
80667W        W49008  37.368  39.346  14.382
80668W        W49009   8.345  23.692   2.397
80669W        W49010   9.730  27.163   2.752
80670W        W49011   1.879  28.506  11.607
80671W        W49012   7.242  21.566  13.046
80672W        W49013  15.226  21.719  14.362
80673W        W49014  44.762   2.423   1.718
80674W        W49015  19.650  39.994   0.905
80675W        W49016  21.061  13.336   1.888
80676W        W49017  18.651  18.547  14.974
80677W        W49018  43.004  25.653  11.064
80678W        W49019   6.837  30.419   3.729
80679W        W49020  18.230  44.820   0.926
80680W        W49021   0.857  24.536  12.467
80681W        W49022  40.336  16.125  13.340
80682W        W49023  27.448   8.730   4.160
80683W        W49024  25.003  16.583   1.733
80684W        W49025  39.876  38.024  10.626
80685W        W49026  31.005  18.139  14.876
80686W        W49027  30.921  40.355   1.751
80687W        W49028  24.629  10.736  11.402
80688W        W49029   2.922  27.674   4.238
80689W        W49030  13.247  34.969   0.294
80690W        W49031  23.639   8.291   2.703
80691W        W49032   2.741  36.495   0.418
80692W        W49033  25.509  32.566  13.532
80693W        W49034  41.327  34.965   1.250
80694W        W49035  17.220   1.316  10.565
80695W        W49036  11.187  29.438  13.351
80696W        W49037   3.337  27.538  11.382
80697W        W49038  24.487  28.124   3.637
80698W        W49039  26.662   2.426   1.847
80699W        W49040  15.152  26.701  13.968
80700W        W49041  44.496  35.963   3.639
80701W        W49042  15.275   8.897  11.103
80702W        W49043  25.540  21.027  13.481
80703W        W49044  28.163   7.411   1.268
80704W        W49045  25.490  18.616  13.544
80705W        W49046  11.751  34.884   2.735
80706W        W49047  34.395   5.719   4.133
80707W        W49048  23.729  41.492  10.989
80708W        W49049  32.930  27.680  12.566
80709W        W49050  21.704  13.338   2.294
80710W        W49051   9.189   2.772  12.886
80711W        W49052  33.380  17.794  14.977
80712W        W49053  31.587  22.067   4.825
80713W        W49054  31.616  16.075  12.960
80714W        W49055  11.729  23.236  12.554
80715W        W49056  16.083  13.675   4.788
80716W        W49057   0.896  37.459  12.563
80717W        W49058  21.222  40.832   2.836
80718W        W49059   6.280  17.736  13.508
80719W        W49060  28.030  19.570  12.987
80720W        W49061  44.945   2.739   4.700
80721W        W49062  40.864   4.344   0.373
80722W        W49063  11.210  38.055   4.313
80723W        W49064  24.484  28.640  12.534
80724W        W49065  29.638  20.634   4.301
80725W        W49066  11.139   2.358   0.303
80726W        W49067  20.705  23.718  10.451
80727W        W49068  37.543  24.028   3.660
80728W        W49069  41.797  17.085  14.001
80729W        W49070  23.171   4.353  10.464
80730W        W49071   9.749  24.197  12.416
80731W        W49072   2.782  15.125   2.856
80732W        W49073  34.537  21.052   1.749
80733W        W49074  33.895  38.357  13.929
80734W        W49075  17.274  10.203   4.803
80735W        W49076   4.285  29.578   3.835
80736W        W49077  42.291  20.529   2.268
80737W        W49078  43.470  10.147  11.386
80738W        W49079  29.043  22.079   1.713
80739W        W49080   9.833   1.359   1.803
80740W        W49081   2.375   0.270   0.940
80741W        W49082  34.400  10.145   1.900
80742W        W49083   0.795   7.190   1.346
80743W        W49084   5.928  17.133  11.968
80744W        W49085   9.245  22.635  14.945
80745W        W49086  17.582  33.918  10.983
80746W        W49087   1.254  21.606  11.095
80747W        W49088  32.630   6.196  13.402
80748W        W49089  32.035  38.567   0.314
80749W        W49090   6.376  33.578  14.967
80750W        W49091  41.917  22.644  13.873
80751W        W49092  31.101  21.660   1.349
80752W        W49093  17.720   0.762   3.200
80753W        W49094  16.658  17.095  13.343
80754W        W49095  41.945  11.373  11.119
80755W        W49096   0.751  19.777  12.049
80756W        W49097  19.224  40.473  14.831
80757W        W49098  17.131  37.936   2.731
80758W        W49099   2.313  44.846  14.858
80759W        W49100   9.678  32.025   4.261
80760W        W49101  37.007  41.857   0.391
80761W        W49102  32.533  13.220   0.951
80762W        W49103  20.152  19.567   2.214
80763W        W49104  28.104   9.188  12.957
80764W        W49105   2.948  38.029   4.674
80765W        W49106  19.213  34.465  12.350
80766W        W49107  19.223  20.032   2.369
80767W        W49108   5.217  27.148  12.925
80768W        W49109  44.769  36.074   1.926
80769W        W49110  33.601  13.688  13.364
80770W        W49111  31.982  21.059   1.449
80771W        W49112  43.797  39.316   4.286
80772W        W49113  30.007  28.119   0.389
80773W        W49114  40.942  16.741  11.548
80774W        W49115  41.479  33.993  12.861
80775W        W49116  31.639  38.413  10.437
80776W        W49117   4.889   7.824  14.368
80777W        W49118  28.106  31.119   4.716
80778W        W49119   5.711  28.544   3.854
80779W        W49120  34.457  41.517  12.382
80780W        W49121  37.529  37.487   3.295
80781W        W49122  22.066  13.289  12.405
80782W        W49123  34.382  25.502   0.962
80783W        W49124  18.166  23.642   4.800
80784W        W49125  22.191   4.712   4.599
80785W        W49126  24.223  33.506   2.805
80786W        W49127  38.337  13.152  11.983
80787W        W49128  17.654  27.034   4.797
80788W        W49129   2.314  24.976   5.298
80789W        W49130  29.493  30.084   3.833
80790W        W49131  44.406  29.549  11.383
80791W        W49132   4.758   0.375   9.920
80792W        W49133  36.465  25.682   4.724
80793W        W49134  14.135  23.144   3.357
80794W        W49135  25.672  36.512  11.541
80795W        W49136  27.071   3.874   2.845
80796W        W49137  31.422  19.537   4.331
80797W        W49138   4.721  32.050  12.000
80798W        W49139  44.398  31.939  13.313
80799W        W49140   8.321  36.522  14.943
80800W        W49141  28.634  23.503   0.806
80801W        W49142  28.968  40.502   0.335
80802W        W49143  37.572  27.969  12.560
80803W        W49144  10.768  39.432  12.906
80804W        W49145  21.664  43.978   0.351
80805W        W49146  18.292  17.103   4.174
80806W        W49147  25.966  14.311  11.928
80807W        W49148  40.947  40.412   5.253
80808W        W49149  12.197  21.241   3.231
80809W        W49150   4.777  35.899   2.372
80810W        W49151  28.519   3.254  11.042
80811W        W49152  16.715  26.000  11.062
80812W        W49153  28.990   8.860  14.379
80813W        W49154  34.042  37.976   0.837
80814W        W49155  27.600  14.717   2.311
80815W        W49156   9.768  42.468  11.894
80816W        W49157  15.675  17.716   3.811
80817W        W49158  35.423   6.805   4.191
80818W        W49159  35.478  35.039   1.348
80819W        W49160   0.876  22.061  12.377
80820W        W49161  41.036  40.389   9.921
80821W        W49162  40.309   1.284  13.474
80822W        W49163  38.995   3.864  11.523
80823W        W49164  35.452  21.651   4.268
80824W        W49165  15.730  39.864  11.477
80825W        W49166   0.262  11.686  14.839
80826W        W49167  21.253  19.752   4.767
80827W        W49168  33.097  39.974   3.856
80828W        W49169  24.108  12.171  14.003
80829W        W49170  37.446   1.914   0.353
80830W        W49171  40.429   3.819   3.179
80831W        W49172   7.242  24.184  11.000
80832W        W49173   3.821  23.068   0.431
80833W        W49174   9.650  14.635   4.605
80834W        W49175   4.229  19.223   0.402
80835W        W49176  28.142   3.865   2.254
80836W        W49177  22.225  42.323  13.331
80837W        W49178  18.114   0.880   4.219
80838W        W49179  34.881  19.729  14.294
80839W        W49180  41.511   6.755  11.020
80840W        W49181  37.520  32.947   3.169
80841W        W49182  36.959   6.258   0.749
80842W        W49183  25.193  36.000  11.125
80843W        W49184  38.844  43.873  11.900
80844W        W49185   3.387  21.746   4.739
80845W        W49186  39.046   5.300   2.295
80846W        W49187  36.580   3.396   4.668
80847W        W49188  35.017   2.759  10.958
80848W        W49189  37.345  25.008   3.212
80849W        W49190  29.579  31.050  13.497
80850W        W49191  40.304  30.054   4.332
80851W        W49192   8.165   3.811  12.041
80852W        W49193  21.611  44.291   1.417
80853W        W49194   3.448  17.717  11.052
80854W        W49195   6.264   1.937   0.386
80855W        W49196  18.051   2.949  11.389
80856W        W49197  15.097  10.202   2.361
80857W        W49198  34.411  27.019   2.338
80858W        W49199  23.060   8.806  11.907
80859W        W49200  20.579  26.109  13.913
80860W        W49201  33.524  23.692   4.808
80861W        W49202  24.601  12.172  11.573
80862W        W49203  28.548  32.602  14.408
80863W        W49204  32.421  18.087   1.242
80864W        W49205  32.568  11.660   4.787
80865W        W49206  23.007  11.865   3.304
80866W        W49207  17.591   1.251   1.376
80867W        W49208  23.528  20.128  10.045
80868W        W49209   4.705  16.136  12.934
80869W        W49210  30.964  17.065   3.360
80870W        W49211   7.391  32.926   3.839
80871W        W49212  15.264  33.005   3.668
80872W        W49213  18.111  33.105   0.816
80873W        W49214  33.927   8.193  11.473
80874W        W49215   1.731  41.373  10.479
80875W        W49216  11.628  37.845   3.276
80876W        W49217  16.620   2.372   4.838
80877W        W49218  17.252  39.988   4.644
80878W        W49219  44.360  19.620  12.915
80879W        W49220   1.909  30.918   1.333
80880W        W49221   6.272  33.124   3.355
80881W        W49222  19.756  39.899  14.773
80882W        W49223  34.897  18.163   1.438
80883W        W49224  40.397  27.510  11.520
80884W        W49225  23.026  19.707  14.467
80885W        W49226   1.819  27.051  11.580
80886W        W49227   0.909  13.689  10.527
80887W        W49228  12.255   9.160   3.380
80888W        W49229  34.036   3.373  13.911
80889W        W49230  39.443   6.848   0.788
80890W        W49231  42.916  22.606   2.718
80891W        W49232  42.985   5.808   1.881
80892W        W49233   1.465  35.501   3.329
80893W        W49234  35.933  30.983  12.462
80894W        W49235  37.538  17.108  14.841
80895W        W49236  23.100  38.521  11.957
80896W        W49237  12.712  43.453  12.417
80897W        W49238  14.645  16.274  13.809
80898W        W49239  28.071  41.884  14.893
80899W        W49240  18.070  28.479   3.296
80900W        W49241  21.186  27.196   2.678
80901W        W49242  24.056   4.761   3.631
80902W        W49243  29.632  34.559   2.725
80903W        W49244   8.386  26.645  13.966
80904W        W49245  15.756  11.805  14.024
80905W        W49246  12.314  12.688   5.641
80906W        W49247  32.112  39.494   0.730
80907W        W49248  35.019   2.335   0.439
80908W        W49249   7.401  44.787  12.350
80909W        W49250   4.717  29.091  13.538
80910W        W49251   4.319   1.434  13.875
80911W        W49252   7.342  40.961   2.214
80912W        W49253  22.617   8.313  12.058
80913W        W49254   3.955  13.736  12.548
80914W        W49255  18.258   1.973   1.802
80915W        W49256  43.910  21.565   9.535
80916W        W49257   0.370  28.614  11.415
80917W        W49258  25.197  38.375   3.383
80918W        W49259  13.833   0.369   3.724
80919W        W49260  17.719  35.856   4.764
80920W        W49261  42.303  22.703   3.364
80921W        W49262  21.727  31.106  11.606
80922W        W49263  40.544  33.918  12.915
80923W        W49264  40.875  26.609  10.945
80924W        W49265   9.830   4.296   1.763
80925W        W49266  37.442   0.303  11.094
80926W        W49267  13.182  34.013   3.694
80927W        W49268   9.742   0.978   2.189
80928W        W49269  39.427  42.809  13.967
80929W        W49270  27.603   7.336   1.225
80930W        W49271  39.913  16.183  14.493
80931W        W49272  16.619  30.428   3.379
80932W        W49273   0.311  33.561   3.334
80933W        W49274  21.087  13.168  14.484
80934W        W49275  29.168  38.458   0.298
80935W        W49276  30.941  42.494   2.740
80936W        W49277   0.310   0.755   3.158
80937W        W49278  25.106   8.824  14.482
80938W        W49279  29.531  22.211  12.914
80939W        W49280  13.142   6.207   4.682
80940W        W49281  23.585  15.253  14.492
80941W        W49282   3.335  20.593  12.580
80942W        W49283  22.678  32.097   5.205
80943W        W49284  32.475  27.179   4.718
80944W        W49285  41.385  10.776  12.036
80945W        W49286   4.739   8.667   4.646
80946W        W49287  31.403  21.197  13.928
80947W        W49288   4.203   1.343   2.687
80948W        W49289  24.624   7.393  14.782
80949W        W49290  18.648  10.245   5.099
80950W        W49291  31.004  19.600  10.029
80951W        W49292  31.941   7.909  14.949
80952W        W49293  31.624  35.430  14.480
80953W        W49294  38.923  35.366   2.876
80954W        W49295  39.935   4.801  12.490
80955W        W49296  23.550   9.343   0.354
80956W        W49297  30.136  14.162  12.824
80957W        W49298  40.041  34.014   0.296
80958W        W49299  21.254  21.202   4.231
80959W        W49300   3.798  34.420  14.469
80960W        W49301  16.090   6.369  11.412
80961W        W49302  44.263  29.056   0.853
80962W        W49303   1.787  14.289   0.479
80963W        W49304  30.581  44.927   2.888
80964W        W49305  22.637  26.701   1.853
80965W        W49306  29.433  35.413   3.197
80966W        W49307  20.594  22.638   4.764
80967W        W49308  11.344   4.288   3.152
80968W        W49309  14.790  43.819   1.932
80969W        W49310  21.225  39.552  13.934
80970W        W49311   5.290  16.760  14.998
80971W        W49312  25.006   4.741  12.949
80972W        W49313  31.615  29.014  12.025
80973W        W49314  35.854  35.078   3.208
80974W        W49315  29.613  22.193   0.926
80975W        W49316  21.259   0.368  11.415
80976W        W49317  42.428  42.378  14.508
80977W        W49318  40.451  34.532  14.402
80978W        W49319  36.346  29.087   1.734
80979W        W49320  36.543  34.463   3.849
80980W        W49321  21.513  11.291  13.045
80981W        W49322  10.720  19.152  13.848
80982W        W49323  22.613  15.325   0.368
80983W        W49324  29.629  18.216   2.833
80984W        W49325  11.742  41.040  11.610
80985W        W49326  37.856  22.675   3.317
80986W        W49327  30.933   4.333  12.859
80987W        W49328  43.386  26.665   2.408
80988W        W49329  13.195  24.506   4.223
80989W        W49330  22.557   2.402   3.329
80990W        W49331  23.218   1.256  12.421
80991W        W49332  21.528  18.099   2.846
80992W        W49333   8.760  37.929   5.212
80993W        W49334  16.621  21.192  11.537
80994W        W49335  40.540  36.584   3.365
80995W        W49336  44.813  31.532   2.374
80996W        W49337  40.410  13.270  12.530
80997W        W49338  30.440  40.944   1.836
80998W        W49339   0.869   5.393   2.814
80999W        W49340  12.733  42.838  13.935
81000W        W49341  26.061  29.644  10.020
81001W        W49342  43.966   9.370   2.850
81002W        W49343  30.413  35.367  10.978
81003W        W49344  24.118  16.775   4.657
81004W        W49345  12.846  30.925   2.329
81005W        W49346   6.293  26.607   3.862
81006W        W49347   2.770  21.645   2.823
81007W        W49348  15.633  26.673   4.627
81008W        W49349  34.509   1.839  11.478
81009W        W49350  28.058  21.513   2.306
81010W        W49351   5.749  35.502   1.383
81011W        W49352  24.712  41.879   2.207
81012W        W49353  20.741  22.714   3.160
81013W        W49354  15.128  32.935   1.316
81014W        W49355  37.516   1.977   4.736
81015W        W49356  14.340  37.491  10.148
81016W        W49357  33.405  39.817   5.315
81017W        W49358   7.753  41.823   2.690
81018W        W49359   0.854  44.786  13.977
81019W        W49360  23.532   4.825  11.043
81020W        W49361  35.071  14.321  11.519
81021W        W49362  13.777  20.588  13.804
81022W        W49363  24.650  20.602   0.445
81023W        W49364  22.673   6.202  13.992
81024W        W49365  29.028  34.932   0.459
81025W        W49366  44.880   0.768  12.037
81026W        W49367  14.272  33.036  12.421
81027W        W49368  36.996   4.296   3.275
81028W        W49369  16.610  12.234  11.094
81029W        W49370  27.465  17.223   4.164
81030W        W49371  23.567  13.345  12.887
81031W        W49372  27.958  31.016   3.653
81032W        W49373  27.448   1.911  13.351
81033W        W49374  18.645  40.316   3.214
81034W        W49375  20.766  33.969   0.483
81035W        W49376  25.583  15.125   1.704
81036W        W49377  31.552   3.738  12.010
81037W        W49378  19.571  40.338   5.259
81038W        W49379  18.749   2.229   0.761
81039W        W49380  38.571   1.364  10.477
81040W        W49381  31.961  39.423  11.483
81041W        W49382  44.317  33.408   4.762
81042W        W49383  43.875  43.888  14.413
81043W        W49384  25.115  22.173  11.063
81044W        W49385  35.597  12.760   1.825
81045W        W49386   7.353  14.806  12.472
81046W        W49387  20.614  17.127   3.319
81047W        W49388  34.408  36.982  13.451
81048W        W49389  40.390  10.286   2.797
81049W        W49390   3.718  19.541   2.872
81050W        W49391  14.301  14.804   2.354
81051W        W49392  13.333  35.600   0.958
81052W        W49393  13.751  35.988   2.302
81053W        W49394   0.744  10.719   0.382
81054W        W49395  28.022  12.180  12.574
81055W        W49396  42.353  25.536   3.654
81056W        W49397  12.708  11.779  10.459
81057W        W49398  27.022  44.396   9.985
81058W        W49399  12.167   3.409   3.149
81059W        W49400  34.028  35.472  12.390
81060W        W49401   2.939  41.316   4.602
81061W        W49402   9.674  41.891   3.853
81062W        W49403   6.423  39.945  14.467
81063W        W49404  23.582   0.473   1.830
81064W        W49405  22.702  31.900   0.777
81065W        W49406  18.120  31.921   0.256
81066W        W49407  32.635  16.259   1.912
81067W        W49408   9.671   7.812   3.163
81068W        W49409   6.267  39.940  10.097
81069W        W49410  42.328  24.683  10.564
81070W        W49411   2.444  21.119   0.853
81071W        W49412  12.233   0.961   1.866
81072W        W49413  32.401  14.243   1.885
81073W        W49414  28.667  28.530   2.720
81074W        W49415  16.178  22.115   2.237
81075W        W49416  41.870  28.553  11.030
81076W        W49417  21.176  28.006   4.115
81077W        W49418  28.467   4.914   3.688
81078W        W49419  11.716  29.492  11.940
81079W        W49420  33.491  28.090   5.257
81080W        W49421  40.845  29.538  10.908
81081W        W49422  41.959  38.444  12.907
81082W        W49423   1.770  36.924  11.528
81083W        W49424   6.859  44.801   0.960
81084W        W49425  32.410  11.703  13.404
81085W        W49426  11.149  35.548  12.372
81086W        W49427  30.038  24.552  14.824
81087W        W49428  36.415  42.847  12.441
81088W        W49429  30.624  20.271   0.437
81089W        W49430  21.754  17.764  10.958
81090W        W49431  13.720  43.296  12.956
81091W        W49432  11.163  16.714   0.265
81092W        W49433   0.850  10.202  11.522
81093W        W49434   5.810  24.538   0.294
81094W        W49435  20.164  14.723  12.852
81095W        W49436   8.337   0.903   0.793
81096W        W49437  17.208  36.445  13.466
81097W        W49438  38.491  24.653  12.017
81098W        W49439  29.089  38.032   4.675
81099W        W49440  39.027  37.890   2.316
81100W        W49441  35.373  18.211   1.408
81101W        W49442   5.310  20.535  14.833
81102W        W49443  15.586   0.489   4.747
81103W        W49444  18.595   0.897   2.857
81104W        W49445  33.607  39.851  12.086
81105W        W49446  19.121  14.180  13.052
81106W        W49447  26.032  17.288  14.510
81107W        W49448   2.288  37.515  11.042
81108W        W49449  17.716   0.475   4.766
81109W        W49450  34.088   1.810   3.658
81110W        W49451  20.664  32.968   3.205
81111W        W49452  33.057  16.234   3.691
81112W        W49453  14.287  31.447  12.982
81113W        W49454  34.602  28.181  12.984
81114W        W49455   1.361  43.330  10.996
81115W        W49456   4.436  35.031  12.894
81116W        W49457  40.463  17.119   4.319
81117W        W49458  19.562  22.226   3.851
81118W        W49459  28.014  39.445  13.440
81119W        W49460  29.928  17.270  14.943
81120W        W49461  27.588  41.373   4.300
81121W        W49462  27.610   6.323   1.285
81122W        W49463  38.484   7.344  12.389
81123W        W49464  13.676  24.488   3.794
81124W        W49465   1.246   9.200  13.945
81125W        W49466  22.126  29.160  10.555
81126W        W49467  43.331  38.893   1.361
81127W        W49468  21.699   8.300   3.710
81128W        W49469  12.814  13.124  11.089
81129W        W49470   2.440   8.234  13.856
81130W        W49471  44.303  41.006  14.009
81131W        W49472  38.354  20.671  10.451
81132W        W49473  24.982  28.970   3.704
81133W        W49474   9.248  43.276  12.992
81134W        W49475   9.727  22.713  12.827
81135W        W49476  16.247  12.326   3.838
81136W        W49477  22.580  43.937  10.604
81137W        W49478  16.258   1.270  13.442
81138W        W49479  16.789  25.164  10.608
81139W        W49480  35.414  24.205   3.283
81140W        W49481  34.989  15.687   1.442
81141W        W49482  32.021  31.546   2.367
81142W        W49483  33.896  29.115   3.322
81143W        W49484  21.158  12.788   3.650
81144W        W49485   4.313  10.377  13.892
81145W        W49486  29.145  40.526  12.501
81146W        W49487  27.589   2.804  10.951
81147W        W49488  20.101  35.459  12.404
81148W        W49489  33.530  26.655  12.985
81149W        W49490  17.109  39.518  13.883
81150W        W49491  16.807  18.756  13.950
81151W        W49492  13.651   7.902  13.884
81152W        W49493  25.145   6.756  13.441
81153W        W49494  29.039   7.254   0.257
81154W        W49495  13.607   9.785  11.033
81155W        W49496  40.471  31.451   0.967
81156W        W49497  35.897   6.289   1.751
81157W        W49498  41.402  28.996  10.545
81158W        W49499  43.904  17.168  12.469
81159W        W49500  12.762  38.443   4.331
81160W        W49501  12.697  39.447  14.476
81161W        W49502  34.061  26.058  12.456
81162W        W49503  20.225  42.815  11.404
81163W        W49504   9.873  19.734  12.906
81164W        W49505  13.774  25.620   4.631
81165W        W49506  16.090  21.554  11.433
81166W        W49507  24.614  37.474   3.243
81167W        W49508  25.484   3.788  12.557
81168W        W49509  18.253  32.012   4.684
81169W        W49510  13.214   1.328   1.816
81170W        W49511  34.495  44.356   2.359
81171W        W49512   9.745  41.422  11.508
81172W        W49513  18.595  35.904  12.564
81173W        W49514  23.690  10.823   3.180
81174W        W49515  10.283  23.993   3.730
81175W        W49516  40.517  37.850   0.905
81176W        W49517  44.308  22.581   2.896
81177W        W49518  35.460  16.176   2.233
81178W        W49519   7.679  11.658   0.480
81179W        W49520  27.039  12.781   3.773
81180W        W49521   7.754  24.612   2.374
81181W        W49522  41.468  30.100  14.459
81182W        W49523  35.547  35.415   2.284
81183W        W49524  32.001   8.216  10.580
81184W        W49525  27.615  18.788   2.191
81185W        W49526  14.227  43.804   1.331
81186W        W49527  36.438  33.470   3.866
81187W        W49528  10.258   0.491   0.365
81188W        W49529   4.914  16.136   4.609
81189W        W49530  26.459  22.149   1.751
81190W        W49531  23.169  20.231   0.351
81191W        W49532  36.898  43.982  13.987
81192W        W49533  12.118  44.427  13.808
81193W        W49534  18.156  40.797  11.385
81194W        W49535  15.666  19.598   0.734
81195W        W49536   6.867  40.023   2.745
81196W        W49537  44.371  18.781   0.437
81197W        W49538  23.194  38.895  13.989
81198W        W49539  36.441   5.727  13.513
81199W        W49540  15.707  44.972  13.520
81200W        W49541  11.652  31.423  14.983
81201W        W49542  30.033   2.359   4.233
81202W        W49543  19.052  43.461   4.300
81203W        W49544   4.414  32.569  11.124
81204W        W49545  16.670  22.574  12.499
81205W        W49546  33.044  17.676  11.418
81206W        W49547  16.724  38.914   4.676
81207W        W49548   5.715  10.187  12.426
81208W        W49549  39.029  11.735   2.233
81209W        W49550   6.798  44.420   0.267
81210W        W49551  43.279   9.770   3.229
81211W        W49552  43.005   0.365  13.019
81212W        W49553  25.541  24.590  12.567
81213W        W49554  25.102  37.881  13.326
81214W        W49555  42.975  24.508   0.801
81215W        W49556   3.784  34.063   2.377
81216W        W49557  29.528  24.133   3.220
81217W        W49558  32.037  36.950  13.058
81218W        W49559  26.630  31.538  14.800
81219W        W49560  33.963   6.227   3.359
81220W        W49561  43.833  21.560   1.766
81221W        W49562   2.407   9.853   2.673
81222W        W49563  17.777  35.991  14.992
81223W        W49564  31.551  14.703   3.673
81224W        W49565  34.935  19.215  13.798
81225W        W49566   1.263  28.472   4.785
81226W        W49567   8.793  18.775   2.686
81227W        W49568  19.720  26.524  14.008
81228W        W49569  43.368   4.929  14.392
81229W        W49570  16.797  35.497   9.945
81230W        W49571  33.974  14.701   3.802
81231W        W49572  27.997  36.401  10.968
81232W        W49573  17.285  29.129   1.697
81233W        W49574   2.388  40.851   4.119
81234W        W49575  37.518  31.498  13.849
81235W        W49576  24.218  39.818  10.138
81236W        W49577  16.134   2.374   2.814
81237W        W49578  12.191  20.718  14.887
81238W        W49579  21.063  13.130  10.935
81239W        W49580  32.053  41.939   4.710
81240W        W49581  20.062  34.996  12.355
81241W        W49582  14.834  33.518   1.906
81242W        W49583  27.574  35.524  14.412
81243W        W49584  38.836  42.483  10.153
81244W        W49585   6.421   6.330  14.930
81245W        W49586  31.578  42.280  10.120
81246W        W49587  12.280  26.697   5.317
81247W        W49588  12.796  31.020  14.938
81248W        W49589  27.086   1.279   4.619
81249W        W49590  16.087  39.925   4.311
81250W        W49591  30.488  39.534  14.509
81251W        W49592   3.223   0.793   4.136
81252W        W49593  41.405   1.790   3.172
81253W        W49594   1.445  44.912  13.022
81254W        W49595   3.924   9.297   4.643
81255W        W49596  22.692  37.542  12.434
81256W        W49597  33.995   6.418   2.856
81257W        W49598  17.762  31.121  10.427
81258W        W49599  20.656  25.546  10.412
81259W        W49600  36.930   3.915   2.781
81260W        W49601  28.577  28.597   2.324
81261W        W49602  37.906  40.005   2.287
81262W        W49603  26.675  39.973  11.419
81263W        W49604   3.328  34.470  11.463
81264W        W49605  30.568  25.636   4.186
81265W        W49606  13.276  15.809   1.865
81266W        W49607  23.709  10.294   1.708
81267W        W49608  30.082   7.369  11.601
81268W        W49609  34.087   7.337  13.979
81269W        W49610  19.245  12.773  12.545
81270W        W49611  28.998  39.353   3.798
81271W        W49612  15.197  33.075  12.352
81272W        W49613  18.587  39.469   4.295
81273W        W49614   8.850   5.417   4.241
81274W        W49615  38.456  14.325  13.806
81275W        W49616  12.669  18.695   2.841
81276W        W49617  12.664   0.929  14.460
81277W        W49618  19.081  24.045   2.767
81278W        W49619  20.195  21.170   4.149
81279W        W49620   4.351  16.743  10.405
81280W        W49621  24.119  41.485   1.922
81281W        W49622  33.889  15.263   0.818
81282W        W49623  38.525  38.556  11.046
81283W        W49624  44.875  39.860  11.898
81284W        W49625  25.116   7.316  11.485
81285W        W49626  19.206  41.007   3.291
81286W        W49627  41.986  23.500   9.944
81287W        W49628   9.205   0.340   3.849
81288W        W49629  29.496  20.067   4.809
81289W        W49630  16.206  17.643  10.959
81290W        W49631  24.019  20.189  12.437
81291W        W49632  42.459  32.103   0.331
81292W        W49633  40.852   2.747  13.499
81293W        W49634  42.478  37.435  14.864
81294W        W49635  16.734  29.547   0.458
81295W        W49636  40.393  32.974  13.905
81296W        W49637  23.101  16.706  10.639
81297W        W49638   2.791  16.776   3.240
81298W        W49639  13.829  41.825   4.676
81299W        W49640  12.624  27.610  14.362
81300W        W49641   8.377   3.852  10.942
81301W        W49642  40.931  37.830  10.568
81302W        W49643  35.051   3.320   3.844
81303W        W49644  28.006  42.476   1.426
81304W        W49645  30.468  24.155  14.958
81305W        W49646   0.341  24.537   3.821
81306W        W49647  25.105  27.107  11.522
81307W        W49648  14.622  27.017  13.049
81308W        W49649  17.605  41.837  13.336
81309W        W49650  43.811  31.067   0.837
81310W        W49651  11.720   7.749  12.478
81311W        W49652   0.953  24.536   0.424
81312W        W49653  37.548  33.035   2.893
81313W        W49654  43.975  11.696  10.641
81314W        W49655  23.664  27.013  11.991
81315W        W49656  31.512  43.992  11.470
81316W        W49657  11.194  30.570  14.351
81317W        W49658  43.022  29.557   4.343
81318W        W49659  36.913  22.660   1.408
81319W        W49660   0.329  32.011  10.578
81320W        W49661   6.239  11.755   0.454
81321W        W49662  28.977  16.788   3.314
81322W        W49663  39.523  28.133  14.880
81323W        W49664  11.813  34.427  10.434
81324W        W49665  31.065   8.893   5.263
81325W        W49666  27.608  36.036  12.096
81326W        W49667  34.458  41.002  11.426
81327W        W49668  24.039   3.817  12.886
81328W        W49669   4.337  25.081   4.654
81329W        W49670  38.324  40.020  13.309
81330W        W49671  25.672  19.198  10.550
81331W        W49672  25.520  23.189   1.730
81332W        W49673  29.579  34.039   3.638
81333W        W49674   0.813  13.759   4.655
81334W        W49675   7.766  30.091  13.894
81335W        W49676  10.871  10.849  13.339
81336W        W49677  14.282  14.340  11.540
81337W        W49678  27.049  37.355  12.364
81338W        W49679  19.649   0.414  13.530
81339W        W49680  10.315  33.099  12.380
81340W        W49681  16.706  19.593  11.528
81341W        W49682   2.301  29.964  13.928
81342W        W49683   0.362  12.332   4.646
81343W        W49684  44.338  14.124   3.360
81344W        W49685  31.925  18.778   5.215
81345W        W49686   9.687  21.527   1.381
81346W        W49687  16.656  34.595   0.828
81347W        W49688  39.323  43.286  14.948
81348W        W49689  19.089  22.549  14.805
81349W        W49690  39.478  20.111   1.294
81350W        W49691  28.956  41.348  11.543
81351W        W49692  23.041  23.517   0.450
81352W        W49693   3.248  21.171   5.304
81353W        W49694  43.480  26.018  14.988
81354W        W49695  32.548  26.004   4.125
81355W        W49696  38.453  43.999  12.052
81356W        W49697  13.741   1.355   4.728
81357W        W49698  36.882  38.052   4.286
81358W        W49699  21.735  36.385   2.286
81359W        W49700  35.000   6.681  10.408
81360W        W49701  39.816   6.239   2.714
81361W        W49702  38.998  40.333  10.084
81362W        W49703  14.764  25.021   0.802
81363W        W49704  38.409  27.100   3.770
81364W        W49705   3.776  43.786  10.974
81365W        W49706  37.871  37.337   1.342
81366W        W49707  10.646  17.607   1.352
81367W        W49708  14.241  42.507  12.522
81368W        W49709  33.569  12.654   2.783
81369W        W49710  20.685   4.794  11.425
81370W        W49711  28.669   5.886  12.027
81371W        W49712  38.484  27.981  13.522
81372W        W49713  40.359  31.086  13.800
81373W        W49714   0.850  20.123  12.030
81374W        W49715   5.791  37.536  13.058
81375W        W49716  34.995  11.853  13.811
81376W        W49717  20.734  44.448   2.768
81377W        W49718  14.112  36.555   2.397
81378W        W49719  13.631  36.569  14.890
81379W        W49720  38.497  36.083  12.984
81380W        W49721   2.465   0.436   4.826
81381W        W49722  43.009  21.207  12.892
81382W        W49723  36.360  22.589   2.741
81383W        W49724   4.764  18.607   0.940
81384W        W49725  30.013  31.154   0.475
81385W        W49726  39.854  43.994   0.814
81386W        W49727  44.325  12.778  12.017
81387W        W49728  15.205  35.415  13.975
81388W        W49729  38.976  28.041  13.963
81389W        W49730  27.165  33.454   2.811
81390W        W49731  15.290  16.672   4.784
81391W        W49732   2.425  13.725  11.949
81392W        W49733  30.433  34.438  13.307
81393W        W49734   7.745  35.554  10.980
81394W        W49735  14.663  39.852  10.490
81395W        W49736  31.051  20.586   1.440
81396W        W49737  34.459  23.708   2.281
81397W        W49738  31.540  41.960  12.900
81398W        W49739  40.511  39.997   3.360
81399W        W49740   4.414   9.298  10.631
81400W        W49741   3.830  25.047  13.963
81401W        W49742  42.910  22.179  13.324
81402W        W49743  11.275  15.229  14.425
81403W        W49744  41.397  20.763   3.292
81404W        W49745  43.402  22.228  11.495
81405W        W49746  19.679   6.421   0.875
81406W        W49747  11.788  28.944  12.007
81407W        W49748   7.415  36.489  12.019
81408W        W49749  31.151   3.299  11.588
81409W        W49750  29.154   3.339  14.463
81410W        W49751  31.958   0.263   0.372
81411W        W49752  17.114   6.244  13.923
81412W        W49753  34.999  42.394   0.411
81413W        W49754  26.201   2.732  12.957
81414W        W49755  17.127   0.258  12.440
81415W        W49756  26.584  44.299  14.792
81416W        W49757  29.495  41.990  13.380
81417W        W49758  38.561   7.871   2.205
81418W        W49759   0.961   3.269   9.981
81419W        W49760  29.930  19.083  13.543
81420W        W49761   1.834  22.503  12.933
81421W        W49762  34.948  23.599   0.766
81422W        W49763  27.611  21.595   1.770
81423W        W49764  11.333  28.543   4.280
81424W        W49765  30.438  19.664   3.734
81425W        W49766  21.689  37.369  10.644
81426W        W49767   5.895  13.162   3.636
81427W        W49768  22.217   3.851  10.958
81428W        W49769  21.519  34.058   0.939
81429W        W49770  15.770  23.689   0.731
81430W        W49771   3.768  12.837  10.613
81431W        W49772   4.720  17.782  10.584
81432W        W49773  12.339  22.087   3.385
81433W        W49774  30.464  22.569   3.330
81434W        W49775  31.550  37.917   1.823
81435W        W49776  27.513  44.982   3.767
81436W        W49777  19.109  30.497  11.979
81437W        W49778  28.609  31.601  12.470
81438W        W49779  31.520  20.197   1.723
81439W        W49780   7.296   7.321  13.473
81440W        W49781   2.961  20.526   4.726
81441W        W49782  35.966  13.823   4.304
81442W        W49783  33.465  10.149  12.515
81443W        W49784  31.151  35.535  14.507
81444W        W49785  17.091  34.927  11.931
81445W        W49786  14.158   1.784  14.876
81446W        W49787  29.568  14.210  12.017
81447W        W49788  14.668  15.308  11.116
81448W        W49789  32.058   1.333  11.080
81449W        W49790  35.598   7.733  10.965
81450W        W49791  36.381  33.468  14.353
81451W        W49792  25.600  35.555   0.782
81452W        W49793  40.358  11.655   3.385
81453W        W49794  30.142  18.191   1.727
81454W        W49795  31.057   3.324   4.251
81455W        W49796  15.604  17.668   9.994
81456W        W49797  44.847  20.638  11.875
81457W        W49798   4.307  24.112   0.899
81458W        W49799  34.426  10.682  13.382
81459W        W49800  33.109  32.629  12.039
81460W        W49801  23.652   4.292   4.135
81461W        W49802   7.683  35.084  10.404
81462W        W49803  31.997  39.557   1.801
81463W        W49804   3.382   9.234   0.932
81464W        W49805   1.834  37.397   3.273
81465W        W49806  29.597   3.757  13.988
81466W        W49807  30.430  22.037  12.961
81467W        W49808  32.485  11.190  12.415
81468W        W49809  44.766   1.355   2.357
81469W        W49810   9.379   8.164   4.745
81470W        W49811   0.290   1.932  14.791
81471W        W49812  27.509   4.893   3.791
81472W        W49813   1.858  10.723   4.264
81473W        W49814   1.239  13.133  13.354
81474W        W49815  15.604  36.576  13.970
81475W        W49816  44.471  28.010  14.360
81476W        W49817  40.041  15.327   1.400
81477W        W49818  14.614  11.230   2.827
81478W        W49819  26.651   0.800  13.351
81479W        W49820  13.834   2.279  13.877
81480W        W49821  41.401  25.666   0.959
81481W        W49822  34.465  23.627  14.395
81482W        W49823   1.396   4.266   4.210
81483W        W49824  27.075  41.967   3.706
81484W        W49825   2.830  13.608   3.204
81485W        W49826  43.008  38.480   3.778
81486W        W49827  27.039  36.544  10.557
81487W        W49828  17.751  10.219   0.930
81488W        W49829  34.573  21.056   2.282
81489W        W49830  13.138   9.653  13.413
81490W        W49831  13.288  13.795  10.918
81491W        W49832  31.486  37.911   2.226
81492W        W49833  39.834   1.348  10.636
81493W        W49834   7.366  29.134  12.515
81494W        W49835  31.009  29.581  11.937
81495W        W49836  24.196  12.229   1.806
81496W        W49837  20.201  39.358   2.236
81497W        W49838  10.739  44.302   2.702
81498W        W49839  17.794  14.725   1.242
81499W        W49840  14.277  42.808   4.814
81500W        W49841  15.158  38.357   5.628
81501W        W49842  18.547  10.285  11.460
81502W        W49843  29.529  16.758  13.403
81503W        W49844  31.066   0.480  10.632
81504W        W49845  38.061  23.710   4.767
81505W        W49846  29.116  24.182  14.811
81506W        W49847  22.556   6.370   2.401
81507W        W49848  31.639  15.805   0.404
81508W        W49849  24.994  22.242   0.358
81509W        W49850  31.511  14.266  10.564
81510W        W49851  41.486  44.269   0.736
81511W        W49852  22.659  15.153   4.815
81512W        W49853  24.999   2.307  14.973
81513W        W49854  37.569  20.057  10.453
81514W        W49855  30.643   3.877  14.515
81515W        W49856  27.972  21.115   5.177
81516W        W49857   4.818  34.963  11.967
81517W        W49858  33.890  32.925  12.455
81518W        W49859  22.569  24.152   1.243
81519W        W49860  23.070  27.629  12.365
81520W        W49861  42.857  10.289  13.374
81521W        W49862   2.771   8.356  13.387
81522W        W49863  11.840  42.780   4.149
81523W        W49864  27.660  18.613   1.862
81524W        W49865  33.384  14.317   1.910
81525W        W49866   8.782  20.555   2.333
81526W        W49867  10.661  34.863  13.925
81527W        W49868  41.513  20.670  13.511
81528W        W49869  32.500  11.834  13.843
81529W        W49870  30.970   1.961  11.941
81530W        W49871  15.777   4.794   2.899
81531W        W49872  21.593  36.973   3.308
81532W        W49873  35.908  34.878  14.794
81533W        W49874  39.046   6.185  10.937
81534W        W49875  40.028  40.346  13.425
81535W        W49876  14.203  10.780  11.390
81536W        W49877  28.077  13.601  13.859
81537W        W49878  42.430  40.439   1.914
81538W        W49879  25.161   5.740   4.255
81539W        W49880   9.319   8.891   2.239
81540W        W49881   8.813  30.021  14.944
81541W        W49882   9.154   3.270  14.983
81542W        W49883  37.051  14.114   0.784
81543W        W49884  35.583  22.998  14.025
81544W        W49885   8.349   1.415   3.176
81545W        W49886  21.137  22.088   4.324
81546W        W49887   6.238  14.708  10.052
81547W        W49888  44.351  17.177  10.901
81548W        W49889  33.462  35.856  10.080
81549W        W49890  20.616  12.238  11.524
81550W        W49891  20.762  44.917  12.342
81551W        W49892  33.456  21.076   5.264
81552W        W49893   0.854  42.870  14.483
81553W        W49894  22.233  13.819   2.777
81554W        W49895  15.579   6.375  10.943
81555W        W49896  39.874   7.852   4.698
81556W        W49897   2.433  33.911  12.056
81557W        W49898  20.576  39.975   2.689
81558W        W49899  38.932  29.625   1.288
81559W        W49900  43.385  34.458   2.233
81560W        W49901  33.946  35.055   2.834
81561W        W49902   5.299  16.646   4.297
81562W        W49903  16.117   2.959   2.711
81563W        W49904  21.523  23.044   4.238
81564W        W49905  12.222  33.538   3.385
81565W        W49906   3.401  40.316  13.545
81566W        W49907  34.998   2.296  12.552
81567W        W49908  23.211  29.507  14.914
81568W        W49909  26.207  27.180  13.324
81569W        W49910  16.745  23.038   5.316
81570W        W49911  28.090  12.134  12.916
81571W        W49912  41.317  26.576  13.945
81572W        W49913  33.570  23.570   0.294
81573W        W49914  38.986  10.229  13.432
81574W        W49915  36.083   4.212  11.970
81575W        W49916  30.012  11.865  10.922
81576W        W49917   8.855  28.631  11.483
81577W        W49918  17.668  13.177  13.371
81578W        W49919   0.745  21.026  14.422
81579W        W49920  35.591  17.754  10.593
81580W        W49921  42.383  32.399  10.585
81581W        W49922  23.058   6.900   0.811
81582W        W49923  29.544  42.923   1.894
81583W        W49924  30.154  42.321   1.248
81584W        W49925  11.670  13.699  12.562
81585W        W49926  30.934  32.402   2.303
81586W        W49927  21.109  22.517  12.552
81587W        W49928  15.324  17.154   3.846
81588W        W49929  22.682  30.585  14.987
81589W        W49930  37.539  24.686  11.593
81590W        W49931  33.614  22.119  10.037
81591W        W49932   5.388  37.547   4.202
81592W        W49933   1.898  17.073  14.913
81593W        W49934  36.982  31.052   0.796
81594W        W49935  15.657   5.357  13.002
81595W        W49936  39.929   4.722  13.843
81596W        W49937  10.369  11.353   3.783
81597W        W49938   0.960  23.520   0.441
81598W        W49939  32.432  41.381  11.896
81599W        W49940  23.542  36.381  14.411
81600W        W49941   7.907  14.326  14.487
81601W        W49942  39.948   6.307  14.458
81602W        W49943   1.844  39.340  13.973
81603W        W49944   5.841  23.535   2.337
81604W        W49945  15.785  39.536  12.928
81605W        W49946  18.672  19.663   1.425
81606W        W49947  42.959  31.600   4.162
81607W        W49948  13.701  11.304  14.945
81608W        W49949  28.645  42.019  10.482
81609W        W49950  36.065  40.383  13.861
81610W        W49951  16.079  28.091   1.255
81611W        W49952   2.349   1.845  14.282
81612W        W49953  30.028   5.394  12.500
81613W        W49954  19.590  17.571  14.945
81614W        W49955  30.563  25.055  12.016
81615W        W49956  17.564   8.734  11.903
81616W        W49957  25.214  22.055  12.875
81617W        W49958  16.577   3.439   4.165
81618W        W49959  19.697   4.819  12.425
81619W        W49960  23.048   4.854   0.391
81620W        W49961   0.445  23.125  12.887
81621W        W49962  14.696  19.080   3.207
81622W        W49963  41.819  30.968   2.392
81623W        W49964  43.326  12.164  13.013
81624W        W49965  19.585   4.834   4.232
81625W        W49966  34.558  38.941  10.584
81626W        W49967  15.270  34.904  13.809
81627W        W49968  35.014  35.583   3.790
81628W        W49969  22.152  16.755  13.812
81629W        W49970  30.106   7.374   1.371
81630W        W49971  18.295   7.376  14.282
81631W        W49972  28.581  31.140  12.925
81632W        W49973  42.850   2.750  14.016
81633W        W49974  26.016  32.013   4.677
81634W        W49975  22.677  27.618  12.044
81635W        W49976  22.188   6.407   0.454
81636W        W49977  12.291  23.150   2.388
81637W        W49978   7.826   1.834  14.916
81638W        W49979  31.075  14.187   4.327
81639W        W49980  14.181  22.525   5.227
81640W        W49981  39.423  44.399   4.689
81641W        W49982   7.790  38.843   5.091
81642W        W49983  17.219  18.288  12.911
81643W        W49984   8.730  35.036   2.740
81644W        W49985  25.659  44.284  13.001
81645W        W49986  14.765  37.471   4.633
81646W        W49987   3.859  40.021   3.176
81647W        W49988  21.152  29.614  14.292
81648W        W49989  35.873   4.409  12.921
81649W        W49990  26.500  30.592   1.390
81650W        W49991  10.870  26.690  14.292
81651W        W49992  22.698  43.798  13.539
81652W        W49993  39.961  36.965   3.731
81653W        W49994  28.983  37.375  10.575
81654W        W49995   8.230  31.070  10.927
81655W        W49996  36.866  32.106  14.963
81656W        W49997  23.516  26.119   2.672
81657W        W49998  11.324  34.973   1.323
81658W        W49999   4.259  37.913  14.362
81659W        W50000  31.611  41.027  10.068
81660W        W50001  12.743  23.081  11.998
81661W        W50002  24.986  37.422  10.494
81662W        W50003  44.478  26.078  14.902
81663W        W50004  13.233  40.538   5.261
81664W        W50005  17.633  36.929  10.441
81665W        W50006  20.593  36.524   1.918
81666W        W50007  30.020  30.105  14.840
81667W        W50008  32.915  42.027  11.943
81668W        W50009  29.121  42.834   3.330
81669W        W50010  36.914  26.669  11.576
81670W        W50011   3.926  23.547  12.923
81671W        W50012  39.318  12.203  10.976
81672W        W50013  37.088   8.769   1.322
81673W        W50014  44.983  27.067  10.944
81674W        W50015   3.906  37.336   2.869
81675W        W50016  11.160  31.646   0.436
81676W        W50017  42.456   6.253  11.404
81677W        W50018  31.451  10.649   4.251
81678W        W50019  10.204  37.339  14.429
81679W        W50020  24.643  16.647  13.836
81680W        W50021  42.953  26.476  11.994
81681W        W50022   3.249  44.898  10.467
81682W        W50023  38.925  13.659  13.939
81683W        W50024  37.368  27.651  12.895
81684W        W50025  34.936  12.782  13.947
81685W        W50026  13.833  24.015   2.396
81686W        W50027  31.117  16.792  13.060
81687W        W50028   0.432  36.042   3.775
81688W        W50029   5.195   0.432   1.713
81689W        W50030  30.079  40.332   1.438
81690W        W50031  18.203  28.056   0.847
81691W        W50032  40.337  16.706   3.861
81692W        W50033  15.249  25.694   1.841
81693W        W50034   0.845  30.968   0.914
81694W        W50035  12.234   9.794  10.952
81695W        W50036  16.758   4.713  13.832
81696W        W50037  15.195   9.268  14.953
81697W        W50038  12.626  17.611  12.393
81698W        W50039   2.801  10.808  13.389
81699W        W50040  30.656  40.411   9.951
81700W        W50041  17.145  11.324  12.947
81701W        W50042  10.805  19.078   0.461
81702W        W50043  38.412  28.184  12.987
81703W        W50044  21.231   0.985  10.970
81704W        W50045  43.341   4.937   2.232
81705W        W50046  29.599  44.459  13.008
81706W        W50047  24.161   8.751  10.927
81707W        W50048  24.988  19.177   9.508
81708W        W50049  35.071   6.732   4.838
81709W        W50050  38.044   7.287   2.901
81710W        W50051   0.494  19.621   9.491
81711W        W50052  32.459  21.169  14.370
81712W        W50053  19.568  13.266   0.356
81713W        W50054  12.813  38.948  12.824
81714W        W50055   8.277  15.099  13.367
81715W        W50056  28.559  18.272  13.052
81716W        W50057  36.561   3.923  14.341
81717W        W50058  11.653  24.982  11.070
81718W        W50059  20.179  33.412  13.385
81719W        W50060   8.665  27.576  12.065
81720W        W50061  27.034  36.932  11.123
81721W        W50062  36.473  17.703  14.966
81722W        W50063  43.013   9.668   2.770
81723W        W50064   2.832  21.055   0.365
81724W        W50065  19.634  25.488   0.320
81725W        W50066   5.766  13.267   1.392
81726W        W50067  17.108  40.331   2.868
81727W        W50068  38.450  16.764   0.387
81728W        W50069  43.423  22.059   2.214
81729W        W50070  27.948   1.846  10.527
81730W        W50071  30.624  38.898  11.987
81731W        W50072   1.948   8.382   3.780
81732W        W50073   4.872  42.823  13.377
81733W        W50074  43.378  18.199  10.153
81734W        W50075  11.293   9.176   1.729
81735W        W50076  41.373  43.008   3.207
81736W        W50077  22.690  19.761   5.234
81737W        W50078  21.068  20.550   1.329
81738W        W50079  17.078  19.088  12.457
81739W        W50080  35.093  41.994   1.408
81740W        W50081  33.612  32.517  13.922
81741W        W50082  41.796  26.578  11.566
81742W        W50083  36.891  19.075  14.291
81743W        W50084  42.382  26.074  13.003
81744W        W50085  25.652  40.501  12.904
81745W        W50086  20.705  12.821   0.865
81746W        W50087  27.999  27.076   0.345
81747W        W50088  18.705  27.065   4.809
81748W        W50089   9.754  11.135  14.451
81749W        W50090  36.936  13.662  14.821
81750W        W50091  20.596  10.381  14.923
81751W        W50092   8.868  14.635   4.236
81752W        W50093  11.133  17.753  14.940
81753W        W50094  44.896   3.767   4.321
81754W        W50095  19.606   6.263  13.815
81755W        W50096  33.611   1.431  10.608
81756W        W50097  29.076   4.851  12.386
81757W        W50098  44.316  30.471  14.843
81758W        W50099  23.172  36.968  13.062
81759W        W50100  36.410  27.983   1.759
81760W        W50101   4.868  26.608  14.457
81761W        W50102  16.690   3.268  13.395
81762W        W50103  34.428   8.402   0.368
81763W        W50104  28.584  36.095   1.717
81764W        W50105  41.444  37.500  13.340
81765W        W50106  35.017   8.668  13.328
81766W        W50107   7.407  29.031   4.219
81767W        W50108  28.588  44.756   3.272
81768W        W50109  31.613  36.570  10.526
81769W        W50110  35.553  42.375  12.431
81770W        W50111   2.767  39.427   3.842
81771W        W50112   9.869  31.001  13.364
81772W        W50113  21.679  40.358  11.996
81773W        W50114  42.283   3.316  14.303
81774W        W50115   8.768  16.677  10.492
81775W        W50116  37.890  15.793  11.031
81776W        W50117   1.482  33.007   1.877
81777W        W50118  10.674  23.507   0.430
81778W        W50119  13.638  39.993  11.502
81779W        W50120  39.926  22.026   4.335
81780W        W50121  31.121  38.923  12.824
81781W        W50122   8.861   3.216   4.218
81782W        W50123  12.162  31.943  11.474
81783W        W50124   1.939  43.489  13.843
81784W        W50125  44.467   9.205  10.109
81785W        W50126  40.347  14.247   0.826
81786W        W50127  18.294  11.727  12.360
81787W        W50128  29.433   8.304   4.253
81788W        W50129   2.903  29.557  11.498
81789W        W50130  29.559  30.064   2.804
81790W        W50131  35.868  14.187   1.753
81791W        W50132  12.137   0.375   3.332
81792W        W50133  20.175  42.480  11.549
81793W        W50134  40.906  23.531   1.355
81794W        W50135  20.191  20.084  10.973
81795W        W50136  15.087   0.785   1.382
81796W        W50137  36.357  35.505  11.871
81797W        W50138   0.753  31.004  14.893
81798W        W50139  39.920  26.103   2.179
81799W        W50140  24.007  37.480   2.879
81800W        W50141   1.288   7.794  14.956
81801W        W50142  30.025  30.490  13.489
81802W        W50143  28.583  38.018  12.895
81803W        W50144   9.760  31.984   2.277
81804W        W50145  19.220  29.137   0.355
81805W        W50146  35.372  42.403  14.494
81806W        W50147  28.523  26.150   3.822
81807W        W50148  21.127  37.969   4.838
81808W        W50149   3.248  14.151  11.076
81809W        W50150  12.829  18.237   3.193
81810W        W50151  19.582  26.166   0.915
81811W        W50152   1.808   9.257  13.387
81812W        W50153  41.509  43.016  12.052
81813W        W50154  24.184  17.751   4.241
81814W        W50155  39.932  21.139   0.420
81815W        W50156  25.604  36.942   2.892
81816W        W50157  13.610   8.303  13.364
81817W        W50158  44.492  40.424  10.471
81818W        W50159  41.991  22.632  14.490
81819W        W50160  13.679   7.870   1.893
81820W        W50161  34.057  17.559  12.885
81821W        W50162   0.398  20.266   3.778
81822W        W50163  39.385  43.834   3.212
81823W        W50164  28.615  18.611  14.483
81824W        W50165   7.763  36.054  13.541
81825W        W50166  34.014  32.987   2.324
81826W        W50167  25.611  14.246  12.093
81827W        W50168  16.767  12.137  14.892
81828W        W50169  36.983   9.842   0.846
81829W        W50170   0.978  39.834  12.047
81830W        W50171  23.008  25.659   4.827
81831W        W50172  35.395  22.145  10.530
81832W        W50173  39.489  14.732  12.910
81833W        W50174  20.206  11.671  14.502
81834W        W50175   3.740  28.176  13.470
81835W        W50176  15.808  10.301  13.468
81836W        W50177   8.717  37.421   3.797
81837W        W50178  25.643  31.099  12.025
81838W        W50179  16.086  33.023  11.391
81839W        W50180  30.600  30.114   3.677
81840W        W50181  39.035  17.555   3.309
81841W        W50182  19.247  43.365  11.066
81842W        W50183  36.581  35.045  14.486
81843W        W50184  34.388  19.750   5.190
81844W        W50185   8.172  41.044  14.459
81845W        W50186  26.970  40.816   1.843
81846W        W50187  42.000  14.614   0.292
81847W        W50188  43.969  25.645   0.367
81848W        W50189   6.348   6.319  11.495
81849W        W50190  11.216  34.044   2.355
81850W        W50191  28.680  14.632   0.925
81851W        W50192  42.906   5.712  14.364
81852W        W50193   6.751  24.594   1.280
81853W        W50194  27.691  36.090  10.419
81854W        W50195   4.773  41.818   2.385
81855W        W50196  28.668  44.411  10.599
81856W        W50197  31.975   4.886  14.474
81857W        W50198  27.515  10.697  11.017
81858W        W50199  24.161  40.885   1.896
81859W        W50200  25.020  13.350   1.825
81860W        W50201  41.983  16.754   2.801
81861W        W50202  17.215  10.269  11.488
81862W        W50203   2.232  37.962   3.650
81863W        W50204  11.298  39.903  11.464
81864W        W50205  18.671   2.825   0.384
81865W        W50206   4.420   4.283  10.975
81866W        W50207  23.211   4.889   3.704
81867W        W50208   2.889  40.038  10.577
81868W        W50209  28.160  15.747  14.485
81869W        W50210  27.614  44.793   0.880
81870W        W50211  33.531   8.338  11.021
81871W        W50212  30.597  42.985   2.372
81872W        W50213   8.683  40.031   1.228
81873W        W50214  43.389  41.837  12.032
81874W        W50215  30.008  29.015  11.376
81875W        W50216  26.563   5.782  13.429
81876W        W50217   7.381  11.175  11.547
81877W        W50218  44.459  37.844  12.841
81878W        W50219  36.850  44.405   1.870
81879W        W50220   5.421   9.694   2.210
81880W        W50221  38.937   2.294   3.820
81881W        W50222  13.160  24.707   0.741
81882W        W50223  15.132  22.604   9.585
81883W        W50224  44.398  27.060   4.261
81884W        W50225  14.189  35.545   3.263
81885W        W50226   6.309  33.428  13.410
81886W        W50227  23.565   1.409  12.396
81887W        W50228  40.418  28.155   4.232
81888W        W50229  33.956  40.054  11.548
81889W        W50230  30.104  35.015  13.970
81890W        W50231   6.238  31.151  10.556
81891W        W50232  10.275  28.103  12.360
81892W        W50233  24.615  25.002  13.404
81893W        W50234  13.722  31.078  14.486
81894W        W50235   2.358   7.788   2.394
81895W        W50236  25.588  11.136   4.691
81896W        W50237  22.204   4.275   3.278
81897W        W50238  10.663  26.610   0.803
81898W        W50239   8.811  10.805   3.379
81899W        W50240  27.052  20.666  13.365
81900W        W50241  13.178   3.778   3.328
81901W        W50242  36.561   1.737   0.912
81902W        W50243  36.517  32.994   0.268
81903W        W50244  32.449  41.324  14.280
81904W        W50245  16.266  17.799   1.210
81905W        W50246  22.251   0.418   4.332
81906W        W50247  16.248   2.244  11.944
81907W        W50248  41.857  36.347   4.341
81908W        W50249   0.469   3.762  10.952
81909W        W50250  37.966  33.885   2.761
81910W        W50251  19.138  38.419  13.962
81911W        W50252  37.881  11.220  12.854
81912W        W50253  20.628  32.563  13.413
81913W        W50254  24.205  13.151   2.225
81914W        W50255  35.478  33.456  13.513
81915W        W50256  44.264  28.535   3.744
81916W        W50257   0.329  36.371   0.746
81917W        W50258   1.451  13.206   2.802
81918W        W50259  43.931  27.146   2.312
81919W        W50260   4.210  37.351  13.996
81920W        W50261  42.495   0.791  12.496
81921W        W50262   0.341  29.426   3.340
81922W        W50263  30.967  38.891   0.934
81923W        W50264  28.571  43.419   1.263
81924W        W50265   7.316  18.129  14.840
81925W        W50266  25.528  27.078   0.374
81926W        W50267  35.410   2.272  13.405
81927W        W50268  34.550  20.183   0.403
81928W        W50269   3.873  33.460  10.447
81929W        W50270  39.410  39.012   0.780
81930W        W50271  37.833   9.250   4.656
81931W        W50272  25.127  38.401  12.520
81932W        W50273   7.909  20.549  12.021
81933W        W50274  14.794  35.458  13.537
81934W        W50275  20.065  26.501  11.946
81935W        W50276  30.483  36.006  13.923
81936W        W50277  12.856   4.393   4.636
81937W        W50278  39.483   8.763   3.203
81938W        W50279   3.340  14.324   0.868
81939W        W50280  21.581  24.679   2.192
81940W        W50281  14.821  23.520  12.000
81941W        W50282  36.559  13.620  10.511
81942W        W50283  19.548  40.534  10.493
81943W        W50284   9.692  19.158  14.459
81944W        W50285  27.969  11.678  11.896
81945W        W50286  13.636  42.322  11.577
81946W        W50287  20.256  10.200  12.896
81947W        W50288  11.730  39.023  10.421
81948W        W50289   3.342  33.997  13.966
81949W        W50290  19.217  27.161   1.702
81950W        W50291  39.370  43.293  10.076
81951W        W50292  25.534  32.484   4.719
81952W        W50293  12.685  40.937  13.806
81953W        W50294  10.140  11.639   1.320
81954W        W50295   3.892  12.341   2.838
81955W        W50296  24.015  23.183  11.529
81956W        W50297  19.042  31.573  12.029
81957W        W50298   0.876   9.368  13.430
81958W        W50299  39.549  20.700   1.237
81959W        W50300  31.542  28.073  13.492
81960W        W50301  10.862  40.983  14.390
81961W        W50302  43.324  27.149  12.048
81962W        W50303  27.565   9.857  12.495
81963W        W50304  13.270  38.353  14.781
81964W        W50305   6.850  42.965   0.316
81965W        W50306  23.182   0.488  13.864
81966W        W50307   0.445  17.225   1.307
81967W        W50308  11.197  28.006   3.845
81968W        W50309  14.685  12.161  10.644
81969W        W50310  12.621   7.871   2.300
81970W        W50311  44.402  40.952  10.507
81971W        W50312  40.010  12.147   4.198
81972W        W50313  32.111  31.146   4.799
81973W        W50314  18.627   8.265   4.175
81974W        W50315  25.575   0.914  12.506
81975W        W50316  32.583  20.530  12.528
81976W        W50317  40.500  30.620  10.524
81977W        W50318   7.743  21.212  13.494
81978W        W50319   9.835   5.196  14.923
81979W        W50320  29.146  38.423  10.453
81980W        W50321  31.961  27.682   0.873
81981W        W50322  20.611  43.008   4.309
81982W        W50323  40.464   3.868   1.901
81983W        W50324   8.668  22.108   3.831
81984W        W50325  14.749   2.727   2.828
81985W        W50326   0.311  28.606  11.870
81986W        W50327  25.652  24.601  14.358
81987W        W50328   3.458  34.016   1.792
81988W        W50329  15.787   9.315   2.245
81989W        W50330   9.720  19.201  12.906
81990W        W50331  32.494  30.097  12.421
81991W        W50332  19.665  42.957   0.470
81992W        W50333  36.553  23.505  11.404
81993W        W50334   7.718  20.262  10.409
81994W        W50335  26.689  44.979  11.509
81995W        W50336   1.399  38.959   4.661
81996W        W50337  33.066  19.555  14.789
81997W        W50338  11.718  22.517  11.517
81998W        W50339  35.865  17.286  11.499
81999W        W50340   0.847  37.487  10.005
82000W        W50341  11.768   4.423  14.361
82001W        W50342  27.503  34.604  13.921
82002W        W50343  43.794  16.726   4.661
82003W        W50344  33.068   6.357  10.638
82004W        W50345  21.597  28.547  13.009
82005W        W50346  14.821   5.739  12.866
82006W        W50347  35.482   6.348   2.713
82007W        W50348  20.729  11.743  13.869
82008W        W50349  30.424  13.129  11.439
82009W        W50350  28.439   0.272   1.407
82010W        W50351   2.807  36.073  12.428
82011W        W50352  38.037   1.854   0.942
82012W        W50353  13.795  25.521  14.018
82013W        W50354  35.520  37.842   2.338
82014W        W50355  30.122  30.471   2.198
82015W        W50356   6.714  26.501  12.534
82016W        W50357   1.334  29.633  12.943
82017W        W50358  43.878  32.980  13.001
82018W        W50359  25.470  40.356   4.347
82019W        W50360  36.427  43.307  12.530
82020W        W50361  44.404  22.082   1.819
82021W        W50362  29.145  35.583  12.897
82022W        W50363  24.714  18.265   0.825
82023W        W50364  40.816  22.223   4.802
82024W        W50365  31.553   0.928   1.393
82025W        W50366  38.038   1.913   1.837
82026W        W50367  33.555  22.232  11.372
82027W        W50368  13.814  35.082  12.994
82028W        W50369  26.550  15.140   2.210
82029W        W50370  40.990   5.796   0.288
82030W        W50371  15.132  39.885  13.434
82031W        W50372   3.425  39.983  12.436
82032W        W50373  24.495  34.990   1.369
82033W        W50374  17.170  30.982  13.848
82034W        W50375   7.193  23.043  14.395
82035W        W50376   7.883  40.884  11.940
82036W        W50377  23.625  15.318   4.139
82037W        W50378   7.278   7.271   3.844
82038W        W50379  27.112  22.006  14.774
82039W        W50380  28.073   2.923  11.069
82040W        W50381  22.100  16.646   4.645
82041W        W50382  12.669  17.112   1.293
82042W        W50383  20.732  36.936  12.363
82043W        W50384   3.393  12.793  12.879
82044W        W50385  31.447  34.412  14.427
82045W        W50386   6.680   1.878   3.799
82046W        W50387  35.885  24.008  10.613
82047W        W50388  33.977  16.694  11.443
82048W        W50389  11.190   4.944   4.169
82049W        W50390  16.677  25.668  12.430
82050W        W50391  38.966  21.229  13.998
82051W        W50392   2.292   3.456   0.895
82052W        W50393   1.391   1.907   3.641
82053W        W50394  17.134   4.821  12.033
82054W        W50395  24.077  34.984   3.362
82055W        W50396   4.923   8.201  12.495
82056W        W50397  15.248  31.484  11.512
82057W        W50398  21.132  26.577  14.320
82058W        W50399  23.176  36.479   4.215
82059W        W50400  25.706  35.361  12.057
82060W        W50401   8.715  14.699  13.311
82061W        W50402  20.242  19.274   0.778
82062W        W50403  28.168  18.065  11.463
82063W        W50404   2.321   7.387   3.768
82064W        W50405  41.968  41.027  14.822
82065W        W50406  44.773   1.764   3.376
82066W        W50407   4.863   0.930   4.647
82067W        W50408  34.576  28.047   1.847
82068W        W50409  16.792  25.205   0.359
82069W        W50410  39.396  27.042   1.350
82070W        W50411  21.073  34.869   2.299
82071W        W50412  34.570   1.438   3.206
82072W        W50413  36.041  44.946  11.372
82073W        W50414  16.239  19.623   3.239
82074W        W50415  34.425  39.461   1.887
82075W        W50416  27.677  28.177  10.148
82076W        W50417  28.969  17.795  10.446
82077W        W50418  36.042  28.094   3.146
82078W        W50419  37.493  34.487   1.774
82079W        W50420   8.185   8.742   3.160
82080W        W50421   3.814  26.672   0.879
82081W        W50422  22.099   3.943   2.341
82082W        W50423  25.566  44.423  13.896
82083W        W50424  11.161  20.554  13.940
82084W        W50425   7.881  37.006  12.921
82085W        W50426  36.850  44.756  14.441
82086W        W50427  19.761  22.608   1.710
82087W        W50428  41.818  43.842   2.729
82088W        W50429   5.722  43.336   0.480
82089W        W50430  31.096   9.680  12.516
82090W        W50431   0.930  12.765   3.673
82091W        W50432  34.942  10.762  10.545
82092W        W50433  22.727  42.345  10.472
82093W        W50434  14.157  31.937   5.197
82094W        W50435  10.771   2.297   1.276
82095W        W50436   7.702  16.129  13.043
82096W        W50437  36.555  42.881   3.377
82097W        W50438  17.089  33.970  14.334
82098W        W50439  21.102  31.510  12.826
82099W        W50440  39.436  35.029   0.258
82100W        W50441   6.363  13.203  14.416
82101W        W50442  28.440  37.525   1.320
82102W        W50443  40.918  19.188  14.927
82103W        W50444  14.673  23.193   2.254
82104W        W50445  17.104  39.991   0.889
82105W        W50446   7.725  25.053  10.525
82106W        W50447  26.177  12.740   3.701
82107W        W50448  26.076  19.596   1.775
82108W        W50449  10.348   2.268  14.482
82109W        W50450  36.002  28.546   1.736
82110W        W50451  10.347  42.506  11.115
82111W        W50452  26.031   9.717   3.385
82112W        W50453  33.109  15.151   3.866
82113W        W50454   8.356  17.717  11.420
82114W        W50455   0.301  33.395  14.472
82115W        W50456  15.784  41.868   2.348
82116W        W50457  24.153  35.364  10.918
82117W        W50458  34.924  37.382  10.922
82118W        W50459  33.599   6.239   2.799
82119W        W50460  15.129  33.484  12.399
82120W        W50461  20.150  27.187   3.838
82121W        W50462  31.637  28.583  13.867
82122W        W50463  36.083  14.276  14.833
82123W        W50464  26.034  11.258  12.366
82124W        W50465  20.040  38.492  14.397
82125W        W50466  21.665   3.321  12.536
82126W        W50467  32.554  36.432  13.006
82127W        W50468   5.222  25.572  13.413
82128W        W50469  42.524  23.137   1.738
82129W        W50470  25.186  42.429  12.007
82130W        W50471  43.500  30.000   4.693
82131W        W50472  15.145  44.932  14.786
82132W        W50473  38.077   5.754   0.902
82133W        W50474   8.722  11.226   1.433
82134W        W50475  39.479   2.398  14.800
82135W        W50476  18.604  44.498   2.784
82136W        W50477  40.013  43.407  13.016
82137W        W50478  21.156  12.689   1.403
82138W        W50479   4.840  14.652   0.363
82139W        W50480  11.278  39.931   9.518
82140W        W50481   9.829  11.683  12.413
82141W        W50482  23.162  22.710  10.409
82142W        W50483   7.382  37.463   2.292
82143W        W50484   0.752  40.935   1.444
82144W        W50485  17.711  38.376   0.301
82145W        W50486  12.157  42.918   3.647
82146W        W50487  28.015  37.993   4.780
82147W        W50488  26.641   7.182   0.867
82148W        W50489  20.162  14.661   2.818
82149W        W50490  18.207  38.883   1.303
82150W        W50491  35.523  41.895   4.608
82151W        W50492  15.188  22.208   1.355
82152W        W50493  37.839   9.790   4.689
82153W        W50494  16.278  19.253   3.696
82154W        W50495   8.312  26.041  14.008
82155W        W50496   3.357  42.473  10.971
82156W        W50497   7.388  36.441   4.726
82157W        W50498  20.183  16.611   3.259
82158W        W50499  26.033  19.758   3.683
82159W        W50500  17.301   5.270   1.806
82160W        W50501  14.802  23.586   0.468
82161W        W50502   4.903  30.150  14.492
82162W        W50503  37.993  24.518  10.566
82163W        W50504  14.699  13.279   2.402
82164W        W50505  19.620   2.817   1.320
82165W        W50506  44.886   1.972  12.548
82166W        W50507  43.395  14.195  10.091
82167W        W50508  32.494  40.858  10.438
82168W        W50509   5.701  17.719   0.876
82169W        W50510  22.031  38.561   4.607
82170W        W50511  13.621  40.809   0.381
82171W        W50512   7.735  26.159   4.666
82172W        W50513  21.643  22.030   3.177
82173W        W50514  14.756  11.254  10.899
82174W        W50515  28.028  41.976   0.367
82175W        W50516  20.601   5.437  10.521
82176W        W50517   7.864  31.013  12.484
82177W        W50518  19.050  39.915   4.291
82178W        W50519  12.753  15.089   1.449
82179W        W50520  27.568  31.487  12.419
82180W        W50521   5.842  29.098   2.873
82181W        W50522  40.847  35.924   1.436
82182W        W50523   9.768  37.336  12.403
82183W        W50524   4.916   9.272  11.521
82184W        W50525  29.589  31.018   1.439
82185W        W50526  41.887  36.082   0.274
82186W        W50527  27.599  43.354  11.514
82187W        W50528  13.643   2.407   3.742
82188W        W50529   5.762  13.203  13.962
82189W        W50530  21.633  25.477   1.377
82190W        W50531  23.237  13.112   0.451
82191W        W50532  24.573  36.937  12.852
82192W        W50533  15.191  32.530  13.849
82193W        W50534   2.820  25.179  14.916
82194W        W50535  44.884  35.360   2.208
82195W        W50536  30.424  29.617   1.221
82196W        W50537  38.073  12.183  12.979
82197W        W50538  19.184  15.314  12.976
82198W        W50539  42.777   6.888  12.871
82199W        W50540   6.863  12.626  12.564
82200W        W50541  41.330  10.217  12.342
82201W        W50542  43.803   8.176   0.831
82202W        W50543   8.866  44.447   1.928
82203W        W50544  21.544  20.666  13.021
82204W        W50545  14.755   1.794  12.521
82205W        W50546  30.456  38.014   0.426
82206W        W50547  33.013  20.269  10.470
82207W        W50548  40.549  33.434  11.085
82208W        W50549   3.363  23.614  12.460
82209W        W50550  25.530  19.595   0.448
82210W        W50551  13.691  31.015   3.694
82211W        W50552  12.691  32.111   4.826
82212W        W50553  38.504  43.441  11.517
82213W        W50554  27.154   6.235  14.842
82214W        W50555  26.500  37.070  14.890
82215W        W50556  21.128  28.025  11.870
82216W        W50557  43.460  42.354   3.796
82217W        W50558   6.218  27.514   2.261
82218W        W50559  21.702  41.366   3.354
82219W        W50560  40.889  37.867   2.300
82220W        W50561  40.862  12.183  13.972
82221W        W50562  13.351  10.177  11.913
82222W        W50563  43.785   7.410   4.187
82223W        W50564  12.299  41.293   4.159
82224W        W50565  35.889  43.330   2.686
82225W        W50566  39.386   5.713   4.737
82226W        W50567  10.297  40.836   2.178
82227W        W50568  34.389  38.336  14.956
82228W        W50569  16.761  24.999  14.332
82229W        W50570  43.305  18.144  13.504
82230W        W50571  26.634  25.088   2.230
82231W        W50572  27.522  41.447  11.977
82232W        W50573  35.857   6.825  11.486
82233W        W50574  17.139  40.842   2.878
82234W        W50575  13.212  42.864   1.711
82235W        W50576   9.746  38.982  11.460
82236W        W50577   8.748   7.870  13.005
82237W        W50578   6.427  30.548  13.523
82238W        W50579  44.802  39.861  14.764
82239W        W50580   1.317  23.619   3.709
82240W        W50581  31.469  32.942  12.000
82241W        W50582  17.278  40.798  14.825
82242W        W50583  27.456  27.071  10.502
82243W        W50584  22.633  19.042   3.174
82244W        W50585  14.601   9.394   3.373
82245W        W50586  15.645  15.707   5.102
82246W        W50587  44.428  18.109  14.310
82247W        W50588  33.559   2.775   3.824
82248W        W50589  41.024   4.373   4.323
82249W        W50590  27.559   9.654  10.910
82250W        W50591  25.625   3.873  13.056
82251W        W50592   1.959  41.921  14.783
82252W        W50593  15.124  14.295  10.406
82253W        W50594  20.651  37.966   1.323
82254W        W50595  42.892   8.199   4.347
82255W        W50596  37.495  40.915  14.790
82256W        W50597  39.007  35.568  11.974
82257W        W50598  43.419  39.533   3.849
82258W        W50599  32.102  42.943   4.157
82259W        W50600  30.603  23.046  12.354
82260W        W50601  33.465  22.567  14.814
82261W        W50602  22.706  15.262  10.504
82262W        W50603  12.762  38.878   5.118
82263W        W50604  31.460   9.652  13.860
82264W        W50605  22.225  31.594  14.785
82265W        W50606  11.748  19.764   0.792
82266W        W50607  16.142  22.557   2.242
82267W        W50608   7.697  11.831   2.214
82268W        W50609  25.092  35.892   4.334
82269W        W50610  27.476  14.335   2.298
82270W        W50611  17.652  27.101   0.262
82271W        W50612  38.427  35.432   3.785
82272W        W50613  44.958  11.161  12.479
82273W        W50614  41.843  36.891   4.140
82274W        W50615  42.893  20.553  14.022
82275W        W50616  11.341  22.519  12.563
82276W        W50617   3.420  16.671   0.469
82277W        W50618  12.804  36.563   1.294
82278W        W50619  25.564  10.708   2.800
82279W        W50620   5.348   4.416  10.893
82280W        W50621  39.912  22.510  14.874
82281W        W50622   5.746  33.557  13.320
82282W        W50623  19.732   0.774   4.687
82283W        W50624  17.112  24.137  11.540
82284W        W50625   5.334   1.901   4.716
82285W        W50626   5.337   7.802   4.801
82286W        W50627   5.706  16.619  14.016
82287W        W50628  34.534  10.311  10.472
82288W        W50629  31.997   1.428  14.948
82289W        W50630   9.683  27.959  14.344
82290W        W50631  31.411  20.751   2.870
82291W        W50632  23.227  26.112   4.680
82292W        W50633   7.399  44.425   0.417
82293W        W50634  28.969  25.561   3.816
82294W        W50635  21.243  21.199  12.082
82295W        W50636  29.947   0.350   4.631
82296W        W50637  37.962  26.954   0.252
82297W        W50638  11.731  26.463  13.515
82298W        W50639  26.527  34.992  12.068
82299W        W50640   4.746  22.201   4.297
82300W        W50641  31.515   1.342   2.344
82301W        W50642  37.835  30.059   3.831
82302W        W50643  19.547   8.673   4.331
82303W        W50644   5.224  34.994  11.568
82304W        W50645  26.026  18.667   2.268
82305W        W50646  35.498  22.192   3.801
82306W        W50647  37.523  25.103  13.985
82307W        W50648   6.713   2.723   4.150
82308W        W50649  19.629   4.421   2.341
82309W        W50650   8.786  30.439   1.739
82310W        W50651  38.884  17.303  12.909
82311W        W50652   8.287   8.690   0.398
82312W        W50653   5.714  42.364  11.881
82313W        W50654   0.851  20.633   0.262
82314W        W50655   4.882   4.756  12.446
82315W        W50656  40.936  39.932  14.926
82316W        W50657  15.583  34.891   2.845
82317W        W50658   7.187  29.560  11.959
82318W        W50659   6.368  25.602   3.222
82319W        W50660  10.842  17.229  10.578
82320W        W50661  39.811  39.935   9.947
82321W        W50662  28.968  10.291  13.874
82322W        W50663  33.476  41.954  13.378
82323W        W50664  37.487  38.515   0.462
82324W        W50665  37.485  39.557   2.273
82325W        W50666  29.649  10.644  13.049
82326W        W50667  20.171  43.301  12.464
82327W        W50668  11.149  34.110   3.681
82328W        W50669  14.256  37.421   4.240
82329W        W50670  33.454  20.726  12.493
82330W        W50671  14.707  40.311   1.912
82331W        W50672  32.446  44.449   4.163
82332W        W50673  23.735  31.075   4.757
82333W        W50674  18.645  34.001   2.901
82334W        W50675  15.580  36.048   3.634
82335W        W50676  32.885  31.129   3.246
82336W        W50677  11.777  30.909   2.262
82337W        W50678  26.203   8.770   4.307
82338W        W50679  29.445  37.363  13.852
82339W        W50680  28.651  11.360   2.666
82340W        W50681  18.057  33.441  10.913
82341W        W50682  43.984  16.147   2.388
82342W        W50683  25.496  31.153   2.194
82343W        W50684  12.249  13.247   0.819
82344W        W50685  42.956  35.084  13.534
82345W        W50686  14.159  11.780  10.932
82346W        W50687  26.133  37.475  10.998
82347W        W50688   6.393   4.906   0.328
82348W        W50689   5.891  25.632   3.765
82349W        W50690  15.281  25.529   4.162
82350W        W50691  40.932  31.626   1.802
82351W        W50692  42.330  33.536   3.699
82352W        W50693  41.817  29.540   1.250
82353W        W50694  16.218   2.890  14.370
82354W        W50695  10.797   8.682   4.682
82355W        W50696  43.415  15.823   2.729
82356W        W50697   6.843   5.878  10.437
82357W        W50698  23.063  26.192  13.421
82358W        W50699  38.402  41.957   5.305
82359W        W50700  20.154  18.214  14.782
82360W        W50701   7.208  16.709   0.343
82361W        W50702  13.215  18.757  13.848
82362W        W50703  18.179  26.167  12.477
82363W        W50704  33.056  38.040   1.428
82364W        W50705  12.753  32.607  13.989
82365W        W50706  19.272  10.362   3.771
82366W        W50707  28.179  27.001   2.319
82367W        W50708   7.901   2.801   0.790
82368W        W50709  34.034  25.988   1.365
82369W        W50710  37.965  41.345   1.441
82370W        W50711  24.083  27.945  13.002
82371W        W50712   3.439  35.935  10.935
82372W        W50713  35.387  32.108  14.392
82373W        W50714  21.676  17.244  13.440
82374W        W50715  23.121  24.586   0.735
82375W        W50716   0.945   1.431  13.946
82376W        W50717   7.806   4.848  13.324
82377W        W50718  18.208   7.182  11.009
82378W        W50719  25.145   9.758  11.971
82379W        W50720  33.895  30.551   3.686
82380W        W50721  36.506  29.650   3.326
82381W        W50722   7.226   5.226  14.827
82382W        W50723  40.527  21.663   2.286
82383W        W50724  12.352  18.274   4.186
82384W        W50725  27.159  14.157   2.276
82385W        W50726  24.026  19.121   0.765
82386W        W50727  10.286  38.408   2.680
82387W        W50728  30.064  39.534  12.886
82388W        W50729  11.247  20.256   1.415
82389W        W50730  43.844  18.651  11.959
82390W        W50731  11.667  44.832   4.340
82391W        W50732  36.401  20.642  10.451
82392W        W50733  36.910  22.087   2.356
82393W        W50734  40.989  24.217  14.459
82394W        W50735  31.018  40.518   1.390
82395W        W50736  24.137   4.796   5.141
82396W        W50737  19.133  23.499   2.240
82397W        W50738  27.124  17.791  14.799
82398W        W50739  11.820  16.772  11.529
82399W        W50740   2.792   1.437  14.361
82400W        W50741  30.630  29.057   3.758
82401W        W50742  39.363  24.511  11.935
82402W        W50743  20.097  21.218  12.384
82403W        W50744  15.310  21.640   0.841
82404W        W50745  22.241  18.701   1.427
82405W        W50746  25.072   7.692  13.041
82406W        W50747   9.818  44.275  12.011
82407W        W50748  26.640  31.586   3.362
82408W        W50749  41.985  35.950   1.871
82409W        W50750  21.737  30.100  14.320
82410W        W50751  43.293  18.057   0.329
82411W        W50752   5.807  38.972   0.922
82412W        W50753  28.014  44.802  14.825
82413W        W50754  19.684  23.507   3.722
82414W        W50755  41.794  41.939   0.791
82415W        W50756   0.392  31.991  11.025
82416W        W50757   1.811  35.463   3.805
82417W        W50758  25.708  34.084  13.956
82418W        W50759  42.941  29.949  13.820
82419W        W50760  26.621  14.748   2.773
82420W        W50761  42.478  40.987  14.971
82421W        W50762   7.238  18.558   3.838
82422W        W50763  13.184  18.695   4.737
82423W        W50764  43.010   8.281   1.360
82424W        W50765  18.688  23.205   0.899
82425W        W50766  26.543  36.964   2.693
82426W        W50767   4.266  42.876   2.780
82427W        W50768   8.877  41.310  10.965
82428W        W50769   7.291  14.327   3.305
82429W        W50770   3.242   6.241   0.295
82430W        W50771  15.173  23.610  11.571
82431W        W50772   7.818  22.051  14.875
82432W        W50773  10.279  19.280   4.319
82433W        W50774  35.941  23.036   1.767
82434W        W50775  17.276  41.429   2.339
82435W        W50776  26.106  15.306  11.531
82436W        W50777  22.666  22.112  12.949
82437W        W50778  38.036  15.261   2.788
82438W        W50779  14.828  44.333  14.441
82439W        W50780   9.877  22.124  10.525
82440W        W50781   7.748  20.568   2.213
82441W        W50782  10.851  17.623   3.154
82442W        W50783   6.377  22.026   4.271
82443W        W50784  38.915   7.280  12.919
82444W        W50785  21.208  20.033   0.923
82445W        W50786  23.234   1.391   1.350
82446W        W50787  18.551  14.196  11.525
82447W        W50788   8.316  20.723   1.427
82448W        W50789  27.970  29.051  13.363
82449W        W50790  27.644  16.073   1.926
82450W        W50791  28.966  41.814  14.967
82451W        W50792  25.154   9.182   2.708
82452W        W50793  37.999   4.865  14.335
82453W        W50794  42.797  37.481   1.420
82454W        W50795  43.464  32.484  13.004
82455W        W50796  31.596  18.204  13.860
82456W        W50797  37.574  31.147  11.566
82457W        W50798  38.038  39.541  13.910
82458W        W50799   3.729  40.862   0.345
82459W        W50800  18.282  34.518  11.557
82460W        W50801  16.308  40.324  10.403
82461W        W50802  21.696  28.643   4.157
82462W        W50803  14.160  12.203  11.436
82463W        W50804   6.349   5.691  12.350
82464W        W50805  10.296  42.797   4.612
82465W        W50806  23.120  31.104   1.739
82466W        W50807  15.195  38.449   5.091
82467W        W50808  34.496  10.329   3.856
82468W        W50809  43.824  41.797   3.775
82469W        W50810  42.389  43.425  11.489
82470W        W50811  32.925   2.721   2.690
82471W        W50812  23.705  32.486  10.599
82472W        W50813  41.976   0.793   0.796
82473W        W50814  25.117  30.484  14.923
82474W        W50815   5.884  33.407  12.029
82475W        W50816   2.424  34.075   1.426
82476W        W50817  37.896  44.340  13.339
82477W        W50818   6.369  38.368   4.771
82478W        W50819  12.713  12.674  12.371
82479W        W50820   6.347   4.287   1.762
82480W        W50821  39.556  30.564   1.829
82481W        W50822  28.609  40.338  11.076
82482W        W50823  36.409  10.641  14.337
82483W        W50824   5.249  27.090   0.328
82484W        W50825  15.278  38.374  13.381
82485W        W50826  11.861  38.919  11.107
82486W        W50827  10.228  15.610   1.363
82487W        W50828  31.954  14.099  13.354
82488W        W50829  29.534  35.957  13.441
82489W        W50830   9.712  24.499  14.954
82490W        W50831  42.911  38.959   3.180
82491W        W50832  28.091  44.307  14.788
82492W        W50833  15.756  15.704   0.858
82493W        W50834  22.228   7.242   2.401
82494W        W50835   4.369   3.214   0.475
82495W        W50836  35.563  15.723   4.304
82496W        W50837  11.803  43.999  12.511
82497W        W50838   5.194  39.383   0.927
82498W        W50839  21.144   4.399   4.704
82499W        W50840  25.049  21.557  10.531
82500W        W50841  30.080   1.780   2.734
82501W        W50842  21.700  43.468   0.285
82502W        W50843  33.603  18.237  13.418
82503W        W50844   5.909  27.081   1.237
82504W        W50845  14.142  13.316   4.241
82505W        W50846  35.507  19.235   2.701
82506W        W50847  41.436  26.497   0.321
82507W        W50848  32.477  41.872   4.697
82508W        W50849  15.643  39.932  11.927
82509W        W50850  34.526  41.408  14.856
82510W        W50851  28.663  37.078  14.284
82511W        W50852  14.186  26.990  12.511
82512W        W50853  18.785  42.404   2.281
82513W        W50854  41.297  40.014   0.891
82514W        W50855  32.569   3.858  13.893
82515W        W50856  12.301   7.858  12.404
82516W        W50857  19.080  18.790   2.852
82517W        W50858  20.601  27.078  12.079
82518W        W50859  22.108  11.330  10.431
82519W        W50860   6.427  37.041   3.204
82520W        W50861  42.826  22.201   1.735
82521W        W50862   0.336  19.157  13.038
82522W        W50863  44.341   4.704  14.775
82523W        W50864  21.607  35.014   4.810
82524W        W50865  39.040  27.058  10.961
82525W        W50866  13.752  17.083   1.878
82526W        W50867  10.363  25.533  14.483
82527W        W50868  25.493  26.081   9.639
82528W        W50869  35.954  32.626   3.858
82529W        W50870  36.586   0.804  12.497
82530W        W50871  44.897  10.831  11.102
82531W        W50872  34.937   6.794  14.873
82532W        W50873  37.352  42.360   4.656
82533W        W50874  14.212   1.360   2.237
82534W        W50875   3.351   2.813  14.896
82535W        W50876   5.698  44.353  10.466
82536W        W50877  14.257  21.636  14.333
82537W        W50878   1.957  15.661   0.749
82538W        W50879  17.290  34.393   2.360
82539W        W50880  43.917  36.448   1.402
82540W        W50881  15.111  22.714  14.462
82541W        W50882  32.438  40.936   0.847
82542W        W50883  27.996  40.317  12.460
82543W        W50884  24.032  36.593   3.749
82544W        W50885   7.903  39.996  11.468
82545W        W50886  21.231  44.828   1.317
82546W        W50887  20.222   7.737  12.459
82547W        W50888  12.299  33.501   4.142
82548W        W50889  28.565   5.270   3.757
82549W        W50890  37.842  30.932   3.862
82550W        W50891  14.663  25.102   2.251
82551W        W50892  42.409  20.550  11.378
82552W        W50893  42.011  29.434   4.256
82553W        W50894  18.269  39.052   9.922
82554W        W50895  33.089  29.605   4.788
82555W        W50896  26.535  41.418   3.807
82556W        W50897  18.287   9.843  12.367
82557W        W50898  28.973   2.877   0.955
82558W        W50899  11.127  20.566   1.706
82559W        W50900  35.865  23.593  12.387
82560W        W50901  13.666  23.535   4.193
82561W        W50902   9.681  27.550  11.876
82562W        W50903  13.240   6.284   2.795
82563W        W50904  28.013   2.930  13.853
82564W        W50905  27.181  23.689   3.814
82565W        W50906  11.253   2.377   2.375
82566W        W50907  15.681  19.248  12.849
82567W        W50908  24.688  22.072   4.624
82568W        W50909  15.170  37.881   4.200
82569W        W50910  10.380  40.954  14.022
82570W        W50911   5.421  11.658  10.921
82571W        W50912   3.322  26.030  12.050
82572W        W50913   0.973  29.112  10.592
82573W        W50914  39.944  33.577  13.027
82574W        W50915  15.281  27.660  11.867
82575W        W50916  21.243  15.658  13.458
82576W        W50917  26.097  35.923   4.324
82577W        W50918  43.999  14.337  10.896
82578W        W50919  34.948  40.848   3.844
82579W        W50920  44.826  16.129  11.582
82580W        W50921  39.001   8.784  12.477
82581W        W50922  37.483  43.512  11.896
82582W        W50923  21.716  25.609  11.865
82583W        W50924  33.973  28.584  14.005
82584W        W50925  35.019  28.489   4.274
82585W        W50926  26.067  20.698  12.875
82586W        W50927  41.970  17.569   3.744
82587W        W50928  38.876  39.321  14.494
82588W        W50929  27.456   2.322   1.394
82589W        W50930  34.602  21.540  12.088
82590W        W50931   9.268  16.626  10.015
82591W        W50932  18.716  25.564  14.998
82592W        W50933  22.116  31.095   1.867
82593W        W50934  12.140  25.023  13.455
82594W        W50935  38.954  20.031   4.244
82595W        W50936  41.815   5.249  14.466
82596W        W50937  29.087  21.530  11.039
82597W        W50938  42.797  26.567  13.879
82598W        W50939   9.719   6.691  10.917
82599W        W50940  31.151   0.835   3.835
82600W        W50941  39.454  19.160   3.761
82601W        W50942  22.672  14.775   1.771
82602W        W50943   8.696  27.076  14.992
82603W        W50944  43.302  29.156   1.243
82604W        W50945  14.310  34.006  11.507
82605W        W50946  32.887  35.554   4.170
82606W        W50947  10.204   5.819  12.403
82607W        W50948   2.924  10.870   3.705
82608W        W50949  13.776   3.756  13.477
82609W        W50950  27.589  14.095  12.485
82610W        W50951  42.450  20.581  12.509
82611W        W50952   0.939  37.574   0.860
82612W        W50953  34.035   3.406   4.263
82613W        W50954   0.361  42.441   3.654
82614W        W50955  20.683  29.467   3.804
82615W        W50956  26.119   3.831  11.436
82616W        W50957   6.390  32.540   4.659
82617W        W50958  18.570   0.314  12.079
82618W        W50959  23.579  27.087   0.378
82619W        W50960  34.869  23.179  13.791
82620W        W50961   0.452   1.280  14.866
82621W        W50962  13.154  31.064   4.707
82622W        W50963   3.362  15.628   2.853
82623W        W50964  29.450   4.230  14.316
82624W        W50965  27.155  20.626   0.456
82625W        W50966  36.970  39.935   4.759
82626W        W50967  35.986  30.603  14.461
82627W        W50968   2.449   4.275  13.478
82628W        W50969  22.009  32.601  11.550
82629W        W50970  42.366  23.562  11.608
82630W        W50971  22.137  19.678   3.800
82631W        W50972   6.362  22.167   1.721
82632W        W50973  25.071  32.004  13.916
82633W        W50974  32.519  26.001  12.912
82634W        W50975  40.031  44.464   3.381
82635W        W50976  19.151  26.496   4.729
82636W        W50977  33.022  17.116   4.712
82637W        W50978  15.187  14.178   0.482
82638W        W50979  40.988  44.853  12.988
82639W        W50980  34.915  34.605   1.855
82640W        W50981  13.219  34.905  11.542
82641W        W50982  37.475  37.476  10.056
82642W        W50983  38.450   7.754   2.791
82643W        W50984  24.636   0.327  14.866
82644W        W50985  10.254  11.275   0.319
82645W        W50986  38.411  42.333   1.265
82646W        W50987  39.851  34.428   4.726
82647W        W50988  27.954  13.604   2.250
82648W        W50989  39.904  16.145   2.220
82649W        W50990  34.067  26.507  11.985
82650W        W50991  29.027  10.743  14.825
82651W        W50992  27.086  33.556  12.455
82652W        W50993  31.511  38.848   2.790
82653W        W50994  41.310  25.562   4.355
82654W        W50995  28.155  33.050  12.548
82655W        W50996  21.743   2.233  13.523
82656W        W50997  23.729  25.608   2.244
82657W        W50998  38.898   3.234  14.005
82658W        W50999  28.678  25.128   3.772
82659W        W51000   7.670  27.979  12.345
82660W        W51001  37.924   0.272   1.303
82661W        W51002  41.342  38.384  14.774
82662W        W51003  31.503  36.948   2.796
82663W        W51004   5.267  11.352   2.185
82664W        W51005  12.857  43.304   4.328
82665W        W51006   5.354  28.988   3.741
82666W        W51007  15.220  19.046   3.818
82667W        W51008  35.360  23.146   3.674
82668W        W51009  33.613  44.284  11.534
82669W        W51010  43.773  30.952  14.007
82670W        W51011  35.380  11.777   2.697
82671W        W51012  30.165  26.135   4.839
82672W        W51013   4.786  35.985  11.426
82673W        W51014   3.866  31.603   1.287
82674W        W51015  39.454  34.118   0.791
82675W        W51016  17.223  17.226  11.964
82676W        W51017  10.649  43.338  11.902
82677W        W51018  11.647  11.303  12.895
82678W        W51019  42.522   7.397  13.524
82679W        W51020  22.730  26.153  13.862
82680W        W51021  43.486  42.845  10.643
82681W        W51022   8.311  30.575  14.400
82682W        W51023   0.814  11.189  13.810
82683W        W51024   2.723  39.884   0.847
82684W        W51025  41.996  15.795   3.743
82685W        W51026  11.640  19.131  14.503
82686W        W51027  28.032  37.512   0.253
82687W        W51028  40.489  40.921  12.580
82688W        W51029  27.037   7.381   3.686
82689W        W51030  14.214  31.406   1.322
82690W        W51031   1.296  31.955   2.232
82691W        W51032  29.494  26.645  13.011
82692W        W51033  37.577  17.584  13.324
82693W        W51034   2.268  44.447   0.426
82694W        W51035   6.770  12.652  13.358
82695W        W51036  21.249  35.069   2.797
82696W        W51037  36.350  35.479  13.927
82697W        W51038  14.176   8.213  12.490
82698W        W51039  23.089  16.794   3.676
82699W        W51040   3.881   7.286   3.343
82700W        W51041  24.532  26.157  11.878
82701W        W51042  19.283   5.235  12.852
82702W        W51043  21.099  29.445   1.749
82703W        W51044   8.240  21.608  12.509
82704W        W51045  30.536   5.899   1.737
82705W        W51046  22.041   7.790   2.671
82706W        W51047   9.813  19.151   4.320
82707W        W51048  28.977  24.487  14.958
82708W        W51049  35.421  13.831   1.314
82709W        W51050  17.272  26.662   0.388
82710W        W51051  39.356  36.411   3.173
82711W        W51052   6.314  11.149  14.377
82712W        W51053  44.498  32.002  12.866
82713W        W51054  43.306  40.811  12.869
82714W        W51055  34.603  32.445  14.385
82715W        W51056  41.305   8.347   0.767
82716W        W51057  43.911  38.883   1.749
82717W        W51058  25.584  23.505  13.536
82718W        W51059   3.814  43.000  13.914
82719W        W51060  11.317  17.116   0.401
82720W        W51061  32.007  30.555   1.342
82721W        W51062  17.652   5.206  11.440
82722W        W51063  43.927  40.314   4.607
82723W        W51064  15.652  12.175  13.402
82724W        W51065  24.119  35.972   3.645
82725W        W51066  27.009  14.765  11.372
82726W        W51067  26.580   0.969   3.330
82727W        W51068  12.256  21.698   1.338
82728W        W51069  13.713  27.502   2.392
82729W        W51070  14.155   6.235  13.849
82730W        W51071  27.533  36.400   4.274
82731W        W51072  32.426   4.862   1.444
82732W        W51073  12.724  34.974  10.411
82733W        W51074  32.127  29.169   0.261
82734W        W51075  38.046  37.944  10.921
82735W        W51076   3.293  43.364   1.842
82736W        W51077  24.572  27.616   1.729
82737W        W51078  11.178  39.907  10.969
82738W        W51079  40.394  38.834   2.309
82739W        W51080  11.816  31.405   1.791
82740W        W51081   6.296  36.541  12.082
82741W        W51082   3.429  33.469  12.432
82742W        W51083   1.322  26.567   3.312
82743W        W51084  13.759  33.605   2.758
82744W        W51085  25.182  27.958   2.288
82745W        W51086  44.753  38.385  14.780
82746W        W51087  17.280  36.490  12.417
82747W        W51088  27.176  39.515   4.205
82748W        W51089   9.259  24.153   2.336
82749W        W51090  11.867  12.292  14.868
82750W        W51091   3.776  25.198  10.640
82751W        W51092  44.875  30.921   0.959
82752W        W51093   5.343  19.205  14.968
82753W        W51094  13.782   2.248   3.156
82754W        W51095  19.156  32.574  14.817
82755W        W51096  11.710  15.797  11.911
82756W        W51097   9.213  31.080   0.274
82757W        W51098  13.218   8.664   2.274
82758W        W51099   9.724  30.913  10.430
82759W        W51100   5.280  19.229   0.851
82760W        W51101  21.120  12.287  14.876
82761W        W51102  12.757  31.966   3.782
82762W        W51103  32.533  35.535  13.945
82763W        W51104  26.010  13.287  12.379
82764W        W51105  18.728  40.335  14.960
82765W        W51106  44.796  43.961  12.354
82766W        W51107  25.696  36.870  13.456
82767W        W51108   9.755  15.294  12.971
82768W        W51109   3.832  28.966  14.823
82769W        W51110   5.226  44.373  11.002
82770W        W51111  34.370  35.964   1.369
82771W        W51112   1.282   2.820   3.751
82772W        W51113  14.685  25.469  12.489
82773W        W51114   3.306  27.078   4.186
82774W        W51115  42.793  31.415   3.154
82775W        W51116  24.033   9.394   1.728
82776W        W51117  38.875  37.565  14.863
82777W        W51118  31.153  23.035   0.951
82778W        W51119  20.569  32.446   1.882
82779W        W51120  40.419  10.664   1.361
82780W        W51121  25.674  18.657   0.430
82781W        W51122   7.705  18.235  12.074
82782W        W51123  20.679  39.972   3.748
82783W        W51124  40.899  10.643  13.444
82784W        W51125  14.796  20.674   0.482
82785W        W51126  29.484  29.071  13.315
82786W        W51127   1.479  30.422  11.384
82787W        W51128  31.468  31.005   0.323
82788W        W51129  16.657  35.418  12.956
82789W        W51130   1.482  16.243  10.953
82790W        W51131  34.369   8.348   4.317
82791W        W51132  12.612  36.887  14.333
82792W        W51133  16.777  16.234   3.716
82793W        W51134  40.320  40.342   5.139
82794W        W51135  22.157   3.763   2.773
82795W        W51136   1.961   8.297   2.897
82796W        W51137  22.195   8.268  14.320
82797W        W51138   5.215  39.352   4.799
82798W        W51139  11.328   5.776  12.828
82799W        W51140  13.321   5.339   4.219
82800W        W51141  30.653   7.400  10.548
82801W        W51142  31.119  25.178   0.249
82802W        W51143  20.669  18.097  11.390
82803W        W51144  41.506  11.192   1.708
82804W        W51145  27.127  42.796   4.203
82805W        W51146  34.080  39.896   3.851
82806W        W51147  38.353  21.183  13.419
82807W        W51148  17.132   9.325   1.778
82808W        W51149  30.531  33.936  11.980
82809W        W51150  32.494  14.631  13.532
82810W        W51151  38.071   1.465   3.645
82811W        W51152  43.779  30.086   2.339
82812W        W51153  15.794  20.721   4.291
82813W        W51154  19.583  37.337  10.107
82814W        W51155  27.496   8.327  14.415
82815W        W51156  10.751  31.126   1.911
82816W        W51157  18.126  23.211   1.318
82817W        W51158   1.746  41.886  11.878
82818W        W51159  19.762  31.487  14.460
82819W        W51160   9.226  27.021  13.955
82820W        W51161  10.316  10.361   2.831
82821W        W51162  20.765   0.937   0.441
82822W        W51163  23.605  20.175   4.625
82823W        W51164   5.282  40.308   2.236
82824W        W51165  28.003  37.976   2.316
82825W        W51166   2.720  23.642   3.211
82826W        W51167   1.271  12.224   0.851
82827W        W51168  19.136   7.738  13.994
82828W        W51169  11.357   8.781   0.293
82829W        W51170  18.270  25.499  13.964
82830W        W51171   4.340  12.635  13.992
82831W        W51172  32.611  26.690   2.269
82832W        W51173  12.623   8.887  12.864
82833W        W51174  22.148   4.203  13.989
82834W        W51175   9.180   5.791   0.790
82835W        W51176  19.708  30.094   4.166
82836W        W51177  20.086   4.380   1.906
82837W        W51178   5.297  17.602   1.885
82838W        W51179  43.770   8.771  14.792
82839W        W51180   8.816  28.533  13.500
82840W        W51181   2.367  38.948   2.738
82841W        W51182  26.699   6.894   4.142
82842W        W51183  41.834  26.077   0.932
82843W        W51184   9.155  12.803   2.321
82844W        W51185   9.373  17.086  14.850
82845W        W51186  27.072  33.018   4.324
82846W        W51187  44.784  33.066   3.802
82847W        W51188  41.793  38.951   1.794
82848W        W51189  31.084   5.340  12.968
82849W        W51190   5.342  39.947  13.037
82850W        W51191  39.821  30.566  14.783
82851W        W51192  19.596  43.349   0.912
82852W        W51193  40.334  39.940   4.775
82853W        W51194   5.905  38.868   3.316
82854W        W51195   5.827  12.209  14.865
82855W        W51196  41.986  36.482  11.590
82856W        W51197  21.166  19.689  12.867
82857W        W51198  22.161  36.913  12.522
82858W        W51199   3.452  17.081  12.524
82859W        W51200  19.279  33.876  11.049
82860W        W51201   3.938   8.839   3.283
82861W        W51202  25.011  12.684   1.303
82862W        W51203   0.986  23.116   0.750
82863W        W51204  14.272  19.749   1.341
82864W        W51205  10.773  28.015   0.431
82865W        W51206  14.665  43.346   1.278
82866W        W51207  39.327  27.632   2.210
82867W        W51208  22.558  16.083  13.321
82868W        W51209   2.244  36.971   4.818
82869W        W51210  13.604  40.970  13.822
82870W        W51211   9.727  27.653   4.170
82871W        W51212   1.960  18.154  11.527
82872W        W51213  30.086  42.468   2.413
82873W        W51214  14.308   9.264   0.757
82874W        W51215  17.636  28.133  12.576
82875W        W51216   9.239  16.295  11.991
82876W        W51217   2.301  30.515   0.299
82877W        W51218   7.295  19.143   4.740
82878W        W51219  38.893  21.621   4.347
82879W        W51220   5.879  33.433  14.865
82880W        W51221  35.451  13.300   3.831
82881W        W51222  43.438   5.799  14.306
82882W        W51223  13.260   1.876  11.602
82883W        W51224  16.310  35.965   4.271
82884W        W51225  23.623  30.134   4.317
82885W        W51226  27.631  36.867   3.731
82886W        W51227  44.450  31.949   2.361
82887W        W51228  37.372  26.952   2.811
82888W        W51229  15.215  27.534   2.193
82889W        W51230  41.363   9.232   2.211
82890W        W51231   7.675  27.519  11.375
82891W        W51232  42.401  40.876   1.242
82892W        W51233   3.322  43.979   1.781
82893W        W51234  24.065  26.553   4.815
82894W        W51235   2.376   3.217   4.192
82895W        W51236  27.692  25.205  12.939
82896W        W51237   8.288   0.806   4.797
82897W        W51238   4.226  10.198   0.371
82898W        W51239  36.961  22.580  11.862
82899W        W51240  26.601  41.411  10.908
82900W        W51241  32.636  15.181   1.235
82901W        W51242   2.867  31.916  13.522
82902W        W51243  42.364  24.704  11.924
82903W        W51244   8.378  12.216   2.399
82904W        W51245  44.322   4.277  10.001
82905W        W51246  19.190  37.945  10.490
82906W        W51247  27.959  23.618  11.495
82907W        W51248   0.972  30.450   4.719
82908W        W51249   5.886  21.741   1.838
82909W        W51250   5.716  43.282  11.414
82910W        W51251  24.617  36.975  14.352
82911W        W51252  13.759   9.718  13.398
82912W        W51253  44.490  18.601  12.964
82913W        W51254  42.017  37.389  10.618
82914W        W51255  34.930   1.758  13.797
82915W        W51256  30.443  27.051  13.358
82916W        W51257  15.287  37.377   1.280
82917W        W51258  11.858   4.355   3.329
82918W        W51259  37.441  21.741  13.991
82919W        W51260  40.850   1.432  14.441
82920W        W51261  16.572   5.773  14.788
82921W        W51262   6.822  13.225   2.296
82922W        W51263   3.791  28.672   2.860
82923W        W51264  33.977  23.496  13.948
82924W        W51265  17.091  14.757  11.548
82925W        W51266  27.642  31.589   2.364
82926W        W51267  11.669  24.518  11.452
82927W        W51268  28.561  35.494   1.916
82928W        W51269  40.356  17.063  14.773
82929W        W51270  27.970  17.064   3.687
82930W        W51271  24.186  26.056  10.616
82931W        W51272   2.455  17.129  12.462
82932W        W51273  16.722  43.848  12.958
82933W        W51274  24.616  36.960  12.454
82934W        W51275  29.174  28.003   0.771
82935W        W51276   6.796   8.295  13.979
82936W        W51277  29.544   7.181  10.144
82937W        W51278  28.940  34.590  11.902
82938W        W51279   8.202  16.756  12.526
82939W        W51280  42.010  29.654   0.924
82940W        W51281  18.563  12.177  13.407
82941W        W51282  31.592  37.933   3.727
82942W        W51283  27.161  22.558  11.435
82943W        W51284  41.928   5.437  12.486
82944W        W51285  35.929  37.009  10.572
82945W        W51286   5.819  21.682   3.386
82946W        W51287  43.379  43.959   3.700
82947W        W51288  23.123  34.373  13.544
82948W        W51289  31.994  17.630   2.401
82949W        W51290  17.163   3.715   2.415
82950W        W51291   3.742  37.566   4.613
82951W        W51292  26.023  27.494   1.892
82952W        W51293  25.623  32.602  12.412
82953W        W51294  26.619  10.321  11.007
82954W        W51295  27.508  39.055  14.011
82955W        W51296   5.382   7.312   0.945
82956W        W51297  21.107  34.913  11.040
82957W        W51298   2.945   6.923  10.937
82958W        W51299  31.522   1.838  12.527
82959W        W51300  30.085  18.608   0.727
82960W        W51301  24.112  23.211   0.396
82961W        W51302  30.454   0.349  11.984
82962W        W51303   9.253  19.152  11.037
82963W        W51304  33.028  17.694  11.969
82964W        W51305  38.558   1.744   2.862
82965W        W51306  29.450   8.295   3.164
82966W        W51307  42.375  42.309  11.485
82967W        W51308   6.766  42.833  14.998
82968W        W51309   1.847  13.113   2.251
82969W        W51310   2.772   4.886   0.967
82970W        W51311   3.418  34.015   2.419
82971W        W51312  16.177   1.438  13.959
82972W        W51313  31.522  43.457   4.288
82973W        W51314  39.481  19.653  12.483
82974W        W51315  10.253  30.585  13.055
82975W        W51316   1.349  37.401  13.467
82976W        W51317   2.296   7.199  11.605
82977W        W51318  40.850   1.971   2.738
82978W        W51319  25.586  18.727  12.987
82979W        W51320  13.207  44.353   0.446
82980W        W51321  15.327   7.374   0.911
82981W        W51322  16.169  37.033  11.468
82982W        W51323   9.307   3.908  13.850
82983W        W51324  33.585  18.759   3.697
82984W        W51325  30.605   1.284   0.753
82985W        W51326  30.526   0.344  14.414
82986W        W51327  33.996   4.746  13.425
82987W        W51328   5.804   7.193  13.947
82988W        W51329   2.335   6.768   1.378
82989W        W51330  23.538  25.063  13.796
82990W        W51331   9.676  20.077   1.702
82991W        W51332  38.910  27.529  10.607
82992W        W51333  18.259  36.431   3.347
82993W        W51334  39.348  13.194   3.273
82994W        W51335   8.320   6.744   2.303
82995W        W51336  41.870  32.984   2.774
82996W        W51337  31.629   6.695   4.751
82997W        W51338  27.635   1.787   3.239
82998W        W51339  31.537  23.225   1.452
82999W        W51340  36.052  33.081  14.872
83000W        W51341   5.327   4.903  13.842
83001W        W51342  44.368   8.326  12.500
83002W        W51343  23.633  16.106  11.441
83003W        W51344  42.368  39.871   3.762
83004W        W51345  39.979  38.896  12.073
83005W        W51346  17.692   6.903  13.944
83006W        W51347  33.587  19.748  12.545
83007W        W51348  17.198  18.277   4.253
83008W        W51349   0.373  28.548  13.829
83009W        W51350   4.794  14.169   1.274
83010W        W51351  29.564  21.685  11.566
83011W        W51352  38.014  23.659   0.894
83012W        W51353  27.569  21.155  11.976
83013W        W51354  21.693  19.779   0.330
83014W        W51355  30.566   8.207  10.926
83015W        W51356  13.271  19.196   2.375
83016W        W51357   4.218   2.401   1.244
83017W        W51358  24.988  31.567  12.507
83018W        W51359   5.342  16.267   4.660
83019W        W51360   6.697   9.293   4.174
83020W        W51361  44.802  10.776  12.986
83021W        W51362  31.921  13.616   0.323
83022W        W51363  36.869  44.948  11.886
83023W        W51364  16.161  18.179  14.331
83024W        W51365  26.970  24.696  12.948
83025W        W51366  29.081   8.826   2.243
83026W        W51367   6.207  35.051  12.507
83027W        W51368  29.480   8.322  14.027
83028W        W51369  19.582  28.518   2.328
83029W        W51370  24.500   9.265  11.413
83030W        W51371  33.912  25.649  10.595
83031W        W51372  11.346  14.336   1.861
83032W        W51373  19.675  10.167  12.976
83033W        W51374   9.216  11.134   3.188
83034W        W51375  16.627  40.930   2.363
83035W        W51376  30.156  25.144   0.872
83036W        W51377  23.664  29.664  13.838
83037W        W51378  39.966  29.957   4.600
83038W        W51379  40.882  20.261  10.423
83039W        W51380  31.576  20.198  13.382
83040W        W51381  17.613  31.451   0.414
83041W        W51382  30.455  25.186  10.057
83042W        W51383  38.392   8.752   1.262
83043W        W51384   5.886  13.248  11.385
83044W        W51385   1.432  20.613  10.454
83045W        W51386  21.246  37.080  14.330
83046W        W51387  39.980  21.202  14.348
83047W        W51388  29.016  17.595   3.227
83048W        W51389  11.313  36.495  14.426
83049W        W51390   8.192  16.231   1.812
83050W        W51391  39.055  32.112  13.308
83051W        W51392  13.195  19.660   1.698
83052W        W51393   3.319  18.744   9.924
83053W        W51394  19.129  11.197   0.917
83054W        W51395   4.350   0.905  12.357
83055W        W51396  14.651  42.945  10.961
83056W        W51397  17.669  33.586   2.736
83057W        W51398  17.099   5.837  11.968
83058W        W51399   0.269   7.185  14.858
83059W        W51400  43.493  35.386  14.901
83060W        W51401  30.977  23.202   1.362
83061W        W51402  16.773  31.440   3.660
83062W        W51403   6.801  42.932   4.622
83063W        W51404  32.982   8.301  12.909
83064W        W51405  30.981  18.643   2.846
83065W        W51406   9.751  29.009  13.884
83066W        W51407  13.837  42.292  14.373
83067W        W51408  33.602  36.392   0.827
83068W        W51409  10.677  19.632  13.491
83069W        W51410  27.585   6.785   4.755
83070W        W51411  32.549  27.571  12.497
83071W        W51412  18.790   7.895  12.050
83072W        W51413   8.271  40.009  13.888
83073W        W51414   5.713   7.411  13.402
83074W        W51415  38.454  38.881  13.340
83075W        W51416   1.479   3.876  10.993
83076W        W51417  25.516  17.615  12.378
83077W        W51418  38.960   1.885   4.633
83078W        W51419  41.933  24.181  12.830
83079W        W51420  42.444  11.698  13.327
83080W        W51421  11.742  18.128  11.109
83081W        W51422  39.830  33.065  14.374
83082W        W51423  19.173  34.932  13.857
83083W        W51424  38.554   4.417  11.877
83084W        W51425  17.644   1.452   2.210
83085W        W51426   6.321  39.924   1.267
83086W        W51427   6.853  20.651   4.211
83087W        W51428  16.234  11.239  11.090
83088W        W51429  26.020   1.887   0.733
83089W        W51430  13.651  40.532   2.410
83090W        W51431  25.119  39.944   1.841
83091W        W51432  34.889  38.916  12.467
83092W        W51433  44.421  29.001  10.904
83093W        W51434  14.123  35.394  12.415
83094W        W51435  11.643  20.555   3.217
83095W        W51436  41.456  24.708  11.940
83096W        W51437  25.215  23.106  11.567
83097W        W51438   1.385   2.269   1.379
83098W        W51439  43.975  30.605   3.334
83099W        W51440  43.911  35.503   3.749
83100W        W51441  22.719  38.466  12.995
83101W        W51442  37.992  27.640  12.360
83102W        W51443   3.761  21.193   2.727
83103W        W51444  38.978   1.889   3.216
83104W        W51445  29.428  28.037   3.161
83105W        W51446  23.056  17.167   0.742
83106W        W51447  18.292  32.971  14.448
83107W        W51448   2.792  16.098  14.022
83108W        W51449   5.198  21.752   4.346
83109W        W51450   4.848  37.467  14.488
83110W        W51451   0.846   5.798   3.306
83111W        W51452  38.370  24.121   0.782
83112W        W51453  34.525  20.624  10.518
83113W        W51454  23.083  27.630   2.842
83114W        W51455  26.166  32.471   0.410
83115W        W51456  23.579   2.414   3.743
83116W        W51457   4.934  19.231  12.371
83117W        W51458  17.564  20.531   4.174
83118W        W51459   9.196   6.850  10.485
83119W        W51460  28.147  40.406  13.008
83120W        W51461  30.955  30.513  11.915
83121W        W51462  34.612  29.662  13.466
83122W        W51463  16.709  10.286   2.178
83123W        W51464   6.771   1.473  14.456
83124W        W51465  30.563  43.926  14.325
83125W        W51466  10.362  43.418  14.792
83126W        W51467  13.240  40.985   4.323
83127W        W51468   7.240   8.687  14.481
83128W        W51469  10.837  27.635  13.938
83129W        W51470  24.078  36.901   0.930
83130W        W51471  38.910  36.591   2.806
83131W        W51472  43.323  35.375   4.715
83132W        W51473  12.183  19.091  14.846
83133W        W51474  26.567  35.422  12.341
83134W        W51475  33.918  18.074  14.358
83135W        W51476   8.366  30.496  13.965
83136W        W51477  26.524  36.886   5.264
83137W        W51478  20.155  37.044  13.386
83138W        W51479  15.682  39.383   1.854
83139W        W51480  38.452  15.087  13.940
83140W        W51481  34.110  37.535  11.414
83141W        W51482  29.122  32.952  10.534
83142W        W51483  26.666  39.356  10.571
83143W        W51484  16.678  29.935  13.061
83144W        W51485   6.267  25.645   0.780
83145W        W51486  30.596   3.452  14.487
83146W        W51487  32.636  28.556  10.894
83147W        W51488  13.297  28.065   4.150
83148W        W51489  27.604  29.522  13.503
83149W        W51490   2.897  25.191  13.046
83150W        W51491  20.048  41.817   2.227
83151W        W51492   1.308  21.183  12.049
83152W        W51493  33.043  20.686  12.023
83153W        W51494  14.132  38.408   3.153
83154W        W51495  35.964  16.098   4.797
83155W        W51496  35.073  33.940  11.900
83156W        W51497  34.509  32.567  12.364
83157W        W51498  38.879  39.027   4.742
83158W        W51499  27.153  32.070  13.049
83159W        W51500   5.392   3.260   1.810
83160W        W51501   0.889  33.577  11.056
83161W        W51502  41.369  41.521  10.433
83162W        W51503  43.376  40.032  14.817
83163W        W51504   4.819  42.969   5.094
83164W        W51505  40.026  33.582  10.626
83165W        W51506  21.706  13.647  14.866
83166W        W51507  16.578  18.129   1.407
83167W        W51508  37.532  21.211   0.258
83168W        W51509  37.866  38.856  12.394
83169W        W51510   5.389  41.796  14.013
83170W        W51511   9.820  13.625   0.298
83171W        W51512  38.075   8.171  14.489
83172W        W51513  39.849  21.223  10.922
83173W        W51514  34.901   9.276   1.446
83174W        W51515   2.271  27.945   2.857
83175W        W51516  10.641  42.916  10.437
83176W        W51517   3.721  33.553   1.776
83177W        W51518  34.923   8.687   2.733
83178W        W51519  23.184  32.139  14.936
83179W        W51520  41.321  27.950   4.633
83180W        W51521   8.660   2.898   3.262
83181W        W51522  17.717  43.892  13.371
83182W        W51523  22.046  13.693   0.753
83183W        W51524  34.546   7.826   3.808
83184W        W51525  23.206  39.460  13.928
83185W        W51526  27.159  17.212  10.537
83186W        W51527  30.110  20.707   0.325
83187W        W51528  38.419  16.129  11.872
83188W        W51529  29.983  39.883   1.695
83189W        W51530  18.615   9.307   4.143
83190W        W51531   7.837  23.103  11.874
83191W        W51532  12.723  26.137  11.073
83192W        W51533   6.305  30.623   0.819
83193W        W51534   5.696  42.325   2.780
83194W        W51535   5.279  25.191  14.820
83195W        W51536  36.509  23.588  10.564
83196W        W51537  17.208  43.869  12.479
83197W        W51538  30.993  31.908   3.154
83198W        W51539  41.507   1.292  10.558
83199W        W51540   6.861  17.249   2.698
83200W        W51541  20.070  13.726  14.892
83201W        W51542  12.686  16.275  11.913
83202W        W51543  20.253  10.356  10.511
83203W        W51544  39.324  22.140  14.787
83204W        W51545   1.905   9.667   0.931
83205W        W51546  10.684  16.157  13.870
83206W        W51547  18.195  36.989  14.880
83207W        W51548   3.423  18.768   5.264
83208W        W51549  34.376   2.732  10.935
83209W        W51550  22.134  40.798  13.336
83210W        W51551  23.017  19.715   3.322
83211W        W51552  41.990   7.270  12.441
83212W        W51553  12.347  35.598   1.743
83213W        W51554   6.339  25.483  12.469
83214W        W51555  17.251  36.553   1.449
83215W        W51556   8.343  20.159  10.622
83216W        W51557  37.582   4.417  10.945
83217W        W51558  12.787  32.109  10.133
83218W        W51559  22.999  27.014  10.591
83219W        W51560  41.038   6.721  10.592
83220W        W51561  42.433   1.860   4.331
83221W        W51562  17.728   6.264   3.723
83222W        W51563  20.762   1.805   1.340
83223W        W51564  32.016  38.993  14.979
83224W        W51565  19.722   7.307  11.472
83225W        W51566  20.216  26.652   0.781
83226W        W51567  16.236  32.566   9.947
83227W        W51568  37.355   6.185  11.493
83228W        W51569  31.989  11.713   3.248
83229W        W51570  19.146   6.295   0.957
83230W        W51571  44.887  25.619   3.749
83231W        W51572   9.306  29.439   4.192
83232W        W51573   1.925   3.831  14.777
83233W        W51574  29.138  32.972  13.898
83234W        W51575  17.127  22.024   2.782
83235W        W51576   9.278  18.746  10.461
83236W        W51577  43.812  37.864  12.405
83237W        W51578  35.555  14.686   1.713
83238W        W51579   0.329   8.186  14.327
83239W        W51580  18.273  26.043  12.042
83240W        W51581   9.153  14.310  12.355
83241W        W51582  16.216  43.962   0.926
83242W        W51583  18.125  23.630  13.316
83243W        W51584  42.395  42.352  14.884
83244W        W51585  33.570  32.997  12.473
83245W        W51586  41.940  20.744  12.397
83246W        W51587   2.238  42.945   5.086
83247W        W51588  19.124  14.104   2.345
83248W        W51589  34.022   3.859   1.930
83249W        W51590  20.704  33.076  11.071
83250W        W51591  35.598  38.830   1.244
83251W        W51592   4.759  40.884  11.506
83252W        W51593  24.032  24.974  13.815
83253W        W51594  35.027   3.412  13.435
83254W        W51595  19.045  14.619  12.571
83255W        W51596  41.493   2.838   2.249
83256W        W51597  17.798   3.797  10.611
83257W        W51598   0.454  44.835   2.826
83258W        W51599   8.664  31.512   0.764
83259W        W51600   0.433  39.022  12.412
83260W        W51601  27.098  30.029   3.377
83261W        W51602  15.145   3.712   3.862
83262W        W51603  27.953  18.790   1.398
83263W        W51604  31.938  20.274  12.566
83264W        W51605  38.861  13.672   2.288
83265W        W51606  27.496  22.590   3.367
83266W        W51607  22.540  44.439  12.066
83267W        W51608  25.596   8.663  12.854
83268W        W51609  19.748  13.689   4.747
83269W        W51610  19.100   3.934   2.332
83270W        W51611   1.937   4.340  12.349
83271W        W51612  35.067  43.492  11.528
83272W        W51613  12.705  11.265  14.425
83273W        W51614  22.579  36.095   3.279
83274W        W51615  34.483  11.684  11.502
83275W        W51616  18.077  14.097   1.880
83276W        W51617  23.071  39.481  12.962
83277W        W51618  36.381   2.850  10.459
83278W        W51619  33.021   0.781  14.920
83279W        W51620  44.328   5.875   1.379
83280W        W51621   3.313  33.436  13.955
83281W        W51622  36.065   5.380   4.288
83282W        W51623  36.391  24.627  12.042
83283W        W51624  15.586   5.363   0.362
83284W        W51625  10.780  30.009   4.787
83285W        W51626  19.539  13.694   0.432
83286W        W51627   8.666  13.785  12.530
83287W        W51628  42.486  13.838  13.966
83288W        W51629  24.666  16.315   5.600
83289W        W51630   2.721  22.741  12.433
83290W        W51631  44.305  28.081   0.350
83291W        W51632  31.471  36.475   0.388
83292W        W51633  13.218  23.728  11.077
83293W        W51634  44.307  31.558   4.137
83294W        W51635  19.262  24.009  14.980
83295W        W51636   3.407   4.916   3.153
83296W        W51637  22.713  15.319  14.491
83297W        W51638  43.344  19.204   4.268
83298W        W51639  15.779  17.590  12.963
83299W        W51640  16.712   0.253  11.410
83300W        W51641  42.800  19.236  14.929
83301W        W51642   0.492  30.443   3.198
83302W        W51643  26.521  25.128   1.443
83303W        W51644   5.704  16.216   2.739
83304W        W51645   1.764  23.658  14.873
83305W        W51646  40.445  44.870  14.847
83306W        W51647  12.257  30.436  12.492
83307W        W51648  39.521  40.947  13.441
83308W        W51649  38.382   3.226  10.564
83309W        W51650  34.084  38.920   4.128
83310W        W51651  38.387  43.961  14.030
83311W        W51652  28.645  21.180   4.133
83312W        W51653   0.489  43.510   2.772
83313W        W51654   1.737  19.638   2.895
83314W        W51655  20.205  29.940   3.733
83315W        W51656  14.661  21.737   1.888
83316W        W51657   0.318  31.557  11.557
83317W        W51658  11.346  24.224  11.603
83318W        W51659  20.117  29.568   0.434
83319W        W51660  20.080  17.307  14.479
83320W        W51661  26.076  19.662  14.873
83321W        W51662   1.249  12.172  10.939
83322W        W51663  17.699  28.587   2.206
83323W        W51664  12.132  41.843   1.831
83324W        W51665  18.657  21.540   5.125
83325W        W51666  38.891  42.964   5.655
83326W        W51667  29.614  26.693   4.244
83327W        W51668  20.548  42.296  11.482
83328W        W51669  14.673  17.764   0.954
83329W        W51670   8.281  19.773   3.265
83330W        W51671   9.351   4.913  14.287
83331W        W51672  40.805   9.378   0.762
83332W        W51673  38.922  25.970  14.901
83333W        W51674   8.330  27.074  12.940
83334W        W51675  10.367  38.404   0.734
83335W        W51676  43.347   0.816  10.422
83336W        W51677  39.922   9.196   4.287
83337W        W51678  28.935  42.020   2.411
83338W        W51679   8.843  10.265  13.943
83339W        W51680  38.487  14.668  13.930
83340W        W51681   7.876  12.770   3.283
83341W        W51682   2.773  32.574  11.404
83342W        W51683  44.840  41.391  12.078
83343W        W51684   9.328  14.763   4.337
83344W        W51685  31.041  19.166  14.390
83345W        W51686  25.639  40.804   4.660
83346W        W51687  29.524   5.894  14.009
83347W        W51688  13.631  14.610   3.260
83348W        W51689  13.285  42.488   1.395
83349W        W51690  34.544  39.332   1.438
83350W        W51691  15.205  30.494  11.513
83351W        W51692  44.487   4.896  12.366
83352W        W51693  23.207  34.107   1.732
83353W        W51694  17.261  28.060   1.772
83354W        W51695   3.437   6.835   2.182
83355W        W51696   0.959  10.229   1.712
83356W        W51697  14.642   4.412   3.225
83357W        W51698  27.581  24.223  14.846
83358W        W51699  23.086  23.600  14.782
83359W        W51700  26.671  17.649  10.405
83360W        W51701   2.804  43.514  10.488
83361W        W51702  40.968  40.898   3.649
83362W        W51703  11.735  42.329   0.260
83363W        W51704  33.000  33.915   1.373
83364W        W51705  19.126  42.020  14.894
83365W        W51706   2.924  41.499   4.355
83366W        W51707   4.736   3.298   2.200
83367W        W51708  16.745  21.039   2.770
83368W        W51709   9.749  14.215   0.245
83369W        W51710  13.264  30.564  14.384
83370W        W51711  11.343   4.851  14.398
83371W        W51712  13.169  14.191   2.242
83372W        W51713   1.431  24.485  10.442
83373W        W51714  18.148  21.535   0.387
83374W        W51715  22.024  17.108  10.497
83375W        W51716   5.220  25.621  10.938
83376W        W51717  38.917  36.924   3.266
83377W        W51718  24.716  10.284   1.848
83378W        W51719  34.504  28.493  13.902
83379W        W51720   6.200  12.352   0.292
83380W        W51721  25.153   5.393   2.314
83381W        W51722   9.821  16.091  10.515
83382W        W51723  37.488  32.546   5.269
83383W        W51724  25.680  29.639  12.438
83384W        W51725  33.600   0.880  14.865
83385W        W51726  27.100  27.103  11.539
83386W        W51727  28.678  16.603  13.895
83387W        W51728   1.283  27.521  14.484
83388W        W51729  33.947   6.921  12.519
83389W        W51730   5.292   7.184   4.628
83390W        W51731   2.419  40.046   1.727
83391W        W51732  31.452  36.027   2.734
83392W        W51733   0.421  14.628   2.796
83393W        W51734   1.877   5.868   4.249
83394W        W51735   5.396  31.922   3.767
83395W        W51736  29.121  37.977  14.799
83396W        W51737  31.992  27.692  14.928
83397W        W51738   8.833  13.130  12.377
83398W        W51739  38.976  17.723  10.552
83399W        W51740  44.275   2.901   0.363
83400W        W51741  16.806  11.364   2.785
83401W        W51742   8.763  30.511   4.186
83402W        W51743   8.769  44.863   2.800
83403W        W51744  41.926  37.484  12.020
83404W        W51745  25.117  20.255  10.639
83405W        W51746  29.604   5.739   3.864
83406W        W51747  20.200   8.205   1.706
83407W        W51748  21.245  19.542   0.425
83408W        W51749   5.707  41.510  14.930
83409W        W51750  14.681  24.145  11.882
83410W        W51751   9.730  28.169   1.352
83411W        W51752   8.363  27.680  13.052
83412W        W51753  10.673  42.783  10.947
83413W        W51754  33.054  22.610  13.923
83414W        W51755  19.066  21.194   0.250
83415W        W51756   0.280  20.745   5.792
83416W        W51757  13.682  13.191   4.695
83417W        W51758   2.828  19.066   1.265
83418W        W51759   2.406   8.754   1.294
83419W        W51760   7.175  20.703  12.048
83420W        W51761  13.316   4.759   0.356
83421W        W51762   5.860  28.074   0.787
83422W        W51763   8.701  20.163   0.894
83423W        W51764  39.347   4.775  10.141
83424W        W51765  17.600  24.511  12.482
83425W        W51766  28.533  21.667   0.415
83426W        W51767   2.738  19.134  10.015
83427W        W51768  40.962  14.661  13.937
83428W        W51769   9.327  12.760   2.806
83429W        W51770   1.758  27.061  14.821
83430W        W51771  21.618  42.833  11.474
83431W        W51772  11.638   1.971   3.186
83432W        W51773  31.034   6.338  12.476
83433W        W51774  36.062  24.615   0.469
83434W        W51775  17.267  15.177  10.508
83435W        W51776  17.250   9.691   4.782
83436W        W51777  39.443  16.778  12.962
83437W        W51778   9.297  37.397  11.608
83438W        W51779  13.825  24.191   3.642
83439W        W51780   4.206  10.320  12.441
83440W        W51781  11.364  23.674   4.235
83441W        W51782  31.130   5.360  14.934
83442W        W51783  22.525  19.221   4.149
83443W        W51784  16.123  37.505   1.744
83444W        W51785  25.183  17.186  12.034
83445W        W51786  26.103  25.649  11.594
83446W        W51787  37.923   8.206   0.870
83447W        W51788  13.293   3.266  12.920
83448W        W51789   7.791  38.412  13.530
83449W        W51790  27.029   7.265   0.879
83450W        W51791   0.838  24.723   4.157
83451W        W51792  15.757  34.519  14.948
83452W        W51793  42.868  42.467  11.459
83453W        W51794  25.189  33.444   1.272
83454W        W51795  26.698  31.028   4.606
83455W        W51796  13.614  39.376  14.944
83456W        W51797   7.674  41.439  14.927
83457W        W51798  21.072  10.773   3.738
83458W        W51799   0.287  25.659   2.817
83459W        W51800  20.143  25.667  10.430
83460W        W51801  28.454  42.788  13.855
83461W        W51802  17.677  18.051   3.182
83462W        W51803  38.037  29.516  13.890
83463W        W51804  40.401  12.265  14.957
83464W        W51805  11.215  10.768  14.327
83465W        W51806  42.281  12.715   4.183
83466W        W51807   1.317  17.710  11.425
83467W        W51808   1.431  38.845  11.074
83468W        W51809  17.564  14.260  12.568
83469W        W51810  38.866  26.125  13.515
83470W        W51811  40.533  27.076   3.862
83471W        W51812  41.445  27.578   2.848
83472W        W51813  30.944  31.407  11.518
83473W        W51814  22.703  11.731   2.277
83474W        W51815  32.066  26.508  10.632
83475W        W51816  23.503  16.614  12.500
83476W        W51817   4.262  12.250  10.417
83477W        W51818  41.414  18.191  13.971
83478W        W51819  20.563   1.419   3.760
83479W        W51820  43.497  43.893   1.819
83480W        W51821  13.158  28.108  13.445
83481W        W51822  37.367   6.798  14.325
83482W        W51823   7.372  14.722  10.585
83483W        W51824  21.124  32.902  14.440
83484W        W51825  10.370  12.340  12.026
83485W        W51826   3.366  10.316   4.781
83486W        W51827   0.472   5.299   3.804
83487W        W51828  24.504   0.913  11.127
83488W        W51829   0.956  34.600   0.407
83489W        W51830  29.655   1.378   0.389
83490W        W51831  19.772  27.081  14.996
83491W        W51832   6.274   1.452  13.999
83492W        W51833  25.152  26.639   4.205
83493W        W51834  19.062  37.400   0.446
83494W        W51835  23.146  19.255   0.428
83495W        W51836  36.576   1.237  10.424
83496W        W51837  32.532  14.142   0.878
83497W        W51838  23.083  27.163   0.887
83498W        W51839  25.118   8.250  11.425
83499W        W51840  44.484  21.526  11.875
83500W        W51841  32.050  43.794   9.961
83501W        W51842  43.334  23.074  12.400
83502W        W51843   7.878  11.150  14.348
83503W        W51844  12.154   1.384   1.301
83504W        W51845   9.862  30.620   2.201
83505W        W51846  25.159   0.431  10.135
83506W        W51847  29.995   6.696  13.861
83507W        W51848  34.900  12.704  10.516
83508W        W51849  27.631   2.954  12.825
83509W        W51850  17.751   0.893  12.997
83510W        W51851  37.850  31.118   3.337
83511W        W51852   1.310  29.170  14.488
83512W        W51853   2.751   2.364   1.387
83513W        W51854  36.996  33.004  13.489
83514W        W51855   9.318  17.562  10.460
83515W        W51856  39.061  41.001  11.407
83516W        W51857  23.578  31.647   2.835
83517W        W51858  17.151   0.834   5.262
83518W        W51859  22.632  36.094   2.342
83519W        W51860   7.845  33.016   3.382
83520W        W51861  14.589   1.300  12.515
83521W        W51862  34.410  34.927  14.989
83522W        W51863  38.511   5.852   1.391
83523W        W51864  20.715  30.959   2.817
83524W        W51865  34.439   6.312   3.834
83525W        W51866  22.668   3.840  13.011
83526W        W51867  14.764  14.310   4.136
83527W        W51868   4.780  35.886   0.741
83528W        W51869  16.583  10.154  14.981
83529W        W51870  35.902  28.068   2.790
83530W        W51871  41.847  44.964  14.297
83531W        W51872  39.327  37.913   0.449
83532W        W51873   6.714  12.199  11.031
83533W        W51874   6.866  33.015   1.342
83534W        W51875  13.251   5.419  11.488
83535W        W51876  31.011  25.499   1.252
83536W        W51877  11.137  14.703   1.214
83537W        W51878  44.324  13.189   4.124
83538W        W51879  43.810  38.391   0.747
83539W        W51880   3.329   5.917  11.085
83540W        W51881  16.100  10.328  12.410
83541W        W51882  26.663  39.515   0.405
83542W        W51883  12.213  36.983   1.889
83543W        W51884   6.252   6.345  14.377
83544W        W51885  40.403  24.574  13.515
83545W        W51886  11.261   1.749   3.726
83546W        W51887   1.847  38.403   3.767
83547W        W51888  12.651  40.922  10.490
83548W        W51889  38.346  19.631   4.756
83549W        W51890  17.568  26.014   0.743
83550W        W51891   6.844  10.776  12.486
83551W        W51892   4.848  30.619  13.801
83552W        W51893  21.587  23.002  12.958
83553W        W51894  21.158  14.815  14.450
83554W        W51895  31.562  27.186   1.933
83555W        W51896   3.730  33.458   2.280
83556W        W51897  33.096  12.770   0.310
83557W        W51898  15.641  39.055  11.896
83558W        W51899   1.392  23.647  11.573
83559W        W51900  10.854  30.954  13.479
83560W        W51901  40.907   6.341  12.072
83561W        W51902  19.104   5.803  10.598
83562W        W51903  38.923  42.516   0.840
83563W        W51904  11.842  30.136   4.172
83564W        W51905   3.774   5.389  12.025
83565W        W51906  27.150  34.520   3.320
83566W        W51907  25.987  38.385  10.601
83567W        W51908  44.306  41.528   0.761
83568W        W51909  18.731  25.514   2.279
83569W        W51910  22.690   2.769   4.190
83570W        W51911  14.759  23.028   3.260
83571W        W51912  37.416  42.021  14.027
83572W        W51913  36.023  16.185  11.446
83573W        W51914  25.493  18.584   2.221
83574W        W51915  28.499  16.206   0.426
83575W        W51916  29.067  39.980  12.479
83576W        W51917   1.814  37.013  12.061
83577W        W51918  37.366  42.498   4.355
83578W        W51919  31.557  43.284  12.535
83579W        W51920  26.137  16.136   0.910
83580W        W51921  39.893  37.062   4.287
83581W        W51922  20.259  43.976   1.911
83582W        W51923  29.090  40.836  12.365
83583W        W51924  30.504  29.938   0.728
83584W        W51925  23.132  19.620  12.839
83585W        W51926  30.970  33.444   9.986
83586W        W51927  38.892   2.415  11.051
83587W        W51928   9.706  11.152  12.040
83588W        W51929  18.266  12.797  12.425
83589W        W51930   5.234  24.130   1.718
83590W        W51931   5.233  41.451   4.723
83591W        W51932  44.912  39.980  12.831
83592W        W51933  19.680   4.294  12.958
83593W        W51934  34.432  27.618   1.890
83594W        W51935   1.940  42.866  10.468
83595W        W51936  38.477  44.807   4.770
83596W        W51937  41.902  38.940   1.439
83597W        W51938  42.954  29.082   4.118
83598W        W51939  44.412  24.191  13.842
83599W        W51940  14.102  13.625   2.792
83600W        W51941  11.196   2.899  14.370
83601W        W51942   5.750   7.810   2.813
83602W        W51943  15.131  15.190   1.400
83603W        W51944   2.339   1.781  12.570
83604W        W51945  31.628  32.951   2.372
83605W        W51946  15.591   4.860   0.826
83606W        W51947  28.016  44.360   5.314
83607W        W51948  24.608  27.194  13.985
83608W        W51949   0.839  31.136   3.841
83609W        W51950  18.085  24.717  10.935
83610W        W51951  11.687  12.281   2.288
83611W        W51952  28.592  29.570   2.888
83612W        W51953   6.758   4.794  14.899
83613W        W51954  38.886  30.035   1.875
83614W        W51955   9.324  40.340   3.266
83615W        W51956  21.228  43.279   4.163
83616W        W51957  22.055  22.593  10.515
83617W        W51958  26.493  38.060  11.867
83618W        W51959  25.188  37.032   0.480
83619W        W51960  43.983  14.829  10.471
83620W        W51961  36.058   1.749   1.291
83621W        W51962  37.945  11.368  10.984
83622W        W51963  12.809  30.430   3.319
83623W        W51964   0.491  42.816   4.642
83624W        W51965  27.575  34.476   3.380
83625W        W51966  21.149   1.291  14.407
83626W        W51967  22.211  14.621   1.833
83627W        W51968  10.352  21.568   3.371
83628W        W51969  29.458  33.566  10.087
83629W        W51970  35.578  32.602  12.049
83630W        W51971  36.514  26.166  10.941
83631W        W51972   1.468  17.654  12.960
83632W        W51973   3.728   2.228  12.852
83633W        W51974  22.089  33.487  12.900
83634W        W51975  17.689  16.076  11.491
83635W        W51976  39.424  22.108   1.449
83636W        W51977  23.526  34.463   3.325
83637W        W51978  31.043  42.781  10.542
83638W        W51979  16.184  38.936  10.483
83639W        W51980  14.610  12.130  11.103
83640W        W51981  30.446  12.357  11.386
83641W        W51982  41.396  11.796  10.914
83642W        W51983  43.348  11.239   4.184
83643W        W51984   1.330  12.757   1.848
83644W        W51985  24.184  12.279  14.281
83645W        W51986   3.239  42.289  12.846
83646W        W51987  36.859  21.198   5.138
83647W        W51988  30.450  36.362  12.514
83648W        W51989  43.889  35.028   0.967
83649W        W51990  15.771  13.715  12.445
83650W        W51991  22.695  22.674  12.030
83651W        W51992  29.952  27.062  14.788
83652W        W51993  12.241  41.402  11.491
83653W        W51994  14.752  24.534  14.495
83654W        W51995  40.449  37.576   1.407
83655W        W51996   6.861  20.639  14.781
83656W        W51997  14.732  32.023   2.410
83657W        W51998   7.774  41.859  13.035
83658W        W51999  32.454  15.680  14.851
83659W        W52000  11.734   1.299  10.936
83660W        W52001   7.906  35.386   0.328
83661W        W52002  33.097  41.382  14.008
83662W        W52003   1.753  23.663   0.939
83663W        W52004   2.745  35.981  13.435
83664W        W52005  26.479   6.864  11.418
83665W        W52006  42.509   3.309   2.263
83666W        W52007  41.954  14.216  10.100
83667W        W52008  11.755  25.600  10.449
83668W        W52009  21.700  12.801   2.369
83669W        W52010  40.924  42.930   0.845
83670W        W52011  20.663  14.627   2.318
83671W        W52012  39.320  39.362   0.784
83672W        W52013  17.687  17.135   4.833
83673W        W52014   2.233  10.865   4.792
83674W        W52015  24.548  17.579   1.244
83675W        W52016  16.594  33.059   4.789
83676W        W52017  24.495  33.938  12.380
83677W        W52018  16.168  19.586  13.983
83678W        W52019   2.743  37.837   0.731
83679W        W52020  12.288  37.560   0.737
83680W        W52021  38.018  32.074   4.708
83681W        W52022  13.798  22.698   3.147
83682W        W52023  31.526  18.105   0.396
83683W        W52024   0.755  16.633  13.045
83684W        W52025  30.484   4.773   1.903
83685W        W52026   2.889  40.983   4.606
83686W        W52027  35.991  41.456  14.027
83687W        W52028  27.629  37.349   0.780
83688W        W52029  18.135  26.468  14.966
83689W        W52030  35.922  22.036  13.974
83690W        W52031  24.712  26.488  14.434
83691W        W52032  22.126  40.492  11.396
83692W        W52033   5.339   0.405  14.412
83693W        W52034  10.822   5.226   4.750
83694W        W52035  41.381  33.960   2.239
83695W        W52036  39.503   8.756   3.716
83696W        W52037  36.989  43.837  11.981
83697W        W52038  30.926  11.203   3.648
83698W        W52039  33.519   3.887  12.878
83699W        W52040  39.525  26.512  12.425
83700W        W52041  40.423  40.344  14.027
83701W        W52042  20.595  39.856  10.565
83702W        W52043  11.363  41.878  12.056
83703W        W52044   6.416  29.045   0.739
83704W        W52045  29.443  24.625  11.010
83705W        W52046  35.998  38.025  12.491
83706W        W52047  17.082  41.475   0.832
83707W        W52048   8.403  21.243   0.967
83708W        W52049  17.610  39.919  12.927
83709W        W52050  40.922   4.436  10.893
83710W        W52051  43.408  43.425   4.752
83711W        W52052  28.143  31.060  12.428
83712W        W52053  26.116   7.687  10.442
83713W        W52054   5.290  28.533  14.032
83714W        W52055  10.848  30.497   0.263
83715W        W52056  15.640  23.101   0.742
83716W        W52057   8.748  17.079   0.344
83717W        W52058  37.968  34.063   1.843
83718W        W52059   6.678  28.929  14.873
83719W        W52060   3.769  44.009  10.429
83720W        W52061   5.359  19.081  12.891
83721W        W52062  38.985  37.012   1.746
83722W        W52063  30.457  28.656   1.753
83723W        W52064  18.599  17.092   2.762
83724W        W52065  43.366  22.112   4.603
83725W        W52066  40.867   2.947   0.818
83726W        W52067   7.410  29.655   2.298
83727W        W52068  44.801  14.648  14.385
83728W        W52069   2.862  16.228   0.423
83729W        W52070   8.819  23.019   4.187
83730W        W52071   8.698  42.820  12.866
83731W        W52072  10.210  43.508   4.617
83732W        W52073  10.716  35.914  14.805
83733W        W52074  13.690  37.838   0.841
83734W        W52075   8.889  31.491   1.901
83735W        W52076  11.314  33.939  14.939
83736W        W52077   6.273  40.036  12.375
83737W        W52078   9.159  32.578   1.451
83738W        W52079  31.108  17.208   0.285
83739W        W52080  41.007   6.763  12.845
83740W        W52081  11.678  19.750  12.868
83741W        W52082  22.044  15.678  11.040
83742W        W52083  26.491  16.282  12.523
83743W        W52084  32.091  11.367   9.952
83744W        W52085  29.966  22.661   2.386
83745W        W52086  13.813  23.686  14.508
83746W        W52087  30.034  26.540   0.379
83747W        W52088   1.358  27.531  14.845
83748W        W52089  18.222  22.096   2.370
83749W        W52090  26.586  34.927   2.296
83750W        W52091   1.956   8.800   1.439
83751W        W52092  37.059  27.537  14.831
83752W        W52093  43.331  18.779  14.773
83753W        W52094  39.850  30.162  14.328
83754W        W52095   8.272  13.313  12.849
83755W        W52096  16.237   4.875   2.807
83756W        W52097  36.413  31.602  12.903
83757W        W52098  13.110   1.795  10.519
83758W        W52099  31.916  13.312  14.447
83759W        W52100  24.496   6.885   3.770
83760W        W52101  17.556   5.812  11.966
83761W        W52102  27.559  15.747  13.886
83762W        W52103   7.277  33.048  14.899
83763W        W52104   0.935   3.424   4.173
83764W        W52105  16.315  33.565   1.694
83765W        W52106  43.001  34.520  10.453
83766W        W52107  13.292  24.011   4.280
83767W        W52108  22.747  18.187   4.711
83768W        W52109  15.231   5.240  11.879
83769W        W52110  11.742  18.175   3.795
83770W        W52111   8.714  27.673  12.908
83771W        W52112  37.481  22.719   3.304
83772W        W52113  41.893  35.485  14.340
83773W        W52114  33.478  26.489  13.881
83774W        W52115  39.048  30.132  12.955
83775W        W52116  41.484   9.269  13.863
83776W        W52117   0.792  12.709   2.326
83777W        W52118  41.483  41.495  13.354
83778W        W52119   8.893  12.684  13.882
83779W        W52120  36.868  30.038   4.682
83780W        W52121  21.699   0.295   4.196
83781W        W52122  11.339  27.669   0.313
83782W        W52123   3.944   3.750   3.809
83783W        W52124   6.783  44.426  13.391
83784W        W52125  26.561  27.983   2.363
83785W        W52126  33.555  21.120   3.156
83786W        W52127  33.529  33.082   3.295
83787W        W52128  32.080  24.591  11.089
83788W        W52129  12.345   9.808   2.766
83789W        W52130   1.775  33.444  14.953
83790W        W52131  28.176  39.391   1.912
83791W        W52132   4.771   7.870   2.797
83792W        W52133  21.669  19.632  14.907
83793W        W52134  38.887  39.523  10.005
83794W        W52135  19.042  27.143  13.476
83795W        W52136  14.235  20.075  12.962
83796W        W52137  14.629  38.015  10.001
83797W        W52138  31.552   1.763   0.848
83798W        W52139  43.381  42.001   4.193
83799W        W52140   4.886  24.699  11.025
83800W        W52141  11.778  40.944   1.351
83801W        W52142   6.792  24.662  14.787
83802W        W52143   7.255  12.317  11.540
83803W        W52144  12.320  29.511  14.012
83804W        W52145  24.166  10.799  11.381
83805W        W52146  29.970  34.880  10.938
83806W        W52147  25.972  23.005   0.419
83807W        W52148  21.152  12.686   0.462
83808W        W52149  16.753  13.754  14.803
83809W        W52150  33.961  19.208   2.186
83810W        W52151  22.164  44.873  14.402
83811W        W52152  42.507  32.502   3.163
83812W        W52153  10.819  21.135  14.910
83813W        W52154  24.147  14.610   0.463
83814W        W52155  32.997  33.458   2.352
83815W        W52156  44.885   2.726   3.635
83816W        W52157   1.343   8.166   0.318
83817W        W52158   7.202  36.997  13.876
83818W        W52159  23.018   4.210  11.908
83819W        W52160   0.982  21.732   2.820
83820W        W52161  19.162  10.182  14.510
83821W        W52162   8.757  12.762   1.723
83822W        W52163  38.909  20.581   2.384
83823W        W52164  11.822   1.817  10.921
83824W        W52165  39.442   3.794  14.485
83825W        W52166  16.621   7.316   4.609
83826W        W52167  42.324  44.860  13.793
83827W        W52168  37.471   5.829   1.216
83828W        W52169  36.005  42.337   1.276
83829W        W52170  38.865  31.134  11.607
83830W        W52171  32.464  30.571   3.256
83831W        W52172  30.029  42.023   3.698
83832W        W52173  37.521  21.049   3.148
83833W        W52174   7.814  29.510  11.887
83834W        W52175  42.480  21.659  11.585
83835W        W52176  31.494  22.533   0.257
83836W        W52177   3.720   8.178  12.459
83837W        W52178  38.484  21.637  11.053
83838W        W52179   0.339  21.659  12.382
83839W        W52180  38.033  32.972   0.372
83840W        W52181  35.945   6.331   2.775
83841W        W52182  42.016  37.877  13.509
83842W        W52183   3.821   1.292  11.011
83843W        W52184  11.195  40.490  12.503
83844W        W52185  37.392  34.912  11.117
83845W        W52186  41.381  30.061   1.734
83846W        W52187  24.056  21.527   4.723
83847W        W52188  43.868  27.049  14.869
83848W        W52189  22.563  16.268  11.881
83849W        W52190  37.340  25.139   3.828
83850W        W52191   7.887  42.436  12.348
83851W        W52192  23.192  20.729  14.298
83852W        W52193  43.341   6.364   1.728
83853W        W52194  14.652  34.506   1.415
83854W        W52195  23.647  21.634  12.945
83855W        W52196  19.210  24.097   3.845
83856W        W52197   2.329  11.185   3.630
83857W        W52198   7.722  44.505   4.219
83858W        W52199  41.031  36.558  11.899
83859W        W52200  16.308  17.634   2.398
83860W        W52201  20.557  21.652   4.635
83861W        W52202  26.056  34.880  13.526
83862W        W52203  13.291  10.723   5.278
83863W        W52204  40.536  34.915   0.319
83864W        W52205  40.884  33.505   1.719
83865W        W52206  26.084  27.974   1.421
83866W        W52207  25.132  33.563  10.513
83867W        W52208   6.220   9.387   0.822
83868W        W52209  23.089  30.105  10.554
83869W        W52210  37.069  20.658   3.793
83870W        W52211  41.880   1.879   2.373
83871W        W52212  34.058   1.833  12.439
83872W        W52213  34.922  35.527  12.367
83873W        W52214   4.930  32.556  11.379
83874W        W52215  25.209   3.293   0.326
83875W        W52216  16.659   3.431   2.851
83876W        W52217  10.364  14.681  14.357
83877W        W52218  43.973  28.435  13.331
83878W        W52219  17.153   1.462   0.917
83879W        W52220  23.174  28.520  12.492
83880W        W52221  33.478   0.387   1.322
83881W        W52222  11.199  11.210   4.120
83882W        W52223   3.850   1.365   4.831
83883W        W52224  32.558  12.806   3.191
83884W        W52225  16.257  42.374  14.457
83885W        W52226  10.146  41.992   2.704
83886W        W52227  28.120  15.283   0.270
83887W        W52228  15.682  44.276   0.452
83888W        W52229  31.147  32.970  13.021
83889W        W52230  42.872  12.620  12.434
83890W        W52231  25.655  42.824  13.481
83891W        W52232  39.890   4.420  12.403
83892W        W52233  37.427  30.437  13.486
83893W        W52234  20.261  18.597  12.841
83894W        W52235  27.645  30.420   0.364
83895W        W52236   4.446  22.592  11.065
83896W        W52237  25.074  27.000   2.268
83897W        W52238  30.525  44.388  13.467
83898W        W52239  23.039  18.166  13.017
83899W        W52240  23.534  16.691  13.027
83900W        W52241   4.819  29.564   0.264
83901W        W52242  37.083  28.946  14.289
83902W        W52243  43.834  38.483  10.618
83903W        W52244  21.032  16.292  11.541
83904W        W52245  42.032  24.222   4.659
83905W        W52246  24.127  32.119  12.387
83906W        W52247  17.158  26.025   1.378
83907W        W52248   4.786  10.854   1.394
83908W        W52249  26.692  39.044  11.021
83909W        W52250  43.877  26.082   1.805
83910W        W52251   7.808  25.616  10.928
83911W        W52252  24.043  33.424   0.772
83912W        W52253   2.232  38.520   4.823
83913W        W52254  17.174  42.281  11.414
83914W        W52255   1.238  33.519  14.022
83915W        W52256  14.309   6.794  13.044
83916W        W52257  36.999  44.894  13.974
83917W        W52258   2.316  23.599  11.389
83918W        W52259   5.205  44.802   1.217
83919W        W52260  37.962   5.246   0.309
83920W        W52261  19.055  23.236   5.277
83921W        W52262  34.392  39.009   4.819
83922W        W52263   7.259  22.716   4.728
83923W        W52264   2.423  39.835  11.863
83924W        W52265  38.385  40.831   1.244
83925W        W52266  34.938   5.907  11.392
83926W        W52267  10.704  39.944   0.876
83927W        W52268  14.110  40.537  13.516
83928W        W52269  32.431  43.855   3.260
83929W        W52270  39.325  22.215  10.477
83930W        W52271   5.922   4.845   2.281
83931W        W52272  16.307  36.046   0.305
83932W        W52273  32.037  33.432   2.882
83933W        W52274  32.466  24.057  11.987
83934W        W52275   5.762   5.824  10.987
83935W        W52276  40.008   1.744   3.746
83936W        W52277  40.382  30.531   2.810
83937W        W52278  12.707  10.339   1.791
83938W        W52279   1.888  18.232  13.476
83939W        W52280  11.855  14.672  14.979
83940W        W52281  41.887  22.696  10.605
83941W        W52282  34.374   8.209   2.820
83942W        W52283  15.701  10.632  13.382
83943W        W52284   0.283  33.058  14.481
83944W        W52285  29.072  39.399   2.679
83945W        W52286  14.642  12.293   2.405
83946W        W52287  39.493  43.501   3.733
83947W        W52288  28.996  17.280   3.331
83948W        W52289  29.507   2.381  14.835
83949W        W52290   2.801  26.968   4.788
83950W        W52291  12.271  27.183   1.905
83951W        W52292  41.964  23.212  12.060
83952W        W52293   9.159  43.021  14.317
83953W        W52294  28.574  19.137  12.401
83954W        W52295  26.532  38.898   1.236
83955W        W52296  35.472   3.345   1.740
83956W        W52297  37.041  41.909   1.373
83957W        W52298  14.108  22.061   1.797
83958W        W52299  12.731  43.406   1.387
83959W        W52300  25.478  10.343  14.782
83960W        W52301  44.002   2.278   1.849
83961W        W52302   1.753  12.686  12.354
83962W        W52303  40.475  10.384   3.730
83963W        W52304  41.446  22.603  10.496
83964W        W52305   7.763  38.952   0.442
83965W        W52306  36.559  28.943  14.781
83966W        W52307  11.813  14.790  12.548
83967W        W52308  20.560  40.330  13.834
83968W        W52309   8.806   0.955  12.472
83969W        W52310  33.113  30.063   2.829
83970W        W52311  22.587   7.784   2.697
83971W        W52312   4.230  16.701   1.706
83972W        W52313  18.606  16.318  13.446
83973W        W52314  44.370  27.072  14.855
83974W        W52315  16.275   8.345  12.023
83975W        W52316  27.614  12.304   4.834
83976W        W52317  13.120  39.947   2.891
83977W        W52318  34.889   9.368  14.796
83978W        W52319  14.245   4.938  10.954
83979W        W52320  40.410  22.744   3.823
83980W        W52321   8.862  32.988  13.323
83981W        W52322   7.667  44.823   3.291
83982W        W52323  26.530   6.223   5.164
83983W        W52324  29.978  28.965  12.566
83984W        W52325  35.559   0.906   0.361
83985W        W52326  24.123   4.325  11.065
83986W        W52327   9.655  24.660  11.983
83987W        W52328  42.305   4.365   2.211
83988W        W52329  18.582  23.585  11.591
83989W        W52330  19.215  43.289  12.345
83990W        W52331   0.452  31.968   4.340
83991W        W52332  20.586  38.912  10.895
83992W        W52333  32.439  13.740  11.462
83993W        W52334  35.381  34.593  12.953
83994W        W52335  40.890  36.407  10.631
83995W        W52336   2.316  16.715  10.485
83996W        W52337  21.149  42.475   2.238
83997W        W52338  14.164  18.104   1.354
83998W        W52339  39.814   8.326  14.463
83999W        W52340  34.061  11.760   3.653
84000W        W52341  30.466  38.557  11.529
84001W        W52342   1.776   4.343   4.293
84002W        W52343  17.165   4.437   3.783
84003W        W52344  20.551  23.733   3.265
84004W        W52345   1.775   0.381  14.479
84005W        W52346  38.856   7.831  12.357
84006W        W52347  21.713  21.511   0.905
84007W        W52348  43.344  40.485  10.922
84008W        W52349  44.339   3.880   1.848
84009W        W52350  17.579   2.327  12.847
84010W        W52351  38.829  43.864  13.421
84011W        W52352  10.283  38.389   1.874
84012W        W52353  32.923  14.809   1.868
84013W        W52354  22.118  40.865   4.212
84014W        W52355   6.849  15.210   4.683
84015W        W52356  20.236  14.648  14.501
84016W        W52357   9.359  44.345  13.953
84017W        W52358  35.491  18.698  12.528
84018W        W52359   2.253   2.731   3.805
84019W        W52360  30.064  33.471  11.925
84020W        W52361  14.707  41.452   5.309
84021W        W52362   6.830  11.815  10.907
84022W        W52363  38.866   3.868   0.457
84023W        W52364  35.485  37.943   4.832
84024W        W52365   3.874   2.270   3.687
84025W        W52366  17.086  17.667  12.975
84026W        W52367  10.173  26.037   4.629
84027W        W52368  11.733  11.693   1.859
84028W        W52369  36.365  31.459   1.426
84029W        W52370  28.546  40.037   0.802
84030W        W52371  26.612  29.152  12.856
84031W        W52372   8.315  11.695   4.246
84032W        W52373  19.128  18.769  11.870
84033W        W52374   7.837  43.928  12.391
84034W        W52375  38.479   2.891   4.659
84035W        W52376  24.699  40.465  11.040
84036W        W52377  20.095  32.443   2.754
84037W        W52378  21.721  15.608   3.196
84038W        W52379  26.127  17.757   5.635
84039W        W52380  44.430  26.700  13.896
84040W        W52381  38.865  11.284   1.713
84041W        W52382  35.989  17.758  13.026
84042W        W52383   6.791  43.294   3.319
84043W        W52384  16.161  42.971  13.022
84044W        W52385  15.714  33.511  10.496
84045W        W52386   1.947  20.164  12.957
84046W        W52387  15.768  18.107   2.814
84047W        W52388  44.900  43.927   4.637
84048W        W52389  32.908  13.317  13.432
84049W        W52390  22.247  27.103  11.094
84050W        W52391  30.467  12.342  12.955
84051W        W52392   9.828   8.307  10.479
84052W        W52393  31.627  35.044  14.464
84053W        W52394  27.474  20.637  11.931
84054W        W52395  43.792  32.453  12.501
84055W        W52396  16.234   3.313   4.217
84056W        W52397  12.694  25.086   2.897
84057W        W52398  14.740  32.986   9.469
84058W        W52399  30.928   8.258   1.359
84059W        W52400  15.723   4.321   0.265
84060W        W52401  14.612  41.996  13.902
84061W        W52402   1.942  14.191   1.836
84062W        W52403  17.632  42.504   1.710
84063W        W52404  17.687  24.719   0.394
84064W        W52405   1.768  24.097   1.743
84065W        W52406  40.441   3.726  12.490
84066W        W52407  33.610   0.896  12.969
84067W        W52408  36.387   9.784   2.401
84068W        W52409  33.462  13.258   9.949
84069W        W52410  26.135   5.868  10.610
84070W        W52411  41.393  28.679   1.253
84071W        W52412   7.357  26.197  10.998
84072W        W52413  10.845  28.069   4.232
84073W        W52414  20.553   4.436   1.327
84074W        W52415   2.338  40.392   1.723
84075W        W52416  26.188  38.916  10.557
84076W        W52417  12.835   5.929   4.309
84077W        W52418  43.464  11.221  12.919
84078W        W52419  27.521  27.594  10.111
84079W        W52420  27.956   6.269  13.397
84080W        W52421   7.202   5.717  13.444
84081W        W52422  11.761  17.779   4.748
84082W        W52423  34.054  23.573   1.229
84083W        W52424  23.998  40.806  12.346
84084W        W52425  37.901  15.823  13.547
84085W        W52426  20.029  20.213   2.264
84086W        W52427   7.794  27.960  14.396
84087W        W52428  16.744  26.632   1.880
84088W        W52429  34.376  11.737   2.288
84089W        W52430  11.839   7.283  12.838
84090W        W52431   0.293  20.620   3.192
84091W        W52432   0.788  38.529  11.399
84092W        W52433  19.133   7.696  13.319
84093W        W52434  16.073  15.764  11.045
84094W        W52435   1.888   5.279   1.820
84095W        W52436  43.869   5.248   2.358
84096W        W52437  39.447  34.430  12.072
84097W        W52438  16.613  44.002   0.393
84098W        W52439  16.073  34.531  10.076
84099W        W52440  42.859   3.785  14.387
84100W        W52441  22.050  14.168  12.388
84101W        W52442  19.576   2.841  11.410
84102W        W52443  30.158  16.723  12.493
84103W        W52444  11.265  20.089  10.462
84104W        W52445  21.721  23.192   2.896
84105W        W52446  29.495   5.317  10.513
84106W        W52447  22.576  13.127  13.420
84107W        W52448   4.206  37.042   1.872
84108W        W52449  36.069  34.572  12.450
84109W        W52450   5.700  43.883   1.296
84110W        W52451  24.620  27.686  11.891
84111W        W52452  28.489  32.502  13.048
84112W        W52453  27.147  43.349   1.905
84113W        W52454   2.370   8.178   2.210
84114W        W52455   3.751   5.199  11.533
84115W        W52456  33.970   6.709  14.384
84116W        W52457  10.289  20.147   4.608
84117W        W52458  12.353  12.196   3.792
84118W        W52459  25.156  11.289  12.875
84119W        W52460   4.252  44.000  10.907
84120W        W52461   7.331  21.682  11.929
84121W        W52462  42.020  17.199  11.990
84122W        W52463  38.946  42.329   0.373
84123W        W52464  38.474  12.296   2.303
84124W        W52465  11.833   3.743   2.743
84125W        W52466  35.602   5.346   3.710
84126W        W52467  13.845  30.978  13.349
84127W        W52468  35.073  18.710   3.829
84128W        W52469  20.552  41.921  13.339
84129W        W52470  25.693  29.649   3.672
84130W        W52471  31.595  12.313   3.783
84131W        W52472  29.989   6.251   0.283
84132W        W52473  36.507  27.509   3.223
84133W        W52474  44.274  41.476   1.385
84134W        W52475  34.590  23.088   1.252
84135W        W52476  25.537   8.195  14.282
84136W        W52477   0.427  15.795   5.274
84137W        W52478  17.261   5.904  11.593
84138W        W52479  29.467  43.506   4.258
84139W        W52480  40.328   2.742   0.910
84140W        W52481  30.117  17.189   2.186
84141W        W52482  13.803  17.735  12.016
84142W        W52483  26.960  35.888   4.666
84143W        W52484  38.921  15.751   1.854
84144W        W52485  26.478  12.203  11.097
84145W        W52486  14.334  28.172  11.990
84146W        W52487   5.697  13.671  11.869
84147W        W52488  19.055   8.347  12.532
84148W        W52489  18.591  27.470   3.711
84149W        W52490   2.359  35.909  11.031
84150W        W52491  28.167  36.964  14.316
84151W        W52492  37.963  36.388   3.360
84152W        W52493  36.874   0.397   4.829
84153W        W52494  26.068   6.212  10.561
84154W        W52495  37.551  30.488   3.317
84155W        W52496  41.520  25.547   2.241
84156W        W52497  22.518   7.358   1.721
84157W        W52498  23.062  16.682   4.286
84158W        W52499  15.667  11.812   2.776
84159W        W52500  14.775  21.054   4.767
84160W        W52501  26.196   8.181  11.494
84161W        W52502   8.351  26.670  12.419
84162W        W52503   6.867  21.131  14.841
84163W        W52504  28.463  36.988   0.867
84164W        W52505  33.573   0.868  12.418
84165W        W52506  44.392  34.374   2.200
84166W        W52507   1.405  22.629  11.489
84167W        W52508   5.732   7.304  14.800
84168W        W52509  29.571  14.227  12.955
84169W        W52510   0.883  27.017   2.259
84170W        W52511  25.616  33.398   1.754
84171W        W52512   3.277  34.074   4.698
84172W        W52513  19.665  17.626  13.843
84173W        W52514  11.631  16.733   4.128
84174W        W52515  24.607  11.317   3.247
84175W        W52516  37.890  29.652   3.826
84176W        W52517  22.647  22.652  12.421
84177W        W52518  30.958  31.058   0.776
84178W        W52519  14.149  39.489  14.325
84179W        W52520  26.660  16.631  13.005
84180W        W52521  21.668  39.988  12.480
84181W        W52522  17.281  21.087  10.982
84182W        W52523  31.946  44.824  13.031
84183W        W52524  39.907  28.501  13.477
84184W        W52525  29.031  15.221  10.453
84185W        W52526  31.978  11.681  11.582
84186W        W52527  24.084  16.217  11.868
84187W        W52528  13.845  35.582   3.165
84188W        W52529  27.527   9.828  14.966
84189W        W52530  13.338  18.140  12.838
84190W        W52531  37.455   8.310  12.067
84191W        W52532  13.645  43.909  10.624
84192W        W52533   2.399  22.181  13.432
84193W        W52534  16.144  36.454  11.001
84194W        W52535  18.776  43.364   3.771
84195W        W52536  13.634   8.324   4.777
84196W        W52537  14.715   8.289   3.149
84197W        W52538  35.003  15.780   5.242
84198W        W52539  29.985   9.325  11.419
84199W        W52540  42.846  23.622   2.763
84200W        W52541  13.136   3.884   4.647
84201W        W52542  37.059  31.897  14.501
84202W        W52543  41.949  24.534  13.931
84203W        W52544  25.126  29.011   0.434
84204W        W52545  38.902  29.564  12.396
84205W        W52546  39.010  26.080  11.864
84206W        W52547  11.744  19.242  11.867
84207W        W52548  36.034   7.368  10.524
84208W        W52549  29.102  37.928   0.946
84209W        W52550  28.529  37.041  14.914
84210W        W52551  34.546  11.317   4.301
84211W        W52552  43.373  16.312  13.800
84212W        W52553  44.332  10.305   2.860
84213W        W52554   5.929  12.192   4.647
84214W        W52555  33.929  15.653   4.743
84215W        W52556  33.897   1.858  13.964
84216W        W52557  37.373  14.156  12.370
84217W        W52558  13.674  31.604   3.772
84218W        W52559  32.054  25.536   1.410
84219W        W52560  23.718  12.680  11.018
84220W        W52561  28.597   6.722  14.967
84221W        W52562  18.239   0.295  12.905
84222W        W52563  20.550  31.638  12.060
84223W        W52564  15.223  34.902  10.983
84224W        W52565   0.958  32.081  11.081
84225W        W52566  22.042   6.886   0.471
84226W        W52567  26.162  27.505  11.600
84227W        W52568  37.044  40.882  11.376
84228W        W52569  25.677   4.734   2.330
84229W        W52570  34.464  44.880  14.492
84230W        W52571  44.879  19.262   0.464
84231W        W52572  30.004  43.897  11.106
84232W        W52573  20.147  21.254  14.843
84233W        W52574  35.464   2.918  12.560
84234W        W52575  15.291   6.789  11.910
84235W        W52576  36.380   0.916  14.869
84236W        W52577  28.539   7.292   2.771
84237W        W52578  43.866  13.347   1.891
84238W        W52579   8.752  37.836   3.328
84239W        W52580   2.411  40.471   2.267
84240W        W52581  18.563   7.798   3.267
84241W        W52582  11.666  14.612   0.260
84242W        W52583  29.000  11.686   4.744
84243W        W52584  12.752  32.050   0.829
84244W        W52585  38.988  43.854   1.855
84245W        W52586  34.064  14.613  14.473
84246W        W52587  13.147  21.574   4.813
84247W        W52588  35.063  16.158   0.731
84248W        W52589  39.414   5.906   2.666
84249W        W52590   5.822  23.671  12.075
84250W        W52591   6.352  25.626   0.255
84251W        W52592   8.700  39.829   4.196
84252W        W52593   8.872  43.978   3.651
84253W        W52594  30.579  25.595  14.345
84254W        W52595  28.495   8.680   4.712
84255W        W52596  39.808  11.282   4.214
84256W        W52597  23.223  39.906  12.072
84257W        W52598   2.829  44.982  11.106
84258W        W52599  30.081  41.917  12.050
84259W        W52600  39.510  14.316  12.025
84260W        W52601  24.172  37.465  10.015
84261W        W52602  28.119  33.889  12.504
84262W        W52603  12.123  33.968   2.732
84263W        W52604   9.223  23.135   3.797
84264W        W52605  18.737  24.664   4.163
84265W        W52606  42.948  14.776   0.407
84266W        W52607  25.556   8.723  14.490
84267W        W52608  37.898  41.938   2.788
84268W        W52609  16.194  17.697   2.828
84269W        W52610  44.906  17.210  14.806
84270W        W52611  32.499  10.240  10.904
84271W        W52612  36.907  38.393   2.243
84272W        W52613  31.132  39.339   2.391
84273W        W52614  12.289  38.340  13.864
84274W        W52615  36.925   2.885   3.824
84275W        W52616  12.350  11.790  10.016
84276W        W52617  21.529  15.322  10.420
84277W        W52618  26.959  10.702  10.922
84278W        W52619  33.445  36.092  12.871
84279W        W52620  29.049  40.839   4.833
84280W        W52621  15.684  21.704  12.984
84281W        W52622   1.960   2.745  13.441
84282W        W52623  24.626  12.121   1.246
84283W        W52624  44.844  26.657   5.201
84284W        W52625  19.112  40.947   1.923
84285W        W52626   9.290   1.841   4.184
84286W        W52627   1.269  23.068   0.381
84287W        W52628  16.793  31.577  10.939
84288W        W52629  32.417   2.938  11.084
84289W        W52630  29.550  33.920  10.542
84290W        W52631  44.793  37.840  11.611
84291W        W52632  34.460  43.913  10.976
84292W        W52633  26.100  21.753  11.446
84293W        W52634  24.703  38.537  14.788
84294W        W52635  11.806   3.809   0.483
84295W        W52636   3.943  42.997  12.462
84296W        W52637   2.792  26.687   2.415
84297W        W52638   5.905  43.786   2.252
84298W        W52639  34.071  24.675  11.865
84299W        W52640  41.457   7.332  11.020
84300W        W52641  18.634  28.603  14.027
84301W        W52642  38.534   5.416   2.258
84302W        W52643   8.373  39.946   0.865
84303W        W52644  20.113  24.529   2.834
84304W        W52645  14.133  42.974  13.469
84305W        W52646  17.138  10.349   2.766
84306W        W52647  41.336   2.824  13.430
84307W        W52648  37.550  34.102   1.253
84308W        W52649   1.930  41.941  12.413
84309W        W52650   2.408  30.589   4.339
84310W        W52651   1.459  36.067   1.850
84311W        W52652  40.424  18.641   3.637
84312W        W52653  24.666   4.430  13.524
84313W        W52654   7.713  31.916  13.889
84314W        W52655  44.308  29.475  12.038
84315W        W52656  18.289  29.580  11.544
84316W        W52657  28.440  35.543   1.364
84317W        W52658  34.892   1.964   0.816
84318W        W52659  39.456  16.157  13.485
84319W        W52660  18.721  19.742   4.296
84320W        W52661   9.202   6.806  11.888
84321W        W52662  31.636   5.741   2.187
84322W        W52663  10.179  13.625   1.401
84323W        W52664  24.111  14.125  14.014
84324W        W52665   5.306  19.078  14.360
84325W        W52666  40.863  37.841  13.538
84326W        W52667  21.530  43.010   2.784
84327W        W52668   4.245  26.010  12.578
84328W        W52669  27.950  42.496   0.770
84329W        W52670  25.485   5.221   4.602
84330W        W52671   3.352   5.346  13.013
84331W        W52672   6.248  41.441   4.285
84332W        W52673   5.688  44.392   1.327
84333W        W52674  27.033  36.902   0.296
84334W        W52675   9.347  28.954  11.007
84335W        W52676  36.031  40.986  13.040
84336W        W52677   8.386  24.986  10.430
84337W        W52678  39.978  19.719  12.080
84338W        W52679  21.072  41.472   3.708
84339W        W52680  22.679  34.494  14.484
84340W        W52681  43.876  33.408  11.442
84341W        W52682   9.860  39.514  11.056
84342W        W52683   4.780  23.529   0.246
84343W        W52684  30.493  30.970  13.531
84344W        W52685  32.433  39.541  14.942
84345W        W52686  37.482  39.817   3.855
84346W        W52687   4.843  40.048  11.485
84347W        W52688  19.552  16.249   0.738
84348W        W52689   0.976  33.984  13.878
84349W        W52690  19.741  18.612   1.720
84350W        W52691  15.178  19.566   2.329
84351W        W52692  14.715  38.028  13.410
84352W        W52693  41.788  33.408  11.926
84353W        W52694  27.504  39.010  10.932
84354W        W52695  26.648  27.045   0.906
84355W        W52696  31.481  20.543  13.416
84356W        W52697  30.024   1.782   2.253
84357W        W52698  12.631  17.652   2.183
84358W        W52699  19.250   1.805  12.917
84359W        W52700  21.583  40.905  13.492
84360W        W52701  22.016  13.721   4.802
84361W        W52702  14.753  14.258   2.245
84362W        W52703   8.248  27.682   3.809
84363W        W52704  23.563  17.063   2.210
84364W        W52705  22.709  18.731   1.334
84365W        W52706  39.905  43.777  13.432
84366W        W52707  23.043   2.469  14.977
84367W        W52708  27.555  29.595   3.300
84368W        W52709  20.674  39.328   3.755
84369W        W52710  16.578  38.862   2.879
84370W        W52711  28.674  17.608   4.221
84371W        W52712  16.756  30.481  13.481
84372W        W52713  26.596  13.846  14.485
84373W        W52714  11.781  17.688   0.278
84374W        W52715  18.074   4.912  11.485
84375W        W52716  16.134  37.353   2.218
84376W        W52717   5.370  37.549   0.365
84377W        W52718  35.104  33.006  12.956
84378W        W52719   1.804  27.981  12.560
84379W        W52720  39.458  15.096   1.835
84380W        W52721  10.167  21.544  11.963
84381W        W52722  35.038  10.227   2.798
84382W        W52723   8.740   9.649  14.994
84383W        W52724   3.395  32.986  14.793
84384W        W52725   4.444  10.382   3.690
84385W        W52726  17.732  26.028   4.126
84386W        W52727  20.640  23.503   3.784
84387W        W52728   1.833   5.240  11.578
84388W        W52729  20.140   9.821   4.750
84389W        W52730  19.186  44.934  10.518
84390W        W52731  25.051   9.345  12.976
84391W        W52732   0.754  19.165   4.706
84392W        W52733  14.661  32.091  11.487
84393W        W52734   2.428  26.040  10.596
84394W        W52735  21.101   2.371  14.922
84395W        W52736  28.136  16.619  13.355
84396W        W52737  43.473   3.296  11.424
84397W        W52738  26.134  20.237  13.951
84398W        W52739  24.220  36.446  14.353
84399W        W52740  37.036  15.817  13.899
84400W        W52741  28.022  39.525  10.989
84401W        W52742  23.667  25.693   1.437
84402W        W52743  42.442  33.978   0.944
84403W        W52744  30.542  19.262  12.011
84404W        W52745   5.844  28.943   3.854
84405W        W52746  25.661  32.544   1.789
84406W        W52747  25.585  43.329  11.085
84407W        W52748  16.647   8.790   3.709
84408W        W52749   3.757  41.406   1.826
84409W        W52750  32.900  27.542  13.023
84410W        W52751   8.363  36.485   1.447
84411W        W52752  39.879  35.393  11.980
84412W        W52753  42.025  36.570   1.910
84413W        W52754   3.758  38.489   3.211
84414W        W52755  43.361   8.774  10.083
84415W        W52756   1.241  44.435  14.361
84416W        W52757  34.414  28.462  13.472
84417W        W52758  30.974   6.185  12.968
84418W        W52759  10.751  23.581   3.182
84419W        W52760  36.013  26.504   1.315
84420W        W52761  37.424  13.182   4.124
84421W        W52762  28.122  27.038   0.840
84422W        W52763  20.590  43.438  11.477
84423W        W52764  33.092  37.411  13.467
84424W        W52765  27.474  25.576   3.372
84425W        W52766  29.493  18.263  11.860
84426W        W52767  26.096  15.716   1.818
84427W        W52768  36.411  32.942  10.560
84428W        W52769  10.715  20.256  10.565
84429W        W52770  25.486   4.349   4.300
84430W        W52771  25.146  31.030   3.349
84431W        W52772  38.434  20.660   2.233
84432W        W52773  31.065  27.197  13.981
84433W        W52774  25.108   4.793  14.414
84434W        W52775   4.310  20.607  12.428
84435W        W52776  29.928  22.133  11.510
84436W        W52777  14.588  15.099   3.291
84437W        W52778   9.822  29.451  13.025
84438W        W52779  20.556  40.048  11.400
84439W        W52780  38.038  27.582   4.778
84440W        W52781  33.881  36.474   0.783
84441W        W52782  24.597  22.125   4.300
84442W        W52783  12.643  20.122   1.744
84443W        W52784   2.378   0.935   1.331
84444W        W52785  29.612  41.006  11.544
84445W        W52786  37.551  36.851   4.208
84446W        W52787  41.464  23.669  14.994
84447W        W52788  40.830   0.469   1.710
84448W        W52789  35.083  42.966  14.491
84449W        W52790  20.153  41.293  12.963
84450W        W52791  21.664  19.089   4.706
84451W        W52792  44.282  17.776  14.780
84452W        W52793  35.879  19.210   1.447
84453W        W52794  13.252  43.315   3.791
84454W        W52795  37.067  18.635  11.490
84455W        W52796  39.946  25.184   0.868
84456W        W52797  34.958  39.009   2.820
84457W        W52798  27.064   0.342  13.483
84458W        W52799  23.065   1.849  13.453
84459W        W52800  17.138  36.071   0.826
84460W        W52801  18.610  26.632   0.382
84461W        W52802  29.470  24.681  13.827
84462W        W52803  26.534   7.341   1.402
84463W        W52804  24.719  33.992   3.285
84464W        W52805   7.787  34.025  13.817
84465W        W52806  34.895   5.221  12.041
84466W        W52807  38.927  11.847   2.836
84467W        W52808  37.407  34.455   4.233
84468W        W52809  19.168  39.833   1.880
84469W        W52810  13.113  11.842  12.466
84470W        W52811  28.025  44.758   0.436
84471W        W52812   1.822   2.419   2.341
84472W        W52813   3.867   9.285   4.294
84473W        W52814  24.566  42.301  14.926
84474W        W52815  25.627  16.168   2.366
84475W        W52816   1.433  13.819   2.251
84476W        W52817  34.932   0.448  13.994
84477W        W52818  32.513   4.427  12.031
84478W        W52819  26.130  17.651   9.495
84479W        W52820  30.472   4.886   2.672
84480W        W52821   6.410  21.691  11.099
84481W        W52822   3.461  12.252  11.856
84482W        W52823  21.063  30.472   3.149
84483W        W52824  38.904  27.663  11.598
84484W        W52825  31.092  38.876  11.035
84485W        W52826  25.983  17.715   2.878
84486W        W52827  35.413   7.394   1.732
84487W        W52828  34.910  27.475   1.802
84488W        W52829  44.500  16.168   3.750
84489W        W52830  24.070  17.296   3.165
84490W        W52831  39.439  22.717   2.759
84491W        W52832  37.958  44.010  14.346
84492W        W52833  10.336  28.933  13.351
84493W        W52834  35.402  20.099   1.214
84494W        W52835  42.976  16.143   4.313
84495W        W52836  38.505  10.205  13.966
84496W        W52837   6.680  38.000  13.917
84497W        W52838  16.284  39.552   2.840
84498W        W52839  36.007   9.793  11.954
84499W        W52840  10.359  39.368  12.974
84500W        W52841  26.175   6.813  11.874
84501W        W52842   3.429  20.767   3.237
84502W        W52843   7.288  21.134   5.153
84503W        W52844  42.366  29.523   2.404
84504W        W52845  18.116  20.692   2.278
84505W        W52846   4.753  39.345  10.552
84506W        W52847   4.274  30.488  11.408
84507W        W52848  30.458  13.148  13.811
84508W        W52849   6.821  30.970   0.916
84509W        W52850  13.113  33.896  12.056
84510W        W52851  25.562  18.282   9.642
84511W        W52852  12.696  12.217  11.885
84512W        W52853  44.820   2.844   3.344
84513W        W52854  19.162  35.893   3.818
84514W        W52855  10.800  25.600   2.230
84515W        W52856  32.141  38.550  13.485
84516W        W52857   6.826  29.015   0.328
84517W        W52858  37.527  29.054   3.853
84518W        W52859  37.039  12.246  13.425
84519W        W52860   5.799  41.294   0.257
84520W        W52861  44.448  24.514   3.831
84521W        W52862  16.108  32.502   3.666
84522W        W52863  25.658  21.244   9.965
84523W        W52864  13.308  20.207   2.728
84524W        W52865   2.267  13.704  10.607
84525W        W52866  12.268  10.252  14.297
84526W        W52867  33.598  29.091   3.750
84527W        W52868   7.337  29.535   3.164
84528W        W52869  17.577  37.403  11.472
84529W        W52870  20.236  38.523   0.834
84530W        W52871  36.007   9.832   0.961
84531W        W52872   1.452  29.589   0.252
84532W        W52873  30.145  30.500  10.482
84533W        W52874   3.240  35.564  10.627
84534W        W52875  34.455  13.351   3.147
84535W        W52876   9.360  33.588   1.931
84536W        W52877  32.415  40.531   5.134
84537W        W52878   4.705  18.579  14.787
84538W        W52879  33.503  37.927   3.317
84539W        W52880  25.067  10.338   3.854
84540W        W52881  11.335   8.656  10.019
84541W        W52882  43.435  35.014   2.667
84542W        W52883  16.566  38.518   2.850
84543W        W52884  40.467  20.048  11.094
84544W        W52885  13.286  42.873   0.250
84545W        W52886  35.020   9.880   0.812
84546W        W52887   2.440   3.246  14.320
84547W        W52888  11.221  25.009   1.385
84548W        W52889  41.483  32.996   4.629
84549W        W52890   4.419  18.716  11.075
84550W        W52891   4.433  10.872   2.701
84551W        W52892  37.516  15.769   1.778
84552W        W52893  20.193  33.449  10.595
84553W        W52894  30.951  12.817   1.848
84554W        W52895  13.724  28.013   2.700
84555W        W52896  26.962  40.993  11.533
84556W        W52897  34.061  38.966  10.592
84557W        W52898  25.612  44.365  14.496
84558W        W52899  27.134   4.797   0.846
84559W        W52900  23.230   5.711   1.794
84560W        W52901   8.371  43.501   4.274
84561W        W52902  40.396  17.187   3.383
84562W        W52903  36.898  31.960  11.592
84563W        W52904  16.615   8.884  14.347
84564W        W52905  19.238  44.887   1.717
84565W        W52906  25.682  34.119  12.535
84566W        W52907  15.145  41.912  13.979
84567W        W52908  36.895  36.089   2.410
84568W        W52909  28.145  40.830  14.957
84569W        W52910  22.649  22.520   5.103
84570W        W52911  31.080  37.559   5.108
84571W        W52912  22.164  10.300   2.395
84572W        W52913  26.090  29.588   3.256
84573W        W52914  12.188  17.303   1.780
84574W        W52915   3.284  10.254  14.918
84575W        W52916  41.892  11.675  14.972
84576W        W52917  29.581  43.877   0.858
84577W        W52918  31.505  14.336   1.918
84578W        W52919   2.805   1.303  13.324
84579W        W52920   4.364   7.180   3.301
84580W        W52921  19.687  34.469  11.921
84581W        W52922  36.375  34.096   2.310
84582W        W52923   8.835   8.802  14.966
84583W        W52924  42.995  11.775  13.983
84584W        W52925  37.845  38.015  13.411
84585W        W52926   3.789  24.487   0.749
84586W        W52927  23.692   2.270  11.587
84587W        W52928  29.069  25.191   0.338
84588W        W52929   6.317  11.811  11.883
84589W        W52930  27.950   2.842  10.435
84590W        W52931  40.394  39.041   9.982
84591W        W52932  14.613  11.255   0.743
84592W        W52933   4.331  12.740   2.294
84593W        W52934  36.959  40.464   4.609
84594W        W52935  14.309  42.511   2.198
84595W        W52936   3.831  11.240   2.293
84596W        W52937   7.671   6.312  12.405
84597W        W52938   9.177  17.707  13.030
84598W        W52939  29.489  29.166  10.942
84599W        W52940  18.687   4.251  11.974
84600W        W52941  33.388   4.339   3.635
84601W        W52942  13.203   9.685  11.506
84602W        W52943  26.100  36.858  13.814
84603W        W52944  28.655  36.865  11.956
84604W        W52945  33.887  33.551   2.283
84605W        W52946  26.632  11.273   0.335
84606W        W52947  31.992  29.539  14.291
84607W        W52948   0.482  17.287   2.205
84608W        W52949  18.070  43.369  12.518
84609W        W52950  35.086  29.552   3.794
84610W        W52951  16.570   2.813   3.669
84611W        W52952  36.971  38.916   3.314
84612W        W52953  22.671  32.418  13.376
84613W        W52954  18.640   7.824  12.364
84614W        W52955  18.089  39.026  13.062
84615W        W52956  15.244  26.491   2.317
84616W        W52957  14.226  36.577  14.988
84617W        W52958  11.185  17.680  11.032
84618W        W52959  24.628  20.256   1.270
84619W        W52960   5.251  19.735  11.542
84620W        W52961  42.843  39.945  13.905
84621W        W52962  29.600  36.452   1.807
84622W        W52963  35.953  31.920   1.893
84623W        W52964  24.578   4.361  13.056
84624W        W52965  43.893  41.414  10.933
84625W        W52966  22.574  24.074   4.734
84626W        W52967   8.328  11.640  10.904
84627W        W52968  29.426  18.565   4.779
84628W        W52969  44.760  21.651   1.921
84629W        W52970   3.387  29.042   0.382
84630W        W52971  38.035  19.653  13.470
84631W        W52972   4.865  36.978  14.382
84632W        W52973  42.955   6.822  10.535
84633W        W52974  38.837  36.867  14.873
84634W        W52975  13.680   7.746   2.736
84635W        W52976  22.221   3.788   1.838
84636W        W52977   1.839  18.139   4.727
84637W        W52978   9.309  38.457  11.988
84638W        W52979   5.235   1.335   0.757
84639W        W52980  39.523  20.092  11.005
84640W        W52981  23.504  26.153  13.426
84641W        W52982  30.133   0.253  12.353
84642W        W52983  35.534  31.631  13.363
84643W        W52984  18.079   1.806   2.404
84644W        W52985  42.387   4.837  13.011
84645W        W52986   8.751  24.165  14.008
84646W        W52987  19.622  31.414   0.430
84647W        W52988  34.107   0.890   0.265
84648W        W52989  21.061  10.205  11.982
84649W        W52990   9.781  26.147   2.326
84650W        W52991  13.133  25.148  10.418
84651W        W52992  19.780   4.815   1.902
84652W        W52993  30.474  30.055   3.319
84653W        W52994  33.945  38.843  13.855
84654W        W52995  14.658  22.035  14.790
84655W        W52996  16.577   7.302   0.342
84656W        W52997  29.594  11.840   0.390
84657W        W52998  37.355  36.061   4.702
84658W        W52999  24.120  27.670  12.568
84659W        W53000   8.793   8.380   0.310
84660W        W53001  38.471  16.179  14.766
84661W        W53002  33.389  25.190  13.516
84662W        W53003  39.026  22.730  12.839
84663W        W53004  19.058  29.103   3.207
84664W        W53005  10.835   8.727  14.487
84665W        W53006  30.624  18.766   1.313
84666W        W53007  29.077   4.787  14.894
84667W        W53008  30.129  12.790   2.712
84668W        W53009  40.850   4.907  13.002
84669W        W53010  31.508   1.336  14.763
84670W        W53011  38.438   6.396  12.988
84671W        W53012  13.666   5.203  13.382
84672W        W53013  17.668   1.854   3.317
84673W        W53014  14.290  13.626  11.468
84674W        W53015   7.318  30.129  11.384
84675W        W53016  41.795   5.380  10.633
84676W        W53017  13.665  10.193   1.890
84677W        W53018   6.367  25.128  10.432
84678W        W53019   4.270  40.509   2.709
84679W        W53020  27.041   9.729  12.068
84680W        W53021  13.164  13.657   1.748
84681W        W53022  20.708  31.952  11.438
84682W        W53023  10.257  18.272  10.448
84683W        W53024  14.709  22.011   1.798
84684W        W53025  19.073  26.606  14.395
84685W        W53026  35.977  21.620  13.037
84686W        W53027  20.072  27.196  13.901
84687W        W53028  34.472  21.689   0.428
84688W        W53029  44.889  10.204  12.997
84689W        W53030  35.917  31.973  10.439
84690W        W53031  35.036   1.764   2.186
84691W        W53032  14.253  20.633   2.764
84692W        W53033  26.592  20.585   4.811
84693W        W53034  42.482  32.996   4.127
84694W        W53035  32.537  17.234   1.243
84695W        W53036  28.527   1.909   3.184
84696W        W53037  41.444   6.719  10.463
84697W        W53038  37.518  13.294   3.237
84698W        W53039  25.694  26.115  10.147
84699W        W53040  34.419  22.209   1.798
84700W        W53041   4.380  29.632   3.169
84701W        W53042  29.660  31.132   3.658
84702W        W53043  23.556  15.274  11.587
84703W        W53044  15.656  36.457   3.210
84704W        W53045  32.069  42.020   1.290
84705W        W53046  10.191  33.429   2.825
84706W        W53047  14.833  32.495   2.250
84707W        W53048  28.472   0.492   3.343
84708W        W53049  39.402  40.365  10.130
84709W        W53050   5.695   0.369   4.309
84710W        W53051  21.582  41.815   1.224
84711W        W53052  19.212  27.010   2.734
84712W        W53053  15.161  38.451   3.658
84713W        W53054  31.912  40.334   5.173
84714W        W53055  17.704  35.410   2.768
84715W        W53056  33.949   8.745   0.795
84716W        W53057  13.656  17.116  13.058
84717W        W53058  24.117  14.602  10.415
84718W        W53059  44.353  40.498   1.399
84719W        W53060  20.220  10.829   0.806
84720W        W53061  44.381  44.965   2.748
84721W        W53062   3.275  40.918   4.721
84722W        W53063   3.710  38.916  14.787
84723W        W53064  22.720   4.342   3.371
84724W        W53065  44.917   8.372  10.498
84725W        W53066  22.201  39.356  14.867
84726W        W53067  20.753   7.238  14.314
84727W        W53068  13.782  31.463  13.982
84728W        W53069  12.359  20.045   3.843
84729W        W53070  19.673  29.958   0.867
84730W        W53071  15.146   9.151   4.722
84731W        W53072  33.100  31.933  13.023
84732W        W53073  20.653  42.825  12.870
84733W        W53074   7.340  25.078   0.376
84734W        W53075  44.442  39.016   3.723
84735W        W53076  10.170  40.497  12.501
84736W        W53077   6.709  26.495  12.988
84737W        W53078  22.179  22.688  13.916
84738W        W53079  43.498  23.687  10.584
84739W        W53080  22.685   4.703   3.228
84740W        W53081  16.189  40.004   2.843
84741W        W53082  21.195   3.797  10.933
84742W        W53083  18.162   9.322  11.554
84743W        W53084  32.623  39.843   2.202
84744W        W53085   7.387  27.687   2.685
84745W        W53086  11.651  41.795   0.755
84746W        W53087  40.312  44.882   1.708
84747W        W53088   9.739  31.637   1.902
84748W        W53089  17.211   6.353  12.530
84749W        W53090   0.793   1.278   3.733
84750W        W53091   7.248  27.578   0.381
84751W        W53092  33.886  42.431  13.332
84752W        W53093   1.336  20.630  11.610
84753W        W53094  25.558  42.478  10.438
84754W        W53095  41.320  23.189   3.811
84755W        W53096  41.411  25.220   1.832
84756W        W53097   4.446  30.426  13.307
84757W        W53098  13.129  33.391  13.967
84758W        W53099   3.821  27.581  13.004
84759W        W53100  37.404   4.733   3.849
84760W        W53101  43.884  39.334   1.397
84761W        W53102  40.905  28.178   1.703
84762W        W53103  37.341   8.745  13.962
84763W        W53104   7.253   6.887   3.693
84764W        W53105  25.707  22.590  12.410
84765W        W53106  34.393  36.541   1.891
84766W        W53107   4.840  21.732  10.509
84767W        W53108  20.762   9.265  11.092
84768W        W53109  42.482  13.773   2.858
84769W        W53110  22.717  30.112  13.843
84770W        W53111  18.659   5.915  11.575
84771W        W53112  30.558  41.503  11.457
84772W        W53113  21.591  24.129  11.041
84773W        W53114   5.783  28.463   0.856
84774W        W53115  33.941  38.821  11.966
84775W        W53116  28.954  12.721  14.339
84776W        W53117  38.371  28.129  11.580
84777W        W53118  13.127   7.181   2.864
84778W        W53119   3.845  16.078  10.468
84779W        W53120  38.977  35.945   4.617
84780W        W53121  28.127  37.855   0.393
84781W        W53122  24.504   2.853  12.497
84782W        W53123  22.190  28.047   2.847
84783W        W53124  36.093   3.225   2.852
84784W        W53125  42.834  44.825   0.955
84785W        W53126  31.571   6.747   0.474
84786W        W53127  43.778   1.416  11.521
84787W        W53128  27.565  35.446   0.809
84788W        W53129  39.042   7.801  14.505
84789W        W53130  26.690  25.550   4.724
84790W        W53131  10.676  37.404  13.962
84791W        W53132  27.060  16.811  11.411
84792W        W53133  43.899  13.670   3.300
84793W        W53134  29.104   8.364  13.816
84794W        W53135  35.977  14.183  11.120
84795W        W53136  30.022  17.667  11.380
84796W        W53137   0.301  41.034   4.329
84797W        W53138  31.946  38.878   4.670
84798W        W53139  43.769  25.983   4.194
84799W        W53140  13.635  43.785   4.737
84800W        W53141  12.129  41.439  12.056
84801W        W53142  41.494  27.107   3.774
84802W        W53143  37.027  28.467  12.984
84803W        W53144   2.960  44.446  13.377
84804W        W53145  25.544   7.248   4.148
84805W        W53146  15.629   1.776   3.839
84806W        W53147   7.900  19.147  13.367
84807W        W53148  34.523   3.260  11.016
84808W        W53149  13.231   4.366   1.724
84809W        W53150   7.691   9.823  11.012
84810W        W53151  31.494  18.069  13.309
84811W        W53152  44.004  28.951  12.080
84812W        W53153   4.303  34.899   3.238
84813W        W53154   3.398  21.166   3.384
84814W        W53155   2.284  30.071  12.027
84815W        W53156  39.922  38.412  12.546
84816W        W53157  38.562  11.793   3.358
84817W        W53158   4.813  33.115  14.866
84818W        W53159   1.263  38.466   3.379
84819W        W53160   7.221  28.468  14.980
84820W        W53161   8.324  15.128  12.918
84821W        W53162  17.246   0.831  13.433
84822W        W53163  34.983  11.690  13.018
84823W        W53164   2.811  25.125  10.959
84824W        W53165  41.904  12.139  10.415
84825W        W53166   0.917  16.733  12.381
84826W        W53167   8.250  20.099   3.689
84827W        W53168  40.887   7.247   3.760
84828W        W53169  44.919  37.572   1.856
84829W        W53170   6.833  11.242   4.324
84830W        W53171  19.205  24.507  12.037
84831W        W53172  12.131   6.419   2.360
84832W        W53173  12.680  38.933   3.171
84833W        W53174  13.116  14.151  14.836
84834W        W53175   1.308   5.363   4.207
84835W        W53176  39.842  17.118  10.450
84836W        W53177  10.264  30.460  12.014
84837W        W53178  24.629  14.764   3.268
84838W        W53179   9.338   9.203   2.207
84839W        W53180   2.820  30.039  10.484
84840W        W53181  43.959  42.884   4.140
84841W        W53182  40.937  38.555   2.855
84842W        W53183  20.055  26.032  11.610
84843W        W53184  20.627  29.566   2.328
84844W        W53185  12.724  26.506   5.269
84845W        W53186  35.069   6.367   2.312
84846W        W53187  37.078  39.849   4.132
84847W        W53188   6.749  22.618   0.356
84848W        W53189   9.278  30.955  10.514
84849W        W53190   4.322   0.782   1.864
84850W        W53191  11.222  32.527  13.985
84851W        W53192  10.358   0.890   4.660
84852W        W53193  30.656  40.512  11.578
84853W        W53194   9.791  28.544  12.460
84854W        W53195   2.810  41.314  11.083
84855W        W53196   2.404  27.475   3.306
84856W        W53197  10.643  34.526   1.295
84857W        W53198   1.453  44.307   1.845
84858W        W53199   4.805   4.782  10.972
84859W        W53200  11.816  40.868  12.968
84860W        W53201   8.816  37.551  14.885
84861W        W53202  29.442  18.652  14.975
84862W        W53203  12.698  14.234   4.608
84863W        W53204  37.996  23.193   1.215
84864W        W53205  25.566  34.494   2.791
84865W        W53206  43.283  24.542  13.025
84866W        W53207  17.235  19.117  14.348
84867W        W53208  19.673  23.654  12.873
84868W        W53209  10.779  12.194  14.032
84869W        W53210  36.092  37.420  12.408
84870W        W53211  26.064  13.729  14.352
84871W        W53212  36.077  11.302  10.941
84872W        W53213  22.716  19.573  14.380
84873W        W53214  33.034  11.730  11.578
84874W        W53215  33.380  17.635  12.561
84875W        W53216   9.236  30.636   2.702
84876W        W53217  16.236  42.444   1.240
84877W        W53218   1.898  27.193  12.417
84878W        W53219  34.614  22.598   3.732
84879W        W53220  29.980  11.134  12.461
84880W        W53221  33.441  22.074  12.839
84881W        W53222  41.875  16.159   0.390
84882W        W53223  40.330  20.714   1.846
84883W        W53224  19.683  16.209   3.318
84884W        W53225  42.449  31.139   4.296
84885W        W53226  32.603   6.858  11.519
84886W        W53227  11.770   2.369  12.416
84887W        W53228  34.978  28.986   0.869
84888W        W53229  35.463  19.054   1.264
84889W        W53230   3.437   0.894   0.954
84890W        W53231  30.075   2.966  12.398
84891W        W53232  22.131   5.234  13.486
84892W        W53233  18.686  38.560  14.466
84893W        W53234  28.028  34.483  10.638
84894W        W53235  24.647  27.487  10.604
84895W        W53236  23.204  13.779  10.902
84896W        W53237  34.534  12.224  13.833
84897W        W53238   9.743  13.180  12.374
84898W        W53239  17.189  34.902   5.180
84899W        W53240  31.963   8.775  13.389
84900W        W53241   6.356   7.376   4.736
84901W        W53242  41.454   9.161   0.885
84902W        W53243  35.048  30.434   3.153
84903W        W53244   2.943  19.087  12.854
84904W        W53245  20.066  31.430  11.047
84905W        W53246  15.639  30.156  10.945
84906W        W53247  15.819  18.684   0.937
84907W        W53248  37.509   6.740  13.894
84908W        W53249  17.223   4.731  14.407
84909W        W53250   9.255  29.112   4.622
84910W        W53251  24.159   6.866   1.317
84911W        W53252  43.005  11.141  11.499
84912W        W53253  26.633  34.048  12.446
84913W        W53254   1.741  42.323  10.560
84914W        W53255  18.787  10.792  13.981
84915W        W53256  35.533  13.339   1.921
84916W        W53257  25.990  34.452  11.930
84917W        W53258  26.032  28.681   5.162
84918W        W53259  11.840  28.516  12.380
84919W        W53260  10.655  33.050   4.309
84920W        W53261  11.315  42.782  14.897
84921W        W53262  14.232  42.994   2.824
84922W        W53263  36.949  41.898   3.816
84923W        W53264  13.798  30.932   4.699
84924W        W53265   7.719   0.309   0.921
84925W        W53266  35.050  19.120   3.243
84926W        W53267  34.937   6.845   1.749
84927W        W53268  28.122  11.275   3.711
84928W        W53269  30.045   2.439  14.382
84929W        W53270  19.641   6.809   2.733
84930W        W53271  27.155   4.267  11.399
84931W        W53272  35.016  33.583   0.869
84932W        W53273  34.542   1.387   1.215
84933W        W53274   3.938   8.799  11.003
84934W        W53275  22.709  25.577   1.399
84935W        W53276   4.831  31.419  11.568
84936W        W53277  29.987  33.888  13.366
84937W        W53278  38.369  13.119  10.407
84938W        W53279  29.019  11.318   1.354
84939W        W53280  23.216   3.412   3.157
84940W        W53281   4.274  38.051  14.966
84941W        W53282   3.884   1.749  10.929
84942W        W53283  25.640  40.904  14.882
84943W        W53284  35.487  33.449  14.866
84944W        W53285  31.075   3.733   1.724
84945W        W53286  40.549  16.718   4.312
84946W        W53287  23.137  44.832   0.347
84947W        W53288  15.653  27.629  10.984
84948W        W53289   8.833  11.360   3.704
84949W        W53290  12.679  10.257  14.430
84950W        W53291  17.305  25.162  12.964
84951W        W53292   8.339  24.579   3.294
84952W        W53293  16.090  25.010   1.920
84953W        W53294  29.544  42.502  10.946
84954W        W53295  42.298  18.161  12.382
84955W        W53296  30.989  26.559  11.474
84956W        W53297   6.276  13.845  13.440
84957W        W53298  43.455  21.726   2.736
84958W        W53299   2.434  18.285  12.864
84959W        W53300  23.222  43.805   3.839
84960W        W53301   5.267   4.766   1.804
84961W        W53302  31.060   9.668  14.820
84962W        W53303  41.293  33.881   3.217
84963W        W53304  25.646  36.386  12.485
84964W        W53305   8.307  26.580  13.455
84965W        W53306  12.172  31.016  11.396
84966W        W53307  36.451   9.842  14.289
84967W        W53308   5.427   3.871   0.320
84968W        W53309  10.313  27.611  11.567
84969W        W53310  26.164  25.973  13.062
84970W        W53311  41.953  31.046  14.277
84971W        W53312  19.646  33.559   3.816
84972W        W53313   0.389  28.954   0.927
84973W        W53314   2.842  42.938   4.248
84974W        W53315   2.844  38.070   0.417
84975W        W53316  17.066  10.216   3.341
84976W        W53317  33.413  33.975   4.820
84977W        W53318  32.985  39.463  11.453
84978W        W53319  40.801  38.910   2.748
84979W        W53320  20.172  26.677   4.671
84980W        W53321   3.727  22.247  14.353
84981W        W53322   3.717  31.642   3.365
84982W        W53323  19.161   8.852  13.873
84983W        W53324  20.143  42.439  13.845
84984W        W53325  22.046   9.291  10.516
84985W        W53326  40.480   3.269   2.675
84986W        W53327  22.013  21.605   0.755
84987W        W53328  42.524  37.956  10.518
84988W        W53329  43.885  42.322   1.801
84989W        W53330  40.404  15.803  11.031
84990W        W53331  29.970  30.157  11.417
84991W        W53332  23.637  23.051  13.970
84992W        W53333   4.863  24.604   1.897
84993W        W53334  26.069  17.258  14.787
84994W        W53335  41.867   4.355  14.377
84995W        W53336  21.558  26.461   0.755
84996W        W53337  36.939   4.796  11.047
84997W        W53338   0.804  26.017   1.362
84998W        W53339   2.230  25.203  10.633
84999W        W53340   5.303  10.303  12.919
85000W        W53341  34.462  13.333  13.410
85001W        W53342  38.895  26.606  10.920
85002W        W53343  29.434   1.295  10.599
85003W        W53344  26.637   0.938  10.495
85004W        W53345  40.360  19.559  12.869
85005W        W53346  22.092  37.345   3.839
85006W        W53347  25.203  13.726   2.260
85007W        W53348   9.253  13.152  12.030
85008W        W53349  29.445  22.182  14.374
85009W        W53350  19.083  42.799   0.312
85010W        W53351  41.464   4.247   4.327
85011W        W53352   3.824  38.402   4.640
85012W        W53353  12.117  30.448   2.662
85013W        W53354  31.585  41.820   9.456
85014W        W53355  15.716  40.511  10.907
85015W        W53356  11.230  16.319   1.266
85016W        W53357  30.012  16.627   3.632
85017W        W53358  26.170  29.930   4.315
85018W        W53359  28.480  14.642  10.912
85019W        W53360  16.257   3.754  13.422
85020W        W53361  34.507  41.307   4.801
85021W        W53362   2.427   2.352   1.421
85022W        W53363  10.207  30.994   4.232
85023W        W53364  19.556  14.601   0.335
85024W        W53365  27.176  39.508  12.537
85025W        W53366  39.952  28.595  14.497
85026W        W53367  19.162  20.715  11.593
85027W        W53368  19.205  20.628  10.980
85028W        W53369  16.744  13.275  14.514
85029W        W53370  35.029  32.014   1.744
85030W        W53371  11.257  40.484   0.335
85031W        W53372  24.712  23.101   0.958
85032W        W53373  43.325  30.156  11.885
85033W        W53374  39.371  28.510  11.032
85034W        W53375  35.931  24.555   2.359
85035W        W53376   1.747  14.301  12.429
85036W        W53377  19.154   8.862  11.051
85037W        W53378  10.700  37.940  11.375
85038W        W53379  23.506  16.295   5.291
85039W        W53380  10.191  11.254   3.329
85040W        W53381  34.032  39.516  10.579
85041W        W53382  24.693  15.200   1.699
85042W        W53383   0.387  22.147   0.851
85043W        W53384   7.292  31.941   2.737
85044W        W53385  13.683  16.793   0.772
85045W        W53386   1.812  20.035  13.385
85046W        W53387  39.493   9.191   2.181
85047W        W53388  44.935  28.620  12.916
85048W        W53389  38.972  17.630  14.339
85049W        W53390  18.581  33.557   2.246
85050W        W53391  22.627  39.386  12.011
85051W        W53392  29.587  41.901   2.331
85052W        W53393  20.230  26.968  12.844
85053W        W53394  44.935  40.431   4.733
85054W        W53395  17.233  31.967  13.899
85055W        W53396  15.589  38.506   4.652
85056W        W53397  11.669  39.430  10.601
85057W        W53398  16.622  35.500   9.625
85058W        W53399  29.957  15.691   1.331
85059W        W53400   5.256  31.423  13.393
85060W        W53401  15.211   0.437   0.326
85061W        W53402  40.531  20.622  14.945
85062W        W53403   2.951  32.095   2.249
85063W        W53404  33.940  11.798   3.243
85064W        W53405  12.332  15.175  14.836
85065W        W53406   6.776  38.942  14.300
85066W        W53407  27.622  24.496   3.855
85067W        W53408  32.555  33.045  12.379
85068W        W53409   6.396  38.035  12.576
85069W        W53410   6.281  31.138   0.892
85070W        W53411  29.620  41.843   4.754
85071W        W53412  44.792   0.486   1.753
85072W        W53413   2.795  22.733   1.784
85073W        W53414  26.646  42.963   4.324
85074W        W53415  25.541  20.720   0.327
85075W        W53416  44.323  44.387   4.130
85076W        W53417  31.939   7.863   1.888
85077W        W53418  32.519  22.661   1.697
85078W        W53419  32.950  10.715   0.311
85079W        W53420  34.030  37.992   1.286
85080W        W53421   1.888  43.852  12.874
85081W        W53422  41.296  12.205   3.805
85082W        W53423  37.458  14.104  14.865
85083W        W53424  13.137  22.247   2.703
85084W        W53425  37.428  13.824  10.964
85085W        W53426  32.603  32.615  10.920
85086W        W53427  42.446   2.919   2.865
85087W        W53428  22.656  41.391   4.247
85088W        W53429  12.343   7.302   0.891
85089W        W53430   2.962  22.538   1.315
85090W        W53431  19.221  31.457  11.063
85091W        W53432  14.135  44.810  12.074
85092W        W53433  27.568  28.538  12.381
85093W        W53434   5.334   6.246  11.508
85094W        W53435  38.548  12.746  10.566
85095W        W53436  33.473   8.291  10.089
85096W        W53437  39.853   6.397  11.415
85097W        W53438  26.648   7.669  12.359
85098W        W53439   1.770   2.462  14.405
85099W        W53440  33.489   5.790  14.499
85100W        W53441   0.967  39.022   4.329
85101W        W53442  14.124  13.804  11.023
85102W        W53443  43.796  10.186   0.319
85103W        W53444  33.043  37.366   1.372
85104W        W53445  44.460  32.893   3.679
85105W        W53446   5.305  26.608  14.506
85106W        W53447  39.891  16.600   2.727
85107W        W53448  14.102  39.989   0.873
85108W        W53449   6.361  32.479  10.605
85109W        W53450  12.269  30.949  14.023
85110W        W53451  19.733   9.789   0.751
85111W        W53452   3.884  16.788   5.267
85112W        W53453  12.748  43.768  10.593
85113W        W53454  37.018   9.340   3.335
85114W        W53455  29.153   5.374  12.425
85115W        W53456  21.522   7.281  11.554
85116W        W53457  16.756  35.855  10.569
85117W        W53458  33.050  24.202   1.426
85118W        W53459   1.280  13.192  14.989
85119W        W53460  20.560   8.793  11.596
85120W        W53461  11.298  10.688  11.107
85121W        W53462   8.179   0.944  10.472
85122W        W53463  29.430   6.725  10.926
85123W        W53464   1.454   4.937  12.377
85124W        W53465   0.385  27.025  13.450
85125W        W53466  13.186  13.195   2.812
85126W        W53467  39.854  39.929  11.389
85127W        W53468  38.988   6.874   4.621
85128W        W53469   4.712   3.749  14.297
85129W        W53470   3.323   5.432   1.404
85130W        W53471  40.466  41.525  12.067
85131W        W53472  36.348  17.657  12.963
85132W        W53473  39.407  14.709  10.934
85133W        W53474  25.201   5.426  11.043
85134W        W53475  35.531  39.907  13.319
85135W        W53476  19.124  41.034  12.541
85136W        W53477  38.955  42.956  10.997
85137W        W53478   2.928  27.954   4.141
85138W        W53479  24.080  21.196   4.224
85139W        W53480  33.394  34.051   2.869
85140W        W53481   1.831  23.120  13.366
85141W        W53482  38.936   6.803  14.307
85142W        W53483   9.651   7.315   2.728
85143W        W53484  17.713  37.543  13.312
85144W        W53485   5.801  20.030   4.122
85145W        W53486  26.550  15.730   2.819
85146W        W53487  11.652  20.192   3.836
85147W        W53488  39.346   0.977   1.222
85148W        W53489  23.016  30.101   3.311
85149W        W53490   6.861  31.939   1.438
85150W        W53491  10.300   6.713   1.777
85151W        W53492   7.233  30.952   4.611
85152W        W53493  42.456  12.792  14.899
85153W        W53494   6.387  27.968  12.999
85154W        W53495  14.226  30.443   4.128
85155W        W53496  42.442  31.647   0.382
85156W        W53497   8.892  27.457   4.212
85157W        W53498  44.387  44.416   3.744
85158W        W53499  41.380  19.047  13.402
85159W        W53500  42.313   8.818  11.541
85160W        W53501  30.431  44.847   2.383
85161W        W53502   5.843  23.607  14.411
85162W        W53503   9.297  30.502  13.021
85163W        W53504  44.009   4.308   1.420
85164W        W53505  44.411   9.347  13.878
85165W        W53506  41.321  23.565  11.538
85166W        W53507  24.119  16.591  11.956
85167W        W53508  30.125  18.107  13.481
85168W        W53509  36.431  25.686  13.035
85169W        W53510  14.283  37.969   0.481
85170W        W53511   7.265  13.702   4.327
85171W        W53512   1.967  23.581  11.437
85172W        W53513  17.558  22.604   3.357
85173W        W53514  17.587  25.511   4.320
85174W        W53515   7.738   5.310   4.194
85175W        W53516  12.219  36.578   2.382
85176W        W53517   8.365   7.745  10.451
85177W        W53518  13.336  29.026  13.893
85178W        W53519  29.093  30.502  13.061
85179W        W53520  25.576   1.782   1.441
85180W        W53521  16.636  30.125   1.729
85181W        W53522   5.335   5.840  12.011
85182W        W53523   9.807  18.112   4.168
85183W        W53524  10.656  18.629   0.790
85184W        W53525  14.755  33.958   4.319
85185W        W53526  18.172   1.258   2.753
85186W        W53527  11.770  35.065   2.181
85187W        W53528   6.829   5.382  13.011
85188W        W53529  18.744   0.262   0.300
85189W        W53530  14.805   0.382  14.009
85190W        W53531  42.360   6.322   4.794
85191W        W53532  13.664  35.367  10.619
85192W        W53533  31.116  37.916   1.255
85193W        W53534  22.550  14.709   0.799
85194W        W53535  10.850   3.339  13.054
85195W        W53536   8.404  15.596   2.230
85196W        W53537  36.905  29.502   4.626
85197W        W53538  32.006  12.174  11.122
85198W        W53539   9.657  33.439   2.281
85199W        W53540  34.981  27.054  11.602
85200W        W53541   9.816  42.994  14.504
85201W        W53542  30.488   6.322   4.162
85202W        W53543   5.898  27.692  10.530
85203W        W53544  44.772  11.302   1.291
85204W        W53545  42.831   3.457   4.266
85205W        W53546   7.411  30.942   1.376
85206W        W53547  33.565  42.335  12.096
85207W        W53548  17.080  20.711  12.035
85208W        W53549  41.968  15.317   2.733
85209W        W53550  42.355  40.001   2.221
85210W        W53551   0.759  38.517   0.439
85211W        W53552  16.108  33.522  14.323
85212W        W53553  44.949  32.124   1.302
85213W        W53554  23.201  16.652   2.882
85214W        W53555  32.917  16.161  10.911
85215W        W53556  24.565  11.767  10.929
85216W        W53557  33.008   9.184   4.202
85217W        W53558  13.115  15.608  12.445
85218W        W53559  15.764  11.666   4.181
85219W        W53560  30.424  10.659   1.375
85220W        W53561  16.144  12.273  13.051
85221W        W53562   8.351  42.986  14.788
85222W        W53563  21.148  43.360   2.386
85223W        W53564  22.577   2.256  12.961
85224W        W53565  23.061  27.646  12.840
85225W        W53566  17.583  30.619  14.326
85226W        W53567  17.780  35.008   1.766
85227W        W53568  44.803   6.348  13.932
85228W        W53569  34.863   9.769   1.390
85229W        W53570  20.087   4.386  14.292
85230W        W53571  35.048  38.351  13.357
85231W        W53572  25.645  17.558  12.849
85232W        W53573  12.322   2.374   0.849
85233W        W53574  44.829  20.134  14.364
85234W        W53575  42.890  37.919  13.491
85235W        W53576  43.385  18.239  14.758
85236W        W53577  18.579  35.532  13.500
85237W        W53578  13.773  16.689  14.344
85238W        W53579  35.860  10.165  10.488
85239W        W53580  27.630   3.754   0.834
85240W        W53581   8.773  10.212   0.901
85241W        W53582  34.400   2.730   2.797
85242W        W53583   4.719  33.998   3.360
85243W        W53584  41.957  14.653   4.320
85244W        W53585  12.198  27.063  12.518
85245W        W53586  23.122  37.858  14.385
85246W        W53587   9.827   2.354  12.982
85247W        W53588  40.512  41.487  13.491
85248W        W53589  24.594  30.112   2.774
85249W        W53590  38.013  13.108  14.430
85250W        W53591  30.637   9.732   4.239
85251W        W53592  21.058   8.824  11.068
85252W        W53593   0.351  41.375   1.934
85253W        W53594  24.109  43.936  13.824
85254W        W53595  34.919  29.131  12.476
85255W        W53596   7.788   4.265  10.467
85256W        W53597   1.393  16.615   0.929
85257W        W53598  37.001  43.417  13.371
85258W        W53599  19.155  40.371   4.307
85259W        W53600  25.496   9.324  13.517
85260W        W53601   5.206  33.537   3.295
85261W        W53602  16.107  25.104   4.205
85262W        W53603  36.000  34.573   1.828
85263W        W53604  43.412  27.654   4.136
85264W        W53605  18.725  34.091  13.376
85265W        W53606  19.652  11.757   2.408
85266W        W53607  14.203  11.777  12.387
85267W        W53608   3.713   5.790   2.391
85268W        W53609  34.019  19.753   2.355
85269W        W53610  40.883  13.700  13.901
85270W        W53611   9.389  17.277  11.375
85271W        W53612  14.108   4.244  12.473
85272W        W53613  20.077   4.293   4.778
85273W        W53614  36.034  12.778   1.902
85274W        W53615  15.261  33.901  10.451
85275W        W53616  24.055   6.337  12.983
85276W        W53617   2.466  22.056   2.338
85277W        W53618  20.524  13.129  14.834
85278W        W53619  30.135  44.873  14.343
85279W        W53620  19.775  34.561  11.429
85280W        W53621  34.475   4.406  13.930
85281W        W53622  16.074  11.203  12.871
85282W        W53623  26.003  43.504   3.344
85283W        W53624  35.541  16.153   4.623
85284W        W53625  34.090  30.455  11.915
85285W        W53626  37.892   1.958  12.544
85286W        W53627   9.822  30.076  13.995
85287W        W53628  37.379  23.200   1.443
85288W        W53629  25.201  43.798   1.721
85289W        W53630  17.738  35.102   3.869
85290W        W53631  42.898   3.459  13.030
85291W        W53632   2.879  21.060  10.433
85292W        W53633  32.499   7.850   0.271
85293W        W53634  11.802   4.389   2.368
85294W        W53635   2.284  10.299  12.983
85295W        W53636   9.259   1.267   3.710
85296W        W53637   7.769  34.398   1.302
85297W        W53638   9.390  11.257   4.154
85298W        W53639  38.021  40.844  14.422
85299W        W53640  43.973   4.722  11.465
85300W        W53641   5.733  41.449  10.952
85301W        W53642   2.460  38.881  13.974
85302W        W53643  19.067  39.363   1.718
85303W        W53644  22.568  10.290   4.268
85304W        W53645   8.654  34.865  12.366
85305W        W53646  22.231   9.739  10.978
85306W        W53647  30.076  22.150  11.952
85307W        W53648  14.170  23.520  13.007
85308W        W53649   0.870  10.758  14.816
85309W        W53650  23.661  37.413  11.524
85310W        W53651  15.640  20.687   0.750
85311W        W53652  43.784   5.733   1.931
85312W        W53653  14.189   5.314  13.936
85313W        W53654   2.803  27.670  11.541
85314W        W53655  15.310  29.524  11.876
85315W        W53656  10.875  19.729   1.868
85316W        W53657  13.306  30.634   2.705
85317W        W53658  30.656  24.492  14.872
85318W        W53659  35.924  31.992  13.034
85319W        W53660  26.090  32.981   3.804
85320W        W53661  37.457   2.447   3.165
85321W        W53662  32.440  11.127  14.972
85322W        W53663  20.119  39.500  13.000
85323W        W53664  23.115   6.189  13.310
85324W        W53665  37.472  24.725   2.195
85325W        W53666  35.942  17.703  14.012
85326W        W53667  15.197   5.699   0.764
85327W        W53668  34.076  15.252  13.490
85328W        W53669  42.836   2.289  12.377
85329W        W53670   1.759  12.734  10.964
85330W        W53671   8.804  17.572  11.540
85331W        W53672   7.675  24.072   2.386
85332W        W53673  15.749   3.440   0.331
85333W        W53674  30.097   9.365  11.103
85334W        W53675  42.287  39.453  11.459
85335W        W53676   3.376   2.394   1.763
85336W        W53677  16.216  23.078  10.892
85337W        W53678  18.748  21.030   5.236
85338W        W53679  27.688  42.844   4.683
85339W        W53680  27.940  16.738  12.430
85340W        W53681   2.877  23.046   0.331
85341W        W53682  20.164  28.162  10.153
85342W        W53683  21.044  31.424   0.783
85343W        W53684  31.463  15.121  11.014
85344W        W53685  43.335  19.612   0.281
85345W        W53686  34.457   9.224   4.781
85346W        W53687  14.787  41.839   3.737
85347W        W53688  38.447   6.891  14.988
85348W        W53689  27.523  20.567  10.408
85349W        W53690  42.349  31.000  10.456
85350W        W53691  35.449  28.655  10.954
85351W        W53692  22.606  26.102   2.666
85352W        W53693   5.815  14.287   2.402
85353W        W53694  36.564   0.879   3.768
85354W        W53695  32.599  11.360   2.852
85355W        W53696  39.347  33.393  12.524
85356W        W53697  34.993  31.931  14.913
85357W        W53698   4.875  14.278   5.263
85358W        W53699  23.567   4.846  10.406
85359W        W53700  14.165  32.088   3.739
85360W        W53701  15.255  20.566   1.719
85361W        W53702   7.834   3.897  14.812
85362W        W53703  39.823  38.343  14.495
85363W        W53704  33.892   1.380  12.370
85364W        W53705  18.137  42.310  11.595
85365W        W53706  37.080   4.328  10.415
85366W        W53707   1.239   7.778  10.601
85367W        W53708  10.661   8.658   0.298
85368W        W53709  18.218   3.878   2.887
85369W        W53710  14.161  41.003  10.474
85370W        W53711   5.932  17.625  12.050
85371W        W53712  39.926  27.047  13.857
85372W        W53713   8.253  41.870  10.424
85373W        W53714  20.718   7.865   3.199
85374W        W53715  15.761  15.280  14.827
85375W        W53716  32.450  38.847  10.451
85376W        W53717  34.609  28.016   4.179
85377W        W53718   2.268  41.420  12.548
85378W        W53719  20.093   7.858   3.653
85379W        W53720   9.831  30.049   1.212
85380W        W53721  16.651  40.928  10.611
85381W        W53722  27.974   0.292  11.006
85382W        W53723  31.560  44.788   4.260
85383W        W53724  12.706   4.295   3.771
85384W        W53725  17.625  20.590   0.875
85385W        W53726  41.900  27.601  11.030
85386W        W53727  31.619  24.081  12.043
85387W        W53728  39.318  11.146   4.716
85388W        W53729  22.590  28.526   2.879
85389W        W53730   5.757  42.527   4.310
85390W        W53731  41.852  34.074  12.020
85391W        W53732  40.888  26.097  12.511
85392W        W53733  29.665  13.610  14.012
85393W        W53734  17.208  18.081  12.018
85394W        W53735  37.549  42.873   2.754
85395W        W53736  35.552  35.976   0.966
85396W        W53737  24.558  27.591  11.382
85397W        W53738  16.129  29.644   3.225
85398W        W53739   7.666  15.726   1.398
85399W        W53740  22.166  10.381  11.417
85400W        W53741  15.706  24.702   2.856
85401W        W53742  23.128  15.313  14.367
85402W        W53743  18.683  14.310  12.505
85403W        W53744   5.291  14.757   4.281
85404W        W53745  34.946  28.939   9.981
85405W        W53746  41.042   9.770   1.430
85406W        W53747  23.072  15.822   2.336
85407W        W53748  30.582  27.555   4.166
85408W        W53749  27.136  37.462   3.633
85409W        W53750  17.077  11.246   2.898
85410W        W53751   3.908   9.204  14.316
85411W        W53752  44.887  37.348  12.901
85412W        W53753  29.624   4.236  12.565
85413W        W53754  35.867  28.535  12.401
85414W        W53755  36.423  32.393  13.487
85415W        W53756  28.556  14.754   2.280
85416W        W53757  41.026  30.464   0.287
85417W        W53758  42.470  43.452   1.332
85418W        W53759  26.622  13.780  12.385
85419W        W53760  33.991  21.646   2.302
85420W        W53761  13.273  21.017   0.779
85421W        W53762   4.940  26.611   3.326
85422W        W53763  38.936  39.052  12.563
85423W        W53764   0.271  39.380  13.928
85424W        W53765  10.276  17.273  12.824
85425W        W53766   6.234   6.280   3.818
85426W        W53767  17.199  39.385   0.938
85427W        W53768   2.261  24.986   0.911
85428W        W53769  35.466  43.912  10.437
85429W        W53770   2.905  41.018   1.788
85430W        W53771  15.763  42.418  12.876
85431W        W53772   1.296   1.850  10.944
85432W        W53773  40.802  36.589   3.758
85433W        W53774   5.233  39.517  13.859
85434W        W53775  40.053  25.964   4.346
85435W        W53776   3.924  10.805  11.458
85436W        W53777  17.799  37.003  11.495
85437W        W53778  21.729  13.182   4.232
85438W        W53779  26.110   1.454   1.326
85439W        W53780  44.775  33.605   3.273
85440W        W53781  42.992  29.656  10.921
85441W        W53782   8.358  39.996  13.439
85442W        W53783  33.578  11.850  12.484
85443W        W53784  37.866  38.987   4.830
85444W        W53785   5.886  13.766  14.953
85445W        W53786   3.837   1.396   1.240
85446W        W53787  13.305  16.794  14.358
85447W        W53788  12.288   0.435   1.450
85448W        W53789  20.537  30.606  14.378
85449W        W53790  24.546  31.578   4.735
85450W        W53791  31.970  36.569   4.605
85451W        W53792  25.550  16.222   0.279
85452W        W53793   8.368  39.060   2.273
85453W        W53794  24.605  28.524  10.638
85454W        W53795  25.687   7.281   0.876
85455W        W53796  35.087  28.615  13.311
85456W        W53797  28.559  39.977  11.915
85457W        W53798  43.478   4.846   4.306
85458W        W53799  16.137  41.404  14.849
85459W        W53800  12.691   4.762  14.313
85460W        W53801  20.552  14.198  11.493
85461W        W53802  24.672  42.818   2.744
85462W        W53803  11.362  28.488  14.505
85463W        W53804   7.811  33.904   0.423
85464W        W53805   1.939   4.230  11.517
85465W        W53806  44.813  37.987   3.363
85466W        W53807   8.851  24.704   2.299
85467W        W53808  17.240  11.748  14.880
85468W        W53809  10.670   5.226   2.304
85469W        W53810  30.090  39.480   1.712
85470W        W53811  12.131  33.042  14.276
85471W        W53812  30.993  30.095  14.368
85472W        W53813  19.199  28.005   1.317
85473W        W53814  13.349  14.739   0.810
85474W        W53815   5.746   2.866  14.389
85475W        W53816  32.553  41.955  11.117
85476W        W53817  28.659   5.851   4.619
85477W        W53818  34.485  41.024  10.935
85478W        W53819  25.121  10.200   2.766
85479W        W53820  31.060  36.092   2.272
85480W        W53821  10.796  21.118  10.974
85481W        W53822   3.342  23.011  10.408
85482W        W53823  11.744  24.214  11.016
85483W        W53824  10.147   1.902   4.286
85484W        W53825  16.760  36.398   0.775
85485W        W53826  10.655  25.653  12.377
85486W        W53827  23.181  39.372  11.093
85487W        W53828  18.734  35.415  12.051
85488W        W53829   8.199  33.962   4.742
85489W        W53830  30.632  42.433   2.357
85490W        W53831   5.298   1.843   0.443
85491W        W53832  13.161  34.471   2.782
85492W        W53833  17.287  39.847   4.353
85493W        W53834  37.026   7.822   4.660
85494W        W53835  28.473   5.253  11.114
85495W        W53836  11.271  41.501   3.777
85496W        W53837  18.787  39.903   1.791
85497W        W53838  42.420  40.307  14.303
85498W        W53839  37.537  34.059  13.518
85499W        W53840  22.212  16.256  10.937
85500W        W53841   6.752  21.124  13.387
85501W        W53842  19.046  40.810  13.929
85502W        W53843  42.810  25.978  10.459
85503W        W53844  14.736  16.761   2.863
85504W        W53845  28.091  42.487  12.493
85505W        W53846  39.356  14.125   3.168
85506W        W53847  44.311  17.623  12.511
85507W        W53848  29.112  28.484  14.881
85508W        W53849   6.784  43.928   2.857
85509W        W53850  16.598   0.318  14.008
85510W        W53851  15.089  33.890   1.836
85511W        W53852  24.197  44.793  12.006
85512W        W53853  30.634   4.845  13.951
85513W        W53854   4.308  30.550  14.939
85514W        W53855  35.894  25.597  14.823
85515W        W53856  35.090  42.468   4.720
85516W        W53857   9.245  11.632  13.421
85517W        W53858  19.557  31.922  14.373
85518W        W53859   1.348  19.276  13.866
85519W        W53860  20.716  23.200   4.676
85520W        W53861  22.638   9.656   0.734
85521W        W53862  27.474  14.181   0.280
85522W        W53863  44.781   9.711  14.943
85523W        W53864  27.598  23.090   3.228
85524W        W53865  10.831   8.349  13.018
85525W        W53866  37.336   8.164   2.260
85526W        W53867  27.641  26.079   1.696
85527W        W53868  13.655  17.175  11.079
85528W        W53869  44.382  36.585   4.759
85529W        W53870   7.751   0.794   4.248
85530W        W53871  14.781  42.001   1.821
85531W        W53872  20.036  21.223   1.218
85532W        W53873  31.556  41.899   2.260
85533W        W53874  36.052  14.178   2.260
85534W        W53875  44.296  41.934   3.728
85535W        W53876   0.746   4.702   5.254
85536W        W53877  16.258  18.296  10.559
85537W        W53878  13.324   3.262  11.859
85538W        W53879  36.025  20.523   1.819
85539W        W53880  17.304   0.355   3.716
85540W        W53881   1.743  28.496   3.781
85541W        W53882  43.904  16.629   4.132
85542W        W53883  25.586  29.014  14.990
85543W        W53884  27.007  18.608   1.374
85544W        W53885   4.427  38.961   3.692
85545W        W53886   6.214  43.923  14.906
85546W        W53887  26.103   1.415   4.825
85547W        W53888   2.347  19.728   0.923
85548W        W53889  35.482  18.679   1.404
85549W        W53890  35.883  23.496  12.918
85550W        W53891  24.720  27.629  11.107
85551W        W53892  21.644  32.949   4.344
85552W        W53893  11.162  28.048   1.876
85553W        W53894   8.251  23.725   3.663
85554W        W53895  32.132  17.636   3.207
85555W        W53896  37.546  13.118   5.238
85556W        W53897  16.617  44.763   4.742
85557W        W53898   1.320  17.712  13.813
85558W        W53899   5.335  24.151  10.594
85559W        W53900   3.950   5.247   2.330
85560W        W53901  41.514  15.725   3.813
85561W        W53902   1.941  20.111   1.807
85562W        W53903  44.469  39.951   0.788
85563W        W53904  34.388  43.352  12.030
85564W        W53905   8.750   0.355  14.395
85565W        W53906  23.600   8.204   4.689
85566W        W53907   6.922  18.070  11.991
85567W        W53908   7.854  29.553  13.948
85568W        W53909  25.492  26.649   0.432
85569W        W53910  24.060  40.832  14.959
85570W        W53911  20.127  31.987   9.925
85571W        W53912  31.927  19.100   3.214
85572W        W53913   9.299  17.594   4.770
85573W        W53914  44.838  29.481  10.895
85574W        W53915  29.984  26.609  14.932
85575W        W53916  26.135  23.068  11.998
85576W        W53917  21.064  11.675  10.583
85577W        W53918  44.883  23.233   1.871
85578W        W53919   8.362  36.984   2.280
85579W        W53920   5.359  31.035   0.245
85580W        W53921  10.775   2.891   1.729
85581W        W53922  30.038  30.091   2.880
85582W        W53923  10.323  36.550  11.964
85583W        W53924  23.171  18.596   1.888
85584W        W53925  26.068  23.024   2.289
85585W        W53926  21.179  12.834  10.090
85586W        W53927   2.257   5.194   4.337
85587W        W53928  25.962  26.137  10.519
85588W        W53929  18.050  18.277   0.377
85589W        W53930  10.654  28.670  10.405
85590W        W53931  31.467  12.117   2.781
85591W        W53932  18.649   4.321   1.364
85592W        W53933  41.918  20.167  12.826
85593W        W53934  10.774  34.012   0.295
85594W        W53935  36.375  37.562  11.601
85595W        W53936  11.332   3.946   2.673
85596W        W53937  33.567  15.692  11.929
85597W        W53938   8.732  34.535  12.458
85598W        W53939  18.547  37.488  10.549
85599W        W53940  19.649  19.586  10.996
85600W        W53941  41.008   8.834   4.712
85601W        W53942  33.903  22.064   0.909
85602W        W53943  37.503  42.015   1.893
85603W        W53944  36.495  30.926   0.263
85604W        W53945  41.478   7.891   0.751
85605W        W53946  29.597  32.029  10.026
85606W        W53947  29.438  23.635  14.895
85607W        W53948  30.046  29.073  14.876
85608W        W53949   0.892  39.551  12.004
85609W        W53950  39.022  10.826  14.008
85610W        W53951   7.244  38.495  11.071
85611W        W53952  25.559  41.976  13.522
85612W        W53953  38.457  20.072  14.992
85613W        W53954  10.719   1.944  12.959
85614W        W53955  38.837  36.888   2.719
85615W        W53956  10.702  22.070  14.403
85616W        W53957  22.995  36.014   1.268
85617W        W53958  43.966  27.467  14.329
85618W        W53959   3.414  22.153  12.875
85619W        W53960  10.742   3.444  12.033
85620W        W53961  22.234  44.471   0.740
85621W        W53962   6.371  41.909  11.583
85622W        W53963  39.000  29.435   4.266
85623W        W53964   8.191   7.335  14.293
85624W        W53965  42.454  11.850  11.963
85625W        W53966  20.727  43.378  14.881
85626W        W53967   9.833  12.761   9.659
85627W        W53968   9.724  17.209   3.723
85628W        W53969  20.599  33.060  14.839
85629W        W53970  38.960  19.690  11.956
85630W        W53971  35.489  44.472  11.372
85631W        W53972  21.575   9.755   3.868
85632W        W53973  10.713  12.681  10.923
85633W        W53974  28.047  10.681   3.696
85634W        W53975  35.869  35.005   1.889
85635W        W53976  30.416  33.428  14.967
85636W        W53977   8.736   6.714   1.739
85637W        W53978  34.525  19.236   0.294
85638W        W53979  14.598  13.216   3.358
85639W        W53980  12.215   8.191  13.440
85640W        W53981  24.514  38.923   1.847
85641W        W53982  43.878  40.965  13.918
85642W        W53983  40.865  31.900   0.929
85643W        W53984  25.488  40.444  14.900
85644W        W53985  15.750   2.922   3.317
85645W        W53986  20.724  14.338  13.430
85646W        W53987  38.877  17.683   4.136
85647W        W53988  10.161  38.073  11.999
85648W        W53989  15.583  21.513  14.983
85649W        W53990  13.725  16.219   4.148
85650W        W53991  24.032  29.935  14.297
85651W        W53992  42.995  26.994   2.761
85652W        W53993  13.298   2.241   3.715
85653W        W53994  15.598  32.961   1.372
85654W        W53995  23.551  11.684  12.489
85655W        W53996  42.513  19.752  10.626
85656W        W53997  13.291  12.737   3.246
85657W        W53998  16.159  25.108   2.681
85658W        W53999  13.264   0.300   2.402
85659W        W54000  37.088  15.675   9.996
85660W        W54001  11.707  43.854  11.604
85661W        W54002  14.759  39.519   1.771
85662W        W54003  31.008  39.003   9.981
85663W        W54004   6.235  41.477   5.132
85664W        W54005  40.899   8.244   4.721
85665W        W54006  44.978  10.318  12.417
85666W        W54007  42.316  28.476  11.957
85667W        W54008   2.364   5.244  11.404
85668W        W54009   6.312  32.486   0.252
85669W        W54010  33.080   5.830  13.016
85670W        W54011  44.308  31.087   4.349
85671W        W54012   9.799  35.037  13.514
85672W        W54013  22.151  39.382   0.448
85673W        W54014   2.963  18.297   4.337
85674W        W54015  17.713  27.162  12.546
85675W        W54016  42.402  30.567  10.423
85676W        W54017   7.295   9.789   0.301
85677W        W54018  19.671  15.638   0.328
85678W        W54019  34.886  28.157   3.275
85679W        W54020  34.405  10.281  12.472
85680W        W54021  38.994  25.184  10.992
85681W        W54022  34.398  18.184  13.497
85682W        W54023   0.494  37.375  11.943
85683W        W54024  24.596  22.051   2.880
85684W        W54025  37.982   8.404  13.488
85685W        W54026  14.708  12.216   3.812
85686W        W54027  42.387  44.385   0.906
85687W        W54028   8.703  25.678  13.459
85688W        W54029  21.070  38.332  12.559
85689W        W54030  22.574  20.672  12.361
85690W        W54031   1.320   7.255   0.384
85691W        W54032  17.093   7.696   0.453
85692W        W54033   7.331   6.850   4.124
85693W        W54034   8.186   5.923  13.796
85694W        W54035  37.963  37.392  14.938
85695W        W54036   9.782   0.461   4.202
85696W        W54037   7.294  15.224  11.053
85697W        W54038  44.764  41.373   1.702
85698W        W54039   1.826  34.928   0.293
85699W        W54040   0.926  29.077  14.964
85700W        W54041  29.465  18.765  14.479
85701W        W54042  42.833  19.253   3.796
85702W        W54043   2.404  44.846  13.892
85703W        W54044  22.237  14.711   4.234
85704W        W54045  29.475  14.146  10.143
85705W        W54046  31.930  26.502  11.429
85706W        W54047  30.910  25.153   4.710
85707W        W54048  10.644  20.271  14.768
85708W        W54049   9.681  10.257  13.819
85709W        W54050  13.130  37.057   3.795
85710W        W54051  27.488  36.879  12.862
85711W        W54052   6.736  11.340  13.040
85712W        W54053  12.776  28.536  13.048
85713W        W54054  31.431   2.783  11.500
85714W        W54055  31.016   7.408  11.959
85715W        W54056  32.613  36.422   4.681
85716W        W54057  44.262  15.315   1.799
85717W        W54058  10.339  34.994  14.370
85718W        W54059  23.631  21.579  11.091
85719W        W54060  36.439  38.864  13.392
85720W        W54061  27.660   1.240   0.442
85721W        W54062  43.987   1.765  10.435
85722W        W54063   1.779  22.120   1.436
85723W        W54064  38.480  15.581   3.352
85724W        W54065  32.454  41.910   5.765
85725W        W54066   3.916  36.952  14.026
85726W        W54067   0.476   9.771   3.794
85727W        W54068  41.902  23.505  11.543
85728W        W54069  23.067  31.012  10.565
85729W        W54070  41.499  15.633  12.372
85730W        W54071  40.910  42.031  11.951
85731W        W54072  10.266  39.965  11.031
85732W        W54073  43.013  27.010   1.851
85733W        W54074  34.067  37.061   1.891
85734W        W54075   7.191  36.954   1.245
85735W        W54076  23.498   1.861  14.968
85736W        W54077  19.096  42.414   0.451
85737W        W54078  24.572  20.268  13.388
85738W        W54079  36.502  43.942  13.531
85739W        W54080  22.690   1.951  12.436
85740W        W54081  27.064  23.095   4.234
85741W        W54082  22.089  17.111   2.723
85742W        W54083  13.718   9.229  13.897
85743W        W54084   0.296  27.608   2.738
85744W        W54085   8.181  12.174   1.809
85745W        W54086  36.063   9.245  14.901
85746W        W54087   8.872  33.952  10.992
85747W        W54088   7.369   4.802  11.597
85748W        W54089   2.252  25.516  13.817
85749W        W54090  26.097   2.337   2.407
85750W        W54091  17.739   1.386   0.934
85751W        W54092  11.626  12.291   4.599
85752W        W54093  40.528  19.112  14.989
85753W        W54094   6.249  35.409   2.318
85754W        W54095  38.844  21.221   0.776
85755W        W54096  24.557  30.460  11.997
85756W        W54097   5.702  26.149  10.951
85757W        W54098  23.579  40.527   1.435
85758W        W54099   2.362  41.529   2.319
85759W        W54100  35.870  13.146  10.500
85760W        W54101  28.459  19.769   4.701
85761W        W54102   1.286  35.500  12.988
85762W        W54103  20.117  43.998   3.700
85763W        W54104  40.904   0.864  12.442
85764W        W54105   3.408   1.346   4.756
85765W        W54106  12.770  37.341   3.373
85766W        W54107  29.655  27.668  14.417
85767W        W54108  35.486  22.026   0.756
85768W        W54109  38.905   1.825  10.020
85769W        W54110  18.243   3.828  10.888
85770W        W54111   7.693   1.357  14.390
85771W        W54112  18.063  13.180   3.724
85772W        W54113  29.653  23.522   3.380
85773W        W54114  30.111  27.008   4.165
85774W        W54115  16.595   0.343   0.344
85775W        W54116   4.851  43.829  13.939
85776W        W54117  14.701  19.202   0.382
85777W        W54118   3.781  30.106  13.431
85778W        W54119  14.797  30.968  14.021
85779W        W54120   0.494   7.902  12.071
85780W        W54121  41.926  18.247   5.225
85781W        W54122  21.065   7.232   4.787
85782W        W54123  43.764   0.250   4.288
85783W        W54124  27.590  14.244  13.506
85784W        W54125   8.723   7.397  13.833
85785W        W54126  12.790  29.922   3.824
85786W        W54127  20.152  38.357  13.810
85787W        W54128  24.054  32.963   4.823
85788W        W54129  22.130  13.786  14.482
85789W        W54130   7.413   9.711   4.746
85790W        W54131   4.424  10.344   2.822
85791W        W54132  43.900  37.470   0.785
85792W        W54133   2.930  11.672  11.458
85793W        W54134   3.364  30.582   0.878
85794W        W54135   5.244  14.094  14.875
85795W        W54136  16.229  20.652   3.738
85796W        W54137  27.678   7.866   4.308
85797W        W54138  37.948  30.940   0.955
85798W        W54139  24.059   2.838   3.354
85799W        W54140  40.474  36.917   4.616
85800W        W54141  26.052  35.039   2.366
85801W        W54142  26.062  11.782  14.279
85802W        W54143  30.143  35.527  13.415
85803W        W54144  22.551  19.626   4.612
85804W        W54145  40.540  23.619  11.029
85805W        W54146  11.802  23.216   4.822
85806W        W54147  40.921  33.102  14.514
85807W        W54148  38.860  11.782  14.003
85808W        W54149  30.073  15.593   3.686
85809W        W54150  36.891  39.527  12.446
85810W        W54151  21.703  21.247  13.867
85811W        W54152  26.119   5.205   0.908
85812W        W54153   8.376  39.883   4.809
85813W        W54154  39.962   0.274  13.334
85814W        W54155  23.241  13.796   4.329
85815W        W54156   6.324  29.075   3.179
85816W        W54157  32.564  37.994  12.056
85817W        W54158  36.539  15.149  10.990
85818W        W54159  43.498  22.558  10.618
85819W        W54160   9.651   3.815  12.465
85820W        W54161  27.006  23.599  10.412
85821W        W54162  29.146  12.653  11.511
85822W        W54163  10.330  17.606   2.692
85823W        W54164  36.914  33.589   1.872
85824W        W54165   5.338   0.927   3.371
85825W        W54166  31.114   3.829   4.832
85826W        W54167  26.559   5.382   2.888
85827W        W54168   1.754   8.283  10.979
85828W        W54169  34.028  43.866  11.072
85829W        W54170  18.710  26.688   3.646
85830W        W54171   4.445   3.942   4.738
85831W        W54172   5.323  17.571  12.579
85832W        W54173  21.549  16.689   4.142
85833W        W54174  22.606  34.498   1.361
85834W        W54175   9.729  17.172  11.866
85835W        W54176  25.627   1.792  14.356
85836W        W54177  21.238  24.168  14.014
85837W        W54178  37.006  13.267  14.961
85838W        W54179   9.236  30.005   0.280
85839W        W54180  35.901  36.922  12.943
85840W        W54181   0.333  36.572  10.455
85841W        W54182  28.099  32.444   3.277
85842W        W54183  44.839   2.241  10.584
85843W        W54184   3.779  31.126  14.379
85844W        W54185  25.193  23.069  11.087
85845W        W54186  43.375  25.018   3.785
85846W        W54187   0.792  10.281  13.377
85847W        W54188  44.364  11.624   4.685
85848W        W54189  26.995  15.608  11.064
85849W        W54190  18.583  27.002   3.298
85850W        W54191  37.453  41.908   4.806
85851W        W54192  33.124  30.004  11.855
85852W        W54193  28.186  42.483   1.840
85853W        W54194   5.221  39.061   1.779
85854W        W54195  32.141  27.660   4.297
85855W        W54196   1.241  22.116  13.904
85856W        W54197   5.718  15.244  14.842
85857W        W54198  34.492  10.251   1.211
85858W        W54199  13.290  37.871  14.402
85859W        W54200  40.531  15.687  12.086
85860W        W54201   4.810  11.146   3.639
85861W        W54202  20.089   5.715   1.377
85862W        W54203  17.707  27.140  11.438
85863W        W54204  34.012  25.671   3.786
85864W        W54205   8.721  27.111   2.808
85865W        W54206   9.256  32.067  14.962
85866W        W54207  35.521  24.134   1.418
85867W        W54208  36.076  33.386  13.419
85868W        W54209  39.929  15.195  12.066
85869W        W54210  34.957  32.956  10.455
85870W        W54211  41.502  38.342  11.039
85871W        W54212  20.622  15.760   3.661
85872W        W54213  13.342  39.387   1.386
85873W        W54214  22.051   8.179   2.195
85874W        W54215  24.152   7.415  12.957
85875W        W54216  28.956  14.654  12.418
85876W        W54217  11.181  41.467   1.776
85877W        W54218  23.500   0.951   2.299
85878W        W54219   6.262   9.218  14.301
85879W        W54220  28.656   4.858  10.455
85880W        W54221  27.462  25.666  14.330
85881W        W54222   2.809  26.574  13.345
85882W        W54223   4.367  37.045   4.707
85883W        W54224  31.921  41.833   0.929
85884W        W54225   7.295  28.606  12.823
85885W        W54226  21.192   6.368  12.066
85886W        W54227   3.362   7.696  11.550
85887W        W54228  29.054  20.174  12.402
85888W        W54229  29.160   6.278  12.891
85889W        W54230  28.932  42.875  13.340
85890W        W54231  43.939   9.275   0.449
85891W        W54232  29.446  15.272  13.415
85892W        W54233  10.337   7.844   5.233
85893W        W54234   1.946   9.833   1.282
85894W        W54235  23.194  10.744  12.853
85895W        W54236  15.806  22.996  11.990
85896W        W54237  28.573   3.934   1.367
85897W        W54238   0.808  43.346  13.802
85898W        W54239   9.847  30.145   3.282
85899W        W54240  39.475  35.579   0.850
85900W        W54241  23.051   8.162   3.710
85901W        W54242  11.628  17.109   3.771
85902W        W54243  30.954  19.738   2.806
85903W        W54244   6.880  37.903   2.768
85904W        W54245  14.724  30.578  13.896
85905W        W54246  21.260  44.319  14.396
85906W        W54247  12.196  34.957   3.666
85907W        W54248   6.786  23.206   1.217
85908W        W54249  26.478  24.095  14.783
85909W        W54250  29.945  42.383  14.006
85910W        W54251  16.631  17.215  13.888
85911W        W54252  39.934  25.506   1.794
85912W        W54253  37.478  21.747   1.820
85913W        W54254  11.315   6.401  13.840
85914W        W54255  37.022  23.151   0.388
85915W        W54256  22.158  12.790   0.726
85916W        W54257   7.726  19.152   1.394
85917W        W54258  27.519   4.445  13.363
85918W        W54259  27.948   5.861  11.980
85919W        W54260  16.788  13.330  11.860
85920W        W54261  16.721  28.449   2.717
85921W        W54262  15.105  35.109   1.250
85922W        W54263  35.078  10.732   4.240
85923W        W54264  33.933   3.275   1.362
85924W        W54265   4.820   7.388   9.943
85925W        W54266  34.934  30.529  11.398
85926W        W54267  33.436  33.127   1.250
85927W        W54268   3.906   8.219  14.496
85928W        W54269  23.125  22.510   2.825
85929W        W54270  39.410   1.932   2.399
85930W        W54271  14.286  38.461   5.140
85931W        W54272  10.196  29.628   0.738
85932W        W54273  43.423  19.588   2.889
85933W        W54274   5.277  18.631  11.994
85934W        W54275  18.582  44.451  12.879
85935W        W54276  43.931  16.638  12.955
85936W        W54277  14.718   2.254   2.266
85937W        W54278  25.191  41.920  13.057
85938W        W54279  43.309  43.893   2.381
85939W        W54280   5.738  40.547  10.501
85940W        W54281  39.843  28.171  13.935
85941W        W54282  41.897  33.876  10.452
85942W        W54283  24.626  43.905  14.838
85943W        W54284  22.707  27.145  14.995
85944W        W54285  25.546  43.812  12.450
85945W        W54286   4.737  34.955  11.449
85946W        W54287  25.170  23.523  12.081
85947W        W54288   1.915  38.496  11.434
85948W        W54289  40.052  26.686  13.423
85949W        W54290  39.468   1.938  14.758
85950W        W54291  18.215  31.451   2.178
85951W        W54292   5.899  16.804   2.850
85952W        W54293  19.560  29.491   0.753
85953W        W54294  40.475   4.348   3.694
85954W        W54295  44.299  15.610   2.662
85955W        W54296  36.530   3.327  14.809
85956W        W54297   2.385   7.176   2.824
85957W        W54298  44.342  19.170   1.218
85958W        W54299  34.439  31.062   4.681
85959W        W54300  38.974  12.848   0.857
85960W        W54301  32.020  27.157   1.895
85961W        W54302  25.483  43.498   0.280
85962W        W54303  20.030  20.522  11.931
85963W        W54304   9.855  29.458  13.371
85964W        W54305   5.359  30.964   1.730
85965W        W54306  23.138  21.233   4.687
85966W        W54307   3.239   6.914   0.952
85967W        W54308   2.939  33.995   2.219
85968W        W54309  39.024  34.505   3.298
85969W        W54310  33.486  30.614   3.234
85970W        W54311  43.288  41.040   2.721
85971W        W54312  12.790   2.953   3.234
85972W        W54313  20.244  33.124   2.671
85973W        W54314  15.148   3.764  13.398
85974W        W54315   3.720  40.908  12.465
85975W        W54316  25.526  36.934   4.622
85976W        W54317  21.206  21.660   1.904
85977W        W54318  31.641  24.979   3.806
85978W        W54319  24.574  24.548   2.294
85979W        W54320  24.081  43.507  12.974
85980W        W54321  38.550  17.142  14.287
85981W        W54322  41.951  12.294   3.278
85982W        W54323  40.807  28.463  14.024
85983W        W54324  43.898  40.994   2.876
85984W        W54325  42.396  30.576  12.940
85985W        W54326  16.125  11.165   4.124
85986W        W54327  12.688  12.656   0.401
85987W        W54328   1.735  10.691   1.284
85988W        W54329  39.952  27.126   1.794
85989W        W54330  28.642  36.849  10.544
85990W        W54331  21.213  33.624   0.473
85991W        W54332   7.844  13.210   1.817
85992W        W54333  25.096  10.643  12.935
85993W        W54334  25.107  32.076   2.818
85994W        W54335  30.597  36.349   1.339
85995W        W54336  26.483  33.014   4.612
85996W        W54337  37.941  33.014  13.519
85997W        W54338   7.247  28.056   4.660
85998W        W54339  19.101   7.679  11.020
85999W        W54340  43.419  15.808  12.907
86000W        W54341  10.321  17.752  12.845
86001W        W54342   1.419  36.443  10.947
86002W        W54343  14.179   1.447   0.408
86003W        W54344  18.078  33.082  11.987
86004W        W54345  28.107  18.143  11.008
86005W        W54346  42.516  25.117  14.835
86006W        W54347  25.163   0.282   0.919
86007W        W54348  41.370   7.866   2.775
86008W        W54349  14.218   2.291  13.369
86009W        W54350  39.319  19.622   4.601
86010W        W54351  33.569   3.813   2.184
86011W        W54352  35.526  20.042  13.985
86012W        W54353  13.658  13.842   1.232
86013W        W54354  26.565  26.208   3.340
86014W        W54355  42.992  32.500   2.895
86015W        W54356  14.750   7.894  11.958
86016W        W54357  15.160  25.967   4.348
86017W        W54358  26.079  37.868  11.526
86018W        W54359  31.951  24.633  13.501
86019W        W54360  12.213  41.476  14.331
86020W        W54361   1.429   5.419  14.394
86021W        W54362   7.823  18.646   5.139
86022W        W54363   8.322  12.796  12.055
86023W        W54364  15.142  20.609  12.070
86024W        W54365   7.243   2.904  14.938
86025W        W54366  37.434  10.699   3.231
86026W        W54367  26.671  36.412  12.429
86027W        W54368  25.046   2.949  12.464
86028W        W54369  39.402  43.432  11.472
86029W        W54370   5.319  21.108   3.148
86030W        W54371  33.393  28.036   3.865
86031W        W54372  26.141  34.420  10.414
86032W        W54373  26.114  44.768  12.839
86033W        W54374  13.621   2.875  10.613
86034W        W54375  24.205   0.841   1.356
86035W        W54376  20.595  11.306  13.478
86036W        W54377  39.437  31.519   4.298
86037W        W54378  16.713  33.437  11.029
86038W        W54379  15.749  44.990  14.947
86039W        W54380  41.464  25.006  14.912
86040W        W54381  30.987  15.142   2.822
86041W        W54382  11.782   3.865   2.400
86042W        W54383  26.105  17.163  13.326
86043W        W54384  38.367  40.808   4.188
86044W        W54385  27.102  21.562  10.459
86045W        W54386  11.794  29.620  14.780
86046W        W54387   7.412   2.861   4.201
86047W        W54388   6.347  29.005   4.211
86048W        W54389  30.947  18.082   2.186
86049W        W54390  27.103   8.746  13.494
86050W        W54391  30.921   4.931  11.408
86051W        W54392  29.951  15.700  12.368
86052W        W54393   6.234  25.018   4.311
86053W        W54394   7.183  23.193   4.598
86054W        W54395  22.708  10.156  11.590
86055W        W54396   3.712  16.252   2.799
86056W        W54397  25.565  38.348   2.861
86057W        W54398  14.729  36.972   3.706
86058W        W54399  25.535  42.383  14.280
86059W        W54400  10.769  13.212  12.503
86060W        W54401  15.178  13.670  14.390
86061W        W54402  13.227  17.297  14.886
86062W        W54403  14.321  34.963  11.410
86063W        W54404  33.445   9.724   0.385
86064W        W54405  37.978   0.977  14.908
86065W        W54406  30.104  36.405  12.079
86066W        W54407  16.111  29.084   0.254
86067W        W54408  32.023   1.809  14.792
86068W        W54409  40.947  17.096  10.519
86069W        W54410   9.396   5.352   2.833
86070W        W54411   1.933   0.329   1.796
86071W        W54412  26.201  39.028  12.556
86072W        W54413  16.621  39.995   4.722
86073W        W54414  14.275  12.644   4.341
86074W        W54415  15.273   8.810   1.747
86075W        W54416  31.456  16.212   0.457
86076W        W54417   7.765  42.402   0.426
86077W        W54418   4.392  28.575  11.083
86078W        W54419   6.378  40.807   1.328
86079W        W54420  30.491  41.429   2.399
86080W        W54421   7.817  38.868   2.390
86081W        W54422  10.807  36.425   1.790
86082W        W54423   0.487  40.348   4.246
86083W        W54424  23.011  41.021   4.638
86084W        W54425  22.205  37.970   2.809
86085W        W54426  17.729  40.973   1.879
86086W        W54427  36.064   0.784  14.847
86087W        W54428  36.586  18.086   2.291
86088W        W54429  21.547   4.223   1.397
86089W        W54430   7.309  20.571   4.334
86090W        W54431   4.831  16.234  12.509
86091W        W54432  26.154  12.697   4.289
86092W        W54433  27.521  29.564   3.670
86093W        W54434  22.011  17.662  11.510
86094W        W54435  37.407   2.384  12.004
86095W        W54436  21.220  26.180   2.187
86096W        W54437  42.284   8.326  12.864
86097W        W54438  36.999  10.845  13.381
86098W        W54439  25.970  40.456  14.984
86099W        W54440  15.158  16.587   0.958
86100W        W54441  36.918  35.102  14.856
86101W        W54442  20.070  43.936  13.820
86102W        W54443   0.253  20.162   0.265
86103W        W54444  41.016   0.818   2.203
86104W        W54445  12.241  14.211  12.066
86105W        W54446  35.888   3.912   1.747
86106W        W54447   8.820  35.937   1.436
86107W        W54448   9.749  12.175  12.431
86108W        W54449  27.115  30.979   1.915
86109W        W54450  30.535  37.898  14.924
86110W        W54451  15.625   1.794  10.109
86111W        W54452  34.033   5.862   4.765
86112W        W54453  10.247  28.072   0.374
86113W        W54454   7.306   6.732   4.744
86114W        W54455  31.583  32.058   0.321
86115W        W54456  11.182  21.264  10.592
86116W        W54457  20.528  11.209   4.705
86117W        W54458   6.760   8.799  14.307
86118W        W54459  19.566   7.197  13.013
86119W        W54460  26.099  18.093  14.276
86120W        W54461  34.440  29.515  12.452
86121W        W54462   4.855  11.246  13.961
86122W        W54463  13.238  23.543  10.531
86123W        W54464  21.555  30.607  12.387
86124W        W54465  34.076  34.583   1.832
86125W        W54466   5.700  15.626   2.880
86126W        W54467  19.631  29.459  11.478
86127W        W54468  13.182  44.259   3.782
86128W        W54469  29.553  40.934   3.701
86129W        W54470  10.322  16.666   1.908
86130W        W54471  39.025  31.043   1.316
86131W        W54472   9.202  37.382  12.002
86132W        W54473  36.394  37.875  14.514
86133W        W54474   1.975  12.172   1.398
86134W        W54475  26.174  18.248   4.670
86135W        W54476   8.687  16.188  12.043
86136W        W54477  29.540  44.336  14.990
86137W        W54478  39.931   3.915   0.877
86138W        W54479  29.631  19.170   3.690
86139W        W54480   1.807  10.314  14.013
86140W        W54481  10.239  25.703  13.841
86141W        W54482  28.620   4.379   1.924
86142W        W54483  18.175  31.113  11.032
86143W        W54484  44.477   9.196  13.525
86144W        W54485   5.436  12.651  10.908
86145W        W54486  13.185  40.375   0.465
86146W        W54487   8.715  41.839   3.261
86147W        W54488  20.103  13.135   5.221
86148W        W54489   8.364  24.095   3.670
86149W        W54490  38.381  14.603   3.700
86150W        W54491  39.866   3.723  12.852
86151W        W54492   5.854   5.373   0.943
86152W        W54493  28.089  21.217   1.823
86153W        W54494  36.059  36.480   4.790
86154W        W54495   7.222  32.431  13.516
86155W        W54496   1.417  28.147   4.827
86156W        W54497  21.207   5.789  10.642
86157W        W54498  24.986  18.231  14.809
86158W        W54499  28.549   3.867   4.721
86159W        W54500  14.629  44.420   2.397
86160W        W54501   6.900  29.978  10.620
86161W        W54502  13.318  29.972  12.931
86162W        W54503  21.106  19.671   2.681
86163W        W54504  25.069  39.957  13.510
86164W        W54505  38.534   5.385  10.570
86165W        W54506  23.518  23.101   1.914
86166W        W54507   5.337  26.597  10.072
86167W        W54508  33.917  24.685  13.457
86168W        W54509   0.830  12.182   4.244
86169W        W54510  22.547   5.310  11.001
86170W        W54511  29.141  33.974   3.232
86171W        W54512  29.532   1.326   4.738
86172W        W54513  44.377  35.095  13.851
86173W        W54514  21.750  15.135  13.443
86174W        W54515  24.696  35.018   4.295
86175W        W54516   3.796  34.515  14.794
86176W        W54517   2.911   9.313   4.755
86177W        W54518  14.159  11.191   4.713
86178W        W54519  24.654  15.770   4.654
86179W        W54520   7.316  31.575   3.185
86180W        W54521  44.330   3.889  10.993
86181W        W54522  44.396   4.224  14.482
86182W        W54523  40.832  24.080  12.547
86183W        W54524  44.369  40.035   0.386
86184W        W54525  28.068  30.546  12.518
86185W        W54526  11.753  39.854  12.887
86186W        W54527  39.417   8.266  12.014
86187W        W54528  16.280  19.248  11.488
86188W        W54529  11.371  39.934   2.326
86189W        W54530  25.988  34.937   3.261
86190W        W54531  41.841  18.622  10.992
86191W        W54532  17.085  23.065   2.804
86192W        W54533   7.350   6.728   2.282
86193W        W54534  22.109  44.929   2.314
86194W        W54535  35.560  34.497   3.668
86195W        W54536  13.637   1.249   1.817
86196W        W54537  17.222  10.670   1.773
86197W        W54538  26.483  23.684   3.713
86198W        W54539  41.535  38.049  13.381
86199W        W54540  19.092  22.742   3.793
86200W        W54541  20.526  14.176  14.298
86201W        W54542  17.258  14.726  12.032
86202W        W54543  25.139  43.331   3.316
86203W        W54544  22.037  30.601   2.290
86204W        W54545  10.296  29.050  12.530
86205W        W54546   0.408  27.085  13.969
86206W        W54547  28.667   9.331  13.407
86207W        W54548   3.382  24.167   3.724
86208W        W54549  29.521  23.997  12.460
86209W        W54550  26.980  19.621   4.284
86210W        W54551  33.066  30.511   2.365
86211W        W54552   3.454  35.946  14.382
86212W        W54553  38.545  19.147   3.751
86213W        W54554  44.815   6.839   4.186
86214W        W54555  14.156  17.778  12.454
86215W        W54556   2.836  30.979   1.922
86216W        W54557  29.665  15.144  11.426
86217W        W54558  23.528  19.056   4.649
86218W        W54559  28.086  26.523   3.253
86219W        W54560  23.597  44.385   2.766
86220W        W54561  16.657  25.573   3.234
86221W        W54562   7.257  44.990   0.467
86222W        W54563  37.384  16.181   2.367
86223W        W54564  32.056  41.021  12.918
86224W        W54565   9.343  27.173   0.475
86225W        W54566   5.786  16.145  11.553
86226W        W54567  37.486  36.520   5.129
86227W        W54568  18.078  44.430  12.920
86228W        W54569   5.867  29.959   4.337
86229W        W54570  15.309  14.268   3.259
86230W        W54571   0.958  22.651   2.248
86231W        W54572  14.229   6.723   4.282
86232W        W54573  44.490  25.025  11.900
86233W        W54574  38.954   7.897   3.853
86234W        W54575  34.874   9.708   0.367
86235W        W54576   6.285  29.016   3.797
86236W        W54577   4.780  31.074  11.609
86237W        W54578  41.352  33.985   1.367
86238W        W54579  12.628  23.530   2.268
86239W        W54580  10.327  35.882  13.877
86240W        W54581  29.482  44.768   2.759
86241W        W54582  20.616  29.020   1.728
86242W        W54583   8.718   3.398   1.822
86243W        W54584  23.537  36.386  13.387
86244W        W54585  31.922  14.158   1.845
86245W        W54586   4.926  25.084  12.495
86246W        W54587  41.307  35.524   2.337
86247W        W54588  24.021  31.624   3.678
86248W        W54589  19.698   8.833  12.896
86249W        W54590  13.323  23.698  14.343
86250W        W54591  19.141   3.316  10.446
86251W        W54592   8.778  34.586   4.299
86252W        W54593  41.022  14.732   0.869
86253W        W54594  22.606  34.388   3.660
86254W        W54595   7.225   7.226  10.499
86255W        W54596  37.396   1.904   1.820
86256W        W54597   7.725  18.718  12.396
86257W        W54598  18.674  39.045   2.323
86258W        W54599   5.869  31.977   3.147
86259W        W54600  34.050  17.752  13.341
86260W        W54601   9.266  22.670  11.905
86261W        W54602  26.045  21.560   3.712
86262W        W54603   6.337  30.635  10.530
86263W        W54604  15.091  18.748   3.629
86264W        W54605  12.825   8.181  10.527
86265W        W54606  11.356   4.840  12.904
86266W        W54607  38.450  28.148   1.729
86267W        W54608  32.461  30.624   1.745
86268W        W54609  29.155  38.840  14.401
86269W        W54610  31.628  29.984  12.475
86270W        W54611  10.792  33.960   0.892
86271W        W54612  14.689   5.282  12.924
86272W        W54613   5.699  14.785   2.806
86273W        W54614   5.431  19.062  12.539
86274W        W54615  14.143  36.986  10.413
86275W        W54616   3.817  20.130   3.169
86276W        W54617  24.072  23.046   0.776
86277W        W54618  40.458  23.226  12.539
86278W        W54619  14.206   0.978  11.089
86279W        W54620   5.802  15.806   1.324
86280W        W54621  28.000   9.793  12.429
86281W        W54622   1.392  10.677   4.351
86282W        W54623   6.341   9.643  14.888
86283W        W54624  21.564   3.241   1.271
86284W        W54625  20.177  40.315  11.470
86285W        W54626  12.284  27.687  11.543
86286W        W54627  12.624   4.702   0.292
86287W        W54628  34.995  28.584  14.832
86288W        W54629  19.690  15.247  13.365
86289W        W54630  23.237  44.368   3.645
86290W        W54631   6.746  31.124  12.935
86291W        W54632  41.425  23.202   4.832
86292W        W54633  12.657  43.017   3.644
86293W        W54634  20.172  10.675   1.294
86294W        W54635  32.917   8.656  10.443
86295W        W54636  11.162   9.877  14.904
86296W        W54637  37.539  25.604   4.692
86297W        W54638  23.127   8.390   4.113
86298W        W54639  33.621  10.855  11.127
86299W        W54640  32.995  20.654   0.743
86300W        W54641  25.633  35.859   5.104
86301W        W54642  22.638  27.031  10.965
86302W        W54643  12.335  37.516  14.401
86303W        W54644   8.407  24.138  10.484
86304W        W54645  27.174   1.937  13.541
86305W        W54646  12.192  42.935   1.730
86306W        W54647  20.741  21.611   1.289
86307W        W54648   0.751  14.209  11.929
86308W        W54649  43.833   5.715   4.687
86309W        W54650  29.612  39.013  10.452
86310W        W54651   4.941  16.742  13.546
86311W        W54652  13.149  11.781   5.106
86312W        W54653  14.801  39.513   0.928
86313W        W54654  17.084  21.516  11.960
86314W        W54655  30.555  39.945   4.281
86315W        W54656   7.769  17.242   1.362
86316W        W54657  40.986  17.108  12.529
86317W        W54658   0.912  33.404   4.618
86318W        W54659  19.171   7.899  12.920
86319W        W54660  35.452  28.628  11.562
86320W        W54661  22.208  30.627  11.885
86321W        W54662  35.438   1.413  11.896
86322W        W54663  27.575  22.145  11.568
86323W        W54664  35.052  14.158   2.894
86324W        W54665  32.577  31.548   0.877
86325W        W54666  21.672  26.189  14.305
86326W        W54667  42.308  42.976  14.354
86327W        W54668  34.414   7.296   4.625
86328W        W54669   0.836  14.606  13.389
86329W        W54670  23.594   3.743   0.479
86330W        W54671  22.203  12.670  10.493
86331W        W54672   3.761  41.489  11.883
86332W        W54673  41.863  34.486  10.978
86333W        W54674  43.001   4.395   4.833
86334W        W54675  39.039  16.669   1.322
86335W        W54676  35.882  34.406  12.897
86336W        W54677  44.442  32.017   1.746
86337W        W54678  26.185  44.806  14.371
86338W        W54679  41.394  42.457   0.244
86339W        W54680  43.771  30.139   0.744
86340W        W54681  10.696  43.016   0.280
86341W        W54682  25.581  31.552  13.390
86342W        W54683  37.538  26.656  13.933
86343W        W54684  37.487   5.850   1.879
86344W        W54685  36.959   6.386   2.403
86345W        W54686  32.564  26.468  14.459
86346W        W54687  19.702   9.170  14.810
86347W        W54688  25.201  17.255   0.803
86348W        W54689   3.782  43.358  12.415
86349W        W54690  36.843  21.726  13.390
86350W        W54691  19.181  26.999  14.347
86351W        W54692  44.951  35.513   0.260
86352W        W54693  26.650   4.928   1.867
86353W        W54694  33.476  22.719   5.168
86354W        W54695  10.150  36.904  12.948
86355W        W54696   5.396   1.922   0.786
86356W        W54697  26.672   7.332   4.823
86357W        W54698  43.801  21.655  12.996
86358W        W54699  37.074  13.169  12.495
86359W        W54700  12.847  26.128  13.363
86360W        W54701   0.317  19.267  11.975
86361W        W54702  40.927   2.359   3.852
86362W        W54703  13.236   2.409  11.121
86363W        W54704   1.909  42.456   0.359
86364W        W54705  11.203  26.112   3.233
86365W        W54706  40.396   8.857   5.227
86366W        W54707  37.050  42.386   0.329
86367W        W54708  13.181   0.249  14.990
86368W        W54709   6.741   8.172  11.552
86369W        W54710   6.195   1.474   3.675
86370W        W54711  14.600  33.429  12.965
86371W        W54712  43.498  43.367  14.922
86372W        W54713   3.414  41.945   0.353
86373W        W54714  41.440   8.218  11.118
86374W        W54715  21.627  18.158  13.043
86375W        W54716   4.289  27.546   2.798
86376W        W54717  25.589  34.877   0.366
86377W        W54718  38.867  24.655   0.306
86378W        W54719  31.515   5.713  14.970
86379W        W54720  41.944  13.658   1.425
86380W        W54721   6.242  23.648   0.831
86381W        W54722  11.173  36.896   3.864
86382W        W54723  42.440  22.188  14.790
86383W        W54724  12.142   7.214  10.576
86384W        W54725  10.825   1.238   1.272
86385W        W54726  18.655  32.469  12.077
86386W        W54727   8.343  36.866  12.360
86387W        W54728  44.802  40.909  14.437
86388W        W54729  27.609   0.442  11.035
86389W        W54730   2.815   8.249   3.816
86390W        W54731  21.623  18.724  13.341
86391W        W54732  28.137  25.158  10.928
86392W        W54733  29.485   2.374   4.809
86393W        W54734   5.407  13.797   4.174
86394W        W54735  22.628   1.734  10.412
86395W        W54736  35.969   1.756   4.259
86396W        W54737   5.867  16.274   4.245
86397W        W54738  29.107   9.239   4.186
86398W        W54739  10.183  23.647  14.297
86399W        W54740  12.676   0.363   2.200
86400W        W54741  19.163   9.244  13.006
86401W        W54742  38.865   2.756   1.851
86402W        W54743  37.962  41.394  14.327
86403W        W54744  22.105  14.118   1.788
86404W        W54745  20.567  31.463  13.923
86405W        W54746   1.954  10.351  14.304
86406W        W54747  17.188  40.976   0.289
86407W        W54748  23.094  37.360   0.891
86408W        W54749  15.185  34.064   0.816
86409W        W54750   4.864  20.148  14.300
86410W        W54751  30.432  29.625  11.124
86411W        W54752  14.207   4.932   3.672
86412W        W54753  41.471  38.441  14.504
86413W        W54754  26.600  41.511   2.349
86414W        W54755  20.122  13.684   1.925
86415W        W54756   9.764  15.101   0.816
86416W        W54757  24.985   2.283   4.815
86417W        W54758  21.547   8.162  13.540
86418W        W54759  16.190   8.801  14.403
86419W        W54760  21.690   3.804   2.723
86420W        W54761  38.343  13.730   2.261
86421W        W54762   4.737  37.070  13.995
86422W        W54763  17.298   5.879  13.345
86423W        W54764   4.866  11.708   1.804
86424W        W54765   9.808   1.881   4.742
86425W        W54766   4.406  33.426   1.890
86426W        W54767  16.740  15.614  11.978
86427W        W54768  43.773  18.145   2.292
86428W        W54769  12.325  21.089  10.893
86429W        W54770  38.372  22.639  11.982
86430W        W54771  44.392   2.873   4.333
86431W        W54772  32.409  32.457  13.021
86432W        W54773  16.793  39.500  13.022
86433W        W54774  25.993  44.289   2.363
86434W        W54775   3.783  15.190  12.579
86435W        W54776  26.505   6.895  12.057
86436W        W54777  11.755  34.897  11.009
86437W        W54778  39.895  34.603  11.017
86438W        W54779  21.719  37.536   4.802
86439W        W54780  22.158  13.762  12.078
86440W        W54781   5.209  23.052  11.990
86441W        W54782  32.489  35.396  11.907
86442W        W54783  37.897  33.000  11.377
86443W        W54784  38.946  15.212  10.548
86444W        W54785   1.453  13.245   2.213
86445W        W54786  15.270  38.955   3.708
86446W        W54787  34.975  40.824   0.378
86447W        W54788  29.051   1.798   0.343
86448W        W54789  22.535  36.076   4.120
86449W        W54790  16.155  16.764  14.369
86450W        W54791  17.672   6.324   2.304
86451W        W54792  42.355  35.056  10.902
86452W        W54793  27.494  28.110   1.869
86453W        W54794  41.379  28.171   0.325
86454W        W54795  24.575  33.027  14.908
86455W        W54796   1.323  10.281  13.374
86456W        W54797   5.731  22.684  14.988
86457W        W54798  20.688  17.257  12.568
86458W        W54799  42.949   8.732  11.415
86459W        W54800  41.881  28.655   0.374
86460W        W54801   6.188  34.607  10.108
86461W        W54802  42.523  37.893  13.863
86462W        W54803  43.826  44.820   1.325
86463W        W54804  19.536   9.249   4.732
86464W        W54805  33.393  42.014   0.928
86465W        W54806  31.049  19.628  14.370
86466W        W54807  28.017  20.102   4.657
86467W        W54808  32.889  38.893   3.676
86468W        W54809  21.091  29.486   3.791
86469W        W54810  44.789  14.698   1.247
86470W        W54811  30.621  36.435   2.246
86471W        W54812  37.948  38.509   3.282
86472W        W54813  40.949  10.294   4.179
86473W        W54814  40.977  16.665  14.311
86474W        W54815  42.991  38.355  11.991
86475W        W54816  31.550  38.378   4.192
86476W        W54817  39.515  39.349   2.223
86477W        W54818  18.217  22.508  12.390
86478W        W54819  19.742  42.891  13.964
86479W        W54820  27.188  21.716   0.301
86480W        W54821  42.964   0.837   2.178
86481W        W54822   0.801  16.103  11.467
86482W        W54823  11.265  41.298  12.345
86483W        W54824   5.926  40.042   1.810
86484W        W54825  38.448  23.574  14.494
86485W        W54826  18.605  21.532  13.473
86486W        W54827   7.844  13.786   4.296
86487W        W54828  26.461  12.199  11.606
86488W        W54829  21.128  18.780  11.858
86489W        W54830   5.285  40.963  10.562
86490W        W54831  32.460  38.439   4.720
86491W        W54832  16.695  34.507  10.989
86492W        W54833  23.186  12.133   1.831
86493W        W54834  40.355  27.984   3.726
86494W        W54835   8.692  25.183  13.935
86495W        W54836  37.497  36.552  14.331
86496W        W54837  28.063  41.872   2.419
86497W        W54838  42.284  31.046  10.890
86498W        W54839  36.018  40.532  12.834
86499W        W54840  44.280  44.381  12.884
86500W        W54841  41.863  25.606  12.916
86501W        W54842  17.219  30.475  14.514
86502W        W54843  39.863  39.510   1.855
86503W        W54844   7.778   1.798  11.428
86504W        W54845  42.956  31.406  12.986
86505W        W54846  36.919   3.317  11.401
86506W        W54847   6.357  23.693  11.897
86507W        W54848  14.621  34.983  14.512
86508W        W54849  32.442   1.745   0.965
86509W        W54850  34.435  42.877  12.927
86510W        W54851  27.947  18.767  10.428
86511W        W54852  44.895  42.021   4.323
86512W        W54853  23.710  22.575   0.398
86513W        W54854  42.928  38.897   1.435
86514W        W54855  41.978   4.902   1.694
86515W        W54856  37.994   6.765   3.832
86516W        W54857  36.492  38.004  13.452
86517W        W54858  11.858  30.431  13.812
86518W        W54859   3.770   8.879   3.711
86519W        W54860  25.013  30.503   2.830
86520W        W54861  26.635  35.082  12.498
86521W        W54862  11.197   6.915   0.264
86522W        W54863  29.099  21.711   3.828
86523W        W54864  15.690  10.873  11.400
86524W        W54865  15.757  42.419  14.804
86525W        W54866  13.631  24.058   3.190
86526W        W54867  27.447  22.723  12.529
86527W        W54868   1.753  10.654   2.850
86528W        W54869   5.274  11.305  11.996
86529W        W54870  14.308  25.118   4.326
86530W        W54871  16.078   0.804  10.405
86531W        W54872  37.874   6.808   2.213
86532W        W54873  18.686  21.156   9.584
86533W        W54874  12.826  15.736   3.754
86534W        W54875  22.078   7.368   0.357
86535W        W54876  17.751  33.124   3.866
86536W        W54877  36.539   4.887   2.188
86537W        W54878  19.069   4.817   4.802
86538W        W54879  19.208  39.935  14.963
86539W        W54880   0.898  36.069   1.450
86540W        W54881  42.419  13.286   4.123
86541W        W54882   0.928  35.883   2.676
86542W        W54883  26.582   0.330  13.507
86543W        W54884  24.491  20.115   2.285
86544W        W54885  31.509  27.000   1.441
86545W        W54886  36.951  16.202  13.533
86546W        W54887  17.216  11.298   1.296
86547W        W54888  19.088  32.427   3.368
86548W        W54889   3.400   9.646   1.751
86549W        W54890  28.109  12.206   9.976
86550W        W54891   5.828   6.328   1.302
86551W        W54892   5.762  32.092  14.805
86552W        W54893  17.758  43.819  12.929
86553W        W54894  15.678  11.860  10.952
86554W        W54895  14.825  29.948  10.995
86555W        W54896  22.532  10.159  13.963
86556W        W54897  24.083  14.241  10.959
86557W        W54898   6.746   2.238  11.419
86558W        W54899   1.256  23.075   1.326
86559W        W54900   4.907  30.975   1.924
86560W        W54901  28.600  37.944   2.695
86561W        W54902  28.079  42.032  12.911
86562W        W54903  42.465  37.842  11.522
86563W        W54904  14.132  33.405  10.951
86564W        W54905  17.283   9.315   0.300
86565W        W54906  44.853  26.501  14.905
86566W        W54907  20.732   2.281   2.204
86567W        W54908  10.856  41.410   1.276
86568W        W54909   2.282   7.343   3.335
86569W        W54910  39.449   7.823   1.318
86570W        W54911  30.980  17.652   1.224
86571W        W54912  39.484   9.806   0.764
86572W        W54913   1.449  10.256   3.822
86573W        W54914  21.052   0.324  10.533
86574W        W54915   9.723  40.342   1.838
86575W        W54916   7.789  15.591  12.375
86576W        W54917  20.650  27.125   4.825
86577W        W54918   5.707  34.931   4.669
86578W        W54919  32.605  29.563  10.031
86579W        W54920  31.530  15.644  11.071
86580W        W54921   7.243   1.926  12.080
86581W        W54922  40.542  37.392   4.280
86582W        W54923  36.905   1.259   0.871
86583W        W54924  20.146  26.014  12.958
86584W        W54925  11.257  41.493  11.048
86585W        W54926  31.448   1.354   3.331
86586W        W54927   8.849  42.515   1.297
86587W        W54928  11.269   9.205  11.043
86588W        W54929  20.523  37.870  14.816
86589W        W54930   0.859  36.358   4.715
86590W        W54931  22.553  26.594   2.197
86591W        W54932  17.217  35.048   2.865
86592W        W54933  42.910   7.353  12.516
86593W        W54934  42.478  37.433   3.736
86594W        W54935   6.893  41.991  10.611
86595W        W54936  41.302   5.729   1.731
86596W        W54937  43.867   8.380  11.083
86597W        W54938  38.408   0.930   0.283
86598W        W54939  26.497  26.637  14.279
86599W        W54940  10.362  19.128   1.245
86600W        W54941  21.164  40.960  11.397
86601W        W54942  41.336  40.440   0.782
86602W        W54943  16.773  41.348   2.308
86603W        W54944   6.342   3.235   0.864
86604W        W54945  22.590  38.374  10.032
86605W        W54946   9.223  38.028   0.915
86606W        W54947  17.796   1.797  14.025
86607W        W54948   2.858  39.388  14.484
86608W        W54949  32.533  33.094  11.060
86609W        W54950  30.069   9.151   1.855
86610W        W54951  32.103  13.228   1.806
86611W        W54952   5.911  32.410  11.500
86612W        W54953  15.246  24.545  10.980
86613W        W54954  17.725  32.510  11.392
86614W        W54955  41.479   4.914   2.199
86615W        W54956  41.483   3.305   2.397
86616W        W54957  35.483  25.500   4.837
86617W        W54958  30.628  41.459  10.087
86618W        W54959   9.811  28.945   1.405
86619W        W54960  25.003  22.105   3.730
86620W        W54961  23.123   5.252  11.117
86621W        W54962  40.467  12.734  14.976
86622W        W54963  10.292  24.994  12.085
86623W        W54964  41.936   6.741  12.860
86624W        W54965  10.245   8.658   2.726
86625W        W54966  23.156  15.754   4.629
86626W        W54967  38.869  12.783  14.910
86627W        W54968   3.325  18.568   0.910
86628W        W54969  32.033   1.747   3.317
86629W        W54970  37.838   8.811  13.923
86630W        W54971  22.235  20.678  13.909
86631W        W54972  40.986  44.864  11.101
86632W        W54973  31.986  28.165  11.943
86633W        W54974  11.797   5.886   3.668
86634W        W54975  22.999  18.594   4.811
86635W        W54976  24.478   7.863  11.037
86636W        W54977   0.913  15.276  12.489
86637W        W54978  24.033  11.844   9.993
86638W        W54979  22.143  27.184   4.720
86639W        W54980   7.313  21.255   2.762
86640W        W54981  30.966  31.491  13.830
86641W        W54982   2.346  38.027  13.530
86642W        W54983   2.238   7.765  12.451
86643W        W54984  27.191   8.331  12.048
86644W        W54985  41.442  21.742  11.544
86645W        W54986   2.832  31.631   3.204
86646W        W54987  30.577   3.442  13.387
86647W        W54988  41.835  18.658  14.019
86648W        W54989  33.922  36.926   3.281
86649W        W54990  24.572  35.526   0.742
86650W        W54991  28.937   5.346  13.532
86651W        W54992   9.889  27.470  10.514
86652W        W54993  10.347   7.866  11.975
86653W        W54994  12.809  40.020  11.513
86654W        W54995  28.478  31.918   2.829
86655W        W54996   9.643  31.080   0.941
86656W        W54997  33.562  23.172   4.616
86657W        W54998   6.356  37.854   0.339
86658W        W54999  32.926  15.752  13.499
86659W        W55000  17.595  21.709  13.964
86660W        W55001  20.672  33.423  12.833
86661W        W55002   9.809  26.100  12.000
86662W        W55003  35.100  20.684  13.999
86663W        W55004  11.779  41.338  14.502
86664W        W55005  15.746  24.513   3.186
86665W        W55006  14.185  25.489  11.431
86666W        W55007  17.155   7.685   0.943
86667W        W55008  12.134   8.887   0.863
86668W        W55009  31.498  43.766   1.350
86669W        W55010  37.342  32.560  10.995
86670W        W55011   2.431   3.401  12.915
86671W        W55012   6.302  25.671  13.923
86672W        W55013   5.234  43.399   1.218
86673W        W55014  44.953  16.803   2.732
86674W        W55015   5.410  25.208  12.078
86675W        W55016  13.317  38.879  14.336
86676W        W55017  21.710  13.213  14.792
86677W        W55018  17.785  36.047   1.307
86678W        W55019   3.357   1.375  12.376
86679W        W55020  38.342  10.839   1.730
86680W        W55021  11.625  27.449  10.467
86681W        W55022  42.965   0.342  12.566
86682W        W55023   3.441  16.232  10.506
86683W        W55024  31.635  19.701  13.984
86684W        W55025   5.728  38.550   0.401
86685W        W55026  32.963   2.423  12.048
86686W        W55027  44.908   5.281  12.919
86687W        W55028  12.270  28.602  13.468
86688W        W55029  31.987  44.953   0.882
86689W        W55030  14.335  40.930  13.927
86690W        W55031  42.956  31.531  11.085
86691W        W55032  27.450  18.582  13.960
86692W        W55033  18.650  34.588  12.370
86693W        W55034  24.577   8.676  14.339
86694W        W55035  31.932  21.036   0.795
86695W        W55036   3.291  26.166   3.845
86696W        W55037  20.141  28.078   2.379
86697W        W55038  29.451  22.591   4.353
86698W        W55039  32.520  18.218   2.862
86699W        W55040   8.758   8.204  10.423
86700W        W55041   3.807  35.093   4.167
86701W        W55042   6.754  32.510  13.862
86702W        W55043  32.534  28.141  11.982
86703W        W55044  39.921  27.155  13.015
86704W        W55045  11.709  39.425  11.596
86705W        W55046  24.627  43.956  11.529
86706W        W55047  18.175  39.427   1.739
86707W        W55048   7.300  37.521  12.461
86708W        W55049  23.157  12.316  12.895
86709W        W55050  33.402  18.732  11.000
86710W        W55051  17.719  13.753   0.849
86711W        W55052  31.565   2.723   4.821
86712W        W55053  16.789  17.573   1.735
86713W        W55054   4.239  32.605   0.305
86714W        W55055  25.127   5.371  10.424
86715W        W55056  20.211  34.559   0.872
86716W        W55057  42.853  15.815   2.387
86717W        W55058  44.498  14.769   3.384
86718W        W55059  26.018   2.937   1.218
86719W        W55060  15.614  38.364  11.438
86720W        W55061  39.366  38.038  14.003
86721W        W55062  38.441   9.763   3.344
86722W        W55063  39.560   4.810   4.281
86723W        W55064  41.951  24.005  14.019
86724W        W55065  44.840  14.216  14.423
86725W        W55066  33.443  30.448  12.890
86726W        W55067  19.278  29.618   4.240
86727W        W55068  26.613   7.223   4.333
86728W        W55069   1.280  19.206  10.897
86729W        W55070   5.393  23.584  12.856
86730W        W55071  21.534  21.258   2.374
86731W        W55072  38.404   4.819  14.811
86732W        W55073  13.344   8.655   9.960
86733W        W55074   3.810   8.252   3.239
86734W        W55075   7.866  15.731  10.894
86735W        W55076  28.669  19.726   3.250
86736W        W55077   1.281  25.669  12.924
86737W        W55078   1.287  20.618   2.842
86738W        W55079  35.456  10.205  14.979
86739W        W55080   7.789  40.431   3.848
86740W        W55081  14.818   8.797   3.359
86741W        W55082  36.945  24.632  13.923
86742W        W55083  21.721  35.547   1.810
86743W        W55084   9.764  44.335  11.579
86744W        W55085   4.442  39.490   2.766
86745W        W55086   4.819  17.150  12.526
86746W        W55087   6.841  44.482   0.852
86747W        W55088  39.358  39.479  13.453
86748W        W55089  40.005  20.035   4.223
86749W        W55090  25.608  16.232   5.160
86750W        W55091   6.394  40.809  13.464
86751W        W55092   1.887   0.393  13.835
86752W        W55093  40.035  28.954  14.976
86753W        W55094  32.911  41.395  11.078
86754W        W55095  23.617  19.092   3.684
86755W        W55096  26.149   7.328   2.846
86756W        W55097  32.952   6.192   4.815
86757W        W55098  14.637  13.672  12.017
86758W        W55099  25.608  43.785   4.342
86759W        W55100  36.369  18.202   1.869
86760W        W55101  33.893  24.576  14.026
86761W        W55102  44.374  35.926   0.482
86762W        W55103  26.456  31.952   4.130
86763W        W55104  31.149  11.320   0.477
86764W        W55105  14.678  42.984  14.987
86765W        W55106   9.844  16.207   3.385
86766W        W55107  32.627  25.641   0.791
86767W        W55108   6.298  10.154  14.491
86768W        W55109  30.086   1.344   4.148
86769W        W55110  17.146   9.709  12.087
86770W        W55111  37.054  27.659  10.433
86771W        W55112   1.264   5.261   3.220
86772W        W55113  10.176   4.213   4.826
86773W        W55114   8.805  44.760   1.234
86774W        W55115   4.319   7.791   3.156
86775W        W55116  44.935   5.702   2.414
86776W        W55117  22.521  13.730  12.481
86777W        W55118  16.115   7.302   2.202
86778W        W55119  20.628  11.373   1.410
86779W        W55120  10.137  28.995   2.204
86780W        W55121  13.312  26.533   3.213
86781W        W55122   9.364  27.101   2.892
86782W        W55123  21.096   1.408   3.316
86783W        W55124  13.687   5.766   1.721
86784W        W55125  40.024   0.374  14.796
86785W        W55126  11.752  10.857  12.478
86786W        W55127  32.894  10.664  14.493
86787W        W55128   8.693  27.051   3.746
86788W        W55129  39.337  17.561   3.739
86789W        W55130  42.901  12.223  14.308
86790W        W55131  36.373  32.045  11.584
86791W        W55132  41.906  39.912  12.862
86792W        W55133  15.244  37.521  13.879
86793W        W55134  25.493  21.221  12.932
86794W        W55135  29.157  37.405  10.933
86795W        W55136  39.024   9.733   0.360
86796W        W55137  21.172  24.985  12.354
86797W        W55138  44.801  12.854   2.177
86798W        W55139  39.373  37.413   2.818
86799W        W55140  25.661  22.082   2.684
86800W        W55141  11.143  16.313  13.895
86801W        W55142   0.887  10.781  14.296
86802W        W55143   4.792  13.833  14.352
86803W        W55144  13.180   4.364   3.714
86804W        W55145  29.969  16.152   1.415
86805W        W55146  15.614  16.712   4.135
86806W        W55147  27.094   2.231   2.709
86807W        W55148  21.526   0.254  12.351
86808W        W55149  14.207  30.568  10.937
86809W        W55150  42.985  31.529  10.415
86810W        W55151  38.476  44.417  10.970
86811W        W55152  39.337   9.206  14.023
86812W        W55153   7.355  17.229  12.465
86813W        W55154  36.571  27.611   2.890
86814W        W55155  35.500  37.845  11.589
86815W        W55156   2.273   0.313   5.266
86816W        W55157  30.946  40.856  12.427
86817W        W55158  26.701  17.151   3.256
86818W        W55159  44.323   2.822   3.703
86819W        W55160  23.222  31.578   2.721
86820W        W55161  43.425  31.619   0.950
86821W        W55162  14.710  36.957   1.810
86822W        W55163  16.623   1.736   1.253
86823W        W55164  19.560   8.882   1.728
86824W        W55165  40.367  33.517  13.444
86825W        W55166  35.026  41.866  12.525
86826W        W55167  27.652  41.315   1.723
86827W        W55168  33.944   8.723   3.653
86828W        W55169   7.856  12.117   4.271
86829W        W55170  26.986   9.288  10.613
86830W        W55171  22.534   9.305   3.746
86831W        W55172   9.242  35.969  13.885
86832W        W55173  10.771   7.736   4.306
86833W        W55174  18.078  13.648   1.737
86834W        W55175   6.187  43.825   3.689
86835W        W55176  30.565   6.781   3.211
86836W        W55177   6.913  23.516   3.830
86837W        W55178  18.192   8.799   3.813
86838W        W55179  37.075  23.177   1.901
86839W        W55180   2.940  37.418  13.973
86840W        W55181  32.083   7.192  13.803
86841W        W55182  37.499  31.523  11.399
86842W        W55183   2.385  28.512   3.385
86843W        W55184  17.182   0.957  13.906
86844W        W55185  38.467  20.067  12.504
86845W        W55186  35.382   3.273  11.422
86846W        W55187  19.584  10.831   0.246
86847W        W55188  41.867  40.367  11.511
86848W        W55189  42.797  15.794  13.529
86849W        W55190  41.407  14.827  14.994
86850W        W55191  22.153   2.734  13.792
86851W        W55192  25.627  35.550  13.837
86852W        W55193  17.237   3.229  12.483
86853W        W55194  32.943   9.365  13.933
86854W        W55195  12.182  38.938  12.896
86855W        W55196   0.831  29.626   4.687
86856W        W55197   1.398  13.180   4.705
86857W        W55198  33.513  42.808  10.641
86858W        W55199   4.234  37.987  13.022
86859W        W55200  35.409  29.538  13.373
86860W        W55201  28.538   2.778  10.406
86861W        W55202   9.742  30.538   4.175
86862W        W55203   7.668  30.502  13.884
86863W        W55204   3.266   2.400   2.819
86864W        W55205  17.223  16.807  10.910
86865W        W55206   6.888  41.830  12.026
86866W        W55207  13.310  32.575  11.074
86867W        W55208  26.044  24.668  13.921
86868W        W55209  36.856  33.463   0.257
86869W        W55210   5.395  27.550   0.457
86870W        W55211  43.980  37.521  11.526
86871W        W55212   0.911  28.666   4.115
86872W        W55213   8.802  30.619   1.386
86873W        W55214  21.705  32.589   2.806
86874W        W55215  19.594  35.434  13.953
86875W        W55216  12.307  21.714   1.759
86876W        W55217  31.924  36.067   0.880
86877W        W55218  44.917  40.978   0.470
86878W        W55219  43.927  11.722  12.569
86879W        W55220  39.926  20.215  12.553
86880W        W55221  43.772   2.286   0.951
86881W        W55222  39.903  35.491   1.808
86882W        W55223  24.009  12.698   4.201
86883W        W55224  32.573  34.529  10.892
86884W        W55225  40.452   8.835   2.890
86885W        W55226  42.963  14.648  12.533
86886W        W55227  16.161  15.295  14.335
86887W        W55228   4.403  18.705   2.371
86888W        W55229  11.180  16.622   3.147
86889W        W55230   9.841  43.805  14.295
86890W        W55231  44.823   6.211   3.183
86891W        W55232  12.852  39.827  12.372
86892W        W55233  29.941  36.518  11.425
86893W        W55234  13.191   6.849   3.668
86894W        W55235  25.565  39.356  12.359
86895W        W55236   8.807  23.053   3.722
86896W        W55237  24.685  28.617  11.000
86897W        W55238  44.297  26.526  12.458
86898W        W55239  10.690  11.169  12.379
86899W        W55240  29.943  19.637  14.465
86900W        W55241   7.341  10.689  12.016
86901W        W55242   9.710   3.772  10.973
86902W        W55243  34.401  15.598  14.000
86903W        W55244   2.762  38.873  12.009
86904W        W55245   9.743   4.813  11.124
86905W        W55246  44.962  36.530  12.485
86906W        W55247  41.006  33.482   2.881
86907W        W55248  19.731  32.586   4.637
86908W        W55249   3.823  25.046   2.712
86909W        W55250  26.002  34.516   2.722
86910W        W55251  41.804  24.061  12.547
86911W        W55252  22.070  11.291  13.313
86912W        W55253  14.786   9.371   4.833
86913W        W55254   5.813  14.743  12.535
86914W        W55255  44.463   9.665   3.253
86915W        W55256   0.336   6.408  14.483
86916W        W55257   3.456  19.719   0.379
86917W        W55258  26.194   0.776  11.988
86918W        W55259  40.481   8.242   4.218
86919W        W55260  41.971  32.938   1.788
86920W        W55261  14.809  17.183  12.838
86921W        W55262  28.956  13.674  14.392
86922W        W55263  11.358  29.045   2.880
86923W        W55264  14.168  31.096  14.328
86924W        W55265  32.114   8.735   3.313
86925W        W55266  35.865  29.593   3.852
86926W        W55267  20.555  24.661   1.773
86927W        W55268  20.069   2.772   1.406
86928W        W55269   1.911  12.234  14.893
86929W        W55270  23.726   8.870  14.420
86930W        W55271  41.324  30.508  12.028
86931W        W55272   1.786  40.878   2.192
86932W        W55273  17.268  33.388   4.797
86933W        W55274  41.879  35.451   1.767
86934W        W55275  24.679  41.805   2.711
86935W        W55276   3.322  12.655   3.791
86936W        W55277  19.274  18.654   0.774
86937W        W55278  39.055   0.471  10.423
86938W        W55279  36.491   0.373   3.865
86939W        W55280  23.108  30.532  12.357
86940W        W55281  31.612  19.561  14.302
86941W        W55282  41.504  19.534  13.504
86942W        W55283  19.139  38.986   3.654
86943W        W55284   7.775   4.284  11.422
86944W        W55285  42.031   8.873  11.533
86945W        W55286  15.123  32.499   0.809
86946W        W55287  21.594   8.778  11.414
86947W        W55288   9.248   0.763  11.047
86948W        W55289  20.091  38.853   3.771
86949W        W55290  29.499  31.488   1.377
86950W        W55291  43.460  24.675   0.914
86951W        W55292  31.587  41.007   1.742
86952W        W55293  39.381  32.019   0.890
86953W        W55294  10.639  19.042  14.284
86954W        W55295   7.887  38.435   0.775
86955W        W55296  11.669   0.424   2.368
86956W        W55297  38.547  34.373   4.782
86957W        W55298  22.153  42.384   3.275
86958W        W55299  37.867   9.207  10.969
86959W        W55300  26.991  24.643  12.412
86960W        W55301  20.061  14.748  14.003
86961W        W55302  32.576  38.373  12.866
86962W        W55303   4.796   9.389   4.322
86963W        W55304  30.959  25.045   2.815
86964W        W55305  41.538   3.319  14.982
86965W        W55306  42.490  13.786  14.472
86966W        W55307  29.024  10.721  10.948
86967W        W55308  10.672  10.646   2.678
86968W        W55309   9.378   7.666   4.713
86969W        W55310  27.587  17.238  12.991
86970W        W55311  28.446  25.965  14.767
86971W        W55312  38.871   3.244   4.199
86972W        W55313   8.725  28.959   0.881
86973W        W55314  34.504  16.294  10.408
86974W        W55315  34.496   0.293  14.467
86975W        W55316   0.800  16.156  14.463
86976W        W55317  35.992   5.775  13.047
86977W        W55318  11.723  24.518   0.428
86978W        W55319  41.323  41.973   1.918
86979W        W55320   6.772  12.164  12.926
86980W        W55321  13.746  27.447   4.779
86981W        W55322  20.092  37.870  13.825
86982W        W55323  27.489  39.417  14.472
86983W        W55324  23.581  41.522  11.473
86984W        W55325  25.628   7.890  14.860
86985W        W55326  12.324  39.835   4.253
86986W        W55327  27.472  34.888   4.616
86987W        W55328  16.758  15.287  14.783
86988W        W55329  21.539   9.817   4.774
86989W        W55330  31.546   9.684  11.415
86990W        W55331  15.176   0.773  13.839
86991W        W55332  15.315  33.569  10.999
86992W        W55333  10.317  28.620  11.416
86993W        W55334  17.581  44.491  12.080
86994W        W55335  21.558  24.487  11.610
86995W        W55336  40.935  11.748  10.642
86996W        W55337   6.192  33.065   1.763
86997W        W55338   8.319  29.493  11.962
86998W        W55339   6.242  37.480   4.818
86999W        W55340  17.741  33.947   2.221
87000W        W55341   9.355  33.040   3.268
87001W        W55342  14.316   3.820   0.939
87002W        W55343  12.341   5.695   3.868
87003W        W55344  44.380  31.061   0.815
87004W        W55345  36.917   4.334  12.532
87005W        W55346  34.012  39.455   5.767
87006W        W55347  32.441  19.704   3.347
87007W        W55348  24.080  36.989  10.429
87008W        W55349  17.303   6.754  11.417
87009W        W55350   1.846  20.118   2.812
87010W        W55351  43.401  27.983  14.853
87011W        W55352  28.155  40.380  14.452
87012W        W55353   7.852  27.469   0.770
87013W        W55354   5.724  38.882  13.982
87014W        W55355  28.064   5.431   4.119
87015W        W55356  15.673  17.086  14.484
87016W        W55357  10.819  41.986  12.370
87017W        W55358  30.633  27.586   1.307
87018W        W55359  31.133  28.626   3.852
87019W        W55360  34.566  19.252  14.278
87020W        W55361  38.410  42.972  13.501
87021W        W55362   5.714  14.607   4.792
87022W        W55363  18.719  26.689   1.219
87023W        W55364  15.602  42.490   0.843
87024W        W55365  29.661   0.865  14.984
87025W        W55366  26.196  19.223  10.607
87026W        W55367  34.910  17.093  10.403
87027W        W55368  31.047  27.152  11.858
87028W        W55369  33.381  33.490   1.268
87029W        W55370  40.000  23.061   1.335
87030W        W55371  17.794   9.235   2.751
87031W        W55372  34.520  40.331   0.912
87032W        W55373  11.804  39.923  11.866
87033W        W55374   1.410  39.485  10.998
87034W        W55375  43.941   0.436  10.430
87035W        W55376  13.684  19.749  14.833
87036W        W55377  39.981  19.230  14.787
87037W        W55378  27.004  33.400  14.780
87038W        W55379  25.205  17.608  10.158
87039W        W55380  11.714  33.089  14.380
87040W        W55381  43.941  20.045  10.942
87041W        W55382  28.987  24.006  10.950
87042W        W55383  13.331  15.651   2.815
87043W        W55384  33.488  30.967  11.447
87044W        W55385  12.202  13.130   1.447
87045W        W55386  31.443  16.295  10.619
87046W        W55387  16.156  26.074  11.957
87047W        W55388  24.519  10.322  14.481
87048W        W55389  16.773  42.376   4.274
87049W        W55390  12.817  32.047  14.417
87050W        W55391  19.543  22.525  13.980
87051W        W55392  43.398  34.381   4.268
87052W        W55393   9.733  29.538   1.408
87053W        W55394  11.719  15.171   3.787
87054W        W55395  39.012   9.665   4.206
87055W        W55396  40.392  31.582   2.233
87056W        W55397   3.255   7.697  13.052
87057W        W55398  15.146  16.147  14.777
87058W        W55399  32.901   3.918  10.976
87059W        W55400  23.999  35.015   0.774
87060W        W55401  30.569   6.752  10.519
87061W        W55402  20.747  40.925   1.274
87062W        W55403  37.345  29.656   4.192
87063W        W55404  26.166  29.570   2.355
87064W        W55405  19.270   0.281   2.405
87065W        W55406  19.754   9.211  12.985
87066W        W55407  31.590  17.685   1.329
87067W        W55408  40.942  15.212   4.768
87068W        W55409  29.662  38.540  12.919
87069W        W55410   0.290  17.596   9.640
87070W        W55411  22.729  29.924   3.340
87071W        W55412  23.042  32.497   4.762
87072W        W55413  42.321  11.348  13.819
87073W        W55414  18.678  27.453   0.941
87074W        W55415  13.713  14.709  14.784
87075W        W55416   1.328  31.932  12.366
87076W        W55417  18.621  17.566   0.952
87077W        W55418  28.540   7.342  13.454
87078W        W55419  11.847  36.458  10.596
87079W        W55420   1.950  12.313  14.307
87080W        W55421   9.158  40.038  11.382
87081W        W55422   7.688  14.299  13.014
87082W        W55423  17.573   1.842  12.843
87083W        W55424  42.780  41.837  10.409
87084W        W55425  15.771  22.580  11.418
87085W        W55426   1.922  30.490  10.915
87086W        W55427  29.087  36.844  12.971
87087W        W55428  35.379  33.592  12.373
87088W        W55429   8.267   3.772  12.897
87089W        W55430   6.762  13.144  12.462
87090W        W55431  22.172  23.582   4.681
87091W        W55432  30.980  24.115   3.366
87092W        W55433  16.127  13.116  13.918
87093W        W55434  13.826  43.015  13.538
87094W        W55435  28.978  29.135   2.312
87095W        W55436   4.337  18.296   4.240
87096W        W55437  41.962  26.978  11.385
87097W        W55438  34.864  23.187  11.406
87098W        W55439   0.331  17.798  13.357
87099W        W55440  30.572  31.998  14.462
87100W        W55441  18.775  39.341  10.470
87101W        W55442  17.147   7.674   2.734
87102W        W55443   5.210  32.918  12.044
87103W        W55444  44.011  26.628   3.688
87104W        W55445  33.497   5.899   2.401
87105W        W55446  20.141  10.840  11.886
87106W        W55447   9.849   4.745   2.298
87107W        W55448  40.321   6.698  11.392
87108W        W55449   0.480  14.758  10.980
87109W        W55450  18.563   2.416  11.552
87110W        W55451  31.406  21.228  14.359
87111W        W55452  31.148  29.105  10.507
87112W        W55453  20.271  35.992   3.216
87113W        W55454  13.718  43.951   3.174
87114W        W55455  34.084  17.073   0.828
87115W        W55456  10.224   9.268  13.374
87116W        W55457  19.699  42.380   2.733
87117W        W55458  39.350  18.558   0.477
87118W        W55459  36.489  17.280  11.609
87119W        W55460   2.428  30.620  13.424
87120W        W55461  26.015  22.635  11.513
87121W        W55462  19.171  21.676   2.772
87122W        W55463  25.075   6.712  12.988
87123W        W55464   0.472  14.197   1.352
87124W        W55465  29.559   3.288  13.893
87125W        W55466  38.074  42.967  10.085
87126W        W55467  34.449  24.986   4.129
87127W        W55468  37.881  18.579   3.190
87128W        W55469   0.968  24.699  11.374
87129W        W55470  34.002  11.219  14.903
87130W        W55471   2.884  11.858  12.062
87131W        W55472  40.371  12.199   1.273
87132W        W55473   1.947  35.103  14.920
87133W        W55474  38.032  38.998   4.206
87134W        W55475  23.153  17.644  11.951
87135W        W55476   5.899  25.033   2.274
87136W        W55477   8.735  38.361   4.720
87137W        W55478  15.122   9.676  14.304
87138W        W55479  25.206   4.801  10.633
87139W        W55480  23.545  23.726  10.467
87140W        W55481  14.685  17.246   0.890
87141W        W55482  25.584  14.756  12.406
87142W        W55483   7.197  33.387   1.720
87143W        W55484   7.217  25.199   3.798
87144W        W55485  12.763  43.848  14.886
87145W        W55486   4.304   2.751   3.216
87146W        W55487  31.418  42.470   0.346
87147W        W55488  36.885  26.059   0.859
87148W        W55489  27.494   0.866   1.839
87149W        W55490  25.700  26.170   3.784
87150W        W55491  19.682  19.644  13.878
87151W        W55492   6.273  34.057  14.928
87152W        W55493  34.396   3.789  13.038
87153W        W55494  44.848  43.795  10.572
87154W        W55495   2.249   4.867  11.106
87155W        W55496  43.311  24.667  11.054
87156W        W55497  11.249  31.519   3.377
87157W        W55498  20.032  27.954  12.019
87158W        W55499  23.581  39.053   2.743
87159W        W55500   5.296  26.091   0.833
87160W        W55501  28.051  14.180  13.819
87161W        W55502  34.501   8.167  12.414
87162W        W55503   5.865   7.367   1.894
87163W        W55504  27.967   7.408   0.476
87164W        W55505  12.746  26.509  12.859
87165W        W55506  27.985  23.569  14.352
87166W        W55507  43.471   5.292  11.449
87167W        W55508  32.961  20.103   1.895
87168W        W55509   7.740  10.652   0.879
87169W        W55510   1.317   4.430  13.046
87170W        W55511   5.856  15.722  13.496
87171W        W55512  18.685  18.676   2.302
87172W        W55513  32.445  39.507  14.388
87173W        W55514  25.150  42.821   3.342
87174W        W55515   7.346  38.492  14.297
87175W        W55516  10.683   3.272   0.467
87176W        W55517  28.114  11.840  14.465
87177W        W55518   8.694  12.268   2.346
87178W        W55519  31.085  19.116   0.736
87179W        W55520   0.935  39.824   9.966
87180W        W55521  39.394   5.901   0.811
87181W        W55522  23.686  11.350   4.688
87182W        W55523  28.109  44.879   1.210
87183W        W55524  34.566  41.801   0.479
87184W        W55525  18.565  37.892  13.794
87185W        W55526  24.718  24.054  14.424
87186W        W55527  34.371  15.179   2.294
87187W        W55528   9.790   5.370   3.227
87188W        W55529  14.664  32.979  14.357
87189W        W55530  13.681  19.265  11.862
87190W        W55531  35.071  17.784  11.116
87191W        W55532  12.631  34.472  13.811
87192W        W55533  15.665  28.962   3.217
87193W        W55534  27.521  39.855   2.687
87194W        W55535  19.657  18.607  14.026
87195W        W55536  14.145   8.781   0.860
87196W        W55537  22.234  28.023  14.914
87197W        W55538  39.478  20.735   3.209
87198W        W55539  33.937  32.008  12.955
87199W        W55540  21.243  26.666  12.090
87200W        W55541  44.321  42.895   5.302
87201W        W55542   5.734  19.614   3.788
87202W        W55543  38.930  13.631   0.958
87203W        W55544  21.044  16.722   3.796
87204W        W55545  26.515  30.057  10.535
87205W        W55546  42.806  20.582  13.063
87206W        W55547  19.643  40.951  12.431
87207W        W55548  36.462  13.232   4.176
87208W        W55549  40.314  33.926   1.787
87209W        W55550   7.779   5.912   2.361
87210W        W55551   3.228  16.115  13.941
87211W        W55552   1.841  27.611  10.640
87212W        W55553  44.764  41.985  12.402
87213W        W55554  12.254  26.459   2.874
87214W        W55555  21.535  16.698   4.809
87215W        W55556  16.081  29.646   3.755
87216W        W55557  33.424  32.887  13.496
87217W        W55558  35.369  17.095   0.752
87218W        W55559  17.773  33.923   4.602
87219W        W55560  14.769   1.759   4.778
87220W        W55561  34.399  10.320   0.917
87221W        W55562   1.828  25.700  11.598
87222W        W55563  34.472  39.926   3.279
87223W        W55564  15.584  32.423  11.522
87224W        W55565  44.478  13.601  13.467
87225W        W55566   7.728  17.780   0.857
87226W        W55567   5.786   0.946   4.700
87227W        W55568  20.155  17.200   1.283
87228W        W55569  38.961  16.225  11.997
87229W        W55570   0.831  19.132   2.723
87230W        W55571  26.058   7.190   1.292
87231W        W55572  15.682  19.724   1.345
87232W        W55573   3.452  29.013  12.485
87233W        W55574  19.068  43.954  14.407
87234W        W55575  32.539  19.272   1.764
87235W        W55576   2.374   7.283   1.765
87236W        W55577  19.716  11.315   4.143
87237W        W55578  31.132  14.736  11.383
87238W        W55579  41.433   8.694  11.578
87239W        W55580  17.743  25.052  11.901
87240W        W55581  31.505  29.995   4.149
87241W        W55582   7.771  37.910  12.443
87242W        W55583  25.513  35.975   3.235
87243W        W55584  34.483  10.840  11.534
87244W        W55585  17.695  17.092  12.580
87245W        W55586  21.181  33.975  12.418
87246W        W55587  11.227  29.945   2.256
87247W        W55588   3.932  42.002  14.356
87248W        W55589   9.682  13.163   4.239
87249W        W55590   1.839  17.711   0.259
87250W        W55591  33.059  40.547   5.316
87251W        W55592  11.281   5.325   1.391
87252W        W55593   6.775  41.929   3.207
87253W        W55594  37.552  24.007  14.290
87254W        W55595  33.999  41.926   5.188
87255W        W55596  38.542  12.144   1.376
87256W        W55597  26.482  30.014  13.002
87257W        W55598   1.377  39.966   3.854
87258W        W55599  18.676  36.048   2.412
87259W        W55600  39.880   0.971  12.863
87260W        W55601  30.050   0.937   0.770
87261W        W55602   2.428  19.603   9.509
87262W        W55603  15.794  22.613  14.447
87263W        W55604  31.633  26.005   0.908
87264W        W55605  17.083  15.159  13.340
87265W        W55606  41.947  20.200   4.150
87266W        W55607  18.677  34.910   2.379
87267W        W55608   6.811  29.929   1.764
87268W        W55609  24.147  36.908   3.381
87269W        W55610   3.772  26.510  13.358
87270W        W55611  38.988  20.270   0.285
87271W        W55612   8.234  37.063  11.865
87272W        W55613   3.745  32.434   4.672
87273W        W55614   2.965  24.650   4.217
87274W        W55615  37.448  21.139   2.829
87275W        W55616  27.524  24.128   1.212
87276W        W55617  19.162  44.369  13.852
87277W        W55618  24.072  18.545  11.560
87278W        W55619  32.442  22.203   0.926
87279W        W55620  37.019   4.363   2.273
87280W        W55621  20.764  11.370   0.772
87281W        W55622  17.568  27.493   4.792
87282W        W55623  44.821  31.928   4.225
87283W        W55624   1.342  32.405   3.667
87284W        W55625  13.743  19.543  12.458
87285W        W55626  21.157  23.549   9.968
87286W        W55627  12.796   0.901  13.862
87287W        W55628   9.224  19.597  11.121
87288W        W55629  14.141  18.055  10.068
87289W        W55630  25.530  18.087  13.839
87290W        W55631  36.026  11.229  13.382
87291W        W55632   2.346  34.611  14.425
87292W        W55633  13.632  33.073   1.425
87293W        W55634  17.288   8.182  10.408
87294W        W55635   7.878  30.002   3.708
87295W        W55636   0.376  10.343  11.595
87296W        W55637  43.858  33.051  13.965
87297W        W55638  28.077  15.185  12.443
87298W        W55639  10.871   5.287  14.313
87299W        W55640  14.822   0.417  12.564
87300W        W55641  36.479  39.944   3.265
87301W        W55642  44.393   5.890   3.155
87302W        W55643  17.266  33.514   0.445
87303W        W55644   7.283  34.932   3.282
87304W        W55645  30.961  38.415  12.907
87305W        W55646  15.704   1.859   0.905
87306W        W55647  31.004  33.518  13.445
87307W        W55648  25.174   3.787   0.454
87308W        W55649  40.487  34.379  11.954
87309W        W55650   0.771   8.838   2.377
87310W        W55651  18.727  17.566  14.976
87311W        W55652  42.507   8.867   4.720
87312W        W55653   7.185  21.039   3.152
87313W        W55654  23.171  20.543  11.604
87314W        W55655  43.857  31.578   3.815
87315W        W55656  14.235  16.731  10.945
87316W        W55657  28.970   1.780   4.703
87317W        W55658  17.281   4.326  12.563
87318W        W55659  19.705  16.792  13.041
87319W        W55660  41.351  38.370  13.308
87320W        W55661  27.645  22.640   1.859
87321W        W55662   6.761  26.688   3.335
87322W        W55663  30.414  32.989   1.449
87323W        W55664  14.204  25.642   2.334
87324W        W55665  27.128  38.495  12.025
87325W        W55666  21.237  19.710   0.728
87326W        W55667  26.007  21.210   2.416
87327W        W55668   3.736  12.137   3.331
87328W        W55669  40.000  32.517   3.186
87329W        W55670  37.039  28.983   1.362
87330W        W55671   9.393  14.782  10.985
87331W        W55672   7.744  21.571  10.625
87332W        W55673  30.437  26.027  10.436
87333W        W55674  10.848  28.072   3.797
87334W        W55675  24.596  21.616  14.997
87335W        W55676  38.417  31.624  13.963
87336W        W55677  12.243  36.879  14.919
87337W        W55678   1.916  20.247   0.400
87338W        W55679  15.115  15.099  14.373
87339W        W55680  38.519  34.886  11.477
87340W        W55681  26.544  21.695  12.441
87341W        W55682  40.463   6.234  11.127
87342W        W55683  35.906  25.189   4.330
87343W        W55684  36.027  22.079  14.792
87344W        W55685   8.674  22.160   3.366
87345W        W55686  19.711  13.248   3.316
87346W        W55687  30.532  39.386   2.385
87347W        W55688  36.856   5.420   1.396
87348W        W55689  26.590  43.820   1.368
87349W        W55690  20.084  16.227   3.207
87350W        W55691   6.422  35.938   5.164
87351W        W55692  36.352  19.688  14.811
87352W        W55693  24.177   0.269   1.443
87353W        W55694  44.453   7.849   2.368
87354W        W55695   7.321  14.683   4.342
87355W        W55696  31.003  10.296   0.798
87356W        W55697  33.929  40.311   2.744
87357W        W55698  22.707  17.214   0.462
87358W        W55699  17.088  29.471   3.682
87359W        W55700  31.582  15.208  10.521
87360W        W55701  18.229   1.285   3.277
87361W        W55702  26.083  15.678   4.317
87362W        W55703   2.462  44.315  14.469
87363W        W55704  42.797   3.747   4.810
87364W        W55705  16.310  29.581  14.837
87365W        W55706   7.402  33.586  10.466
87366W        W55707  15.222  37.962  12.987
87367W        W55708  19.666  18.188   3.709
87368W        W55709  26.699  36.088   1.876
87369W        W55710   6.272  35.018  11.469
87370W        W55711  43.942  11.655  14.897
87371W        W55712  29.990  20.682  13.841
87372W        W55713  31.896  18.775   2.874
87373W        W55714  39.051  43.421  11.032
87374W        W55715  40.908  24.566  12.058
87375W        W55716  42.880  33.407  10.612
87376W        W55717  41.039  36.007   2.840
87377W        W55718  20.767  15.204  13.491
87378W        W55719  15.225  15.087   3.831
87379W        W55720  33.576  32.024  11.013
87380W        W55721  12.766   2.805  10.448
87381W        W55722  24.111  41.368   0.466
87382W        W55723  10.839  26.056   3.363
87383W        W55724  39.486  18.676   3.741
87384W        W55725   1.416  44.803   1.828
87385W        W55726  37.057  12.667  14.339
87386W        W55727  15.253  14.791  14.321
87387W        W55728   1.460   6.900   2.761
87388W        W55729  13.148  43.996   0.459
87389W        W55730  17.651  26.616  10.645
87390W        W55731  30.917  21.606  14.853
87391W        W55732  21.554  19.257   0.824
87392W        W55733   8.665  14.814  10.960
87393W        W55734  36.973  44.839   4.214
87394W        W55735  34.478  20.133  11.448
87395W        W55736   3.214  36.921  12.577
87396W        W55737  30.909  27.647   1.218
87397W        W55738  42.310  35.886   2.774
87398W        W55739  12.265   0.775   0.920
87399W        W55740  42.502  33.586  10.971
87400W        W55741  32.048  24.125   0.819
87401W        W55742  14.297  33.590  10.024
87402W        W55743   9.218  25.562   0.728
87403W        W55744  34.891  21.209   4.652
87404W        W55745   8.225  10.346   9.946
87405W        W55746  20.539   8.346   3.163
87406W        W55747  12.310  38.560  13.358
87407W        W55748   4.806  43.423  14.837
87408W        W55749  38.907  33.576  11.469
87409W        W55750  14.643  38.339   5.303
87410W        W55751   9.196  17.211  10.528
87411W        W55752  10.681  35.938   2.767
87412W        W55753  10.790  32.112  10.939
87413W        W55754  29.583  12.353  12.943
87414W        W55755  22.505  38.438  10.932
87415W        W55756  38.517  20.084   3.365
87416W        W55757  43.854  35.422  13.467
87417W        W55758  17.285  32.412   2.821
87418W        W55759   1.782  25.493   1.258
87419W        W55760  43.516  20.202   5.201
87420W        W55761  33.947   2.268  14.367
87421W        W55762  28.071   5.818   3.274
87422W        W55763  14.208  22.168  10.513
87423W        W55764  14.799  23.723   2.353
87424W        W55765  38.032  33.447  14.855
87425W        W55766  25.077  11.684  12.535
87426W        W55767  12.831  27.675   0.385
87427W        W55768  26.588   4.225   0.935
87428W        W55769  37.936  42.942  14.847
87429W        W55770  40.015  18.611  13.914
87430W        W55771  21.036  25.594  11.913
87431W        W55772  28.165  26.590  13.474
87432W        W55773  37.879  31.904   2.337
87433W        W55774  22.702  13.822   1.245
87434W        W55775  26.199  36.930  14.418
87435W        W55776   0.311  37.345   0.809
87436W        W55777  15.665  16.679  14.486
87437W        W55778  37.556  22.117  14.928
87438W        W55779   3.804  39.430   4.722
87439W        W55780   1.823   8.198  10.541
87440W        W55781  17.160  18.597   4.337
87441W        W55782  25.043  31.640  13.463
87442W        W55783  27.547  30.640   3.313
87443W        W55784  24.168  29.651  10.583
87444W        W55785  43.438  22.628   3.795
87445W        W55786  43.491  15.127  14.399
87446W        W55787  39.967   5.882   1.929
87447W        W55788  13.340  37.859  10.118
87448W        W55789  42.506   6.757   1.255
87449W        W55790   4.843  10.722  10.926
87450W        W55791   4.210  23.054   3.723
87451W        W55792   7.677  20.032  14.973
87452W        W55793   8.315  30.932  14.876
87453W        W55794  41.472  32.574  14.916
87454W        W55795   9.844  43.848   4.290
87455W        W55796   1.787  41.907  14.461
87456W        W55797  33.888  20.063   0.455
87457W        W55798  16.271  21.222  13.965
87458W        W55799  23.507  34.559   2.308
87459W        W55800   9.799   3.950   0.284
87460W        W55801   4.860  22.656  14.468
87461W        W55802  34.110   4.925   0.835
87462W        W55803  38.401  38.423  14.366
87463W        W55804  19.061  26.615  10.587
87464W        W55805   6.756   4.727  13.898
87465W        W55806  29.657  38.893   2.792
87466W        W55807  39.481  24.168  10.424
87467W        W55808  41.874  40.934  13.959
87468W        W55809  42.862  17.764  11.088
87469W        W55810  35.070  33.477  12.533
87470W        W55811   2.303  39.954  10.510
87471W        W55812  17.613  26.543  11.588
87472W        W55813   4.869  22.076  14.304
87473W        W55814  11.846  20.583  13.822
87474W        W55815   1.326  19.665   0.271
87475W        W55816  19.561  34.991  11.412
87476W        W55817  21.742  28.639   1.319
87477W        W55818  38.892  16.738  11.910
87478W        W55819  24.155  33.928  11.050
87479W        W55820  14.305  32.039  12.450
87480W        W55821  35.403  21.030  10.942
87481W        W55822  40.306  37.927  12.509
87482W        W55823   2.764   9.827   2.866
87483W        W55824  29.440  18.702   0.387
87484W        W55825  18.561  19.576  13.869
87485W        W55826  19.687  37.393   0.370
87486W        W55827  39.396  26.592  11.988
87487W        W55828  16.227  34.872   9.577
87488W        W55829  13.786  16.115  12.545
87489W        W55830  18.082   8.269   0.358
87490W        W55831  42.817  20.706   2.236
87491W        W55832  24.583  10.197   2.285
87492W        W55833   3.290  20.767   4.664
87493W        W55834  32.072  27.508  11.074
87494W        W55835  39.403  13.838  11.570
87495W        W55836  12.691   0.375  12.462
87496W        W55837  24.182  32.035  14.809
87497W        W55838   1.879   5.851  12.357
87498W        W55839   2.937   0.847  10.566
87499W        W55840  16.297  40.968  11.402
87500W        W55841  20.581  10.798   0.779
87501W        W55842  26.568   3.252  14.431
87502W        W55843   2.269  31.116  10.531
87503W        W55844  43.845  35.550   4.247
87504W        W55845  35.496  19.130   3.315
87505W        W55846  30.927   9.683   1.441
87506W        W55847   0.745   8.338   0.481
87507W        W55848   2.921  17.152   1.348
87508W        W55849   9.330  39.518  14.948
87509W        W55850   7.213   1.410   0.246
87510W        W55851  13.644  39.046   3.173
87511W        W55852  29.947  17.225   3.184
87512W        W55853  14.312  28.575   2.306
87513W        W55854  37.913  30.979  12.437
87514W        W55855  33.577  14.709   2.854
87515W        W55856  16.752  22.100  12.474
87516W        W55857  25.187  27.123  12.918
87517W        W55858  21.092   2.863   0.483
87518W        W55859  10.834  38.555   2.288
87519W        W55860  30.915   1.385  11.460
87520W        W55861  41.416  39.324   4.732
87521W        W55862   5.755   5.222   1.302
87522W        W55863  10.656  36.970   2.221
87523W        W55864  10.826  13.301  10.422
87524W        W55865  17.070   4.277   2.358
87525W        W55866   6.750  33.964  11.503
87526W        W55867  33.491   3.446  10.931
87527W        W55868  19.163  44.282  11.091
87528W        W55869  21.618  38.986   2.366
87529W        W55870   5.931  11.305   1.759
87530W        W55871  29.029  17.618  12.895
87531W        W55872  10.869  22.228   4.645
87532W        W55873  44.301  28.178   2.303
87533W        W55874  34.063  31.417   3.826
87534W        W55875   1.333  11.324  12.386
87535W        W55876  26.074   1.809  14.493
87536W        W55877  17.135  35.882  12.990
87537W        W55878  26.630  11.672  11.399
87538W        W55879  35.948  23.672  13.313
87539W        W55880  24.095  21.023  13.423
87540W        W55881  42.385   1.443   0.914
87541W        W55882  12.321  17.614  14.374
87542W        W55883  33.072  33.124   3.367
87543W        W55884  10.746   2.795  13.529
87544W        W55885  18.639   9.233   2.753
87545W        W55886  37.403  21.082  12.993
87546W        W55887  24.715  18.578   2.372
87547W        W55888   6.737  41.389   2.701
87548W        W55889  24.675  21.172  11.036
87549W        W55890  32.018  15.174  11.974
87550W        W55891  21.252  26.056  12.973
87551W        W55892  17.105   3.404   3.278
87552W        W55893  39.842   9.723   4.672
87553W        W55894  24.660  27.986   1.777
87554W        W55895  38.915  10.151  11.572
87555W        W55896  40.037  30.589  11.502
87556W        W55897  32.030  23.155  11.067
87557W        W55898   4.252  38.034  11.078
87558W        W55899   8.395   6.690   3.291
87559W        W55900  41.977  36.070  13.308
87560W        W55901  38.900  31.454   3.304
87561W        W55902  12.707  19.209   2.785
87562W        W55903  40.392  26.668  11.975
87563W        W55904  37.881  41.304  11.969
87564W        W55905  40.941  11.793   4.810
87565W        W55906  37.500  39.558   0.397
87566W        W55907  40.449  10.858  11.933
87567W        W55908  37.877   8.396   4.685
87568W        W55909  31.065  43.454  14.823
87569W        W55910  31.947  28.556  14.387
87570W        W55911  21.151  10.223   1.251
87571W        W55912  32.104  15.801   2.293
87572W        W55913  10.835   7.279   0.857
87573W        W55914  30.908  31.050  14.760
87574W        W55915   0.401  28.097  13.023
87575W        W55916  43.470   8.706  12.850
87576W        W55917   8.753   9.745  11.603
87577W        W55918   4.859  19.190   4.171
87578W        W55919  35.872  25.100   0.394
87579W        W55920  28.110  27.543  12.057
87580W        W55921  36.587  24.511  11.530
87581W        W55922   4.415  16.699  10.921
87582W        W55923   7.177  35.368   0.441
87583W        W55924  22.558  19.635   2.410
87584W        W55925  32.558   3.929   0.413
87585W        W55926  13.624  23.107  10.543
87586W        W55927  21.654  33.391   9.944
87587W        W55928  39.979  15.820   4.182
87588W        W55929  24.129  14.242  12.084
87589W        W55930  27.542  41.888   3.704
87590W        W55931  19.721  29.032  14.371
87591W        W55932  42.478   7.904  11.895
87592W        W55933  32.927  14.595   1.241
87593W        W55934  44.002  41.458   2.795
87594W        W55935   1.820   2.429   1.350
87595W        W55936  37.892  24.529  12.883
87596W        W55937  31.007  41.305   3.845
87597W        W55938   6.268  43.293   1.918
87598W        W55939  22.998  20.746   3.760
87599W        W55940   8.260   3.408   3.188
87600W        W55941  36.447  21.634   1.724
87601W        W55942  27.114   4.342  11.860
87602W        W55943  10.253  21.063  13.898
87603W        W55944  29.527  38.977  10.089
87604W        W55945  30.447  24.148   4.681
87605W        W55946  10.160  15.092   4.225
87606W        W55947   2.416  37.996  13.042
87607W        W55948  13.720   1.948   1.749
87608W        W55949   8.224   4.389  12.576
87609W        W55950   3.368  29.426   0.456
87610W        W55951  21.024  20.756   1.746
87611W        W55952   5.769  20.617  10.627
87612W        W55953  31.444  33.405   4.767
87613W        W55954  11.690  17.291   3.285
87614W        W55955  23.234  41.816   1.445
87615W        W55956   3.897   9.280  14.831
87616W        W55957  30.608  33.956   2.898
87617W        W55958  11.844  20.148  12.860
87618W        W55959  44.487  34.385  12.378
87619W        W55960   0.262  29.502   1.804
87620W        W55961   6.375  38.918   1.919
87621W        W55962  27.183   8.328  12.463
87622W        W55963   6.326  20.767  14.009
87623W        W55964  26.007  26.151   9.568
87624W        W55965  20.767  29.621  12.484
87625W        W55966   8.826  13.251  14.494
87626W        W55967  38.433  36.489   1.390
87627W        W55968   3.816  12.621   5.239
87628W        W55969   3.812  28.060  13.908
87629W        W55970  20.181   5.308   2.721
87630W        W55971  23.176  33.049  14.423
87631W        W55972   2.734  31.925  14.802
87632W        W55973  28.030  22.681   0.298
87633W        W55974  35.445  35.428  14.934
87634W        W55975  17.597  11.863   4.623
87635W        W55976  32.066  21.166  13.339
87636W        W55977  20.152  40.308  11.861
87637W        W55978  25.020  30.600  10.471
87638W        W55979   9.365  11.624  10.489
87639W        W55980  18.558  36.425  13.350
87640W        W55981  19.114  16.684   3.865
87641W        W55982  15.319  43.909  13.419
87642W        W55983  33.571   2.954   4.284
87643W        W55984  40.339  41.833  11.476
87644W        W55985   6.225  39.945  13.365
87645W        W55986  42.389  13.788  11.439
87646W        W55987  38.471   7.779   0.841
87647W        W55988  36.931  27.504  13.031
87648W        W55989  44.789   7.720   1.295
87649W        W55990   5.737  44.356  12.861
87650W        W55991  24.078   2.950  12.474
87651W        W55992  12.326  38.048   2.358
87652W        W55993  42.448   0.392  14.278
87653W        W55994  38.391  41.003  11.925
87654W        W55995   6.834  43.479   1.301
87655W        W55996   8.670   3.268  12.348
87656W        W55997  14.182  29.931   1.749
87657W        W55998  37.373  37.451   3.725
87658W        W55999  41.848  10.294  13.358
87659W        W56000  34.963  31.424   1.826
87660W        W56001  43.368  27.006  10.441
87661W        W56002  13.693  40.476  13.363
87662W        W56003  43.951  27.630  10.554
87663W        W56004  30.480  27.578   0.244
87664W        W56005  24.012  37.497  11.408
87665W        W56006   1.766  27.127  13.473
87666W        W56007   4.414  13.664   2.768
87667W        W56008  39.476  42.018   0.283
87668W        W56009  17.706  20.597  13.030
87669W        W56010  31.512  36.955  14.781
87670W        W56011  19.090  26.956  11.465
87671W        W56012  20.073  39.943  12.867
87672W        W56013   8.309   7.319  14.869
87673W        W56014   4.757   5.412   2.797
87674W        W56015  28.027  15.789  10.004
87675W        W56016  44.307  40.528   3.766
87676W        W56017  18.691   8.216  14.815
87677W        W56018  20.143  34.014   2.392
87678W        W56019   9.327  43.879   0.758
87679W        W56020  13.629  42.344  12.037
87680W        W56021   4.735  30.622  11.983
87681W        W56022  42.853  43.882  11.100
87682W        W56023  11.755   2.736   1.851
87683W        W56024  26.467   9.671   4.763
87684W        W56025   7.338  34.578  10.908
87685W        W56026  35.927  23.528   2.339
87686W        W56027  15.088  18.111   1.217
87687W        W56028  24.188  41.943   2.819
87688W        W56029   3.834  37.431  12.008
87689W        W56030  43.011  35.959   1.772
87690W        W56031  11.791  10.810   0.843
87691W        W56032  26.474   5.294  12.457
87692W        W56033   3.876  12.138  13.954
87693W        W56034  13.299  28.137   3.315
87694W        W56035  21.181  43.310   1.360
87695W        W56036  34.961  10.859   0.349
87696W        W56037  39.879  13.842  10.464
87697W        W56038  30.144  22.674   0.778
87698W        W56039  22.726  34.096  13.388
87699W        W56040  39.364  32.104   0.291
87700W        W56041  30.062  17.604   0.743
87701W        W56042  32.577  19.146  13.485
87702W        W56043  11.205  35.939   0.729
87703W        W56044  19.227  41.404  10.544
87704W        W56045  31.541   0.832   3.171
87705W        W56046   1.435  10.647   4.803
87706W        W56047  28.557   3.820   2.722
87707W        W56048  43.469  17.772   3.735
87708W        W56049  29.478   5.847  10.918
87709W        W56050  24.617  18.136   2.286
87710W        W56051  29.474  27.642  10.470
87711W        W56052  34.565   5.895  14.435
87712W        W56053  18.139  43.461   0.933
87713W        W56054  32.105   3.807  11.371
87714W        W56055  29.962  40.831   3.703
87715W        W56056  41.983   7.336  11.592
87716W        W56057  20.098  14.770   3.845
87717W        W56058  15.656  13.142  12.958
87718W        W56059   2.319  20.187  10.416
87719W        W56060  14.095  35.455   3.699
87720W        W56061  37.358  31.976   2.417
87721W        W56062   4.931  22.653   1.438
87722W        W56063  15.658   4.929  13.539
87723W        W56064  44.323  22.089  10.434
87724W        W56065  38.834  16.602  13.813
87725W        W56066  25.105  42.027  14.279
87726W        W56067  11.226   0.773   1.754
87727W        W56068  43.281  27.656  14.942
87728W        W56069  41.373  17.601  13.452
87729W        W56070  10.693  43.399   2.296
87730W        W56071  43.322  24.211   2.866
87731W        W56072   9.774  18.282  11.952
87732W        W56073  35.358  36.990  10.977
87733W        W56074  38.983  34.108   4.598
87734W        W56075  40.890   6.882   1.388
87735W        W56076   8.732  33.390   3.809
87736W        W56077  35.550  21.177   2.252
87737W        W56078  27.534  25.637  13.469
87738W        W56079  25.055  12.668   4.678
87739W        W56080  28.114  10.382  14.863
87740W        W56081   0.755  34.551   4.202
87741W        W56082  22.050  18.549   9.467
87742W        W56083   2.240  23.621   0.419
87743W        W56084   7.326   2.801   0.350
87744W        W56085   2.315  29.046  12.943
87745W        W56086  23.550  41.464   2.214
87746W        W56087   4.291  25.019  12.904
87747W        W56088  43.975  14.294  10.414
87748W        W56089   6.821  25.158  11.079
87749W        W56090  18.283  22.087  14.475
87750W        W56091   2.790  32.934  12.836
87751W        W56092  17.714  32.446  14.480
87752W        W56093  19.176  22.110  12.888
87753W        W56094  16.141   1.316   1.303
87754W        W56095  38.997  17.079   3.371
87755W        W56096  10.777  22.064  12.380
87756W        W56097  43.819  12.681  10.636
87757W        W56098   7.338  19.178   2.185
87758W        W56099  41.930  28.454   3.865
87759W        W56100  26.675  23.125   4.696
87760W        W56101  33.452  40.365  14.906
87761W        W56102  32.440  43.396   4.305
87762W        W56103  43.503  37.028  11.024
87763W        W56104  39.317  12.732  11.449
87764W        W56105  26.580  15.209   0.934
87765W        W56106  44.486  21.745   0.459
87766W        W56107  21.657   0.263  10.901
87767W        W56108  32.901   6.195   4.307
87768W        W56109  27.091  15.309  11.471
87769W        W56110  12.847  35.392   1.810
87770W        W56111  36.533  22.113  12.468
87771W        W56112  29.958  26.505  12.945
87772W        W56113  14.143  23.200  14.468
87773W        W56114   5.879  35.063  14.326
87774W        W56115  11.290   1.905  12.523
87775W        W56116   0.985  24.580  14.446
87776W        W56117  41.844  39.456   1.763
87777W        W56118  23.996  26.153  12.830
87778W        W56119   0.424  20.725  14.778
87779W        W56120  39.896  24.154  12.556
87780W        W56121   3.347  13.723   4.247
87781W        W56122  19.632   5.906   3.173
87782W        W56123   4.765  12.149   1.427
87783W        W56124   1.852  11.129   3.796
87784W        W56125  39.850  20.231  13.815
87785W        W56126  13.304  19.630   0.327
87786W        W56127  35.552  36.871  12.965
87787W        W56128   2.291  33.487   5.190
87788W        W56129   1.782  37.917  14.445
87789W        W56130  14.712   1.282  12.914
87790W        W56131  38.005  11.688   1.847
87791W        W56132  44.761  17.640  12.475
87792W        W56133   1.281  10.301  12.019
87793W        W56134  36.896  20.600   0.415
87794W        W56135   8.892  28.442  12.566
87795W        W56136  11.330   2.290  13.319
87796W        W56137  31.453  20.747  11.980
87797W        W56138   0.401   7.181  11.480
87798W        W56139  24.017  23.651  10.963
87799W        W56140   3.768  12.735  12.879
87800W        W56141  27.075  28.538   2.765
87801W        W56142  15.316  34.088  13.341
87802W        W56143  31.457  28.637   3.264
87803W        W56144  10.291  35.901   1.304
87804W        W56145  40.804  23.143   4.286
87805W        W56146  36.393  33.437   4.239
87806W        W56147  27.496   8.296  13.410
87807W        W56148  11.690  18.635  14.475
87808W        W56149   5.293  40.304  14.298
87809W        W56150  15.813   1.310  13.382
87810W        W56151   4.324  42.487   4.822
87811W        W56152  37.567  30.484  13.919
87812W        W56153   5.741   4.746   0.357
87813W        W56154  37.900  14.738   0.466
87814W        W56155  27.612  39.548   3.635
87815W        W56156  23.129  40.853  10.517
87816W        W56157  26.457  24.111   2.362
87817W        W56158  35.446   6.233   0.449
87818W        W56159  37.562   5.791  13.986
87819W        W56160  28.549  40.428  14.504
87820W        W56161  15.632   1.922   3.316
87821W        W56162  21.580  43.290  13.357
87822W        W56163   1.329  38.569  12.976
87823W        W56164  40.871  37.566   1.316
87824W        W56165  16.773  23.020  10.500
87825W        W56166  43.456  44.770   3.823
87826W        W56167  41.529  21.047  14.007
87827W        W56168  36.405  34.474  14.786
87828W        W56169  26.004   0.911  12.865
87829W        W56170  44.917  38.853   2.272
87830W        W56171  32.537  25.589   1.924
87831W        W56172   3.822  17.557  14.784
87832W        W56173   4.893   4.730   0.790
87833W        W56174   2.252   3.255  13.541
87834W        W56175  26.680   6.790   2.337
87835W        W56176  33.896  11.200  10.603
87836W        W56177  13.299  38.959  10.571
87837W        W56178   0.315  12.337   2.884
87838W        W56179   9.251  38.419   1.279
87839W        W56180  22.132  16.230   2.313
87840W        W56181  12.798  41.364   0.376
87841W        W56182  25.502  27.144   4.205
87842W        W56183  34.071   3.780   3.718
87843W        W56184  42.007  20.032   1.446
87844W        W56185  37.550  38.420  13.548
87845W        W56186  32.945   4.936  13.969
87846W        W56187  33.486   3.844   1.871
87847W        W56188  42.298   7.415   3.721
87848W        W56189   9.863  35.874  10.584
87849W        W56190  43.990   1.372  13.464
87850W        W56191  16.202   6.407   0.749
87851W        W56192  22.231  12.159  10.907
87852W        W56193  34.449   1.789  11.092
87853W        W56194   9.810  11.829  13.854
87854W        W56195  12.795  22.175   1.892
87855W        W56196  38.542  20.250  14.374
87856W        W56197   4.230   9.205   4.767
87857W        W56198  37.517  11.715   1.909
87858W        W56199  33.084  39.376   4.265
87859W        W56200  37.380   0.791  12.992
87860W        W56201  18.688  16.289   4.725
87861W        W56202  41.479   9.793  13.329
87862W        W56203  20.642  25.069   4.257
87863W        W56204   6.816  34.439  12.876
87864W        W56205  14.250  43.421  13.443
87865W        W56206   6.833  25.981   1.839
87866W        W56207  16.210  16.690  13.833
87867W        W56208  40.822   8.367  11.991
87868W        W56209   1.321  31.976   0.785
87869W        W56210  40.988  44.795  14.959
87870W        W56211  23.731  12.741   4.599
87871W        W56212  42.329   2.360   0.402
87872W        W56213  12.299  32.927  13.008
87873W        W56214  16.244  27.483   2.775
87874W        W56215  29.475   3.788   0.332
87875W        W56216   1.387  38.359  10.912
87876W        W56217  14.330  29.042  14.875
87877W        W56218   7.795  42.018  12.494
87878W        W56219  33.030  42.019  11.376
87879W        W56220  42.803  34.478  13.977
87880W        W56221  23.665  23.731  13.426
87881W        W56222  12.240  38.836   2.811
87882W        W56223  20.137  15.755   1.322
87883W        W56224   8.217  10.687  10.570
87884W        W56225  24.221  15.581  14.474
87885W        W56226  14.321   7.673  14.808
87886W        W56227  34.562   9.689   1.845
87887W        W56228  39.363  12.297  10.425
87888W        W56229   4.445   5.811  13.317
87889W        W56230  44.432  43.479  10.927
87890W        W56231   4.756  25.713  14.834
87891W        W56232  29.988  26.650   4.195
87892W        W56233  13.294  37.433   9.971
87893W        W56234  39.880  44.836   3.653
87894W        W56235  34.442  39.033   1.307
87895W        W56236  32.071  14.602   5.116
87896W        W56237  39.479  26.202   4.724
87897W        W56238  33.980   1.772  14.368
87898W        W56239  14.203  43.008   2.379
87899W        W56240   2.750  23.108   3.766
87900W        W56241  15.697   3.296  12.903
87901W        W56242  16.166  44.475  14.790
87902W        W56243  31.449  42.367   0.801
87903W        W56244   3.923  43.466   0.385
87904W        W56245  14.337  16.250   4.275
87905W        W56246  12.190  22.167   1.234
87906W        W56247  29.039  44.445   1.377
87907W        W56248  41.301  26.952   4.814
87908W        W56249  44.449  16.265  13.802
87909W        W56250  30.449  43.363  12.391
87910W        W56251  42.482  43.792   2.179
87911W        W56252  14.098  27.026  13.404
87912W        W56253  38.456   7.268   3.330
87913W        W56254  20.061  31.119  13.938
87914W        W56255  30.506  28.138   4.802
87915W        W56256  41.801   9.712  11.081
87916W        W56257   4.869  28.658   0.887
87917W        W56258  38.007  44.872  12.992
87918W        W56259  21.537  38.415   4.815
87919W        W56260  26.496  31.952  11.050
87920W        W56261  24.561  10.750   3.804
87921W        W56262  19.272   7.240  12.508
87922W        W56263   6.823  24.206   3.794
87923W        W56264   4.857   2.845   0.759
87924W        W56265   6.313  40.478   4.816
87925W        W56266  36.084   4.205   2.890
87926W        W56267  14.177  29.477   1.302
87927W        W56268  42.923   0.272  10.641
87928W        W56269   2.453  44.307  14.944
87929W        W56270  17.136  25.661  10.442
87930W        W56271  25.184   1.349   0.810
87931W        W56272  16.172  40.943   1.400
87932W        W56273   9.868  18.726   4.152
87933W        W56274   6.793  23.219   0.428
87934W        W56275  20.221  23.656  12.509
87935W        W56276  18.240  21.748   1.363
87936W        W56277  21.581  28.968  11.096
87937W        W56278  18.751  42.786   1.266
87938W        W56279  39.500  19.227  10.561
87939W        W56280  22.165  32.098  13.493
87940W        W56281   4.291   3.770  12.029
87941W        W56282  41.862  41.460   2.855
87942W        W56283  33.617   7.307  10.132
87943W        W56284  39.425   6.309   0.304
87944W        W56285  18.678  30.952   2.247
87945W        W56286  37.442   6.308  12.931
87946W        W56287  42.843  27.019  11.064
87947W        W56288   3.914  18.223  14.274
87948W        W56289  29.630   4.276  11.506
87949W        W56290  23.670   0.924   3.865
87950W        W56291  38.541  39.446   2.358
87951W        W56292   5.911   4.862   1.876
87952W        W56293  22.100  11.368  12.918
87953W        W56294  42.850  10.147  11.538
87954W        W56295  35.107  33.445  10.079
87955W        W56296  19.538  39.870  10.975
87956W        W56297  20.183  36.992  14.421
87957W        W56298  29.588   8.825  12.895
87958W        W56299  24.007  33.433  11.906
87959W        W56300  27.619  41.951   2.302
87960W        W56301  14.649  35.602  14.920
87961W        W56302   5.421  29.448  10.109
87962W        W56303  30.052  41.880   3.185
87963W        W56304   2.882  18.774  12.857
87964W        W56305  28.542  27.511   2.202
87965W        W56306  19.255  11.633   4.169
87966W        W56307  19.765  15.182  11.117
87967W        W56308  28.035   5.747  14.442
87968W        W56309  42.458  23.685  10.919
87969W        W56310  37.469   4.326  13.967
87970W        W56311  11.710  10.320   0.282
87971W        W56312  43.512   9.865   2.273
87972W        W56313   9.707  38.848  12.865
87973W        W56314   6.198  30.036  14.771
87974W        W56315  26.208  14.636   0.748
87975W        W56316  14.331  41.917   2.346
87976W        W56317  11.136  18.588  11.575
87977W        W56318  39.391  37.027   1.260
87978W        W56319  12.222  10.160   3.220
87979W        W56320  36.391  36.874   1.771
87980W        W56321  10.868   1.940   3.335
87981W        W56322  43.513   6.241  11.063
87982W        W56323  31.055  15.735  13.422
87983W        W56324  26.570   9.682  12.877
87984W        W56325  32.554   8.727   4.193
87985W        W56326  11.640  40.836  14.466
87986W        W56327  34.559  14.669   1.414
87987W        W56328  37.501   9.325  10.634
87988W        W56329  41.452  42.916  11.048
87989W        W56330  38.999  11.744  13.507
87990W        W56331  17.665  31.445  13.342
87991W        W56332  17.136  21.614  13.988
87992W        W56333   2.455   9.262  10.441
87993W        W56334  30.933   7.852  11.907
87994W        W56335  28.620  13.645  14.355
87995W        W56336   4.908  17.622   1.878
87996W        W56337  40.981  21.585   3.788
87997W        W56338  17.082  43.945   2.319
87998W        W56339  12.752   8.654   0.396
87999W        W56340   0.857  30.130  13.439
88000W        W56341  10.791   5.851   4.785
88001W        W56342  26.576  35.443  13.796
88002W        W56343  22.540  11.822   2.698
88003W        W56344  15.138  28.999   4.151
88004W        W56345   8.661  32.987  12.414
88005W        W56346  28.530   1.356   3.246
88006W        W56347   0.933  36.382  11.942
88007W        W56348  33.994  19.655  14.878
88008W        W56349  12.142  33.514  14.274
88009W        W56350  41.457   8.826  12.883
88010W        W56351  23.725   9.252  12.469
88011W        W56352  35.541  21.218  13.909
88012W        W56353  16.717  35.558  11.461
88013W        W56354  43.384  19.649   1.218
88014W        W56355  40.933  34.003  11.960
88015W        W56356   4.811  42.418   4.133
88016W        W56357   5.917  37.079   1.222
88017W        W56358  27.661  15.286   3.341
88018W        W56359  26.135  26.702  13.476
88019W        W56360  29.430  40.337   4.290
88020W        W56361  24.066  35.364  14.286
88021W        W56362   2.756  18.596   1.384
88022W        W56363  15.686  19.745   1.880
88023W        W56364  24.085  20.732  10.518
88024W        W56365  36.895  41.957  14.354
88025W        W56366   1.317  18.284   2.753
88026W        W56367   2.734  21.606  14.445
88027W        W56368  37.867  22.526  14.417
88028W        W56369  10.819  41.325   2.312
88029W        W56370  29.455  33.983   2.746
88030W        W56371  31.442   3.742  10.540
88031W        W56372  32.598   5.197  10.415
88032W        W56373  25.605  14.714   4.724
88033W        W56374  35.072   0.395  12.000
88034W        W56375  25.097   0.336  12.977
88035W        W56376  41.044  34.443  10.459
88036W        W56377   5.906  15.612  11.467
88037W        W56378   2.244  37.982   2.802
88038W        W56379  10.814  16.740   1.422
88039W        W56380  16.167  11.704   0.834
88040W        W56381  28.065  10.867  12.936
88041W        W56382   2.412  10.231   0.299
88042W        W56383   0.480  26.020  13.537
88043W        W56384  23.047  27.691  14.019
88044W        W56385  38.467  25.571   4.790
88045W        W56386  23.507  41.395   4.115
88046W        W56387   4.448  24.122  11.008
88047W        W56388  23.194  34.435   4.166
88048W        W56389  20.588  40.389  13.445
88049W        W56390  43.390  11.815   0.276
88050W        W56391  10.663  43.494  14.937
88051W        W56392  16.194  38.387   4.756
88052W        W56393  29.031   4.351   0.873
88053W        W56394  19.565   4.868  14.778
88054W        W56395  19.107  20.637   2.358
88055W        W56396   6.239  23.565  11.482
88056W        W56397   4.243  43.360  12.501
88057W        W56398  11.364  10.329   0.369
88058W        W56399   9.270   2.772   0.776
88059W        W56400  30.511  36.934  14.976
88060W        W56401  24.033   6.337   1.414
88061W        W56402  43.904  37.944   1.238
88062W        W56403  27.164  28.980  12.923
88063W        W56404  18.271  21.690   2.381
88064W        W56405  34.601   7.857   1.240
88065W        W56406   9.880   3.313   0.797
88066W        W56407  21.681  17.244  14.956
88067W        W56408   9.308   0.266  13.023
88068W        W56409   4.410  21.151  13.382
88069W        W56410   0.855   5.861  12.516
88070W        W56411  40.009   7.296  10.637
88071W        W56412   2.377  37.424  13.795
88072W        W56413  28.615   9.749  13.333
88073W        W56414  23.617  42.978   4.652
88074W        W56415  31.991  20.081   0.757
88075W        W56416  32.576  23.729   1.804
88076W        W56417  29.497  20.033  10.894
88077W        W56418  38.841  29.060   1.773
88078W        W56419   5.828  18.084  11.437
88079W        W56420  17.122  18.755   2.726
88080W        W56421  19.128  33.562   2.752
88081W        W56422  25.981  14.653  12.061
88082W        W56423  24.653  11.759  11.887
88083W        W56424  16.175  33.499   2.259
88084W        W56425  34.952   4.781   4.236
88085W        W56426   3.726  38.464  10.967
88086W        W56427  34.112  28.947   0.371
88087W        W56428  11.626   9.889  10.051
88088W        W56429   6.319  20.181  11.374
88089W        W56430  36.881  13.234   0.253
88090W        W56431   0.780  15.256   3.707
88091W        W56432  40.527  37.841  11.612
88092W        W56433  25.092  15.218  11.026
88093W        W56434  36.445  32.020   2.285
88094W        W56435  17.225  28.576  11.114
88095W        W56436  34.042   7.862  10.476
88096W        W56437  32.940  15.245   2.268
88097W        W56438  40.834  43.331   1.703
88098W        W56439  26.459   3.715   2.710
88099W        W56440   3.245  41.352   0.480
88100W        W56441  16.270  30.460   1.742
88101W        W56442   0.756  15.155  14.387
88102W        W56443   2.755  12.341  12.040
88103W        W56444   9.840  20.205  13.990
88104W        W56445  19.542   4.700   0.800
88105W        W56446  18.770   4.937  12.528
88106W        W56447  40.827  15.083   2.733
88107W        W56448  34.522   5.328  13.821
88108W        W56449  23.721  42.291   4.271
88109W        W56450   2.456  42.998  12.853
88110W        W56451  12.718  13.295  12.067
88111W        W56452  27.481  35.025  10.453
88112W        W56453  18.689  14.812  10.421
88113W        W56454  40.525  11.853  10.961
88114W        W56455  39.908  17.725  12.985
88115W        W56456   8.324   5.875   1.932
88116W        W56457  16.780  38.838   4.283
88117W        W56458  21.664  18.178  11.076
88118W        W56459   6.416  21.650  13.828
88119W        W56460  12.231   5.776  10.577
88120W        W56461  20.071   4.896  13.019
88121W        W56462  17.795   5.857   0.876
88122W        W56463   6.202  43.020   4.792
88123W        W56464  23.658  17.232   4.598
88124W        W56465   7.783  21.756   2.410
88125W        W56466  35.886   9.273  13.359
88126W        W56467   7.744  10.356   2.189
88127W        W56468   5.830  13.693   0.306
88128W        W56469  41.899  10.807  11.088
88129W        W56470   9.823  13.221   0.759
88130W        W56471  11.725   8.359  12.516
88131W        W56472  25.625  18.691  13.890
88132W        W56473  34.457  25.986  13.374
88133W        W56474  21.022   5.918   2.377
88134W        W56475  43.806  44.480   4.656
88135W        W56476  41.874  25.708  14.508
88136W        W56477  22.680  15.723   1.239
88137W        W56478  12.361  22.217  14.900
88138W        W56479  33.126   1.872   2.677
88139W        W56480  28.125  34.536  10.919
88140W        W56481  38.060  11.706   4.723
88141W        W56482  29.636  13.798  13.453
88142W        W56483  32.066  19.083   4.261
88143W        W56484  14.148  28.651  14.316
88144W        W56485   7.814   7.212  11.387
88145W        W56486   4.210  13.842   4.213
88146W        W56487   5.300  42.897   0.375
88147W        W56488   2.444   7.741   2.870
88148W        W56489   9.871   2.343   1.889
88149W        W56490  34.579  14.317   2.692
88150W        W56491  42.814  24.211  14.369
88151W        W56492   9.876  40.943  13.860
88152W        W56493   2.796  19.736  14.447
88153W        W56494  32.082  44.010  11.496
88154W        W56495  37.060   5.822   0.263
88155W        W56496  20.552  17.596  13.353
88156W        W56497  22.111   9.675  13.902
88157W        W56498  11.326  38.071   1.820
88158W        W56499   0.475  32.501   4.241
88159W        W56500  43.505   8.278  12.538
88160W        W56501  12.139  15.616  12.411
88161W        W56502  21.255  23.228  10.578
88162W        W56503  22.720  21.056   4.312
88163W        W56504   8.180  18.631   4.163
88164W        W56505  17.166  29.978   2.302
88165W        W56506  13.330  38.387   3.848
88166W        W56507  22.156   0.821  13.444
88167W        W56508  23.663  29.171   0.790
88168W        W56509  18.090  16.663  11.453
88169W        W56510  36.088  30.995  12.077
88170W        W56511  21.157   5.243  12.888
88171W        W56512  20.560  40.340  11.874
88172W        W56513  30.974  29.054   0.963
88173W        W56514   6.397  17.142  14.300
88174W        W56515  35.968  31.581   3.307
88175W        W56516   1.355  37.073   1.344
88176W        W56517   2.261  35.997  14.339
88177W        W56518  42.453   7.700   2.864
88178W        W56519   6.195  39.859   0.315
88179W        W56520  44.965  42.808   2.178
88180W        W56521  21.245  17.755  12.527
88181W        W56522  28.064  29.113   5.208
88182W        W56523  27.624   1.242   0.867
88183W        W56524  13.739  35.023   0.257
88184W        W56525  22.629  33.619   2.732
88185W        W56526  42.006  35.364   4.747
88186W        W56527  35.868  36.355  12.423
88187W        W56528  32.930  14.182   4.264
88188W        W56529  29.647  30.101  11.894
88189W        W56530  14.232   7.232   4.671
88190W        W56531  41.882  26.148  13.336
88191W        W56532  22.612  19.220  10.456
88192W        W56533   8.798  38.037  12.902
88193W        W56534  39.823  38.997  10.631
88194W        W56535  17.266  29.136   0.952
88195W        W56536  43.330  16.118  14.305
88196W        W56537  42.971   8.673  10.581
88197W        W56538  38.519  41.440   0.320
88198W        W56539   0.363  28.949  14.347
88199W        W56540  42.796   5.824  12.376
88200W        W56541  37.566   3.438   2.810
88201W        W56542  38.451  29.037   3.154
88202W        W56543  19.552  27.036  11.115
88203W        W56544  30.017  25.486   4.324
88204W        W56545   3.217   8.828   3.302
88205W        W56546   7.723  36.469  11.613
88206W        W56547  19.728  15.777  13.401
88207W        W56548  32.574  25.568  10.998
88208W        W56549   2.456  10.238   4.804
88209W        W56550  34.481  16.723   0.954
88210W        W56551  29.064  42.824  13.805
88211W        W56552  40.402  33.000   0.871
88212W        W56553  26.113  33.476  11.022
88213W        W56554  18.277  14.603  12.010
88214W        W56555   3.297   3.827  11.611
88215W        W56556  43.010  20.713  11.859
88216W        W56557  15.791  41.342   3.666
88217W        W56558   3.281  36.502   0.321
88218W        W56559  39.053  15.198  12.089
88219W        W56560  32.885  43.392  12.977
88220W        W56561   0.463  41.522  11.450
88221W        W56562  38.925  31.581   2.704
88222W        W56563  10.759  30.987  12.980
88223W        W56564  16.607   2.745   2.775
88224W        W56565  44.794  18.679  10.960
88225W        W56566  25.604  43.437  14.376
88226W        W56567  29.139  26.694  13.535
88227W        W56568  21.020  20.268  12.379
88228W        W56569  23.137  30.014  10.927
88229W        W56570  17.606  30.907   3.866
88230W        W56571  25.147  17.130   1.389
88231W        W56572   5.712  24.171  10.414
88232W        W56573   1.841  16.757   0.738
88233W        W56574  24.198  43.790   2.227
88234W        W56575  41.904  40.825  12.520
88235W        W56576  39.893   7.881  14.958
88236W        W56577  36.520   6.272   5.245
88237W        W56578  28.158   5.696   1.397
88238W        W56579  43.854  20.591  14.961
88239W        W56580  41.483  37.370  13.886
88240W        W56581  20.709  15.114  10.928
88241W        W56582   6.840  33.091   0.348
88242W        W56583  23.735  31.018   0.835
88243W        W56584  31.473  11.629  14.986
88244W        W56585  31.507   0.850  13.440
88245W        W56586  21.113  19.587  11.031
88246W        W56587  14.137  15.681   3.166
88247W        W56588   4.278  44.285  13.045
88248W        W56589  42.401   6.910   3.385
88249W        W56590  23.573  18.289   2.265
88250W        W56591  44.338  40.354   1.732
88251W        W56592   3.314   6.813   1.750
88252W        W56593   3.226  32.116  13.877
88253W        W56594  34.591  28.662  12.456
88254W        W56595   0.907  38.820   4.809
88255W        W56596   1.419   2.764   0.951
88256W        W56597  25.501  39.367  10.627
88257W        W56598   9.799   6.426  12.393
88258W        W56599  21.242  28.659   1.757
88259W        W56600  21.148   1.893  11.489
88260W        W56601  33.464  22.670   2.382
88261W        W56602   4.807  21.575   2.840
88262W        W56603  22.162   4.799  10.070
88263W        W56604  42.427  23.689   4.780
88264W        W56605  41.923  34.044   0.938
88265W        W56606  10.350  12.243   0.767
88266W        W56607   8.203   6.833   4.601
88267W        W56608  34.390  32.103   4.666
88268W        W56609  23.713  33.515  13.528
88269W        W56610  25.136  40.382  12.545
88270W        W56611  41.459  21.608  12.438
88271W        W56612  25.181  36.043  14.397
88272W        W56613  22.712   0.252  11.532
88273W        W56614  15.653  36.393  14.826
88274W        W56615  15.795  11.131   0.336
88275W        W56616  15.617  32.023   1.241
88276W        W56617  44.974  10.849   3.275
88277W        W56618  25.684  12.133  10.916
88278W        W56619  42.519  36.537   2.823
88279W        W56620  16.148  21.135   3.245
88280W        W56621   5.244  27.579  14.883
88281W        W56622  27.982   3.398   0.816
88282W        W56623   0.463  30.936   0.769
88283W        W56624  42.921  43.335  11.874
88284W        W56625  34.959  42.824   3.243
88285W        W56626  27.521  30.923  11.047
88286W        W56627  34.958  14.727   3.732
88287W        W56628  40.375  43.317  13.851
88288W        W56629  15.812   9.874  11.876
88289W        W56630   7.257  29.592  10.484
88290W        W56631  31.042  11.669  13.462
88291W        W56632   0.975  11.644   2.212
88292W        W56633   1.298  12.663   1.443
88293W        W56634  28.505   1.810   0.929
88294W        W56635  40.496  19.726   0.298
88295W        W56636   8.721   5.439   3.331
88296W        W56637  16.593  18.602   2.779
88297W        W56638   5.895  37.463  12.541
88298W        W56639   2.956   4.892  12.070
88299W        W56640  41.295  11.849   5.108
88300W        W56641  13.608  42.940   0.766
88301W        W56642  15.803  35.428   0.472
88302W        W56643  38.944  14.289  12.930
88303W        W56644  28.487  10.729  12.528
88304W        W56645  28.935  40.806  11.980
88305W        W56646  41.502  44.764  14.820
88306W        W56647   4.366   8.169  11.054
88307W        W56648  35.491  17.218   3.324
88308W        W56649   1.746  31.955  11.526
88309W        W56650  41.841  10.681  11.484
88310W        W56651  22.138   4.779  14.935
88311W        W56652   6.737  24.022  12.920
88312W        W56653  35.070  40.019  12.937
88313W        W56654  42.331   9.875  13.368
88314W        W56655  12.257  23.564   2.794
88315W        W56656   7.256  28.653  14.015
88316W        W56657  44.897   4.435  13.437
88317W        W56658  13.737  21.601  13.420
88318W        W56659  16.089  27.066   3.789
88319W        W56660   6.741  34.101   0.303
88320W        W56661  33.520  27.519   0.770
88321W        W56662  26.150  10.770  12.050
88322W        W56663   9.829   8.340   1.795
88323W        W56664   1.305  41.013  10.503
88324W        W56665  30.441  33.887   0.247
88325W        W56666  36.555   5.855   0.393
88326W        W56667  19.536  14.189   1.808
88327W        W56668  26.198  37.850   2.895
88328W        W56669  21.615  29.045  13.451
88329W        W56670  41.473  20.198  12.004
88330W        W56671  42.394  19.210   3.685
88331W        W56672  19.535   7.205   2.281
88332W        W56673  33.437  38.863   0.737
88333W        W56674  17.677  25.970  11.488
88334W        W56675  16.225   7.878   0.792
88335W        W56676  44.395   0.353   9.957
88336W        W56677  25.119  36.092  12.371
88337W        W56678   1.313   8.688  11.905
88338W        W56679   1.952   4.770  10.606
88339W        W56680  31.099  19.622  13.424
88340W        W56681  39.466   6.793  10.961
88341W        W56682  43.337  41.886   1.445
88342W        W56683  41.309  35.409   2.707
88343W        W56684   4.411   6.901  12.939
88344W        W56685  18.718  41.943  11.444
88345W        W56686  21.050  27.497  11.577
88346W        W56687  40.982  19.231   0.757
88347W        W56688  27.126  11.143  10.631
88348W        W56689  36.348  10.741   0.361
88349W        W56690  38.432   9.847  14.014
88350W        W56691  10.776  23.073  10.543
88351W        W56692  22.630  43.962  14.493
88352W        W56693  37.989  41.892   4.766
88353W        W56694   5.900  17.603  12.865
88354W        W56695  27.517  35.976  10.986
88355W        W56696  17.686  18.194  13.806
88356W        W56697  22.711  33.994  11.874
88357W        W56698  19.121  26.632   3.173
88358W        W56699  44.884  40.830  13.010
88359W        W56700  12.611  44.432  11.544
88360W        W56701  40.902  14.186   1.877
88361W        W56702  17.714  28.026   4.300
88362W        W56703   1.808   8.226   1.825
88363W        W56704  36.077  20.584   4.706
88364W        W56705  38.396  41.975  12.952
88365W        W56706  42.311   6.910   4.237
88366W        W56707  34.455  38.329  10.503
88367W        W56708  13.253  31.005  13.046
88368W        W56709  26.962  12.611  12.924
88369W        W56710  41.299  19.081   0.353
88370W        W56711  37.043  21.694   3.753
88371W        W56712  34.494  23.102  12.826
88372W        W56713   9.713  14.236  13.935
88373W        W56714  40.054   1.251  12.538
88374W        W56715   5.813  42.816  11.926
88375W        W56716  33.878  36.005   1.769
88376W        W56717  22.564  35.401  12.363
88377W        W56718   7.891  30.076   1.838
88378W        W56719   0.315   6.720  10.478
88379W        W56720  44.291  35.863   0.908
88380W        W56721  42.883  18.259   9.964
88381W        W56722  23.672   6.736  10.930
88382W        W56723  11.674  39.834   2.392
88383W        W56724  43.291   1.944  12.920
88384W        W56725  11.815  44.825   1.791
88385W        W56726  24.633  31.044  12.089
88386W        W56727  22.127  37.510  13.973
88387W        W56728  25.142  28.505  13.407
88388W        W56729  29.092  23.242  14.468
88389W        W56730  13.269   3.931   0.729
88390W        W56731  42.858  19.549   1.223
88391W        W56732  30.981   1.413  14.930
88392W        W56733  39.944  25.044  10.593
88393W        W56734  17.071   4.757  10.473
88394W        W56735  24.009  38.414   0.271
88395W        W56736   5.221   9.731  10.911
88396W        W56737   2.890  31.948   1.727
88397W        W56738  30.042  19.054   2.413
88398W        W56739  35.467  16.275   1.803
88399W        W56740  26.007  22.010  11.577
88400W        W56741  12.787  20.272   4.172
88401W        W56742  28.546  34.063  14.279
88402W        W56743   5.398  43.494   4.624
88403W        W56744  34.087  39.925   1.699
88404W        W56745  42.297  29.507  13.825
88405W        W56746   4.885  42.985  11.934
88406W        W56747  21.230   7.732   2.179
88407W        W56748  35.975   6.906  14.773
88408W        W56749  19.043   2.786  14.486
88409W        W56750   1.378   8.841  11.057
88410W        W56751   8.228  34.548   0.377
88411W        W56752   4.776   1.944   1.800
88412W        W56753  32.458  11.272  11.902
88413W        W56754  37.561  22.736  12.003
88414W        W56755  15.094   7.672  13.898
88415W        W56756  39.559   3.900  10.526
88416W        W56757  15.102  34.094   2.418
88417W        W56758  29.000  21.691  11.462
88418W        W56759  40.539  16.799  10.503
88419W        W56760   8.823  16.688  12.570
88420W        W56761   0.329  13.651  11.413
88421W        W56762  25.678  33.025   2.243
88422W        W56763  44.932   3.272   2.202
88423W        W56764  23.693  40.936  14.805
88424W        W56765  17.662  13.642  12.397
88425W        W56766  33.968  26.612  14.980
88426W        W56767  41.419  32.627   3.782
88427W        W56768  41.477  27.476  12.990
88428W        W56769  28.560  18.745   2.677
88429W        W56770   3.424  28.541   4.345
88430W        W56771  13.823  14.157   0.768
88431W        W56772  20.638  20.597  12.900
88432W        W56773  26.100  41.808   1.930
88433W        W56774  24.172  26.129   3.192
88434W        W56775  10.343  27.000  11.056
88435W        W56776  31.490   7.243  14.492
88436W        W56777   4.713  43.831   2.382
88437W        W56778  19.075  35.049  11.097
88438W        W56779  11.736  43.814  10.551
88439W        W56780  33.100  38.378   1.357
88440W        W56781  43.335  13.308   1.757
88441W        W56782  44.301   5.902  12.065
88442W        W56783  32.993  32.970   3.816
88443W        W56784   8.826  44.427  14.921
88444W        W56785   5.779   7.665   3.719
88445W        W56786  38.856  17.156  10.035
88446W        W56787   4.762   5.814   2.884
88447W        W56788  36.883   7.731  14.316
88448W        W56789   0.396  30.024  10.992
88449W        W56790  17.219  37.410   5.228
88450W        W56791  27.152  16.609   1.932
88451W        W56792  23.239  42.354  11.003
88452W        W56793   0.800   4.331  13.001
88453W        W56794  10.712  23.590  12.574
88454W        W56795  44.400  22.220   4.146
88455W        W56796  24.523  13.186  11.576
88456W        W56797   8.813  18.214   0.876
88457W        W56798  10.831   6.223  14.490
88458W        W56799  41.325  10.644   3.642
88459W        W56800  14.246   7.740  13.463
88460W        W56801   7.815  27.063   3.712
88461W        W56802   5.307  19.196   0.443
88462W        W56803   6.428  15.295   0.325
88463W        W56804  34.947   0.754   0.350
88464W        W56805  30.512  29.010   1.328
88465W        W56806   2.341  20.623  14.966
88466W        W56807  41.480  36.388  11.503
88467W        W56808  42.486  20.251  14.958
88468W        W56809  28.604   5.283  14.294
88469W        W56810  39.856  29.063   1.763
88470W        W56811   2.763  20.570   4.196
88471W        W56812  30.444  43.858   4.346
88472W        W56813   2.930  29.581  14.839
88473W        W56814  21.572   9.817   2.889
88474W        W56815  28.520  43.916  11.398
88475W        W56816  41.796  40.935   4.176
88476W        W56817  21.642  29.094   3.297
88477W        W56818  14.596   4.209  12.959
88478W        W56819  29.098  29.962   2.218
88479W        W56820  40.977  26.515   1.707
88480W        W56821   6.922  18.263  13.458
88481W        W56822   8.285   0.472   0.291
88482W        W56823  20.690  36.849   0.250
88483W        W56824  40.437   5.387   4.644
88484W        W56825   3.362  22.538  13.028
88485W        W56826   6.805  34.387   3.781
88486W        W56827  44.366  38.465   0.298
88487W        W56828  37.499  44.783  11.381
88488W        W56829  24.681   7.341  12.575
88489W        W56830  43.491   3.347   1.894
88490W        W56831  17.302  27.666   4.766
88491W        W56832   3.457  19.080   4.268
88492W        W56833   2.310   8.670   0.424
88493W        W56834  29.094  17.106   0.839
88494W        W56835  37.905   7.842   3.208
88495W        W56836  37.978   9.225   0.746
88496W        W56837  43.879   1.732  13.521
88497W        W56838  10.821  10.287  11.576
88498W        W56839  14.675  13.177   0.758
88499W        W56840   2.739   2.373  13.814
88500W        W56841  38.024  14.337  12.550
88501W        W56842  33.550  32.955  13.815
88502W        W56843  18.104   0.309   2.834
88503W        W56844   0.422   3.235   3.162
88504W        W56845  36.559  37.365   4.344
88505W        W56846  14.200   0.452   9.967
88506W        W56847  31.458  31.080   2.387
88507W        W56848  19.239  21.582   2.285
88508W        W56849  42.365  42.475  12.419
88509W        W56850  35.047  32.597   0.310
88510W        W56851  12.321  36.960   3.177
88511W        W56852  31.921  11.323  11.898
88512W        W56853  34.398  21.680   4.791
88513W        W56854  10.812  28.036   0.727
88514W        W56855  13.337  35.000   4.762
88515W        W56856  41.014   0.306  12.843
88516W        W56857  17.291  14.702   4.699
88517W        W56858  34.545  37.018   1.829
88518W        W56859  10.321  19.619   3.155
88519W        W56860  29.975  34.538  12.070
88520W        W56861  43.907  40.000   2.712
88521W        W56862  25.714  21.567   4.266
88522W        W56863  30.054  42.920  14.989
88523W        W56864  11.202  39.905  14.482
88524W        W56865   2.253  12.245  13.324
88525W        W56866  34.419  41.873   5.647
88526W        W56867   3.286   7.726   4.770
88527W        W56868  18.077  13.242   2.733
88528W        W56869  32.583  10.874   4.331
88529W        W56870  41.380  29.978  11.067
88530W        W56871   3.386  24.497  11.058
88531W        W56872   1.345  31.118   3.858
88532W        W56873  12.745   5.907  13.819
88533W        W56874  11.325  44.937   0.788
88534W        W56875  13.846  18.650   2.283
88535W        W56876  44.288  26.580  11.475
88536W        W56877   6.901  24.127  11.489
88537W        W56878  38.954  25.648  10.464
88538W        W56879  17.206  15.211   3.261
88539W        W56880  30.416  16.258   2.872
88540W        W56881   5.858  20.555  12.074
88541W        W56882  38.436  35.461   4.161
88542W        W56883  15.171  12.629   2.324
88543W        W56884   3.945  22.073   1.396
88544W        W56885  17.575  34.420   4.737
88545W        W56886   3.364  28.950   3.816
88546W        W56887   1.348  15.119  10.962
88547W        W56888  24.051   3.284  14.898
88548W        W56889  41.468  39.445  13.000
88549W        W56890  11.682  12.756   0.480
88550W        W56891   6.775  19.689   3.212
88551W        W56892   9.788  41.378  10.502
88552W        W56893  35.024   0.949   3.647
88553W        W56894   7.668  40.884   1.427
88554W        W56895  21.604   5.786  14.335
88555W        W56896  12.829  28.988  13.318
88556W        W56897  11.186  15.586  12.403
88557W        W56898   4.424   9.359   0.806
88558W        W56899  27.074  38.024  14.339
88559W        W56900  27.466  17.652   2.409
88560W        W56901   4.925  16.763   0.759
88561W        W56902  24.641  39.814   1.845
88562W        W56903  44.975  11.215  13.877
88563W        W56904  43.981  37.575   3.647
88564W        W56905  29.424  18.108  11.399
88565W        W56906  17.126  22.029  12.981
88566W        W56907  36.076  31.563   0.475
88567W        W56908  38.346   3.241  14.330
88568W        W56909  15.692  26.568  12.020
88569W        W56910   1.365  34.084   3.730
88570W        W56911  31.434  19.043   4.661
88571W        W56912  43.841  29.094   0.428
88572W        W56913  14.680  20.122   0.732
88573W        W56914   1.436   3.888   4.244
88574W        W56915   5.226  43.422  14.020
88575W        W56916   4.871  43.914  12.504
88576W        W56917   3.934  12.643   3.776
88577W        W56918  41.350  20.700  11.500
88578W        W56919  11.868  29.982   1.277
88579W        W56920  20.752  31.937   0.375
88580W        W56921  19.068  23.528   4.303
88581W        W56922  43.896  15.124  12.404
88582W        W56923  28.151  20.196   0.768
88583W        W56924   5.197   1.794   3.813
88584W        W56925  19.099  44.782  14.918
88585W        W56926  26.543  34.543   0.378
88586W        W56927  27.479  13.198   2.730
88587W        W56928  14.334  27.096  11.447
88588W        W56929  12.253  31.913   5.112
88589W        W56930  26.076  32.610   4.632
88590W        W56931  40.947  27.174   1.895
88591W        W56932  39.992  32.453   1.254
88592W        W56933  27.131  39.057  12.946
88593W        W56934  30.959  14.202  13.989
88594W        W56935  12.616  16.302  12.564
88595W        W56936  17.572  32.398   4.353
88596W        W56937  18.146  22.561  11.067
88597W        W56938  18.649   6.832   2.394
88598W        W56939   4.405   9.730   0.378
88599W        W56940   7.699   1.774  13.921
88600W        W56941  36.909  44.928   4.720
88601W        W56942   8.352  19.591   4.351
88602W        W56943  39.948  37.898   3.342
88603W        W56944  21.120  11.183  13.064
88604W        W56945  11.853  40.542   1.287
88605W        W56946  34.580  43.962   1.846
88606W        W56947  19.247  17.726  11.968
88607W        W56948  44.446   1.239   4.699
88608W        W56949  12.783  10.683   4.141
88609W        W56950   8.868   5.297  13.036
88610W        W56951   6.728  28.020   4.778
88611W        W56952  37.971  41.844  11.425
88612W        W56953  10.726  40.810   2.802
88613W        W56954  43.819   4.724   0.754
88614W        W56955  32.955  24.479  13.820
88615W        W56956   2.245  28.675   2.358
88616W        W56957  21.167  21.182   5.260
88617W        W56958  31.052   6.323   2.710
88618W        W56959  39.550  44.461  12.965
88619W        W56960  25.513  44.476  10.599
88620W        W56961  17.713  17.117  11.994
88621W        W56962  19.577   0.771  10.923
88622W        W56963  17.138  35.484   1.912
88623W        W56964   9.663  25.205   1.385
88624W        W56965  23.039  41.301   0.895
88625W        W56966   6.200   9.787   2.283
88626W        W56967  25.603  17.229   2.677
88627W        W56968  44.282  27.562  14.938
88628W        W56969  22.601  38.960  10.971
88629W        W56970  21.651  38.053   3.239
88630W        W56971  34.980  19.708  12.974
88631W        W56972   1.354  38.365  11.418
88632W        W56973  27.026  10.298   4.304
88633W        W56974   8.226   5.292  14.933
88634W        W56975  38.326   4.250  13.404
88635W        W56976   7.872  31.966  14.989
88636W        W56977  21.178  32.612   4.754
88637W        W56978   9.736  15.752   9.940
88638W        W56979   3.274  27.449   1.266
88639W        W56980  36.355  27.534   2.341
88640W        W56981  11.368  18.776  10.452
88641W        W56982  24.230  11.673   3.687
88642W        W56983  34.909  17.287  13.383
88643W        W56984  29.092   5.721  12.052
88644W        W56985  39.557  30.922   0.865
88645W        W56986  40.328  38.919   0.826
88646W        W56987  32.115  22.577  11.378
88647W        W56988  24.562  27.065  10.509
88648W        W56989  17.730  29.954  12.378
88649W        W56990  15.162  38.553   1.821
88650W        W56991  36.406  44.885  14.881
88651W        W56992   0.984  34.509  14.327
88652W        W56993  42.375  33.922   0.327
88653W        W56994   5.842  40.948   3.351
88654W        W56995   5.360  24.575   2.326
88655W        W56996  23.517  28.607  14.516
88656W        W56997  12.287  14.664  10.548
88657W        W56998  33.392  23.645   2.827
88658W        W56999  37.496  25.008  13.036
88659W        W57000  33.112   3.953   4.194
88660W        W57001  13.786  10.793   1.809
88661W        W57002  14.228   5.716   1.814
88662W        W57003  15.747   3.349   1.709
88663W        W57004  39.488   4.881  12.989
88664W        W57005  41.404  31.108   2.817
88665W        W57006  25.048  23.052  13.500
88666W        W57007   3.821  43.371  12.823
88667W        W57008  20.669  23.664   0.920
88668W        W57009  42.314  13.787   3.638
88669W        W57010  25.002  15.695   5.123
88670W        W57011  10.839   9.855  13.433
88671W        W57012  36.517  21.143  14.896
88672W        W57013   1.454   6.746   3.194
88673W        W57014  13.352  36.046   3.670
88674W        W57015  43.783  18.111  12.095
88675W        W57016  37.438  11.266   1.445
88676W        W57017  18.269  18.180   2.193
88677W        W57018  36.376  30.462   1.232
88678W        W57019  21.579   8.665  10.406
88679W        W57020  16.153  34.923  13.425
88680W        W57021   7.300  31.986   2.281
88681W        W57022  21.179  35.048  14.504
88682W        W57023  18.268  30.942  12.006
88683W        W57024  27.061   3.257  10.570
88684W        W57025  40.406  32.468  13.410
88685W        W57026  42.944  15.133  12.400
88686W        W57027  16.805  37.573   1.817
88687W        W57028  33.606  10.632  11.427
88688W        W57029   5.872  31.961   1.702
88689W        W57030  37.369   7.365  10.524
88690W        W57031  30.936   0.792  12.518
88691W        W57032  37.509  38.919   2.370
88692W        W57033  43.880  25.663  11.107
88693W        W57034   0.381  22.079   4.303
88694W        W57035  17.700  32.498  12.075
88695W        W57036  12.686   1.388  13.320
88696W        W57037  33.115  17.277   0.853
88697W        W57038  28.631  16.693  10.404
88698W        W57039  25.203  33.881   0.836
88699W        W57040  33.987   8.334  11.936
88700W        W57041  39.443   9.824   4.799
88701W        W57042  41.361   9.693   0.288
88702W        W57043  31.963   1.819  14.291
88703W        W57044  13.172  29.647   4.617
88704W        W57045  43.915  12.748   2.858
88705W        W57046  28.016  43.853   4.802
88706W        W57047  23.668   7.317  12.008
88707W        W57048  36.499   9.152   1.798
88708W        W57049   3.819  26.066  14.841
88709W        W57050  16.747  30.451  12.400
88710W        W57051   0.862  29.152   2.745
88711W        W57052  31.589  21.584  12.009
88712W        W57053  17.632  20.729   1.737
88713W        W57054  30.442  24.146  11.473
88714W        W57055  44.401   8.282   1.925
88715W        W57056  23.042  29.522   1.865
88716W        W57057  12.331  37.474  12.874
88717W        W57058  43.357  29.470   2.319
88718W        W57059  25.112  35.491  13.462
88719W        W57060  37.372  18.244   2.204
88720W        W57061  14.638   9.394   1.900
88721W        W57062   3.749  44.446   4.129
88722W        W57063  32.521  28.104  14.976
88723W        W57064   3.862  23.564   0.410
88724W        W57065  10.363   3.811  10.599
88725W        W57066  33.406  38.979   0.363
88726W        W57067   7.338  34.536   0.961
88727W        W57068   7.257  43.791   0.442
88728W        W57069  42.803  37.544  14.287
88729W        W57070  18.781   4.747   1.257
88730W        W57071  19.109  16.803   3.379
88731W        W57072  26.072  16.654   0.895
88732W        W57073   4.741  18.595   1.761
88733W        W57074  10.744  44.969  10.409
88734W        W57075  31.900  44.802   3.786
88735W        W57076   6.254   3.297  12.416
88736W        W57077   6.701  29.135  11.045
88737W        W57078  43.826  40.496   1.775
88738W        W57079  33.531  21.571  12.017
88739W        W57080  32.922  41.847  12.377
88740W        W57081  44.786  36.575  11.448
88741W        W57082  22.227   9.887  12.009
88742W        W57083   8.295  12.270  13.519
88743W        W57084  35.069  39.974  13.537
88744W        W57085  16.177  32.504  14.407
88745W        W57086   7.874  42.901   3.651
88746W        W57087  13.750  39.025  14.931
88747W        W57088  43.298   1.818   2.669
88748W        W57089   2.311  24.510   2.402
88749W        W57090  26.116   1.772   2.245
88750W        W57091   5.778  38.050  13.452
88751W        W57092  17.186   1.735   9.998
88752W        W57093  11.752  30.955  13.353
88753W        W57094  42.286  24.097  14.770
88754W        W57095   1.825  32.428  12.013
88755W        W57096  32.468  44.974  12.370
88756W        W57097  17.165  19.120   1.294
88757W        W57098  31.450  25.078  14.851
88758W        W57099  10.372  15.128  11.572
88759W        W57100  43.951  30.988  11.890
88760W        W57101  27.012  33.094  11.515
88761W        W57102  13.612   0.794  11.980
88762W        W57103  11.851  23.239   0.479
88763W        W57104  44.957  39.439   3.664
88764W        W57105  18.266  13.325   4.798
88765W        W57106  19.249   0.288  12.546
88766W        W57107  31.444  28.448   1.276
88767W        W57108  38.854   7.244   4.606
88768W        W57109  11.716   6.222   5.284
88769W        W57110   4.204  42.892   0.809
88770W        W57111   5.284  32.529   2.352
88771W        W57112   4.762  19.722  13.414
88772W        W57113  28.151   5.365   0.425
88773W        W57114  36.475  20.754  14.392
88774W        W57115  12.767   7.375   0.830
88775W        W57116  15.732  23.681   4.229
88776W        W57117  42.831   6.269   2.360
88777W        W57118  34.554  19.665  12.907
88778W        W57119   0.751  32.028  10.438
88779W        W57120  37.933  14.101   3.668
88780W        W57121   3.427  39.520  11.470
88781W        W57122  30.536  39.916  14.811
88782W        W57123   2.439  42.944   2.326
88783W        W57124  15.723   0.876   2.286
88784W        W57125  32.965  30.055  10.945
88785W        W57126  10.846   5.403   3.332
88786W        W57127  37.897  39.828   1.290
88787W        W57128  33.073  12.771  14.434
88788W        W57129   7.831  36.534   2.823
88789W        W57130  11.327  38.556   2.687
88790W        W57131  27.117  44.959   1.740
88791W        W57132   1.336  12.762   3.724
88792W        W57133  30.111  10.689   3.294
88793W        W57134  30.422  16.113  13.984
88794W        W57135   2.919  13.256   1.389
88795W        W57136  34.888  40.030  14.908
88796W        W57137  10.710   6.770  14.814
88797W        W57138  32.580  36.381   2.265
88798W        W57139  33.624  15.219   2.224
88799W        W57140  17.265  26.652  13.032
88800W        W57141  25.099  26.167  12.540
88801W        W57142  15.123  16.788   2.778
88802W        W57143  30.627  39.433  12.897
88803W        W57144  36.585  12.680   1.324
88804W        W57145   8.703   1.370  14.956
88805W        W57146   7.285  36.381  11.399
88806W        W57147  43.355  10.328   1.234
88807W        W57148  32.398  33.480   1.934
88808W        W57149  40.410  42.501  14.369
88809W        W57150  16.219  36.042   4.709
88810W        W57151  32.426  37.959   1.252
88811W        W57152  42.475  15.788   1.283
88812W        W57153  41.483  30.527  14.898
88813W        W57154  33.468  11.673  10.587
88814W        W57155  16.097  37.034  13.881
88815W        W57156  15.711  37.524   0.473
88816W        W57157  38.897  24.025  13.064
88817W        W57158  32.584  26.504  10.105
88818W        W57159  36.937  19.564   3.672
88819W        W57160  11.825  41.816   3.723
88820W        W57161  35.973  13.175   4.345
88821W        W57162  41.836  31.953  13.051
88822W        W57163   1.738  10.164  14.967
88823W        W57164  10.310   4.777   2.755
88824W        W57165  37.478  34.472   3.660
88825W        W57166  32.948  10.709  10.642
88826W        W57167  42.801  38.963  14.022
88827W        W57168   0.491   3.361  11.040
88828W        W57169  30.481  29.570   3.146
88829W        W57170   0.756   2.249   4.700
88830W        W57171  18.698  15.744  13.009
88831W        W57172  19.698   0.801   1.261
88832W        W57173  43.819   1.833   3.149
88833W        W57174  18.561   0.445  10.415
88834W        W57175  26.114   5.778  13.874
88835W        W57176  39.354  22.505   2.320
88836W        W57177  27.463  33.918   1.734
88837W        W57178  26.566  23.067  12.844
88838W        W57179  11.290  25.709   1.254
88839W        W57180  28.532  44.824   2.875
88840W        W57181  28.134  43.914   3.732
88841W        W57182   2.372  23.071  12.984
88842W        W57183  31.461  28.612  13.355
88843W        W57184   5.705   0.268  12.093
88844W        W57185  13.723  24.632   4.607
88845W        W57186  29.003  13.227  10.989
88846W        W57187  25.620  32.530   3.198
88847W        W57188  19.564  39.998  14.412
88848W        W57189  16.751   2.275  14.474
88849W        W57190   3.799  12.348  11.998
88850W        W57191  27.676   9.716   0.867
88851W        W57192  18.657  30.627   0.289
88852W        W57193  41.479  37.409   1.716
88853W        W57194  38.418  41.804   4.286
88854W        W57195  33.124  38.466  11.956
88855W        W57196  18.171   5.432   4.829
88856W        W57197  13.313  44.977   1.856
88857W        W57198  32.088  44.871  11.906
88858W        W57199   6.770  39.950  14.943
88859W        W57200  20.767  22.196   0.767
88860W        W57201   9.678  43.840  12.574
88861W        W57202  26.492  10.660   1.884
88862W        W57203   7.745  31.064   3.804
88863W        W57204  33.979  41.882   1.307
88864W        W57205  11.247  30.453   2.324
88865W        W57206  18.592  28.444  14.366
88866W        W57207  11.697  32.525   1.290
88867W        W57208  11.272  19.125  12.020
88868W        W57209  19.236   1.248   1.436
88869W        W57210  25.553   0.970   3.283
88870W        W57211  31.937  29.502   3.216
88871W        W57212  25.109  44.471   4.220
88872W        W57213  28.587  34.547   2.212
88873W        W57214  42.014  31.550  14.935
88874W        W57215  21.135  16.097  12.883
88875W        W57216  32.634  27.552  14.797
88876W        W57217  14.131  42.321   3.323
88877W        W57218  18.285  10.305   0.773
88878W        W57219  36.023  10.666   3.711
88879W        W57220  30.511  10.151  13.798
88880W        W57221  11.802  30.488   2.314
88881W        W57222  38.947  16.279  11.548
88882W        W57223  15.766  28.945  13.042
88883W        W57224  37.830  33.452   3.277
88884W        W57225   8.807  34.106  13.969
88885W        W57226  18.556  26.979  10.560
88886W        W57227  34.506  23.160  12.394
88887W        W57228  36.489  29.949   2.285
88888W        W57229   3.737  17.202  13.499
88889W        W57230  12.246  29.097   3.335
88890W        W57231  18.246   3.897   2.217
88891W        W57232  20.642  41.365   0.799
88892W        W57233  13.682  41.299   9.617
88893W        W57234  12.198  32.972  13.372
88894W        W57235   4.263  24.091   2.287
88895W        W57236  24.504   4.799  10.958
88896W        W57237  16.270  43.480   0.938
88897W        W57238   3.940  35.424  14.816
88898W        W57239  38.846   2.871  13.038
88899W        W57240  29.509  40.364   4.690
88900W        W57241   6.427  19.636   4.181
88901W        W57242  36.471  27.164   0.964
88902W        W57243  43.817   9.210  12.939
88903W        W57244   8.177  31.477  14.365
88904W        W57245  39.877  16.776  11.071
88905W        W57246  35.532  17.729   4.712
88906W        W57247   5.362  17.645  14.318
88907W        W57248  20.121  23.057   2.854
88908W        W57249   9.390  23.561   2.901
88909W        W57250  44.833  29.095   1.261
88910W        W57251   8.192  23.599   1.344
88911W        W57252  29.937   4.705   2.804
88912W        W57253  25.600   6.820   1.880
88913W        W57254   1.771  44.381  10.474
88914W        W57255  22.704   5.773   1.219
88915W        W57256  19.099  39.065   0.349
88916W        W57257   8.841  11.867  12.560
88917W        W57258  19.564  23.601   0.842
88918W        W57259   5.298  15.260  14.388
88919W        W57260  11.630  37.574   2.739
88920W        W57261  41.906  32.445   0.961
88921W        W57262  41.888   4.810  11.878
88922W        W57263  30.468  26.472  10.426
88923W        W57264  39.063  22.626   2.805
88924W        W57265  27.591   3.414  12.850
88925W        W57266  39.053  30.518   2.287
88926W        W57267  29.072   3.222   2.197
88927W        W57268  25.625  44.978   2.824
88928W        W57269  17.682  38.391  11.435
88929W        W57270   0.483   6.847   3.230
88930W        W57271  18.714  26.619  10.566
88931W        W57272  20.125  14.602  10.927
88932W        W57273  34.093   7.899   4.719
88933W        W57274   3.341  40.497  12.506
88934W        W57275  32.525   8.699   1.816
88935W        W57276  11.179  22.575   2.793
88936W        W57277   2.880  15.602  12.495
88937W        W57278  20.672  39.374   4.231
88938W        W57279  24.066  14.708  11.079
88939W        W57280   3.835   8.778   0.734
88940W        W57281  24.007  13.293   0.384
88941W        W57282  26.044  13.128   3.304
88942W        W57283  13.168  33.921  12.872
88943W        W57284  34.923  40.982   3.240
88944W        W57285  40.398  36.496  12.000
88945W        W57286  19.635  40.812  11.423
88946W        W57287  10.634  27.109  11.483
88947W        W57288  23.164  42.842  14.809
88948W        W57289  34.052   6.387   0.369
88949W        W57290  24.692  35.927  11.418
88950W        W57291  44.862  24.109   2.824
88951W        W57292  11.736   3.952  12.546
88952W        W57293  10.800  30.922   4.807
88953W        W57294  31.453  11.644   2.220
88954W        W57295  24.490   2.382   1.356
88955W        W57296  36.912  33.993   4.272
88956W        W57297  21.748  24.575   3.715
88957W        W57298  39.007  26.076   1.328
88958W        W57299  28.578  37.906  13.850
88959W        W57300   7.763  38.972   2.778
88960W        W57301  35.973  20.591   1.253
88961W        W57302  32.452   1.476  13.478
88962W        W57303  41.007  11.130   2.891
88963W        W57304  22.630  29.978   1.777
88964W        W57305  33.004   0.898   3.280
88965W        W57306  21.723   1.777  11.371
88966W        W57307  38.999  33.014   0.854
88967W        W57308  16.315   3.721  13.919
88968W        W57309  24.012  18.212   2.714
88969W        W57310  13.204  22.107   0.438
88970W        W57311   6.257  14.753   0.408
88971W        W57312  42.789  26.577   5.321
88972W        W57313  20.532  13.751  10.557
88973W        W57314   2.391   9.188   1.837
88974W        W57315  44.444  20.266  10.498
88975W        W57316  40.830   7.791   4.663
88976W        W57317  40.358   2.758  11.893
88977W        W57318  22.552  16.591  13.016
88978W        W57319  38.515   9.769   2.686
88979W        W57320   0.926   4.729  14.344
88980W        W57321  32.475   9.283   2.727
88981W        W57322   8.346  13.673   1.341
88982W        W57323  15.746  10.724   1.884
88983W        W57324  31.542   0.457   0.747
88984W        W57325  28.524   3.319  13.832
88985W        W57326  41.832  21.191  11.109
88986W        W57327  40.878   6.257  14.487
88987W        W57328  21.675  32.073  13.027
88988W        W57329  24.706  19.170   9.494
88989W        W57330  23.188  20.209   4.618
88990W        W57331  23.162   4.885  10.891
88991W        W57332  14.178  12.243  14.381
88992W        W57333  11.807  11.818  11.401
88993W        W57334   0.791  40.377  13.918
88994W        W57335  29.498  37.000   2.223
88995W        W57336   5.271   8.227  13.863
88996W        W57337  33.106  12.800  13.434
88997W        W57338  10.669  26.488  14.890
88998W        W57339  16.593  41.849   3.630
88999W        W57340  11.786   8.208   2.266
89000W        W57341  41.388  10.846  10.494
89001W        W57342  16.311  35.985  14.438
89002W        W57343  36.541  16.645   0.361
89003W        W57344  11.165  24.664   0.805
89004W        W57345  23.532   7.853   2.213
89005W        W57346  12.129  11.777   3.663
89006W        W57347  34.910  35.068   0.906
89007W        W57348  38.565  32.445  13.993
89008W        W57349  10.716   4.349   0.477
89009W        W57350   6.424  23.181   2.670
89010W        W57351  21.511  29.621  10.974
89011W        W57352  26.654  44.298   1.268
89012W        W57353  42.402  31.419  12.982
89013W        W57354  20.269  11.353  12.445
89014W        W57355  26.071  38.511   0.357
89015W        W57356  21.665  21.628  13.384
89016W        W57357  11.725  26.020  11.977
89017W        W57358  12.645   2.350   1.298
89018W        W57359   5.803   5.793  13.978
89019W        W57360  26.033  19.542   1.316
89020W        W57361  12.206  18.744   0.298
89021W        W57362  43.430  26.613   1.780
89022W        W57363  28.608   5.312   1.786
89023W        W57364  23.045  39.480  10.503
89024W        W57365  38.515  26.593   1.919
89025W        W57366   9.823   5.248   2.817
89026W        W57367  17.243  32.945   3.744
89027W        W57368   2.932  20.203   1.772
89028W        W57369  19.087  27.612  11.596
89029W        W57370   9.205  40.806  13.385
89030W        W57371  22.616  21.597  12.523
89031W        W57372  11.756  15.098  13.347
89032W        W57373  23.559   8.387  14.881
89033W        W57374   1.477   4.395   0.318
89034W        W57375   1.329  38.415   3.749
89035W        W57376  20.741  31.949   2.339
89036W        W57377  10.259  13.829   2.716
89037W        W57378  39.995  24.584   1.695
89038W        W57379  36.065  11.163  10.564
89039W        W57380   2.843   1.471   2.275
89040W        W57381  17.674   5.928  14.299
89041W        W57382  33.442  40.388   0.844
89042W        W57383   8.894  22.198  11.608
89043W        W57384   9.245   2.352  11.896
89044W        W57385  26.120  12.726   1.308
89045W        W57386  19.179   3.772  11.569
89046W        W57387  11.643  37.908   3.819
89047W        W57388  11.793  32.406  14.011
89048W        W57389  31.958  20.608  14.348
89049W        W57390   5.796  42.506   3.323
89050W        W57391  27.052   8.833   4.625
89051W        W57392  44.894  20.612  13.837
89052W        W57393  18.193  29.037   1.833
89053W        W57394   2.821  29.443   2.419
89054W        W57395  11.688   0.867  14.031
89055W        W57396  21.222  23.684  12.084
89056W        W57397   0.893  28.970   3.635
89057W        W57398  44.367  21.753   5.759
89058W        W57399  19.205  44.356   1.311
89059W        W57400  38.911  14.825   4.227
89060W        W57401  29.641  17.155   3.233
89061W        W57402  21.514  23.645  10.518
89062W        W57403  42.324  44.925   3.303
89063W        W57404  29.452  44.468  10.482
89064W        W57405  23.193  18.571  12.930
89065W        W57406  43.022  31.453  12.342
89066W        W57407   1.731  38.946   2.895
89067W        W57408   2.825   1.460  11.463
89068W        W57409  39.319  35.866   1.805
89069W        W57410  31.515   1.285  12.048
89070W        W57411  34.599  12.337   0.281
89071W        W57412  41.400   2.470   1.840
89072W        W57413   2.804  34.550   1.434
89073W        W57414   7.190  43.344  12.525
89074W        W57415   7.415  40.319  12.444
89075W        W57416   8.869  19.570   3.340
89076W        W57417  29.163  15.256   2.400
89077W        W57418  39.030  27.664  13.062
89078W        W57419   1.930   1.267   2.191
89079W        W57420   5.273   5.389  12.901
89080W        W57421   5.434   7.366  14.796
89081W        W57422   1.870  41.470   4.730
89082W        W57423   8.232   5.748   4.637
89083W        W57424  43.444  38.390  11.528
89084W        W57425   3.891  18.697  11.109
89085W        W57426  43.367  25.639   2.359
89086W        W57427  32.011  38.957   0.270
89087W        W57428  37.848  15.290  12.388
89088W        W57429  35.573  40.892  12.976
89089W        W57430  11.354  13.158   1.731
89090W        W57431  13.844  27.048  11.878
89091W        W57432  39.032  27.154  11.445
89092W        W57433  21.202  36.491  12.037
89093W        W57434  28.116  31.403  11.519
89094W        W57435  40.800  29.655  12.476
89095W        W57436   8.173  41.351   3.305
89096W        W57437  31.998  13.645   1.254
89097W        W57438  36.012  16.670   4.648
89098W        W57439   4.725   7.297  14.355
89099W        W57440   8.371  43.325  14.912
89100W        W57441   1.890  28.677  13.518
89101W        W57442  13.625   1.438   0.354
89102W        W57443  12.267   5.807  11.536
89103W        W57444  30.521  42.322  14.002
89104W        W57445  17.210   9.158  13.307
89105W        W57446  14.113  38.869   3.850
89106W        W57447   1.277  12.157  13.943
89107W        W57448   8.894  24.175   4.679
89108W        W57449   9.866  42.810  13.991
89109W        W57450  13.625  27.542  14.914
89110W        W57451  27.610  17.790   2.734
89111W        W57452  18.764  21.566   1.432
89112W        W57453  34.945  40.010   4.125
89113W        W57454   7.710  20.170   4.127
89114W        W57455  10.867   8.728  13.528
89115W        W57456   0.872  22.687  12.377
89116W        W57457  37.529  11.675   0.867
89117W        W57458  16.587  11.862   4.264
89118W        W57459  42.506   7.859  12.502
89119W        W57460   0.901  28.521   3.867
89120W        W57461  29.103  43.016   0.945
89121W        W57462  34.116  32.972  13.497
89122W        W57463  24.134  42.869  14.288
89123W        W57464  27.090  18.552  11.921
89124W        W57465  38.381   5.756  14.782
89125W        W57466  32.623  36.950  14.772
89126W        W57467  20.247  27.058   4.301
89127W        W57468  33.383  17.765   4.631
89128W        W57469  24.173  42.782  11.526
89129W        W57470  24.140  15.702  14.810
89130W        W57471  11.127  37.350  14.977
89131W        W57472  43.483  35.363   0.753
89132W        W57473  31.456  41.848  11.441
89133W        W57474  29.918  18.165  10.927
89134W        W57475  17.699  27.554  12.858
89135W        W57476  35.597  44.961  11.017
89136W        W57477  44.773  24.168  12.921
89137W        W57478  43.398  10.367   0.277
89138W        W57479  25.633  37.569  14.777
89139W        W57480   0.285  32.905  11.053
89140W        W57481  35.493  30.467  13.951
89141W        W57482  27.019   7.351  12.547
89142W        W57483  21.181  34.448  10.155
89143W        W57484   3.801  30.514  14.407
89144W        W57485   3.238  22.162  14.333
89145W        W57486  35.983  36.962  11.556
89146W        W57487  27.552  38.387   1.434
89147W        W57488  15.594  43.911   3.343
89148W        W57489   5.879  11.134  13.898
89149W        W57490  31.577  32.526  12.882
89150W        W57491  13.756  28.954  11.459
89151W        W57492  38.850  27.684   9.956
89152W        W57493  32.952  23.722  10.550
89153W        W57494   3.339  17.230   4.304
89154W        W57495  44.759  33.480  13.020
89155W        W57496  11.325  26.985  13.062
89156W        W57497  13.678  43.956   2.374
89157W        W57498   6.842  36.928  13.799
89158W        W57499   3.710  19.620  14.775
89159W        W57500   7.675   6.808  13.501
89160W        W57501  19.642  14.119   0.916
89161W        W57502  33.543  27.469  14.299
89162W        W57503  42.915  24.502   1.333
89163W        W57504   0.810   5.331  14.509
89164W        W57505  37.031  37.514   4.341
89165W        W57506   7.785  28.998   2.780
89166W        W57507  30.452  26.192  11.610
89167W        W57508  19.717  13.177   2.409
89168W        W57509   3.325  33.067  10.900
89169W        W57510  17.256  23.722  11.572
89170W        W57511  25.148  14.759   3.671
89171W        W57512  19.079   8.371   2.216
89172W        W57513  32.006  24.559   4.260
89173W        W57514   0.492   6.211   1.873
89174W        W57515  19.097  25.183  14.327
89175W        W57516  44.352  28.460  11.374
89176W        W57517  10.797  33.423   2.221
89177W        W57518  40.974   5.915   4.756
89178W        W57519  39.996   3.946   4.694
89179W        W57520  13.335  10.374   5.164
89180W        W57521  34.903  44.364  11.531
89181W        W57522   5.398  30.103  12.344
89182W        W57523  15.670  33.546  11.398
89183W        W57524  17.304  31.982  14.304
89184W        W57525   0.841  37.449  13.903
89185W        W57526  25.653  44.986  14.788
89186W        W57527  17.115  13.291  10.453
89187W        W57528   9.317   1.244  11.421
89188W        W57529  20.132  43.882  10.597
89189W        W57530  18.675   5.342   0.305
89190W        W57531  27.165  22.579  12.096
89191W        W57532  32.457  32.452   0.885
89192W        W57533  43.387  32.435  14.275
89193W        W57534  31.073   8.785  11.588
89194W        W57535  28.656  26.126   0.865
89195W        W57536  27.039  14.207   3.205
89196W        W57537  33.407  28.638  10.967
89197W        W57538   2.267  44.403   2.815
89198W        W57539  31.996   6.921  12.549
89199W        W57540  25.101   5.320  11.452
89200W        W57541   2.326  44.356  14.026
89201W        W57542  25.472  27.143  12.010
89202W        W57543  15.737  12.255   1.863
89203W        W57544  33.975  36.991  14.340
89204W        W57545  44.868  42.383   3.834
89205W        W57546  11.310   9.774   1.899
89206W        W57547  35.542  17.125  11.123
89207W        W57548  24.140   8.776   1.392
89208W        W57549  35.107  32.460  13.532
89209W        W57550  18.624  23.505   3.814
89210W        W57551  28.104   9.232  13.933
89211W        W57552  34.466  10.205   2.404
89212W        W57553   0.281   0.940   2.343
89213W        W57554  44.767  24.068   3.280
89214W        W57555  43.008   5.331   0.468
89215W        W57556  28.182   3.781  12.521
89216W        W57557  20.063  11.203  14.460
89217W        W57558  42.403  36.402  11.118
89218W        W57559  16.701  36.566   0.461
89219W        W57560  14.340  38.994  12.546
89220W        W57561  26.488   6.386  12.910
89221W        W57562  16.118  10.320  10.439
89222W        W57563  26.031   8.283   3.843
89223W        W57564  31.612  28.017   4.759
89224W        W57565   1.245  22.554  12.444
89225W        W57566  17.175  23.138   2.186
89226W        W57567   1.382  27.540   2.258
89227W        W57568   4.876  40.514  11.506
89228W        W57569  44.943  12.622   1.217
89229W        W57570  23.100   0.468  10.899
89230W        W57571   9.361   8.283   1.300
89231W        W57572   9.204  33.606   4.144
89232W        W57573   4.386  35.865   3.316
89233W        W57574  29.513  21.648  12.568
89234W        W57575  15.227  22.511  12.918
89235W        W57576  24.705  24.031   1.340
89236W        W57577   9.185  20.126  12.510
89237W        W57578  29.547  26.088  14.014
89238W        W57579  11.639  34.556  12.469
89239W        W57580  16.300  39.923  11.000
89240W        W57581   5.707  27.178   2.416
89241W        W57582   0.308  32.890  13.501
89242W        W57583  13.204  25.639  14.405
89243W        W57584   5.845  15.093   0.251
89244W        W57585  36.424   5.213   4.636
89245W        W57586  31.407   5.289  10.551
89246W        W57587  25.188  12.783  10.992
89247W        W57588  15.217  30.143   0.434
89248W        W57589  42.877  23.496  13.954
89249W        W57590  15.285  10.291  11.075
89250W        W57591  22.653  24.221  12.371
89251W        W57592  40.930  39.815   5.174
89252W        W57593   2.304  28.650   0.252
89253W        W57594  29.018  43.987   0.274
89254W        W57595  34.121  38.535  14.803
89255W        W57596  25.207  40.018  13.019
89256W        W57597  16.076  44.478  10.911
89257W        W57598  32.502  15.734   2.347
89258W        W57599  43.996   8.300  13.363
89259W        W57600  15.759  11.794   1.916
89260W        W57601  31.001   9.279   0.460
89261W        W57602  32.581   4.328   1.716
89262W        W57603  15.725   5.412  10.941
89263W        W57604  42.787   8.368   2.302
89264W        W57605  23.639  28.618  13.907
89265W        W57606  38.366  40.455   2.842
89266W        W57607  26.524  13.123  13.954
89267W        W57608  26.607  12.134   1.753
89268W        W57609  35.973  24.557  10.461
89269W        W57610  33.490  28.992   4.774
89270W        W57611  36.564  26.999   0.374
89271W        W57612  34.885  29.021  12.038
89272W        W57613   4.721  20.645  14.284
89273W        W57614  34.432  20.746   0.783
89274W        W57615  11.241  11.826  10.558
89275W        W57616  43.860  29.038   2.406
89276W        W57617  38.391  44.431  13.319
89277W        W57618  23.670  28.530  11.857
89278W        W57619  30.517  38.498   4.236
89279W        W57620   8.278  30.542  11.415
89280W        W57621  20.269  27.551   1.802
89281W        W57622  13.247  11.642   1.933
89282W        W57623  21.160  18.582   0.327
89283W        W57624  11.785  31.625  14.438
89284W        W57625  16.762  28.043   0.895
89285W        W57626  40.547  42.370   9.491
89286W        W57627   1.394   9.393   1.856
89287W        W57628  42.820  32.587   3.694
89288W        W57629   0.914   2.453   0.323
89289W        W57630   0.977   8.233   1.768
89290W        W57631  15.321  38.918   1.323
89291W        W57632  20.555  14.212   2.759
89292W        W57633  22.646  16.281   4.232
89293W        W57634   0.979  17.632   2.314
89294W        W57635  33.066  29.076   4.732
89295W        W57636  18.203   2.303  12.050
89296W        W57637  15.288  26.114   0.282
89297W        W57638  30.621  21.556  13.971
89298W        W57639  16.079  37.561   3.851
89299W        W57640  15.582  14.133  12.506
89300W        W57641  14.774  19.667  11.554
89301W        W57642  32.950  31.549   1.336
89302W        W57643   0.926  10.783  11.980
89303W        W57644  14.160  36.398  12.405
89304W        W57645  22.097  22.502   0.334
89305W        W57646  33.074  36.027   0.395
89306W        W57647  30.523  38.434   4.708
89307W        W57648  19.237  28.969  12.556
89308W        W57649  43.273  18.645   3.858
89309W        W57650  42.930  26.535  13.025
89310W        W57651  22.616  32.577  10.933
89311W        W57652   8.742  43.331  12.870
89312W        W57653  23.534  30.569   1.802
89313W        W57654   5.352  42.496   1.449
89314W        W57655  21.739  31.028   2.339
89315W        W57656   4.917  35.526  11.439
89316W        W57657  18.607  14.622   3.298
89317W        W57658  25.212  14.782   1.303
89318W        W57659  27.099  38.901  12.378
89319W        W57660  12.628  10.879  12.872
89320W        W57661  39.469   2.919   2.741
89321W        W57662   9.188  35.870  12.939
89322W        W57663  10.283  37.352   2.735
89323W        W57664   3.437  37.853  14.775
89324W        W57665  23.111  30.482   2.365
89325W        W57666   9.819  14.284   2.183
89326W        W57667  30.564  26.470  14.890
89327W        W57668  21.182  44.958  10.519
89328W        W57669  15.683  14.268  14.318
89329W        W57670  12.179  21.155   3.826
89330W        W57671  19.245  42.425   4.706
89331W        W57672  20.695  23.578   4.783
89332W        W57673  42.000  15.800   0.454
89333W        W57674  24.056  27.971  12.414
89334W        W57675  34.430   2.314  11.373
89335W        W57676   9.310  28.518  11.411
89336W        W57677  10.254  14.177  14.804
89337W        W57678  15.315  22.591   4.290
89338W        W57679  27.055  30.974   4.276
89339W        W57680  19.074   4.934  13.433
89340W        W57681  42.828  37.058   1.223
89341W        W57682  40.030   3.215  14.030
89342W        W57683  11.785  19.754  11.940
89343W        W57684  14.096   3.429  13.056
89344W        W57685  44.870  19.246  10.102
89345W        W57686  36.523  31.122  12.931
89346W        W57687   3.241  23.037  13.870
89347W        W57688  11.706  31.966  14.865
89348W        W57689   1.960  14.101  13.886
89349W        W57690  20.669   7.710  10.496
89350W        W57691  39.319  19.644   5.203
89351W        W57692  15.324  32.499   1.271
89352W        W57693  23.497  14.201   2.868
89353W        W57694   7.807  16.101   4.627
89354W        W57695  33.453  21.751  14.306
89355W        W57696  15.196  14.655   0.424
89356W        W57697  31.621  23.106  11.898
89357W        W57698  28.540  15.263   2.195
89358W        W57699  39.905  18.565   4.152
89359W        W57700   8.175  36.466   0.268
89360W        W57701  33.407  44.008  14.968
89361W        W57702  37.440  16.689   4.670
89362W        W57703  38.463   8.252   0.945
89363W        W57704  21.257  29.567  13.850
89364W        W57705  19.559   2.431   2.308
89365W        W57706   6.834  21.235  12.396
89366W        W57707   4.411  10.724  13.407
89367W        W57708  36.457  12.771  14.487
89368W        W57709   0.943  43.989   1.719
89369W        W57710   3.251  31.932   1.915
89370W        W57711  34.062  43.287   0.420
89371W        W57712   0.929  25.567   0.356
89372W        W57713  20.235  30.537  11.612
89373W        W57714  40.049  17.124   2.834
89374W        W57715  15.727  13.124   0.399
89375W        W57716  32.008  37.489   0.297
89376W        W57717  38.969  17.580   0.472
89377W        W57718  39.009  21.745  12.921
89378W        W57719  34.061  39.542   2.324
89379W        W57720  32.885  20.768  11.078
89380W        W57721  34.973  17.581  14.424
89381W        W57722   2.900  35.869  14.956
89382W        W57723   4.775  34.566  11.605
89383W        W57724  18.608  12.715   2.753
89384W        W57725  24.153  34.969   1.221
89385W        W57726   1.417   7.262   1.257
89386W        W57727   9.830  38.394   2.413
89387W        W57728   7.888  43.906  11.373
89388W        W57729  14.151  37.856   2.267
89389W        W57730  24.634   8.259  11.394
89390W        W57731   5.709  21.750  10.956
89391W        W57732  23.700   3.287  11.377
89392W        W57733  22.208  40.381   1.840
89393W        W57734  35.906  24.078  11.427
89394W        W57735  34.104   1.740  10.942
89395W        W57736  20.110  31.478  11.957
89396W        W57737  36.952  37.432  11.893
89397W        W57738   8.747  22.113  14.929
89398W        W57739  37.892   9.169  10.553
89399W        W57740  26.597  27.130  11.860
89400W        W57741  39.927  14.610   3.717
89401W        W57742  16.727  25.144   3.721
89402W        W57743  35.912   8.682  10.406
89403W        W57744   0.947   9.328   3.812
89404W        W57745  44.466  21.107  14.948
89405W        W57746  16.182  34.120  14.497
89406W        W57747  21.165  10.752   1.236
89407W        W57748  44.333  19.547  14.867
89408W        W57749  26.526   1.894   4.234
89409W        W57750   2.826  29.139   3.633
89410W        W57751  32.621   2.725  13.542
89411W        W57752  26.689  32.131  13.391
89412W        W57753  26.535  19.146   2.411
89413W        W57754  21.101  12.154   4.608
89414W        W57755  12.273  13.264  13.803
89415W        W57756  33.096   4.397  11.459
89416W        W57757   8.234  20.187  14.876
89417W        W57758  29.086  28.101  10.634
89418W        W57759  12.189  12.235   4.174
89419W        W57760  13.608  29.069  13.837
89420W        W57761  17.104  27.103  13.022
89421W        W57762  42.857   0.907   3.847
89422W        W57763  13.283  35.387   1.358
89423W        W57764  21.059  12.688  10.460
89424W        W57765   7.408  42.993   1.869
89425W        W57766  30.066   6.376  14.318
89426W        W57767  20.597  37.464   3.340
89427W        W57768  44.825  17.572   1.737
89428W        W57769   0.357  28.646  12.472
89429W        W57770  40.960  31.603   1.422
89430W        W57771  22.745  37.446  11.953
89431W        W57772  10.378   6.261   0.427
89432W        W57773  37.876  25.576   2.768
89433W        W57774  16.297   6.676  13.497
89434W        W57775   0.940  33.999   2.736
89435W        W57776  43.358   3.739  14.872
89436W        W57777  25.061  26.975  11.858
89437W        W57778  33.103  44.973  13.048
89438W        W57779   7.854  33.127  11.976
89439W        W57780  37.958  32.000   1.359
89440W        W57781  33.123  19.646   1.859
89441W        W57782   0.317  24.523   3.149
89442W        W57783  39.487  13.845  12.977
89443W        W57784   8.829  29.473  12.536
89444W        W57785  19.258  40.342   0.952
89445W        W57786  39.904   0.957   0.327
89446W        W57787   6.335  11.703   4.149
89447W        W57788   3.801  32.541   3.273
89448W        W57789  33.601  33.440  10.951
89449W        W57790   9.381  16.726   3.246
89450W        W57791  27.626  44.889  13.896
89451W        W57792  31.460  33.533  11.881
89452W        W57793  19.268   0.467  11.488
89453W        W57794  11.649  20.556  12.941
89454W        W57795  20.712  18.734   2.395
89455W        W57796  13.148  14.287  12.860
89456W        W57797  17.758  26.543   3.795
89457W        W57798  40.508  32.993   0.311
89458W        W57799  18.117  29.034  12.401
89459W        W57800  21.138  29.099   4.154
89460W        W57801  14.172  31.011   4.331
89461W        W57802  41.883   6.753  11.594
89462W        W57803   7.697  17.713   2.185
89463W        W57804  42.929  29.536  10.577
89464W        W57805  31.604   1.356   0.247
89465W        W57806   2.772   2.914  12.967
89466W        W57807  21.754  28.559   0.351
89467W        W57808  42.313  23.647  12.386
89468W        W57809  38.838   8.275   0.325
89469W        W57810  34.563  25.549   3.834
89470W        W57811  14.651  39.407  11.519
89471W        W57812  12.649  26.557  13.882
89472W        W57813  12.720  19.584   4.133
89473W        W57814  33.507  11.677   2.832
89474W        W57815  43.335   6.317  10.071
89475W        W57816  26.514   2.319  12.451
89476W        W57817  34.576   3.855   2.796
89477W        W57818  29.529  18.290   3.727
89478W        W57819  42.870   3.887  14.870
89479W        W57820  10.842   6.369  11.520
89480W        W57821   9.775  25.667   3.382
89481W        W57822   5.366   7.706  13.826
89482W        W57823   0.440  24.492  13.940
89483W        W57824  20.638  35.985  12.830
89484W        W57825   8.250   6.280   0.836
89485W        W57826  20.635  17.744  10.542
89486W        W57827  40.379   9.829   4.757
89487W        W57828  31.941  41.875  14.819
89488W        W57829  42.469  22.046   0.949
89489W        W57830   5.899  13.702   2.363
89490W        W57831  37.898  25.997  14.506
89491W        W57832  19.772   7.709   2.730
89492W        W57833  20.608  22.177   3.361
89493W        W57834   7.835  32.942  10.461
89494W        W57835  23.511  11.339   0.731
89495W        W57836  26.130  30.126  10.419
89496W        W57837  31.476  13.829   3.787
89497W        W57838  20.616  42.897  10.601
89498W        W57839  25.631   8.172   0.324
89499W        W57840  35.882  16.273  12.578
89500W        W57841   1.872  31.123  12.372
89501W        W57842  36.026  21.629   1.738
89502W        W57843  27.116  40.023   0.372
89503W        W57844   6.737  36.038   2.189
89504W        W57845   2.759  19.635   5.238
89505W        W57846  40.824  23.598   0.890
89506W        W57847  14.116  30.973   2.325
89507W        W57848   2.950   1.743  11.482
89508W        W57849  22.711   1.304   3.284
89509W        W57850  40.452  43.967   4.601
89510W        W57851  23.611  30.452  14.857
89511W        W57852  23.188  31.505  12.512
89512W        W57853   6.809  44.435   4.830
89513W        W57854  23.588  38.999  11.094
89514W        W57855  15.099  18.059   1.746
89515W        W57856  19.684  27.190  13.871
89516W        W57857  22.237  13.721  11.042
89517W        W57858   2.796  17.755   4.647
89518W        W57859   4.866  25.705   0.295
89519W        W57860  34.900  10.299  14.784
89520W        W57861   5.874  24.074  12.941
89521W        W57862   1.421   3.369   3.651
89522W        W57863  15.667  42.459   1.761
89523W        W57864  43.961   9.750   3.278
89524W        W57865  29.924  44.441  12.401
89525W        W57866  36.951  24.536   4.666
89526W        W57867  19.254  11.688  12.444
89527W        W57868  15.103  16.777  14.961
89528W        W57869  32.116  38.370   4.137
89529W        W57870  42.421   1.917   3.667
89530W        W57871   0.315  37.929  13.016
89531W        W57872  24.044   4.779  14.032
89532W        W57873  18.700  20.211   3.211
89533W        W57874   1.953  44.316   3.158
89534W        W57875   9.149   8.691   2.836
89535W        W57876  23.035  32.420   3.292
89536W        W57877   6.852  44.480  10.972
89537W        W57878  23.574   4.920   1.392
89538W        W57879  38.063   5.747   3.172
89539W        W57880  38.855  14.823  11.083
89540W        W57881  44.812  27.051   1.346
89541W        W57882   2.833  24.092  14.985
89542W        W57883  43.490  31.073   3.236
89543W        W57884  34.037  22.017   4.649
89544W        W57885  39.033  23.669  13.987
89545W        W57886  10.859  37.029  13.420
89546W        W57887  30.965  17.576  13.391
89547W        W57888   4.801  39.913  13.343
89548W        W57889  18.591  34.606   3.341
89549W        W57890  28.554  32.431   3.233
89550W        W57891  25.162   4.884  13.870
89551W        W57892  11.233  18.135  14.862
89552W        W57893  43.381  16.622  13.893
89553W        W57894  11.763   9.208  12.032
89554W        W57895  11.667   9.832   9.608
89555W        W57896   1.430   1.388  14.825
89556W        W57897   3.779  35.470   2.222
89557W        W57898  16.697  12.217   2.184
89558W        W57899  43.506  38.855   3.352
89559W        W57900  23.736  43.468   4.643
89560W        W57901  24.507   0.428  14.287
89561W        W57902  21.238  23.117   4.661
89562W        W57903  14.662  22.099  11.120
89563W        W57904  25.986  26.019   3.278
89564W        W57905  21.737   6.275  14.312
89565W        W57906  16.153  17.652   0.896
89566W        W57907  38.822   2.907  11.863
89567W        W57908  41.349  33.107  11.552
89568W        W57909  28.437  18.673   4.655
89569W        W57910  23.729  12.235   0.940
89570W        W57911  35.040   8.877   4.331
89571W        W57912   8.884  22.049   4.206
89572W        W57913  17.281  30.490   5.103
89573W        W57914  33.072  42.311   9.436
89574W        W57915  22.054  36.585   1.298
89575W        W57916  36.065  21.647   4.349
89576W        W57917  30.064  22.654   1.313
89577W        W57918  31.614   4.836  11.480
89578W        W57919  36.979  35.502   1.402
89579W        W57920   4.433  32.485  11.457
89580W        W57921   6.392  28.521   3.242
89581W        W57922  38.537   6.401   4.832
89582W        W57923  21.669  17.658   0.930
89583W        W57924   6.261  30.499   4.146
89584W        W57925  41.034  24.545  14.029
89585W        W57926  36.450  34.442   2.258
89586W        W57927  29.151  29.123  11.047
89587W        W57928  40.836  12.695  12.912
89588W        W57929  19.141   2.957  13.520
89589W        W57930   8.872  18.571  13.925
89590W        W57931  17.252  24.564   5.695
89591W        W57932  31.421  13.639   3.244
89592W        W57933  35.472   7.288  11.071
89593W        W57934  20.235  29.926  10.952
89594W        W57935   0.945  11.857  14.337
89595W        W57936  35.384  21.261  10.447
89596W        W57937  32.114  32.963  14.806
89597W        W57938  44.944  31.949  10.564
89598W        W57939   6.919   2.231   2.819
89599W        W57940  21.061  19.608  14.835
89600W        W57941  44.466  20.652   1.732
89601W        W57942   5.859  20.169  13.872
89602W        W57943   2.375  39.531  13.955
89603W        W57944  16.716  37.414   0.839
89604W        W57945   6.881  32.993  14.942
89605W        W57946   5.861   1.310   4.316
89606W        W57947  34.998  27.684  14.810
89607W        W57948  13.612  10.260   3.208
89608W        W57949  21.122  27.541   0.811
89609W        W57950  26.103  30.617   1.872
89610W        W57951  24.229   8.352  14.776
89611W        W57952  14.223  34.532  11.902
89612W        W57953   1.467   0.849  13.367
89613W        W57954  36.571  18.244  12.831
89614W        W57955  38.555  30.587  14.369
89615W        W57956  28.522  38.517  14.932
89616W        W57957  11.723   1.400   0.318
89617W        W57958  18.576  14.654  12.383
89618W        W57959  37.907  37.833  13.896
89619W        W57960  16.183  12.800  10.418
89620W        W57961  28.486  10.380   1.448
89621W        W57962  12.286  42.333  11.449
89622W        W57963   6.208  38.062  13.349
89623W        W57964  14.698   9.832  11.992
89624W        W57965  27.591  24.580  10.616
89625W        W57966  19.757   0.260   2.683
89626W        W57967  36.985  39.507  13.501
89627W        W57968  12.337   3.784   0.875
89628W        W57969  28.096  13.260   4.816
89629W        W57970  16.633   5.264   1.294
89630W        W57971  21.257  24.662   3.229
89631W        W57972  42.945  13.180  12.064
89632W        W57973   2.394  19.678   4.682
89633W        W57974   6.359  33.001   0.404
89634W        W57975  37.351  18.659  11.403
89635W        W57976  35.419  30.587   4.726
89636W        W57977  13.161   1.946  11.987
89637W        W57978  18.233  42.317  14.467
89638W        W57979  38.489  11.865   2.190
89639W        W57980  23.663  29.504   0.867
89640W        W57981   5.196  20.078  14.846
89641W        W57982  11.176  43.002   3.185
89642W        W57983  13.305   6.281   0.396
89643W        W57984  22.203  40.036   1.447
89644W        W57985  11.798  19.770  13.919
89645W        W57986   5.381  21.038  13.877
89646W        W57987  36.013  32.442   1.333
89647W        W57988  29.663  19.209  13.875
89648W        W57989  31.594  25.583  14.951
89649W        W57990  16.199  32.618   1.803
89650W        W57991   1.437  30.503   1.340
89651W        W57992  38.435  18.073  10.424
89652W        W57993  24.660  33.918   0.357
89653W        W57994  31.480  31.411   1.341
89654W        W57995  32.414  16.095  12.525
89655W        W57996  42.515   7.875  13.982
89656W        W57997   2.946  11.248   3.252
89657W        W57998  38.566  34.518  10.621
89658W        W57999  42.818  15.612  11.390
89659W        W58000  22.168  37.347  14.452
89660W        W58001  23.059  25.563  14.909
89661W        W58002  28.587  41.014   0.758
89662W        W58003   5.320  24.596   0.394
89663W        W58004  23.049   0.822   3.165
89664W        W58005   1.793  40.457   4.608
89665W        W58006   2.388  16.198  12.851
89666W        W58007  12.790  16.638  13.904
89667W        W58008   1.464  42.357   1.910
89668W        W58009  21.638  41.536  11.893
89669W        W58010  44.968  14.745   1.776
89670W        W58011  38.953   3.338  13.390
89671W        W58012  13.268  18.091   2.300
89672W        W58013  21.038  21.702   4.262
89673W        W58014  24.602  44.268  12.493
89674W        W58015  26.198  20.628   3.786
89675W        W58016  26.505  22.639   2.337
89676W        W58017  42.297  11.151  11.583
89677W        W58018   6.246  19.735  13.472
89678W        W58019  28.124  23.529  13.390
89679W        W58020  31.506  24.091  13.001
89680W        W58021  12.814  15.817   0.930
89681W        W58022  29.992  23.724  13.516
89682W        W58023  20.034  43.854   3.260
89683W        W58024  42.461   8.781  10.917
89684W        W58025   0.863  40.957  11.592
89685W        W58026  14.602   0.451  11.097
89686W        W58027  34.065  26.559   2.214
89687W        W58028  16.302   3.279   3.275
89688W        W58029  25.215  35.434   4.716
89689W        W58030   1.802  25.603   0.287
89690W        W58031  14.798  21.581   3.285
89691W        W58032  26.539  14.104   3.245
89692W        W58033  11.810  16.095   4.821
89693W        W58034  24.499  36.893   3.715
89694W        W58035  15.784   3.860   2.759
89695W        W58036  33.395  17.570   1.402
89696W        W58037  39.847   2.885  12.516
89697W        W58038   9.229  37.537  14.804
89698W        W58039  42.477  44.406  12.046
89699W        W58040  12.637  19.212  14.468
89700W        W58041  31.602  27.115   4.295
89701W        W58042  33.021  39.845   2.221
89702W        W58043  43.878   9.254   1.305
89703W        W58044  32.556  23.727  10.980
89704W        W58045  44.849   0.350   2.714
89705W        W58046  20.238   9.889  12.376
89706W        W58047  22.113  34.925  13.891
89707W        W58048  42.376  21.673  13.945
89708W        W58049  20.237  41.320  11.483
89709W        W58050   3.214  10.800  12.010
89710W        W58051  36.021   0.443   2.865
89711W        W58052  32.577  39.506  13.844
89712W        W58053  18.782  30.426  11.114
89713W        W58054  25.964   8.787  14.864
89714W        W58055  10.159  43.847  14.948
89715W        W58056   7.213  35.855   4.200
89716W        W58057   9.259  24.192   0.811
89717W        W58058   1.914  36.865   1.305
89718W        W58059  37.906  40.352   1.725
89719W        W58060  39.949  41.839  11.418
89720W        W58061   1.961  21.692  12.048
89721W        W58062  34.372  13.220   4.685
89722W        W58063  43.391  19.079   3.808
89723W        W58064  31.529  20.561  13.929
89724W        W58065  30.538  17.700   1.720
89725W        W58066  15.776   7.723  13.000
89726W        W58067   6.280  40.405   3.334
89727W        W58068  38.856  28.583  14.423
89728W        W58069  40.825   4.329   0.963
89729W        W58070  29.600  36.562  11.417
89730W        W58071  37.424  38.438   1.229
89731W        W58072  35.459  10.774   0.757
89732W        W58073  38.059  13.647  10.616
89733W        W58074  12.165  19.558   2.326
89734W        W58075  22.659  35.893   1.784
89735W        W58076   8.719  26.041   4.306
89736W        W58077  35.426   1.973   2.187
89737W        W58078  17.779  34.056   2.742
89738W        W58079   3.341   2.439  12.555
89739W        W58080  38.496  14.640   2.900
89740W        W58081  37.901  30.083  11.942
89741W        W58082  31.953  13.836   3.869
89742W        W58083  30.588  19.188   0.938
89743W        W58084  12.119  18.295   3.263
89744W        W58085  32.558  42.419   3.792
89745W        W58086   2.426  16.147   3.680
89746W        W58087  37.074  41.813  12.026
89747W        W58088  18.572  20.552   3.818
89748W        W58089   8.324  19.201  14.467
89749W        W58090  10.856  19.210  12.485
89750W        W58091  12.652  14.639   0.753
89751W        W58092  15.147  28.050  12.060
89752W        W58093   8.191  19.258   2.743
89753W        W58094  20.615  42.461   4.269
89754W        W58095  11.227  18.736   4.198
89755W        W58096  20.764   5.315   1.437
89756W        W58097   6.266  28.570   1.436
89757W        W58098  28.955  15.763   1.871
89758W        W58099  25.963  15.230   0.736
89759W        W58100  44.776   7.329  10.919
89760W        W58101  21.036  14.283   9.940
89761W        W58102  22.205   7.769   3.770
89762W        W58103  25.007  36.539   3.802
89763W        W58104  18.592  28.018   5.312
89764W        W58105  44.919  40.308   4.127
89765W        W58106   3.780  42.300   4.125
89766W        W58107  31.525  19.147  12.977
89767W        W58108  20.200  29.491   1.249
89768W        W58109  31.047  19.219  10.607
89769W        W58110  24.139  35.030   2.726
89770W        W58111  15.280  12.300  11.504
89771W        W58112   1.421   8.878   2.322
89772W        W58113   1.790   6.844  10.491
89773W        W58114  39.963  30.159   0.307
89774W        W58115  18.277  33.399   2.378
89775W        W58116  27.569  43.426  14.363
89776W        W58117  31.040  32.894   0.947
89777W        W58118  12.808  36.094  14.827
89778W        W58119  10.310  35.598  14.447
89779W        W58120  34.978  34.592   0.795
89780W        W58121  11.802  14.188   3.766
89781W        W58122  43.312  11.231   4.643
89782W        W58123  27.618  15.795  11.122
89783W        W58124  22.518  42.364   2.406
89784W        W58125   2.728  33.618  12.465
89785W        W58126  16.300  43.825  12.375
89786W        W58127  37.842  35.104  14.883
89787W        W58128  20.693  12.771  14.952
89788W        W58129  23.523  41.825  13.330
89789W        W58130  22.232  32.394  11.921
89790W        W58131  13.330  31.977   4.317
89791W        W58132  16.630  40.990  14.344
89792W        W58133   7.823  11.263  13.429
89793W        W58134  17.263  29.517  14.831
89794W        W58135  12.778   9.852  14.347
89795W        W58136  44.811   6.239   2.390
89796W        W58137  25.962  27.137   3.387
89797W        W58138  19.565  37.987  11.527
89798W        W58139  26.021  31.407   2.734
89799W        W58140  17.621   0.756   1.284
89800W        W58141  25.041  15.255   3.794
89801W        W58142  38.925  40.054  14.914
89802W        W58143  35.863  22.637  11.105
89803W        W58144  11.127  37.358   0.966
89804W        W58145  22.641  30.022  14.873
89805W        W58146   7.884  21.688  12.864
89806W        W58147  39.523  20.619   4.756
89807W        W58148  44.311   3.324   3.296
89808W        W58149  24.191   7.183   3.723
89809W        W58150  40.525  19.772   3.745
89810W        W58151  12.686  13.673  14.327
89811W        W58152  21.664   6.281   3.361
89812W        W58153  15.642  38.072   1.359
89813W        W58154  36.970   4.715   2.769
89814W        W58155  14.214  23.634  14.764
89815W        W58156  31.541  26.657  12.033
89816W        W58157   2.924  37.841  11.513
89817W        W58158  17.144   0.444   1.911
89818W        W58159  35.595   5.904   3.801
89819W        W58160  38.907  15.184  13.320
89820W        W58161   6.252   0.270  13.900
89821W        W58162  27.093  42.816  11.522
89822W        W58163  22.157  22.065   0.464
89823W        W58164  39.410  37.420  13.840
89824W        W58165  17.174  38.364  11.507
89825W        W58166  24.161  40.838   4.730
89826W        W58167  12.227  18.589   3.629
89827W        W58168   1.766  27.118   0.448
89828W        W58169  41.502  26.558  13.408
89829W        W58170  41.331  30.050  13.962
89830W        W58171  41.894  18.194  11.890
89831W        W58172   3.755   2.844   0.886
89832W        W58173  24.019  41.970  14.954
89833W        W58174  35.976  37.859   0.259
89834W        W58175  11.780  34.944  14.903
89835W        W58176  30.647  21.758  10.471
89836W        W58177   3.947  23.149  10.495
89837W        W58178   8.240  24.973   2.797
89838W        W58179  42.851  23.689  12.014
89839W        W58180  33.955  10.247  13.055
89840W        W58181  39.451  25.136   1.839
89841W        W58182  33.969  34.474  11.421
89842W        W58183  27.496  23.100  12.046
89843W        W58184  25.000  21.538  14.306
89844W        W58185  22.147   5.795  13.021
89845W        W58186  10.702   4.242  12.364
89846W        W58187   0.419  18.768  14.503
89847W        W58188   0.895  17.147   4.277
89848W        W58189  32.969  34.078   2.235
89849W        W58190  44.964  29.576  13.930
89850W        W58191   2.282  13.779  14.845
89851W        W58192  22.717  24.638   0.774
89852W        W58193  11.803   1.916   1.732
89853W        W58194  43.899  31.440   3.363
89854W        W58195  37.886   5.372  14.781
89855W        W58196  16.631  27.943  14.896
89856W        W58197   6.885  25.616   2.283
89857W        W58198  27.147  28.003   4.716
89858W        W58199   4.412  41.818  12.031
89859W        W58200  32.445  37.060  13.540
89860W        W58201   1.283  20.619  11.128
89861W        W58202  13.720   3.237  13.466
89862W        W58203  35.372   9.266   1.833
89863W        W58204  12.739   0.958   4.256
89864W        W58205  20.156  22.691   2.728
89865W        W58206  41.856  15.267  14.472
89866W        W58207  41.013  28.554  12.947
89867W        W58208   6.923  20.175   0.446
89868W        W58209  37.880   7.861   1.708
89869W        W58210  31.432  11.728  10.919
89870W        W58211  19.645   2.934  13.498
89871W        W58212  38.386  27.453   3.633
89872W        W58213   3.856  31.630   0.448
89873W        W58214   4.332  33.624  11.402
89874W        W58215  19.270  19.282   1.813
89875W        W58216  38.056  39.899   1.896
89876W        W58217  36.902   6.427  10.947
89877W        W58218   9.302  41.920   0.755
89878W        W58219  10.859   1.347   1.699
89879W        W58220  18.063  30.503  14.882
89880W        W58221  36.939   6.910   0.821
89881W        W58222  20.167  27.970  14.289
89882W        W58223   2.393  20.613   4.344
89883W        W58224  16.646  32.101  11.099
89884W        W58225  10.288  39.920   3.789
89885W        W58226   9.256   2.758   2.398
89886W        W58227  25.158  10.695  10.472
89887W        W58228  15.679  40.815   1.294
89888W        W58229  22.007  25.502  11.003
89889W        W58230  43.507   3.241  10.447
89890W        W58231  14.743  43.273   0.890
89891W        W58232  38.061  20.043  12.918
89892W        W58233  16.751   8.217   1.237
89893W        W58234  12.196  16.197   4.773
89894W        W58235  27.592  19.537   2.371
89895W        W58236  20.691  32.967  13.390
89896W        W58237  19.137  31.496   3.309
89897W        W58238   1.251  13.636   2.765
89898W        W58239  34.504  12.281   1.830
89899W        W58240  15.183  43.001  12.408
89900W        W58241   6.333  38.923  13.800
89901W        W58242  16.268  26.116  14.014
89902W        W58243  28.031   7.719   4.248
89903W        W58244  22.704  32.051   3.246
89904W        W58245   9.259  26.535   0.305
89905W        W58246   8.201   0.830  13.368
89906W        W58247   7.802  44.451   0.344
89907W        W58248  17.211  35.544  11.929
89908W        W58249  10.773   9.254   5.803
89909W        W58250  33.059   1.469  12.032
89910W        W58251  17.768  14.598  14.942
89911W        W58252  18.207  10.284  13.879
89912W        W58253  28.621  16.648  11.415
89913W        W58254   5.401  24.219  13.309
89914W        W58255  33.937  29.554   2.189
89915W        W58256   7.302  14.809   3.245
89916W        W58257  40.432  29.509   4.269
89917W        W58258  12.117  16.592  11.064
89918W        W58259  33.587  26.173  13.033
89919W        W58260  27.077  42.825  10.404
89920W        W58261  21.707  16.205   3.656
89921W        W58262  36.955  40.952  12.529
89922W        W58263   4.366  11.249   4.745
89923W        W58264  23.685  10.363  14.029
89924W        W58265   2.469  37.557  14.324
89925W        W58266   1.238  13.844   1.796
89926W        W58267  29.029  27.952   4.689
89927W        W58268  34.109   4.802  12.477
89928W        W58269  17.743  25.088  12.923
89929W        W58270  17.729  35.599  12.503
89930W        W58271   5.787  21.651  13.503
89931W        W58272  29.472  17.300   0.799
89932W        W58273  11.792  39.053   2.329
89933W        W58274  28.537  21.519  11.438
89934W        W58275   0.949  31.427   3.230
89935W        W58276  19.750  10.689   1.883
89936W        W58277  37.509   0.431  14.311
89937W        W58278  36.417   8.287  12.462
89938W        W58279  22.145   9.157  12.473
89939W        W58280  35.380  40.385  12.946
89940W        W58281   2.366  39.852   2.732
89941W        W58282  36.022  15.262   4.767
89942W        W58283   4.415  28.441   4.821
89943W        W58284  19.538  22.237  13.462
89944W        W58285  15.221  31.413   1.901
89945W        W58286  43.485  28.930   4.193
89946W        W58287  31.971  21.670   0.886
89947W        W58288  24.555  21.725   2.242
89948W        W58289  37.363  34.477  10.616
89949W        W58290   0.354  38.346   2.330
89950W        W58291  39.826  12.676  14.447
89951W        W58292  25.103  37.905   3.648
89952W        W58293  22.075  39.855   2.856
89953W        W58294  44.363   8.346  10.530
89954W        W58295  12.215  39.499   2.892
89955W        W58296  40.437   7.247   3.802
89956W        W58297  28.078  14.339   3.722
89957W        W58298   0.893  12.630  13.825
89958W        W58299  31.097  27.529  13.414
89959W        W58300   1.856  14.127  10.462
89960W        W58301  25.638  43.434   4.160
89961W        W58302  43.832   3.836   0.382
89962W        W58303  26.496  17.574   3.678
89963W        W58304  40.958   1.956  12.494
89964W        W58305  36.060  20.525   2.899
89965W        W58306   3.896  24.144   0.375
89966W        W58307  21.091  35.500   1.757
89967W        W58308  34.943  41.862   3.659
89968W        W58309  12.722   8.779   4.238
89969W        W58310  24.651  15.098   3.739
89970W        W58311  11.820  11.254   1.291
89971W        W58312  25.098  42.002   1.863
89972W        W58313  24.622  34.468   2.821
89973W        W58314  43.899   0.423  10.988
89974W        W58315  30.480  23.666  12.541
89975W        W58316  20.113   2.404   1.246
89976W        W58317   2.368  12.789   0.383
89977W        W58318  18.095   5.774   4.733
89978W        W58319   2.761  21.212   4.701
89979W        W58320  27.048  42.954  14.934
89980W        W58321  17.177   1.848  13.526
89981W        W58322  14.304   7.302  12.434
89982W        W58323   1.829  21.182  13.477
89983W        W58324  35.857  44.964   1.825
89984W        W58325  44.497  34.521  14.886
89985W        W58326  26.661  36.507   2.207
89986W        W58327   9.878  22.128   4.716
89987W        W58328  14.670   9.269  12.069
89988W        W58329   3.310  28.046   3.760
89989W        W58330   0.833  12.635   4.125
89990W        W58331   5.223  23.989   2.235
89991W        W58332  28.562  18.276   0.354
89992W        W58333  27.038   8.728   1.925
89993W        W58334  27.003  16.730  14.995
89994W        W58335  27.035  30.966   1.334
89995W        W58336  37.000   8.690  14.286
89996W        W58337   5.774  16.772   1.808
89997W        W58338  17.626  13.689   4.303
89998W        W58339  43.396  13.248  11.375
89999W        W58340  41.472  30.438  10.955
90000W        W58341  24.695  17.653   4.242
90001W        W58342  42.784  13.634  13.410
90002W        W58343  10.763  33.621  10.573
90003W        W58344  31.627  22.700  11.528
90004W        W58345   8.707   3.439   0.317
90005W        W58346  15.276  35.427  11.070
90006W        W58347  16.156   6.798  11.976
90007W        W58348  41.015  31.443  14.942
90008W        W58349   0.322  11.807   4.240
90009W        W58350  35.092  44.478   4.267
90010W        W58351   9.311  28.648   0.742
90011W        W58352  26.057  40.334  10.906
90012W        W58353  32.889  38.051   4.753
90013W        W58354  11.369  10.752   3.221
90014W        W58355  25.105  21.624   1.755
90015W        W58356  18.172  12.711   0.257
90016W        W58357  41.525  15.243  14.885
90017W        W58358  15.217  15.822  13.064
90018W        W58359  10.855   1.956  12.520
90019W        W58360   4.431  30.575  10.518
90020W        W58361  12.828  32.028  12.053
90021W        W58362   9.159   2.240   0.730
90022W        W58363  42.409  15.775   3.376
90023W        W58364   3.931  31.130   2.756
90024W        W58365  26.685  14.810  14.919
90025W        W58366  40.423  14.267   5.202
90026W        W58367  14.712  43.972  14.896
90027W        W58368  31.092  44.489   3.167
90028W        W58369   2.756  13.719   3.806
90029W        W58370  14.272  16.174  12.924
90030W        W58371  18.717  32.079  11.586
90031W        W58372  33.031  31.437  11.069
90032W        W58373  39.910   2.961   4.121
90033W        W58374   0.270  42.997  14.481
90034W        W58375  39.841   1.886   4.342
90035W        W58376   4.398  41.991   3.381
90036W        W58377  39.007   3.428  11.116
90037W        W58378  44.994  33.935   0.259
90038W        W58379  29.933  22.574   3.148
90039W        W58380  24.621  34.091  14.407
90040W        W58381   5.235   2.848   3.381
90041W        W58382  41.897  26.033   4.655
90042W        W58383  21.608  28.669   2.200
90043W        W58384  14.297  37.062  12.024
90044W        W58385  37.535   2.836   0.848
90045W        W58386  37.023   1.422   3.637
90046W        W58387  39.557  29.937   1.711
90047W        W58388   7.367  29.129   1.445
90048W        W58389  32.953  17.625   4.135
90049W        W58390  41.927  13.708   2.722
90050W        W58391  27.117  13.198   4.745
90051W        W58392  32.439  31.143  12.916
90052W        W58393  14.131  40.530   5.249
90053W        W58394  30.545  10.672  11.010
90054W        W58395   0.485  44.924  12.039
90055W        W58396   3.288  34.045   0.295
90056W        W58397  20.586  25.979   0.393
90057W        W58398   4.858  11.215   3.276
90058W        W58399  34.077  23.059   2.395
90059W        W58400   6.920  17.226  10.613
90060W        W58401  17.126  40.840   3.242
90061W        W58402  30.468   8.177  14.831
90062W        W58403  34.895  42.952  11.608
90063W        W58404  37.850  15.126  12.898
90064W        W58405  39.437  14.760  11.417
90065W        W58406   2.791   1.868   4.273
90066W        W58407   9.780  18.162   0.795
90067W        W58408  17.682  13.148   4.345
90068W        W58409  20.060   7.343   1.289
90069W        W58410   0.281  22.731   0.433
90070W        W58411  14.139   0.347  14.466
90071W        W58412  15.225  10.726   1.765
90072W        W58413  38.924  12.181  11.531
90073W        W58414  20.691  14.620   0.815
90074W        W58415  16.646   0.284   4.607
90075W        W58416  27.484  44.394  13.353
90076W        W58417  12.659  21.686  12.395
90077W        W58418  44.762  15.733  14.283
90078W        W58419  13.722  37.915  11.590
90079W        W58420  39.326  30.908   4.718
90080W        W58421  15.623  25.070   5.238
90081W        W58422  29.175   3.900  12.829
90082W        W58423  11.173   2.405  11.941
90083W        W58424   9.857  28.140  10.613
90084W        W58425  16.762  12.814  11.006
90085W        W58426  11.326  11.857  12.037
90086W        W58427  28.007   1.240  13.427
90087W        W58428  24.623  10.230  10.644
90088W        W58429  15.815   5.206  13.544
90089W        W58430   8.305  23.182   0.334
90090W        W58431  40.931   2.228   3.309
90091W        W58432   4.380   7.732   4.748
90092W        W58433  19.235  35.912  13.509
90093W        W58434  26.134  39.319   3.281
90094W        W58435  42.417  31.019  13.387
90095W        W58436  18.224  26.967   2.179
90096W        W58437   0.986  17.104   0.740
90097W        W58438  35.875   6.205  12.577
90098W        W58439   3.223  44.499  13.058
90099W        W58440  37.975   9.208  12.929
90100W        W58441   1.350  40.888   4.717
90101W        W58442  11.688  28.077  10.584
90102W        W58443  17.142   3.362   2.775
90103W        W58444  28.950  28.096  10.994
90104W        W58445  36.898  30.442  11.527
90105W        W58446  10.269  25.658  13.494
90106W        W58447  30.046  22.685  14.784
90107W        W58448   0.835  15.709   3.258
90108W        W58449  32.136  44.977  14.413
90109W        W58450  13.610   3.881  12.058
90110W        W58451  16.702  22.658   4.764
90111W        W58452  32.040  38.547  14.488
90112W        W58453  20.588  27.471  14.835
90113W        W58454  32.053  34.106  12.380
90114W        W58455  30.499  33.500   2.215
90115W        W58456  33.455  31.423  11.030
90116W        W58457  41.471   7.355   3.679
90117W        W58458  40.466  32.055  13.310
90118W        W58459  35.381  21.119   0.470
90119W        W58460   2.273  24.073  11.868
90120W        W58461  33.047  34.943   3.798
90121W        W58462  22.168  29.004   2.384
90122W        W58463  25.605  30.519   3.204
90123W        W58464   4.416  35.509   3.329
90124W        W58465  38.982  40.497   2.737
90125W        W58466  26.628  31.086  13.468
90126W        W58467  39.919  24.709  12.396
90127W        W58468  33.610  37.463  13.375
90128W        W58469  37.489  39.383   1.232
90129W        W58470  23.559  21.725   4.208
90130W        W58471  34.890  11.763   5.173
90131W        W58472  37.491   9.716   1.869
90132W        W58473  37.575   3.910  13.341
90133W        W58474  34.576  38.366   4.304
90134W        W58475  40.423   9.187  11.574
90135W        W58476   8.864  14.781   2.795
90136W        W58477  41.937  23.193   2.236
90137W        W58478   9.872   8.395  14.495
90138W        W58479  32.117  18.655  13.935
90139W        W58480  10.842  33.521  13.993
90140W        W58481  37.082  30.144  14.390
90141W        W58482   5.737  21.117  11.915
90142W        W58483  16.234  18.105  14.812
90143W        W58484  38.420  17.638   4.815
90144W        W58485  10.237   1.384  13.313
90145W        W58486  18.256   4.363  14.476
90146W        W58487   3.894  17.163   1.778
90147W        W58488  27.095   7.854  10.541
90148W        W58489  16.110   3.929   2.782
90149W        W58490  13.305  20.258  11.596
90150W        W58491   4.943   3.853   4.114
90151W        W58492   0.250  19.238   9.932
90152W        W58493  17.778   7.897  12.039
90153W        W58494  36.405  15.181  11.857
90154W        W58495  35.422   4.724   1.373
90155W        W58496  13.835   8.691  13.892
90156W        W58497  29.151  42.811   4.692
90157W        W58498   5.437  40.884  12.922
90158W        W58499  41.478  30.942   4.151
90159W        W58500   9.217   7.801  13.419
90160W        W58501   8.789   8.665   1.760
90161W        W58502   7.177   8.168   2.356
90162W        W58503   7.693   9.655  14.421
90163W        W58504  35.477  31.486  14.008
90164W        W58505  22.542   9.649  11.515
90165W        W58506  34.464  39.050  11.609
90166W        W58507  43.873  33.112  14.432
90167W        W58508  42.828  19.643   4.145
90168W        W58509  38.864  22.100  14.939
90169W        W58510  41.878  15.764  14.000
90170W        W58511  40.361  27.085   0.264
90171W        W58512   1.447   4.301  12.445
90172W        W58513  41.374  27.950  11.872
90173W        W58514  39.324  21.150   0.737
90174W        W58515   0.926   5.799  13.053
90175W        W58516  15.639  24.164   0.336
90176W        W58517  26.047  25.558  11.862
90177W        W58518   1.473  13.607  11.405
90178W        W58519  41.812  22.224   1.266
90179W        W58520  29.026   6.408   4.658
90180W        W58521   0.909   5.256  12.444
90181W        W58522  38.954  26.979  11.973
90182W        W58523  33.974  23.727  13.489
90183W        W58524  34.425  34.446  10.908
90184W        W58525  23.693  22.037  11.563
90185W        W58526  37.063   5.195  14.998
90186W        W58527  31.062  22.065   0.292
90187W        W58528  32.933  24.690   4.115
90188W        W58529  20.083   0.765   2.761
90189W        W58530  17.643   0.350  11.578
90190W        W58531  10.682  31.568  11.086
90191W        W58532  15.217  39.850   2.811
90192W        W58533   6.823  36.490   0.869
90193W        W58534  41.307  25.154   0.293
90194W        W58535   6.819  30.639  12.859
90195W        W58536   0.849  20.559   2.249
90196W        W58537   8.379   1.935   2.695
90197W        W58538  23.531  25.659   3.852
90198W        W58539   0.271  27.459  13.057
90199W        W58540  21.020  14.128   1.312
90200W        W58541  42.990  32.892   0.853
90201W        W58542  38.527  36.520   0.419
90202W        W58543  43.334  21.053  13.040
90203W        W58544  15.098  16.314  13.828
90204W        W58545  38.834  26.199   0.305
90205W        W58546   8.888  13.801   3.861
90206W        W58547  37.462  22.034  10.092
90207W        W58548  33.064  22.039   1.241
90208W        W58549  29.502  10.360   3.723
90209W        W58550  38.974  17.758  11.119
90210W        W58551   9.290  41.985   3.201
90211W        W58552  25.988  33.462   2.743
90212W        W58553  40.809   0.855  13.014
90213W        W58554  30.504   6.400   3.363
90214W        W58555  28.526  25.658   3.222
90215W        W58556  43.782  33.949   0.826
90216W        W58557   4.774  23.696   1.314
90217W        W58558  20.640  22.108   1.784
90218W        W58559  12.304  30.106   3.737
90219W        W58560  43.768   5.394   3.788
90220W        W58561  15.101  18.784  12.095
90221W        W58562  22.099  36.889  10.933
90222W        W58563  41.348  11.177  11.372
90223W        W58564  11.140  14.733  11.477
90224W        W58565  40.454  37.502   2.874
90225W        W58566  33.057  23.107   2.357
90226W        W58567  21.611  39.051  11.531
90227W        W58568  24.679  35.546  12.502
90228W        W58569   4.277  42.415   4.262
90229W        W58570  29.070  40.313   1.811
90230W        W58571  39.408   3.388  13.526
90231W        W58572  26.158  25.476  10.474
90232W        W58573  42.317  40.432  11.992
90233W        W58574  28.131  17.084   4.734
90234W        W58575  12.722  24.606  12.426
90235W        W58576  12.854  30.080  14.880
90236W        W58577  29.441  13.187  12.084
90237W        W58578  18.254  39.914  13.948
90238W        W58579   8.672  23.562   1.931
90239W        W58580  24.672  22.667  10.549
90240W        W58581  27.542  22.516  13.337
90241W        W58582  24.014   8.787  13.930
90242W        W58583  16.257  34.058   4.294
90243W        W58584  35.463  39.491  11.866
90244W        W58585  39.461  17.126  11.560
90245W        W58586   0.903   9.868   2.331
90246W        W58587   1.460  12.786   0.880
90247W        W58588   2.362  30.578   3.829
90248W        W58589  18.684   5.911   3.360
90249W        W58590  36.911  41.462  11.945
90250W        W58591   2.252  37.487   2.847
90251W        W58592  10.875   7.336   1.735
90252W        W58593  20.128  25.024   2.811
90253W        W58594  40.476  38.567   4.170
90254W        W58595  36.967  12.814  11.510
90255W        W58596  24.085  32.412   0.837
90256W        W58597  14.757  30.473   2.699
90257W        W58598  24.217  32.601  14.824
90258W        W58599   1.932  16.604  14.004
90259W        W58600  35.504   5.692   4.797
90260W        W58601  25.554  40.421   4.777
90261W        W58602  25.703  10.139   4.300
90262W        W58603  15.237   3.251  13.058
90263W        W58604  16.309  32.091   0.417
90264W        W58605   1.351  42.838   0.807
90265W        W58606   2.245  39.912   2.391
90266W        W58607  38.563  26.189  14.873
90267W        W58608  25.564  23.541  14.492
90268W        W58609  27.969  23.121  12.084
90269W        W58610  24.604  10.701   0.786
90270W        W58611  33.897  15.291   3.781
90271W        W58612   9.331  40.888   2.734
90272W        W58613  12.232  21.713  14.301
90273W        W58614  35.358  44.384  13.355
90274W        W58615  16.242   2.855  12.965
90275W        W58616  17.160  32.476  13.964
90276W        W58617  37.880   7.396  14.374
90277W        W58618  32.513  38.960  11.461
90278W        W58619  17.592  23.507  14.485
90279W        W58620  29.109  38.939   0.257
90280W        W58621  38.866  14.301  14.001
90281W        W58622  11.827   3.298  11.407
90282W        W58623  32.394  39.556   2.754
90283W        W58624  14.294  26.483  13.008
90284W        W58625  44.865  43.955   1.861
90285W        W58626  17.642   3.911   2.796
90286W        W58627   9.860   0.255  12.349
90287W        W58628  23.722  11.139   1.762
90288W        W58629  25.571  35.971  14.025
90289W        W58630  32.969  25.050   2.899
90290W        W58631   5.846  10.814   1.286
90291W        W58632  36.488  39.816  13.503
90292W        W58633  17.270  43.833  12.962
90293W        W58634  41.787  12.792  11.992
90294W        W58635  15.318   6.888   3.326
90295W        W58636  17.227  20.678   1.295
90296W        W58637  41.498  40.318   4.259
90297W        W58638  29.158   9.161   2.395
90298W        W58639  19.587  42.005   1.768
90299W        W58640  38.547   1.256   4.740
90300W        W58641   4.932   9.671   5.318
90301W        W58642   6.677  33.030   1.816
90302W        W58643  33.938  29.987   2.738
90303W        W58644  15.629  12.221   0.917
90304W        W58645  33.995  25.535   2.406
90305W        W58646  40.034  41.513  14.407
90306W        W58647  36.872   2.947  12.864
90307W        W58648  25.091  28.130   1.450
90308W        W58649  42.978   2.405  13.884
90309W        W58650  42.006  41.788   5.135
90310W        W58651  18.061  18.146  10.630
90311W        W58652   4.776   4.390  12.988
90312W        W58653  13.216  26.512   4.700
90313W        W58654  30.437  13.717  10.925
90314W        W58655  33.545   6.379   3.298
90315W        W58656  27.500  19.255  11.500
90316W        W58657   9.308  41.438  13.309
90317W        W58658  21.672  16.789   2.673
90318W        W58659  38.444   2.817   0.431
90319W        W58660  14.825   7.774  14.962
90320W        W58661  25.987  12.357  14.378
90321W        W58662  42.439  17.202  13.490
90322W        W58663  21.182  17.124   4.741
90323W        W58664  17.066  21.018   1.400
90324W        W58665  24.479   7.712  13.836
90325W        W58666   5.201  20.704  11.464
90326W        W58667  39.878  43.970  10.126
90327W        W58668   3.372   3.343   4.223
90328W        W58669  43.818  13.697  14.819
90329W        W58670  39.317  40.521   5.149
90330W        W58671  43.773  17.229  14.907
90331W        W58672   4.828   9.786  12.552
90332W        W58673   8.706  10.877  12.396
90333W        W58674  30.573   4.875  10.423
90334W        W58675  26.194   3.870  11.907
90335W        W58676   7.719  40.426  13.515
90336W        W58677   7.778  24.133   1.708
90337W        W58678  44.839  32.491  13.412
90338W        W58679  42.386   3.811  11.409
90339W        W58680  13.280  26.655  12.036
90340W        W58681  28.487  13.734  10.498
90341W        W58682  31.440  42.030   1.410
90342W        W58683  33.484  32.125   1.261
90343W        W58684  36.006  22.146   4.275
90344W        W58685   5.835  23.541   4.327
90345W        W58686   5.860   4.360  12.553
90346W        W58687  36.461  15.317   1.214
90347W        W58688  13.727   2.896   2.328
90348W        W58689  36.934  28.085  12.861
90349W        W58690  20.257  38.553  12.571
90350W        W58691  41.318   7.301  10.441
90351W        W58692   8.367   7.362  11.995
90352W        W58693  22.055  40.892   2.804
90353W        W58694  12.840  32.538   2.671
90354W        W58695  11.209  22.042   2.740
90355W        W58696   2.246  15.618   9.951
90356W        W58697  22.079  33.494  13.331
90357W        W58698  33.394   5.251   3.168
90358W        W58699  18.707  42.857  12.399
90359W        W58700   8.808   2.777   4.830
90360W        W58701  20.261   8.388   0.797
90361W        W58702  16.791  14.280   4.618
90362W        W58703  25.150  41.024  11.435
90363W        W58704   8.235  18.733  11.537
90364W        W58705  17.558  16.210  13.891
90365W        W58706  34.569   1.361   3.842
90366W        W58707   6.837  11.201  12.489
90367W        W58708  34.491  28.009  13.530
90368W        W58709  23.989  27.075  13.399
90369W        W58710  23.558  37.962  12.498
90370W        W58711  20.203  40.034   1.385
90371W        W58712  36.042   8.343   0.346
90372W        W58713   6.767  25.081  13.019
90373W        W58714  20.187  29.940  14.357
90374W        W58715  15.695   4.920   4.729
90375W        W58716  27.056  20.545   4.339
90376W        W58717  36.063  38.341  12.916
90377W        W58718  16.579  44.957   0.324
90378W        W58719  28.144  20.229  12.516
90379W        W58720  14.799   7.271   5.189
90380W        W58721  21.162   8.344   0.797
90381W        W58722  17.740  27.598  13.937
90382W        W58723  39.388   6.825   4.212
90383W        W58724  19.196   0.471   4.339
90384W        W58725   1.382   5.924   1.225
90385W        W58726   2.733  24.209  11.419
90386W        W58727  40.809  40.395  10.608
90387W        W58728  27.540  32.600  11.507
90388W        W58729  44.969  11.746   0.431
90389W        W58730  11.655   6.889  11.374
90390W        W58731  32.624  40.368  12.387
90391W        W58732   3.444  10.775  14.392
90392W        W58733  40.015  15.307   0.848
90393W        W58734  28.060  12.627   3.218
90394W        W58735  12.825  27.944   4.814
90395W        W58736  10.707  24.131   3.754
90396W        W58737  41.854  24.171   0.414
90397W        W58738  12.249  11.151  11.461
90398W        W58739  19.708  42.413   0.921
90399W        W58740  16.566  17.641   4.608
90400W        W58741  27.513  29.980   2.217
90401W        W58742   3.346   3.290  12.562
90402W        W58743  42.333  32.122  13.040
90403W        W58744  20.253  17.191   4.749
90404W        W58745  35.070  30.462   1.417
90405W        W58746  14.670  34.015   4.700
90406W        W58747  20.587  38.521   1.264
90407W        W58748  26.521  30.008   2.412
90408W        W58749  22.582  13.301  13.032
90409W        W58750  30.980   3.735   4.207
90410W        W58751  34.615  21.714   0.744
90411W        W58752   6.845  11.810  13.448
90412W        W58753   3.215  13.697   2.864
90413W        W58754  12.210  29.051   3.828
90414W        W58755  16.279  21.657  13.939
90415W        W58756   1.860  20.134  14.282
90416W        W58757  22.586  25.649  14.030
90417W        W58758  34.023   9.263  14.340
90418W        W58759   3.217  38.508  10.570
90419W        W58760  36.550  23.587   2.218
90420W        W58761  36.386  18.637  14.965
90421W        W58762   2.874  39.433   3.362
90422W        W58763  43.006  15.750  12.477
90423W        W58764   2.259  28.642   3.732
90424W        W58765   6.208   9.179   4.293
90425W        W58766  32.134  21.259  13.049
90426W        W58767  12.355  43.420   2.392
90427W        W58768  24.620  32.403   1.359
90428W        W58769   1.296   5.787   4.231
90429W        W58770  44.476   1.326   0.741
90430W        W58771   5.196  26.123   4.231
90431W        W58772  24.573   4.263   3.250
90432W        W58773  11.249   7.901   3.836
90433W        W58774  42.009  34.472  11.457
90434W        W58775  33.045   7.880  14.933
90435W        W58776  24.050  32.498   1.228
90436W        W58777  39.546  14.120   4.761
90437W        W58778   9.672  11.298  11.539
90438W        W58779  43.813  13.245   2.253
90439W        W58780   9.800   0.946   4.230
90440W        W58781  10.173  19.686   2.244
90441W        W58782  10.162  29.560   4.609
90442W        W58783  44.348  16.671   2.886
90443W        W58784  44.414   4.405  13.819
90444W        W58785  40.400  20.035   0.830
90445W        W58786   7.319  39.423   2.804
90446W        W58787  13.672  11.373   0.440
90447W        W58788   0.776  41.463   2.297
90448W        W58789  11.299  20.581  12.406
90449W        W58790  38.967  20.159   2.840
90450W        W58791  15.306  41.504   1.225
90451W        W58792  13.262  38.947  14.780
90452W        W58793  20.217  32.583  11.475
90453W        W58794  32.548  28.587  11.881
90454W        W58795  20.528  42.001  12.882
90455W        W58796  37.944   5.399   4.187
90456W        W58797  44.492  32.394   2.363
90457W        W58798   3.912  32.997  13.405
90458W        W58799  24.989  15.171   0.967
90459W        W58800  39.913  42.340   5.687
90460W        W58801  31.916  43.949   3.658
90461W        W58802  41.871  27.610  10.558
90462W        W58803  30.437  38.883  13.312
90463W        W58804   7.709   0.253  11.590
90464W        W58805  41.503   6.889  12.854
90465W        W58806   6.408  11.628  13.051
90466W        W58807  37.881  35.862   3.203
90467W        W58808   9.189  16.149   2.855
90468W        W58809  17.675  42.437   2.209
90469W        W58810  40.835  22.013   3.228
90470W        W58811  42.454  34.068  10.558
90471W        W58812  21.657   1.740  10.986
90472W        W58813  16.196   2.956  12.480
90473W        W58814  37.044   0.917   2.200
90474W        W58815  37.509   8.830   2.366
90475W        W58816  15.099  13.257   2.865
90476W        W58817  43.307  24.670   2.870
90477W        W58818   5.867  18.207   1.227
90478W        W58819  44.454  12.619  13.835
90479W        W58820  24.979  28.121  14.831
90480W        W58821  44.419  15.149  10.026
90481W        W58822   5.797  26.961  10.420
90482W        W58823   2.914  18.238  11.856
90483W        W58824  44.011   5.730   3.271
90484W        W58825  36.014  20.029  11.462
90485W        W58826  27.067   4.355   3.770
90486W        W58827  28.472  28.030  10.523
90487W        W58828  10.327   7.322  11.890
90488W        W58829  13.187  41.503  11.393
90489W        W58830  43.323  27.178   1.213
90490W        W58831  37.384   2.802   1.806
90491W        W58832   3.827  22.102  11.926
90492W        W58833  14.230  30.136   4.229
90493W        W58834   6.797  14.270  12.093
90494W        W58835  25.984  27.105   5.289
90495W        W58836  16.139  26.186   1.250
90496W        W58837   3.809  13.640  14.477
90497W        W58838  35.512  39.890  13.857
90498W        W58839   6.827  16.086   0.746
90499W        W58840   8.188  13.196  12.547
90500W        W58841  42.448  41.787  10.409
90501W        W58842   8.837  43.478   2.788
90502W        W58843  32.044  26.063   4.702
90503W        W58844  14.795  15.166  14.012
90504W        W58845  30.949  29.129  13.474
90505W        W58846   1.913  15.292   2.703
90506W        W58847  12.770  18.645  10.483
90507W        W58848  38.872   7.416   1.934
90508W        W58849  15.635  31.507  10.577
90509W        W58850  36.021  11.345   0.274
90510W        W58851  16.128  36.017  12.398
90511W        W58852  43.351  15.274  14.011
90512W        W58853  11.758   7.394   3.790
90513W        W58854  44.328  42.940   0.387
90514W        W58855  11.832  26.045   3.335
90515W        W58856  37.949  32.456   2.223
90516W        W58857  39.406  18.625   2.891
90517W        W58858  17.295  13.174   0.783
90518W        W58859   7.252  21.248   4.220
90519W        W58860  32.899  24.138  14.010
90520W        W58861   0.907  12.726   4.839
90521W        W58862  25.089  20.744  10.415
90522W        W58863   5.779  41.335   2.390
90523W        W58864  38.445  21.082   1.379
90524W        W58865  11.326  42.460  12.890
90525W        W58866  41.477  12.144   3.269
90526W        W58867   4.856  29.062   2.777
90527W        W58868  19.767  37.472  14.895
90528W        W58869   3.863  37.547   4.233
90529W        W58870   3.875  15.731  13.533
90530W        W58871   9.217  12.656   4.798
90531W        W58872  14.712  28.449  13.539
90532W        W58873  15.821  43.934  10.962
90533W        W58874   0.258  31.463  12.375
90534W        W58875   8.300  27.001   4.703
90535W        W58876   4.448  12.302  11.027
90536W        W58877  25.584   2.406  11.917
90537W        W58878   7.830  42.460   4.178
90538W        W58879  43.872  33.546   4.317
90539W        W58880  21.677  31.097  13.812
90540W        W58881  39.463  25.554  13.938
90541W        W58882  38.538  12.787  13.048
90542W        W58883  43.428   6.909   2.399
90543W        W58884  14.721  23.614  12.443
90544W        W58885  29.992  42.334   0.861
90545W        W58886  14.197  11.689  14.020
90546W        W58887   7.290   3.371  11.553
90547W        W58888  43.768  44.890   0.826
90548W        W58889  41.481  38.951  11.568
90549W        W58890  15.673  20.246  11.948
90550W        W58891  26.619  24.026  11.897
90551W        W58892  31.010   5.854   4.751
90552W        W58893  29.620  13.153   3.833
90553W        W58894  25.478  21.097   2.681
90554W        W58895  26.610  19.570  11.998
90555W        W58896  44.264  28.055   3.223
90556W        W58897  44.868  36.484   4.162
90557W        W58898  37.396  17.171   2.223
90558W        W58899  25.704  13.280  12.096
90559W        W58900  19.262  29.646   3.305
90560W        W58901  38.488  25.011  10.479
90561W        W58902  37.833  28.134  10.989
90562W        W58903  24.981  26.991  14.408
90563W        W58904   2.449  30.530  14.457
90564W        W58905  10.817  37.994  12.085
90565W        W58906  26.545  30.447  11.563
90566W        W58907  21.546  13.657   2.879
90567W        W58908  41.901  12.836  13.346
90568W        W58909   2.395  26.641  10.134
90569W        W58910  38.543  41.894  13.792
90570W        W58911   5.389  38.988  11.441
90571W        W58912  19.602  43.400   2.883
90572W        W58913  19.651  21.172  14.914
90573W        W58914   4.445   5.890  11.027
90574W        W58915  42.449   4.248  14.515
90575W        W58916  24.493  37.366   0.252
90576W        W58917  44.897  31.551  13.064
90577W        W58918   7.804   7.809   2.665
90578W        W58919  20.224   4.728  13.501
90579W        W58920  24.997  32.890  11.885
90580W        W58921  16.691  36.382  10.991
90581W        W58922  33.054  14.712  12.934
90582W        W58923  21.150  17.689   0.313
90583W        W58924   1.357  36.373  13.518
90584W        W58925  42.809   2.296  12.086
90585W        W58926  36.976  17.209  12.926
90586W        W58927  21.577  30.158   0.473
90587W        W58928  17.589  23.087  12.538
90588W        W58929  20.579   4.819  12.357
90589W        W58930  28.986  31.613   0.733
90590W        W58931   4.221  16.568  14.461
90591W        W58932  28.536   0.777  12.059
90592W        W58933  37.561  17.590  12.454
90593W        W58934   3.258  16.707   2.843
90594W        W58935  28.602   4.352   2.293
90595W        W58936  42.293  17.800  12.853
90596W        W58937  25.513  23.525  10.536
90597W        W58938  42.958  12.657  13.012
90598W        W58939   2.472  34.556   0.327
90599W        W58940  43.441  44.348  13.981
90600W        W58941  34.393  14.708   0.434
90601W        W58942  11.211  19.662  11.068
90602W        W58943  28.165   8.786   1.314
90603W        W58944  25.520  17.621  14.494
90604W        W58945  17.159  16.088   2.828
90605W        W58946  20.198   8.758  12.055
90606W        W58947  40.350  29.649  11.526
90607W        W58948  29.936  13.123   1.701
90608W        W58949  26.962  13.793   4.311
90609W        W58950  44.807  41.368  14.800
90610W        W58951  10.728  25.487  11.079
90611W        W58952  23.142  16.718   3.305
90612W        W58953  11.828   8.194   0.278
90613W        W58954  28.026  19.580   0.367
90614W        W58955  23.140  20.640   0.939
90615W        W58956  15.108  42.513   2.789
90616W        W58957  42.853  31.922  13.957
90617W        W58958  16.568   6.813  11.123
90618W        W58959   0.389   0.443  14.405
90619W        W58960  11.696  18.243  12.485
90620W        W58961  25.055  13.152  11.474
90621W        W58962  10.758  10.261   9.630
90622W        W58963  22.242   8.720  11.461
90623W        W58964  25.081  19.769   2.816
90624W        W58965   6.252   6.695  12.516
90625W        W58966  10.157  19.053  12.451
90626W        W58967  15.629   9.350   0.894
90627W        W58968   5.724  20.635   4.822
90628W        W58969  32.102   6.330   2.702
90629W        W58970  21.053   8.291   1.883
90630W        W58971  25.139  22.741   0.347
90631W        W58972  19.176  36.935  11.960
90632W        W58973   6.377  44.969   4.602
90633W        W58974   1.761  17.615   4.174
90634W        W58975  18.075  17.753  10.921
90635W        W58976  33.099  30.952   1.902
90636W        W58977  14.745  38.894   3.754
90637W        W58978  33.927  27.966   3.167
90638W        W58979   7.198   7.833  12.826
90639W        W58980  32.550  34.460  14.832
90640W        W58981  24.542  15.809  10.644
90641W        W58982  21.135   8.780   2.880
90642W        W58983  34.934  30.558  11.957
90643W        W58984  43.514  36.919  14.799
90644W        W58985  44.931   0.404   4.768
90645W        W58986  13.328  19.110   0.779
90646W        W58987  18.095   9.661   0.870
90647W        W58988  26.667  17.667   0.839
90648W        W58989   0.846  32.003   0.328
90649W        W58990  19.226  15.159  14.456
90650W        W58991  14.782   3.864  13.388
90651W        W58992  19.081   6.220   4.211
90652W        W58993  26.460  44.273   3.338
90653W        W58994  27.644   6.748   3.186
90654W        W58995  40.366   7.778  10.968
90655W        W58996  38.072  31.432  12.412
90656W        W58997  28.555  33.561  12.072
90657W        W58998  19.548  37.982   2.877
90658W        W58999   8.224  33.014  12.055
90659W        W59000   0.887  22.557   3.869
90660W        W59001  23.644  41.479   1.860
90661W        W59002  36.979  23.633   1.368
90662W        W59003  42.926   9.829   0.810
90663W        W59004  15.150  10.799   3.666
90664W        W59005  30.146   2.849   1.735
90665W        W59006   0.471  13.223  10.521
90666W        W59007   4.354  32.108  10.541
90667W        W59008   4.406   5.404  13.803
90668W        W59009  15.118   7.407  13.371
90669W        W59010   0.253  25.623   0.788
90670W        W59011  10.776   9.305   0.902
90671W        W59012  24.546  36.066   0.418
90672W        W59013  41.440   2.963  14.337
90673W        W59014  10.139   4.871  10.440
90674W        W59015   8.399  32.085  12.982
90675W        W59016  37.535  42.484   3.283
90676W        W59017  30.964  40.516  10.051
90677W        W59018  12.630  33.565   4.693
90678W        W59019   2.955  36.541  14.849
90679W        W59020  39.883  43.939  12.993
90680W        W59021   2.929  40.375   1.449
90681W        W59022  37.935   1.892   2.878
90682W        W59023  38.499  30.426  11.098
90683W        W59024  14.208   8.355   4.821
90684W        W59025   6.251   2.744   0.375
90685W        W59026   2.840  32.906   2.389
90686W        W59027   9.322  39.386  13.345
90687W        W59028  32.903  35.524   2.672
90688W        W59029  35.412  13.633   0.879
90689W        W59030  23.100  43.836   1.747
90690W        W59031   9.239  12.118  10.542
90691W        W59032  40.807   9.841  13.817
90692W        W59033   6.764   3.325   1.283
90693W        W59034  14.228  34.081   4.635
90694W        W59035   0.860   8.878   5.109
90695W        W59036   4.379  43.871  10.455
90696W        W59037  13.268   2.923   2.348
90697W        W59038   0.348  12.248  11.001
90698W        W59039  16.667  10.334   0.842
90699W        W59040  23.117  16.182  12.983
90700W        W59041  30.605  25.500   4.688
90701W        W59042  18.779  14.804  14.332
90702W        W59043  23.549  11.315   3.745
90703W        W59044  30.042  27.675   3.147
90704W        W59045   1.451  42.845  14.396
90705W        W59046  43.803   1.397  13.976
90706W        W59047  27.574  14.802  13.525
90707W        W59048  44.895  27.544   3.664
90708W        W59049  25.670  23.563   3.315
90709W        W59050  38.820  22.664   5.256
90710W        W59051  30.586  25.206  12.457
90711W        W59052  25.006  43.360  11.557
90712W        W59053  18.273  14.339  10.917
90713W        W59054  22.085  30.138  10.930
90714W        W59055  43.958  24.050   0.431
90715W        W59056   8.856  31.953  11.393
90716W        W59057  13.762   3.385   0.421
90717W        W59058  30.423  25.620  12.841
90718W        W59059  30.623  26.483  12.428
90719W        W59060  37.044  20.220  10.433
90720W        W59061  21.673  12.339   0.481
90721W        W59062  39.974  20.125   1.935
90722W        W59063  26.566  43.808  13.507
90723W        W59064  36.352  21.572   3.325
90724W        W59065  17.171  24.498   3.257
90725W        W59066  23.076  33.131  12.855
90726W        W59067  33.048  30.946   3.792
90727W        W59068   9.309  42.931   1.894
90728W        W59069   8.808  28.116   1.215
90729W        W59070  15.738   5.745   0.745
90730W        W59071  35.598   9.677   1.839
90731W        W59072  18.663  39.506  11.505
90732W        W59073  37.431  43.396  10.636
90733W        W59074   4.826  37.063  12.381
90734W        W59075  28.485  32.936   2.867
90735W        W59076  13.819  38.822  13.831
90736W        W59077  33.431  34.971  12.038
90737W        W59078   4.909  11.331   1.287
90738W        W59079   7.735  23.137   0.302
90739W        W59080  20.584  22.168  13.961
90740W        W59081  10.168  26.691   4.726
90741W        W59082  40.032  32.628  11.396
90742W        W59083  20.540  24.722  14.806
90743W        W59084  15.764  25.645   2.348
90744W        W59085  38.903  42.900   3.346
90745W        W59086  14.258  26.533  14.879
90746W        W59087  17.792  26.517   2.670
90747W        W59088  40.486   5.908   3.269
90748W        W59089  36.575   8.334  13.505
90749W        W59090  17.649   5.706   2.867
90750W        W59091  44.397  26.481   2.727
90751W        W59092   3.923   3.281  10.406
90752W        W59093  40.427  26.154  13.395
90753W        W59094   6.838   2.905   1.804
90754W        W59095  37.052  34.531  11.071
90755W        W59096  25.984  21.244  13.836
90756W        W59097   2.291   1.895   2.216
90757W        W59098   4.803  39.331  11.407
90758W        W59099   9.725  33.591   0.815
90759W        W59100  26.066   2.874  13.886
90760W        W59101  33.975   9.828   3.166
90761W        W59102  10.195  22.147   4.235
90762W        W59103  37.869  17.701  13.397
90763W        W59104  31.063   2.752   1.816
90764W        W59105  20.031  21.079   5.294
90765W        W59106  44.782  23.199   4.307
90766W        W59107  37.402  10.332   5.321
90767W        W59108  36.476  40.457  13.544
90768W        W59109   1.287  23.993  11.385
90769W        W59110   9.334  39.953  12.986
90770W        W59111   1.777  11.354  13.454
90771W        W59112   1.905  21.610   2.902
90772W        W59113  25.635   2.265  13.917
90773W        W59114  24.023  10.138   0.337
90774W        W59115   5.860  19.608   4.763
90775W        W59116  23.140   0.969  11.961
90776W        W59117  44.795  13.809   4.337
90777W        W59118  10.284  29.571   4.122
90778W        W59119  18.197   6.710   4.659
90779W        W59120  27.161  18.109  13.920
90780W        W59121  11.803  23.069  13.501
90781W        W59122  27.453  23.064   4.791
90782W        W59123   7.901   4.228   3.871
90783W        W59124  15.802  39.413  10.632
90784W        W59125  30.501  41.441   4.114
90785W        W59126  16.199  23.154  10.642
90786W        W59127   3.831  27.692  11.925
90787W        W59128  28.047  44.878  10.000
90788W        W59129  40.946  11.294   3.354
90789W        W59130  44.414  17.622   1.232
90790W        W59131  20.096  33.436   4.289
90791W        W59132  29.566   9.361  13.927
90792W        W59133  22.243  37.913  12.081
90793W        W59134  23.217   3.319   5.137
90794W        W59135   8.716  17.305   3.334
90795W        W59136  34.069  29.012  11.410
90796W        W59137  32.120  28.452   2.341
90797W        W59138   0.938  44.423   3.192
90798W        W59139  44.765  43.785   0.939
90799W        W59140   4.313   2.300   2.758
90800W        W59141  20.101  33.884  14.821
90801W        W59142  35.517  36.021   2.407
90802W        W59143  40.911  12.129   0.795
90803W        W59144  18.097  20.175  11.485
90804W        W59145  13.284  12.761   3.768
90805W        W59146   9.788  34.526   1.379
90806W        W59147  38.992  40.515   4.124
90807W        W59148  34.615  19.197  11.123
90808W        W59149  36.352  38.345  12.047
90809W        W59150  37.548  40.803   3.662
90810W        W59151  15.623   4.856  11.498
90811W        W59152  15.186  30.452  11.916
90812W        W59153   5.902   2.250   2.901
90813W        W59154  14.227  36.090   2.669
90814W        W59155  23.164   0.921   2.270
90815W        W59156  35.077  41.040  11.566
90816W        W59157  28.002  19.584   2.399
90817W        W59158   9.648  19.605   4.145
90818W        W59159  32.562  22.151   1.297
90819W        W59160  12.306  22.623   1.759
90820W        W59161  27.006  11.310   4.115
90821W        W59162  44.791  37.849  10.440
90822W        W59163  24.544  10.654  12.493
90823W        W59164  12.743  10.740  13.315
90824W        W59165  11.297  11.173   0.305
90825W        W59166  22.635  25.180   4.339
90826W        W59167  13.111   2.263  14.784
90827W        W59168  38.937  42.360  12.846
90828W        W59169  25.125  37.032  13.838
90829W        W59170  18.636   7.212   2.206
90830W        W59171  39.456  13.654   1.780
90831W        W59172  39.524  24.185  12.391
90832W        W59173  18.263  26.059   3.713
90833W        W59174  14.319  16.241  11.502
90834W        W59175  34.539  27.608  13.436
90835W        W59176  23.702   6.237   0.759
90836W        W59177   0.485  30.948  11.011
90837W        W59178  17.567   1.388  12.977
90838W        W59179   0.917  32.606  14.998
90839W        W59180   6.415  31.916   3.743
90840W        W59181  43.795   6.717  14.019
90841W        W59182  23.143  43.373   3.688
90842W        W59183  18.586  18.165  11.930
90843W        W59184  43.911  26.965  10.533
90844W        W59185   0.845  33.530   0.249
90845W        W59186  28.511  23.159  11.569
90846W        W59187   0.362  41.499   0.817
90847W        W59188   4.387   5.313   2.890
90848W        W59189  22.531  12.183   2.413
90849W        W59190  12.330  24.163   2.196
90850W        W59191  43.516  29.591  11.397
90851W        W59192  42.385  36.495  12.855
90852W        W59193  16.222  40.436   4.181
90853W        W59194  40.465  42.333   2.706
90854W        W59195  12.634  36.563   4.248
90855W        W59196  37.534   5.334  11.862
90856W        W59197  11.212  11.155  13.493
90857W        W59198  40.325  32.551  13.979
90858W        W59199  23.557  15.101  14.845
90859W        W59200  40.549  42.362  11.057
90860W        W59201   4.918   5.242  13.349
90861W        W59202   7.273  15.723   0.453
90862W        W59203   5.438  22.575  11.954
90863W        W59204   9.220  13.741  13.884
90864W        W59205   3.955  27.946   3.850
90865W        W59206  18.270  40.347   2.258
90866W        W59207   7.367   7.799   4.170
90867W        W59208   7.753  19.632   5.319
90868W        W59209  10.831  22.138  13.546
90869W        W59210  40.809   8.688   2.875
90870W        W59211   4.280  31.553  13.354
90871W        W59212   1.927  28.073   0.251
90872W        W59213   9.678  13.106   1.422
90873W        W59214  23.088  40.497  13.361
90874W        W59215  39.810  33.074  11.569
90875W        W59216  30.154  18.613  11.087
90876W        W59217   1.790  42.388   3.761
90877W        W59218   2.823  31.467  14.367
90878W        W59219  16.252  22.241  13.883
90879W        W59220  43.894  35.096  12.343
90880W        W59221  14.172   4.779   1.297
90881W        W59222  22.235  36.930   4.724
90882W        W59223  14.178  24.648  12.836
90883W        W59224   6.399  16.782  13.457
90884W        W59225  10.261  31.989   5.178
90885W        W59226  42.389  14.173  11.609
90886W        W59227   7.906   5.759  10.521
90887W        W59228  41.438  19.256  12.450
90888W        W59229  14.646   0.798  14.389
90889W        W59230   4.851  33.985   2.403
90890W        W59231  44.316  40.050  12.456
90891W        W59232   3.403  40.833  10.580
90892W        W59233  31.407  33.880  11.420
90893W        W59234  41.443  32.453   1.285
90894W        W59235  25.083  34.460   4.771
90895W        W59236  36.007  18.211  13.438
90896W        W59237  17.122  16.753  12.934
90897W        W59238  16.187  22.653  12.047
90898W        W59239   6.183  38.483   3.629
90899W        W59240  30.431  18.074  13.008
90900W        W59241  38.012  41.299  10.414
90901W        W59242  29.503  44.010  12.944
90902W        W59243   5.925  28.157   3.272
90903W        W59244   1.893  34.522   3.860
90904W        W59245   1.967  44.881   4.254
90905W        W59246   0.953   7.811   0.754
90906W        W59247  32.009  34.408  14.825
90907W        W59248  25.510  27.499  14.003
90908W        W59249  27.484  12.324  14.382
90909W        W59250  27.644  39.932  12.470
90910W        W59251  21.257   5.720   1.329
90911W        W59252  17.651   4.444   0.921
90912W        W59253  43.303  26.190   0.481
90913W        W59254  23.690   2.792   1.241
90914W        W59255  17.095  20.540   2.289
90915W        W59256  27.564  28.579  10.108
90916W        W59257  26.140  28.562  14.407
90917W        W59258  19.100   7.859   4.268
90918W        W59259   2.813  30.447  12.480
90919W        W59260  44.810  18.078  12.984
90920W        W59261   7.350  25.651   0.886
90921W        W59262   6.247  41.971  14.388
90922W        W59263  15.183  20.222   1.774
90923W        W59264  36.940  26.700   0.947
90924W        W59265   0.478  22.100  11.590
90925W        W59266  19.137  42.912  12.906
90926W        W59267  19.536  12.840  13.021
90927W        W59268   8.654  36.447   3.342
90928W        W59269  42.984   6.696  13.339
90929W        W59270  31.015  26.044   3.258
90930W        W59271   4.723  44.771  14.287
90931W        W59272  44.769  41.334  13.063
90932W        W59273   8.308  38.866  10.506
90933W        W59274  37.562   0.307   4.292
90934W        W59275   8.827  24.490  13.984
90935W        W59276  37.435   4.821  12.559
90936W        W59277  31.115  44.845  14.368
90937W        W59278   7.177   1.261   4.189
90938W        W59279   7.669  43.869   1.730
90939W        W59280  32.401  32.955   3.712
90940W        W59281  14.595  11.709   2.709
90941W        W59282  40.339  21.150  13.388
90942W        W59283  22.179  35.926   4.231
90943W        W59284  33.987  12.649   1.223
90944W        W59285  33.622  16.806   3.680
90945W        W59286  19.615  24.196  10.465
90946W        W59287  16.740  18.752  10.564
90947W        W59288  31.476  11.769   1.267
90948W        W59289  26.195  19.549   0.352
90949W        W59290   0.336   8.168  11.895
90950W        W59291   8.789  29.547  13.516
90951W        W59292   0.787  10.224  10.027
90952W        W59293   5.220  33.049  10.571
90953W        W59294  42.453  17.093   1.408
90954W        W59295  39.923   3.780   3.335
90955W        W59296  32.469  24.177  12.530
90956W        W59297  24.222  21.721  14.296
90957W        W59298  26.623  40.487   2.235
90958W        W59299  30.077  15.158  11.121
90959W        W59300  27.013  10.265  11.936
90960W        W59301  12.763   0.268  10.938
90961W        W59302  33.116  36.017  11.127
90962W        W59303  28.089  41.459  12.402
90963W        W59304  29.131   3.872  13.953
90964W        W59305  33.612   1.863   0.357
90965W        W59306  39.404  11.710  10.046
90966W        W59307  20.548  23.131   2.729
90967W        W59308  16.653  33.926  11.876
90968W        W59309  14.625  40.382   3.371
90969W        W59310   0.875  17.728   4.763
90970W        W59311  34.466  23.544   4.137
90971W        W59312   3.440  26.167  12.374
90972W        W59313  42.409  41.336  13.499
90973W        W59314  18.146  28.174  12.053
90974W        W59315   9.830  43.854   0.916
90975W        W59316  41.797   6.261   4.757
90976W        W59317  35.935  24.172  14.000
90977W        W59318  12.696   5.251   2.884
90978W        W59319  36.042  44.756   1.279
90979W        W59320  31.932  13.661   0.729
90980W        W59321  15.580   7.206   4.266
90981W        W59322   9.650  24.202   1.790
90982W        W59323  43.843  28.645   1.857
90983W        W59324  34.979  34.890   1.400
90984W        W59325  17.298  14.738   0.757
90985W        W59326  21.255  29.164   1.708
90986W        W59327  43.968  39.552  11.413
90987W        W59328  29.009  18.172  12.512
90988W        W59329  27.171  19.286   0.473
90989W        W59330   1.851   2.375  12.954
90990W        W59331  17.573  20.190  11.411
90991W        W59332  19.621  30.548   2.335
90992W        W59333  18.628   7.329   2.769
90993W        W59334  28.159  26.171  13.875
90994W        W59335  31.491  37.026   1.401
90995W        W59336   3.268  35.049  12.061
90996W        W59337   5.320  11.826   9.996
90997W        W59338  26.146   0.277  13.541
90998W        W59339  32.555   3.778   3.235
90999W        W59340   2.254   7.327  10.014
91000W        W59341   9.283  35.429  12.361
91001W        W59342  17.225  42.490   0.341
91002W        W59343  44.300   1.778   9.962
91003W        W59344  39.320  38.487  14.929
91004W        W59345   3.744  26.171  11.879
91005W        W59346  11.141   9.394   2.284
91006W        W59347  19.721   2.787  14.378
91007W        W59348  20.730  37.011  10.574
91008W        W59349  21.217  24.189  10.468
91009W        W59350  40.024  39.367  13.828
91010W        W59351  24.654  38.462   2.779
91011W        W59352   3.761  37.946  10.891
91012W        W59353  31.616   5.708  10.575
91013W        W59354  19.609  16.718   1.747
91014W        W59355   1.474  13.316   3.651
91015W        W59356  12.362  32.520   2.266
91016W        W59357  40.347  14.329   4.217
91017W        W59358   2.251  27.690   1.903
91018W        W59359  36.455   0.757  11.540
91019W        W59360   7.414  19.267  10.629
91020W        W59361  28.023   6.274   2.675
91021W        W59362  11.661  12.646  13.903
91022W        W59363  25.472  38.915  11.427
91023W        W59364  39.538   8.344   2.697
91024W        W59365  33.544  14.182  14.955
91025W        W59366  30.930  32.415  11.977
91026W        W59367  35.600  39.886   0.928
91027W        W59368  42.492  22.606   0.927
91028W        W59369   4.829  21.124  10.574
91029W        W59370   3.222  13.612   1.752
91030W        W59371  28.957  33.493   0.802
91031W        W59372  23.164  36.991   3.842
91032W        W59373  23.545  41.042  12.867
91033W        W59374  32.485   7.224   2.319
91034W        W59375  35.908  39.550  12.554
91035W        W59376  23.724  41.795   2.252
91036W        W59377  41.506  26.585  14.980
91037W        W59378  24.215  15.587   3.215
91038W        W59379  19.198  37.364  11.086
91039W        W59380  23.719   3.392  12.348
91040W        W59381   2.265   6.318   0.479
91041W        W59382  33.596  23.603  11.587
91042W        W59383   3.903  39.375   0.736
91043W        W59384  37.523  40.522  10.447
91044W        W59385   8.168   2.906   1.257
91045W        W59386  12.612  18.700  13.365
91046W        W59387  24.703  30.024   1.934
91047W        W59388   9.307  42.507   3.154
91048W        W59389  41.299  14.205   2.218
91049W        W59390   0.276  36.494  14.967
91050W        W59391  37.868  20.703  12.489
91051W        W59392   3.222  22.141   3.853
91052W        W59393  37.952  31.997   5.198
91053W        W59394   6.717   6.290  12.361
91054W        W59395   0.761  20.622  14.913
91055W        W59396   9.185  18.735   4.804
91056W        W59397  17.695  42.292   1.323
91057W        W59398  41.359  27.446  14.381
91058W        W59399   2.238  20.224   4.127
91059W        W59400  25.640  34.115   3.837
91060W        W59401  17.184  23.021  14.819
91061W        W59402  34.098  33.984  11.096
91062W        W59403   7.808  28.054   4.246
91063W        W59404  29.462  16.624   0.959
91064W        W59405  12.291  33.623  14.889
91065W        W59406  28.933   4.930  11.068
91066W        W59407  24.068  10.726  13.361
91067W        W59408  36.410  34.943  11.071
91068W        W59409   2.264  27.594   0.347
91069W        W59410  18.757  17.149  14.909
91070W        W59411  12.628  19.067   2.390
91071W        W59412  43.513  43.967   3.256
91072W        W59413  23.193   9.774  10.492
91073W        W59414  35.854  28.982  13.350
91074W        W59415  11.659  31.584  13.527
91075W        W59416   8.165   7.746  13.322
91076W        W59417  28.994   5.851   2.793
91077W        W59418   7.326   1.840  10.453
91078W        W59419  29.169  27.675  11.940
91079W        W59420  28.065  16.194   1.896
91080W        W59421  24.667  18.285  13.926
91081W        W59422   3.352  28.039  11.129
91082W        W59423   8.268  10.247  11.523
91083W        W59424   4.817  34.904   2.288
91084W        W59425  38.874  36.537  13.932
91085W        W59426  40.955   5.806  10.430
91086W        W59427  18.776  30.567   2.752
91087W        W59428  18.157  14.240   4.354
91088W        W59429  37.003   5.700  12.968
91089W        W59430  23.233  23.509  10.476
91090W        W59431  32.504   9.290  12.572
91091W        W59432   4.444  21.517  12.468
91092W        W59433  29.450  41.474   4.642
91093W        W59434  10.198  17.603  13.800
91094W        W59435  30.114  21.238   2.247
91095W        W59436  16.181  42.838   3.278
91096W        W59437  27.961  27.449  12.436
91097W        W59438  16.678  44.287  14.421
91098W        W59439   4.810  40.903   2.763
91099W        W59440  31.442  19.741  12.432
91100W        W59441  42.878  33.522   0.330
91101W        W59442   6.887  27.193   4.739
91102W        W59443  31.139   2.400   0.386
91103W        W59444  33.001  30.462   0.884
91104W        W59445  43.999  36.035  13.460
91105W        W59446   2.298  25.087   4.144
91106W        W59447  14.316  39.458   0.908
91107W        W59448   2.858   9.851   0.865
91108W        W59449  36.472  25.687  10.635
91109W        W59450  39.447  11.641   0.404
91110W        W59451   8.336  18.752  11.856
91111W        W59452  31.602  30.503   0.271
91112W        W59453  12.207  36.377  14.433
91113W        W59454  20.698   5.256  14.969
91114W        W59455  22.593  35.873  13.507
91115W        W59456  44.501  34.396   9.986
91116W        W59457  22.601  42.785   3.779
91117W        W59458  15.245  23.732   5.686
91118W        W59459  30.942  30.040   2.808
91119W        W59460  28.081  30.994  10.562
91120W        W59461  11.837   3.229   1.296
91121W        W59462  36.979  11.655   2.357
91122W        W59463  28.581  33.105  14.018
91123W        W59464   8.859  43.858  11.044
91124W        W59465   0.309   1.837   2.313
91125W        W59466  14.272  34.042  10.081
91126W        W59467  13.192  21.199   2.214
91127W        W59468  19.679  29.431  11.101
91128W        W59469  15.162  10.268  14.887
91129W        W59470   4.783  37.372  13.892
91130W        W59471   2.376  33.438   1.729
91131W        W59472  23.636  16.108   5.637
91132W        W59473  12.805   2.905  14.914
91133W        W59474  16.590  10.722   1.754
91134W        W59475  30.945   0.814   5.116
91135W        W59476  39.968  30.997  10.605
91136W        W59477  43.820  37.075   4.124
91137W        W59478   7.904   4.805  10.071
91138W        W59479  25.578  35.960   4.733
91139W        W59480  25.190  44.475  11.982
91140W        W59481  27.613   5.352   0.400
91141W        W59482  30.141  34.562   3.182
91142W        W59483  39.870  19.240   0.778
91143W        W59484  36.052  11.185   2.735
91144W        W59485  36.554  37.043  12.031
91145W        W59486  41.038   7.725  11.925
91146W        W59487   5.406  36.460   1.756
91147W        W59488   9.815  38.384   1.361
91148W        W59489  16.158   5.804   1.440
91149W        W59490  13.112  19.743  14.280
91150W        W59491  18.084  19.112  10.952
91151W        W59492  30.961  22.233  13.885
91152W        W59493  36.923   4.340   4.723
91153W        W59494   5.889  26.962   3.258
91154W        W59495   4.300  39.844  12.452
91155W        W59496   8.825   8.700   3.861
91156W        W59497  25.684  44.429   2.409
91157W        W59498  42.975  14.753   0.955
91158W        W59499  17.793  40.980  12.045
91159W        W59500  18.094  43.977   4.793
91160W        W59501  23.150  21.557   1.445
91161W        W59502   8.891   0.862  10.969
91162W        W59503  44.950  31.434  13.794
91163W        W59504  15.130  24.045  10.527
91164W        W59505  42.359  25.115  13.912
91165W        W59506  22.729   5.258   3.224
91166W        W59507   2.793  17.241  13.888
91167W        W59508   8.835  35.875  12.050
91168W        W59509   1.454  44.432  12.410
91169W        W59510  12.702  13.651   2.341
91170W        W59511  33.516  11.132   0.413
91171W        W59512   8.734  21.106  11.478
91172W        W59513  11.863  29.100  10.619
91173W        W59514  43.909  33.001  11.039
91174W        W59515  44.798  19.218  12.884
91175W        W59516  27.623  25.154  14.973
91176W        W59517  33.590  31.556  12.572
91177W        W59518  32.971  35.509  13.842
91178W        W59519  13.778  22.047   4.791
91179W        W59520  13.798  39.012  12.379
91180W        W59521  37.427  16.171  12.435
91181W        W59522  21.193  16.250  12.023
91182W        W59523  20.544  43.434  13.854
91183W        W59524  42.953  17.133   5.263
91184W        W59525   8.700  38.994   4.748
91185W        W59526  21.533  37.486  10.925
91186W        W59527  26.528  41.837   4.615
91187W        W59528  16.209  14.329  10.940
91188W        W59529  25.015  38.549  12.936
91189W        W59530  21.124  39.323   3.315
91190W        W59531  14.114  32.622  10.537
91191W        W59532  44.005  37.533   2.824
91192W        W59533  42.291  11.862  10.538
91193W        W59534  19.762   2.302   3.783
91194W        W59535   4.818  13.252  14.813
91195W        W59536  30.113   3.899  13.412
91196W        W59537  36.914  29.557  11.492
91197W        W59538  29.665  22.602   3.802
91198W        W59539  34.911  12.750   4.709
91199W        W59540  20.202  33.426   4.758
91200W        W59541  33.434  21.213   4.795
91201W        W59542  33.564  29.139   1.305
91202W        W59543  10.791  44.329  13.830
91203W        W59544   0.467  13.727  13.864
91204W        W59545  10.726  41.004   1.852
91205W        W59546  37.080   1.443  11.874
91206W        W59547   1.265  44.835  14.402
91207W        W59548  16.155  10.217  13.374
91208W        W59549  17.750  31.007   1.733
91209W        W59550  17.637  20.561   4.729
91210W        W59551  14.777  30.155   0.288
91211W        W59552  38.390  23.643   1.397
91212W        W59553   2.296  22.552   0.861
91213W        W59554  24.088  34.913   1.818
91214W        W59555   3.280  15.587  10.000
91215W        W59556  14.628  27.610  14.458
91216W        W59557   2.909  26.694   4.261
91217W        W59558  22.120   5.877  11.972
91218W        W59559  13.729  27.112  11.127
91219W        W59560  31.423  43.308   1.406
91220W        W59561  31.599  36.956  12.496
91221W        W59562   7.745  40.819   2.849
91222W        W59563  41.339   4.320  10.491
91223W        W59564  15.588  20.530   0.401
91224W        W59565  30.009  35.090  11.611
91225W        W59566   4.424  26.541  11.385
91226W        W59567  10.363   2.754   2.263
91227W        W59568  17.596   5.299  10.420
91228W        W59569  20.542  44.490   0.437
91229W        W59570  34.578  43.313  13.455
91230W        W59571  39.869   6.791  13.543
91231W        W59572  40.419   7.853   0.448
91232W        W59573   6.414  26.998  13.056
91233W        W59574  44.888  38.495  10.985
91234W        W59575  13.141   5.780   0.901
91235W        W59576  40.407  19.585   1.293
91236W        W59577  14.254  26.038   3.355
91237W        W59578  37.058  15.291  12.397
91238W        W59579   2.950  44.375   4.353
91239W        W59580  39.512  33.986  10.634
91240W        W59581  43.888  40.398  13.338
91241W        W59582  40.018  38.435   1.854
91242W        W59583  35.966  22.250   2.419
91243W        W59584  18.172  32.533  12.578
91244W        W59585   4.378   4.891   4.780
91245W        W59586  36.849   3.886  11.385
91246W        W59587   2.344  30.935  12.914
91247W        W59588  33.959  26.614   1.236
91248W        W59589   4.329  38.501   1.719
91249W        W59590  22.719  14.600   4.770
91250W        W59591  12.124   0.286   2.821
91251W        W59592  23.018  16.227  13.427
91252W        W59593   3.942   9.805   1.435
91253W        W59594  27.083  25.573   3.199
91254W        W59595  36.854  16.291   0.960
91255W        W59596  29.614  15.783  10.092
91256W        W59597  36.496   0.826   1.824
91257W        W59598  31.444  29.964   2.703
91258W        W59599  17.698  25.065   0.755
91259W        W59600  36.984  14.296   4.251
91260W        W59601  33.438  19.193   3.805
91261W        W59602  28.936  32.462   1.707
91262W        W59603  20.037  10.753  11.394
91263W        W59604  40.334   9.750   0.436
91264W        W59605  17.562  27.973  12.092
91265W        W59606  41.301  33.946   3.678
91266W        W59607  28.485  30.076  12.513
91267W        W59608  40.879  25.095   3.701
91268W        W59609  33.463   4.808  10.536
91269W        W59610   1.265  40.436   0.327
91270W        W59611  30.526  19.165  11.112
91271W        W59612  32.602  21.042   2.238
91272W        W59613  35.443   0.310   4.766
91273W        W59614  34.867  19.194  14.784
91274W        W59615  38.458  19.737   2.283
91275W        W59616  28.490  29.985   2.200
91276W        W59617  11.291  29.059  11.528
91277W        W59618   4.344   4.287  14.827
91278W        W59619  40.402  10.757  10.534
91279W        W59620   4.704   7.374  11.084
91280W        W59621  39.452  27.955  10.988
91281W        W59622   9.301  18.245   2.378
91282W        W59623  42.388  16.154  11.557
91283W        W59624  44.401  14.675  13.866
91284W        W59625  40.997  15.298   1.435
91285W        W59626  13.843  32.409   0.278
91286W        W59627  10.643  37.435  12.050
91287W        W59628  31.553  13.155  13.476
91288W        W59629   1.307  37.422   3.785
91289W        W59630   8.790  25.150   3.272
91290W        W59631   7.284  21.589  11.047
91291W        W59632   3.800  14.806   0.416
91292W        W59633  11.346  28.176  11.084
91293W        W59634  37.935  40.514  14.444
91294W        W59635   4.723  28.944  13.807
91295W        W59636   2.393  27.169  14.880
91296W        W59637  12.341   5.193   0.854
91297W        W59638   7.775  32.474  14.423
91298W        W59639  17.801   4.877   4.309
91299W        W59640  39.060  13.150   4.634
91300W        W59641  20.712  11.678  13.512
91301W        W59642  15.673  10.871   0.912
91302W        W59643  12.658  13.288   4.161
91303W        W59644  36.924  36.523   3.210
91304W        W59645  18.726  18.781   4.236
91305W        W59646  24.711   2.389  12.506
91306W        W59647  10.265  25.125  14.506
91307W        W59648  11.740  37.956   0.940
91308W        W59649  32.989  27.670   2.408
91309W        W59650   5.435   0.399  13.812
91310W        W59651  18.766  10.842  12.960
91311W        W59652  38.569  18.741  10.597
91312W        W59653   6.333  26.489  11.082
91313W        W59654  23.218   9.374  12.976
91314W        W59655  39.012  22.525   3.663
91315W        W59656   7.283   5.814   4.165
91316W        W59657  17.682  39.537   0.846
91317W        W59658  23.161  18.722   0.880
91318W        W59659  40.356  14.640  11.443
91319W        W59660   9.753  13.608  12.341
91320W        W59661   1.975  14.278   2.715
91321W        W59662  31.524  24.134   0.377
91322W        W59663  28.543  25.654   0.958
91323W        W59664  14.672  33.601   4.675
91324W        W59665  43.462  37.536  10.016
91325W        W59666  24.057  39.507  11.494
91326W        W59667  17.716   4.267  13.942
91327W        W59668  37.369  11.866  14.470
91328W        W59669  39.340  22.231   2.185
91329W        W59670  30.426   6.694  11.978
91330W        W59671  35.484  34.981  13.405
91331W        W59672  36.036  22.598  12.845
91332W        W59673  24.544  34.070  13.846
91333W        W59674   9.696  15.179  11.101
91334W        W59675   4.864   9.375  12.836
91335W        W59676  35.519  33.003  13.876
91336W        W59677  28.156   3.863  11.535
91337W        W59678  38.898   4.939  13.876
91338W        W59679  21.135  11.683   5.093
91339W        W59680  39.826  33.975  13.376
91340W        W59681  10.312   1.868  14.287
91341W        W59682  27.986  27.480  14.425
91342W        W59683  25.023  41.961   2.231
91343W        W59684  44.940  35.882   2.846
91344W        W59685  33.443  28.052  11.991
91345W        W59686   8.826  44.829   0.905
91346W        W59687  33.608  41.815   1.850
91347W        W59688   2.783  35.104  14.821
91348W        W59689  22.681  35.893   2.895
91349W        W59690   8.204  39.838  12.512
91350W        W59691   9.183  27.540  14.817
91351W        W59692   4.928   1.446   4.753
91352W        W59693  11.254  18.173  14.006
91353W        W59694  12.703  39.064  11.969
91354W        W59695  43.868  18.225  12.468
91355W        W59696  22.141  14.220  10.950
91356W        W59697  13.843   4.711  12.038
91357W        W59698  36.357   3.233   3.783
91358W        W59699  30.148   9.237  10.584
91359W        W59700  41.019  41.451   3.629
91360W        W59701  22.143  33.545  13.842
91361W        W59702   0.809  11.239   1.914
91362W        W59703   2.302  42.353   0.244
91363W        W59704   3.400   6.836   3.284
91364W        W59705  43.868  29.969  14.875
91365W        W59706  11.308  42.354   0.964
91366W        W59707   3.447  38.546   2.316
91367W        W59708   0.266  36.456   2.736
91368W        W59709  25.122  29.665   9.541
91369W        W59710  16.743   5.687   3.690
91370W        W59711  31.103  30.029  14.880
91371W        W59712  43.944  11.251   1.319
91372W        W59713  33.021  23.159   1.384
91373W        W59714  31.533  14.238  12.857
91374W        W59715   1.302   9.333   2.323
91375W        W59716  30.578  41.021  11.432
91376W        W59717  38.441  44.791   1.377
91377W        W59718  40.007  40.307  11.857
91378W        W59719  43.955   2.376  11.403
91379W        W59720  30.483  19.615   2.303
91380W        W59721  11.216  44.363   2.821
91381W        W59722  13.150   9.215  11.958
91382W        W59723  19.142   6.832  12.995
91383W        W59724  43.291  15.768  11.988
91384W        W59725  28.595  36.383  11.042
91385W        W59726   1.442   4.342   1.878
91386W        W59727  32.063   3.752   4.817
91387W        W59728  37.835   1.740  11.458
91388W        W59729  32.520  26.673   0.833
91389W        W59730   7.271  30.416  12.075
91390W        W59731  21.041  12.705   4.275
91391W        W59732  13.637  21.188   2.759
91392W        W59733   9.331  44.446   1.405
91393W        W59734  35.558  10.255   9.965
91394W        W59735  39.861  25.126  11.432
91395W        W59736   9.678   7.254  10.512
91396W        W59737  11.180  12.117   2.357
91397W        W59738   9.831  42.365   3.704
91398W        W59739  12.331  31.131   2.220
91399W        W59740  38.020  23.504   5.161
91400W        W59741  43.864   2.921   1.293
91401W        W59742  26.964  34.983   4.813
91402W        W59743   5.902   5.772  11.451
91403W        W59744  34.981  35.107   1.727
91404W        W59745  22.211  22.035   0.735
91405W        W59746  27.946  36.447   0.878
91406W        W59747  22.671  34.942  13.476
91407W        W59748  44.963  31.896   2.749
91408W        W59749  20.743  10.347  11.987
91409W        W59750  11.702  13.716   2.244
91410W        W59751  26.145  44.490   0.825
91411W        W59752  31.973  42.940   4.814
91412W        W59753   9.282  11.863   9.936
91413W        W59754  44.303   4.817  12.935
91414W        W59755  27.688  36.091   1.394
91415W        W59756   3.341   0.394   2.793
91416W        W59757  13.783  15.623  11.428
91417W        W59758  23.653   1.976  11.084
91418W        W59759  27.965  18.087  10.433
91419W        W59760   7.257  12.256   3.201
91420W        W59761  23.144  18.678  10.511
91421W        W59762  36.892  38.038   0.431
91422W        W59763  12.346   2.453  14.974
91423W        W59764  42.997  37.070  12.448
91424W        W59765  15.289  12.765  11.391
91425W        W59766   7.714  10.779   1.808
91426W        W59767  30.995   2.772  14.990
91427W        W59768  26.666  43.347   2.235
91428W        W59769   2.907   5.277   2.347
91429W        W59770  43.371  19.251   2.387
91430W        W59771  37.890   0.896  13.510
91431W        W59772  15.193   7.710   4.236
91432W        W59773  21.707  16.115   2.251
91433W        W59774   3.309  19.067  11.025
91434W        W59775  29.442   6.382   3.189
91435W        W59776   4.916  32.447   4.137
91436W        W59777  16.702  13.230   2.860
91437W        W59778   6.718  35.965  14.990
91438W        W59779  22.016  44.003  13.847
91439W        W59780  44.896  20.046  14.804
91440W        W59781  12.170  23.069  11.927
91441W        W59782  40.492  30.943   2.189
91442W        W59783  26.480  38.990   1.711
91443W        W59784  17.080  16.637  12.416
91444W        W59785  29.533   5.707  11.938
91445W        W59786  41.413   8.884   0.465
91446W        W59787  15.598  32.917   4.315
91447W        W59788  43.442  31.541  12.340
91448W        W59789  27.946  39.905  10.472
91449W        W59790  21.083  41.527  14.381
91450W        W59791  18.247   4.864   1.450
91451W        W59792  29.051  12.777   2.774
91452W        W59793   7.751  21.255   1.363
91453W        W59794  29.623  39.880  13.465
91454W        W59795  20.611  14.633  12.072
91455W        W59796  26.646   0.254   0.386
91456W        W59797  34.597  27.979  10.481
91457W        W59798  27.588   1.813   0.834
91458W        W59799   3.267  16.206  11.530
91459W        W59800  19.071  44.270   2.263
91460W        W59801  31.086  24.026   4.143
91461W        W59802  30.106  44.280  10.445
91462W        W59803  12.794  40.808   3.294
91463W        W59804  28.115  17.069  13.944
91464W        W59805  10.815  34.913   0.918
91465W        W59806  36.053  37.349   1.246
91466W        W59807  27.163  18.217   3.661
91467W        W59808  44.351  12.293  12.074
91468W        W59809  38.949   5.409   4.716
91469W        W59810  43.294  37.435   5.215
91470W        W59811  10.642  15.222   1.365
91471W        W59812  33.559   6.901  11.033
91472W        W59813  24.155  44.487   5.157
91473W        W59814  12.332  29.020   1.225
91474W        W59815  38.893  14.804  14.820
91475W        W59816  11.150   9.308   9.444
91476W        W59817  10.369   3.242   0.460
91477W        W59818  10.281  17.227  13.992
91478W        W59819  32.521   7.806  12.844
91479W        W59820   9.734  44.922   0.853
91480W        W59821   9.181  39.003   0.779
91481W        W59822  10.793  24.999  11.884
91482W        W59823  13.289  22.523  11.522
91483W        W59824  42.796  12.754   3.838
91484W        W59825  16.088  26.190  10.939
91485W        W59826   4.873  29.515   4.799
91486W        W59827  16.098  12.854   4.252
91487W        W59828  30.490  34.567   3.638
91488W        W59829   4.911  33.104   1.365
91489W        W59830   1.782   3.756  13.824
91490W        W59831  31.565  19.173   3.365
91491W        W59832  38.931  34.518  12.371
91492W        W59833  35.509  23.998   0.416
91493W        W59834  32.614   2.255  10.643
91494W        W59835  28.058   1.875  12.067
91495W        W59836   1.913  14.685  14.291
91496W        W59837  34.921  33.496  12.896
91497W        W59838  21.674   7.773   4.274
91498W        W59839  32.982  27.051   1.861
91499W        W59840  25.988  36.926   2.382
91500W        W59841  35.530   0.329   0.961
91501W        W59842  11.697   7.179  11.995
91502W        W59843   4.396  19.757  13.345
91503W        W59844  36.431  37.981  12.373
91504W        W59845  28.951  18.566   2.356
91505W        W59846   6.226  24.009   4.161
91506W        W59847  24.601   8.392   2.379
91507W        W59848  25.697  17.295   5.250
91508W        W59849  14.799  35.510  13.852
91509W        W59850   3.878  33.109   2.373
91510W        W59851  26.125   9.872  11.374
91511W        W59852   8.280  44.496  13.977
91512W        W59853   9.348  14.309  13.791
91513W        W59854   7.692   6.273   1.318
91514W        W59855  35.065  14.230  10.433
91515W        W59856   0.771  13.601   4.140
91516W        W59857  20.535   5.888  10.444
91517W        W59858  29.666  16.709  14.310
91518W        W59859  19.618  29.130  13.929
91519W        W59860  21.218  38.862   0.328
91520W        W59861  40.463  10.745   3.150
91521W        W59862  20.763   4.321  10.641
91522W        W59863  32.609  42.375   2.337
91523W        W59864   7.667  42.487  11.028
91524W        W59865  35.108  38.559   4.630
91525W        W59866  34.970   6.898   2.828
91526W        W59867  44.401  36.885  12.341
91527W        W59868  12.623  32.585  14.998
91528W        W59869  20.542  41.413  11.971
91529W        W59870  24.488  29.111   4.334
91530W        W59871   4.795  17.179   1.344
91531W        W59872  22.574  23.988  11.378
91532W        W59873  39.832  16.097   2.711
91533W        W59874  33.965  32.459  11.515
91534W        W59875  42.911  10.779   4.697
91535W        W59876  31.577  22.165   3.215
91536W        W59877  39.475  15.249   3.704
91537W        W59878  21.073  23.655  14.944
91538W        W59879  34.427   5.195  12.436
91539W        W59880  32.457  38.477   2.333
91540W        W59881  21.657   3.308  10.406
91541W        W59882  15.587  44.905   1.888
91542W        W59883  34.526   6.313   4.262
91543W        W59884  25.145  22.197  13.954
91544W        W59885  40.861  37.874   1.757
91545W        W59886  42.480  19.120   2.315
91546W        W59887  37.012  10.293   1.703
91547W        W59888  25.662   5.391   0.459
91548W        W59889  30.990  25.063  10.917
91549W        W59890  10.758  37.994   2.238
91550W        W59891  17.727  26.649   3.231
91551W        W59892  33.097   7.350   4.170
91552W        W59893  15.315  11.804  14.370
91553W        W59894  24.215  37.043   2.317
91554W        W59895  29.097  36.402  11.043
91555W        W59896  17.183  19.597  11.507
91556W        W59897  23.655  12.215   3.233
91557W        W59898  18.176  28.134   3.678
91558W        W59899  22.189  16.316  14.337
91559W        W59900   8.701  37.838  11.390
91560W        W59901  13.110  16.628  12.909
91561W        W59902  43.891   6.819   2.735
91562W        W59903  33.895  42.437   2.757
91563W        W59904   6.871  32.612   3.351
91564W        W59905  36.540  14.100  11.053
91565W        W59906  37.972  33.972  10.625
91566W        W59907  32.096  38.840   4.290
91567W        W59908   1.293  22.517  10.439
91568W        W59909  30.467  18.182  14.346
91569W        W59910   1.975  26.597   2.317
91570W        W59911  19.584   1.787   2.289
91571W        W59912  19.547  26.103   4.133
91572W        W59913  25.159  30.039   1.703
91573W        W59914  10.343   9.158   1.844
91574W        W59915  25.622  31.617  14.894
91575W        W59916  21.610  15.184   2.290
91576W        W59917  37.532   2.253   2.889
91577W        W59918   4.403  35.587   2.830
91578W        W59919  25.150   9.202  11.038
91579W        W59920   5.226   2.856  14.836
91580W        W59921  11.237  37.472   3.204
91581W        W59922  39.486  22.682   3.348
91582W        W59923  20.528   3.807   2.354
91583W        W59924  35.049  32.409   3.759
91584W        W59925   7.878   9.660  13.483
91585W        W59926  43.329   8.396   4.680
91586W        W59927  22.137  23.104   4.146
91587W        W59928  15.687   6.817   4.272
91588W        W59929   7.684  15.325   1.228
91589W        W59930  38.365  17.785   0.359
91590W        W59931  13.204  43.447  10.996
91591W        W59932   0.314  11.658   3.215
91592W        W59933   8.832  35.398   2.290
91593W        W59934  21.257   6.730  13.460
91594W        W59935   1.962   0.833  13.910
91595W        W59936   9.690  36.909   4.235
91596W        W59937  27.070   2.750  11.579
91597W        W59938  37.945  24.534  11.886
91598W        W59939  35.398  33.104   4.611
91599W        W59940  15.695  37.920   2.269
91600W        W59941   7.724  11.162   3.641
91601W        W59942  17.735  20.121   2.828
91602W        W59943  22.238  20.626  11.505
91603W        W59944  28.139   0.441   4.795
91604W        W59945  29.012  19.092  14.862
91605W        W59946  34.605  13.323   0.846
91606W        W59947  22.625   4.315   2.225
91607W        W59948  30.470  17.125   2.840
91608W        W59949  34.528  24.016   1.848
91609W        W59950   1.383   4.422  14.276
91610W        W59951   8.346   8.750   1.718
91611W        W59952  33.026  31.504   0.945
91612W        W59953  37.417  29.471   5.123
91613W        W59954  16.216  22.689  14.313
91614W        W59955   8.771  41.007  13.526
91615W        W59956  27.451  24.577  12.063
91616W        W59957  38.562  15.589   4.199
91617W        W59958  11.811  29.470   0.328
91618W        W59959  25.686  36.935   0.743
91619W        W59960  10.787  20.190   0.808
91620W        W59961  29.528  12.346  13.813
91621W        W59962  15.647  39.333   3.339
91622W        W59963  35.990  20.694  13.969
91623W        W59964  36.496  23.490   4.801
91624W        W59965  34.483  15.779   4.704
91625W        W59966  14.125  10.251   2.813
91626W        W59967   1.398  36.397  10.531
91627W        W59968   4.778  41.456  10.430
91628W        W59969   2.308  30.912  12.043
91629W        W59970  37.899  15.776  10.410
91630W        W59971  18.189  34.907  13.364
91631W        W59972   8.394  40.306  11.482
91632W        W59973  44.962  16.707  13.918
91633W        W59974   4.226  25.029   0.249
91634W        W59975  20.528  41.412   1.850
91635W        W59976   0.426  35.470  12.874
91636W        W59977  32.062   2.887  13.033
91637W        W59978  31.627  33.951   3.179
91638W        W59979  13.620  28.096   3.715
91639W        W59980  22.722  23.216   2.809
91640W        W59981  16.241  20.710   3.229
91641W        W59982  28.667  25.615  12.865
91642W        W59983  41.407  33.412   2.765
91643W        W59984  13.243  41.013  13.034
91644W        W59985  15.589   5.911   3.197
91645W        W59986  25.007  39.830   3.788
91646W        W59987  31.058   0.769  13.972
91647W        W59988  14.628   5.307  11.477
91648W        W59989  28.986   7.345   2.825
91649W        W59990  24.139  20.107   0.839
91650W        W59991   4.227  26.610  12.547
91651W        W59992  38.378  26.687  12.576
91652W        W59993  16.706   9.879   1.797
91653W        W59994   1.875  24.986  13.456
91654W        W59995  28.064  34.908  14.347
91655W        W59996  25.631   1.959  11.566
91656W        W59997  38.829   4.361   1.429
91657W        W59998  22.009  44.914   2.666
91658W        W59999   5.203  35.434   3.328
91659W        W60000  22.029  23.156  12.502
91660W        W60001  44.425  37.913  13.386
91661W        W60002  20.257  34.885  11.970
91662W        W60003  16.608   4.446   3.753
91663W        W60004  30.103  31.112  11.965
91664W        W60005  36.983  33.436  14.015
91665W        W60006  37.938  21.540   2.262
91666W        W60007   9.234  30.938   4.701
91667W        W60008   7.240  30.582   2.365
91668W        W60009  16.157  31.580   2.757
91669W        W60010  14.672   2.415  14.477
91670W        W60011   5.850   0.412   2.225
91671W        W60012   1.373  30.122   1.227
91672W        W60013  18.248   9.693  13.336
91673W        W60014  36.022  29.577  14.787
91674W        W60015  23.622  14.202   3.306
91675W        W60016   0.261  15.200  12.867
91676W        W60017  43.857   0.375  13.813
91677W        W60018  35.004   3.265   1.785
91678W        W60019   4.865  11.273  13.037
91679W        W60020  19.556  40.967  13.926
91680W        W60021   8.742  28.002   3.312
91681W        W60022  17.600  20.734   9.585
91682W        W60023  14.667  39.062  12.515
91683W        W60024  20.257  26.162   1.731
91684W        W60025   5.289  28.180   0.418
91685W        W60026  24.193  18.591  12.851
91686W        W60027   5.761   8.856   4.676
91687W        W60028  20.656  25.680   4.276
91688W        W60029   2.769  16.736  11.516
91689W        W60030   1.921  42.905  14.919
91690W        W60031   7.727  19.251   2.778
91691W        W60032  28.476  29.575   1.258
91692W        W60033  20.091  33.982  11.581
91693W        W60034  40.854  12.678   2.383
91694W        W60035   8.813   9.231   4.138
91695W        W60036  38.018  36.369   0.281
91696W        W60037  26.700  32.498  12.396
91697W        W60038  14.314  40.911   5.126
91698W        W60039  13.745   4.778   3.786
91699W        W60040  11.174  33.975   0.965
91700W        W60041  28.598  12.801   1.767
91701W        W60042  34.420  13.599  12.370
91702W        W60043  31.154  18.784   1.396
91703W        W60044  31.897  17.611   2.676
91704W        W60045  30.484  17.570   1.270
91705W        W60046  28.633  31.576  14.926
91706W        W60047  23.637  41.535   4.690
91707W        W60048  11.737  19.042  14.844
91708W        W60049  20.205   0.980  10.546
91709W        W60050   6.818  14.650   4.738
91710W        W60051  35.085  41.905   0.259
91711W        W60052  37.559   6.399   2.180
91712W        W60053   2.378  19.062  12.970
91713W        W60054  38.903  26.189   3.767
91714W        W60055  28.155  43.392  12.352
91715W        W60056  22.221  19.768   2.320
91716W        W60057  10.810   9.643   2.331
91717W        W60058  38.382  36.934   3.785
91718W        W60059   2.456  22.716   4.810
91719W        W60060  41.934  20.670   3.258
91720W        W60061  39.372  14.119  14.777
91721W        W60062  34.555   3.849  10.568
91722W        W60063  24.073  13.311   4.273
91723W        W60064  13.240  42.327  14.411
91724W        W60065   2.761   4.882  13.400
91725W        W60066   2.441  22.139   2.779
91726W        W60067  12.645   7.820  13.546
91727W        W60068  12.648  32.465  11.510
91728W        W60069   3.386  25.008  14.894
91729W        W60070  25.136  32.430   2.362
91730W        W60071  33.564  29.141   0.821
91731W        W60072  27.602  16.268  14.275
91732W        W60073  43.274  26.107  14.379
91733W        W60074  18.595  13.728   2.203
91734W        W60075  23.061  36.463  14.799
91735W        W60076  35.953  30.562   4.156
91736W        W60077   7.691  13.788   3.185
91737W        W60078  20.238  23.199  11.503
91738W        W60079  30.623  30.052   1.697
91739W        W60080  29.569  42.919  12.347
91740W        W60081   8.388  35.007  10.513
91741W        W60082   9.775  25.504   0.823
91742W        W60083  10.192   6.720  12.844
91743W        W60084  44.967  30.996  14.951
91744W        W60085  16.742  23.691  11.974
91745W        W60086   1.973  31.501   3.641
91746W        W60087  30.957   1.921   5.108
91747W        W60088  38.384  42.463  12.842
91748W        W60089  32.550  28.000  11.373
91749W        W60090  20.747  37.491  14.494
91750W        W60091  22.044   1.275   0.921
91751W        W60092  31.586  23.143  10.566
91752W        W60093  22.598  36.056   1.370
91753W        W60094  37.511  13.136  11.430
91754W        W60095  21.092   6.421   5.120
91755W        W60096   0.279  43.900   3.782
91756W        W60097   2.884  10.164   4.327
91757W        W60098  20.635  42.873   3.795
91758W        W60099  14.339  40.464   1.225
91759W        W60100  17.686  31.632  14.776
91760W        W60101  19.163   9.748   3.641
91761W        W60102  44.781   9.184  12.449
91762W        W60103  17.077  20.680   3.719
91763W        W60104   6.718  38.344  12.432
91764W        W60105  12.612  23.049  14.951
91765W        W60106  36.408   8.736  11.045
91766W        W60107  11.166  16.245   3.860
91767W        W60108  24.018  29.447  11.950
91768W        W60109  11.681  14.686  11.468
91769W        W60110  10.732  39.335  14.434
91770W        W60111  27.450  29.108   4.680
91771W        W60112  24.522   3.274   0.962
91772W        W60113  38.445   0.412   1.851
91773W        W60114   3.767  17.577   5.123
91774W        W60115  36.523   4.863  11.855
91775W        W60116  40.483  30.053  12.012
91776W        W60117  33.104  22.694   3.262
91777W        W60118  13.312  17.222   0.384
91778W        W60119   2.949  25.493   4.175
91779W        W60120  31.096  14.619   0.799
91780W        W60121  38.498   7.762   4.203
91781W        W60122  19.246  44.298   0.255
91782W        W60123  35.456  16.661  12.373
91783W        W60124   2.258  31.065  14.810
91784W        W60125  10.329  35.959   1.766
91785W        W60126  35.429  39.497  12.508
91786W        W60127   9.190   5.741   3.779
91787W        W60128  43.301  43.823   4.236
91788W        W60129  38.058  39.411   0.363
91789W        W60130  10.383  38.911  14.853
91790W        W60131   3.416  24.701  12.938
91791W        W60132   5.288  25.105   4.311
91792W        W60133   5.318  29.934   2.313
91793W        W60134  39.334  12.287   4.762
91794W        W60135  11.222  11.621   1.321
91795W        W60136   7.400  27.003  11.524
91796W        W60137  18.547  42.305  14.979
91797W        W60138  27.176   2.845   2.713
91798W        W60139  15.171  10.716  14.987
91799W        W60140  17.064  32.918  11.974
91800W        W60141   8.190  25.590   4.333
91801W        W60142  23.071  19.111   4.132
91802W        W60143  27.960   8.311   0.423
91803W        W60144  42.336   5.204   2.764
91804W        W60145  25.037  35.016  11.902
91805W        W60146  10.706  33.944  12.855
91806W        W60147  29.521  35.491  10.589
91807W        W60148  44.366  34.077  12.851
91808W        W60149  22.153  39.533   3.867
91809W        W60150  17.724   6.338  10.932
91810W        W60151   8.284  16.680   1.702
91811W        W60152  16.614  34.109  12.451
91812W        W60153  29.030   3.832  12.528
91813W        W60154  22.173  37.409  13.354
91814W        W60155  37.488   8.716  14.485
91815W        W60156   8.799  20.625  14.320
91816W        W60157  31.642  43.329  13.031
91817W        W60158  43.996   5.355  11.415
91818W        W60159  28.931   4.330  12.948
91819W        W60160  10.687  25.995   0.889
91820W        W60161  23.584  14.307   0.822
91821W        W60162  12.125  41.295  12.838
91822W        W60163   2.413  39.915   9.931
91823W        W60164  12.750   1.866  12.458
91824W        W60165   2.454   7.726   4.610
91825W        W60166  16.296  40.875   2.325
91826W        W60167  44.296   2.244   0.368
91827W        W60168   3.388   0.384  14.442
91828W        W60169  13.287   5.394  14.511
91829W        W60170  30.021  43.303  11.432
91830W        W60171  28.498  20.168  11.377
91831W        W60172  23.525  13.601   4.286
91832W        W60173  25.554   4.801  11.920
91833W        W60174  15.793  17.195   0.421
91834W        W60175  43.944  23.001  14.912
91835W        W60176   3.775   0.265   4.266
91836W        W60177  41.816  13.633   3.695
91837W        W60178  19.608  29.155   3.149
91838W        W60179  10.221  39.418  10.442
91839W        W60180   7.853   0.451  13.459
91840W        W60181  23.588   5.382   4.148
91841W        W60182  17.157  16.695  13.974
91842W        W60183   6.885  22.198  10.614
91843W        W60184  24.565  37.049   4.169
91844W        W60185  11.712  23.197  14.896
91845W        W60186  33.404  12.342   4.823
91846W        W60187  11.186  16.258  14.764
91847W        W60188  41.338  11.287  12.452
91848W        W60189  19.680  32.443  11.931
91849W        W60190  44.436  16.730  12.028
91850W        W60191   7.710   8.744   0.276
91851W        W60192  18.703  31.125   0.254
91852W        W60193  25.680  43.403  10.510
91853W        W60194  35.881  31.583   4.667
91854W        W60195  35.416  34.965   1.812
91855W        W60196  41.485  40.445  11.919
91856W        W60197  32.900  34.935   4.796
91857W        W60198  44.380  25.582   0.423
91858W        W60199  14.771  16.083   4.668
91859W        W60200  32.631  28.049  13.003
91860W        W60201  25.177  32.539  12.540
91861W        W60202   9.214  37.379  12.467
91862W        W60203  21.635  28.067  13.384
91863W        W60204  44.378  38.946  12.962
91864W        W60205  11.725   9.337   2.795
91865W        W60206  38.556  19.284   4.275
91866W        W60207   9.300  27.620   0.344
91867W        W60208  30.967  26.021  13.954
91868W        W60209  37.376  35.104   4.159
91869W        W60210  28.579  35.510  13.976
91870W        W60211  36.911  27.614  13.951
91871W        W60212  32.019   6.306  12.985
91872W        W60213   1.785  11.252   1.739
91873W        W60214  18.187  24.507  11.869
91874W        W60215   6.782  38.076   4.820
91875W        W60216  22.105   1.950  10.563
91876W        W60217  34.378  32.532   3.362
91877W        W60218   4.789  10.358  12.956
91878W        W60219  42.455  44.986   0.803
91879W        W60220   3.847  11.746   3.654
91880W        W60221  12.783  35.093  11.118
91881W        W60222  38.878  38.945  13.035
91882W        W60223  16.756  36.448   2.837
91883W        W60224   9.765   2.895  10.420
91884W        W60225  23.520  28.002  11.883
91885W        W60226  18.104  37.042   4.693
91886W        W60227  26.457   9.363  10.964
91887W        W60228   2.311  29.458   2.390
91888W        W60229  29.089  27.507  12.521
91889W        W60230  39.832  43.908   9.609
91890W        W60231   5.863  16.197   1.797
91891W        W60232  18.594  37.979   3.863
91892W        W60233   0.869   3.388  10.899
91893W        W60234  38.335   6.254  14.390
91894W        W60235  33.558  12.803   4.751
91895W        W60236  35.591  44.358  14.918
91896W        W60237  36.433  24.195   4.142
91897W        W60238  35.445   6.858   2.672
91898W        W60239   3.801  18.589   5.723
91899W        W60240  18.195  30.603   3.821
91900W        W60241   8.807  13.186   3.176
91901W        W60242  27.003   0.280   9.923
91902W        W60243   7.694  42.870  13.491
91903W        W60244   2.317  14.650   3.244
91904W        W60245  38.931  14.760   3.672
91905W        W60246  40.939   1.441   4.681
91906W        W60247  24.529  35.985  14.854
91907W        W60248  25.690  27.942   0.421
91908W        W60249  38.398   1.780  11.968
91909W        W60250  14.239   2.279  14.367
91910W        W60251  15.700   0.889   2.783
91911W        W60252  39.506  13.285   2.398
91912W        W60253  15.776  15.304  11.606
91913W        W60254   9.864  25.510   0.350
91914W        W60255  16.140   7.790   0.348
91915W        W60256  15.779  18.778  10.420
91916W        W60257  33.471   6.731  12.989
91917W        W60258  31.025  39.431   1.346
91918W        W60259  19.698  28.498   0.296
91919W        W60260   2.825   0.852  13.484
91920W        W60261  38.027   4.905  13.819
91921W        W60262   7.778  17.581  10.577
91922W        W60263  10.181   8.252  11.488
91923W        W60264  25.473  35.988   1.236
91924W        W60265  10.202  23.042   1.695
91925W        W60266  22.041   3.367  13.966
91926W        W60267  28.124  22.047  10.001
91927W        W60268  30.437  26.153   2.197
91928W        W60269  13.713   5.806   1.254
91929W        W60270   7.411  13.760  10.910
91930W        W60271   3.844  36.429  12.372
91931W        W60272  35.943   6.227  13.993
91932W        W60273  20.652  23.597   0.391
91933W        W60274  35.025   8.245  13.389
91934W        W60275  42.394  33.904   3.364
91935W        W60276  14.682  37.494  10.461
91936W        W60277  10.310  31.995  10.506
91937W        W60278  38.535  19.752  10.976
91938W        W60279  36.403  42.456   3.659
91939W        W60280  39.373  27.167  14.890
91940W        W60281  22.100   5.912   3.707
91941W        W60282  21.647  12.240  11.873
91942W        W60283  29.966  23.118  11.875
91943W        W60284  25.037  44.427  10.492
91944W        W60285  15.818  12.124  14.276
91945W        W60286  29.527  16.614   3.195
91946W        W60287   7.746   5.918  12.352
91947W        W60288  35.013  16.736   1.889
91948W        W60289   6.894  15.608   2.363
91949W        W60290  31.097  37.509   1.838
91950W        W60291  38.842  23.629   2.312
91951W        W60292  34.596   4.244   4.654
91952W        W60293  12.808  40.354  13.367
91953W        W60294  42.482  21.162  12.021
91954W        W60295  42.923  22.646   1.839
91955W        W60296   7.774  14.664  13.962
91956W        W60297  25.664  19.081  11.017
91957W        W60298  38.921  22.057  10.591
91958W        W60299  13.674  15.752   3.796
91959W        W60300  22.610  38.490   4.622
91960W        W60301   1.254  30.097  13.431
91961W        W60302  21.030  42.370   4.238
91962W        W60303  20.164  35.367   0.889
91963W        W60304   4.890   5.220  14.886
91964W        W60305  13.299  44.780  14.765
91965W        W60306  25.996  13.148   3.842
91966W        W60307  27.641   1.334  13.986
91967W        W60308  41.338  40.485   0.419
91968W        W60309  14.661   2.957  10.907
91969W        W60310  20.570  43.508  14.352
91970W        W60311  44.333  29.540   3.698
91971W        W60312  17.278   9.155  10.622
91972W        W60313  15.711  36.053   3.357
91973W        W60314  14.684  34.544   0.833
91974W        W60315  32.952  12.616  13.988
91975W        W60316  27.682  38.892   2.698
91976W        W60317   1.246  31.471  13.862
91977W        W60318  35.359  23.635   1.427
91978W        W60319  30.583  36.977  14.334
91979W        W60320  44.869  11.679  14.409
91980W        W60321  15.578  16.625  11.918
91981W        W60322  31.633  43.305   2.731
91982W        W60323  27.685  43.303   1.263
91983W        W60324  35.578   3.865  12.480
91984W        W60325   5.882  41.836  11.057
91985W        W60326  31.063  42.317   3.180
91986W        W60327  44.295  26.096   0.443
91987W        W60328   9.194  26.980   4.265
91988W        W60329   3.944  21.110  10.096
91989W        W60330  44.966  28.125  11.486
91990W        W60331  14.773  25.523   3.635
91991W        W60332  16.123  10.797   0.949
91992W        W60333  25.132  19.069  10.423
91993W        W60334  28.638  40.976  10.424
91994W        W60335  35.101  20.273   3.748
91995W        W60336  34.596  39.459  14.950
91996W        W60337  12.174  15.751   2.777
91997W        W60338  42.363  37.336  12.390
91998W        W60339  29.068  15.330  14.912
91999W        W60340  28.992  36.845  14.993
92000W        W60341  30.535   7.202  11.109
92001W        W60342   9.250  43.898  11.381
92002W        W60343  42.470  27.593   1.283
92003W        W60344  43.766  16.084   1.403
92004W        W60345   3.898  11.812  12.978
92005W        W60346  36.972  12.203   4.199
92006W        W60347  11.695  42.991   0.915
92007W        W60348  23.031  11.750  12.447
92008W        W60349  14.588  15.672   2.757
92009W        W60350  18.237   9.644   2.203
92010W        W60351  44.357  20.058  12.900
92011W        W60352   0.249  32.003  13.416
92012W        W60353  29.035  16.738   4.817
92013W        W60354  17.163  12.336   3.146
92014W        W60355   9.152   8.668  10.152
92015W        W60356  21.245  10.706  10.407
92016W        W60357  36.933  34.409   3.178
92017W        W60358  32.488   8.752   0.917
92018W        W60359  27.531  44.390  14.846
92019W        W60360  13.687  10.346   2.312
92020W        W60361   3.310   9.855   4.697
92021W        W60362  10.865  24.217  10.459
92022W        W60363  20.571  16.750   1.758
92023W        W60364  19.270  42.019  13.423
92024W        W60365  10.187  13.743  14.921
92025W        W60366   1.309  18.185  14.384
92026W        W60367  20.110  20.220  10.527
92027W        W60368  26.668  41.014  13.943
92028W        W60369  44.383  17.683   0.780
92029W        W60370  34.422  41.967  14.408
92030W        W60371  20.701   6.199  12.021
92031W        W60372  18.256   1.340   4.183
92032W        W60373  31.146   5.929  12.986
92033W        W60374  40.387  39.926   3.663
92034W        W60375   8.839  26.652  13.427
92035W        W60376  38.047  33.008  14.901
92036W        W60377  16.117   2.806  11.464
92037W        W60378  41.412  11.622  10.510
92038W        W60379  38.894  32.981   0.470
92039W        W60380  16.269   3.734   4.817
92040W        W60381  40.338  31.133   1.281
92041W        W60382  17.106  31.472  12.840
92042W        W60383  23.058   0.786  14.787
92043W        W60384  15.785  38.013   4.723
92044W        W60385   3.383  17.172   3.800
92045W        W60386  23.163  34.890   1.234
92046W        W60387  32.915  10.633  12.910
92047W        W60388  44.446  28.639  11.067
92048W        W60389  33.961  26.189   3.298
92049W        W60390  43.299  26.092   2.261
92050W        W60391  29.969   2.960  11.011
92051W        W60392  10.754  12.665  11.944
92052W        W60393  12.800  29.152   1.866
92053W        W60394   0.975  22.501  10.971
92054W        W60395   1.752  40.051  11.034
92055W        W60396  24.062   0.793  13.972
92056W        W60397  34.478  36.467  11.862
92057W        W60398  19.712   1.317   2.682
92058W        W60399  37.521  13.826  13.333
92059W        W60400   9.210  11.784   2.861
92060W        W60401  17.133  12.853   0.416
92061W        W60402  38.342   1.952   3.798
92062W        W60403  24.494  33.929  11.578
92063W        W60404  10.784  26.057  14.290
92064W        W60405   5.914  42.938   1.419
92065W        W60406   1.768  23.709   0.363
92066W        W60407  13.223  40.001  11.879
92067W        W60408  29.614   9.777  11.941
92068W        W60409  23.710   9.177   1.219
92069W        W60410  34.414   3.720  13.449
92070W        W60411  20.111  39.532  13.413
92071W        W60412  37.873   1.466  12.917
92072W        W60413   9.739  17.706   1.696
92073W        W60414  10.640  13.343  14.768
92074W        W60415  41.975  20.585   0.771
92075W        W60416  44.901  17.168   2.286
92076W        W60417  22.113  25.629  11.893
92077W        W60418  18.071  18.132  11.609
92078W        W60419  39.429  42.953   0.346
92079W        W60420   1.964  33.938   0.941
92080W        W60421  14.702   6.373  13.011
92081W        W60422   0.753  33.946   1.392
92082W        W60423  23.065  25.607   2.388
92083W        W60424  41.042  11.811  11.116
92084W        W60425  38.392  33.589   1.885
92085W        W60426   3.440  35.003  13.036
92086W        W60427  41.348  39.551   1.254
92087W        W60428  28.605  22.503  12.427
92088W        W60429  41.388  24.086  12.405
92089W        W60430  19.231  43.000   4.824
92090W        W60431  31.423  10.201   9.920
92091W        W60432  23.139  23.172   2.862
92092W        W60433  36.353  24.049   2.353
92093W        W60434   7.254  11.830   4.701
92094W        W60435  23.177  38.915  11.557
92095W        W60436  16.182  36.852   1.700
92096W        W60437   2.430  29.000  12.362
92097W        W60438  20.132  28.590  14.950
92098W        W60439  29.093   6.804  12.912
92099W        W60440  34.968  17.598  14.850
92100W        W60441  39.940  43.383   9.960
92101W        W60442  27.164  33.057  13.456
92102W        W60443  44.860  16.145   2.257
92103W        W60444   4.747   4.936  12.913
92104W        W60445  12.262  41.527  12.460
92105W        W60446  33.420  42.331   2.860
92106W        W60447  16.299  18.211  13.380
92107W        W60448  41.295  10.189  14.494
92108W        W60449  42.995  11.341   0.764
92109W        W60450  28.563  20.738  13.812
92110W        W60451  20.662   9.718   3.310
92111W        W60452  10.368  31.127  12.384
92112W        W60453  22.996  41.021   4.344
92113W        W60454  26.612  40.407  12.489
92114W        W60455   4.754   8.665  13.357
92115W        W60456  22.007  17.301   1.754
92116W        W60457  44.844  44.285   3.174
92117W        W60458   0.884  21.111  14.938
92118W        W60459   1.884   8.812  13.458
92119W        W60460   1.374  40.006  12.966
92120W        W60461   5.841  30.630  10.520
92121W        W60462  34.556  17.667   0.251
92122W        W60463  31.080   2.242   1.337
92123W        W60464  33.528  13.180  12.061
92124W        W60465  28.130  22.688  12.034
92125W        W60466  17.563  28.458   2.754
92126W        W60467  39.036  13.209   2.876
92127W        W60468  14.230  31.631   1.696
92128W        W60469  24.004   0.280  12.847
92129W        W60470  33.919   8.860   4.751
92130W        W60471  13.135   6.800  10.601
92131W        W60472   5.385  19.579  14.405
92132W        W60473  33.960   7.735   0.288
92133W        W60474   0.431  15.632   1.236
92134W        W60475  23.624  26.533  10.088
92135W        W60476  10.246  32.446  10.425
92136W        W60477  14.309  21.590  13.058
92137W        W60478  31.467  31.457   2.309
92138W        W60479   6.727  17.565  14.344
92139W        W60480  24.168   8.355  14.329
92140W        W60481  15.232  39.048   4.267
92141W        W60482  21.248  16.576  10.922
92142W        W60483   1.276  21.598   3.279
92143W        W60484  39.515  34.028  14.341
92144W        W60485  43.816  15.239  12.903
92145W        W60486  39.967  26.598   2.283
92146W        W60487  44.332  11.336   2.775
92147W        W60488  44.419   3.820   4.316
92148W        W60489  41.420  20.218   1.340
92149W        W60490  26.175  29.100   1.343
92150W        W60491  16.187  35.400  12.070
92151W        W60492   9.883  19.764  13.313
92152W        W60493  25.576  14.110   5.279
92153W        W60494  41.844  24.719   0.245
92154W        W60495   3.827   2.227   2.797
92155W        W60496  26.207  22.057  12.412
92156W        W60497  12.300  31.924   0.888
92157W        W60498  10.352  32.904   2.195
92158W        W60499  39.416   4.855   0.797
92159W        W60500  19.549  38.549  12.559
92160W        W60501  38.554  39.335   0.271
92161W        W60502  15.170  44.993   0.781
92162W        W60503  36.518  12.269  13.398
92163W        W60504  42.302   4.870   0.801
92164W        W60505   6.757  20.584  13.359
92165W        W60506  12.140  43.511   2.777
92166W        W60507   9.382  13.218   4.287
92167W        W60508  15.178  16.621   3.795
92168W        W60509  41.855  22.640  11.441
92169W        W60510  34.548  43.497  13.926
92170W        W60511  10.360   2.877   0.879
92171W        W60512   3.251  35.923  13.347
92172W        W60513  35.580  26.544   1.311
92173W        W60514  36.065  43.893   2.299
92174W        W60515  12.328  43.926  11.494
92175W        W60516  33.950  41.878   4.332
92176W        W60517  29.963  34.526  11.068
92177W        W60518  39.007  22.743  12.408
92178W        W60519  35.863   0.430   1.426
92179W        W60520  21.051  20.538  13.443
92180W        W60521  31.597   9.207  12.513
92181W        W60522  26.201   0.852   1.870
92182W        W60523  43.277   0.743  14.897
92183W        W60524  18.790  35.092   5.185
92184W        W60525  30.587  25.597   2.835
92185W        W60526  15.732   9.877   4.146
92186W        W60527  30.578   7.697   0.383
92187W        W60528  11.776  43.900   4.261
92188W        W60529  34.880  10.879  12.020
92189W        W60530  14.255   0.896  10.456
92190W        W60531  15.173   7.243   1.699
92191W        W60532   0.981  29.439  13.377
92192W        W60533  39.477  29.604   2.257
92193W        W60534  40.528  27.507  11.985
92194W        W60535   6.371  12.714  12.060
92195W        W60536  22.105   7.771  13.004
92196W        W60537   9.820  43.320   3.755
92197W        W60538  14.304   7.373   0.924
92198W        W60539  17.153  43.956   4.151
92199W        W60540  10.837  40.045   4.612
92200W        W60541  20.184  22.995  13.346
92201W        W60542  16.146  32.117   4.666
92202W        W60543  37.432  33.077   0.864
92203W        W60544  20.696   0.983   1.821
92204W        W60545  31.073  38.933  10.528
92205W        W60546  27.193  44.821  13.059
92206W        W60547  30.482  19.582  14.482
92207W        W60548  32.455  18.790  13.472
92208W        W60549  43.513  37.989   0.359
92209W        W60550   9.252   3.344  10.057
92210W        W60551  41.486  40.903   1.754
92211W        W60552   6.858   3.432   1.868
92212W        W60553  15.751   7.196  11.465
92213W        W60554  40.454  18.069   4.143
92214W        W60555  11.278   9.290  10.137
92215W        W60556  42.393  36.959   2.859
92216W        W60557  37.025  12.651   3.211
92217W        W60558  11.823  29.924   3.165
92218W        W60559  18.713  43.436  13.057
92219W        W60560   1.739  36.588   1.357
92220W        W60561  29.646  42.779   0.816
92221W        W60562   6.901  31.442   3.741
92222W        W60563  25.641  21.231  13.859
92223W        W60564  13.139   2.957   0.366
92224W        W60565  16.694  40.865   3.798
92225W        W60566   6.195  41.300  14.366
92226W        W60567   2.818  19.129   0.896
92227W        W60568  17.208   5.284  13.010
92228W        W60569  38.911  29.959  13.494
92229W        W60570  43.320  21.558  12.894
92230W        W60571   3.313  10.797  13.342
92231W        W60572   2.341  26.669  10.463
92232W        W60573  23.181  40.546  13.016
92233W        W60574  22.062  30.536   3.383
92234W        W60575  29.138  27.661   2.302
92235W        W60576  34.005  16.769   3.630
92236W        W60577  37.507  28.541   1.888
92237W        W60578   7.213   1.280  14.958
92238W        W60579  14.730  30.424  11.505
92239W        W60580   2.391   4.830  13.501
92240W        W60581  44.416  25.147  12.516
92241W        W60582   5.815  19.587   3.228
92242W        W60583  44.892  32.501   2.663
92243W        W60584  23.577  10.281   3.664
92244W        W60585  31.041  13.180  13.326
92245W        W60586  15.715  18.726  13.342
92246W        W60587  18.688  19.062  12.996
92247W        W60588   6.247  39.882  11.899
92248W        W60589  16.674  13.112   4.709
92249W        W60590  35.070  10.220   3.294
92250W        W60591   7.720   1.347   0.381
92251W        W60592  11.182  13.312   4.667
92252W        W60593  43.983   1.966   2.280
92253W        W60594   6.287  38.330  11.913
92254W        W60595   2.844  16.699   1.748
92255W        W60596   6.723  18.240  10.547
92256W        W60597   0.325  29.482   3.723
92257W        W60598  22.123  34.876  14.985
92258W        W60599  24.017  35.052  11.517
92259W        W60600  33.925  26.137  13.942
92260W        W60601  24.129  16.235  13.504
92261W        W60602  39.930  20.218   2.193
92262W        W60603  31.102  13.694   2.381
92263W        W60604  33.994  40.862  12.974
92264W        W60605  30.989  34.427  11.917
92265W        W60606  29.604  33.514   0.456
92266W        W60607  44.334   3.287   4.312
92267W        W60608   5.848  43.971   3.342
92268W        W60609   0.979  28.157  11.871
92269W        W60610  34.374  37.087   4.319
92270W        W60611  25.145  24.154   2.319
92271W        W60612   5.336  18.283  11.529
92272W        W60613  21.254   2.961   0.899
92273W        W60614   0.470  39.890  14.355
92274W        W60615  20.175  30.125   1.878
92275W        W60616  41.933  21.658  12.461
92276W        W60617  26.627  13.679  13.979
92277W        W60618  43.908  11.313   3.312
92278W        W60619  13.330  42.951  13.867
92279W        W60620  10.189  40.517   2.876
92280W        W60621  18.679  27.147   1.918
92281W        W60622  23.698   6.274  11.562
92282W        W60623  34.588  41.033   3.283
92283W        W60624  31.552  43.274  10.936
92284W        W60625  11.714   6.327   2.802
92285W        W60626  15.210  24.030  12.833
92286W        W60627  19.770   0.775   1.928
92287W        W60628   3.748   7.270  12.425
92288W        W60629  17.574  29.951  10.546
92289W        W60630  20.722  38.480   0.822
92290W        W60631  44.452  28.631   3.235
92291W        W60632   5.329  23.494   0.284
92292W        W60633   6.243  26.566  15.000
92293W        W60634  17.061  15.245  11.612
92294W        W60635  34.908  32.030  11.523
92295W        W60636  41.003  41.815   1.221
92296W        W60637   3.421   6.786  12.093
92297W        W60638  19.606   2.959  12.481
92298W        W60639  10.721  21.559   3.289
92299W        W60640   4.398  25.712   1.725
92300W        W60641  16.157  29.117  11.384
92301W        W60642  15.254  31.572   9.632
92302W        W60643  29.134  20.533   4.702
92303W        W60644  21.198  28.010   1.323
92304W        W60645  15.719  36.048  13.970
92305W        W60646   4.802  30.127   1.920
92306W        W60647  34.989  18.700   2.671
92307W        W60648  11.736   7.709   2.864
92308W        W60649  10.355  39.432  12.028
92309W        W60650  32.610  32.940   0.837
92310W        W60651  26.201  29.090   2.231
92311W        W60652  23.625  21.703   4.655
92312W        W60653   2.900  27.037  14.482
92313W        W60654  44.384   0.490   4.270
92314W        W60655  25.471   0.948  14.361
92315W        W60656   5.429   8.255  11.537
92316W        W60657  30.136   6.695  11.863
92317W        W60658  40.850   4.800  12.007
92318W        W60659  40.482  24.624  12.418
92319W        W60660  44.271   7.323  14.892
92320W        W60661  27.488   2.286  13.449
92321W        W60662   7.180   8.281   4.232
92322W        W60663  16.613   6.832  12.494
92323W        W60664  40.964   4.221  14.508
92324W        W60665  43.489  41.308   3.835
92325W        W60666  22.716  31.023  13.325
92326W        W60667  40.845  25.633  13.876
92327W        W60668  44.382  20.077   4.255
92328W        W60669  10.643   5.300  13.346
92329W        W60670  30.907  13.349  10.502
92330W        W60671  36.490  39.903   4.269
92331W        W60672   1.793  37.557   4.125
92332W        W60673  39.049  40.358  11.428
92333W        W60674   4.924   6.724   1.395
92334W        W60675  34.541   4.399  13.006
92335W        W60676  25.592  25.536   2.413
92336W        W60677  28.050  37.031  12.073
92337W        W60678  24.196  35.408  12.412
92338W        W60679  23.679  28.555   2.880
92339W        W60680  18.766  12.822   3.834
92340W        W60681  23.216  38.012  11.102
92341W        W60682  16.685  43.409  11.953
92342W        W60683  26.658  17.603  14.371
92343W        W60684  40.989  31.419  10.590
92344W        W60685   0.782   6.406  14.423
92345W        W60686  26.552  15.678   0.869
92346W        W60687  37.983   6.401  14.397
92347W        W60688  43.409  23.705   0.731
92348W        W60689  27.654   1.390   1.382
92349W        W60690  16.756  36.487  14.760
92350W        W60691  16.237  42.310   3.331
92351W        W60692   2.425  31.993  14.892
92352W        W60693  38.822  11.810  11.378
92353W        W60694  28.008   9.218   2.856
92354W        W60695  28.512  29.570  13.404
92355W        W60696  40.927  33.940   0.929
92356W        W60697  40.010  40.527   0.780
92357W        W60698  40.462  24.185   1.381
92358W        W60699  11.673  25.684  11.096
92359W        W60700   8.271  18.689  13.402
92360W        W60701   6.239   3.784  12.048
92361W        W60702  12.703  29.561   1.213
92362W        W60703  14.818  37.081   2.404
92363W        W60704  31.012  11.641  13.986
92364W        W60705   5.351  15.207  13.416
92365W        W60706   1.301   1.953   4.599
92366W        W60707  15.604  27.190  12.369
92367W        W60708  32.546  12.121   0.322
92368W        W60709  34.515  22.736   4.227
92369W        W60710  36.358   6.245   0.806
92370W        W60711   5.701  13.283   2.384
92371W        W60712   1.817  14.303   4.276
92372W        W60713  19.585  19.107  11.902
92373W        W60714  19.736   9.749   3.187
92374W        W60715  14.593  14.688   0.279
92375W        W60716  44.382  44.435  14.455
92376W        W60717  11.717  34.384   1.720
92377W        W60718  13.667   2.849   3.264
92378W        W60719  28.495  35.986   4.303
92379W        W60720  13.176  31.590   2.886
92380W        W60721  36.516  39.499  13.312
92381W        W60722  15.640   0.256  12.552
92382W        W60723   0.474  38.057   1.216
92383W        W60724  38.410  23.551   1.739
92384W        W60725  22.222   4.885  14.461
92385W        W60726  28.082  15.116   2.859
92386W        W60727  26.640  44.933   4.216
92387W        W60728  18.087  32.139  12.526
92388W        W60729   5.376  40.364   2.809
92389W        W60730   8.670  19.138   1.755
92390W        W60731  35.989  14.694  12.423
92391W        W60732  24.004  44.406   2.808
92392W        W60733  32.399  32.131  12.358
92393W        W60734   1.334  39.543   4.637
92394W        W60735  36.887  42.800   3.773
92395W        W60736  42.811  14.786   1.331
92396W        W60737  10.238  11.690   2.408
92397W        W60738  16.703  19.618   5.219
92398W        W60739  42.309  38.525  14.310
92399W        W60740  43.964  12.329   3.869
92400W        W60741   7.400  20.606   2.732
92401W        W60742   7.741  17.192   0.958
92402W        W60743   7.232  13.816  10.409
92403W        W60744  12.342  21.704   3.659
92404W        W60745   2.940   3.913  11.102
92405W        W60746  39.871  31.955  11.109
92406W        W60747  37.413  15.307   4.646
92407W        W60748  36.417  37.928  11.540
92408W        W60749  36.562  19.537  14.283
92409W        W60750  21.532  21.109  11.026
92410W        W60751  40.857  36.529   4.123
92411W        W60752  28.610  33.495   2.838
92412W        W60753  10.376  24.029  12.824
92413W        W60754  19.674  38.551   3.634
92414W        W60755  35.881  25.696   2.889
92415W        W60756  39.061  35.060   1.246
92416W        W60757  20.538   2.796  14.831
92417W        W60758  10.725  36.384  12.040
92418W        W60759  36.001   1.757   0.817
92419W        W60760  41.031   4.359   3.300
92420W        W60761  39.489   3.369  12.005
92421W        W60762  39.826  44.809   4.751
92422W        W60763   3.785  34.938   4.707
92423W        W60764  28.679  15.654  13.851
92424W        W60765  26.188   3.840   2.182
92425W        W60766  15.669  28.652   4.791
92426W        W60767  29.047  10.768   2.235
92427W        W60768   7.305  32.941  12.042
92428W        W60769  22.522  17.276  10.929
92429W        W60770   5.900  10.173  11.514
92430W        W60771   9.316  10.249   1.280
92431W        W60772  39.557  41.855  10.114
92432W        W60773   8.659  15.193  14.789
92433W        W60774  18.681  42.810   1.703
92434W        W60775  11.364  27.531  13.831
92435W        W60776   5.392  30.524   1.780
92436W        W60777   8.239   9.712  12.378
92437W        W60778   8.344  11.852   2.334
92438W        W60779  38.978   0.252   0.295
92439W        W60780  28.009   0.957  14.513
92440W        W60781   8.245  42.468   4.775
92441W        W60782   5.280   7.245  13.357
92442W        W60783  25.573   7.218   3.814
92443W        W60784  14.193  23.986  10.431
92444W        W60785  10.645  11.789   5.207
92445W        W60786  42.507  39.323   3.334
92446W        W60787  17.236  27.045  14.893
92447W        W60788   2.824   8.384  11.952
92448W        W60789  25.203   5.314  12.027
92449W        W60790  14.235  28.521  12.004
92450W        W60791  25.156  13.267  12.929
92451W        W60792   1.483  33.535  10.519
92452W        W60793  44.875   3.948   0.336
92453W        W60794  25.496  30.987  14.983
92454W        W60795   8.833  25.591   3.743
92455W        W60796   1.434  21.621  12.870
92456W        W60797  23.613  17.155   0.924
92457W        W60798  24.624  22.699   2.358
92458W        W60799   9.393  36.410  12.858
92459W        W60800   9.838  37.536   3.799
92460W        W60801  16.231   5.839   2.683
92461W        W60802   1.329  10.685   2.322
92462W        W60803  25.024  17.619   2.874
92463W        W60804  27.080  13.649   1.401
92464W        W60805  24.205  14.095  12.523
92465W        W60806  41.891  43.952   4.674
92466W        W60807  13.130  26.558  13.965
92467W        W60808   3.420  27.946   0.430
92468W        W60809   3.451  16.656   3.852
92469W        W60810  35.378  13.332  12.051
92470W        W60811  36.081  30.054  11.913
92471W        W60812  26.473   4.795   2.726
92472W        W60813  42.871   8.172  13.360
92473W        W60814  35.067  25.202   1.361
92474W        W60815  23.207  32.966   0.379
92475W        W60816   6.399  34.976  11.127
92476W        W60817   2.734  30.484   0.966
92477W        W60818   5.931  31.093  14.864
92478W        W60819  23.536  35.069   2.663
92479W        W60820  39.909  13.132   2.196
92480W        W60821  28.615   8.239   4.700
92481W        W60822  30.913  14.831  13.413
92482W        W60823  41.460  28.040  12.910
92483W        W60824  35.921  40.976   0.919
92484W        W60825  29.952  41.879  12.943
92485W        W60826  40.884   8.881   1.376
92486W        W60827  18.291  37.468  12.872
92487W        W60828  30.570   9.248  11.078
92488W        W60829   2.262  10.337  14.940
92489W        W60830  27.467  32.048  11.047
92490W        W60831  35.992  38.525  14.356
92491W        W60832  15.755  36.512  11.913
92492W        W60833  42.326  31.628   3.638
92493W        W60834  18.590   9.320   3.276
92494W        W60835  41.293  40.855   3.719
92495W        W60836  34.947   1.279   2.215
92496W        W60837   1.767  43.796   2.890
92497W        W60838  42.787  24.696  13.809
92498W        W60839  18.086  16.696   2.688
92499W        W60840  30.155   9.709  13.998
92500W        W60841  32.117  26.165  10.425
92501W        W60842  18.069  20.656   3.808
92502W        W60843  43.409   3.721  13.535
92503W        W60844  11.862  41.916   2.759
92504W        W60845  32.911  24.018   3.357
92505W        W60846  42.959  32.018  10.619
92506W        W60847  43.868   6.290   0.754
92507W        W60848  10.368   7.762   3.308
92508W        W60849  44.305  44.004   4.676
92509W        W60850  32.450  22.036   4.178
92510W        W60851  44.857  40.939   1.304
92511W        W60852  32.904  44.843  11.552
92512W        W60853   0.283  32.574  14.927
92513W        W60854  43.777   4.874  14.943
92514W        W60855  22.566  34.875  12.470
92515W        W60856   3.890  21.175   3.313
92516W        W60857  16.305  12.246  14.490
92517W        W60858  16.312  34.872   5.758
92518W        W60859  16.668  15.311  11.374
92519W        W60860   3.332  23.056   2.207
92520W        W60861  38.500   8.779  13.858
92521W        W60862  36.088  43.277   4.647
92522W        W60863  23.218  23.491   3.668
92523W        W60864   9.173  27.945  11.860
92524W        W60865  29.110  25.581  12.086
92525W        W60866  32.599  39.935   0.445
92526W        W60867  27.164  38.384   2.710
92527W        W60868  24.161  13.825  13.478
92528W        W60869  12.806  37.992   1.865
92529W        W60870  18.060  18.636  14.919
92530W        W60871  31.409  20.538  14.378
92531W        W60872  11.751  40.892   1.715
92532W        W60873  25.216   0.881  11.486
92533W        W60874   0.955  14.272   1.275
92534W        W60875  21.188  11.160  10.533
92535W        W60876   0.945  25.187   2.790
92536W        W60877   2.933  34.054  12.978
92537W        W60878  21.214  30.165  13.879
92538W        W60879  37.990  35.406  10.961
92539W        W60880   5.921  20.722   0.318
92540W        W60881   2.406   0.975  13.421
92541W        W60882   6.275  23.031   1.237
92542W        W60883  43.510  39.977   0.276
92543W        W60884  36.565  29.510  12.877
92544W        W60885  38.524  22.056   0.863
92545W        W60886   3.718  20.199  14.479
92546W        W60887  29.012   2.347  11.070
92547W        W60888  42.516  26.115   0.944
92548W        W60889  40.473  15.145  12.837
92549W        W60890  34.391  33.417   2.419
92550W        W60891  23.675  35.551   1.257
92551W        W60892  35.414  26.671   2.379
92552W        W60893   7.370  22.690  13.314
92553W        W60894  41.030  36.549  12.978
92554W        W60895  10.733   5.747   1.242
92555W        W60896  16.689  14.177  10.909
92556W        W60897  12.829  13.779  11.064
92557W        W60898  17.277   9.771  12.501
92558W        W60899  31.903  14.123  11.067
92559W        W60900  26.158  38.369   4.599
92560W        W60901  42.009  10.240  10.903
92561W        W60902  25.545   9.887  14.494
92562W        W60903  37.975  41.042   0.856
92563W        W60904  23.705  15.755  14.914
92564W        W60905   6.344  23.996   1.735
92565W        W60906  36.861  28.078  14.778
92566W        W60907  26.081  17.123   0.918
92567W        W60908   8.872  17.237  10.515
92568W        W60909  17.171  29.066  11.502
92569W        W60910  26.555  38.937   4.294
92570W        W60911  31.013  23.501  10.612
92571W        W60912  30.093  22.549  10.577
92572W        W60913  23.520   6.907  14.848
92573W        W60914  12.678   1.306  13.792
92574W        W60915  41.453   5.897  10.943
92575W        W60916   6.766  29.124   3.385
92576W        W60917  44.310  14.612   2.202
92577W        W60918   3.837  14.833  13.881
92578W        W60919   0.785  20.562  11.465
92579W        W60920   0.984   2.919   3.325
92580W        W60921  38.439   0.817  10.645
92581W        W60922  41.401   4.405   2.777
92582W        W60923   8.396  33.388  14.496
92583W        W60924   1.437  11.367   4.242
92584W        W60925  42.411  43.932   3.379
92585W        W60926  16.684  39.837  13.852
92586W        W60927  11.331  26.681  14.279
92587W        W60928   0.830  28.932   4.149
92588W        W60929  41.030   1.824  13.944
92589W        W60930   3.460   6.781   3.805
92590W        W60931  22.640  15.714   0.316
92591W        W60932   2.307  11.656   2.259
92592W        W60933   3.922  37.980  14.963
92593W        W60934  40.964  26.506   0.279
92594W        W60935  16.156  43.406   4.193
92595W        W60936   7.858   8.289   3.337
92596W        W60937  15.134  14.200   0.822
92597W        W60938  18.243   8.901   1.442
92598W        W60939  29.105  24.636   4.149
92599W        W60940  15.188  28.010  14.431
92600W        W60941  11.242  25.598  11.416
92601W        W60942  15.309  29.998  11.450
92602W        W60943  22.166  36.570  13.833
92603W        W60944  29.112  14.121   3.760
92604W        W60945  42.988  39.941   3.747
92605W        W60946  37.953  13.151  14.825
92606W        W60947  37.356  36.865  11.986
92607W        W60948  18.761   7.786   0.246
92608W        W60949  39.475  44.316   2.740
92609W        W60950  26.157  37.935  11.859
92610W        W60951  26.681  17.087  12.935
92611W        W60952  15.589  12.744   4.790
92612W        W60953  26.490   5.814  10.158
92613W        W60954  43.985  30.159  13.966
92614W        W60955  10.866  31.945  14.339
92615W        W60956   1.862  28.570   0.453
92616W        W60957  10.828  33.975  11.903
92617W        W60958   4.360   6.311   3.629
92618W        W60959  33.023  40.456   0.756
92619W        W60960   1.317  32.098  14.388
92620W        W60961  35.425  16.810  11.520
92621W        W60962   5.717  36.071   0.807
92622W        W60963  41.519   7.298   4.261
92623W        W60964  38.560  28.057  10.957
92624W        W60965  41.538  41.856  10.514
92625W        W60966  18.296  18.547  13.918
92626W        W60967  42.902  29.668  11.929
92627W        W60968  40.530  28.503  14.294
92628W        W60969  20.735  10.160   3.692
92629W        W60970   8.840  41.879  11.867
92630W        W60971  30.106  43.867  11.553
92631W        W60972   0.375   5.710  13.811
92632W        W60973   1.863  20.689  14.415
92633W        W60974  16.602  44.000  10.486
92634W        W60975   3.382  37.867  13.792
92635W        W60976  31.548   8.833   3.761
92636W        W60977  30.553  13.148   2.361
92637W        W60978  15.127   4.362  12.836
92638W        W60979  12.215  11.782  11.442
92639W        W60980  12.276  35.389  14.971
92640W        W60981  19.565  25.482   0.962
92641W        W60982   7.787  16.092  12.431
92642W        W60983  16.300  35.543  11.046
92643W        W60984  16.618  14.662  11.123
92644W        W60985  14.600  11.673  14.362
92645W        W60986  12.183  23.031   2.673
92646W        W60987  29.433  36.371  14.924
92647W        W60988  30.086  40.303   0.926
92648W        W60989   9.783  39.492  12.019
92649W        W60990  11.781  23.240  12.913
92650W        W60991  26.591  32.585  13.911
92651W        W60992  10.349  43.954   3.294
92652W        W60993  26.626  24.990  11.001
92653W        W60994  34.397   0.362   2.685
92654W        W60995  28.674  38.458   0.769
92655W        W60996  43.805  10.754   2.791
92656W        W60997   1.419  33.589   3.656
92657W        W60998  21.144  26.494   3.646
92658W        W60999  24.123  31.990  10.642
92659W        W61000   2.779   1.360   0.327
92660W        W61001  15.622   4.389   4.629
92661W        W61002  44.907  39.533   3.217
92662W        W61003   1.775   1.245   4.615
92663W        W61004  41.529  19.247  10.446
92664W        W61005  41.361  10.729  13.959
92665W        W61006  22.081   4.743   1.711
92666W        W61007   3.762  29.493  14.847
92667W        W61008   3.925  26.566  13.905
92668W        W61009  41.814  36.353   0.302
92669W        W61010  28.944   0.423  14.816
92670W        W61011   1.966  15.666  11.868
92671W        W61012  28.541   2.417   2.784
92672W        W61013   6.691  35.577   2.371
92673W        W61014   0.280  29.562  13.390
92674W        W61015  41.872  16.234  10.940
92675W        W61016  39.819  14.249   1.407
92676W        W61017   8.247  10.725  12.361
92677W        W61018  38.859  15.219  10.012
92678W        W61019  44.758  38.953  10.499
92679W        W61020  41.941  37.084  14.831
92680W        W61021  40.457  23.218  11.096
92681W        W61022  27.957  15.110  11.590
92682W        W61023  13.159  23.232   1.432
92683W        W61024  18.129  27.126   1.303
92684W        W61025  14.640  35.472   4.654
92685W        W61026  19.586   9.835  12.886
92686W        W61027  31.074  42.296  13.012
92687W        W61028  41.964  37.898  11.456
92688W        W61029  10.251  11.248  10.445
92689W        W61030  29.040  20.569   3.700
92690W        W61031  33.560  18.740   1.711
92691W        W61032  11.761  27.118  14.940
92692W        W61033  38.041   3.866   0.936
92693W        W61034  20.036  26.047   3.705
92694W        W61035  20.187   6.708   0.867
92695W        W61036  30.430  23.674  13.351
92696W        W61037  35.046  43.468  12.408
92697W        W61038  38.027   5.903   1.337
92698W        W61039  33.557  27.024  13.901
92699W        W61040  44.944   8.776  14.481
92700W        W61041  17.584  32.027   3.759
92701W        W61042  36.970  28.456  14.807
92702W        W61043  30.579  43.867  13.441
92703W        W61044  28.634  39.858  14.406
92704W        W61045  16.591  26.009   0.290
92705W        W61046  32.022   8.870  12.829
92706W        W61047  19.156   1.884  12.510
92707W        W61048  28.040  37.439  13.524
92708W        W61049  40.798  10.802   4.304
92709W        W61050  40.948  43.812   1.910
92710W        W61051  22.614   2.723   0.271
92711W        W61052  36.494  41.792   2.706
92712W        W61053  38.415   9.838   1.335
92713W        W61054  26.631  36.458   3.312
92714W        W61055  32.885  40.305  11.026
92715W        W61056   4.803  38.069   2.411
92716W        W61057   6.701  34.914  12.393
92717W        W61058  42.457  18.168   0.377
92718W        W61059  26.975  39.472   3.254
92719W        W61060   1.277  22.690   4.240
92720W        W61061   0.899  40.316  12.011
92721W        W61062  41.526  17.195  14.900
92722W        W61063  27.469  19.597   3.689
92723W        W61064  10.666  18.673   4.272
92724W        W61065  34.497  22.218  10.616
92725W        W61066  38.959  27.131   1.311
92726W        W61067  27.515  22.679  11.944
92727W        W61068   6.796   9.653   0.905
92728W        W61069  30.573  20.601  14.943
92729W        W61070  27.615   3.751  11.973
92730W        W61071  10.156  22.729  10.637
92731W        W61072  31.030  22.718  11.037
92732W        W61073  24.114  17.645   3.859
92733W        W61074  19.163  43.335  12.885
92734W        W61075  27.152  14.757  10.635
92735W        W61076  22.532   1.465  12.367
92736W        W61077   0.984  13.603   2.681
92737W        W61078  38.438  16.728  12.078
92738W        W61079   0.338  12.699  14.381
92739W        W61080   3.764  33.398  10.908
92740W        W61081  12.638  25.508  11.408
92741W        W61082  16.806   8.358   4.774
92742W        W61083  14.144  25.034  13.508
92743W        W61084  42.793  34.591   3.202
92744W        W61085  29.062  21.183  12.505
92745W        W61086  25.682  43.313  12.080
92746W        W61087  10.819  30.163  11.994
92747W        W61088  16.802  42.006   4.115
92748W        W61089  21.530  25.190  10.421
92749W        W61090  44.979  23.538   2.194
92750W        W61091  10.243  41.370   5.097
92751W        W61092   6.332   9.857   0.836
92752W        W61093   9.875   2.471  13.832
92753W        W61094  27.592   6.768   0.375
92754W        W61095  14.224  15.767   1.906
92755W        W61096  16.217  15.143  12.007
92756W        W61097   9.792  26.674  11.579
92757W        W61098   7.898  32.475  12.455
92758W        W61099  36.506   5.926   1.834
92759W        W61100   9.215  25.475  12.390
92760W        W61101  33.106   8.370   4.622
92761W        W61102  44.408  26.207   3.662
92762W        W61103  22.740   7.863  13.534
92763W        W61104  40.052  43.486   1.814
92764W        W61105  32.906   5.300   2.704
92765W        W61106  22.650  18.216   3.351
92766W        W61107   6.217  40.356  14.912
92767W        W61108  11.680  12.148  14.431
92768W        W61109  27.119  13.328   3.853
92769W        W61110  38.969  19.772   4.346
92770W        W61111  28.572  10.351   0.957
92771W        W61112  35.957  20.190   1.250
92772W        W61113  35.375   4.277  14.015
92773W        W61114  31.984  41.336  12.486
92774W        W61115  20.547  44.384  14.766
92775W        W61116  11.787   7.173   2.690
92776W        W61117  32.978  43.343  12.367
92777W        W61118  13.709  26.684  12.857
92778W        W61119   8.689  28.085  11.500
92779W        W61120  40.932   6.215   1.879
92780W        W61121  35.499  32.114   3.201
92781W        W61122  11.824  38.877   3.173
92782W        W61123  40.818   0.930   0.788
92783W        W61124  43.505   0.813  13.945
92784W        W61125   4.310  38.519  13.337
92785W        W61126  24.064  33.550   1.307
92786W        W61127  40.806  35.899   3.799
92787W        W61128  41.346  41.456   2.726
92788W        W61129  13.347   9.367   2.337
92789W        W61130   7.316  34.904   1.821
92790W        W61131  26.620   9.849  12.358
92791W        W61132  36.014  12.207  10.606
92792W        W61133  43.793  42.869   1.776
92793W        W61134   4.926  34.467  10.127
92794W        W61135  25.660   6.335   2.398
92795W        W61136  18.186  22.627  13.811
92796W        W61137  10.863   5.809   0.951
92797W        W61138  26.556  24.137   1.437
92798W        W61139  37.016  31.912   9.983
92799W        W61140   2.856   3.733   1.282
92800W        W61141  17.092  43.806  12.011
92801W        W61142  21.222   1.280   2.220
92802W        W61143   3.418  25.180   1.289
92803W        W61144   7.237  28.596   4.150
92804W        W61145  26.669  32.477   3.726
92805W        W61146  21.182  22.141  14.889
92806W        W61147  33.931  43.317   3.693
92807W        W61148  33.879   1.445   4.694
92808W        W61149  12.845  17.694  14.370
92809W        W61150  31.631  41.523  10.954
92810W        W61151   7.409  36.886  14.397
92811W        W61152  17.267  36.363  14.802
92812W        W61153   6.407  23.053  13.449
92813W        W61154  42.345  22.610  14.775
92814W        W61155  24.516  13.830   3.701
92815W        W61156   2.372   5.905  14.900
92816W        W61157  27.157   3.791  12.865
92817W        W61158   2.294   4.352   2.318
92818W        W61159  11.666  29.454  13.325
92819W        W61160  14.675  11.263   3.697
92820W        W61161  37.401  23.609  13.857
92821W        W61162  27.624  44.304  14.432
92822W        W61163   0.362  29.932   0.886
92823W        W61164   4.824  13.236   3.691
92824W        W61165   2.324   4.276   2.852
92825W        W61166   2.461   5.225  10.561
92826W        W61167  44.919  31.061   0.271
92827W        W61168  27.095  17.672   0.394
92828W        W61169  17.678  10.864   3.812
92829W        W61170  29.112  26.131   3.202
92830W        W61171  35.430  20.680   3.350
92831W        W61172   1.260  42.324  11.930
92832W        W61173   0.818  44.915  12.049
92833W        W61174  15.765  43.839  14.930
92834W        W61175  28.617  17.071   3.815
92835W        W61176  34.460  24.136  14.982
92836W        W61177  33.061  35.059  14.779
92837W        W61178  21.199  24.650  12.873
92838W        W61179  28.117   5.330   3.325
92839W        W61180  21.661  17.068   2.407
92840W        W61181  13.650   3.369   3.717
92841W        W61182  29.544  40.957   4.612
92842W        W61183  38.398  31.028   0.250
92843W        W61184  34.068  28.495   3.377
92844W        W61185  26.627   5.753   4.715
92845W        W61186  20.221   9.386   4.736
92846W        W61187  42.446   5.829  12.339
92847W        W61188  14.140  33.969  10.992
92848W        W61189  41.968  19.263  10.580
92849W        W61190  10.377  31.557  10.442
92850W        W61191  38.941   8.895  11.068
92851W        W61192   6.759  19.144   0.320
92852W        W61193  25.616  14.121  14.295
92853W        W61194   9.665   5.353   3.705
92854W        W61195  12.223  19.748   3.365
92855W        W61196   4.820  25.081   4.606
92856W        W61197  25.506  18.578   3.839
92857W        W61198  30.005  15.823  12.004
92858W        W61199   3.444  30.469   1.438
92859W        W61200  19.147  29.567  14.994
92860W        W61201  15.798   7.199  13.480
92861W        W61202  14.600  30.999   4.672
92862W        W61203  16.101  13.728   1.766
92863W        W61204  40.990   7.683   1.316
92864W        W61205   9.783   9.877   4.119
92865W        W61206  40.915  17.110  12.904
92866W        W61207  22.234  39.854  11.442
92867W        W61208   7.303  39.453   0.847
92868W        W61209  17.670  32.619   2.182
92869W        W61210  23.565  37.011   2.193
92870W        W61211  13.758  44.883  12.576
92871W        W61212  37.921  10.786   2.733
92872W        W61213  24.212  25.604   2.790
92873W        W61214  22.224  31.620  12.516
92874W        W61215   3.395  36.935  10.521
92875W        W61216  10.829  30.638  12.004
92876W        W61217   6.917  35.597   2.809
92877W        W61218  12.180  27.547   1.716
92878W        W61219  36.084  15.742   2.293
92879W        W61220  24.205   2.303   0.304
92880W        W61221  10.163   6.319  12.043
92881W        W61222  30.538  27.977   3.214
92882W        W61223   2.893  34.914   1.397
92883W        W61224  31.641  37.437  14.029
92884W        W61225  21.599  41.833  14.804
92885W        W61226  43.888   4.794  13.905
92886W        W61227  27.989   6.791   4.689
92887W        W61228  44.272  24.090   0.422
92888W        W61229  38.518  31.546   1.384
92889W        W61230  21.720   2.428  11.984
92890W        W61231  12.213   8.860  10.539
92891W        W61232  21.216   7.803  13.022
92892W        W61233  27.655  21.057  10.943
92893W        W61234   7.324   2.830  11.546
92894W        W61235  25.017  21.252  10.600
92895W        W61236   6.363  25.036  12.450
92896W        W61237  23.097  13.284   1.825
92897W        W61238  38.009   4.897   4.818
92898W        W61239   5.771  33.992  13.356
92899W        W61240  44.927   5.884  12.039
92900W        W61241  33.395  25.655   2.692
92901W        W61242  12.735  10.171  12.941
92902W        W61243  18.616   8.308   4.803
92903W        W61244  18.083   9.248  12.989
92904W        W61245   3.738  26.140  13.543
92905W        W61246  18.597  17.138   9.948
92906W        W61247  19.761  14.147   3.330
92907W        W61248  22.687  38.413   0.923
92908W        W61249  40.517  18.088   3.796
92909W        W61250  16.640   6.714   2.192
92910W        W61251  41.396  13.175   1.804
92911W        W61252  43.424   5.382   2.727
92912W        W61253  44.308  31.408   1.821
92913W        W61254  17.133  21.739   5.194
92914W        W61255   6.757   0.865   0.783
92915W        W61256   1.952  43.339  14.294
92916W        W61257  39.518  19.699   2.867
92917W        W61258  38.894  15.646   3.212
92918W        W61259  12.653  32.996  13.064
92919W        W61260  10.662   7.392   0.476
92920W        W61261  25.216  11.358  12.347
92921W        W61262  33.951  32.079   4.183
92922W        W61263  31.139   1.336  14.438
92923W        W61264   7.213  13.737   0.940
92924W        W61265  32.918  44.884   1.770
92925W        W61266  18.115   6.691  12.974
92926W        W61267  12.187  14.222  14.508
92927W        W61268  26.982  32.505  12.543
92928W        W61269  39.838   0.335  13.857
92929W        W61270  36.504   9.237   2.731
92930W        W61271  15.791  32.405   2.886
92931W        W61272  44.940   7.386  14.784
92932W        W61273  20.659   3.289   1.934
92933W        W61274  23.043   6.184   2.296
92934W        W61275  31.020  33.896   4.218
92935W        W61276   2.301  15.087  13.496
92936W        W61277  19.260   2.935  11.002
92937W        W61278  32.124   5.806  14.978
92938W        W61279  26.660   7.873  13.429
92939W        W61280   7.323  39.389  11.591
92940W        W61281  15.176  27.092   1.789
92941W        W61282  10.676  16.245  14.796
92942W        W61283  44.337  25.500   3.193
92943W        W61284  31.551   2.321  11.455
92944W        W61285  35.022  43.461  13.333
92945W        W61286   7.177  38.547   3.337
92946W        W61287  14.648   2.398  12.526
92947W        W61288  11.645  38.521   1.923
92948W        W61289   9.657   5.308  13.473
92949W        W61290  26.687  38.564   1.828
92950W        W61291  32.980   6.337  12.379
92951W        W61292  14.116   0.260   1.364
92952W        W61293  12.775  34.089   1.728
92953W        W61294  23.194   0.276  13.506
92954W        W61295  20.712  43.980   4.279
92955W        W61296  26.050  20.645   3.314
92956W        W61297  25.009  34.076   2.795
92957W        W61298  31.484  26.506  11.108
92958W        W61299  37.859  14.716  13.895
92959W        W61300  14.694  27.004   3.828
92960W        W61301   9.288  23.124  14.817
92961W        W61302  37.948  21.080  10.588
92962W        W61303  41.346  28.556   1.835
92963W        W61304  10.762  34.916   3.172
92964W        W61305  31.983  25.080   4.277
92965W        W61306  26.551  32.042  10.585
92966W        W61307  13.253  26.676  10.513
92967W        W61308  23.715   9.825   3.776
92968W        W61309  39.041   0.446  13.387
92969W        W61310  27.052  27.495  12.414
92970W        W61311  17.756  11.789  10.111
92971W        W61312  18.759   7.821  14.896
92972W        W61313  13.313  38.444  11.122
92973W        W61314  12.825  11.705   3.741
92974W        W61315  26.962   5.854  13.823
92975W        W61316  11.234  29.963   2.724
92976W        W61317  17.570  31.609   5.719
92977W        W61318  41.474   3.823   0.761
92978W        W61319  13.783   0.904  13.374
92979W        W61320  10.706  27.186  13.883
92980W        W61321  42.821  31.600  14.278
92981W        W61322  24.184  16.741   5.116
92982W        W61323  32.545  19.747   2.346
92983W        W61324   5.380  11.158   3.342
92984W        W61325   9.221  14.184  11.468
92985W        W61326   7.397  14.658  12.826
92986W        W61327  32.596  10.259  13.991
92987W        W61328  28.945  33.893  12.432
92988W        W61329  21.257  40.425   0.775
92989W        W61330  12.810  42.991   4.349
92990W        W61331  10.183  15.216  11.979
92991W        W61332   8.220  21.085  13.373
92992W        W61333  33.566  31.115   2.897
92993W        W61334  29.058   4.396   4.247
92994W        W61335  23.163   2.901  13.349
92995W        W61336  21.542  32.507  11.021
92996W        W61337  12.232   5.840   1.738
92997W        W61338   3.839  19.669  12.964
92998W        W61339  10.173  30.586   1.793
92999W        W61340  15.782   8.848  12.540
93000W        W61341  43.460   0.921   2.285
93001W        W61342  31.475  34.019  11.928
93002W        W61343   8.326   1.772  10.961
93003W        W61344  15.800  14.208   3.858
93004W        W61345   3.882  38.450   1.845
93005W        W61346  21.649  44.387  13.792
93006W        W61347  44.784  35.907  14.374
93007W        W61348  41.401  13.610  10.640
93008W        W61349  28.151  43.396   0.269
93009W        W61350  31.918  37.876   0.245
93010W        W61351  32.098  30.585  11.439
93011W        W61352  14.603   3.430   2.861
93012W        W61353  12.268  23.047  13.455
93013W        W61354  24.154   2.899  11.495
93014W        W61355  27.627  16.682   4.653
93015W        W61356  38.920  40.973  10.474
93016W        W61357  36.983  27.678   2.181
93017W        W61358  36.081  21.212  10.938
93018W        W61359   6.896   7.832   1.378
93019W        W61360   5.904  13.808   1.335
93020W        W61361  32.508   7.229   2.844
93021W        W61362  34.957  21.018   1.323
93022W        W61363  40.993   3.278   3.833
93023W        W61364   0.259   1.239  13.317
93024W        W61365  21.057  43.313  10.953
93025W        W61366  26.990  42.863  10.978
93026W        W61367  38.036   8.862   1.255
93027W        W61368   4.873  22.516  10.471
93028W        W61369  27.624  38.952  14.789
93029W        W61370  24.194  32.126   4.154
93030W        W61371  24.180  20.635   4.658
93031W        W61372  43.988  36.988   0.957
93032W        W61373  31.618  40.016   0.753
93033W        W61374  15.246   7.880   2.776
93034W        W61375  23.144  12.732   3.206
93035W        W61376  35.432  21.040  14.432
93036W        W61377  30.417   8.207   3.266
93037W        W61378  41.938  23.218  12.847
93038W        W61379  26.153  40.403  14.400
93039W        W61380  44.321  24.716  14.329
93040W        W61381  18.734  25.205  10.964
93041W        W61382  27.045   9.278  13.929
93042W        W61383  31.947  17.173   3.846
93043W        W61384  21.227  31.406   3.805
93044W        W61385  32.484   1.280   2.744
93045W        W61386  40.806  44.776  13.861
93046W        W61387  14.672  18.709  10.443
93047W        W61388  16.630   3.925   4.834
93048W        W61389  10.735   4.253   0.782
93049W        W61390  31.935  23.083  11.905
93050W        W61391  20.575  31.953  13.500
93051W        W61392  30.596  31.988   1.753
93052W        W61393  10.161  38.391  10.079
93053W        W61394   5.218  18.237   1.831
93054W        W61395  38.569  16.620  13.976
93055W        W61396  34.043  12.700   0.761
93056W        W61397  31.550   2.841  13.336
93057W        W61398  37.408  10.211   2.810
93058W        W61399  33.407  11.210  14.020
93059W        W61400   4.738  19.125  11.964
93060W        W61401  22.043  43.292  10.405
93061W        W61402  10.321  24.553  10.976
93062W        W61403   6.872  21.634   3.778
93063W        W61404  22.611  36.061  11.461
93064W        W61405   5.727  38.859   4.335
93065W        W61406   6.720   8.288   4.298
93066W        W61407   2.861  18.139   2.236
93067W        W61408  38.063  43.909   0.852
93068W        W61409  30.457   0.492  13.863
93069W        W61410  35.522  34.458  10.434
93070W        W61411  40.964  28.544   2.803
93071W        W61412  30.020  31.010   2.806
93072W        W61413   9.195  43.966  10.534
93073W        W61414  39.037   8.828  14.346
93074W        W61415  15.170  20.769  11.532
93075W        W61416   2.953  27.955   1.309
93076W        W61417   8.332   5.419   1.847
93077W        W61418  37.948  30.600  12.070
93078W        W61419   3.878  35.492   0.779
93079W        W61420  35.911  30.442  12.861
93080W        W61421  41.885   1.269  13.043
93081W        W61422  43.298  26.006  13.500
93082W        W61423  15.819  42.876  11.113
93083W        W61424  19.759  38.072  12.561
93084W        W61425  20.148  16.689   4.170
93085W        W61426  24.167  18.085  13.506
93086W        W61427  26.172  32.461  10.920
93087W        W61428  12.720  16.613  12.453
93088W        W61429  42.990  15.102  14.284
93089W        W61430  15.261  42.285  12.958
93090W        W61431  12.830  38.502   0.329
93091W        W61432  13.835   2.347  11.562
93092W        W61433   0.815   4.733   2.182
93093W        W61434  20.160   7.783   4.352
93094W        W61435   0.778   1.301  11.020
93095W        W61436  35.580  32.436   1.714
93096W        W61437  28.983  43.443  13.497
93097W        W61438  43.469  26.512   2.747
93098W        W61439   5.826  14.244   4.185
93099W        W61440  44.433  42.378   4.241
93100W        W61441  41.912   1.826  10.601
93101W        W61442  41.997  24.700  10.515
93102W        W61443  17.219   3.733   3.778
93103W        W61444  33.968   6.257  12.446
93104W        W61445  33.463   4.882  13.494
93105W        W61446   2.829   9.655   2.269
93106W        W61447  42.432  22.151   2.687
93107W        W61448  25.996  44.980  11.534
93108W        W61449   8.351  41.994   4.624
93109W        W61450  13.315   5.384   0.909
93110W        W61451  36.863  17.625  10.551
93111W        W61452   3.248   4.764   5.167
93112W        W61453   5.336  26.053   4.813
93113W        W61454   5.346   7.815   1.712
93114W        W61455  19.178  40.434   1.755
93115W        W61456  26.190  35.969  13.034
93116W        W61457  37.008   4.799  12.401
93117W        W61458  20.719  10.775   3.805
93118W        W61459  12.788   2.319  12.532
93119W        W61460   7.850  13.307  14.379
93120W        W61461  27.668  32.018  12.477
93121W        W61462  24.479   8.321  14.451
93122W        W61463  16.072  30.464  11.530
93123W        W61464  14.264  29.544  13.528
93124W        W61465  35.362  21.621  11.583
93125W        W61466  30.478  25.017   4.755
93126W        W61467  41.512   4.723   0.787
93127W        W61468  29.591  22.583  12.059
93128W        W61469  35.461  11.156  14.384
93129W        W61470  13.654  13.733  14.831
93130W        W61471  32.539   5.699   0.459
93131W        W61472  30.418  40.934  12.436
93132W        W61473  14.829   7.358   1.411
93133W        W61474  17.786  14.162   3.245
93134W        W61475   1.321   6.815  10.405
93135W        W61476  41.988   7.327   4.344
93136W        W61477  43.947  27.126   4.116
93137W        W61478  26.564  24.555   1.925
93138W        W61479   5.847   4.285  10.500
93139W        W61480   2.342   2.228  14.783
93140W        W61481  38.855  37.979  14.825
93141W        W61482   3.800  13.329  12.013
93142W        W61483  44.911   7.862  12.874
93143W        W61484  29.463  22.043  14.782
93144W        W61485  31.052  20.102  12.915
93145W        W61486  43.336   1.447   3.782
93146W        W61487  14.820  36.051  12.464
93147W        W61488  23.620  44.859  12.897
93148W        W61489  36.556  18.252   1.432
93149W        W61490  44.928  28.495   4.802
93150W        W61491  23.044  10.641  10.642
93151W        W61492   4.866  42.430  12.392
93152W        W61493   2.789  42.843  11.554
93153W        W61494  18.769  15.703  10.977
93154W        W61495  39.865  41.309   4.331
93155W        W61496  38.882  32.077   2.253
93156W        W61497  24.008   4.878   2.672
93157W        W61498  13.148  20.527   0.886
93158W        W61499  23.066  14.262  14.962
93159W        W61500  37.382  40.984  11.028
93160W        W61501   7.400  17.782  14.911
93161W        W61502   4.923  37.494  12.062
93162W        W61503  12.259  26.615   4.653
93163W        W61504  39.467  29.973  14.306
93164W        W61505  23.191  12.761   2.737
93165W        W61506  12.196   9.391  13.467
93166W        W61507   1.908  14.331   3.814
93167W        W61508   8.660  18.724   3.761
93168W        W61509   1.464  43.383  11.949
93169W        W61510   2.342  34.999   2.704
93170W        W61511  20.129  35.987  10.935
93171W        W61512   7.377   0.301   0.831
93172W        W61513  38.465  30.626   1.798
93173W        W61514  20.706  17.090  11.581
93174W        W61515  43.828   2.842   2.823
93175W        W61516   1.906  35.553  13.063
93176W        W61517  13.814  41.979  10.151
93177W        W61518  14.789  26.632   5.322
93178W        W61519  31.449   8.166   0.306
93179W        W61520  16.261  43.958  11.077
93180W        W61521  24.141   8.848   0.838
93181W        W61522  41.462  27.492   1.901
93182W        W61523   2.865  33.580  11.045
93183W        W61524  41.799  37.508   1.791
93184W        W61525  18.143  24.712  13.059
93185W        W61526  34.867  34.091  13.454
93186W        W61527   3.230  35.893  13.866
93187W        W61528  14.121  27.595  14.790
93188W        W61529  31.005  33.550   0.463
93189W        W61530   8.311  23.097   1.848
93190W        W61531   4.277  26.651  13.812
93191W        W61532   0.851   9.299  11.414
93192W        W61533  31.630  35.369   4.837
93193W        W61534   7.316  11.170   3.152
93194W        W61535   5.290  20.116   0.464
93195W        W61536  29.934  32.569  14.281
93196W        W61537  13.725  40.466   5.611
93197W        W61538  10.376   1.777   4.747
93198W        W61539  14.592  32.416  12.003
93199W        W61540  16.185  40.855   0.869
93200W        W61541   0.920  31.594   1.444
93201W        W61542   8.786  33.429  10.636
93202W        W61543   7.718  25.569   1.795
93203W        W61544  27.581  11.338  11.965
93204W        W61545   4.442  38.489   3.197
93205W        W61546  15.808  31.081   4.602
93206W        W61547  42.784  43.377   1.279
93207W        W61548  28.660  21.092  14.801
93208W        W61549  35.874   2.757   3.302
93209W        W61550  26.101  22.541  14.429
93210W        W61551  35.008   9.775  14.913
93211W        W61552  17.664   3.271  12.055
93212W        W61553  36.888  30.504  14.959
93213W        W61554  17.627  19.106   4.717
93214W        W61555  36.427  38.951  14.912
93215W        W61556  42.958   2.317   3.355
93216W        W61557  16.145  23.606   2.403
93217W        W61558  18.591  22.061  12.516
93218W        W61559   9.711  26.007   0.358
93219W        W61560  40.514  27.579   3.348
93220W        W61561  36.382   2.857  13.979
93221W        W61562  19.100  31.023  14.916
93222W        W61563  18.180  44.927  11.606
93223W        W61564  13.156  43.445  14.418
93224W        W61565  30.137   7.750   0.342
93225W        W61566  32.484  34.433   1.809
93226W        W61567  41.951   9.839  12.056
93227W        W61568  42.877  18.602  10.454
93228W        W61569  28.640  28.183   1.288
93229W        W61570  10.281  26.470  13.379
93230W        W61571  44.794  34.907   0.399
93231W        W61572  22.107  31.544   4.195
93232W        W61573   7.741  17.115  12.498
93233W        W61574  41.325  36.355   0.826
93234W        W61575  29.991   7.304  13.013
93235W        W61576   8.760  35.094  13.486
93236W        W61577  15.222  43.424   2.673
93237W        W61578  33.397  35.059  13.506
93238W        W61579  32.074  26.100  11.578
93239W        W61580  31.079   4.753   2.754
93240W        W61581   6.226  17.717   1.749
93241W        W61582   4.209  30.116  12.057
93242W        W61583   7.742  22.745   0.899
93243W        W61584   6.376  43.275  11.985
93244W        W61585  10.681   6.706  11.907
93245W        W61586  30.472  14.607  14.277
93246W        W61587  17.768   7.746  11.016
93247W        W61588  10.347  30.159   1.808
93248W        W61589   5.791  27.491  13.910
93249W        W61590  42.300  27.066   2.330
93250W        W61591  44.814  38.899   3.866
93251W        W61592   7.290  25.136  12.847
93252W        W61593  11.769  28.608  10.573
93253W        W61594   7.269  40.868   0.314
93254W        W61595   5.340  41.967   0.424
93255W        W61596  24.149  26.095  13.980
93256W        W61597  22.536  17.122  10.556
93257W        W61598  15.630  29.603  13.993
93258W        W61599  23.548  29.958  11.065
93259W        W61600  43.901   7.889  12.038
93260W        W61601  16.809  13.756   4.598
93261W        W61602  26.109   4.259   0.898
93262W        W61603  25.545   2.836   1.934
93263W        W61604  20.166   8.796   1.352
93264W        W61605  34.508  38.363   4.836
93265W        W61606   0.402  29.575  12.466
93266W        W61607  38.916  22.034  14.510
93267W        W61608   6.909  40.452   1.736
93268W        W61609   9.288  30.078   2.208
93269W        W61610  35.384   7.389  13.874
93270W        W61611  12.793  27.540  13.393
93271W        W61612   3.233  14.619  13.495
93272W        W61613  27.556  44.482   1.908
93273W        W61614   8.379  37.843   3.766
93274W        W61615  38.077  23.212  10.970
93275W        W61616  23.508  38.411   2.316
93276W        W61617  20.556  23.728  11.595
93277W        W61618  31.523   4.812   2.195
93278W        W61619  30.504  29.101  14.017
93279W        W61620  41.952   1.805  13.867
93280W        W61621  19.118   9.823  11.040
93281W        W61622  10.841   3.357   4.728
93282W        W61623  34.458  31.002  10.640
93283W        W61624  23.066  29.984  13.890
93284W        W61625   7.886  27.496  10.477
93285W        W61626   8.838  42.800  12.005
93286W        W61627   6.883  24.704   2.304
93287W        W61628  36.936  11.348   2.242
93288W        W61629  20.744  10.226   0.804
93289W        W61630  20.558  19.063  12.941
93290W        W61631  34.482  33.403  10.617
93291W        W61632   8.394  34.979  14.428
93292W        W61633  28.453  34.903   4.180
93293W        W61634  16.246  23.108  11.975
93294W        W61635  11.240  32.401   4.633
93295W        W61636  15.181  17.647   1.764
93296W        W61637  44.269   9.780  12.561
93297W        W61638  41.395   8.692  10.426
93298W        W61639  36.381  31.001   4.814
93299W        W61640  12.214  15.764   2.278
93300W        W61641  19.058  27.963   1.932
93301W        W61642  41.380  32.010  12.378
93302W        W61643   8.839  34.445  13.880
93303W        W61644  21.261  42.786   4.776
93304W        W61645  15.263  20.081  10.547
93305W        W61646  32.951  19.219   3.721
93306W        W61647  22.038  24.531   3.163
93307W        W61648  36.916  13.827   0.301
93308W        W61649  27.504   3.755   0.386
93309W        W61650  19.271  14.250   2.717
93310W        W61651  30.499  21.597  12.340
93311W        W61652  14.154  28.559  13.360
93312W        W61653  42.291  31.148   3.717
93313W        W61654  21.717  42.511  10.530
93314W        W61655  36.565  20.092   2.682
93315W        W61656  26.690  37.028   1.439
93316W        W61657   5.422  30.539   1.389
93317W        W61658  12.338  33.528  12.498
93318W        W61659  31.552  25.110   2.268
93319W        W61660   0.953  13.785  14.022
93320W        W61661  36.370  33.101   1.719
93321W        W61662  30.491  32.984   4.744
93322W        W61663  12.116  19.633  13.504
93323W        W61664  27.450   4.833  10.016
93324W        W61665  39.938  35.586   0.325
93325W        W61666  28.975  10.216   0.318
93326W        W61667  33.589  37.576   4.801
93327W        W61668  21.596   5.381   4.674
93328W        W61669  15.621  12.759  11.867
93329W        W61670  18.659  33.570  13.868
93330W        W61671  44.420   0.351  14.515
93331W        W61672  18.163  36.987  11.593
93332W        W61673  37.551  38.455  10.512
93333W        W61674  15.168   9.803   4.822
93334W        W61675  39.554   9.877   3.834
93335W        W61676   8.309   0.488  11.087
93336W        W61677  17.276  26.992  13.841
93337W        W61678  21.660  42.909   2.351
93338W        W61679   4.266  32.633   3.168
93339W        W61680  19.708  36.580   4.598
93340W        W61681  16.102  18.571   1.393
93341W        W61682  21.086  29.458  14.876
93342W        W61683  17.672  37.380   0.479
93343W        W61684  19.757  32.516   1.265
93344W        W61685   0.987   0.899   4.229
93345W        W61686   4.255   3.378  12.422
93346W        W61687   1.876   8.764   2.672
93347W        W61688  22.664  21.097  14.906
93348W        W61689  23.669   2.323  10.514
93349W        W61690  30.459  44.939  11.574
93350W        W61691   2.935  11.633   4.804
93351W        W61692  23.670  24.543  10.623
93352W        W61693  32.422  24.692  12.472
93353W        W61694  44.819  23.020   4.790
93354W        W61695   2.269   5.430  13.486
93355W        W61696   4.806  44.292  11.069
93356W        W61697  13.342  23.101  14.857
93357W        W61698  40.888   3.237  11.064
93358W        W61699   8.854   8.719  14.477
93359W        W61700  16.602  15.601  14.836
93360W        W61701  43.919  19.070  10.446
93361W        W61702  10.725  28.478  11.100
93362W        W61703  35.015  36.522  14.877
93363W        W61704  42.377  12.717  11.519
93364W        W61705   4.763  14.233   1.864
93365W        W61706   1.395   7.706  12.419
93366W        W61707   8.252  11.797  12.488
93367W        W61708  10.771  32.112  13.460
93368W        W61709  20.082  19.258  11.380
93369W        W61710  13.299  21.654   0.275
93370W        W61711  32.422   6.339  12.478
93371W        W61712  27.179  35.526   2.730
93372W        W61713  17.759   6.191  14.427
93373W        W61714  17.768  10.779  10.434
93374W        W61715  42.873  11.805  11.549
93375W        W61716  22.213   5.810   2.350
93376W        W61717  35.054   2.452   0.906
93377W        W61718  42.443   1.762  13.004
93378W        W61719  28.028  23.172   3.824
93379W        W61720  15.741  41.025  12.868
93380W        W61721  39.059  12.661   2.256
93381W        W61722  15.141  34.436   9.494
93382W        W61723  29.134  25.165   3.373
93383W        W61724   2.737   1.920   1.762
93384W        W61725   8.357  19.184   1.783
93385W        W61726  35.975  39.435  13.449
93386W        W61727  15.086  13.599   1.771
93387W        W61728  12.329  42.282   1.844
93388W        W61729  17.618  31.900   0.431
93389W        W61730   5.888   6.918   2.793
93390W        W61731  42.013  24.500   4.122
93391W        W61732  44.260  22.167   3.374
93392W        W61733  30.536  13.602   0.327
93393W        W61734   4.764  38.380  14.825
93394W        W61735  26.182  39.898   3.825
93395W        W61736  34.415  18.058  11.045
93396W        W61737  18.700  32.480  13.350
93397W        W61738  27.038  19.097  11.958
93398W        W61739  41.496   3.338   3.812
93399W        W61740   4.903  29.142   1.826
93400W        W61741  17.143  29.605  12.460
93401W        W61742  41.879  40.027   2.200
93402W        W61743  38.919  20.536  12.062
93403W        W61744  26.463  36.908  13.343
93404W        W61745  26.546  34.472   0.859
93405W        W61746  33.034  21.099   3.191
93406W        W61747   1.448  25.615  13.838
93407W        W61748  12.261  16.583  13.447
93408W        W61749  37.503  18.232   3.259
93409W        W61750  31.607  26.511  13.827
93410W        W61751  27.566  12.614  14.367
93411W        W61752  17.158  13.300  10.940
93412W        W61753  41.370  12.233  14.285
93413W        W61754  14.702  26.600  14.961
93414W        W61755  29.030  32.548   3.693
93415W        W61756  32.599   9.265   2.321
93416W        W61757  15.300  27.987  12.552
93417W        W61758  29.654   7.874   4.811
93418W        W61759  35.943   8.326   4.200
93419W        W61760  35.452  21.043  13.387
93420W        W61761  18.251  24.594   4.345
93421W        W61762  25.045  19.547  11.589
93422W        W61763  40.813  36.483   0.437
93423W        W61764  39.500  42.507  11.485
93424W        W61765  29.129   3.346  10.468
93425W        W61766  25.612  41.787   4.243
93426W        W61767  20.659  26.066  10.433
93427W        W61768  30.940  27.960   0.763
93428W        W61769  25.149  39.523  13.522
93429W        W61770   3.852   7.741  10.433
93430W        W61771   8.764  24.573   4.134
93431W        W61772  24.015  38.888  14.515
93432W        W61773  11.785  28.987  11.503
93433W        W61774  11.265  39.477  11.985
93434W        W61775   3.225  28.616  10.900
93435W        W61776  39.408  11.274  13.376
93436W        W61777  22.745   4.776   0.898
93437W        W61778  19.057  17.598   4.184
93438W        W61779   1.369  37.545   4.141
93439W        W61780  34.901   9.752   4.776
93440W        W61781  38.887  23.490  14.312
93441W        W61782  12.290   6.312  13.434
93442W        W61783  29.667   7.257  13.010
93443W        W61784  19.659  28.959  13.363
93444W        W61785  16.165  41.834   0.476
93445W        W61786  34.409  21.057   3.813
93446W        W61787  10.678  44.819   4.350
93447W        W61788  28.956   0.953   1.237
93448W        W61789  11.748  13.826   3.710
93449W        W61790   8.203  41.971   2.741
93450W        W61791   9.255  42.815  14.760
93451W        W61792  22.148  41.043   0.400
93452W        W61793  33.514  19.200   2.749
93453W        W61794  30.497  21.170  12.934
93454W        W61795  16.286  44.325   0.805
93455W        W61796  29.527  41.984  13.857
93456W        W61797  24.155  32.396  14.438
93457W        W61798  21.603  10.308   1.871
93458W        W61799  39.518  40.507  14.934
93459W        W61800  32.977  41.443  13.412
93460W        W61801  21.709  25.032  13.801
93461W        W61802  21.095  14.303  13.381
93462W        W61803  19.619  15.731  10.511
93463W        W61804  42.004  41.958  12.367
93464W        W61805  33.588   6.410   1.846
93465W        W61806  14.265  26.110   0.836
93466W        W61807  12.275   9.703  13.475
93467W        W61808   3.865  21.614   0.295
93468W        W61809   4.812  14.201  10.150
93469W        W61810   5.206  24.139   0.967
93470W        W61811  14.308  18.583   3.160
93471W        W61812   1.912   9.817  14.891
93472W        W61813  37.381   7.243   3.703
93473W        W61814   4.370  28.499  14.860
93474W        W61815   8.263  28.102   1.832
93475W        W61816  19.533   7.342   1.756
93476W        W61817  14.133  35.906  13.310
93477W        W61818  35.505  43.807   3.291
93478W        W61819   6.825  10.267  12.579
93479W        W61820  14.148  21.208  12.552
93480W        W61821  23.125  19.048   2.379
93481W        W61822  21.753   2.445  12.826
93482W        W61823  25.088  25.684   3.722
93483W        W61824  16.086  10.827  12.039
93484W        W61825   7.187  23.208   2.387
93485W        W61826   9.219  42.360  14.001
93486W        W61827  23.504   9.706   4.806
93487W        W61828  39.557  27.594  11.581
93488W        W61829  10.275  33.561   0.476
93489W        W61830  36.362   4.717   9.968
93490W        W61831  21.730  29.955   2.331
93491W        W61832  20.748   6.861  13.389
93492W        W61833  21.686  18.069   3.739
93493W        W61834  33.091  19.571   0.923
93494W        W61835  28.535   6.365  14.847
93495W        W61836  22.065   1.438  11.007
93496W        W61837  25.618  12.270  13.458
93497W        W61838  11.186  39.853  10.558
93498W        W61839  38.485  39.840  12.951
93499W        W61840  18.248  17.798  14.760
93500W        W61841  31.428  42.807  14.856
93501W        W61842  27.171  12.830  12.002
93502W        W61843  17.696  42.348  11.064
93503W        W61844   6.329  43.807   0.835
93504W        W61845  23.115  27.062  14.277
93505W        W61846  26.483  11.674   1.772
93506W        W61847  26.512   7.790  14.865
93507W        W61848   9.889  28.458   4.633
93508W        W61849   2.302   6.378  14.385
93509W        W61850  31.970   3.355  10.625
93510W        W61851  23.235   4.778   3.279
93511W        W61852  44.275  42.806  10.544
93512W        W61853  38.508   0.488  10.416
93513W        W61854  15.199  37.066   3.198
93514W        W61855  28.641  20.059  10.460
93515W        W61856  17.694  26.180  12.012
93516W        W61857   5.828   6.377  14.463
93517W        W61858  23.054  32.614  11.891
93518W        W61859  41.983  33.952   3.762
93519W        W61860  34.531  31.490  14.791
93520W        W61861   0.845  11.225  11.374
93521W        W61862  32.969   6.709   4.128
93522W        W61863   9.708   1.265  12.463
93523W        W61864  28.504  34.901  14.478
93524W        W61865   2.738  10.637  12.956
93525W        W61866   9.232   3.842  11.585
93526W        W61867  10.349  30.930  11.515
93527W        W61868  11.866   5.207   4.233
93528W        W61869  15.321  29.088  10.528
93529W        W61870  10.683   4.886   0.789
93530W        W61871   1.905  27.994   2.850
93531W        W61872  19.597   3.452   3.201
93532W        W61873  23.554  36.906  12.375
93533W        W61874  14.719   5.366   4.647
93534W        W61875   3.827  44.295   0.388
93535W        W61876  28.133  38.411  10.469
93536W        W61877   8.169  12.125   0.767
93537W        W61878  33.453  28.572  12.388
93538W        W61879  26.141  32.583  12.481
93539W        W61880  17.682  29.643   0.426
93540W        W61881  27.686  33.526   3.657
93541W        W61882   3.316  13.187   5.192
93542W        W61883  24.020  15.154   4.622
93543W        W61884   3.283   1.873   0.951
93544W        W61885  42.399  24.521   0.431
93545W        W61886   0.389  19.720   5.265
93546W        W61887  21.693  20.056   2.782
93547W        W61888  27.043  22.176  13.825
93548W        W61889  28.147  31.544  12.384
93549W        W61890   0.332   5.418  13.397
93550W        W61891  34.942  22.094  13.532
93551W        W61892  19.089   5.289  10.577
93552W        W61893   2.757   5.257   0.806
93553W        W61894  25.538   3.397   3.356
93554W        W61895   3.247  42.858  14.492
93555W        W61896  30.504   2.856   1.429
93556W        W61897   3.457  19.656   4.800
93557W        W61898  10.193  39.900  12.903
93558W        W61899  43.872   8.760   3.379
93559W        W61900  43.956  36.914   2.358
93560W        W61901   8.394  38.977   3.846
93561W        W61902  38.397  30.422  14.971
93562W        W61903  28.073   6.806   0.827
93563W        W61904  26.662  28.677   4.275
93564W        W61905   3.256   4.426   3.724
93565W        W61906   4.232  23.654   1.268
93566W        W61907  20.169  20.030   3.291
93567W        W61908  14.620  34.941  13.921
93568W        W61909  30.032  42.341  11.062
93569W        W61910   3.223  31.057   0.371
93570W        W61911  17.722  33.104   0.818
93571W        W61912  16.724  34.443  11.526
93572W        W61913  12.180  21.551  13.482
93573W        W61914  20.243   7.192   3.782
93574W        W61915  24.693  17.729  13.312
93575W        W61916  39.843  22.522  12.074
93576W        W61917  24.168  30.459   3.200
93577W        W61918  17.266  41.963   0.261
93578W        W61919   7.195  10.802  10.445
93579W        W61920  39.011  12.635  12.864
93580W        W61921   5.401  17.676   0.797
93581W        W61922  26.056  35.049  14.964
93582W        W61923  39.974  34.069  12.478
93583W        W61924  33.930  13.272   0.799
93584W        W61925   4.294  17.702   3.654
93585W        W61926  36.402  36.882   4.188
93586W        W61927  11.746  17.164  10.602
93587W        W61928  34.872  43.880   4.136
93588W        W61929  21.018   5.434   3.268
93589W        W61930  40.021   6.334   4.135
93590W        W61931  35.001  27.674  11.046
93591W        W61932  28.968  35.053  11.481
93592W        W61933  12.695  41.800   3.862
93593W        W61934  12.661  42.364   2.399
93594W        W61935  29.140  35.056  12.874
93595W        W61936   0.904   5.907  11.374
93596W        W61937  20.564  12.687  12.421
93597W        W61938  41.419  42.021   5.747
93598W        W61939  17.071  33.919  11.563
93599W        W61940  35.491  34.503  10.999
93600W        W61941  42.964  37.554  12.061
93601W        W61942  35.016   0.986  11.382
93602W        W61943  14.192  37.366  10.621
93603W        W61944  32.630  22.043  11.083
93604W        W61945   1.274  14.679  10.582
93605W        W61946  37.948  39.426  14.463
93606W        W61947  13.665  12.174   3.242
93607W        W61948   1.479  17.075  11.945
93608W        W61949  26.490  43.951   2.184
93609W        W61950  12.712  38.356  12.823
93610W        W61951  18.588  37.985  14.379
93611W        W61952  40.481   0.759   0.344
93612W        W61953   6.747  43.994  14.952
93613W        W61954  30.484  15.671   4.787
93614W        W61955  17.696  28.026  12.866
93615W        W61956  10.320   7.307   4.157
93616W        W61957  28.143   8.795   5.094
93617W        W61958  32.079  44.501  13.545
93618W        W61959  42.878   4.237   0.800
93619W        W61960  15.640  41.350   2.835
93620W        W61961   3.438  30.591   1.851
93621W        W61962  10.645   8.393   0.897
93622W        W61963   4.220  12.327   0.334
93623W        W61964  37.086  44.338   1.326
93624W        W61965  26.952  39.450   4.611
93625W        W61966  16.172  14.658   2.385
93626W        W61967  16.599  20.656   1.764
93627W        W61968  18.698  17.772  13.888
93628W        W61969  27.450  15.151   4.799
93629W        W61970   8.659   8.249  11.955
93630W        W61971  16.699   6.726   3.639
93631W        W61972  15.238   6.362   2.216
93632W        W61973  22.712  11.152   4.838
93633W        W61974   3.831  25.032  12.540
93634W        W61975  37.551  31.114  13.492
93635W        W61976  20.258  30.558   2.265
93636W        W61977  23.209  25.123  10.906
93637W        W61978  44.870  28.530  14.466
93638W        W61979  29.651  30.422  11.925
93639W        W61980  17.574  37.397  14.419
93640W        W61981  19.655  33.123   4.615
93641W        W61982  12.223  30.080  13.923
93642W        W61983   4.412  11.270  11.577
93643W        W61984  17.304  10.259  12.535
93644W        W61985  33.098  19.070   1.798
93645W        W61986   3.375  30.918   1.733
93646W        W61987  11.308  36.543   0.789
93647W        W61988  25.517  26.076  11.502
93648W        W61989  16.114  23.984  10.452
93649W        W61990  16.622   8.878  12.409
93650W        W61991  39.851  10.178   2.768
93651W        W61992   0.758  27.512   3.716
93652W        W61993  26.465   8.333   2.215
93653W        W61994  26.138  37.009  12.535
93654W        W61995  37.961  12.853   2.745
93655W        W61996  29.059  36.501  13.362
93656W        W61997  34.907  21.560  12.040
93657W        W61998  36.389   7.885   1.404
93658W        W61999   8.351  14.290  13.310
93659W        W62000  12.638  41.406  13.351
93660W        W62001  41.852  28.465   2.357
93661W        W62002  43.798  38.446  12.558
93662W        W62003  24.038   6.426   3.318
93663W        W62004  21.041  43.828   4.119
93664W        W62005  30.071  35.574   4.636
93665W        W62006  35.101   8.174   2.847
93666W        W62007  25.018  40.939   1.377
93667W        W62008  12.334  14.711   2.817
93668W        W62009  26.096  38.902   2.179
93669W        W62010  31.013  19.536  14.793
93670W        W62011  19.171  41.471   3.646
93671W        W62012  24.606  39.318  10.986
93672W        W62013  29.161  23.628  11.918
93673W        W62014  21.195   4.830  12.431
93674W        W62015  34.437  21.230  13.826
93675W        W62016  29.961  42.862   2.697
93676W        W62017  24.019   1.273  14.790
93677W        W62018  31.512   9.227  14.011
93678W        W62019  22.607   3.875  11.910
93679W        W62020  34.989   2.856   2.240
93680W        W62021  35.104  29.547  12.946
93681W        W62022  19.220  21.050   0.882
93682W        W62023  36.904   0.470   2.794
93683W        W62024  40.337  30.136   2.742
93684W        W62025  14.721  41.375   4.604
93685W        W62026   2.774   0.897   3.800
93686W        W62027  32.584  16.566  13.820
93687W        W62028   1.941  26.593  14.780
93688W        W62029  41.983  40.979  12.060
93689W        W62030  20.666  33.920  14.018
93690W        W62031  14.701   9.270  11.463
93691W        W62032  25.201  34.946   1.826
93692W        W62033  23.511   8.798  14.810
93693W        W62034  16.611  17.290   0.746
93694W        W62035  16.097   8.821   2.705
93695W        W62036  15.118  19.755  11.555
93696W        W62037  22.694   4.845   1.835
93697W        W62038  39.999  34.974  13.909
93698W        W62039   7.179  30.114  14.908
93699W        W62040  14.834  25.678  11.496
93700W        W62041  29.082  24.978  10.427
93701W        W62042  28.523   0.961  10.986
93702W        W62043  44.825   7.251   3.669
93703W        W62044  35.004   3.325  11.072
93704W        W62045  40.843  12.709   4.218
93705W        W62046  19.074  29.098  10.987
93706W        W62047  44.339  32.974  13.805
93707W        W62048  12.309  22.063  12.395
93708W        W62049  18.633   0.453   4.681
93709W        W62050  32.061  17.778  10.595
93710W        W62051  15.614  29.596  10.429
93711W        W62052  20.186  27.514  13.340
93712W        W62053  41.786  29.988  13.324
93713W        W62054  21.553  32.898   0.964
93714W        W62055   2.442  44.276   3.328
93715W        W62056  44.385  34.559   4.680
93716W        W62057   8.380   3.834   4.143
93717W        W62058  30.607  24.583   3.651
93718W        W62059  14.216  21.705   4.229
93719W        W62060   7.840  14.297  11.904
93720W        W62061  43.390  24.181   0.311
93721W        W62062  35.358   6.332  14.346
93722W        W62063  42.336   1.912  14.513
93723W        W62064   4.813  16.204  10.620
93724W        W62065   1.747   3.718   4.295
93725W        W62066  23.984  16.239  10.962
93726W        W62067  18.280  27.498  10.985
93727W        W62068   1.260  33.905   0.876
93728W        W62069  40.316  22.684   3.316
93729W        W62070   4.352  12.351  11.599
93730W        W62071  10.796  36.550  11.072
93731W        W62072  36.570  41.989   4.835
93732W        W62073   7.322  19.588   2.875
93733W        W62074  24.208  40.885   3.694
93734W        W62075  32.984  20.594   4.233
93735W        W62076  12.775   0.484   0.938
93736W        W62077  42.993  20.667   1.386
93737W        W62078  24.721  31.086   0.896
93738W        W62079  17.756  42.011  10.980
93739W        W62080  33.891   5.771  14.359
93740W        W62081  39.822  43.018   2.180
93741W        W62082  30.067   0.862   1.758
93742W        W62083  36.480  24.220  11.970
93743W        W62084  21.033  13.650   2.257
93744W        W62085  27.059  21.747  13.017
93745W        W62086  33.418  24.550   1.224
93746W        W62087  44.265  41.913  12.478
93747W        W62088  18.247   5.204  14.354
93748W        W62089  10.156  14.736   1.695
93749W        W62090  14.148  32.570  12.881
93750W        W62091  35.421  36.512   0.459
93751W        W62092  43.846  38.361   1.311
93752W        W62093  21.150  39.954  12.494
93753W        W62094  13.719   3.347   2.212
93754W        W62095  30.534  43.383  14.815
93755W        W62096  33.877  42.343  13.898
93756W        W62097  22.530  41.296  13.837
93757W        W62098   0.448   9.875  10.508
93758W        W62099  36.516  36.004  10.986
93759W        W62100  12.139   4.773   0.245
93760W        W62101  36.521  23.230   2.317
93761W        W62102  33.045  22.021   4.125
93762W        W62103  19.249   2.843  14.888
93763W        W62104  29.157   1.455  10.473
93764W        W62105  21.039  40.030   0.907
93765W        W62106  35.507  33.131  14.436
93766W        W62107  38.978   1.273  12.954
93767W        W62108   7.881  37.411  13.547
93768W        W62109  35.097  33.573   5.133
93769W        W62110  20.547  16.724   0.801
93770W        W62111  13.699  34.876  13.410
93771W        W62112  33.131  36.524  11.378
93772W        W62113  21.617  11.260   2.330
93773W        W62114   8.401  26.028  14.820
93774W        W62115   3.452  42.802  10.568
93775W        W62116  28.512  21.663  11.875
93776W        W62117   9.238  26.702  11.123
93777W        W62118   1.967  23.723  11.106
93778W        W62119  15.772  42.832  12.424
93779W        W62120  20.139  24.483  10.613
93780W        W62121  28.580  39.839   3.759
93781W        W62122  17.562  33.906  14.798
93782W        W62123  31.113   3.423  14.390
93783W        W62124  10.738  33.889   4.133
93784W        W62125  17.722  41.888  13.981
93785W        W62126  31.042  36.476  11.042
93786W        W62127  42.908  21.052  11.994
93787W        W62128  28.007   3.767  13.011
93788W        W62129  22.621   9.253   2.690
93789W        W62130  31.118  10.643   1.835
93790W        W62131  26.695  35.871  13.476
93791W        W62132  19.651   8.406   1.792
93792W        W62133  33.572   7.337   0.833
93793W        W62134  10.745   8.794  10.073
93794W        W62135  35.933   6.428  11.028
93795W        W62136  30.986  22.635  12.362
93796W        W62137   8.236  42.985  12.934
93797W        W62138  27.172  26.130  13.391
93798W        W62139   8.396  21.677  13.396
93799W        W62140  43.879  42.489  12.486
93800W        W62141   7.848   5.199  10.952
93801W        W62142   7.847  31.521   4.685
93802W        W62143  12.143  28.008   1.318
93803W        W62144  20.619  11.797  10.504
93804W        W62145  31.573  17.559   2.197
93805W        W62146  19.736  15.133   4.704
93806W        W62147  14.257  17.597   4.350
93807W        W62148  25.479  34.540  12.355
93808W        W62149  15.232   6.681  11.074
93809W        W62150  31.078   9.721   1.778
93810W        W62151  16.741   8.203   1.778
93811W        W62152   5.289  33.119   1.777
93812W        W62153  30.045  33.505  12.908
93813W        W62154  19.558  25.091  12.517
93814W        W62155  35.480  16.278  11.085
93815W        W62156  29.470  31.470   4.702
93816W        W62157   9.857  11.344  12.834
93817W        W62158   1.821  36.350  12.034
93818W        W62159   7.259   1.383  12.567
93819W        W62160  29.558   9.760  12.362
93820W        W62161   8.199  39.483  14.998
93821W        W62162  25.649  31.524   0.355
93822W        W62163  33.596  14.788  12.957
93823W        W62164  21.607  35.564   3.235
93824W        W62165  42.504  18.674  11.868
93825W        W62166  30.499  13.193  10.601
93826W        W62167   7.889  15.726   3.842
93827W        W62168  30.038   7.740   4.696
93828W        W62169  35.938   1.440  14.848
93829W        W62170  10.264  37.864  12.914
93830W        W62171  20.689  28.657   4.355
93831W        W62172  17.177  44.390   1.854
93832W        W62173   4.433   1.271   4.794
93833W        W62174  12.336  41.880   4.725
93834W        W62175  19.238  33.929  13.339
93835W        W62176  35.050  22.066  12.513
93836W        W62177  22.093  38.873  14.487
93837W        W62178  11.648  24.486   4.662
93838W        W62179  32.134   6.415  12.414
93839W        W62180  15.823  26.979  13.880
93840W        W62181  32.021   4.797   1.385
93841W        W62182  21.239  41.463  14.805
93842W        W62183  17.089   5.436  13.933
93843W        W62184  28.666   5.695  10.979
93844W        W62185  17.777  38.975   2.715
93845W        W62186  34.903  26.192   0.403
93846W        W62187  37.574  33.423  10.027
93847W        W62188  35.039  39.537  14.310
93848W        W62189   4.822  30.461  12.386
93849W        W62190  24.183   8.822   0.369
93850W        W62191  20.550  23.002   1.243
93851W        W62192  18.733  29.607  11.033
93852W        W62193  24.079  28.150   3.702
93853W        W62194  30.437  34.893  14.476
93854W        W62195  37.835  44.489  13.048
93855W        W62196  24.662   5.753   4.287
93856W        W62197   4.426  13.819   1.291
93857W        W62198  16.179  36.482  12.469
93858W        W62199  34.483   9.804  13.025
93859W        W62200   4.415  25.147  14.969
93860W        W62201  34.904  20.605  10.918
93861W        W62202  38.416   6.856  14.436
93862W        W62203  34.873  26.667  12.075
93863W        W62204  16.079  43.403   3.215
93864W        W62205  18.090  42.861  12.477
93865W        W62206  29.150   1.382   3.229
93866W        W62207  39.939   7.781  12.824
93867W        W62208   1.294  25.473   0.868
93868W        W62209  43.955   4.863   4.740
93869W        W62210   7.751  18.554   4.821
93870W        W62211  35.505  15.642   5.267
93871W        W62212   6.886  40.867   2.279
93872W        W62213  32.038  16.152  14.912
93873W        W62214   9.735  10.757  10.561
93874W        W62215  38.956  29.569  12.876
93875W        W62216  14.124   9.312  14.773
93876W        W62217   9.292  28.461  13.935
93877W        W62218  14.156  21.742   1.355
93878W        W62219  14.227  14.302  11.106
93879W        W62220   9.662  12.708  10.619
93880W        W62221  27.155  40.933   4.603
93881W        W62222   1.964  21.724   4.833
93882W        W62223  12.666  14.099  11.485
93883W        W62224  37.911  19.731   0.947
93884W        W62225  23.609  10.779   4.343
93885W        W62226  13.599  13.248   0.482
93886W        W62227  12.715  13.606   3.382
93887W        W62228  27.962  18.084  12.489
93888W        W62229  10.834  21.201   2.810
93889W        W62230  35.487  22.701   0.328
93890W        W62231  10.141  38.847   3.823
93891W        W62232  12.224   3.220   1.410
93892W        W62233  10.190  38.387  13.048
93893W        W62234  25.640  44.446  11.455
93894W        W62235  37.895  41.875  13.904
93895W        W62236   0.792  28.032  11.401
93896W        W62237  36.506  29.428   1.729
93897W        W62238   2.323  22.034  13.961
93898W        W62239  33.940  39.552  13.826
93899W        W62240   2.347  21.747  12.868
93900W        W62241  27.041   2.882   1.917
93901W        W62242   7.668  11.633  12.447
93902W        W62243  37.842  24.228   1.266
93903W        W62244  28.442   6.811  12.016
93904W        W62245  26.951  27.125   2.725
93905W        W62246  32.136  32.955   2.281
93906W        W62247  16.221   0.293  13.314
93907W        W62248  12.198  29.104  13.506
93908W        W62249   9.392  39.514   3.841
93909W        W62250  20.232  16.646   0.419
93910W        W62251  15.817  13.675  10.439
93911W        W62252  16.622  12.701   1.800
93912W        W62253   3.224  33.536  11.096
93913W        W62254  33.460  14.675   0.929
93914W        W62255  21.619  38.926   2.690
93915W        W62256  30.494  43.414   2.322
93916W        W62257  14.224   5.392   2.376
93917W        W62258  37.923  36.976  10.491
93918W        W62259  25.599  11.707   2.283
93919W        W62260  14.788   9.713   3.704
93920W        W62261  36.593   4.377   4.667
93921W        W62262  24.557  44.861  13.548
93922W        W62263  10.213  28.091   3.659
93923W        W62264  23.047   6.919  11.609
93924W        W62265   4.823  43.855   0.868
93925W        W62266  34.384  32.108  11.069
93926W        W62267  23.240  31.932   0.880
93927W        W62268   8.373  41.931   1.327
93928W        W62269  37.872  42.339  13.945
93929W        W62270   9.739  13.307   4.649
93930W        W62271  20.181  36.043   0.886
93931W        W62272  14.745  11.294   4.666
93932W        W62273   2.766  27.558   1.775
93933W        W62274  29.595  35.990   1.898
93934W        W62275  31.581   6.701  12.851
93935W        W62276  41.922  17.094  11.107
93936W        W62277   2.855  35.049  11.926
93937W        W62278  22.241  12.773  13.961
93938W        W62279  13.124  41.904  10.593
93939W        W62280  24.020  26.640  13.847
93940W        W62281   0.977  28.051   0.309
93941W        W62282  13.159  21.238  10.066
93942W        W62283   4.290  29.543   2.307
93943W        W62284  12.323  21.233   4.171
93944W        W62285   4.825  19.777  11.446
93945W        W62286  43.900   6.283   4.630
93946W        W62287  22.188  44.857  13.507
93947W        W62288  14.812  16.078  12.826
93948W        W62289   0.945  23.672   0.774
93949W        W62290   7.831  23.564  12.983
93950W        W62291  28.606  13.247   4.620
93951W        W62292   5.794  42.864   1.799
93952W        W62293  28.634  21.195  12.402
93953W        W62294   1.381  24.031   0.967
93954W        W62295  16.166  38.969   2.689
93955W        W62296  10.746  18.577   0.483
93956W        W62297  41.470  19.626  14.968
93957W        W62298  19.263  30.979  10.492
93958W        W62299  38.918   6.676  13.919
93959W        W62300  41.331  23.129  13.323
93960W        W62301  25.600  27.572   1.732
93961W        W62302  23.235   8.281   2.736
93962W        W62303  27.661  24.660  14.810
93963W        W62304  34.510  38.477  11.455
93964W        W62305  36.480  34.559  12.421
93965W        W62306  37.950  31.008   2.839
93966W        W62307  20.045  19.269  12.880
93967W        W62308  23.521  35.536  13.454
93968W        W62309  21.648  32.492   2.183
93969W        W62310  33.620  22.599  14.329
93970W        W62311   8.355  21.575   0.246
93971W        W62312  23.521  10.227  13.471
93972W        W62313  13.265  30.936  13.829
93973W        W62314  35.466   9.691   4.776
93974W        W62315  16.785   1.802   4.606
93975W        W62316  15.126  42.792  14.905
93976W        W62317   7.753  18.677  12.909
93977W        W62318  18.094  29.924   2.820
93978W        W62319  10.855  36.492  10.405
93979W        W62320   6.290  32.116   4.129
93980W        W62321  19.142  17.076   3.281
93981W        W62322  38.476  37.041   1.428
93982W        W62323   6.790   3.744   1.371
93983W        W62324  13.833  17.610   1.812
93984W        W62325  36.371  44.333   2.310
93985W        W62326  15.173  32.624  12.082
93986W        W62327  33.588  29.169  11.382
93987W        W62328  35.381  12.678  14.937
93988W        W62329  35.997  20.153   0.812
93989W        W62330   3.952   4.311  14.374
93990W        W62331  34.559  24.122  10.511
93991W        W62332   3.926  41.965   2.808
93992W        W62333   9.167  13.843   0.461
93993W        W62334  22.156   3.327  11.580
93994W        W62335  32.909  39.548   1.799
93995W        W62336  38.495  14.632   2.381
93996W        W62337  35.553  28.149   1.898
93997W        W62338  20.062  35.488  14.303
93998W        W62339   9.671  38.502   0.270
93999W        W62340  41.859  26.199   4.256
94000W        W62341  12.738  23.127  13.548
94001W        W62342  11.154   1.867   3.278
94002W        W62343  43.942  37.543  10.948
94003W        W62344  29.109   5.269   0.787
94004W        W62345  24.684  41.531   3.163
94005W        W62346   2.857  19.067   2.817
94006W        W62347  39.389   4.284   3.192
94007W        W62348  39.841  35.988  13.393
94008W        W62349  10.785  10.632   5.213
94009W        W62350   0.768  23.489  14.380
94010W        W62351   3.740  26.952  12.870
94011W        W62352  29.991  35.976  10.450
94012W        W62353  40.307   5.388   2.196
94013W        W62354   5.735  32.548   0.819
94014W        W62355   0.358   9.754  13.515
94015W        W62356   0.793  26.693   3.675
94016W        W62357  10.145  26.620   1.750
94017W        W62358  16.570  28.972  13.911
94018W        W62359   7.698  19.637   0.250
94019W        W62360  18.619  11.836   0.281
94020W        W62361  28.165  28.102  11.101
94021W        W62362   9.798   1.852   4.185
94022W        W62363  14.330  28.131  14.847
94023W        W62364  12.812   8.774  13.952
94024W        W62365   0.946   5.411  10.925
94025W        W62366  31.085  34.936   5.202
94026W        W62367  33.595  12.710   2.371
94027W        W62368   6.369  39.425  12.581
94028W        W62369  15.782  31.941  12.343
94029W        W62370  26.461   4.829   4.272
94030W        W62371  38.433   3.954   1.701
94031W        W62372   7.755   9.887   1.814
94032W        W62373   0.319   0.482  10.626
94033W        W62374   4.929  22.210   1.394
94034W        W62375  43.949   0.348  12.439
94035W        W62376   7.891  13.718  14.024
94036W        W62377  16.227  14.701   4.302
94037W        W62378  11.777  24.640  12.419
94038W        W62379   4.774  28.487  11.472
94039W        W62380  23.655   7.817  13.339
94040W        W62381  35.085   8.279  11.014
94041W        W62382  41.814   6.235  13.342
94042W        W62383  32.933  22.700  12.543
94043W        W62384  40.823  35.584   0.895
94044W        W62385  41.901  34.890  12.908
94045W        W62386  25.158   3.748   3.761
94046W        W62387  29.987  26.037   3.725
94047W        W62388   9.389   1.927  14.951
94048W        W62389   3.324  18.083   4.301
94049W        W62390  14.661   7.697  13.419
94050W        W62391  40.879  35.889  10.612
94051W        W62392  16.259  13.168   3.710
94052W        W62393  39.851  10.830   3.165
94053W        W62394  27.104  28.539  12.398
94054W        W62395  29.535  17.648  14.362
94055W        W62396  33.088  30.584   3.663
94056W        W62397  42.334   0.909  14.478
94057W        W62398  25.495  44.890  12.889
94058W        W62399   0.344  19.632   3.783
94059W        W62400  20.743  23.105  11.522
94060W        W62401  32.482  40.422  12.085
94061W        W62402  26.174  37.069  11.391
94062W        W62403   1.443   2.458  14.942
94063W        W62404  13.841   5.766  11.427
94064W        W62405   6.814   3.343  10.908
94065W        W62406  30.484  14.669  10.909
94066W        W62407  18.190  19.125  13.888
94067W        W62408  11.672  41.821  12.990
94068W        W62409   2.766  35.863   2.897
94069W        W62410  20.102   9.795   1.832
94070W        W62411  11.252  18.105  14.416
94071W        W62412  27.678  36.588   4.680
94072W        W62413  19.755  21.655   1.436
94073W        W62414   9.879  43.895  10.921
94074W        W62415  25.511  27.111  10.592
94075W        W62416   2.751  32.969  12.445
94076W        W62417  43.981  44.980  13.987
94077W        W62418  44.281  37.337   5.113
94078W        W62419   3.766   2.868   4.759
94079W        W62420  15.235  34.532  10.069
94080W        W62421  38.891  20.206   4.667
94081W        W62422  40.314  19.755   0.765
94082W        W62423  21.202   7.886  10.591
94083W        W62424  34.505  24.655  12.998
94084W        W62425   4.326  15.197   4.243
94085W        W62426  15.268  23.610  10.969
94086W        W62427  25.686   1.390  11.082
94087W        W62428  13.254  20.065   3.179
94088W        W62429   8.298  27.520  13.408
94089W        W62430   3.439  41.532   2.362
94090W        W62431  25.569   6.260   3.248
94091W        W62432   4.754  23.206   0.309
94092W        W62433  40.984   9.355   2.885
94093W        W62434  32.055  18.615   4.734
94094W        W62435  26.154  44.410  12.358
94095W        W62436  34.526  25.626   1.309
94096W        W62437  44.396  20.607  10.028
94097W        W62438  40.925  32.400  11.483
94098W        W62439  18.566  36.525   0.939
94099W        W62440  38.005  21.540   3.822
94100W        W62441  16.749  43.372  14.962
94101W        W62442  27.120  20.752  12.059
94102W        W62443   9.234  21.657  13.052
94103W        W62444   3.950  37.502   3.294
94104W        W62445  12.306  34.894  13.937
94105W        W62446  17.259   8.316   4.198
94106W        W62447  22.186   6.235   3.732
94107W        W62448  19.580  44.278   1.382
94108W        W62449  14.698  27.578   2.687
94109W        W62450   6.302  35.557  11.408
94110W        W62451  28.033  31.904  13.354
94111W        W62452  35.446   8.789  11.538
94112W        W62453  27.987  22.738   1.330
94113W        W62454  31.942  43.307  14.455
94114W        W62455  26.167  21.156   2.746
94115W        W62456  30.156   6.264   3.247
94116W        W62457  22.662  25.629  11.859
94117W        W62458   3.911  40.447   5.249
94118W        W62459   7.684  28.122   9.925
94119W        W62460  20.175  43.304  14.324
94120W        W62461   7.351  27.510  11.934
94121W        W62462  39.323  36.485   0.336
94122W        W62463  42.850  21.217  11.396
94123W        W62464   5.324   8.245  11.959
94124W        W62465   2.263  27.533   0.829
94125W        W62466  44.420  16.161  14.345
94126W        W62467  23.652  12.689   0.286
94127W        W62468  15.191  20.253   2.697
94128W        W62469  10.755  39.972   0.349
94129W        W62470  10.311  37.859   0.280
94130W        W62471   9.750  43.348  13.806
94131W        W62472  31.076  20.552   1.882
94132W        W62473  29.162  44.006  14.330
94133W        W62474  17.603  26.475   0.940
94134W        W62475  18.118  35.524  13.874
94135W        W62476  32.471  29.621  10.940
94136W        W62477  18.104   9.234   3.275
94137W        W62478  22.733  35.384   0.806
94138W        W62479  32.123  16.119  14.002
94139W        W62480  17.631  14.172  14.416
94140W        W62481  23.079  18.094  12.497
94141W        W62482   4.898  23.586   0.764
94142W        W62483  44.831  14.143   0.945
94143W        W62484  21.626  44.435   2.839
94144W        W62485  33.493  27.452   1.420
94145W        W62486   0.475   1.749   0.822
94146W        W62487  42.305  23.022   2.327
94147W        W62488   3.408  33.438   0.395
94148W        W62489  22.081  10.150  10.526
94149W        W62490  10.171  20.716   2.268
94150W        W62491  24.119   3.845   4.669
94151W        W62492  40.866   4.719   0.269
94152W        W62493  28.661   1.425   1.790
94153W        W62494  14.101  31.111   1.907
94154W        W62495  15.146  38.961  14.289
94155W        W62496   4.303  41.522  10.567
94156W        W62497  34.527  38.889  12.485
94157W        W62498   5.888   8.172  11.586
94158W        W62499   9.734   6.246   1.873
94159W        W62500  13.777  36.575  13.812
94160W        W62501  20.106   4.929   2.265
94161W        W62502  43.282   7.254  13.985
94162W        W62503  38.386  22.689   3.331
94163W        W62504  16.087  38.366  12.475
94164W        W62505   0.829  13.664   3.856
94165W        W62506  44.492   8.164  13.806
94166W        W62507  41.395  35.465   0.411
94167W        W62508  16.317  22.502   0.353
94168W        W62509  22.156  42.023  11.484
94169W        W62510  20.250  40.904  14.880
94170W        W62511  32.991  21.255  11.023
94171W        W62512  37.958  14.107   1.335
94172W        W62513  20.681  38.570   3.864
94173W        W62514   8.758  29.971   0.795
94174W        W62515   9.220  40.797   1.753
94175W        W62516  36.948  31.484  11.125
94176W        W62517  17.668  30.016  13.921
94177W        W62518  41.527  27.067   3.352
94178W        W62519  31.088  16.618  14.000
94179W        W62520  25.601  35.376  12.895
94180W        W62521  44.766  36.408  10.496
94181W        W62522  21.684  13.809   2.349
94182W        W62523  26.200   9.266  14.418
94183W        W62524   1.972  42.996   3.258
94184W        W62525  22.145  38.943  12.905
94185W        W62526  34.875  32.058   4.713
94186W        W62527  33.131   6.404  12.897
94187W        W62528  20.143  31.553  14.376
94188W        W62529  31.915  36.933   2.334
94189W        W62530  26.169  44.350   4.284
94190W        W62531  10.830   8.782  13.929
94191W        W62532  13.807  23.536   3.685
94192W        W62533  22.080   8.739   3.857
94193W        W62534  17.065   4.897  14.772
94194W        W62535  13.197  36.432  14.909
94195W        W62536  44.946  26.629  10.105
94196W        W62537  32.567  33.473  11.987
94197W        W62538  20.692  16.600   2.332
94198W        W62539  23.135  17.617   5.211
94199W        W62540  13.168  28.463   4.134
94200W        W62541  42.484  25.964  14.421
94201W        W62542  22.172  25.627   3.655
94202W        W62543   7.202  10.192   1.708
94203W        W62544  15.733  36.057   2.185
94204W        W62545  33.437  35.521   3.706
94205W        W62546  37.394  41.919   2.334
94206W        W62547   3.423  23.046   4.765
94207W        W62548  32.911  13.719  13.467
94208W        W62549  19.734   6.723  11.062
94209W        W62550  16.287   6.334   2.674
94210W        W62551  35.975  17.672   4.205
94211W        W62552  21.208   5.387  10.630
94212W        W62553  16.139   7.712   1.352
94213W        W62554  27.597   7.212   4.199
94214W        W62555   2.886  35.459  10.562
94215W        W62556  22.046   3.266   1.278
94216W        W62557  11.789  25.053   5.099
94217W        W62558   8.348  33.876   4.314
94218W        W62559  14.226  43.486   0.955
94219W        W62560  38.336   9.694   0.372
94220W        W62561   6.776  30.488   0.245
94221W        W62562   2.847  20.529   2.889
94222W        W62563  15.159  10.654  13.998
94223W        W62564  22.724  31.949   2.686
94224W        W62565   9.336  14.177  13.497
94225W        W62566  19.771  19.539   3.244
94226W        W62567  22.205  39.039   3.357
94227W        W62568  12.638  29.460  12.984
94228W        W62569  25.508  36.019  10.462
94229W        W62570  33.543  18.677   1.226
94230W        W62571   2.774  27.043  10.602
94231W        W62572  38.354  25.596  13.802
94232W        W62573  14.126  39.515  11.518
94233W        W62574  44.292  15.767  10.405
94234W        W62575  18.765  18.636  13.883
94235W        W62576  28.047  24.559   0.406
94236W        W62577  36.940  24.151   2.413
94237W        W62578  39.994  38.046  14.282
94238W        W62579  42.956  22.218  14.999
94239W        W62580  11.741  28.961   0.302
94240W        W62581  16.229  44.009  13.814
94241W        W62582   3.296  29.107  14.438
94242W        W62583  18.203  24.723   3.720
94243W        W62584   0.911   3.385   4.811
94244W        W62585  34.866  10.152  11.928
94245W        W62586  41.400  33.559   4.776
94246W        W62587  34.393  20.612  11.386
94247W        W62588  29.602  42.503   3.654
94248W        W62589  24.635  38.468  12.514
94249W        W62590  19.685  22.662   2.894
94250W        W62591   9.798  35.359  11.045
94251W        W62592  14.194  33.124  11.463
94252W        W62593  28.047  24.487   1.422
94253W        W62594  39.891   0.887   4.315
94254W        W62595  39.317  12.639  12.984
94255W        W62596   6.714  38.953   1.433
94256W        W62597   4.389  37.354  12.393
94257W        W62598  26.136  21.066   1.706
94258W        W62599  12.790  23.214   4.224
94259W        W62600  29.918  30.930  14.474
94260W        W62601  29.078  13.840  12.845
94261W        W62602   0.975  23.671  10.890
94262W        W62603  32.942  29.027   0.304
94263W        W62604  33.490  17.586  12.893
94264W        W62605  32.899   9.801  10.522
94265W        W62606  22.519  40.539  12.497
94266W        W62607  41.971  32.138   2.371
94267W        W62608  26.195  41.401   0.960
94268W        W62609   4.807   6.219   2.737
94269W        W62610  33.077  20.033  13.534
94270W        W62611   9.298   1.946  10.942
94271W        W62612  29.493  21.618   1.831
94272W        W62613  22.201  12.695  14.454
94273W        W62614   9.878   0.756   0.878
94274W        W62615  18.582  25.033   2.817
94275W        W62616  31.476   7.368  14.017
94276W        W62617   1.923   8.725   3.200
94277W        W62618   3.731  28.537   2.361
94278W        W62619  33.414  10.243   0.444
94279W        W62620   8.855  22.578   4.670
94280W        W62621  31.450  43.822   0.792
94281W        W62622  36.981  12.162   3.832
94282W        W62623  37.022  28.543   3.757
94283W        W62624  24.496  39.813   2.848
94284W        W62625  20.210  29.106  14.350
94285W        W62626  39.438  10.642   3.163
94286W        W62627  25.489  26.601  13.009
94287W        W62628   0.376  32.087   4.616
94288W        W62629  33.088  42.858  12.443
94289W        W62630  41.002  42.808   3.242
94290W        W62631  15.084   4.371   0.832
94291W        W62632   9.302  19.710   2.319
94292W        W62633  21.242   8.177   2.899
94293W        W62634   0.325  19.713  11.978
94294W        W62635  38.476  32.950   2.723
94295W        W62636   9.299  11.696  13.927
94296W        W62637   3.246  13.682   2.242
94297W        W62638  37.363   3.261   4.823
94298W        W62639   7.335   2.920  13.391
94299W        W62640  15.304  39.820   5.806
94300W        W62641  34.599  19.664   2.335
94301W        W62642   1.260  43.445  14.795
94302W        W62643  27.139  26.555   5.116
94303W        W62644  33.105  11.141  13.883
94304W        W62645  18.712  19.562   0.452
94305W        W62646   6.389  13.803   0.257
94306W        W62647  35.467  36.990   1.839
94307W        W62648  37.898   3.384  13.871
94308W        W62649  28.632  41.960   0.309
94309W        W62650  37.428  42.998   4.282
94310W        W62651  30.052   1.316   2.883
94311W        W62652   6.904   8.875   3.228
94312W        W62653  27.563  31.064  12.533
94313W        W62654  44.965   9.373  14.765
94314W        W62655  20.182  12.804   1.217
94315W        W62656  33.078  26.966  10.444
94316W        W62657  20.240   7.241   0.348
94317W        W62658   6.891  31.537  10.539
94318W        W62659  42.804  12.634  10.993
94319W        W62660  27.554  16.798   1.918
94320W        W62661  33.096  16.795  13.917
94321W        W62662  14.705  40.818   3.699
94322W        W62663   0.376   1.942  10.579
94323W        W62664  43.315  17.655   4.227
94324W        W62665  41.953  16.615  13.811
94325W        W62666  35.089  30.488   4.276
94326W        W62667  30.043  19.601  13.837
94327W        W62668  27.040   0.939  12.550
94328W        W62669  30.510   9.183  14.482
94329W        W62670  14.800  28.503  11.608
94330W        W62671  11.745   9.770  10.915
94331W        W62672  36.440  23.174   1.400
94332W        W62673  36.040  13.335   1.806
94333W        W62674   2.870  27.179   2.291
94334W        W62675  24.683  42.939  10.982
94335W        W62676  25.649  31.950   0.856
94336W        W62677  31.534  22.050  11.546
94337W        W62678   1.307  25.184   3.331
94338W        W62679  34.572  44.443   2.757
94339W        W62680   4.698  27.645   0.957
94340W        W62681  27.168  36.854   3.364
94341W        W62682   1.257   2.854  14.805
94342W        W62683  11.319  43.446  13.040
94343W        W62684  25.505  43.881   1.444
94344W        W62685   7.296   4.438  11.988
94345W        W62686  41.944  27.610   4.141
94346W        W62687  18.095  41.026   1.371
94347W        W62688  34.119  34.545   4.345
94348W        W62689  32.073  18.057   4.288
94349W        W62690  24.706  12.148  12.095
94350W        W62691  23.110   3.950  11.502
94351W        W62692  43.963  20.682  10.610
94352W        W62693  34.880  31.431  11.551
94353W        W62694  16.146  40.874   1.791
94354W        W62695  44.393  36.866   2.735
94355W        W62696  19.098  12.819   0.831
94356W        W62697  30.523  33.512  12.465
94357W        W62698  35.548  14.641   1.304
94358W        W62699   6.723  37.460   0.251
94359W        W62700   7.280   7.363   1.326
94360W        W62701  16.760  17.305  13.060
94361W        W62702  41.404  43.442   1.408
94362W        W62703  13.312  23.055  13.917
94363W        W62704  42.019  25.078  13.474
94364W        W62705  24.126  25.570  12.381
94365W        W62706  19.217  28.533   0.948
94366W        W62707  14.207   6.858  11.377
94367W        W62708  39.942  40.904  14.294
94368W        W62709  37.845  34.055  13.900
94369W        W62710   0.849   0.292   4.269
94370W        W62711  32.895  35.088   4.322
94371W        W62712  26.666  28.150  11.077
94372W        W62713  22.995  19.583   3.746
94373W        W62714  38.859  38.021  11.992
94374W        W62715  34.401   1.867   1.329
94375W        W62716  24.099   7.716  11.063
94376W        W62717  20.196  28.606   0.279
94377W        W62718  21.622   1.773   0.787
94378W        W62719   6.354  37.403  11.128
94379W        W62720  38.555  41.859  11.373
94380W        W62721  21.638  27.177  14.010
94381W        W62722  16.207  41.804  12.341
94382W        W62723  29.617  13.660   4.272
94383W        W62724  29.487  32.894  13.351
94384W        W62725  11.773  12.192  10.611
94385W        W62726  23.095  36.500  10.536
94386W        W62727  14.128  38.959   2.777
94387W        W62728  39.453  25.134  10.627
94388W        W62729   1.268  43.823   3.261
94389W        W62730  23.698  26.486  12.869
94390W        W62731  16.614  12.318  12.580
94391W        W62732  20.133  22.630  13.047
94392W        W62733  40.841   4.699   4.723
94393W        W62734  30.045  27.952  10.925
94394W        W62735  12.707   8.894  14.435
94395W        W62736  14.666  32.918   4.721
94396W        W62737  10.188  17.710   1.913
94397W        W62738  18.147  38.857   4.130
94398W        W62739  39.024  26.627  11.908
94399W        W62740   6.260   1.392  13.375
94400W        W62741  26.164  13.714  10.917
94401W        W62742  28.434  24.211   3.661
94402W        W62743  43.842  34.080   2.340
94403W        W62744  36.906  27.496   4.244
94404W        W62745   5.733  38.528  14.471
94405W        W62746  24.189  15.652   3.629
94406W        W62747  37.405  20.031   4.297
94407W        W62748   0.943   1.313  14.848
94408W        W62749  26.037   5.376  13.853
94409W        W62750   1.266  16.734   1.711
94410W        W62751  23.161   6.324  14.943
94411W        W62752  34.577   2.384   1.409
94412W        W62753   1.846  38.975   9.940
94413W        W62754  36.528  33.498   1.838
94414W        W62755   5.203   6.266  13.327
94415W        W62756   9.367  35.024   2.895
94416W        W62757  23.189  39.971  14.375
94417W        W62758  44.383   9.843   3.741
94418W        W62759  12.722  17.745   1.767
94419W        W62760   4.866  17.223  11.508
94420W        W62761  33.541  35.902   3.641
94421W        W62762   1.857  43.809   3.287
94422W        W62763  41.353  44.843  12.422
94423W        W62764  11.858  16.174   3.254
94424W        W62765  17.704  41.985   3.846
94425W        W62766  33.917   2.372   1.380
94426W        W62767  40.492  44.011   9.959
94427W        W62768  17.100  16.769  11.492
94428W        W62769  10.219  14.294   2.854
94429W        W62770  16.643  33.538  14.895
94430W        W62771  19.196  24.057  11.089
94431W        W62772   9.172  26.195  11.492
94432W        W62773  26.142  23.716   1.888
94433W        W62774  23.109  22.117   4.351
94434W        W62775  14.832  17.663   0.394
94435W        W62776  12.695   4.266   1.795
94436W        W62777  32.912   7.404  14.383
94437W        W62778  18.196   7.826  11.073
94438W        W62779  31.630  27.987   3.160
94439W        W62780  41.483   4.224   1.870
94440W        W62781  14.747  39.554  13.880
94441W        W62782   5.796  41.796   0.733
94442W        W62783   3.718  10.345  11.967
94443W        W62784  43.900  25.105  13.517
94444W        W62785  42.312  30.421   4.710
94445W        W62786  25.173  25.693   4.203
94446W        W62787  16.221  22.085   1.228
94447W        W62788  32.076   2.441  12.836
94448W        W62789   3.845   5.789   3.818
94449W        W62790  44.769  30.471  14.452
94450W        W62791  23.629  25.620  13.318
94451W        W62792   9.804  20.752   1.917
94452W        W62793  23.127  17.615   4.721
94453W        W62794   9.226  39.014  13.520
94454W        W62795  37.985  12.311  12.538
94455W        W62796  22.663  16.247   3.281
94456W        W62797  28.167  34.556  14.325
94457W        W62798  28.999  17.168  12.933
94458W        W62799  31.631   0.846   2.765
94459W        W62800  41.447  42.351  10.477
94460W        W62801   4.711  28.637   9.940
94461W        W62802  17.800  15.250   4.202
94462W        W62803  42.859  13.711   3.698
94463W        W62804  44.880  29.451   9.976
94464W        W62805  28.994  18.598  13.314
94465W        W62806  31.643  24.048  13.441
94466W        W62807  30.533  20.552  12.962
94467W        W62808  32.951  34.019  10.513
94468W        W62809  16.575  27.577   2.845
94469W        W62810  26.172  39.485  14.899
94470W        W62811  27.662  44.884  13.342
94471W        W62812  18.717   8.821  12.459
94472W        W62813  34.400  29.978  12.895
94473W        W62814  31.496  35.517   4.308
94474W        W62815  39.517  43.515   4.120
94475W        W62816  33.109  20.672  14.885
94476W        W62817  34.898  33.580   2.219
94477W        W62818  17.782  32.546   5.265
94478W        W62819   5.762  18.727  10.630
94479W        W62820  26.465   1.387   0.911
94480W        W62821  29.033  13.120   0.886
94481W        W62822  31.523  42.895  14.421
94482W        W62823  13.222   9.348   1.413
94483W        W62824  24.072   2.460  11.437
94484W        W62825  14.616  23.495   4.276
94485W        W62826  11.326  35.537  11.011
94486W        W62827  22.678   3.786   1.805
94487W        W62828  30.021  36.996  10.490
94488W        W62829  27.995  33.989  10.053
94489W        W62830  28.123  36.025   0.258
94490W        W62831  43.813   2.286  13.532
94491W        W62832  24.043  10.246  14.407
94492W        W62833  34.548  27.157  14.941
94493W        W62834  21.026  20.675   3.243
94494W        W62835   8.785  11.286   1.753
94495W        W62836  21.207  14.731   0.257
94496W        W62837   9.878  12.613   1.934
94497W        W62838  20.698  10.304  13.383
94498W        W62839   0.340   2.326   2.389
94499W        W62840  43.834  38.376  11.989
94500W        W62841  23.669   6.206  13.536
94501W        W62842  23.728  10.174  10.984
94502W        W62843  43.443  20.213  12.854
94503W        W62844  32.028  17.166  11.889
94504W        W62845  13.293  37.873  13.815
94505W        W62846  36.931  24.674  13.319
94506W        W62847  29.169  33.619  12.443
94507W        W62848  20.135  12.770   2.313
94508W        W62849  44.796  14.787   2.747
94509W        W62850  23.533  27.486  13.328
94510W        W62851  29.483  44.841   0.426
94511W        W62852  25.633  27.028   3.693
94512W        W62853  35.933  34.553   4.299
94513W        W62854  19.746  31.066   4.690
94514W        W62855  43.846  26.593   1.283
94515W        W62856  40.482   6.363  14.021
94516W        W62857   0.971  42.000   1.888
94517W        W62858  44.764  26.061  11.389
94518W        W62859  30.659  41.465   0.909
94519W        W62860  13.792  33.525  13.538
94520W        W62861  27.963   8.364   4.637
94521W        W62862   5.761   1.256   1.718
94522W        W62863  41.436   2.865   2.781
94523W        W62864  31.002  21.549  10.581
94524W        W62865   1.331   0.892  10.524
94525W        W62866  11.132  34.014  11.958
94526W        W62867  38.912  20.741  10.962
94527W        W62868  42.952  36.586  13.917
94528W        W62869  21.141  27.489  10.566
94529W        W62870  26.530  44.361  10.930
94530W        W62871  22.074   9.236  13.312
94531W        W62872  27.128  14.596  12.861
94532W        W62873  13.761  29.572  12.034
94533W        W62874  29.082  14.600  12.842
94534W        W62875  31.419  15.600  14.312
94535W        W62876  18.637  17.802   1.803
94536W        W62877  23.712  36.898  11.115
94537W        W62878  36.041  27.952  10.932
94538W        W62879  14.193  32.906   3.733
94539W        W62880   2.443  39.394  14.298
94540W        W62881  43.921   6.916   1.753
94541W        W62882   9.803  42.495   0.402
94542W        W62883   3.262   4.813  12.418
94543W        W62884  31.459   4.235  12.000
94544W        W62885  30.035  12.345   3.344
94545W        W62886  29.990  23.059  13.922
94546W        W62887  14.203  17.677   0.252
94547W        W62888   1.849  29.523   4.302
94548W        W62889   0.366  17.681   3.293
94549W        W62890  11.188   0.768  11.447
94550W        W62891  10.152  39.463   1.868
94551W        W62892   4.854   5.210   4.652
94552W        W62893  19.069  28.577   2.347
94553W        W62894   9.677  42.329   2.837
94554W        W62895  38.335  31.006  14.500
94555W        W62896  42.379  40.918  10.447
94556W        W62897  13.338   2.947  10.510
94557W        W62898  34.451  19.257   0.814
94558W        W62899   6.374  41.001   4.604
94559W        W62900  33.524  26.609   2.741
94560W        W62901   3.913   6.200  11.909
94561W        W62902  43.315  44.377   2.696
94562W        W62903  20.747  41.894  13.846
94563W        W62904   4.724  40.365   0.936
94564W        W62905  36.404  27.944  12.993
94565W        W62906  37.958  12.206  14.831
94566W        W62907   8.234  23.144   2.208
94567W        W62908   8.738  34.529  14.786
94568W        W62909  38.973   4.719   1.350
94569W        W62910   3.939   4.890   1.435
94570W        W62911   7.773  25.046   4.255
94571W        W62912  40.481  16.075  11.126
94572W        W62913  27.549  44.503   3.818
94573W        W62914  32.626   4.268   3.182
94574W        W62915  40.484  13.639  10.593
94575W        W62916  25.099  19.278  11.510
94576W        W62917  27.528  26.169  14.346
94577W        W62918  23.001   7.274  11.518
94578W        W62919  27.653  33.585  13.433
94579W        W62920  26.083  10.279  13.371
94580W        W62921  28.184  10.173   1.389
94581W        W62922  20.638  16.671   0.297
94582W        W62923  18.749  42.782   4.349
94583W        W62924  19.638  18.738  13.527
94584W        W62925  17.253  10.178  10.637
94585W        W62926   7.826  41.928   4.636
94586W        W62927  27.121  19.052  11.036
94587W        W62928   3.884  21.573   2.181
94588W        W62929  41.813  11.359  11.448
94589W        W62930  26.032  18.229  12.866
94590W        W62931  23.018  33.113  11.111
94591W        W62932  26.498  41.437  11.995
94592W        W62933  38.971  10.238  14.307
94593W        W62934  32.945   2.246   4.295
94594W        W62935  20.698   7.353  11.980
94595W        W62936  41.426  30.022  13.506
94596W        W62937  27.518  11.775   0.942
94597W        W62938  17.189  31.523   5.622
94598W        W62939  28.097  32.997   5.153
94599W        W62940  29.599   5.399   0.784
94600W        W62941  28.674  31.123  14.327
94601W        W62942  39.372  12.669  14.488
94602W        W62943   3.280  37.363   3.851
94603W        W62944  15.604  37.516   4.670
94604W        W62945  16.124  33.934   3.317
94605W        W62946  21.740  20.177  13.540
94606W        W62947  30.951  35.557   4.202
94607W        W62948  37.870  12.845   0.894
94608W        W62949  21.550   6.749   2.728
94609W        W62950  25.055  39.839   0.773
94610W        W62951  26.198  41.033  11.998
94611W        W62952  23.067  37.003   1.860
94612W        W62953  35.018   6.319  10.599
94613W        W62954   8.391  42.848   3.156
94614W        W62955   1.830   6.773  11.503
94615W        W62956  26.536  20.707  13.324
94616W        W62957  22.666  19.261  11.538
94617W        W62958  22.594  14.201  10.086
94618W        W62959   7.726  18.201  12.895
94619W        W62960   0.383  19.280   5.609
94620W        W62961   2.360  14.147   0.404
94621W        W62962  19.270  18.174  10.970
94622W        W62963   4.801   2.930  10.526
94623W        W62964  15.175   4.897  14.492
94624W        W62965  38.399  32.076   2.392
94625W        W62966   5.860  34.592   2.877
94626W        W62967  36.427  26.613   2.205
94627W        W62968   7.200   1.406   2.873
94628W        W62969  24.987  31.570   1.228
94629W        W62970  16.134  25.709   3.739
94630W        W62971  33.012   7.417  10.949
94631W        W62972  13.107  42.792   1.272
94632W        W62973  12.799   3.719   1.867
94633W        W62974  14.738  14.636  12.384
94634W        W62975   9.265  10.378   0.787
94635W        W62976  41.986   7.233   3.769
94636W        W62977  10.194   3.851   3.867
94637W        W62978  39.382  44.399  13.459
94638W        W62979  19.079  28.056  14.934
94639W        W62980  35.557  34.431   3.335
94640W        W62981  13.114  17.582  13.387
94641W        W62982  37.418  38.015   1.305
94642W        W62983  31.022  39.057   4.139
94643W        W62984   9.192  12.278  13.049
94644W        W62985  14.190  10.775  12.836
94645W        W62986  21.706  28.130   4.225
94646W        W62987  33.466  13.826   1.807
94647W        W62988   6.214  43.328  10.892
94648W        W62989  28.470  39.947   1.279
94649W        W62990   2.232  33.978   2.705
94650W        W62991  16.638  24.686  14.782
94651W        W62992   5.693   4.704  11.508
94652W        W62993  23.538  20.252  11.105
94653W        W62994  32.443   0.776   3.371
94654W        W62995  27.091   9.203  13.445
94655W        W62996  39.924  33.878  12.854
94656W        W62997  19.553  30.630   4.699
94657W        W62998   3.949  42.522  14.843
94658W        W62999   3.254  22.208  11.980
94659W        W63000  22.555  35.393  12.027
94660W        W63001  29.166   7.190  11.543
94661W        W63002  23.507   0.804  12.086
94662W        W63003   1.277  19.101   2.839
94663W        W63004  13.750  36.971  11.440
94664W        W63005   3.436   7.836  14.890
94665W        W63006  16.728  14.273  12.960
94666W        W63007  16.186  43.795  14.867
94667W        W63008   7.180  26.189  13.357
94668W        W63009   9.232   4.769   4.335
94669W        W63010  15.101   0.377  13.488
94670W        W63011   8.216  14.195  10.518
94671W        W63012  11.821  32.960  14.840
94672W        W63013   8.251  14.286   1.906
94673W        W63014  16.313  11.214  14.483
94674W        W63015  28.656   8.680  10.977
94675W        W63016  32.908  33.098   1.325
94676W        W63017  38.829  33.884  12.943
94677W        W63018  17.256  22.173   0.728
94678W        W63019   6.367  21.588   1.749
94679W        W63020   1.899   6.708  12.095
94680W        W63021   2.763  11.721   3.735
94681W        W63022  39.320  42.296   9.973
94682W        W63023  28.070   4.805  10.891
94683W        W63024   9.783   2.428  11.479
94684W        W63025  35.028  43.432   2.732
94685W        W63026   9.777   5.362   4.162
94686W        W63027   3.417  14.800  11.394
94687W        W63028  33.090  37.511  14.484
94688W        W63029  35.521   4.772  13.473
94689W        W63030  41.340  21.756   1.820
94690W        W63031  26.468  26.063  12.540
94691W        W63032  13.648   7.171   2.341
94692W        W63033  12.735  17.263  14.844
94693W        W63034  17.119   7.766   4.335
94694W        W63035  18.781  18.657   5.252
94695W        W63036  36.849  29.648  14.932
94696W        W63037  39.988  42.480  12.057
94697W        W63038  36.881  23.640  13.355
94698W        W63039  19.252  10.325  12.904
94699W        W63040  27.582  43.391  12.376
94700W        W63041  34.587  18.279   2.719
94701W        W63042  32.550   5.864  11.887
94702W        W63043  23.088  19.161  13.839
94703W        W63044  35.935  12.311   4.170
94704W        W63045  29.496  27.949  14.372
94705W        W63046  24.683   4.264   2.842
94706W        W63047  19.257  21.122  12.355
94707W        W63048   8.232  27.016  11.434
94708W        W63049   2.943  17.601  13.005
94709W        W63050  15.259  18.674   1.903
94710W        W63051  35.091  21.534  12.550
94711W        W63052  24.152   2.925   3.831
94712W        W63053   5.431  28.149   1.764
94713W        W63054  25.542   7.749   3.189
94714W        W63055  21.044  43.281   3.262
94715W        W63056  19.116   4.214   2.319
94716W        W63057  13.666  29.608  14.951
94717W        W63058  43.841  12.318   1.442
94718W        W63059  18.652  41.836  14.410
94719W        W63060   7.242  39.974  11.523
94720W        W63061  33.445   9.709   3.815
94721W        W63062  38.406  34.906  12.955
94722W        W63063  14.104   4.405   4.732
94723W        W63064  13.171  24.046  13.495
94724W        W63065  23.060  10.272  10.535
94725W        W63066   6.316  42.012   1.397
94726W        W63067  18.068  12.272   2.788
94727W        W63068  36.578  26.687   0.471
94728W        W63069  12.722   3.387   0.761
94729W        W63070  13.622   3.709   4.717
94730W        W63071   9.718  32.539  13.893
94731W        W63072  35.033  26.642  12.349
94732W        W63073  41.958  37.399  12.392
94733W        W63074  40.480  29.962  13.869
94734W        W63075  22.145  26.091   3.737
94735W        W63076  26.176  42.791  13.341
94736W        W63077  31.639   8.879   0.431
94737W        W63078   8.302   7.877   3.236
94738W        W63079  16.617  43.340   4.333
94739W        W63080   0.934   1.777  11.872
94740W        W63081  13.194  27.999   2.822
94741W        W63082  37.428   9.159   0.369
94742W        W63083  16.787   8.890   4.826
94743W        W63084   9.826  19.115   2.840
94744W        W63085  44.817   3.412  11.957
94745W        W63086   1.445  16.666   2.848
94746W        W63087  33.463  22.707   2.853
94747W        W63088  11.823   9.683  13.037
94748W        W63089  40.050   0.759   3.191
94749W        W63090  16.794  27.587  14.852
94750W        W63091  43.018  36.084   4.350
94751W        W63092  44.499  25.147  14.391
94752W        W63093  11.825  28.615   0.836
94753W        W63094  30.144  28.015  12.002
94754W        W63095   3.870  17.612  13.930
94755W        W63096  13.768  25.645   3.231
94756W        W63097  38.972  32.106   2.771
94757W        W63098   1.242   8.802  10.420
94758W        W63099  15.230  22.227   3.242
94759W        W63100  11.706  28.465   2.891
94760W        W63101  39.322   7.281  13.482
94761W        W63102  20.563   1.844  14.515
94762W        W63103  13.323   2.764  14.889
94763W        W63104  36.565  35.104   4.823
94764W        W63105  42.961  40.938   3.163
94765W        W63106  42.436  36.910  13.010
94766W        W63107   8.857   7.290   2.776
94767W        W63108  34.918  11.827   1.740
94768W        W63109  34.898  39.324   2.773
94769W        W63110  22.746  13.662  11.555
94770W        W63111  10.791  43.883  10.638
94771W        W63112  23.567  19.281  14.905
94772W        W63113   2.467  10.863   0.746
94773W        W63114  16.626  39.950  12.526
94774W        W63115  23.698  37.386   4.348
94775W        W63116  34.955  31.969  10.949
94776W        W63117  15.299   6.277  14.279
94777W        W63118  40.016  42.407   3.200
94778W        W63119  33.935  32.006   3.163
94779W        W63120  43.371  21.262  14.785
94780W        W63121  37.835  41.358   9.977
94781W        W63122  37.840  34.460   2.311
94782W        W63123  28.131  39.411   0.737
94783W        W63124  15.656  17.197   3.843
94784W        W63125   2.805   7.333   1.417
94785W        W63126  36.036  39.547   1.352
94786W        W63127   3.798   4.859   2.197
94787W        W63128  36.085  28.963  14.318
94788W        W63129  17.754  14.629  11.438
94789W        W63130   9.737  27.615   0.950
94790W        W63131  27.553  40.460  11.938
94791W        W63132  28.937  24.221   1.331
94792W        W63133  16.250   2.403  10.620
94793W        W63134  13.792  14.786  14.508
94794W        W63135  15.598  34.530   3.843
94795W        W63136  39.028   6.724   2.761
94796W        W63137   8.685  41.349   4.307
94797W        W63138  20.074  15.587   5.260
94798W        W63139   1.874  39.330   4.123
94799W        W63140  38.387  32.012   0.328
94800W        W63141   8.780  42.515  12.360
94801W        W63142  26.513  27.169   2.268
94802W        W63143   0.923  21.160  12.559
94803W        W63144   3.946  31.967   5.171
94804W        W63145  26.574   2.267  14.278
94805W        W63146  30.133  41.351   1.731
94806W        W63147  35.511   1.818  10.944
94807W        W63148   2.445  33.466   0.857
94808W        W63149  39.450  14.296   0.357
94809W        W63150   6.713  22.165  14.016
94810W        W63151  40.837  42.326   2.231
94811W        W63152  33.557  41.438   2.387
94812W        W63153   5.294  19.606   2.672
94813W        W63154  20.053  17.164   0.919
94814W        W63155  36.418  35.538  10.973
94815W        W63156  32.558  35.388  10.633
94816W        W63157  27.620  12.295   3.633
94817W        W63158  25.552   0.296   4.712
94818W        W63159  13.185  26.967   0.385
94819W        W63160  10.347  28.028  11.059
94820W        W63161  38.444  12.663  10.990
94821W        W63162  29.092  26.176  11.054
94822W        W63163  24.003  24.980   1.889
94823W        W63164   4.820   8.295  13.444
94824W        W63165   3.757   1.356   4.258
94825W        W63166   1.975  26.143   1.311
94826W        W63167  27.629  19.108  14.788
94827W        W63168  18.593  33.530  10.519
94828W        W63169   1.954  10.209   1.782
94829W        W63170  34.108  22.681   4.159
94830W        W63171  44.893   2.812   0.889
94831W        W63172  32.137  16.795  10.155
94832W        W63173  15.644  41.298   2.248
94833W        W63174  27.016  29.979  14.875
94834W        W63175   9.875  19.178   0.265
94835W        W63176   6.340  21.693   4.244
94836W        W63177  43.955   2.897  12.418
94837W        W63178   0.263   5.853  11.123
94838W        W63179  32.555   6.916  14.847
94839W        W63180  44.428  36.958  14.928
94840W        W63181  11.362  13.829  14.311
94841W        W63182  24.185  31.131  12.087
94842W        W63183   9.658  23.013  12.838
94843W        W63184  13.779  40.803  14.994
94844W        W63185  25.569  37.349  11.562
94845W        W63186  25.218  31.407   2.751
94846W        W63187  28.079  18.770  10.027
94847W        W63188  19.264  33.909   2.903
94848W        W63189   8.160   2.793   1.803
94849W        W63190  34.903   0.979   3.233
94850W        W63191  18.645  39.509  13.519
94851W        W63192  22.032  31.948  11.127
94852W        W63193  23.708  24.148   1.354
94853W        W63194  20.566  25.607  14.922
94854W        W63195  32.001  28.126   2.218
94855W        W63196  33.413   7.888  10.428
94856W        W63197   3.731  19.046   9.621
94857W        W63198   0.394  39.013  11.977
94858W        W63199  11.756  16.279   0.810
94859W        W63200   8.855  30.986  11.042
94860W        W63201  18.564  41.460  13.998
94861W        W63202  20.039  30.049   2.396
94862W        W63203  30.979   5.695   0.297
94863W        W63204  42.461  12.815  12.095
94864W        W63205  42.446  22.581   4.736
94865W        W63206  12.672  10.227   3.251
94866W        W63207  38.023   4.330   4.348
94867W        W63208  38.507  28.540  11.441
94868W        W63209  38.856  22.699  11.434
94869W        W63210  21.681  15.804  12.479
94870W        W63211  12.338  40.892  10.553
94871W        W63212  14.820   0.805  13.545
94872W        W63213  38.456   4.437  12.359
94873W        W63214  29.078   5.934  10.506
94874W        W63215  26.971  30.446   4.194
94875W        W63216   3.291  17.648  11.902
94876W        W63217  11.188   9.865   1.282
94877W        W63218   4.833  18.237   4.176
94878W        W63219  34.957  42.906  10.995
94879W        W63220  29.055  14.141  10.417
94880W        W63221  14.792  33.564  12.487
94881W        W63222  21.251  30.937   4.776
94882W        W63223  41.376  31.515   3.288
94883W        W63224  43.960   2.292   3.186
94884W        W63225  24.020  35.054  11.999
94885W        W63226  27.171  42.372   2.363
94886W        W63227  35.573  42.460  14.021
94887W        W63228  38.377  40.952   4.730
94888W        W63229  22.153  14.605  12.521
94889W        W63230  22.519  30.989   2.676
94890W        W63231  31.410  18.678   0.744
94891W        W63232  29.153   0.278  14.367
94892W        W63233  33.103  12.203  12.493
94893W        W63234  39.945  11.769   4.354
94894W        W63235   0.951  28.556   1.433
94895W        W63236  44.453  44.449  13.541
94896W        W63237   2.898   6.848   4.601
94897W        W63238  33.444   8.664  12.080
94898W        W63239  42.874  13.655   1.918
94899W        W63240  13.128  12.291  10.613
94900W        W63241  20.666  30.448  11.127
94901W        W63242   9.741  16.078   1.268
94902W        W63243  41.508   4.311  12.406
94903W        W63244   0.334  19.193   4.226
94904W        W63245  42.347  17.623   2.186
94905W        W63246   8.687  31.425  12.575
94906W        W63247  28.022  31.968  12.933
94907W        W63248  39.325   6.406   1.800
94908W        W63249  21.040   8.671  11.879
94909W        W63250  30.546  41.888   9.952
94910W        W63251  19.767  37.464  13.396
94911W        W63252  21.208   1.354  10.500
94912W        W63253   4.311   1.456  14.778
94913W        W63254  40.413  26.988  11.878
94914W        W63255   3.860  34.369   2.766
94915W        W63256  29.492  32.535   1.354
94916W        W63257  12.611  15.288  14.960
94917W        W63258  39.811  13.241   4.608
94918W        W63259  42.864  36.077   0.890
94919W        W63260  38.364  38.997  12.077
94920W        W63261  10.221  33.570   3.659
94921W        W63262  15.140  24.552  13.530
94922W        W63263  29.540  44.475   5.254
94923W        W63264  26.596   7.824  11.002
94924W        W63265  39.033  13.782  14.501
94925W        W63266   6.810  14.781  13.809
94926W        W63267  37.872   3.363   5.138
94927W        W63268  14.831  22.503   2.760
94928W        W63269  22.574  17.177   2.335
94929W        W63270  41.860   6.382   2.256
94930W        W63271  19.636  27.058   2.345
94931W        W63272  23.064  22.640   3.665
94932W        W63273  32.562  44.472   3.740
94933W        W63274  14.804  19.239  12.826
94934W        W63275  29.041  25.555  11.376
94935W        W63276  17.192  25.514   0.283
94936W        W63277  10.158  13.138   4.825
94937W        W63278   5.236  44.929   4.264
94938W        W63279  20.722  24.709  13.463
94939W        W63280  27.506  24.496  11.092
94940W        W63281   5.863  19.166   3.680
94941W        W63282  36.407  36.479  10.598
94942W        W63283  17.130  14.303  14.939
94943W        W63284  21.614  26.004   0.367
94944W        W63285  33.974  29.128  12.483
94945W        W63286  13.131   4.940   1.747
94946W        W63287  15.285  24.630   0.354
94947W        W63288  17.736  15.255   3.850
94948W        W63289  24.560  29.121   9.444
94949W        W63290  28.654  38.518   2.351
94950W        W63291  44.007  16.244   2.825
94951W        W63292   3.436  14.686   2.254
94952W        W63293  26.641   7.284   1.720
94953W        W63294  34.577  29.566   3.697
94954W        W63295  19.285  13.237  13.928
94955W        W63296   5.363  18.289  12.995
94956W        W63297  29.628  37.354  12.573
94957W        W63298  27.099   5.700   3.677
94958W        W63299  42.512  33.017  14.899
94959W        W63300  17.786  18.632  10.569
94960W        W63301  29.044  24.516   4.797
94961W        W63302  11.149   2.745   3.759
94962W        W63303  30.130  34.917   1.899
94963W        W63304  31.422  24.653   2.868
94964W        W63305  16.567  21.204   5.580
94965W        W63306  21.544  19.258   2.316
94966W        W63307  28.515  38.901   1.761
94967W        W63308   3.802  13.332  11.497
94968W        W63309   0.794  38.027  13.812
94969W        W63310  33.116  39.864  11.438
94970W        W63311   9.875  25.977   1.217
94971W        W63312  15.641  21.533   2.742
94972W        W63313  28.135  18.240  13.823
94973W        W63314   3.883  35.073  12.382
94974W        W63315   4.805  43.334   1.368
94975W        W63316   3.396  23.233  12.421
94976W        W63317  43.435  14.669  14.401
94977W        W63318   8.768   3.457   3.724
94978W        W63319  42.786  31.488  11.609
94979W        W63320  27.960  32.427   4.163
94980W        W63321  36.487  44.803  11.983
94981W        W63322   6.417   2.723   1.385
94982W        W63323  25.214   8.880  14.027
94983W        W63324  36.844   9.153  12.352
94984W        W63325  29.093  32.631   1.325
94985W        W63326  13.624  24.560   4.271
94986W        W63327  34.561  43.421   2.230
94987W        W63328  40.930  42.958  13.832
94988W        W63329  11.334  42.955   3.631
94989W        W63330  26.953  31.968   1.848
94990W        W63331  31.084  28.612   3.210
94991W        W63332   4.792   2.376  14.288
94992W        W63333   7.227  44.873   3.230
94993W        W63334  42.486   1.745   4.742
94994W        W63335  28.044  10.171   4.247
94995W        W63336  38.456  26.047  10.487
94996W        W63337  12.312  36.431   3.344
94997W        W63338  44.910  44.310  12.071
94998W        W63339  33.944  33.582  14.479
94999W        W63340  13.647  41.446   2.277
95000W        W63341  27.996  23.681   1.903
95001W        W63342  19.267  31.050  12.474
95002W        W63343   8.724   3.742   0.784
95003W        W63344  24.163  41.910  14.423
95004W        W63345   5.320  40.024  11.427
95005W        W63346  35.437  13.250  13.808
95006W        W63347  41.026   8.663  14.345
95007W        W63348  35.095  41.871  12.047
95008W        W63349  10.259  31.430  13.484
95009W        W63350  27.684  22.547  10.589
95010W        W63351  40.021   3.948   0.378
95011W        W63352  39.036  35.470   1.329
95012W        W63353  34.585  32.085  14.030
95013W        W63354  44.349   2.280  12.875
95014W        W63355  32.037  16.151  14.402
95015W        W63356   0.326   4.313  12.364
95016W        W63357  15.603   1.482   2.722
95017W        W63358   2.451  21.670   0.371
95018W        W63359  38.485  42.882   9.642
95019W        W63360  14.181  39.914   2.270
95020W        W63361   9.206  38.362   4.710
95021W        W63362  29.111  33.514  14.892
95022W        W63363  21.708  24.555   0.923
95023W        W63364  40.332  42.345   3.327
95024W        W63365  43.867  17.560  12.981
95025W        W63366  40.343  34.914  11.399
95026W        W63367  27.050  14.706   1.905
95027W        W63368  27.147  14.764  10.956
95028W        W63369  44.806  37.361   2.870
95029W        W63370  28.048  24.231   0.439
95030W        W63371  28.977  19.744  12.044
95031W        W63372  18.267  11.292   3.693
95032W        W63373  39.831   5.222  12.529
95033W        W63374  11.318   6.214   4.154
95034W        W63375  15.108  36.373  13.465
95035W        W63376  24.016  29.510  12.885
95036W        W63377  29.131  29.954  11.887
95037W        W63378  34.051  33.397  11.993
95038W        W63379   7.227   6.186  14.319
95039W        W63380   3.247  31.056  10.442
95040W        W63381  13.768  31.966   1.234
95041W        W63382   3.734   8.818   1.428
95042W        W63383   6.812  15.675  13.315
95043W        W63384  34.453  19.637   0.940
95044W        W63385  42.485  36.390   0.877
95045W        W63386  25.549  16.616  12.847
95046W        W63387  35.371  24.715   4.653
95047W        W63388  30.459  43.430  13.809
95048W        W63389  31.468  16.226  14.969
95049W        W63390   9.841  22.084  13.910
95050W        W63391   6.274  39.983  13.923
95051W        W63392   7.782  16.810  10.932
95052W        W63393  13.752  41.530  13.865
95053W        W63394   0.897   7.860   2.305
95054W        W63395  23.503   1.426  14.027
95055W        W63396  26.968  18.225  11.014
95056W        W63397   7.247   6.250  11.422
95057W        W63398  33.417  40.911   3.222
95058W        W63399  26.688  25.190   1.750
95059W        W63400   8.259  29.471  14.996
95060W        W63401  26.540   0.248   1.877
95061W        W63402  22.718  39.024  13.375
95062W        W63403  18.159  26.546  12.039
95063W        W63404  40.355  38.829   3.714
95064W        W63405  12.259  40.378   3.637
95065W        W63406   4.430  20.068  14.959
95066W        W63407   5.706  26.961  12.838
95067W        W63408   9.343  22.559   2.702
95068W        W63409  37.466  29.107   1.248
95069W        W63410  28.474  24.093  10.091
95070W        W63411   5.407   9.356   1.757
95071W        W63412  38.016  34.596  11.601
95072W        W63413   7.795   6.312   2.251
95073W        W63414   9.782  31.446  12.970
95074W        W63415  13.736   1.407  14.885
95075W        W63416  21.678   9.662   1.367
95076W        W63417  38.565  25.616   4.240
95077W        W63418  17.782  13.236   4.788
95078W        W63419   4.929  44.405   4.658
95079W        W63420  20.593  14.620  13.980
95080W        W63421  43.918   6.826   3.861
95081W        W63422  15.290  15.319  10.910
95082W        W63423  17.263  43.818  13.914
95083W        W63424  26.472  26.688   0.807
95084W        W63425   2.917  33.891  10.938
95085W        W63426  30.615  11.324   3.670
95086W        W63427  31.987  31.502   3.669
95087W        W63428  27.136  11.654  12.010
95088W        W63429   7.372  37.982   1.839
95089W        W63430  33.613   4.451   0.258
95090W        W63431  26.018  23.208  13.426
95091W        W63432  39.515  40.456  13.858
95092W        W63433  14.161  14.114  12.038
95093W        W63434  37.450  22.034  10.524
95094W        W63435  12.759  11.339  14.880
95095W        W63436   0.410   8.726  11.062
95096W        W63437   7.289  14.336   4.222
95097W        W63438  37.508   8.886   3.794
95098W        W63439  20.162  30.430   3.181
95099W        W63440  26.067  33.087  11.567
95100W        W63441  21.023  42.002  12.369
95101W        W63442  21.684  22.061   1.787
95102W        W63443  17.560  24.980  12.511
95103W        W63444  16.202  39.344   1.882
95104W        W63445  31.403  34.026   2.801
95105W        W63446  20.606  39.512   0.875
95106W        W63447  35.910   3.322  10.636
95107W        W63448  37.856  35.908  10.427
95108W        W63449  36.952  28.673   3.212
95109W        W63450  11.639   8.313   3.691
95110W        W63451  41.955  21.699   1.788
95111W        W63452  32.541  41.460  11.031
95112W        W63453  20.564  19.069   1.919
95113W        W63454   2.939  37.073  10.408
95114W        W63455  31.095  36.018  13.420
95115W        W63456  10.783  27.991   1.280
95116W        W63457  43.853   4.760   3.150
95117W        W63458  32.485  25.561   2.897
95118W        W63459  27.460   5.277   3.219
95119W        W63460  42.821  15.277   3.381
95120W        W63461  39.477  34.085  11.072
95121W        W63462   3.830   2.817  13.996
95122W        W63463  42.493   1.433  13.404
95123W        W63464  42.801  39.949  10.061
95124W        W63465   0.822  38.873   3.259
95125W        W63466  38.963  20.257  11.069
95126W        W63467  41.927  18.619   2.841
95127W        W63468  44.896  32.054  12.495
95128W        W63469  20.683  26.487  13.879
95129W        W63470  29.160  31.941   0.752
95130W        W63471  18.275  26.093   0.844
95131W        W63472  39.886  32.451  12.532
95132W        W63473  18.675  21.022  14.792
95133W        W63474  37.887  38.488   2.368
95134W        W63475   3.245  31.911   3.293
95135W        W63476   9.701  16.177  12.523
95136W        W63477  16.743   4.939  14.278
95137W        W63478  31.457  18.229  12.421
95138W        W63479  43.330  27.041   3.265
95139W        W63480  43.843  28.034  13.993
95140W        W63481   6.284  29.066  14.778
95141W        W63482  38.982  11.188  14.867
95142W        W63483  31.646  24.547   0.453
95143W        W63484  37.946  14.688   3.368
95144W        W63485  33.979   1.440   2.393
95145W        W63486  34.592  10.286  10.913
95146W        W63487  17.194  14.108  11.507
95147W        W63488  15.793  43.350  13.476
95148W        W63489  25.193  44.427   2.390
95149W        W63490  33.407  21.239   0.242
95150W        W63491   9.712  22.524  14.469
95151W        W63492  37.042  43.277   4.733
95152W        W63493  20.749   1.802  11.894
95153W        W63494  29.610   8.779  13.936
95154W        W63495  36.560   9.703  12.832
95155W        W63496  44.347  14.765   3.822
95156W        W63497   6.307  13.789  12.965
95157W        W63498  18.140  30.605   4.125
95158W        W63499  14.727  38.013   1.800
95159W        W63500  44.856   8.854  10.972
95160W        W63501  33.948  44.384   0.937
95161W        W63502  13.782  22.028  11.404
95162W        W63503   6.311   0.987  11.003
95163W        W63504  26.953   1.455  11.502
95164W        W63505  13.773  28.003   1.791
95165W        W63506  16.627  37.085  10.543
95166W        W63507   0.290   4.267   0.786
95167W        W63508  13.754   7.188  11.042
95168W        W63509   9.838  10.255   1.258
95169W        W63510  12.167   6.716  10.481
95170W        W63511  19.142  22.732   0.876
95171W        W63512  42.985   8.657  14.851
95172W        W63513   4.778  18.062  14.354
95173W        W63514   4.346   7.187  14.930
95174W        W63515   2.328  11.336   1.433
95175W        W63516   3.442  12.288   2.396
95176W        W63517  13.334  38.889   3.148
95177W        W63518  10.737  42.832   4.659
95178W        W63519  28.977  35.023  13.851
95179W        W63520  38.358  17.267   0.364
95180W        W63521  35.100  30.137  12.550
95181W        W63522  17.063  41.479  12.070
95182W        W63523  35.384   0.943   1.696
95183W        W63524  39.036  34.943   0.436
95184W        W63525  35.871  30.162  13.959
95185W        W63526  36.416   2.868  14.421
95186W        W63527  38.440  29.430  11.400
95187W        W63528  11.793  13.300   9.957
95188W        W63529   1.921  12.789  14.414
95189W        W63530  37.417  15.587  11.571
95190W        W63531  30.596  43.496  13.323
95191W        W63532  37.349  22.145   1.312
95192W        W63533  44.453  18.710   3.373
95193W        W63534  28.115  20.732  11.612
95194W        W63535  30.999  43.956   0.427
95195W        W63536  37.027  14.329  14.375
95196W        W63537  43.273  13.775  13.940
95197W        W63538   9.293  41.537  14.765
95198W        W63539  11.261   3.751  14.439
95199W        W63540  39.419  31.033  10.976
95200W        W63541   4.206  11.211   3.858
95201W        W63542   8.229  14.098   3.780
95202W        W63543  23.583  32.103   3.221
95203W        W63544  29.050  36.372   4.209
95204W        W63545  29.588  12.177   2.720
95205W        W63546  23.147  19.747   1.823
95206W        W63547  40.996   6.288  10.593
95207W        W63548  44.458  10.800  13.971
95208W        W63549   9.871   6.403  10.511
95209W        W63550  17.691  35.933  14.277
95210W        W63551  28.987   2.340  12.550
95211W        W63552   0.396  41.930  14.877
95212W        W63553  24.525  12.292   0.409
95213W        W63554  36.926  16.147   3.328
95214W        W63555  19.212  28.538  11.969
95215W        W63556  32.032  13.807   2.395
95216W        W63557  18.129  24.025   3.377
95217W        W63558  37.932  27.149   3.791
95218W        W63559  12.767  23.492  12.014
95219W        W63560  32.448  23.216  11.582
95220W        W63561  44.298   8.833  14.005
95221W        W63562  42.818  39.535  10.558
95222W        W63563  20.187  19.245  10.994
95223W        W63564  22.531  31.975  13.545
95224W        W63565  35.500  28.026   3.148
95225W        W63566   6.747  15.645   3.282
95226W        W63567  24.716   3.339  13.422
95227W        W63568  23.527  18.562  13.532
95228W        W63569  38.514   2.379   2.663
95229W        W63570  27.043  23.705   1.316
95230W        W63571  26.694  17.644   0.392
95231W        W63572   5.235  34.875   0.901
95232W        W63573   6.267  34.028   3.343
95233W        W63574   6.375  37.872   2.841
95234W        W63575  34.055  43.288  12.890
95235W        W63576   4.314  38.029  13.796
95236W        W63577  20.716   3.218  12.952
95237W        W63578  16.091  27.949   3.740
95238W        W63579  23.506  30.948  14.836
95239W        W63580  27.579  42.991   1.392
95240W        W63581  42.778  35.057   2.205
95241W        W63582  18.110  19.273  12.498
95242W        W63583  19.600  43.906   2.662
95243W        W63584   1.329  19.115   2.283
95244W        W63585   1.282  23.219  14.877
95245W        W63586  10.822  39.064  11.865
95246W        W63587  38.402  35.560  14.941
95247W        W63588  18.730   8.828  10.076
95248W        W63589  39.423  12.827   3.327
95249W        W63590  40.872   2.769  11.579
95250W        W63591   9.358  20.613   2.862
95251W        W63592  12.682  12.302  14.430
95252W        W63593  25.561  33.110   0.891
95253W        W63594  22.548  10.333   3.367
95254W        W63595   8.270  23.725  14.504
95255W        W63596  36.574  25.502   2.282
95256W        W63597  22.244   2.768  12.502
95257W        W63598  15.306  16.675   4.180
95258W        W63599  11.827  11.748  11.903
95259W        W63600  16.299  20.725   0.343
95260W        W63601  39.439  43.295  11.920
95261W        W63602  11.736  27.607   2.335
95262W        W63603  33.424   4.221  14.786
95263W        W63604  33.405   6.840   1.290
95264W        W63605  16.734  34.560  12.829
95265W        W63606  27.568  32.553   0.957
95266W        W63607  11.142  21.180  11.877
95267W        W63608   7.676  10.248  13.029
95268W        W63609  28.592  26.662  14.764
95269W        W63610  38.555  22.603  13.345
95270W        W63611  28.064   5.275   2.272
95271W        W63612  15.579  23.129   5.095
95272W        W63613   4.232   4.354   1.704
95273W        W63614  10.718   1.927   0.377
95274W        W63615  44.850  34.899  13.423
95275W        W63616  19.230   1.241  10.409
95276W        W63617   9.731   5.853   1.269
95277W        W63618   3.723   4.812  11.399
95278W        W63619  17.266  13.790  11.115
95279W        W63620   3.316  21.633   2.856
95280W        W63621   7.394  11.672  10.955
95281W        W63622  26.159  15.781   0.796
95282W        W63623  21.141   0.919   3.713
95283W        W63624   2.240   0.829   3.806
95284W        W63625  20.685  39.351  12.832
95285W        W63626  17.578   3.256  10.435
95286W        W63627  12.326  22.737  13.861
95287W        W63628  14.728   1.737   1.824
95288W        W63629  18.754  40.482   5.088
95289W        W63630  30.982  39.446  12.957
95290W        W63631  38.422  11.224   0.303
95291W        W63632  41.536  14.290  13.836
95292W        W63633  37.024  22.577   1.857
95293W        W63634  26.080  43.843  13.796
95294W        W63635  13.795  31.540   2.901
95295W        W63636  39.535   7.693   0.815
95296W        W63637  38.439  23.666   2.378
95297W        W63638   0.983  12.632  14.879
95298W        W63639  18.740  17.602  11.556
95299W        W63640  29.149  23.140   2.358
95300W        W63641  43.856  43.019  10.067
95301W        W63642   3.712  40.912   3.238
95302W        W63643  24.228  19.724   5.221
95303W        W63644  40.932  38.870  11.935
95304W        W63645  36.463  19.542   5.112
95305W        W63646  32.421  16.284   3.834
95306W        W63647  25.495  30.146   3.663
95307W        W63648   8.372   1.357   4.186
95308W        W63649  41.002  39.511   0.381
95309W        W63650  26.172  11.717   1.768
95310W        W63651  43.359  17.658  12.339
95311W        W63652   2.767  38.450   3.234
95312W        W63653  23.735   5.385  12.382
95313W        W63654  40.965  40.526   2.730
95314W        W63655   9.655  14.276  14.782
95315W        W63656  14.788   1.958   3.368
95316W        W63657   2.288  41.534   5.238
95317W        W63658  23.627  18.753   3.154
95318W        W63659  44.486  38.891   1.830
95319W        W63660  26.155  30.932   2.312
95320W        W63661  36.589  22.023   2.387
95321W        W63662  20.044  27.539  12.000
95322W        W63663   4.892  10.345  13.805
95323W        W63664  20.244  36.555   4.204
95324W        W63665  29.517  38.483   4.280
95325W        W63666  12.304  13.616   1.338
95326W        W63667  37.845   8.230  12.950
95327W        W63668  21.139  40.436   3.660
95328W        W63669  37.875  33.075  11.129
95329W        W63670  28.621   1.812  14.894
95330W        W63671   0.451  22.080   4.831
95331W        W63672  40.868  36.466   4.801
95332W        W63673  31.988  41.443   2.679
95333W        W63674  41.845   1.437  14.430
95334W        W63675  43.330  37.007  12.448
95335W        W63676  26.635  27.631   1.747
95336W        W63677   9.230   6.286  11.538
95337W        W63678  39.382  24.170  11.539
95338W        W63679  29.582   5.719   0.444
95339W        W63680   8.218  39.061  12.388
95340W        W63681   7.283  44.912  11.884
95341W        W63682  36.987  43.996  13.484
95342W        W63683  21.164   4.394  14.011
95343W        W63684  20.129  42.779  10.590
95344W        W63685  30.946  36.962   2.774
95345W        W63686   2.927  34.889   4.296
95346W        W63687  44.348   0.372  14.835
95347W        W63688  17.114  19.701  14.893
95348W        W63689   7.408  41.294  12.388
95349W        W63690  14.219  41.962   5.319
95350W        W63691  30.450   7.704  14.441
95351W        W63692  23.606  44.498  10.495
95352W        W63693  12.266   1.340  11.438
95353W        W63694   0.296  40.024   1.750
95354W        W63695  26.110  21.599  14.870
95355W        W63696  30.536  37.985   3.236
95356W        W63697  16.255   4.762  11.122
95357W        W63698  20.615  10.790   4.704
95358W        W63699  14.095   5.823  14.981
95359W        W63700  44.393  42.414  11.390
95360W        W63701  22.131   3.814  14.409
95361W        W63702  22.710  42.303  12.970
95362W        W63703   3.321  39.364  14.487
95363W        W63704  35.938  32.964   2.831
95364W        W63705  30.131  32.139   2.260
95365W        W63706  16.773  31.626  13.506
95366W        W63707  17.798   4.723  10.451
95367W        W63708  40.877  33.597   4.263
95368W        W63709  30.427  27.131   4.700
95369W        W63710  43.901  32.556  11.913
95370W        W63711  32.085  22.585  10.958
95371W        W63712  16.128  40.434   4.652
95372W        W63713  44.288  23.621   2.210
95373W        W63714  14.599  39.394  11.041
95374W        W63715  14.231  42.494  11.892
95375W        W63716  23.554  24.055  14.308
95376W        W63717  34.926  38.921  14.403
95377W        W63718   2.458  14.682   0.353
95378W        W63719  34.082  27.656  14.367
95379W        W63720  35.857   3.886   2.351
95380W        W63721  38.953  28.461   4.210
95381W        W63722  11.685  19.548   3.277
95382W        W63723   6.379   6.337   1.920
95383W        W63724  40.815  24.679   0.926
95384W        W63725  14.318  39.852   0.392
95385W        W63726  44.423  18.698   2.848
95386W        W63727  41.968   1.461   0.371
95387W        W63728  17.177  19.734   4.159
95388W        W63729  44.824   1.305   4.824
95389W        W63730   0.349  19.267  13.903
95390W        W63731  22.028  18.052  12.531
95391W        W63732   5.926   4.782  13.504
95392W        W63733   8.398  30.072  11.033
95393W        W63734  20.206  21.523   0.431
95394W        W63735  24.688   5.393   1.321
95395W        W63736  17.106  19.717   5.262
95396W        W63737  11.736  44.458  10.624
95397W        W63738   0.906  26.504   1.696
95398W        W63739  33.559  37.843  12.357
95399W        W63740   2.315  39.450  10.967
95400W        W63741  41.295  30.941  13.926
95401W        W63742  28.445  10.228  10.024
95402W        W63743  39.998  34.921   0.270
95403W        W63744  41.993   1.341   0.899
95404W        W63745  35.917  31.634  14.870
95405W        W63746  12.799  13.811   3.666
95406W        W63747  43.005  35.012  11.925
95407W        W63748   6.898  13.740  12.947
95408W        W63749  28.557   2.789  14.884
95409W        W63750  39.919  19.134  13.367
95410W        W63751   2.966  30.922   2.289
95411W        W63752  42.453   5.389  14.881
95412W        W63753  35.562  16.097   3.311
95413W        W63754  37.993  10.747  12.054
95414W        W63755   9.323  28.151  12.543
95415W        W63756   5.281  44.309  12.398
95416W        W63757  29.504   1.279  11.010
95417W        W63758  24.498  16.583   1.307
95418W        W63759  33.879  27.981   2.328
95419W        W63760   9.694  11.245  10.440
95420W        W63761  31.145  15.284  13.526
95421W        W63762  13.802  11.637   4.333
95422W        W63763  38.521  13.636  10.520
95423W        W63764   7.354  28.608   3.844
95424W        W63765   1.437  38.849   3.760
95425W        W63766  38.414  18.141   2.870
95426W        W63767  26.968  23.668  12.392
95427W        W63768  11.212  18.075   1.211
95428W        W63769  12.753  16.164  10.625
95429W        W63770  40.001  29.546  11.576
95430W        W63771  17.259  16.802  11.901
95431W        W63772  23.667  15.801   1.800
95432W        W63773  20.529  36.053  11.070
95433W        W63774  43.270  26.475  13.978
95434W        W63775  42.425  25.640  10.476
95435W        W63776   3.791  25.617   2.668
95436W        W63777   5.694  32.613   1.369
95437W        W63778  18.230  43.935   3.305
95438W        W63779   5.812  42.902  12.882
95439W        W63780  43.282   8.264  12.919
95440W        W63781  24.973  29.522   0.841
95441W        W63782  12.272   1.392   0.326
95442W        W63783  31.928  30.507   1.904
95443W        W63784   0.398  34.381  13.016
95444W        W63785  14.639  16.111   4.141
95445W        W63786  15.264  15.324  12.074
95446W        W63787   7.306   8.895   0.297
95447W        W63788  43.880  13.734   0.787
95448W        W63789  25.583  39.930   0.363
95449W        W63790   4.878  26.673  10.159
95450W        W63791  24.078  31.643  14.991
95451W        W63792   0.403   1.806   4.216
95452W        W63793  34.893  40.002   3.193
95453W        W63794  24.691  14.821  10.578
95454W        W63795  33.101  18.216  10.989
95455W        W63796  17.299  28.671   0.442
95456W        W63797  23.133   2.239  10.889
95457W        W63798  36.469   3.315  13.486
95458W        W63799  40.839  19.627   4.789
95459W        W63800  40.825   5.221   4.758
95460W        W63801  27.466  13.673   1.367
95461W        W63802  33.504  13.668  14.981
95462W        W63803   0.866  24.571  13.890
95463W        W63804  30.412   3.776   2.309
95464W        W63805  37.369  35.515   0.841
95465W        W63806   7.695  28.174  14.854
95466W        W63807  41.986  19.202  14.494
95467W        W63808  38.978  38.970   3.372
95468W        W63809  36.999  18.573   4.296
95469W        W63810  11.253   0.788   3.751
95470W        W63811   1.398   0.929  13.879
95471W        W63812  34.491  13.624  13.871
95472W        W63813   2.385  35.409   0.904
95473W        W63814  30.526  31.533  11.406
95474W        W63815   6.268   1.898   2.749
95475W        W63816  20.146  22.071   1.275
95476W        W63817  34.045  22.543  11.058
95477W        W63818  35.499  38.912   3.733
95478W        W63819  36.468  20.629  12.902
95479W        W63820  13.337  15.168  10.926
95480W        W63821   5.259   8.690   3.238
95481W        W63822  34.586  36.408   4.223
95482W        W63823  26.176  34.520  14.347
95483W        W63824  43.814  20.706   2.903
95484W        W63825  32.005   2.240  10.926
95485W        W63826  25.689  33.443   1.445
95486W        W63827   6.376   2.765   3.297
95487W        W63828  10.329   2.917  14.277
95488W        W63829  14.180  21.143  13.515
95489W        W63830  12.687  15.316  12.422
95490W        W63831  12.648  29.628  11.945
95491W        W63832  17.736  13.271  10.560
95492W        W63833  27.542  21.533   0.274
95493W        W63834  35.372   9.672   2.782
95494W        W63835   7.768  10.304  10.407
95495W        W63836  42.996  32.885   4.720
95496W        W63837  10.138  12.824  13.324
95497W        W63838  38.331  26.003   1.400
95498W        W63839  30.998  35.913   3.773
95499W        W63840  42.968  35.084   3.343
95500W        W63841  28.983  23.494  14.504
95501W        W63842   2.779   6.416   2.401
95502W        W63843  24.169   5.397  10.499
95503W        W63844  18.119  29.436   4.687
95504W        W63845   3.931  29.604   1.867
95505W        W63846  11.692  14.293   0.740
95506W        W63847  15.296  36.489   2.668
95507W        W63848  30.966   4.385   0.441
95508W        W63849  26.191  16.685  14.923
95509W        W63850  20.597  41.323   3.303
95510W        W63851   8.374  21.731   1.797
95511W        W63852  19.255  30.464   4.804
95512W        W63853  12.770  38.385   2.403
95513W        W63854  40.861   3.823  13.808
95514W        W63855  33.045   4.245   4.337
95515W        W63856  44.756  23.552   1.256
95516W        W63857  17.139  11.714  10.614
95517W        W63858  12.278  38.016  12.485
95518W        W63859  32.430   0.867   2.295
95519W        W63860  13.738   6.893   0.347
95520W        W63861  14.327  34.902  13.356
95521W        W63862  36.936  39.926  14.809
95522W        W63863   4.231  35.592   2.218
95523W        W63864  34.957  34.550   2.901
95524W        W63865  26.490  42.831  12.919
95525W        W63866  14.595  37.362  13.501
95526W        W63867  19.122   2.401  12.527
95527W        W63868  15.199  22.035   3.642
95528W        W63869  43.409  21.569  14.381
95529W        W63870  12.662  33.065   3.831
95530W        W63871  40.352   8.659  11.608
95531W        W63872   3.803  38.383   2.315
95532W        W63873  18.764   8.661   3.354
95533W        W63874  37.380  40.954   2.344
95534W        W63875  13.726  14.119  13.512
95535W        W63876   4.713  25.623   3.366
95536W        W63877   5.383  44.948   3.749
95537W        W63878   2.847  35.533   3.347
95538W        W63879  32.624  12.671  13.844
95539W        W63880  29.973  14.597   4.823
95540W        W63881  43.909  41.879  10.640
95541W        W63882   3.225  41.879   2.332
95542W        W63883  12.161  19.182   4.790
95543W        W63884   0.482  12.358  12.071
95544W        W63885  21.239  29.982   2.344
95545W        W63886  28.995  44.843   0.859
95546W        W63887  41.402   6.746  11.877
95547W        W63888  22.215  11.635  13.978
95548W        W63889   8.262   5.802  11.437
95549W        W63890  22.157  17.161   2.197
95550W        W63891  23.652  26.554   3.218
95551W        W63892  17.206  12.139   0.288
95552W        W63893  20.747  24.059   0.762
95553W        W63894  39.434  39.973  10.447
95554W        W63895  18.228  27.032   3.202
95555W        W63896  40.038  21.247  13.534
95556W        W63897  11.290  31.124   1.893
95557W        W63898  32.066  19.623   1.923
95558W        W63899  15.108  41.886   4.295
95559W        W63900   2.935   8.792   1.296
95560W        W63901  19.237  15.720   2.798
95561W        W63902   5.874  23.598  10.580
95562W        W63903  28.440   1.878  13.923
95563W        W63904  42.026  25.640   0.777
95564W        W63905  27.973  14.624   9.999
95565W        W63906  15.206  24.160  14.920
95566W        W63907  25.058  43.826   3.167
95567W        W63908  29.120   0.844  14.332
95568W        W63909  10.287  29.960  12.546
95569W        W63910  33.531   8.347   4.216
95570W        W63911  28.988  22.088   0.942
95571W        W63912  12.645  43.339   0.298
95572W        W63913  29.124  30.974  10.610
95573W        W63914   5.265  28.482  14.872
95574W        W63915  35.381  24.070  14.458
95575W        W63916   0.375  34.940   0.432
95576W        W63917  44.413  31.631  13.522
95577W        W63918  11.222  11.206  11.902
95578W        W63919  27.156   0.419  11.589
95579W        W63920   4.297   6.789   4.793
95580W        W63921  21.511  18.779   2.861
95581W        W63922  22.646  13.138   3.673
95582W        W63923  36.852  35.918  10.526
95583W        W63924  32.635   4.391  11.454
95584W        W63925   7.357  40.404  10.602
95585W        W63926  10.840  36.492   1.416
95586W        W63927  37.562  11.327   4.218
95587W        W63928  25.596   2.390   1.905
95588W        W63929  19.213  28.596   4.270
95589W        W63930   0.782  23.633   5.253
95590W        W63931  32.478  11.831  13.059
95591W        W63932  11.809  26.594  13.985
95592W        W63933  18.083  41.983   4.134
95593W        W63934  40.053   8.175  11.475
95594W        W63935  42.019   6.428   3.215
95595W        W63936  27.645  27.493  14.288
95596W        W63937   9.316  29.147  13.498
95597W        W63938  16.587  42.970   0.793
95598W        W63939  39.929  41.460   1.273
95599W        W63940   8.343   3.434  12.939
95600W        W63941  15.700   0.458  13.000
95601W        W63942  40.353  27.009  12.578
95602W        W63943  33.931  41.880   0.742
95603W        W63944   7.341  16.087  14.387
95604W        W63945  12.672  44.943  12.054
95605W        W63946   2.914  20.087  14.289
95606W        W63947  42.411   0.428  10.949
95607W        W63948  38.520  25.165  13.047
95608W        W63949  27.655  22.597  14.914
95609W        W63950   9.813   3.772   2.316
95610W        W63951  22.061   8.785  12.469
95611W        W63952  42.506  35.023   2.682
95612W        W63953  24.495   8.899  14.783
95613W        W63954  20.080  17.610   3.790
95614W        W63955  28.131  12.268   1.862
95615W        W63956   7.766  41.303   5.228
95616W        W63957  28.481  33.914   0.919
95617W        W63958  12.746  27.485   2.694
95618W        W63959   9.884   9.158   1.840
95619W        W63960  10.842   4.729   0.282
95620W        W63961  18.051  15.211  12.548
95621W        W63962  43.826  35.571  11.605
95622W        W63963  18.711  22.072   0.346
95623W        W63964  15.193  28.641   4.310
95624W        W63965  30.505  31.103   2.187
95625W        W63966  23.501   3.749   1.372
95626W        W63967  34.003   7.272   0.962
95627W        W63968   2.435  24.011  11.119
95628W        W63969   9.335  23.039   2.801
95629W        W63970  13.303  20.591  14.367
95630W        W63971  38.557   0.345  11.527
95631W        W63972  14.332  23.014   1.868
95632W        W63973  42.505  43.435   4.247
95633W        W63974  34.011  12.854   2.355
95634W        W63975  16.621  24.137  11.486
95635W        W63976  13.195   1.314  14.921
95636W        W63977  21.512  34.549  12.919
95637W        W63978  13.819  43.301   3.792
95638W        W63979  42.365   8.247   3.303
95639W        W63980  16.588  10.380   3.225
95640W        W63981  24.554   6.333  10.549
95641W        W63982   1.876   1.304   1.781
95642W        W63983  20.223  11.164  10.606
95643W        W63984  28.462  29.605   4.830
95644W        W63985  21.244  41.329   9.978
95645W        W63986  42.878   1.410   2.683
95646W        W63987   4.752  13.131  13.942
95647W        W63988  11.710   1.908   2.186
95648W        W63989  42.418   4.898  13.537
95649W        W63990  24.622  10.332   2.825
95650W        W63991  39.883  37.838  13.324
95651W        W63992   7.699  27.684  11.994
95652W        W63993  39.995  29.545   3.805
95653W        W63994  15.704   7.778  12.559
95654W        W63995  40.426  28.624   2.266
95655W        W63996   0.276   2.810   1.244
95656W        W63997  44.499  42.347   0.726
95657W        W63998   7.733   9.734  14.006
95658W        W63999   6.345  23.190   0.734
95659W        W64000   4.438  13.314  13.403
95660W        W64001  40.044  14.664   0.768
95661W        W64002   3.895  34.096  11.911
95662W        W64003  23.094  40.948  14.962
95663W        W64004  43.439  34.600  13.984
95664W        W64005   6.269  21.641  11.548
95665W        W64006  43.347   1.331   0.910
95666W        W64007  36.886  15.615  12.948
95667W        W64008  26.189  30.969  12.406
95668W        W64009  17.094  39.973  11.524
95669W        W64010  11.156   9.788   4.745
95670W        W64011  13.284   3.869  10.976
95671W        W64012   8.385  21.208   2.663
95672W        W64013  28.153   7.357   1.795
95673W        W64014   9.179  13.137  13.064
95674W        W64015  27.579  34.912  14.337
95675W        W64016  36.033  12.294   0.422
95676W        W64017  30.078  15.111   3.204
95677W        W64018  38.844  40.854   2.891
95678W        W64019  34.984  38.005   3.322
95679W        W64020  18.225  18.096  10.990
95680W        W64021  17.800  18.754  11.593
95681W        W64022  39.555  21.166   1.900
95682W        W64023  22.102  14.118  11.482
95683W        W64024   3.267  31.407  11.064
95684W        W64025   6.853  19.537   0.440
95685W        W64026  30.433  15.787   5.295
95686W        W64027  27.558  35.015   2.357
95687W        W64028  44.990  29.437  14.397
95688W        W64029  19.587  17.283  12.969
95689W        W64030  21.672  38.389  11.568
95690W        W64031  36.438  29.040  14.387
95691W        W64032   2.242  26.578   3.689
95692W        W64033   3.881  44.274   1.430
95693W        W64034   6.859  22.643  14.797
95694W        W64035  10.725  13.721   2.306
95695W        W64036  19.766  20.158   3.675
95696W        W64037  15.611  39.906  14.836
95697W        W64038  37.943  11.254   0.366
95698W        W64039  43.990  22.141   3.791
95699W        W64040  28.563  19.251  11.917
95700W        W64041   8.199  28.020  10.908
95701W        W64042  34.443  38.443  13.445
95702W        W64043  41.829  15.255   3.160
95703W        W64044  15.607   2.403  11.113
95704W        W64045  14.333  24.531  10.495
95705W        W64046  24.680  27.083  11.423
95706W        W64047  28.132  22.514  14.515
95707W        W64048   8.235  10.660   1.890
95708W        W64049  16.769  18.201  11.984
95709W        W64050  18.683  35.071   3.337
95710W        W64051  41.397  34.588  10.482
95711W        W64052  13.740  37.446  12.448
95712W        W64053  18.083  16.138  14.973
95713W        W64054  42.823  30.918   1.379
95714W        W64055   6.869  13.608   4.163
95715W        W64056  32.100  18.652  13.401
95716W        W64057  17.703  13.681   1.771
95717W        W64058  18.297   6.882  11.379
95718W        W64059  36.000  12.682  10.593
95719W        W64060  39.356  32.930  10.491
95720W        W64061  41.404  20.088   1.709
95721W        W64062  42.836  37.468  11.072
95722W        W64063  23.533  28.120   1.437
95723W        W64064  23.726  29.941   2.743
95724W        W64065  11.753  24.141   2.374
95725W        W64066  25.531  36.989   2.317
95726W        W64067  14.269  39.894  12.868
95727W        W64068  19.086  40.525   3.797
95728W        W64069  29.528  39.035  12.957
95729W        W64070  37.415  34.071  12.391
95730W        W64071  17.074  11.315  13.532
95731W        W64072  23.218  38.987   2.401
95732W        W64073  13.274  29.941   0.359
95733W        W64074   2.841   6.424  11.517
95734W        W64075  29.450  15.269  12.909
95735W        W64076  24.637  31.941  11.858
95736W        W64077  29.983  39.951   2.701
95737W        W64078   6.335  11.728   3.782
95738W        W64079   2.779   3.833   3.717
95739W        W64080  29.063  39.353  10.915
95740W        W64081  13.787   4.794   2.902
95741W        W64082   2.425  21.551  11.935
95742W        W64083  14.642  31.025  13.431
95743W        W64084  21.633  24.140   1.910
95744W        W64085  20.147   2.264   0.852
95745W        W64086  30.977  43.376  14.322
95746W        W64087   3.428  14.600  12.064
95747W        W64088  16.748  31.587   1.925
95748W        W64089  23.635   9.818  12.011
95749W        W64090   6.720  35.471  13.001
95750W        W64091  23.512  37.582  10.425
95751W        W64092  16.577  23.591   2.895
95752W        W64093   2.249   8.897  11.563
95753W        W64094   5.885  32.501   3.846
95754W        W64095   0.475  25.520   3.383
95755W        W64096  41.965   2.337   0.305
95756W        W64097   8.366  29.504   3.380
95757W        W64098  37.007   1.364   2.356
95758W        W64099  30.955   4.262   3.689
95759W        W64100  20.668  27.078   2.780
95760W        W64101  42.798  26.691  12.419
95761W        W64102   0.944  29.037  11.517
95762W        W64103  17.120  29.029   1.345
95763W        W64104  43.446  22.744   4.809
95764W        W64105  40.860   2.279  12.877
95765W        W64106  14.649  32.898   5.767
95766W        W64107  33.604  28.003   3.150
95767W        W64108  30.541  32.130   4.276
95768W        W64109  37.003  17.143  11.049
95769W        W64110   1.438  22.220  11.929
95770W        W64111  20.173  14.187  14.901
95771W        W64112  17.089  34.024   4.153
95772W        W64113  41.038  29.029   1.444
95773W        W64114  34.006  12.179   4.320
95774W        W64115  17.254  37.061   4.624
95775W        W64116  25.559  34.369  11.906
95776W        W64117  24.226  19.547   2.196
95777W        W64118  24.133  31.105   0.370
95778W        W64119  28.665  40.456  10.405
95779W        W64120  29.142  26.663  12.440
95780W        W64121  34.572  14.600  14.411
95781W        W64122  41.348  23.618   3.852
95782W        W64123  28.015  18.057   3.282
95783W        W64124  38.830  16.633   2.787
95784W        W64125  29.049  36.912  11.938
95785W        W64126  30.985  41.987  10.056
95786W        W64127  12.657   2.344   1.834
95787W        W64128   4.285   0.486   3.678
95788W        W64129  34.989  18.103   4.747
95789W        W64130  11.207  23.124  11.562
95790W        W64131  10.642  38.438  13.514
95791W        W64132  13.219  28.938  10.454
95792W        W64133   3.773   4.411   3.354
95793W        W64134  23.212   5.213   2.859
95794W        W64135  11.708  34.552  13.891
95795W        W64136  37.045  22.219  12.989
95796W        W64137  32.564  35.418  14.854
95797W        W64138  35.077  35.602   2.823
95798W        W64139   3.849  25.579   4.691
95799W        W64140  42.434  25.704  13.332
95800W        W64141   5.775  37.366   4.826
95801W        W64142  36.529   7.194  11.474
95802W        W64143  19.257  36.419   1.363
95803W        W64144  21.594   6.681   4.118
95804W        W64145  35.889   8.274  14.339
95805W        W64146  39.356  28.112  12.986
95806W        W64147   8.721  25.152  11.870
95807W        W64148  17.131  31.598   0.468
95808W        W64149  40.043  35.868   3.832
95809W        W64150   0.466   1.890   1.908
95810W        W64151  22.183  27.036   4.148
95811W        W64152  44.262  20.717  11.933
95812W        W64153  24.021   5.212   3.159
95813W        W64154  15.148  27.657  11.573
95814W        W64155  16.777  33.390   4.810
95815W        W64156  25.480  35.533   3.182
95816W        W64157  29.116  30.117  11.419
95817W        W64158   5.928  23.166   2.218
95818W        W64159   6.364  42.953   3.714
95819W        W64160  22.111   7.823  13.881
95820W        W64161  17.278   8.233  11.560
95821W        W64162  19.107  31.479  12.379
95822W        W64163  44.775   9.248   3.702
95823W        W64164  39.553  19.096  11.973
95824W        W64165  38.056  44.802   1.832
95825W        W64166  12.312  21.109  13.014
95826W        W64167  43.316   2.917  13.415
95827W        W64168  39.503   4.833   1.714
95828W        W64169  24.212  12.853   2.864
95829W        W64170  26.651  42.977  12.521
95830W        W64171  23.172   2.870  11.522
95831W        W64172   5.762  17.651  12.547
95832W        W64173   3.254   6.770  13.354
95833W        W64174  33.440  44.874   0.738
95834W        W64175   5.892   3.779   2.825
95835W        W64176  17.116   8.361  12.087
95836W        W64177  31.510  30.500  11.873
95837W        W64178   8.225  18.146   3.159
95838W        W64179   8.655  44.393  12.850
95839W        W64180   1.276  43.352   4.295
95840W        W64181  25.971  28.109  14.363
95841W        W64182  18.235  26.022   2.405
95842W        W64183  22.592  41.500   0.849
95843W        W64184  24.588  27.645  10.092
95844W        W64185  42.979  11.250   0.383
95845W        W64186  39.368  36.878  14.351
95846W        W64187  43.936  10.212  12.501
95847W        W64188  23.033  44.785  11.903
95848W        W64189  15.286  26.498   3.775
95849W        W64190  36.445   6.411   2.775
95850W        W64191  35.043  44.931  11.898
95851W        W64192  14.125  20.531  12.009
95852W        W64193  17.291  44.421   0.345
95853W        W64194  17.594  38.451  12.368
95854W        W64195  27.115  42.455   3.639
95855W        W64196  28.595  27.052   3.167
95856W        W64197  41.303  39.853  13.798
95857W        W64198  24.204  22.100  11.125
95858W        W64199  30.002  11.834  13.864
95859W        W64200   4.369  24.496   1.230
95860W        W64201  36.403  31.922  10.976
95861W        W64202  21.030  38.901  12.485
95862W        W64203  44.374  26.697   0.326
95863W        W64204  26.487  14.305   2.733
95864W        W64205  34.536  10.327  10.150
95865W        W64206  29.924  18.270   3.202
95866W        W64207   7.679  13.107   4.271
95867W        W64208  42.871   6.316  10.620
95868W        W64209  35.102  14.611  14.474
95869W        W64210  26.123  31.608  12.342
95870W        W64211   4.849  11.814   1.414
95871W        W64212  16.241  19.620   0.804
95872W        W64213  32.987  43.770  10.434
95873W        W64214  41.462  13.713   1.308
95874W        W64215   1.757   0.909   1.860
95875W        W64216  35.058  42.329   1.827
95876W        W64217   3.214  14.659  12.967
95877W        W64218  33.119  37.983   0.282
95878W        W64219  39.035  43.421   9.930
95879W        W64220  21.156  30.515  14.959
95880W        W64221   7.248   7.181  14.378
95881W        W64222  38.901  13.125   3.237
95882W        W64223  41.342  43.467   1.918
95883W        W64224  12.640  20.221  13.446
95884W        W64225   5.318  15.763   4.186
95885W        W64226  19.080  40.833   2.258
95886W        W64227  28.457  23.510   3.372
95887W        W64228  44.755   4.841   1.306
95888W        W64229  15.195  20.249  14.853
95889W        W64230   2.347  28.146   1.415
95890W        W64231   3.713  29.445  11.044
95891W        W64232   2.277  16.122   0.401
95892W        W64233  44.473  39.997  11.869
95893W        W64234  30.077  29.591  13.974
95894W        W64235  38.383  39.421   1.849
95895W        W64236  11.241  40.458  10.139
95896W        W64237   3.941  43.282   2.217
95897W        W64238   0.377  11.296   2.696
95898W        W64239  24.566  20.047   3.653
95899W        W64240   8.771  10.371  10.032
95900W        W64241  16.812  10.708  14.013
95901W        W64242  38.376   8.350  12.847
95902W        W64243  42.359  19.068  13.825
95903W        W64244  39.529  33.041  12.514
95904W        W64245   4.311  44.362   3.813
95905W        W64246  30.999  15.685   4.649
95906W        W64247   2.359  27.153   0.788
95907W        W64248  25.154  28.575  13.943
95908W        W64249  18.609  40.825   3.823
95909W        W64250  17.176  22.678   1.790
95910W        W64251   8.227  26.194   2.712
95911W        W64252  13.654  17.623  12.883
95912W        W64253  37.569   6.406   3.271
95913W        W64254  19.257  13.291  12.997
95914W        W64255  37.072  26.058  11.908
95915W        W64256  12.765  21.708  13.533
95916W        W64257  37.512  31.942   4.637
95917W        W64258   6.767   1.426   2.718
95918W        W64259  31.985  11.654  13.016
95919W        W64260  40.908  11.757  13.362
95920W        W64261  15.238   3.877   2.881
95921W        W64262  18.749  36.528  14.419
95922W        W64263  17.797  40.416   3.694
95923W        W64264  12.206  40.836   9.541
95924W        W64265  28.183   0.404  14.795
95925W        W64266  12.641  38.941  11.518
95926W        W64267  21.035  33.070  11.911
95927W        W64268   0.899   7.765  11.928
95928W        W64269  12.764  18.061  11.461
95929W        W64270  39.472  31.617  13.928
95930W        W64271  28.930  30.522  11.396
95931W        W64272  16.220  41.397   0.274
95932W        W64273  39.810  12.177  11.404
95933W        W64274  13.742   5.433   4.178
95934W        W64275   6.839  26.537  10.515
95935W        W64276  24.206  41.820  13.809
95936W        W64277  20.134  37.874  14.946
95937W        W64278  39.922  17.675  11.089
95938W        W64279  13.150  23.672  13.905
95939W        W64280  21.119  20.173   4.333
95940W        W64281  21.167  34.915   0.787
95941W        W64282  41.326  17.768  11.106
95942W        W64283  14.190  31.526  14.874
95943W        W64284  41.391  42.419   2.818
95944W        W64285   0.315  11.337  14.484
95945W        W64286  14.176  26.511   4.616
95946W        W64287  15.243  11.317  14.968
95947W        W64288  27.494  14.307  12.970
95948W        W64289  16.251  29.111   1.243
95949W        W64290  20.594  25.702   0.854
95950W        W64291  27.463  28.089  11.404
95951W        W64292  30.102  12.624  14.515
95952W        W64293  19.123   0.910  13.528
95953W        W64294  36.451  32.967  10.903
95954W        W64295  20.648  22.122   1.443
95955W        W64296  35.596   6.312   3.221
95956W        W64297   0.306  31.590   1.409
95957W        W64298  20.665  30.545   1.715
95958W        W64299  27.979  16.215   0.743
95959W        W64300  44.301  36.039  14.974
95960W        W64301  39.862  10.145  13.338
95961W        W64302   5.267  39.049  11.111
95962W        W64303  19.577  26.599  12.491
95963W        W64304  33.940  10.795   0.429
95964W        W64305  43.365  32.600  13.477
95965W        W64306  14.263  21.093   1.828
95966W        W64307   9.817  44.785  10.427
95967W        W64308  41.347   8.220   3.310
95968W        W64309  16.617  33.020  10.933
95969W        W64310  41.502  37.002  12.404
95970W        W64311  33.022  36.932  10.978
95971W        W64312  41.943   5.430   0.339
95972W        W64313  31.426  35.082   2.298
95973W        W64314  28.940  11.844  14.920
95974W        W64315  35.070  43.400   1.251
95975W        W64316  10.743  33.460  12.024
95976W        W64317  28.605  28.453  12.829
95977W        W64318  16.741  19.070  14.509
95978W        W64319  14.786  16.285  11.085
95979W        W64320  38.953  27.601  12.449
95980W        W64321   9.804  19.100  14.850
95981W        W64322  15.188   1.836  14.406
95982W        W64323  27.585  11.147  10.525
95983W        W64324  19.118  24.638  13.865
95984W        W64325  14.790  25.126  13.844
95985W        W64326   9.738  34.007   1.815
95986W        W64327  13.821  28.137  12.022
95987W        W64328  16.242  16.592   3.174
95988W        W64329  21.177  33.105  11.123
95989W        W64330  34.567  14.231  13.534
95990W        W64331  29.077  24.535  10.540
95991W        W64332   8.804  36.362  10.638
95992W        W64333   4.756  29.045   2.265
95993W        W64334  41.407  11.190  12.872
95994W        W64335  20.616  33.893   3.364
95995W        W64336  25.058  20.600   4.306
95996W        W64337   1.410  25.609  14.503
95997W        W64338  39.497   2.752  11.465
95998W        W64339   3.223  25.014  10.887
95999W        W64340  17.712  35.943   0.484
96000W        W64341  25.566  40.437   3.341
96001W        W64342   6.738   4.870   4.347
96002W        W64343   6.909  39.922  12.477
96003W        W64344   4.393  10.344   4.649
96004W        W64345  33.625  29.016  13.459
96005W        W64346   8.316   2.460  12.443
96006W        W64347  14.154  43.358  11.526
96007W        W64348  13.105  29.459   5.227
96008W        W64349  42.298  44.315   1.859
96009W        W64350  15.798   3.935   1.384
96010W        W64351  26.608  16.634  11.432
96011W        W64352   4.205  42.500  11.543
96012W        W64353   0.794  44.356   4.176
96013W        W64354   4.907  14.222  11.990
96014W        W64355  10.198  33.132  13.052
96015W        W64356  44.448   0.286  11.407
96016W        W64357  20.244  33.485   0.266
96017W        W64358   0.870   4.850  10.095
96018W        W64359  19.267   5.723  12.371
96019W        W64360  32.487  41.434   3.215
96020W        W64361   7.417   5.282  10.941
96021W        W64362   4.357  29.434  14.015
96022W        W64363  26.566  28.102   4.230
96023W        W64364  31.987  40.976  11.921
96024W        W64365   4.763  31.410  10.511
96025W        W64366  43.384  17.183   2.406
96026W        W64367  32.036  44.442  11.053
96027W        W64368  34.064  25.711  11.564
96028W        W64369   9.154   2.425  13.857
96029W        W64370  18.718  22.556  11.409
96030W        W64371  21.594   2.724   2.743
96031W        W64372  41.380  12.118   1.437
96032W        W64373   8.803  16.775   0.399
96033W        W64374   4.310  41.915  14.460
96034W        W64375  29.026   2.393  13.833
96035W        W64376  15.593  17.199   4.776
96036W        W64377  12.783  32.419   3.723
96037W        W64378  40.524  34.573   2.814
96038W        W64379   4.406   8.873   0.837
96039W        W64380  43.461  16.766   4.831
96040W        W64381  30.618  13.760   2.317
96041W        W64382  36.436  25.046  12.340
96042W        W64383  13.717  39.812  10.628
96043W        W64384  19.737  13.262  14.862
96044W        W64385  23.588   4.364   1.285
96045W        W64386  41.844   1.459   3.778
96046W        W64387  36.474  21.720   0.757
96047W        W64388  39.872  20.222   3.771
96048W        W64389  40.998  20.160  12.851
96049W        W64390   0.861  20.043   5.294
96050W        W64391  22.684  37.950  12.854
96051W        W64392  11.346   0.422  14.498
96052W        W64393  29.938   3.728   3.174
96053W        W64394  19.066  13.171  11.884
96054W        W64395   3.331  17.177  11.521
96055W        W64396  31.906  13.183   4.133
96056W        W64397  38.999  32.007   0.313
96057W        W64398  43.901  29.455   4.156
96058W        W64399  39.372  40.853  13.965
96059W        W64400   7.308  20.759   0.403
96060W        W64401  13.333  10.738   2.835
96061W        W64402   6.266  10.215  11.558
96062W        W64403  26.126   4.788  10.409
96063W        W64404  21.603  14.800  11.992
96064W        W64405  28.645  30.540  12.056
96065W        W64406  14.098  35.391   4.623
96066W        W64407  10.808   8.222   3.182
96067W        W64408  36.509   9.167  11.954
96068W        W64409   9.766  16.619   0.311
96069W        W64410  14.646   9.172  13.437
96070W        W64411  43.953  24.487   0.869
96071W        W64412   9.380  17.248  11.866
96072W        W64413  16.220   0.397   3.351
96073W        W64414  27.568  32.953   1.853
96074W        W64415  33.533  22.131   1.764
96075W        W64416  31.630   9.889   3.718
96076W        W64417   8.737  44.288   0.450
96077W        W64418  33.054  33.608   0.905
96078W        W64419  31.486  13.728  14.018
96079W        W64420   0.252  12.339  14.303
96080W        W64421  23.182  34.505  14.330
96081W        W64422  34.431  23.569  13.418
96082W        W64423  20.254  38.849   5.206
96083W        W64424  19.637  32.897  14.489
96084W        W64425  11.802  34.937  14.350
96085W        W64426  15.803  24.639   3.728
96086W        W64427  15.311  39.490  11.546
96087W        W64428  38.545  11.134  13.480
96088W        W64429  33.102  15.213  12.563
96089W        W64430  35.870  39.435  11.551
96090W        W64431  39.829   2.921  11.007
96091W        W64432  14.778  26.070   2.307
96092W        W64433  15.175   0.263  14.927
96093W        W64434   6.837  13.105  14.321
96094W        W64435   2.805   6.232   2.898
96095W        W64436  10.791  18.774   2.317
96096W        W64437  23.529   1.436  10.461
96097W        W64438  17.156  21.522   3.647
96098W        W64439  41.791   1.450   3.369
96099W        W64440   5.291  38.899  12.054
96100W        W64441  18.188  10.174   1.336
96101W        W64442  40.047   6.689   4.777
96102W        W64443  41.803  38.903   3.345
96103W        W64444  21.656  30.434  10.894
96104W        W64445  44.870  16.176  12.062
96105W        W64446  24.693   5.423   0.747
96106W        W64447  14.201  18.059   0.385
96107W        W64448  38.954   4.755   5.151
96108W        W64449  18.650  38.050  12.496
96109W        W64450  37.866   7.748  10.420
96110W        W64451   2.237  18.777  10.084
96111W        W64452  16.577  30.106  11.955
96112W        W64453  43.331   7.742  14.026
96113W        W64454  23.131   8.221  14.412
96114W        W64455  22.017   4.755  13.905
96115W        W64456  33.986   1.439  11.546
96116W        W64457  33.911  22.505   1.844
96117W        W64458  24.579  25.065   4.350
96118W        W64459  16.683  44.840   1.227
96119W        W64460  43.510  20.213  13.366
96120W        W64461  37.963   5.270  13.889
96121W        W64462  34.902  31.980   3.763
96122W        W64463   7.726  26.197   3.748
96123W        W64464  29.960  39.884  14.298
96124W        W64465  23.114  19.138  10.433
96125W        W64466  13.747  15.759   2.214
96126W        W64467   4.933  28.999  13.050
96127W        W64468   3.388  38.443   2.699
96128W        W64469  13.659  27.663   1.835
96129W        W64470  44.975   1.300  11.426
96130W        W64471   4.855  20.083   1.847
96131W        W64472  41.855  28.480   1.706
96132W        W64473  32.534  13.239  13.050
96133W        W64474  18.592   2.353  14.403
96134W        W64475  24.693   6.366  11.968
96135W        W64476  31.496  21.536   2.783
96136W        W64477   1.301   1.303  11.929
96137W        W64478  10.146  24.221   5.127
96138W        W64479   0.314   1.459  12.407
96139W        W64480  38.378  43.802   1.708
96140W        W64481  14.160  13.829   1.379
96141W        W64482  32.929  14.801  10.917
96142W        W64483   5.339   9.181  11.932
96143W        W64484   1.370   8.701  12.984
96144W        W64485  39.389  24.681  12.391
96145W        W64486   3.935  28.626  13.536
96146W        W64487  19.142  25.476   2.802
96147W        W64488  36.885   8.694  14.019
96148W        W64489  24.622  27.171   5.588
96149W        W64490  24.088  19.282   2.668
96150W        W64491  16.688  23.709   4.831
96151W        W64492  11.207  43.780   4.285
96152W        W64493  35.908  12.767  14.463
96153W        W64494  16.759  32.120  10.553
96154W        W64495   5.408  26.160  13.472
96155W        W64496  31.915  28.447   4.761
96156W        W64497  24.988  10.857   4.214
96157W        W64498  35.586  43.485  11.572
96158W        W64499  24.641   3.950  14.837
96159W        W64500  23.546   9.656   0.377
96160W        W64501  43.279  24.707   0.483
96161W        W64502  40.993  39.502   1.743
96162W        W64503  32.956  21.740  10.888
96163W        W64504  12.271  34.946   0.264
96164W        W64505  13.733   3.407   4.213
96165W        W64506  27.103  34.927   1.794
96166W        W64507   4.939  40.986   3.215
96167W        W64508   6.356   2.743   4.207
96168W        W64509   7.355  12.351  14.358
96169W        W64510  14.662  19.679  10.955
96170W        W64511  40.328  39.351  11.088
96171W        W64512  41.830  26.476   0.885
96172W        W64513  38.007  37.082   1.864
96173W        W64514  39.504  17.298   2.743
96174W        W64515  32.541  39.919   5.149
96175W        W64516   3.763  30.160   1.841
96176W        W64517  42.880  16.170  11.890
96177W        W64518  23.492  30.468   2.677
96178W        W64519   6.417   9.184   4.836
96179W        W64520  29.115  27.614   4.721
96180W        W64521  37.012  23.709  12.453
96181W        W64522   8.766  18.255   2.741
96182W        W64523  43.359  16.648  10.498
96183W        W64524  16.128  30.158  11.910
96184W        W64525   0.422   4.334  14.464
96185W        W64526   9.262  44.869  13.429
96186W        W64527  28.962   0.478   1.300
96187W        W64528  28.081  27.594  10.566
96188W        W64529  11.352   1.429   0.914
96189W        W64530   0.834  42.373   2.356
96190W        W64531  44.345  29.503   0.863
96191W        W64532  23.184  10.685  11.406
96192W        W64533  28.987  32.893   4.646
96193W        W64534  22.114  12.635  11.499
96194W        W64535  12.829   5.259  13.509
96195W        W64536  19.183   6.681   3.700
96196W        W64537   1.342  25.583  11.975
96197W        W64538  36.567  26.033  14.285
96198W        W64539   5.315   7.904  13.433
96199W        W64540  41.786  31.147  11.939
96200W        W64541   2.917   6.400  13.542
96201W        W64542   3.219  29.168   4.331
96202W        W64543   7.877   2.261  10.611
96203W        W64544  11.157  29.165  14.944
96204W        W64545  32.966  18.719   3.676
96205W        W64546  31.038  23.497   2.359
96206W        W64547  24.638  27.116   1.759
96207W        W64548  28.621   4.354  10.478
96208W        W64549  19.112  40.940   4.747
96209W        W64550  27.497  31.576  13.331
96210W        W64551  31.557  20.725   4.692
96211W        W64552   4.802  22.582   4.779
96212W        W64553   9.156  14.231  11.082
96213W        W64554  38.403  41.486  14.933
96214W        W64555  17.173  30.606  11.411
96215W        W64556  20.557  14.622  10.975
96216W        W64557  37.545  31.078   1.262
96217W        W64558   8.748   5.704   4.680
96218W        W64559  12.671  17.141  11.569
96219W        W64560  36.003  30.575  11.098
96220W        W64561   2.303  38.465   0.368
96221W        W64562  26.176  10.261   1.919
96222W        W64563  20.200  35.079  14.487
96223W        W64564  18.058  20.638   2.808
96224W        W64565   5.374  10.769  10.967
96225W        W64566  22.669   4.724   2.711
96226W        W64567   1.922  12.668   0.320
96227W        W64568  26.024  10.291   3.381
96228W        W64569  36.382  25.146  10.958
96229W        W64570  35.872  19.228  11.945
96230W        W64571  36.539  15.639  14.275
96231W        W64572  20.682  39.832   2.196
96232W        W64573  15.251   0.251   3.695
96233W        W64574  11.289  32.534  14.420
96234W        W64575  43.503  30.627  14.851
96235W        W64576  15.138   2.254   3.785
96236W        W64577   5.434  20.032  14.415
96237W        W64578  19.582  18.773   5.302
96238W        W64579  20.175   7.845   1.333
96239W        W64580  35.447   2.414  12.573
96240W        W64581  21.059   5.895   0.950
96241W        W64582   3.754  12.183   4.683
96242W        W64583  37.459  11.728   2.332
96243W        W64584  30.114  11.235   0.845
96244W        W64585   6.790   8.836  13.828
96245W        W64586  23.588  13.701   1.334
96246W        W64587   1.330  24.120   0.366
96247W        W64588  30.141  19.047  14.342
96248W        W64589  30.988  35.001  12.045
96249W        W64590  24.161   0.757  13.525
96250W        W64591  23.596  38.043   2.254
96251W        W64592  31.934  22.740  12.012
96252W        W64593  30.031  27.466  11.420
96253W        W64594  13.337  17.119   2.824
96254W        W64595  17.723  40.826   3.314
96255W        W64596  37.405  19.247   2.829
96256W        W64597  20.712   6.258   1.822
96257W        W64598  20.636   8.707   3.177
96258W        W64599  44.321  27.480   3.715
96259W        W64600  19.708   7.791   4.646
96260W        W64601   7.843  38.367  11.610
96261W        W64602   7.244  23.238  14.786
96262W        W64603  20.220  31.056   3.149
96263W        W64604  40.888   9.243   1.237
96264W        W64605  23.076  23.688  14.283
96265W        W64606  22.141   4.365   1.437
96266W        W64607  38.889  44.969  14.004
96267W        W64608  18.192  13.258   1.306
96268W        W64609  36.444  16.603   3.362
96269W        W64610  19.668   8.221  11.080
96270W        W64611   4.782  18.728  14.283
96271W        W64612  29.499  40.021   0.738
96272W        W64613  15.104  22.204   2.845
96273W        W64614  38.989   3.304  14.790
96274W        W64615  19.217  17.649   0.390
96275W        W64616  27.162  31.607  13.828
96276W        W64617  30.649  17.165   5.152
96277W        W64618   9.664  30.993  12.975
96278W        W64619  36.472  32.633  14.962
96279W        W64620  42.015   5.330  13.932
96280W        W64621  40.008  18.688  14.379
96281W        W64622  38.954   2.919  11.483
96282W        W64623   3.370  31.443   2.284
96283W        W64624   0.836   4.372   2.692
96284W        W64625  13.222   4.313   0.401
96285W        W64626  17.786  44.445   4.298
96286W        W64627   8.753  44.407   2.254
96287W        W64628   7.779  43.285  14.762
96288W        W64629   6.778  11.627   4.632
96289W        W64630   4.346  31.117  12.353
96290W        W64631  34.081  20.709   0.962
96291W        W64632  11.285  15.177   1.388
96292W        W64633  37.940  17.233  10.605
96293W        W64634   7.709  29.545   2.704
96294W        W64635   4.353  30.948  10.994
96295W        W64636  19.049  32.401   4.343
96296W        W64637  20.104  42.296  10.515
96297W        W64638   5.351  17.173  13.841
96298W        W64639  20.765  19.702  10.453
96299W        W64640  19.692  43.457  11.392
96300W        W64641   6.205   4.265   3.764
96301W        W64642   3.216   0.939   2.899
96302W        W64643  13.286  36.550  12.962
96303W        W64644  41.420  27.182  14.493
96304W        W64645  25.109  14.304  14.487
96305W        W64646  36.382  15.182  12.929
96306W        W64647  13.653   8.297   3.267
96307W        W64648   9.807  19.129   3.648
96308W        W64649  26.005   3.351  14.381
96309W        W64650  21.034   9.232  12.976
96310W        W64651  25.548  24.669   4.611
96311W        W64652  28.132  29.142   4.213
96312W        W64653   1.339  19.727  12.946
96313W        W64654  27.509  33.613   0.903
96314W        W64655  15.225  27.154  11.952
96315W        W64656   7.220  43.295  11.454
96316W        W64657  17.118  21.082  14.794
96317W        W64658  19.607   4.771  13.427
96318W        W64659  34.908   4.767  10.926
96319W        W64660  11.829  19.586   3.651
96320W        W64661  39.468  43.314  14.422
96321W        W64662   5.353  16.171  12.032
96322W        W64663   7.320  25.494  14.820
96323W        W64664   4.780  36.871   3.259
96324W        W64665  32.889  25.164  10.514
96325W        W64666  33.594  13.710   9.949
96326W        W64667  23.608  28.528   0.462
96327W        W64668   2.334  10.808  13.451
96328W        W64669  37.531   4.215   4.311
96329W        W64670  36.884  19.236   2.339
96330W        W64671   2.888  39.858   0.439
96331W        W64672  27.449   5.709   2.861
96332W        W64673  35.495  21.260   3.827
96333W        W64674  32.919   3.374   2.292
96334W        W64675  44.480  14.659  14.964
96335W        W64676  42.441  24.516   0.832
96336W        W64677   7.849  35.392  11.856
96337W        W64678  11.306   5.717   1.831
96338W        W64679   7.284  42.292   2.367
96339W        W64680  29.462  30.653   5.183
96340W        W64681  16.710  31.060  12.472
96341W        W64682  23.127  14.634   2.886
96342W        W64683   1.776  24.499   4.686
96343W        W64684  27.007  16.796  12.579
96344W        W64685  20.524  40.891  14.022
96345W        W64686  33.447  31.096   0.867
96346W        W64687  19.047  34.549  13.890
96347W        W64688  14.788  38.519  12.958
96348W        W64689   0.917   6.686   4.776
96349W        W64690  28.561   8.278  10.473
96350W        W64691  41.962  18.109   2.225
96351W        W64692  43.890  24.703   1.900
96352W        W64693  29.169  14.727   2.819
96353W        W64694  10.202  15.313   3.666
96354W        W64695  14.782  25.003   3.306
96355W        W64696  41.471  32.120   2.228
96356W        W64697  44.431  33.079  12.064
96357W        W64698  18.145  24.026  13.546
96358W        W64699  13.602  39.548   2.357
96359W        W64700  36.361  14.254  12.511
96360W        W64701   4.241  27.453  11.077
96361W        W64702   2.884   7.269  13.995
96362W        W64703  35.398   0.381  11.559
96363W        W64704  11.326   0.418  11.416
96364W        W64705  30.471  17.768  10.577
96365W        W64706  36.900  35.965  13.414
96366W        W64707  27.561  30.921   3.275
96367W        W64708   5.790  37.852   0.337
96368W        W64709  32.945   5.842   1.723
96369W        W64710  40.038  27.623  13.382
96370W        W64711   4.769   2.280  10.067
96371W        W64712   7.364  37.478   4.665
96372W        W64713  27.944  39.055   5.185
96373W        W64714   1.374  36.571  12.925
96374W        W64715  11.202  30.969  13.002
96375W        W64716  27.601  43.501  12.050
96376W        W64717   4.868  37.566  11.414
96377W        W64718  31.586   1.804  14.315
96378W        W64719   5.311  44.755  12.382
96379W        W64720   8.283  40.517   2.902
96380W        W64721  15.143  32.950  13.479
96381W        W64722  25.666   5.885  14.336
96382W        W64723   9.735  13.233  13.923
96383W        W64724  33.580  23.202  14.353
96384W        W64725  19.150  33.128  14.491
96385W        W64726  16.103  38.447  14.848
96386W        W64727   8.691  27.564  14.997
96387W        W64728  15.784  23.066  12.966
96388W        W64729  30.566  20.187   1.867
96389W        W64730  26.469  18.582  14.361
96390W        W64731  19.080   9.380   0.480
96391W        W64732   6.725   6.712   4.782
96392W        W64733   1.914   2.449   4.718
96393W        W64734  34.453  32.111   2.745
96394W        W64735  10.691  28.963  10.959
96395W        W64736  12.150   0.970  12.045
96396W        W64737  26.501  32.088   0.394
96397W        W64738  19.044  13.298   2.304
96398W        W64739  32.899  32.510  13.308
96399W        W64740  27.051   8.863  11.970
96400W        W64741   8.711   0.399   3.849
96401W        W64742  24.721  20.740  12.540
96402W        W64743  35.913  35.990  14.396
96403W        W64744  34.050  26.014   0.805
96404W        W64745  31.934  35.588   0.927
96405W        W64746  12.683  28.642   0.803
96406W        W64747  41.453  16.095   2.784
96407W        W64748  36.520  29.171  10.896
96408W        W64749   5.799  11.847   2.893
96409W        W64750   0.311  29.010  11.975
96410W        W64751  32.975  25.134  13.968
96411W        W64752  18.118  44.387   3.241
96412W        W64753   0.872   6.923  14.902
96413W        W64754  19.744   4.245   4.630
96414W        W64755   7.677   8.811   3.229
96415W        W64756  31.007  37.522   0.425
96416W        W64757  12.656  13.341   3.838
96417W        W64758  21.180  21.663  13.403
96418W        W64759  21.155   5.862   2.765
96419W        W64760  36.097   6.733   1.249
96420W        W64761  23.044  15.112   4.353
96421W        W64762  15.657  16.314   3.338
96422W        W64763  23.230  36.406  10.977
96423W        W64764  40.884  21.135  11.612
96424W        W64765  34.571   5.302   1.220
96425W        W64766  17.226   6.886   0.750
96426W        W64767  15.655  33.882   0.735
96427W        W64768  26.100  12.308   0.849
96428W        W64769  39.042  34.996  14.343
96429W        W64770  31.007   0.337   3.760
96430W        W64771  10.633  24.572   2.850
96431W        W64772  10.203  42.934  11.518
96432W        W64773  24.143  32.543   2.373
96433W        W64774  16.182  38.863  13.525
96434W        W64775  25.658  10.693  11.956
96435W        W64776  35.860   5.934  10.510
96436W        W64777  26.637  23.114   1.373
96437W        W64778  26.537  14.770   4.710
96438W        W64779  28.623  12.639   4.691
96439W        W64780  29.661  35.088  13.311
96440W        W64781   3.293  22.139   4.757
96441W        W64782  13.794  44.456  13.976
96442W        W64783  14.229  22.544   0.421
96443W        W64784  22.184  22.619  11.536
96444W        W64785  26.972  11.152   2.798
96445W        W64786   1.908   6.760   1.933
96446W        W64787  17.264  15.271  14.839
96447W        W64788  31.593   8.161  11.901
96448W        W64789  16.072  34.089  13.934
96449W        W64790   1.272  20.164  11.900
96450W        W64791  23.094  27.949  14.449
96451W        W64792  22.576  20.234  10.476
96452W        W64793  26.577  18.587   0.251
96453W        W64794  26.491  10.192  12.552
96454W        W64795  12.221  10.189  13.471
96455W        W64796  28.501  20.042  14.949
96456W        W64797  29.165   7.402   2.269
96457W        W64798   3.318  24.219  11.122
96458W        W64799  20.629  18.731   1.246
96459W        W64800  11.804  29.591   1.308
96460W        W64801  38.027   6.763   1.260
96461W        W64802  11.364  37.526  10.893
96462W        W64803  33.519  33.036   1.695
96463W        W64804  36.084  40.886   4.354
96464W        W64805  44.426   2.887  12.970
96465W        W64806  32.483   5.340   1.392
96466W        W64807   6.310  43.355   2.373
96467W        W64808  42.512  39.318   4.240
96468W        W64809   3.914  24.578  13.936
96469W        W64810   5.217  42.368  13.058
96470W        W64811  11.662   2.846  10.635
96471W        W64812  15.109  37.980   3.863
96472W        W64813  16.588  11.836  13.045
96473W        W64814   0.951  42.394  13.931
96474W        W64815  12.184  29.588  11.889
96475W        W64816  23.705  12.659  11.900
96476W        W64817  29.668  32.442  13.834
96477W        W64818  37.859  10.770  13.017
96478W        W64819  21.569  16.178   0.387
96479W        W64820  27.552  22.671   2.861
96480W        W64821  29.163   6.275   0.918
96481W        W64822  33.570  41.420  10.918
96482W        W64823  29.041  38.329   1.221
96483W        W64824  39.061   0.863   5.257
96484W        W64825  36.524   4.270  10.430
96485W        W64826  11.845  21.103   0.764
96486W        W64827  25.611  33.445  13.863
96487W        W64828  16.762   7.856   4.809
96488W        W64829   7.260  36.372  13.829
96489W        W64830  13.600  31.051   1.408
96490W        W64831  26.097  40.364   4.186
96491W        W64832   3.342   9.644   4.243
96492W        W64833  37.008   8.291  13.373
96493W        W64834  11.336  19.762   0.327
96494W        W64835  25.548  43.824   4.721
96495W        W64836  35.087  10.788   2.695
96496W        W64837   5.292  23.660  11.115
96497W        W64838  29.138  31.154   3.341
96498W        W64839  39.032  31.151   2.860
96499W        W64840  19.581  27.585   2.770
96500W        W64841  21.190  16.657   4.781
96501W        W64842  11.706  41.870  11.078
96502W        W64843  23.659  35.396   0.319
96503W        W64844  39.011   0.457   3.824
96504W        W64845  26.693  24.212  11.584
96505W        W64846  19.746  30.012   1.436
96506W        W64847  40.869  16.802   3.327
96507W        W64848   6.382   3.450  14.364
96508W        W64849  38.845  26.092   0.899
96509W        W64850  27.115  17.259   3.181
96510W        W64851  21.523  44.766   4.134
96511W        W64852  11.680  38.064   0.405
96512W        W64853  37.507  33.405   0.460
96513W        W64854  40.798  13.295  13.325
96514W        W64855  15.799   5.865  10.951
96515W        W64856  21.225  16.253   2.283
96516W        W64857   7.371  12.698  12.368
96517W        W64858  23.621  38.331   4.340
96518W        W64859  10.773   7.204  11.966
96519W        W64860   0.328  27.040  14.479
96520W        W64861  24.084  11.753  11.046
96521W        W64862   7.874  25.714   3.237
96522W        W64863  13.622  23.086   0.925
96523W        W64864  37.033  32.602   0.963
96524W        W64865  14.219  17.264  14.365
96525W        W64866  41.308  20.190  14.939
96526W        W64867  35.595  19.189  12.070
96527W        W64868  13.250  13.711  14.281
96528W        W64869  14.835  11.654  12.368
96529W        W64870  10.744  41.798  14.814
96530W        W64871  36.549  26.097  13.943
96531W        W64872  23.096   1.789  12.897
96532W        W64873   5.688  17.143   1.837
96533W        W64874  26.663   9.357  11.490
96534W        W64875   1.759  16.311  10.948
96535W        W64876  44.395  14.653   1.389
96536W        W64877   6.218   9.659   1.796
96537W        W64878   2.230  29.614   2.701
96538W        W64879  16.137  42.460   3.830
96539W        W64880   3.751  20.205  10.891
96540W        W64881  32.006  15.587   3.363
96541W        W64882  24.065  28.511  14.838
96542W        W64883  25.977  17.142  11.091
96543W        W64884  30.584  19.163   3.818
96544W        W64885   5.294  44.953  11.010
96545W        W64886  35.581  31.458  10.972
96546W        W64887   4.856  25.966   3.205
96547W        W64888  10.860   7.266  12.459
96548W        W64889  35.520  26.558  12.494
96549W        W64890  25.514  42.994  13.010
96550W        W64891  20.048   7.706  14.899
96551W        W64892  20.166   9.224   1.407
96552W        W64893  44.451  39.903  13.355
96553W        W64894   5.201  32.010   2.344
96554W        W64895  31.983  35.566   2.667
96555W        W64896   0.478  10.771   0.478
96556W        W64897  42.967  30.532  13.368
96557W        W64898   9.650  34.056   4.321
96558W        W64899  36.945  14.617  14.009
96559W        W64900  16.318  33.437  12.946
96560W        W64901  18.173  16.176  11.409
96561W        W64902  25.193  41.861   3.267
96562W        W64903  32.936  15.179   0.890
96563W        W64904  43.904  33.912  12.943
96564W        W64905  23.549  19.628  11.935
96565W        W64906  20.682   0.962  14.332
96566W        W64907  44.398  32.452  14.439
96567W        W64908   4.755  37.507   4.628
96568W        W64909   9.646  40.338  13.986
96569W        W64910  40.459   9.312  13.053
96570W        W64911  37.025   0.853   2.717
96571W        W64912   0.786  16.592   9.603
96572W        W64913  23.675   1.396   0.803
96573W        W64914  38.330  10.194  13.341
96574W        W64915  12.854  38.917   4.694
96575W        W64916  30.039  10.367  13.849
96576W        W64917  30.616  37.387  11.904
96577W        W64918  17.770  31.915  10.466
96578W        W64919  33.081  23.152  11.920
96579W        W64920  31.605  43.379  12.022
96580W        W64921  19.091  41.991   2.803
96581W        W64922  27.638   2.908   2.241
96582W        W64923  34.429  44.762  10.912
96583W        W64924  30.141   6.770  10.574
96584W        W64925  36.970  38.874   4.741
96585W        W64926   3.939  38.071   0.743
96586W        W64927  12.823  18.218   0.389
96587W        W64928  26.960  11.140  12.541
96588W        W64929  12.236  15.216   3.379
96589W        W64930   7.225  33.481  13.797
96590W        W64931  25.515   1.950   1.807
96591W        W64932  28.498   0.845   4.141
96592W        W64933  13.154  27.047  14.913
96593W        W64934  28.073  10.344  14.516
96594W        W64935  37.936   2.725   2.717
96595W        W64936   8.790   6.190   4.332
96596W        W64937  14.697  44.820  12.495
96597W        W64938  22.722  36.412  14.880
96598W        W64939  20.599   0.755   2.734
96599W        W64940  11.295  21.028   2.766
96600W        W64941   4.272  29.023  14.301
96601W        W64942  44.818  14.215  14.947
96602W        W64943   0.381  27.017   4.314
96603W        W64944  15.151  19.686  10.619
96604W        W64945  16.730   8.293   2.874
96605W        W64946   5.720   3.821   3.638
96606W        W64947  40.486  35.519   3.168
96607W        W64948  22.158  26.463   1.214
96608W        W64949  35.579  34.996  12.494
96609W        W64950  29.093  41.997   3.348
96610W        W64951  14.189  30.568   0.836
96611W        W64952   4.895   7.863   4.319
96612W        W64953  25.045  19.046  14.919
96613W        W64954  26.640   8.763   0.409
96614W        W64955  44.911   6.862  12.003
96615W        W64956  12.227  24.611  12.057
96616W        W64957   1.408  10.654   1.899
96617W        W64958  21.102  31.939  14.766
96618W        W64959  16.098  43.514  12.439
96619W        W64960  31.559   2.406   1.848
96620W        W64961  35.429  10.816   0.438
96621W        W64962  17.226   6.685   1.882
96622W        W64963  35.565   9.341  14.997
96623W        W64964  34.543  14.317  13.915
96624W        W64965   1.383  23.094   3.826
96625W        W64966  44.390   3.310  11.055
96626W        W64967   4.293  36.379   3.308
96627W        W64968  24.597  40.462   1.773
96628W        W64969  35.453  13.786  12.909
96629W        W64970  27.551   1.766  11.418
96630W        W64971  21.737  32.594   1.809
96631W        W64972   3.256  22.108  14.815
96632W        W64973  18.089  42.916   0.340
96633W        W64974   1.332  39.056  12.535
96634W        W64975  40.963  29.958  13.428
96635W        W64976  44.910  28.028   0.363
96636W        W64977  34.456  23.122  13.920
96637W        W64978  26.672   4.370   3.225
96638W        W64979  28.586  42.401   4.790
96639W        W64980  41.887  32.969  13.474
96640W        W64981  31.014  41.351  12.397
96641W        W64982  24.549  14.707   3.762
96642W        W64983  22.028  25.023  12.951
96643W        W64984  13.343   4.782  10.407
96644W        W64985  33.975  13.301  10.599
96645W        W64986  32.464  36.508  14.442
96646W        W64987  40.529   8.317  14.857
96647W        W64988  41.918  38.894  11.977
96648W        W64989  11.770  25.107  10.621
96649W        W64990  27.062  11.806   4.265
96650W        W64991  41.827  28.083   3.816
96651W        W64992  44.261   6.222  13.425
96652W        W64993  12.164  20.134   0.273
96653W        W64994  27.047   8.256   4.756
96654W        W64995  28.937   9.883  14.887
96655W        W64996  30.508  26.980   1.791
96656W        W64997  15.225   6.216   1.733
96657W        W64998   1.788  22.593  11.026
96658W        W64999  20.067  12.769  13.814
96659W        W65000   1.314  13.148  12.482
96660W        W65001  33.440  24.681  10.888
96661W        W65002   8.716  13.617  14.402
96662W        W65003   5.424  41.493  13.997
96663W        W65004  25.636  28.975  13.314
96664W        W65005  30.039   5.888  11.106
96665W        W65006  36.924  11.867   3.260
96666W        W65007  24.481  43.885   4.770
96667W        W65008  14.202  19.593   2.716
96668W        W65009  15.243   4.399   1.923
96669W        W65010  22.194  11.654  12.411
96670W        W65011  23.131   9.733   1.248
96671W        W65012   1.753  33.537  14.494
96672W        W65013  20.641  28.599   1.931
96673W        W65014  10.275  10.662   1.742
96674W        W65015  18.054   0.767   1.782
96675W        W65016  29.504  26.638   0.755
96676W        W65017  33.007  12.285  11.607
96677W        W65018  41.413   1.941   0.316
96678W        W65019   8.713   2.931   1.301
96679W        W65020  12.662  21.140  13.949
96680W        W65021  22.639  42.789   2.294
96681W        W65022  36.432  22.621   3.275
96682W        W65023  23.201   7.230   1.699
96683W        W65024   4.831   3.742   3.775
96684W        W65025   1.926  41.381  12.537
96685W        W65026   8.861  10.800  12.056
96686W        W65027  15.284  13.345  14.797
96687W        W65028  43.912  36.929   0.360
96688W        W65029  19.269  16.644   1.855
96689W        W65030  17.271  32.557   3.339
96690W        W65031  36.003  28.069  13.920
96691W        W65032  30.001  23.533  14.821
96692W        W65033  38.345   8.673   4.276
96693W        W65034   7.696  33.973   1.778
96694W        W65035  11.299  39.402  14.460
96695W        W65036   7.866  13.154  11.014
96696W        W65037  37.559  30.520   2.362
96697W        W65038  33.937  34.433   3.272
96698W        W65039   1.343  29.030   4.634
96699W        W65040  16.296   3.272  11.102
96700W        W65041   4.848  11.372   0.863
96701W        W65042  20.182  43.496  13.540
96702W        W65043  41.906  18.609  14.446
96703W        W65044  37.470  10.839   4.658
96704W        W65045   4.343   1.245   3.229
96705W        W65046  17.767  35.097  14.806
96706W        W65047  41.986  25.012  11.478
96707W        W65048  39.013   2.800   3.678
96708W        W65049   8.233  21.060   4.158
96709W        W65050  24.150  40.536  13.058
96710W        W65051  38.428   0.435  14.354
96711W        W65052   4.778   9.840  13.833
96712W        W65053  23.593  17.219  11.075
96713W        W65054   6.804  24.129   2.799
96714W        W65055   2.745  28.598   3.868
96715W        W65056  15.304  35.901   4.342
96716W        W65057  31.534  33.478  13.844
96717W        W65058   8.834  20.035  13.437
96718W        W65059  22.594  28.019   3.280
96719W        W65060  39.482  39.845  13.017
96720W        W65061   3.826  11.656  14.007
96721W        W65062  44.889   9.819   4.350
96722W        W65063   2.845  34.064   0.368
96723W        W65064   8.802  34.070   4.167
96724W        W65065  22.594  18.600  10.523
96725W        W65066  19.552  33.537  13.899
96726W        W65067  17.271   6.362  10.902
96727W        W65068  13.690  43.957   2.771
96728W        W65069  18.257   1.248  13.871
96729W        W65070   2.306   9.392  13.324
96730W        W65071  27.185   9.370   2.718
96731W        W65072  25.071   4.742  14.957
96732W        W65073   8.220  35.524   0.833
96733W        W65074  30.011  24.695   4.820
96734W        W65075  42.855  12.813  11.492
96735W        W65076   5.213  21.109  11.894
96736W        W65077   4.906  36.575  10.899
96737W        W65078   5.295  27.535   1.714
96738W        W65079  26.965  27.197   5.139
96739W        W65080  37.081  33.520  14.286
96740W        W65081  39.470  16.094   1.308
96741W        W65082  14.721  42.847   3.825
96742W        W65083  15.814  32.436   1.871
96743W        W65084  20.603  30.154   4.352
96744W        W65085   8.889  41.898   2.798
96745W        W65086  20.246  19.196   4.601
96746W        W65087  15.796  11.257   1.321
96747W        W65088  37.534  20.537   0.959
96748W        W65089  25.037  38.436   1.235
96749W        W65090  29.089   8.889   1.236
96750W        W65091  10.193  26.171  10.507
96751W        W65092   5.364  16.650   1.361
96752W        W65093  12.194  24.034   3.778
96753W        W65094  29.002   4.763   3.836
96754W        W65095  16.659  27.573  12.963
96755W        W65096  12.294  43.454   0.462
96756W        W65097  12.814  22.507  14.760
96757W        W65098  32.561  30.105   1.844
96758W        W65099  12.258  40.836   1.307
96759W        W65100  42.992  23.141  14.456
96760W        W65101  10.779   2.801   2.295
96761W        W65102   7.867  12.224   1.424
96762W        W65103  10.296   9.722   1.353
96763W        W65104  18.578  33.510  11.567
96764W        W65105  28.090  28.065  12.446
96765W        W65106  27.191  19.563   0.328
96766W        W65107  40.984  29.050  13.332
96767W        W65108   2.767  39.994   3.779
96768W        W65109  23.716  37.992  14.348
96769W        W65110  37.903   8.711   4.211
96770W        W65111   2.328  14.335  10.429
96771W        W65112  25.522   6.367   4.818
96772W        W65113  18.711   2.268  10.907
96773W        W65114   5.396  21.246  14.968
96774W        W65115   7.736   1.240   1.339
96775W        W65116   1.919  28.118   4.188
96776W        W65117  20.527  23.067   0.771
96777W        W65118  34.473  28.627   1.742
96778W        W65119  25.554  35.474   1.849
96779W        W65120   9.361  10.296  11.055
96780W        W65121  34.461  32.070   4.139
96781W        W65122  23.158  18.790  12.500
96782W        W65123   7.176  15.775   2.817
96783W        W65124  42.322   1.785   0.281
96784W        W65125  32.120  20.197   4.290
96785W        W65126  41.945   4.758  12.418
96786W        W65127  13.764   2.278  11.888
96787W        W65128  35.956  25.713  10.906
96788W        W65129  22.214  28.038  11.592
96789W        W65130  11.292   1.259   4.226
96790W        W65131   8.255  11.671   2.867
96791W        W65132   9.320  43.403  11.105
96792W        W65133   1.277  11.652   3.353
96793W        W65134  37.396  25.191  10.618
96794W        W65135  18.739  21.678   2.401
96795W        W65136   3.739  15.236   2.810
96796W        W65137  12.146  19.125   0.875
96797W        W65138  20.095  25.165  11.520
96798W        W65139   1.392  27.967  12.000
96799W        W65140  28.564  36.955   0.461
96800W        W65141   1.251  41.824  13.933
96801W        W65142  32.057   8.786   1.880
96802W        W65143  12.657  34.405  14.450
96803W        W65144  12.334  21.668  13.042
96804W        W65145  24.145  36.396   2.793
96805W        W65146  29.132  35.531  12.362
96806W        W65147  40.520  43.767   1.714
96807W        W65148  13.656  30.029   1.393
96808W        W65149  24.168  16.660  14.952
96809W        W65150  40.877  31.936   2.710
96810W        W65151   5.205  40.517  13.061
96811W        W65152  18.675   8.173  13.476
96812W        W65153  14.814  13.215   4.682
96813W        W65154  30.004   2.441  12.900
96814W        W65155  43.851  25.629  12.520
96815W        W65156   6.377  30.944  11.933
96816W        W65157  23.608   5.819  10.985
96817W        W65158  34.451  40.384   5.132
96818W        W65159  24.980   3.895  10.605
96819W        W65160  38.511  10.195  12.930
96820W        W65161  29.512  35.936   0.844
96821W        W65162  26.628  35.414   2.833
96822W        W65163  10.381  25.669   3.729
96823W        W65164   4.839  11.691   2.849
96824W        W65165  38.897  40.858  13.502
96825W        W65166   0.311  41.914   0.459
96826W        W65167  36.521  12.843  11.591
96827W        W65168  36.460  40.320   0.409
96828W        W65169  23.234  38.462   1.876
96829W        W65170   5.745  31.921   4.674
96830W        W65171  24.537  29.926   3.856
96831W        W65172   0.463   3.358   0.351
96832W        W65173  26.122  29.140  10.443
96833W        W65174  21.148  10.788  11.069
96834W        W65175  11.207  24.507  14.938
96835W        W65176  18.636  18.711   2.851
96836W        W65177  14.614   9.654  12.829
96837W        W65178  31.622  24.556  11.964
96838W        W65179  30.534  35.556  10.591
96839W        W65180  18.637   4.746  10.115
96840W        W65181  13.684  34.372  12.937
96841W        W65182  21.679   9.216   0.439
96842W        W65183  13.843   8.325  10.582
96843W        W65184   5.792  37.447  10.451
96844W        W65185   7.801  40.829  14.921
96845W        W65186  21.254   0.332   1.797
96846W        W65187  27.196  24.543  14.987
96847W        W65188  42.867  32.048   3.369
96848W        W65189  37.929  31.063  12.826
96849W        W65190  40.846  26.091  13.502
96850W        W65191  33.896  18.080  10.948
96851W        W65192  18.587  29.468   0.842
96852W        W65193   8.824  38.555  11.991
96853W        W65194  31.601  37.374   4.682
96854W        W65195  31.471  42.980  11.582
96855W        W65196   4.251  22.521  12.987
96856W        W65197  16.113  27.134  12.984
96857W        W65198  35.984   2.846  10.509
96858W        W65199  42.878  28.942  10.405
96859W        W65200  26.209  30.157   1.231
96860W        W65201  16.667  29.656   4.183
96861W        W65202  33.544  38.872   4.251
96862W        W65203  27.468  21.171  11.539
96863W        W65204   3.363  22.106   4.342
96864W        W65205  32.530  37.571   4.165
96865W        W65206  37.534   6.739   0.264
96866W        W65207  25.002  16.690  14.959
96867W        W65208  36.922  40.481  14.408
96868W        W65209   9.645  26.481   2.282
96869W        W65210  27.019  13.158  10.081
96870W        W65211  14.762  30.415  10.078
96871W        W65212  22.665  15.780  11.375
96872W        W65213  42.024  14.756   1.287
96873W        W65214  39.818  11.373   4.838
96874W        W65215  21.024   6.900   1.362
96875W        W65216  25.532  11.316  11.899
96876W        W65217  40.394  22.045  11.077
96877W        W65218   2.357  34.944   4.801
96878W        W65219  31.944   3.847   1.845
96879W        W65220   7.245  22.651   3.327
96880W        W65221  31.976   0.440   3.712
96881W        W65222  15.199  17.098   4.708
96882W        W65223  20.265  38.553  11.466
96883W        W65224   4.391  29.425   2.802
96884W        W65225  42.863   6.893   3.256
96885W        W65226   0.914  29.952   1.214
96886W        W65227  14.710  41.449   4.138
96887W        W65228  44.455  42.819  10.011
96888W        W65229  16.767  24.011   5.301
96889W        W65230  21.219  19.245   0.300
96890W        W65231  17.236   7.399   3.715
96891W        W65232  24.637  39.376  13.847
96892W        W65233  21.103  18.763  14.420
96893W        W65234  42.920  41.999   2.847
96894W        W65235  39.957  34.055  11.407
96895W        W65236  31.908  36.360  11.396
96896W        W65237  27.991   3.921   4.173
96897W        W65238  13.713  18.220  11.071
96898W        W65239  40.410  42.487   3.738
96899W        W65240  27.038  12.147   4.630
96900W        W65241   3.368  35.941  14.948
96901W        W65242   7.908   3.843  10.984
96902W        W65243  15.291  37.453   0.864
96903W        W65244  31.049  39.942   2.815
96904W        W65245  14.668  21.017   2.672
96905W        W65246  23.553  23.085  14.323
96906W        W65247  21.667  14.142   4.326
96907W        W65248  39.827  15.191   3.382
96908W        W65249  16.602  39.001   0.480
96909W        W65250   1.422   7.761  14.505
96910W        W65251  34.495  13.620  11.405
96911W        W65252  11.679  44.258  12.864
96912W        W65253  17.729  33.587   1.434
96913W        W65254  19.175   7.822   2.192
96914W        W65255  28.026  17.793  12.468
96915W        W65256  22.556  27.022   2.893
96916W        W65257  15.203  44.851  11.400
96917W        W65258   0.393  19.698   2.222
96918W        W65259  25.129   5.253   2.696
96919W        W65260   2.428   7.812  13.512
96920W        W65261  39.947  12.712  13.524
96921W        W65262  13.659  35.009  11.936
96922W        W65263  10.193  25.089   0.447
96923W        W65264  42.780  39.889  14.386
96924W        W65265  21.263  13.650  12.479
96925W        W65266   8.253  16.161   3.824
96926W        W65267   8.730  13.783  13.515
96927W        W65268  39.873  29.144   2.667
96928W        W65269  24.057   4.300   3.685
96929W        W65270  27.124  35.991  12.082
96930W        W65271  34.965  24.480   0.402
96931W        W65272  14.793   9.685   0.848
96932W        W65273  15.648  28.025  12.883
96933W        W65274  33.980  22.064   2.825
96934W        W65275  43.808  26.077  12.930
96935W        W65276  25.213   9.161  13.408
96936W        W65277  26.693  32.937   0.354
96937W        W65278  14.745  12.853   0.363
96938W        W65279  40.859   3.888  13.506
96939W        W65280  37.919   0.966  14.431
96940W        W65281  31.487  25.700   2.871
96941W        W65282   3.936  25.012   0.848
96942W        W65283   0.905  29.056   9.970
96943W        W65284  33.461  20.248  11.951
96944W        W65285   8.218  33.903  13.000
96945W        W65286  40.518   4.891  11.042
96946W        W65287  10.153  41.504  13.352
96947W        W65288  10.338   3.799  14.388
96948W        W65289  14.714  17.277   1.839
96949W        W65290  41.476  18.129  10.407
96950W        W65291  30.488  21.665  11.880
96951W        W65292  41.449  23.215  10.912
96952W        W65293  21.725  14.198   1.382
96953W        W65294  22.035  29.465  12.988
96954W        W65295  19.213  39.878  13.885
96955W        W65296  26.539  40.314  12.910
96956W        W65297  21.515  31.126  10.969
96957W        W65298  41.530  10.185   0.461
96958W        W65299  13.196  33.520  14.310
96959W        W65300  14.117   4.365  10.961
96960W        W65301  43.425  17.279  10.597
96961W        W65302   7.669  20.765   1.398
96962W        W65303  40.354  24.613  14.024
96963W        W65304  21.754  16.225   0.726
96964W        W65305  24.045  25.046   4.333
96965W        W65306  17.216  42.453  10.489
96966W        W65307  37.465   8.881   1.246
96967W        W65308  19.694  43.488  10.515
96968W        W65309  40.508   1.951   2.307
96969W        W65310  43.397  11.271  11.085
96970W        W65311  13.617  11.700   2.881
96971W        W65312  19.042  26.656  10.905
96972W        W65313   6.410  15.280  10.475
96973W        W65314   2.800  18.234   4.814
96974W        W65315  36.902  26.628  13.372
96975W        W65316  43.948  40.990  14.468
96976W        W65317   8.679  31.497  13.003
96977W        W65318  44.401  37.505   3.678
96978W        W65319  16.196  27.579   0.898
96979W        W65320  12.714  11.304  12.041
96980W        W65321  15.743   1.948  13.028
96981W        W65322  11.624  15.718  14.817
96982W        W65323  42.869   3.424  14.340
96983W        W65324  31.995  24.200  12.888
96984W        W65325  29.046  43.469   3.282
96985W        W65326   4.739  35.869   4.615
96986W        W65327  25.027  30.934  10.461
96987W        W65328  22.114  17.263  14.334
96988W        W65329  26.183  28.518  13.859
96989W        W65330   8.391  39.524   3.828
96990W        W65331   4.421   6.308  14.371
96991W        W65332  23.642  44.757   0.405
96992W        W65333   9.152  15.299   2.844
96993W        W65334  19.572  24.705  13.886
96994W        W65335   9.849  24.688   3.215
96995W        W65336   5.862   4.253  13.828
96996W        W65337  26.980  10.751  14.312
96997W        W65338   6.900  14.144   3.817
96998W        W65339  27.187   8.748   4.304
96999W        W65340  35.531  42.898   2.418
97000W        W65341  25.157  24.054   0.908
97001W        W65342  18.786  27.509   1.791
97002W        W65343  12.617   2.925   3.756
97003W        W65344   7.743  19.577  12.037
97004W        W65345  43.395  29.960  14.407
97005W        W65346  33.563  27.025  13.417
97006W        W65347  12.313   2.788  13.367
97007W        W65348  15.249  10.732  11.007
97008W        W65349  20.134   9.739  11.890
97009W        W65350  24.980  40.313  10.600
97010W        W65351  21.512  22.633   3.708
97011W        W65352  41.981  16.614  11.075
97012W        W65353  31.091   8.283  11.034
97013W        W65354  22.997  19.672  12.340
97014W        W65355   2.240  32.082  12.902
97015W        W65356  39.828   3.810   2.870
97016W        W65357  13.810  29.561   1.332
97017W        W65358   9.242  44.947  11.378
97018W        W65359  34.967  32.977  12.414
97019W        W65360  43.318   4.269  14.479
97020W        W65361   5.325   8.161   2.771
97021W        W65362  43.510  33.412   0.964
97022W        W65363  31.084  27.047  13.021
97023W        W65364  12.693  44.996   3.787
97024W        W65365  27.149  30.976   3.634
97025W        W65366   1.823  40.825  10.993
97026W        W65367  22.141  17.087   0.465
97027W        W65368  26.969  15.183   1.354
97028W        W65369  35.014  44.449   1.908
97029W        W65370  15.723  21.074  13.522
97030W        W65371   9.346  11.138  13.377
97031W        W65372  22.152  36.935   2.895
97032W        W65373   8.809  42.363  10.528
97033W        W65374  28.491  39.333  11.604
97034W        W65375   6.790  28.067   0.872
97035W        W65376  43.002  43.483  11.391
97036W        W65377  23.638  16.137   0.844
97037W        W65378  40.479  20.096  13.521
97038W        W65379  42.985  23.700  13.357
97039W        W65380   1.887   4.807   4.767
97040W        W65381  20.046   9.656   1.344
97041W        W65382  15.607  14.802   0.277
97042W        W65383  15.585   4.325   4.189
97043W        W65384  40.853  17.672  14.976
97044W        W65385  44.887   5.888   2.668
97045W        W65386   9.757   8.259  11.880
97046W        W65387  33.078   9.360  13.014
97047W        W65388  15.615  40.490  12.859
97048W        W65389  19.647  14.673   0.941
97049W        W65390  13.772  21.672   4.299
97050W        W65391  38.398  26.586   2.831
97051W        W65392  34.938  28.060   2.221
97052W        W65393  29.572  44.989   2.205
97053W        W65394  42.404   2.456  10.592
97054W        W65395  30.024   7.390   4.343
97055W        W65396   2.470  42.480   0.737
97056W        W65397  11.792   7.252   0.879
97057W        W65398  37.435  34.918   5.202
97058W        W65399  31.629  43.882   2.767
97059W        W65400  29.989  30.134   2.393
97060W        W65401  35.920  17.775  13.483
97061W        W65402  20.045  36.978  12.975
97062W        W65403  26.482  21.557   0.403
97063W        W65404  31.526  31.007  11.489
97064W        W65405  17.717  36.017  12.980
97065W        W65406  44.793  25.606   3.282
97066W        W65407   7.361  17.742   0.281
97067W        W65408  12.629  18.591   4.819
97068W        W65409  32.964  21.063  13.517
97069W        W65410  14.228  30.987   4.686
97070W        W65411  10.164   7.895  13.374
97071W        W65412  39.416  23.166  11.574
97072W        W65413  35.556   4.219  12.359
97073W        W65414  33.472  22.050   3.656
97074W        W65415  42.009   4.711   0.420
97075W        W65416  35.419  39.327   4.809
97076W        W65417  37.341  19.661  13.841
97077W        W65418  33.900  13.149  12.088
97078W        W65419  44.416   0.319  12.070
97079W        W65420  19.152   4.359  11.461
97080W        W65421  17.152   3.841  10.434
97081W        W65422  11.820  26.151  11.526
97082W        W65423  35.368  35.965  14.865
97083W        W65424  16.729   3.331   3.319
97084W        W65425   3.760  37.534  11.513
97085W        W65426  38.546  14.591   4.824
97086W        W65427  32.422  17.279   0.843
97087W        W65428  40.031  14.819  10.967
97088W        W65429  21.671  24.105  13.351
97089W        W65430  15.133  13.677  13.329
97090W        W65431   4.919  31.425   3.371
97091W        W65432  19.102   6.827  13.433
97092W        W65433   1.731  24.125  13.451
97093W        W65434  21.602  11.859  11.445
97094W        W65435  11.675  39.474  14.360
97095W        W65436  27.164  18.250   5.193
97096W        W65437  39.810  43.931   3.720
97097W        W65438   0.430  21.732   0.864
97098W        W65439  20.168  14.636  14.890
97099W        W65440  27.996  41.422   4.322
97100W        W65441   0.905  26.581   4.612
97101W        W65442  41.846  36.909  11.504
97102W        W65443  14.266  44.867  12.411
97103W        W65444  28.532  43.283   2.863
97104W        W65445  30.959  43.967  14.414
97105W        W65446  23.218  26.160   2.260
97106W        W65447  16.133   5.920   1.743
97107W        W65448   6.751  17.157  13.887
97108W        W65449  12.747  16.810  12.920
97109W        W65450  21.120  15.132   2.406
97110W        W65451  14.186  39.391  12.927
97111W        W65452  35.539  28.079  12.388
97112W        W65453   5.844  24.725   2.353
97113W        W65454  28.091  22.076   3.784
97114W        W65455   6.425  23.574  10.573
97115W        W65456   2.953   8.689   1.780
97116W        W65457  18.698   1.749  12.373
97117W        W65458  16.570  38.957  14.998
97118W        W65459  23.539  28.621  14.970
97119W        W65460   6.358  21.621  10.467
97120W        W65461  34.014  20.221   3.753
97121W        W65462  15.324  42.280  13.808
97122W        W65463  10.742  42.820  14.373
97123W        W65464  23.235  16.129   3.701
97124W        W65465  27.545  29.954   4.804
97125W        W65466  18.787  35.374   1.310
97126W        W65467   3.766  18.652  10.587
97127W        W65468  22.675   5.741  10.137
97128W        W65469  40.959  13.676  11.519
97129W        W65470  27.134   2.357  14.360
97130W        W65471  41.366  38.557  12.347
97131W        W65472  27.527  36.401  14.917
97132W        W65473  37.053   3.820  11.065
97133W        W65474  40.365  27.616  14.456
97134W        W65475  28.574  17.680   1.396
97135W        W65476  38.847  19.616  13.856
97136W        W65477  36.486   0.376  10.064
97137W        W65478  35.051  18.272  10.637
97138W        W65479   7.282  11.630   1.827
97139W        W65480  28.611   2.801   2.332
97140W        W65481  28.936  28.548  12.941
97141W        W65482  21.086  15.578  11.118
97142W        W65483  26.167  22.162   4.720
97143W        W65484  12.312  30.542  13.012
97144W        W65485   1.776   7.826  14.449
97145W        W65486  36.039  26.084   0.898
97146W        W65487  37.502   1.386   1.268
97147W        W65488  19.242  26.525   0.740
97148W        W65489  14.605  15.143  14.840
97149W        W65490  41.867  32.625  11.399
97150W        W65491  19.052  17.715   2.307
97151W        W65492   2.270  15.817   0.801
97152W        W65493  12.636  21.720   1.211
97153W        W65494   8.868  43.782  12.083
97154W        W65495  17.665   7.849  14.847
97155W        W65496  24.603   7.337   2.741
97156W        W65497  15.189  35.041   4.230
97157W        W65498  28.596  24.658  11.974
97158W        W65499  35.540  36.442  11.481
97159W        W65500  38.529  10.835  12.457
97160W        W65501  23.528   2.390   2.668
97161W        W65502  17.783   3.903   1.917
97162W        W65503  31.445  37.498   1.875
97163W        W65504  17.643   1.430  14.936
97164W        W65505   7.906  31.534   0.392
97165W        W65506  24.081   5.822  14.409
97166W        W65507  40.886  37.364  11.591
97167W        W65508   7.847  15.800  13.437
97168W        W65509  37.580  20.209  11.058
97169W        W65510  36.906  30.456   0.479
97170W        W65511  11.315   0.438   1.861
97171W        W65512   5.302   0.886  12.905
97172W        W65513  25.492   7.256  13.420
97173W        W65514   6.353   0.374   1.363
97174W        W65515   2.814  17.173   2.357
97175W        W65516  11.342  34.876  13.316
97176W        W65517  26.114  37.024  14.914
97177W        W65518  18.267  15.630   4.786
97178W        W65519  33.970  32.970   1.264
97179W        W65520  14.212  31.907   3.294
97180W        W65521  31.138   7.207  12.564
97181W        W65522  20.095   7.737  13.993
97182W        W65523  38.060  21.201  13.013
97183W        W65524  44.802  21.151   4.168
97184W        W65525   9.817  31.041  14.793
97185W        W65526  17.084  40.828  11.024
97186W        W65527  21.244   6.233   2.728
97187W        W65528  31.992   0.866  14.925
97188W        W65529  30.489   6.427  10.469
97189W        W65530  42.291  26.468  14.505
97190W        W65531   9.384  24.604   3.359
97191W        W65532  42.293  26.541  11.374
97192W        W65533  22.165  35.449  13.973
97193W        W65534   5.767  27.646  13.441
97194W        W65535  13.328  30.419  14.946
97195W        W65536  13.810  11.293   2.184
97196W        W65537  40.534  15.216  11.544
97197W        W65538  28.478   2.771  14.347
97198W        W65539  16.641  40.444  14.964
97199W        W65540   5.827  23.649   4.623
97200W        W65541  26.472  44.338   0.874
97201W        W65542  19.749  11.159  11.537
97202W        W65543  14.122  27.990  12.978
97203W        W65544  19.247   9.373   1.829
97204W        W65545  26.086  18.167   2.186
97205W        W65546  34.452   9.685   3.324
97206W        W65547   8.733  30.622  13.390
97207W        W65548  20.047  26.967  14.474
97208W        W65549  27.455   5.224   1.880
97209W        W65550  16.190  17.307  12.861
97210W        W65551  37.341  15.286   2.419
97211W        W65552  17.141   8.296   4.674
97212W        W65553   2.355  21.633  14.993
97213W        W65554  27.130   2.442  10.550
97214W        W65555  19.742  20.704  10.915
97215W        W65556  26.644  18.715  14.822
97216W        W65557  17.771  41.953  12.020
97217W        W65558  22.618   7.376  12.556
97218W        W65559  24.593   9.154  13.802
97219W        W65560  12.270  29.990  11.566
97220W        W65561   4.720  37.572   2.843
97221W        W65562   1.918   1.887   3.855
97222W        W65563   4.387   5.886  11.400
97223W        W65564  36.537  28.613   1.748
97224W        W65565  12.653  39.321   1.718
97225W        W65566  38.361  22.648   2.257
97226W        W65567  44.374  11.234   1.324
97227W        W65568  23.194  23.217   0.422
97228W        W65569  44.822   7.294   3.185
97229W        W65570   3.326  30.999  12.980
97230W        W65571  16.257  31.017   0.431
97231W        W65572  43.330  40.359   2.278
97232W        W65573  13.797  21.729  12.539
97233W        W65574  43.895  43.850   3.231
97234W        W65575  30.949  34.961   0.285
97235W        W65576  23.575  26.142   0.382
97236W        W65577  38.011  12.827  12.022
97237W        W65578  32.625  13.690  10.515
97238W        W65579  43.848  40.505   4.290
97239W        W65580  33.387  16.704  12.357
97240W        W65581   1.928   7.860  13.043
97241W        W65582   2.883   5.365  10.461
97242W        W65583   3.457  27.162   2.851
97243W        W65584   6.211  14.226   4.220
97244W        W65585  10.254  38.013   3.737
97245W        W65586  22.097  12.768   4.663
97246W        W65587  42.864  33.901  14.431
97247W        W65588  33.614  28.569   0.411
97248W        W65589  42.441  41.392  12.503
97249W        W65590  15.779  26.165   4.259
97250W        W65591  39.483  37.512  14.367
97251W        W65592   1.461  22.117  14.960
97252W        W65593   9.224  21.077  13.442
97253W        W65594  40.849  25.040   4.163
97254W        W65595  10.329   1.328   4.289
97255W        W65596  43.456   3.811   3.708
97256W        W65597  13.125  44.896   4.671
97257W        W65598  15.721   7.401   2.731
97258W        W65599  22.614  15.810   1.859
97259W        W65600  20.220   1.288   2.710
97260W        W65601  24.112  37.443  13.370
97261W        W65602  23.574   3.892  14.953
97262W        W65603   2.415  10.378  13.398
97263W        W65604  27.552  40.475  10.421
97264W        W65605  12.249   1.403   3.867
97265W        W65606  22.106  14.660  11.114
97266W        W65607  26.639  42.523  12.864
97267W        W65608  19.714  25.148   4.721
97268W        W65609  31.029  10.330   1.359
97269W        W65610  22.639  25.111  10.428
97270W        W65611  20.113   9.831   4.225
97271W        W65612  32.039  13.321   3.150
97272W        W65613  24.212  36.472  12.442
97273W        W65614  31.556  28.524   3.635
97274W        W65615  10.835  24.487   0.758
97275W        W65616  16.298  16.631   0.875
97276W        W65617  33.609   2.447  12.501
97277W        W65618  18.648  17.574   2.794
97278W        W65619  29.548  35.442  12.861
97279W        W65620   6.889  40.362   0.357
97280W        W65621  43.785  17.061  13.976
97281W        W65622  42.965  44.476   3.710
97282W        W65623  21.124  35.941  13.390
97283W        W65624  12.292  43.904  13.487
97284W        W65625  15.117  10.813   4.716
97285W        W65626   3.335  17.267  10.561
97286W        W65627   5.759  22.036  12.980
97287W        W65628   8.277   4.776   2.191
97288W        W65629  16.288  25.497   0.731
97289W        W65630  18.665  41.038  13.445
97290W        W65631   6.706  14.146   4.652
97291W        W65632  32.535  21.563   2.792
97292W        W65633   9.156  38.496   2.766
97293W        W65634  27.983  22.717   0.858
97294W        W65635  43.290  17.294   3.214
97295W        W65636   0.255  29.034   2.227
97296W        W65637  43.350   6.326  11.549
97297W        W65638  42.992   0.280  14.511
97298W        W65639  13.662  24.991   0.267
97299W        W65640  29.153   0.780   4.160
97300W        W65641  11.246   5.934  13.849
97301W        W65642  38.963   4.252  11.918
97302W        W65643  14.154  35.525   1.265
97303W        W65644  30.531  41.302   3.246
97304W        W65645   6.196   7.360  13.866
97305W        W65646  13.788  44.987   1.409
97306W        W65647  25.006  34.886   1.310
97307W        W65648   3.459  22.620  12.084
97308W        W65649   1.238  35.983   1.358
97309W        W65650   7.397  26.145  11.889
97310W        W65651   5.269  27.962  10.409
97311W        W65652  21.230   9.237  11.377
97312W        W65653  32.905  37.962   2.400
97313W        W65654  25.150  27.000   3.228
97314W        W65655  14.831  31.149  11.868
97315W        W65656   5.345  22.184  11.086
97316W        W65657  25.127  16.152   2.344
97317W        W65658  30.440  24.101  14.468
97318W        W65659  40.811  32.899   0.478
97319W        W65660  43.443  39.821  12.454
97320W        W65661  34.420  20.589  10.991
97321W        W65662  35.394  20.538  14.320
97322W        W65663  20.554  27.993   4.144
97323W        W65664  10.764  40.806  11.512
97324W        W65665   8.741  32.048   3.267
97325W        W65666   8.713  22.550   0.767
97326W        W65667   3.246  37.568  12.852
97327W        W65668   3.434   4.736  13.035
97328W        W65669  24.504  23.733  13.983
97329W        W65670  42.328  25.620   4.274
97330W        W65671  20.274  10.344   1.352
97331W        W65672  32.110  30.645  10.623
97332W        W65673  14.309  15.108  11.959
97333W        W65674   2.752  23.000  13.061
97334W        W65675  38.829   0.864   3.208
97335W        W65676  25.680  20.089  12.844
97336W        W65677   5.867   9.873  11.103
97337W        W65678  13.292   2.249  11.517
97338W        W65679   0.794  39.047   9.951
97339W        W65680   1.808   6.856   0.839
97340W        W65681  10.144  26.539   1.268
97341W        W65682  37.501   3.850   2.192
97342W        W65683  14.694   8.321   0.476
97343W        W65684  28.011  11.769   2.178
97344W        W65685  25.985  17.256   2.402
97345W        W65686  36.861  27.168   3.783
97346W        W65687  32.499   8.353   3.194
97347W        W65688   5.769  13.778  14.335
97348W        W65689  11.154  39.963   0.341
97349W        W65690  19.716  32.514   0.451
97350W        W65691  31.896  32.467  11.382
97351W        W65692   8.708  32.437  13.357
97352W        W65693  16.308   5.768  12.826
97353W        W65694  37.014  24.975   2.855
97354W        W65695  16.306  44.004   3.263
97355W        W65696  22.507   5.220   2.811
97356W        W65697  21.059  12.709  11.907
97357W        W65698  42.367  17.601  14.884
97358W        W65699  32.977   0.909   4.668
97359W        W65700  41.912  40.844   1.214
97360W        W65701  36.082  26.695   3.661
97361W        W65702  20.526  16.709  10.959
97362W        W65703   4.797  20.088  14.946
97363W        W65704  16.756  40.353  11.073
97364W        W65705  16.787   7.754  11.597
97365W        W65706  16.700  36.949   3.343
97366W        W65707  16.683  25.011  14.923
97367W        W65708   5.219  37.915  13.840
97368W        W65709  40.871  44.269  14.510
97369W        W65710  13.190  41.334  14.822
97370W        W65711  16.791  35.358   2.390
97371W        W65712  28.034  33.086  13.486
97372W        W65713  28.166  39.531  14.874
97373W        W65714  42.929  10.305   4.268
97374W        W65715  43.783   6.789  11.599
97375W        W65716  23.992  41.484   4.710
97376W        W65717   9.375  44.884   2.712
97377W        W65718  27.521  36.906   4.695
97378W        W65719  17.238  17.617   4.283
97379W        W65720  29.042  17.215  11.468
97380W        W65721  23.613   5.784  13.833
97381W        W65722  36.520  30.921  11.480
97382W        W65723  11.329  17.678   3.732
97383W        W65724  33.524   9.288  12.967
97384W        W65725  27.630  31.505   0.791
97385W        W65726  43.796  28.966   4.141
97386W        W65727  30.638  21.235  11.512
97387W        W65728   1.969  24.703  13.475
97388W        W65729  15.792  18.223  11.577
97389W        W65730  34.952   1.337  13.984
97390W        W65731  42.322  25.557  12.086
97391W        W65732  23.107  31.515   4.775
97392W        W65733   3.900  43.880  14.928
97393W        W65734  14.307   0.985   4.266
97394W        W65735   6.407  44.398   3.198
97395W        W65736   7.729  27.182  12.073
97396W        W65737  26.096  33.404   1.279
97397W        W65738  27.955  16.287  14.422
97398W        W65739   4.761  15.611  10.939
97399W        W65740  32.531  28.620  12.881
97400W        W65741  43.768  41.002  13.504
97401W        W65742  37.849   8.334  12.362
97402W        W65743  21.695  33.095  12.347
97403W        W65744   8.251  15.260   3.741
97404W        W65745  41.342  44.426   4.680
97405W        W65746  43.953  39.531  14.371
97406W        W65747  26.113   2.764   2.315
97407W        W65748   3.821  36.869   1.317
97408W        W65749  16.278  20.105   1.702
97409W        W65750   4.733   2.764   2.777
97410W        W65751  44.918  28.040   4.126
97411W        W65752   7.315   8.354  11.548
97412W        W65753  30.640  19.102  14.978
97413W        W65754   1.888  11.203  10.997
97414W        W65755  31.093  23.584   3.634
97415W        W65756  44.296  10.236  10.581
97416W        W65757  11.260  11.355  14.998
97417W        W65758  12.856   1.857  11.862
97418W        W65759  24.480   8.880  13.052
97419W        W65760  22.719  30.077   2.404
97420W        W65761  13.693  12.716   4.347
97421W        W65762   1.977  23.165  12.574
97422W        W65763  29.503  11.295   2.391
97423W        W65764   8.832  20.735  11.044
97424W        W65765  38.431  32.571   3.345
97425W        W65766   0.413  26.620   4.265
97426W        W65767  12.119  18.217  12.393
97427W        W65768   1.265  17.102  14.448
97428W        W65769   7.240  17.798  11.113
97429W        W65770  42.844  35.903   3.243
97430W        W65771   8.283   4.790   4.192
97431W        W65772   4.782  42.855  12.518
97432W        W65773  30.539  17.233  11.062
97433W        W65774  19.128  23.709  14.358
97434W        W65775  32.558  31.440   1.696
97435W        W65776  37.536  36.865   2.411
97436W        W65777  13.330   8.819  10.436
97437W        W65778   3.710   0.366  13.848
97438W        W65779  30.492   2.766  12.060
97439W        W65780  33.930  16.569   1.398
97440W        W65781   8.404  30.413  10.415
97441W        W65782  28.969   8.811   3.839
97442W        W65783  30.117  33.510   3.774
97443W        W65784  31.550  39.331  12.469
97444W        W65785  13.321  39.333  12.081
97445W        W65786  42.865  34.502   4.794
97446W        W65787  40.003  19.539   1.862
97447W        W65788  39.982  29.171   0.956
97448W        W65789  31.973  28.076  10.950
97449W        W65790  15.614  40.309  14.390
97450W        W65791  36.005   1.415   4.814
97451W        W65792  34.967   5.336   2.693
97452W        W65793  37.436  14.595   2.306
97453W        W65794  15.737  16.582   4.629
97454W        W65795  23.584  13.117  12.579
97455W        W65796  28.474   0.457  12.831
97456W        W65797  16.188  23.559  13.962
97457W        W65798  36.411  31.143   1.219
97458W        W65799  33.893  19.617  10.941
97459W        W65800  38.023  31.105  10.529
97460W        W65801  22.117  35.363   4.656
97461W        W65802  35.932  18.650   2.283
97462W        W65803  33.921  21.140  14.301
97463W        W65804  24.479  26.161  11.434
97464W        W65805  41.851  30.059  12.937
97465W        W65806  32.911  22.525   1.258
97466W        W65807  16.811  15.244   4.130
97467W        W65808  42.416  26.584   2.326
97468W        W65809   6.377   4.423  12.941
97469W        W65810   0.464   5.395   0.474
97470W        W65811  33.435  27.104  11.097
97471W        W65812  38.944   4.864  10.600
97472W        W65813  43.286  18.244  12.427
97473W        W65814  34.087  15.586   3.867
97474W        W65815  28.020  38.933  11.534
97475W        W65816  44.300  29.153   0.264
97476W        W65817  39.864  25.699   2.866
97477W        W65818  24.492  25.117  12.471
97478W        W65819  33.383  34.605  11.478
97479W        W65820   0.899  41.787   0.428
97480W        W65821  23.509  20.270   3.663
97481W        W65822  34.957  33.930   0.425
97482W        W65823  44.795  30.456  12.956
97483W        W65824  30.526   6.269  12.510
97484W        W65825  26.600  15.095   1.713
97485W        W65826  12.747   3.423   2.334
97486W        W65827  10.643  38.496   1.387
97487W        W65828  39.455   9.369   4.726
97488W        W65829  20.711  39.872   1.341
97489W        W65830  11.352   7.801  13.503
97490W        W65831  11.649  37.932  14.467
97491W        W65832   6.242   3.369   2.248
97492W        W65833  12.290  24.126  14.297
97493W        W65834  43.978  34.078   0.371
97494W        W65835  20.269  10.772   4.126
97495W        W65836  34.030  28.100   0.780
97496W        W65837  36.932  33.969   1.315
97497W        W65838  17.106  31.966   0.863
97498W        W65839  24.220  43.433   0.271
97499W        W65840  35.094  26.138  14.806
97500W        W65841   1.455  36.035   0.340
97501W        W65842  35.445  23.630   0.760
97502W        W65843  18.623  23.049   5.795
97503W        W65844  25.034  28.672  10.408
97504W        W65845  33.074   2.466  11.040
97505W        W65846  28.645   0.827   4.774
97506W        W65847  43.783  13.297   4.123
97507W        W65848  36.475  27.959   0.429
97508W        W65849   3.745  20.082   4.600
97509W        W65850  29.450  16.762   1.806
97510W        W65851  32.035   9.836  13.933
97511W        W65852  37.374   5.401   2.885
97512W        W65853  32.428  13.221  11.404
97513W        W65854   0.462  10.813   2.742
97514W        W65855  25.192  43.317   0.297
97515W        W65856  10.799   4.738   3.277
97516W        W65857  10.804  26.680  12.940
97517W        W65858  32.901  22.053   4.645
97518W        W65859  32.016  30.445  14.811
97519W        W65860   4.339   4.298  13.324
97520W        W65861  37.382  28.514   3.224
97521W        W65862  23.619  32.594   0.391
97522W        W65863  40.390  37.038   1.735
97523W        W65864  42.016  31.609  13.050
97524W        W65865  36.848  36.384   0.944
97525W        W65866  17.684   9.759  11.953
97526W        W65867  23.604  41.407  12.891
97527W        W65868  35.430  14.226   3.184
97528W        W65869  31.457  30.577   3.179
97529W        W65870  19.699  18.759  10.474
97530W        W65871  14.642   0.262   1.729
97531W        W65872  40.933  39.560  13.370
97532W        W65873  21.567  43.433   2.842
97533W        W65874  44.351  41.315  13.856
97534W        W65875  20.670   3.782  14.484
97535W        W65876   3.783  38.870  11.534
97536W        W65877  23.189  13.655   4.797
97537W        W65878  13.164  42.803   3.146
97538W        W65879  36.465   5.735   3.291
97539W        W65880   0.436  43.915  13.966
97540W        W65881   4.708  24.679   5.224
97541W        W65882  43.924   7.254  10.535
97542W        W65883  28.593  32.634   4.650
97543W        W65884  39.926  31.500  12.550
97544W        W65885   1.321  34.088   1.791
97545W        W65886   2.915  35.933  13.889
97546W        W65887  40.517  43.905  13.519
97547W        W65888  11.856  12.116  11.944
97548W        W65889  15.144  43.851  13.827
97549W        W65890  13.136  29.614  10.460
97550W        W65891  14.680   4.387   3.761
97551W        W65892   7.234  17.637  14.419
97552W        W65893   9.886  14.627   0.443
97553W        W65894  35.861  44.341   4.170
97554W        W65895  31.429  12.761   4.299
97555W        W65896   0.393  42.358  12.564
97556W        W65897  38.396  24.718   4.277
97557W        W65898  37.407  13.111   1.374
97558W        W65899  12.276   8.668  13.308
97559W        W65900  42.468  43.441  14.808
97560W        W65901   7.731  12.615  14.831
97561W        W65902   6.325  37.047   1.430
97562W        W65903  28.581  12.128  12.463
97563W        W65904  36.851  35.470   1.846
97564W        W65905  20.149  24.026  14.882
97565W        W65906  19.648  31.405   4.656
97566W        W65907  38.434   4.296   0.904
97567W        W65908  33.130   4.872  13.478
97568W        W65909   1.911  30.026   4.726
97569W        W65910   3.775  28.028   2.673
97570W        W65911  28.935  22.693  12.961
97571W        W65912  20.686  33.953  11.106
97572W        W65913   6.836   2.802   2.417
97573W        W65914  18.094  24.034   1.703
97574W        W65915  36.479  33.410  11.445
97575W        W65916   9.270  36.569   2.316
97576W        W65917   1.292  20.724  13.052
97577W        W65918  11.207   3.812   3.842
97578W        W65919   4.872   3.908  13.045
97579W        W65920  42.870   9.648  10.090
97580W        W65921   6.777   8.776   1.399
97581W        W65922  38.946  30.553   4.837
97582W        W65923  21.241  41.373   2.846
97583W        W65924  13.133  33.517   5.283
97584W        W65925   7.881  41.303   9.984
97585W        W65926  17.651  19.119   4.187
97586W        W65927   2.924   3.433   0.298
97587W        W65928  32.911  36.065  14.304
97588W        W65929  39.045  34.584   1.291
97589W        W65930  35.589  10.363   4.837
97590W        W65931  33.011   0.856  13.900
97591W        W65932  12.266  26.480   3.843
97592W        W65933   7.723  12.218   4.661
97593W        W65934  35.542  44.386  10.947
97594W        W65935  24.493  12.186  13.395
97595W        W65936  22.703   7.411   0.466
97596W        W65937  19.666  25.570  14.848
97597W        W65938  20.539  19.675   3.697
97598W        W65939  30.080  14.727   3.345
97599W        W65940  36.871  15.286  10.573
97600W        W65941  12.808   4.745   4.169
97601W        W65942  41.893  27.133   1.312
97602W        W65943  16.710  41.396  13.313
97603W        W65944  42.312  42.514   1.298
97604W        W65945   0.275   3.810  13.496
97605W        W65946  24.199   7.863   2.242
97606W        W65947  33.942  36.057   3.835
97607W        W65948  44.888   7.911   4.164
97608W        W65949  31.008  33.606  12.845
97609W        W65950  10.696   8.692  14.999
97610W        W65951  12.282  40.880   3.860
97611W        W65952  39.482   7.247  14.401
97612W        W65953  22.097  23.040   3.235
97613W        W65954  27.013  24.134   3.803
97614W        W65955  37.410   8.256  13.375
97615W        W65956  42.849  13.149   2.726
97616W        W65957  44.907  28.517  10.515
97617W        W65958  23.639   3.853   4.674
97618W        W65959  31.417  39.342   4.273
97619W        W65960  38.077   3.454   0.389
97620W        W65961  27.622  43.779  14.859
97621W        W65962   0.861  11.313   2.304
97622W        W65963  23.638  44.383   0.928
97623W        W65964   0.412  18.147  11.964
97624W        W65965  40.458  19.136  12.861
97625W        W65966  19.164  32.118  14.433
97626W        W65967  29.426   9.868   4.785
97627W        W65968   5.758   1.405   2.677
97628W        W65969   3.323  25.648   4.771
97629W        W65970  34.516  29.972   0.937
97630W        W65971  22.017  43.982   4.350
97631W        W65972  35.002  36.351  11.938
97632W        W65973  35.963  19.109  13.967
97633W        W65974  18.716   0.428   1.293
97634W        W65975  22.707   9.379  10.529
97635W        W65976  34.385   2.803  13.357
97636W        W65977  18.249  14.203  12.051
97637W        W65978  28.645  31.566   3.828
97638W        W65979  14.733  38.841   1.331
97639W        W65980  13.753  40.841   5.731
97640W        W65981  16.587  33.951   2.696
97641W        W65982  35.504  14.679   3.272
97642W        W65983  10.841   9.854   1.422
97643W        W65984  21.673   5.281  14.356
97644W        W65985  17.284  35.434   0.957
97645W        W65986   9.765  33.612  13.982
97646W        W65987  12.808  34.498  10.913
97647W        W65988   2.834  13.664   1.246
97648W        W65989  29.051  12.691   3.792
97649W        W65990   4.320  27.940   1.288
97650W        W65991   9.841  20.216  12.030
97651W        W65992   9.217   1.248  13.532
97652W        W65993  43.476  32.444  14.782
97653W        W65994  37.556   7.323  13.410
97654W        W65995  30.621  25.183  11.572
97655W        W65996  13.731   1.326  14.443
97656W        W65997  36.530  20.550   4.643
97657W        W65998  39.440  31.567   3.685
97658W        W65999  25.174  28.036  10.435
97659W        W66000  41.494  42.930   2.177
97660W        W66001  39.839   4.372  13.405
97661W        W66002   1.398  18.737   3.243
97662W        W66003   8.307  25.664   3.376
97663W        W66004  32.603  33.388   0.244
97664W        W66005  41.929  38.349  10.558
97665W        W66006   8.381  12.793   0.328
97666W        W66007   5.290  25.026   1.761
97667W        W66008  24.572  17.791   0.249
97668W        W66009  38.929  29.455  13.907
97669W        W66010   6.887  16.154  13.842
97670W        W66011  36.463   4.358   3.848
97671W        W66012  26.532  41.934  10.936
97672W        W66013   9.354  11.737  12.953
97673W        W66014   4.221  35.971   3.744
97674W        W66015  41.537  19.184  14.470
97675W        W66016  14.300  43.507   2.394
97676W        W66017  22.017   7.309  14.304
97677W        W66018   6.697  21.260   3.811
97678W        W66019  23.508  42.018   2.827
97679W        W66020  30.119  33.954   3.807
97680W        W66021  43.395  39.541  13.842
97681W        W66022  37.073  14.154  10.961
97682W        W66023  11.264  38.499   1.707
97683W        W66024   9.754  36.943   2.368
97684W        W66025   0.327  37.420   2.378
97685W        W66026  11.841  15.640   1.926
97686W        W66027  29.540  40.948   2.287
97687W        W66028  22.615  18.134   2.698
97688W        W66029  24.178   0.401   1.915
97689W        W66030  28.162   9.872   2.743
97690W        W66031   8.164  17.654  11.053
97691W        W66032   3.921  11.787  14.320
97692W        W66033  17.079  32.536   1.842
97693W        W66034  12.312  13.702   0.257
97694W        W66035  27.961  37.399   4.792
97695W        W66036  44.996  13.819   0.295
97696W        W66037  28.644   7.676  12.376
97697W        W66038   4.362  16.280   2.817
97698W        W66039  27.483  34.949   3.235
97699W        W66040   5.742   6.788  12.341
97700W        W66041  26.462  26.189   4.815
97701W        W66042   3.724  15.786   2.215
97702W        W66043   6.801  39.366  14.453
97703W        W66044   5.246   6.306   4.212
97704W        W66045   2.896  23.140   2.838
97705W        W66046  19.543  44.368   4.283
97706W        W66047  20.580   0.820  12.458
97707W        W66048  17.621  33.517   3.723
97708W        W66049   7.265  17.236  12.087
97709W        W66050  43.338  26.612   1.407
97710W        W66051  40.840  39.928  10.101
97711W        W66052   1.833  16.752   4.614
97712W        W66053  30.549   3.243  10.454
97713W        W66054   5.881  38.822  10.588
97714W        W66055   9.320  12.706  11.993
97715W        W66056  35.028  32.965   4.131
97716W        W66057  37.496   0.805  13.795
97717W        W66058  17.155  18.199  10.889
97718W        W66059  38.538  27.501   1.726
97719W        W66060  24.597  22.606   3.301
97720W        W66061   3.810  20.751  11.114
97721W        W66062  16.196  28.488   1.216
97722W        W66063   3.952  43.282  11.947
97723W        W66064  23.660  25.473  14.507
97724W        W66065  26.690  27.076   1.929
97725W        W66066  42.777  44.493   2.708
97726W        W66067  33.601  34.598  14.979
97727W        W66068  43.947  23.699   1.411
97728W        W66069  25.551   3.456   3.735
97729W        W66070  41.956  15.585  10.901
97730W        W66071  17.068  34.583   3.290
97731W        W66072  11.800   0.769   4.601
97732W        W66073  18.664  39.497  10.915
97733W        W66074  23.009  33.622   1.312
97734W        W66075  35.081  17.680  12.574
97735W        W66076  22.177  29.117  12.029
97736W        W66077  41.910  28.445   4.335
97737W        W66078  19.649   6.694  14.774
97738W        W66079  40.518  43.358  13.340
97739W        W66080  34.572  27.087  13.043
97740W        W66081  11.196  42.306   2.310
97741W        W66082  28.548  37.966  10.498
97742W        W66083  19.630  29.969   2.778
97743W        W66084  27.012  23.198  11.046
97744W        W66085  27.160  17.293   2.335
97745W        W66086  35.541  16.630   3.308
97746W        W66087  21.046  31.647   3.161
97747W        W66088  42.507  39.973  13.395
97748W        W66089  31.545  29.649   0.827
97749W        W66090  29.148  39.996   3.678
97750W        W66091   7.676   6.715  13.913
97751W        W66092   0.478  14.242   4.750
97752W        W66093  11.350  31.128  14.386
97753W        W66094   2.446  22.622   3.679
97754W        W66095   5.757  38.571   4.663
97755W        W66096   9.715   8.832   3.226
97756W        W66097  21.693  27.146  11.085
97757W        W66098  34.942  31.561   3.201
97758W        W66099  43.376   1.953  13.896
97759W        W66100   4.419   4.774  14.435
97760W        W66101  28.932  18.151  11.595
97761W        W66102  24.129  19.563   1.790
97762W        W66103  42.502  21.564   1.218
97763W        W66104  10.856   1.798  10.645
97764W        W66105  14.606  36.566  12.073
97765W        W66106  41.319  20.562  12.539
97766W        W66107  25.495  16.766   3.869
97767W        W66108  14.241   6.234   3.762
97768W        W66109  10.245  17.195  10.516
97769W        W66110   6.233  44.442   4.326
97770W        W66111  12.166  15.146  10.593
97771W        W66112   8.688  28.467  14.362
97772W        W66113   4.424  32.017   4.693
97773W        W66114   6.378  32.024   0.823
97774W        W66115  22.570  34.104   0.845
97775W        W66116  42.858  44.941   1.368
97776W        W66117  24.086  22.133  14.959
97777W        W66118  21.226  21.111   3.636
97778W        W66119  36.391  42.297   3.312
97779W        W66120  21.615  44.439   4.727
97780W        W66121   0.344   1.912   3.242
97781W        W66122  13.336   5.821  10.583
97782W        W66123  35.888  35.367  10.460
97783W        W66124  15.755  16.625  11.417
97784W        W66125   8.332   0.487  14.446
97785W        W66126  42.927   7.748   3.255
97786W        W66127  44.823  40.449   3.710
97787W        W66128  24.059  14.130   4.662
97788W        W66129  35.937  29.140   0.246
97789W        W66130  31.586   3.324   0.357
97790W        W66131  15.607  35.578  12.877
97791W        W66132  41.010  17.156  14.006
97792W        W66133   1.363  17.656   1.927
97793W        W66134  34.017  35.873  11.539
97794W        W66135  11.784  15.804   1.266
97795W        W66136  33.469  26.467   5.289
97796W        W66137  14.766   8.676   0.879
97797W        W66138   0.926   3.785  10.465
97798W        W66139  13.812   6.207   3.702
97799W        W66140   1.241   1.262  12.433
97800W        W66141  22.630   0.271   1.221
97801W        W66142   0.978  43.783  13.502
97802W        W66143  43.328   0.893  14.432
97803W        W66144  29.513  17.149   4.318
97804W        W66145  40.001  26.139  13.868
97805W        W66146   5.754  37.980   0.959
97806W        W66147  19.751   3.440   4.336
97807W        W66148  11.362   7.807   4.734
97808W        W66149  24.136   5.915  12.962
97809W        W66150  11.791  23.717  10.911
97810W        W66151  31.407   3.369  14.339
97811W        W66152  32.478  37.906   2.311
97812W        W66153  28.470  36.463   3.231
97813W        W66154  23.237   8.834   2.296
97814W        W66155  34.035   2.777  12.504
97815W        W66156   4.821  32.954   4.729
97816W        W66157  37.873  38.533  12.526
97817W        W66158   5.869  22.689   0.296
97818W        W66159  35.406  27.082   1.768
97819W        W66160  20.532   4.322   3.851
97820W        W66161  17.689  11.755   4.168
97821W        W66162   3.422   2.780   2.855
97822W        W66163  35.864  16.290  12.832
97823W        W66164  39.066  15.090  14.279
97824W        W66165  10.801  40.886   2.317
97825W        W66166  35.582  10.212   3.811
97826W        W66167   6.320  12.266  11.907
97827W        W66168  10.814  15.259  11.049
97828W        W66169  11.191  38.066  13.475
97829W        W66170   0.782  27.561   2.415
97830W        W66171  13.812   8.766  14.341
97831W        W66172  34.484  12.284   3.851
97832W        W66173   0.396   3.235  13.510
97833W        W66174   5.194  26.179   1.925
97834W        W66175  33.113  21.053  11.570
97835W        W66176  44.934  34.568   0.882
97836W        W66177  13.778  35.458   1.868
97837W        W66178  19.211  21.516  13.908
97838W        W66179  13.143   0.820  13.375
97839W        W66180  32.554  21.207  12.482
97840W        W66181   2.736  11.675   2.831
97841W        W66182  10.852  26.008  12.415
97842W        W66183  43.378  22.531   3.151
97843W        W66184  17.156  39.920   1.913
97844W        W66185  33.057  42.337   5.742
97845W        W66186  44.312   2.902  14.921
97846W        W66187  36.082  16.703  11.103
97847W        W66188  13.180  44.389  13.448
97848W        W66189  38.551  25.535  14.923
97849W        W66190  13.824  36.865  12.848
97850W        W66191  18.672  43.510   1.827
97851W        W66192  25.610  20.180  11.471
97852W        W66193   1.417  33.450   1.396
97853W        W66194   2.357   3.733   4.247
97854W        W66195  22.246  13.289  12.851
97855W        W66196  42.468  11.649   2.370
97856W        W66197  28.513   0.269  12.002
97857W        W66198   8.852  27.184   0.469
97858W        W66199   3.914   7.365   4.167
97859W        W66200  13.282  32.414  13.450
97860W        W66201  24.172   3.774   2.272
97861W        W66202   9.358   9.209  13.854
97862W        W66203  42.346  20.644  10.531
97863W        W66204  32.011  10.243   3.740
97864W        W66205  26.956  33.509  13.031
97865W        W66206  18.626  38.055  11.939
97866W        W66207  29.458   5.418  13.844
97867W        W66208  19.188  31.004   1.737
97868W        W66209  28.504   8.872   1.867
97869W        W66210   8.726  42.331   0.752
97870W        W66211   8.399   7.787   3.688
97871W        W66212  14.263  27.106   0.242
97872W        W66213  18.279  21.536   4.670
97873W        W66214  10.732  29.612  10.571
97874W        W66215  43.376   8.878   1.695
97875W        W66216  16.304   4.387  14.446
97876W        W66217  28.088  36.353   3.377
97877W        W66218  44.870  34.419  13.884
97878W        W66219  33.901  18.636   4.785
97879W        W66220  30.987  30.422   2.815
97880W        W66221  39.024  30.425  13.851
97881W        W66222   8.403   6.839   2.685
97882W        W66223  11.132  32.394  14.812
97883W        W66224  39.963  11.350  12.019
97884W        W66225  28.961  35.859   0.841
97885W        W66226  15.123   5.852   1.694
97886W        W66227  43.380  14.168   1.443
97887W        W66228  23.732  18.630   5.104
97888W        W66229  14.761  32.409  10.921
97889W        W66230  18.784  31.457  13.934
97890W        W66231  32.506   3.427   5.239
97891W        W66232   0.258  38.522  10.996
97892W        W66233  39.944   2.316  13.012
97893W        W66234  25.596  21.139  11.930
97894W        W66235  24.051  32.889  11.393
97895W        W66236  36.367   0.487  11.529
97896W        W66237   9.360  23.052   1.804
97897W        W66238  14.710   9.654  12.411
97898W        W66239  34.931  24.051   0.755
97899W        W66240  44.325  12.816  14.995
97900W        W66241  21.563  20.692  12.032
97901W        W66242  25.152  27.184  12.339
97902W        W66243  32.441   9.251  11.960
97903W        W66244  30.625   1.460   2.711
97904W        W66245   6.256  26.142  11.031
97905W        W66246  23.085   7.213  12.431
97906W        W66247  27.532  14.741  14.385
97907W        W66248  33.915  12.116  10.897
97908W        W66249  33.912  11.699  11.105
97909W        W66250  31.605   5.854  14.494
97910W        W66251  38.338  25.967   3.238
97911W        W66252   2.420   2.864  13.502
97912W        W66253  16.147   9.160  10.432
97913W        W66254  15.794  22.012  11.932
97914W        W66255   8.802  17.167  10.992
97915W        W66256  42.882  38.025   1.818
97916W        W66257  18.714  33.610   5.144
97917W        W66258  25.496  42.968   2.401
97918W        W66259  18.733   9.218  13.394
97919W        W66260  38.371   7.307  14.339
97920W        W66261   2.240   9.188   0.816
97921W        W66262  27.665  12.268  10.919
97922W        W66263  16.293   1.462   3.294
97923W        W66264  24.717   9.244  10.492
97924W        W66265   5.846  19.754   0.400
97925W        W66266  11.752   3.780   3.345
97926W        W66267  16.763  34.966  10.945
97927W        W66268   0.770  29.100   0.323
97928W        W66269  29.135  19.252   1.411
97929W        W66270  27.592  23.103   1.883
97930W        W66271  30.532  11.701   2.856
97931W        W66272  34.407  27.167   1.757
97932W        W66273  42.023   2.846   0.895
97933W        W66274   1.374   1.452   3.294
97934W        W66275   9.217  31.915  11.601
97935W        W66276   1.780  43.504   5.093
97936W        W66277  20.626   5.898   4.326
97937W        W66278   6.744  41.415   1.829
97938W        W66279   1.301  21.730   0.793
97939W        W66280  43.331   0.778   1.414
97940W        W66281  14.329  22.110  12.939
97941W        W66282  37.029   4.930  13.920
97942W        W66283   6.359  16.256   2.706
97943W        W66284   1.432  14.769   0.368
97944W        W66285  30.478   9.357  12.488
97945W        W66286   7.881  13.347   1.434
97946W        W66287  20.151   1.441   1.797
97947W        W66288  37.846   4.779  13.328
97948W        W66289  39.359   4.446  10.909
97949W        W66290  18.146  11.732   4.661
97950W        W66291  30.433   7.785  13.486
97951W        W66292  29.939   1.827  13.357
97952W        W66293  13.770  42.337   0.465
97953W        W66294  34.493   8.780   2.866
97954W        W66295  17.783  35.393  11.902
97955W        W66296  28.125   6.402   3.185
97956W        W66297  44.504  24.556   4.188
97957W        W66298   4.718  36.882  11.425
97958W        W66299  31.145  12.175   2.737
97959W        W66300  16.728  37.044  11.118
97960W        W66301  32.513   6.900  13.519
97961W        W66302  13.173  11.361   2.862
97962W        W66303  43.515  12.722  14.964
97963W        W66304  39.947  37.478  10.486
97964W        W66305  26.182   7.416  13.034
97965W        W66306   5.847  12.689   4.816
97966W        W66307  15.629  25.604   2.672
97967W        W66308  16.741  37.522   4.115
97968W        W66309   0.847  12.162  10.556
97969W        W66310  40.853  27.985   4.682
97970W        W66311  32.571  39.917   1.804
97971W        W66312   1.739  41.513   2.698
97972W        W66313  39.347  34.408  10.443
97973W        W66314  44.865  35.593   1.889
97974W        W66315  13.142  23.624   4.192
97975W        W66316  10.721  30.639  13.865
97976W        W66317   6.704  14.126   2.224
97977W        W66318   1.477  19.705   3.344
97978W        W66319  22.714  37.366   1.306
97979W        W66320  33.463  27.157   3.798
97980W        W66321  26.582  44.351   2.195
97981W        W66322  29.972  43.806   1.935
97982W        W66323   5.800  29.515  14.403
97983W        W66324  27.577   2.413  11.914
97984W        W66325  25.714  21.511   1.232
97985W        W66326  31.577  32.094   4.764
97986W        W66327  35.873  34.546  10.439
97987W        W66328   2.469  11.232  10.572
97988W        W66329  18.569  25.035   0.307
97989W        W66330  21.151  36.526   1.404
97990W        W66331  17.263  24.643   0.763
97991W        W66332  31.583  44.778  11.417
97992W        W66333  29.074  31.013  12.067
97993W        W66334  40.035  23.016  12.456
97994W        W66335  40.933  18.164  12.828
97995W        W66336  32.545  26.618   3.215
97996W        W66337  15.128   5.316   3.358
97997W        W66338  36.871  12.132  14.467
97998W        W66339  44.307  20.029   0.385
97999W        W66340  10.765  15.282  12.466
98000W        W66341   2.397  15.695  11.875
98001W        W66342  25.627   7.801   2.325
98002W        W66343  14.285  18.599   1.326
98003W        W66344   7.181  40.542   0.308
98004W        W66345  23.016  14.591   2.220
98005W        W66346  35.459  42.851   2.731
98006W        W66347   0.770  35.472  13.973
98007W        W66348  43.391  14.272  14.001
98008W        W66349  29.922  30.106  12.494
98009W        W66350   9.883  11.354   2.280
98010W        W66351   4.316  39.022   1.401
98011W        W66352   9.158  33.919  12.876
98012W        W66353  38.841  12.250  13.949
98013W        W66354  30.442  20.179   4.240
98014W        W66355   7.765  37.578  11.591
98015W        W66356  28.166  22.163   0.467
98016W        W66357  35.990  27.666   4.346
98017W        W66358  28.548  19.633   0.347
98018W        W66359  34.533  36.864   3.756
98019W        W66360  32.489  40.463  13.443
98020W        W66361  39.352  43.914   0.330
98021W        W66362   0.880  27.501  13.375
98022W        W66363  23.005  36.460   3.702
98023W        W66364   9.239  40.957  12.417
98024W        W66365  23.163  38.527  13.317
98025W        W66366  15.223  36.993  11.943
98026W        W66367  10.230   8.852  12.574
98027W        W66368   0.920  40.881   2.353
98028W        W66369   1.294   1.853  12.491
98029W        W66370  20.116  24.154  11.967
98030W        W66371  22.679   4.843   3.862
98031W        W66372  20.665  27.556   3.327
98032W        W66373  33.090  27.448   4.782
98033W        W66374  38.563  29.637   3.657
98034W        W66375  21.146  26.963   4.192
98035W        W66376  28.528   2.271  12.370
98036W        W66377  29.942  37.453  13.378
98037W        W66378  40.514  41.842   0.852
98038W        W66379  43.457  34.518   0.726
98039W        W66380  39.989   9.394   2.346
98040W        W66381   1.848  26.986  10.471
98041W        W66382  35.535   8.804   2.317
98042W        W66383  33.999   5.778  12.481
98043W        W66384  32.006  43.777  14.845
98044W        W66385  33.941  36.576  13.858
98045W        W66386   4.353  39.001  13.381
98046W        W66387   2.847  20.633  10.458
98047W        W66388   5.348  30.080  12.931
98048W        W66389  18.607  11.809  14.407
98049W        W66390  39.559  14.791   2.202
98050W        W66391  16.285  19.230   0.941
98051W        W66392  37.433  10.307   3.380
98052W        W66393  17.242   6.919   0.478
98053W        W66394   0.751  29.496   3.262
98054W        W66395  19.648  16.771   1.427
98055W        W66396  20.210   4.942   3.273
98056W        W66397  15.657  25.706   4.157
98057W        W66398  14.622  13.828  14.308
98058W        W66399  15.581  24.990  13.815
98059W        W66400   4.820  42.301  11.511
98060W        W66401  29.591  23.644  12.840
98061W        W66402   3.333  20.040   4.343
98062W        W66403  12.702  23.528  12.345
98063W        W66404  37.031  26.968   1.364
98064W        W66405  18.651  29.048  12.054
98065W        W66406  13.168  12.251  11.878
98066W        W66407  32.104  15.234   3.671
98067W        W66408  40.014  42.361  12.945
98068W        W66409  34.397  41.894  13.328
98069W        W66410   8.191  33.061   0.909
98070W        W66411  33.586  36.015  13.320
98071W        W66412  33.884  14.742   2.387
98072W        W66413  31.101   4.885  13.418
98073W        W66414   6.234  10.757   2.232
98074W        W66415  36.843  28.991   3.163
98075W        W66416  28.436  34.962   0.318
98076W        W66417  25.636  12.718  12.407
98077W        W66418  10.209   7.728   0.783
98078W        W66419  37.998  12.146   1.856
98079W        W66420  41.996  42.401  14.391
98080W        W66421  36.034  24.676   4.193
98081W        W66422   1.470  11.754   1.888
98082W        W66423  38.425  29.054  12.430
98083W        W66424   4.862  34.064  10.635
98084W        W66425  40.957   4.848  11.065
98085W        W66426   4.754  42.819  13.983
98086W        W66427   8.885  30.626  12.026
98087W        W66428  31.027   7.900  13.843
98088W        W66429   0.971  34.396   2.193
98089W        W66430  32.574   4.708   1.770
98090W        W66431   8.323  16.111   0.292
98091W        W66432  24.068  11.754  14.959
98092W        W66433  33.881  42.800  12.823
98093W        W66434   8.317  35.599   4.792
98094W        W66435  25.603  32.607  14.853
98095W        W66436  35.991  44.780  13.356
98096W        W66437  20.120   8.685  13.548
98097W        W66438  18.247  17.156  12.042
98098W        W66439  28.075  24.546   4.246
98099W        W66440   8.662  30.110  13.487
98100W        W66441  30.528   3.328   5.172
98101W        W66442   7.764   4.406  12.050
98102W        W66443   3.950   2.449   3.237
98103W        W66444  14.244   6.282   4.655
98104W        W66445  35.360  38.387  10.637
98105W        W66446  18.760  23.555   3.146
98106W        W66447   6.321  26.043   2.255
98107W        W66448  13.189   9.224  11.431
98108W        W66449  34.865   7.830  10.425
98109W        W66450   5.848   6.321  12.852
98110W        W66451  14.219  18.089   4.347
98111W        W66452  27.501  14.213  10.917
98112W        W66453  19.285  38.485  11.859
98113W        W66454   5.790  36.536   4.119
98114W        W66455  40.018  13.698   1.847
98115W        W66456   7.190  38.367   2.396
98116W        W66457  15.746  27.015   3.813
98117W        W66458  26.524   9.674  13.524
98118W        W66459   5.310  44.417   3.752
98119W        W66460   8.371  42.954   4.835
98120W        W66461   2.252  38.045   1.432
98121W        W66462  25.518  24.019  12.033
98122W        W66463  14.638  20.679  11.916
98123W        W66464  16.224  41.338   4.299
98124W        W66465  34.460  15.696   0.964
98125W        W66466   3.332  19.123   1.746
98126W        W66467  44.982  23.051   2.747
98127W        W66468  26.144   5.821  11.870
98128W        W66469  38.840  29.085   3.823
98129W        W66470  25.992  43.944   3.332
98130W        W66471  30.059  33.078  14.285
98131W        W66472  25.700  43.289   3.774
98132W        W66473  28.966  20.648  12.578
98133W        W66474  15.620  23.175  11.583
98134W        W66475  26.171  36.381  12.917
98135W        W66476  42.915  36.961  14.862
98136W        W66477  20.103  15.211  11.897
98137W        W66478  18.221   3.411   4.800
98138W        W66479   2.743  42.960  12.868
98139W        W66480  27.019  37.904   0.774
98140W        W66481  32.088   8.169   1.242
98141W        W66482  28.648  15.256   0.745
98142W        W66483  36.491  39.976  11.418
98143W        W66484  33.616  10.806  14.004
98144W        W66485   7.812   2.398   0.800
98145W        W66486   0.341   4.706  12.020
98146W        W66487  27.479  29.993   0.837
98147W        W66488  41.017  23.036   4.722
98148W        W66489  24.184  14.196   0.274
98149W        W66490  11.255  37.055  14.844
98150W        W66491  19.259  16.618  10.521
98151W        W66492  32.062  40.318  12.989
98152W        W66493   2.325  19.239  14.812
98153W        W66494  37.559  31.139   2.801
98154W        W66495  39.943  32.106   0.345
98155W        W66496  23.096  44.855   1.838
98156W        W66497  16.717  22.507   1.892
98157W        W66498   5.888  28.625  13.974
98158W        W66499  43.302  34.907   3.352
98159W        W66500  21.103  28.474   4.244
98160W        W66501  34.457  18.735   0.767
98161W        W66502  10.749  32.079   4.749
98162W        W66503  10.166  25.695   0.832
98163W        W66504   0.435  14.173   3.176
98164W        W66505  42.961  28.534   4.349
98165W        W66506  23.047  33.967   4.161
98166W        W66507   7.335  29.458   1.229
98167W        W66508  19.285   6.876   2.721
98168W        W66509  31.551  28.115  12.414
98169W        W66510  14.627  37.450  14.311
98170W        W66511  41.406  29.018  12.522
98171W        W66512  44.343  26.066  13.894
98172W        W66513  38.365  38.392  10.535
98173W        W66514  29.646  18.222  10.956
98174W        W66515  38.988  27.646   2.379
98175W        W66516  19.063  26.089  13.841
98176W        W66517   9.225  17.654   1.735
98177W        W66518  14.197  31.128  10.971
98178W        W66519  13.686  25.618  12.997
98179W        W66520  17.668  15.633  13.808
98180W        W66521  30.608  40.377   3.774
98181W        W66522  15.201   2.299   1.308
98182W        W66523  40.827  23.704  14.894
98183W        W66524  21.096  18.553   3.338
98184W        W66525  20.126   5.372  11.098
98185W        W66526  38.896  33.610   4.829
98186W        W66527   6.301   9.703  11.480
98187W        W66528  16.234   8.275   4.670
98188W        W66529  15.786  25.086   2.201
98189W        W66530   9.809  11.189   4.797
98190W        W66531  12.670  36.933  12.410
98191W        W66532  27.658   5.843   2.316
98192W        W66533  13.737  20.240  12.434
98193W        W66534  40.522   2.958   2.700
98194W        W66535   1.244  29.497  14.308
98195W        W66536  11.816  21.599  14.336
98196W        W66537  39.533  34.420  13.036
98197W        W66538  34.563  44.420   1.432
98198W        W66539  20.206  29.647   3.785
98199W        W66540  17.181  42.946  14.391
98200W        W66541  20.203   2.951   3.748
98201W        W66542  41.863  15.318  10.499
98202W        W66543  33.477  41.312   1.223
98203W        W66544  32.589  36.063  13.877
98204W        W66545  13.646  21.167  13.463
98205W        W66546  13.821  18.777  11.523
98206W        W66547   8.249  28.566   4.183
98207W        W66548  33.887   4.329   4.146
98208W        W66549   1.963  41.006  12.970
98209W        W66550  16.603   9.777   0.844
98210W        W66551  10.798   5.798   4.203
98211W        W66552  18.080  33.991  10.921
98212W        W66553  23.584  18.595   4.143
98213W        W66554  40.940   9.826  10.611
98214W        W66555  19.133  10.635   3.218
98215W        W66556  35.432   8.194   4.227
98216W        W66557  11.803  31.985  10.525
98217W        W66558  36.083   0.983  12.372
98218W        W66559   4.302  42.020   0.726
98219W        W66560  18.275  39.997  14.868
98220W        W66561   9.856  21.175   4.294
98221W        W66562  44.487  44.971  11.991
98222W        W66563   6.401   3.252  13.341
98223W        W66564  40.998  42.870  14.319
98224W        W66565  24.547  15.253  13.010
98225W        W66566   0.342  32.972  10.589
98226W        W66567  16.739  41.037  11.977
98227W        W66568  14.682  21.106   2.289
98228W        W66569  40.454  18.065   0.302
98229W        W66570  23.074   1.799  11.871
98230W        W66571  28.058  38.905  13.444
98231W        W66572  35.516  25.663   0.928
98232W        W66573   6.426   0.942  13.893
98233W        W66574   1.808  31.471  10.460
98234W        W66575  23.548  20.601  12.059
98235W        W66576  32.978  44.830   2.227
98236W        W66577  41.336  18.787   0.352
98237W        W66578   3.940   2.771  14.443
98238W        W66579  15.094  20.234   4.123
98239W        W66580  10.873  15.796  11.889
98240W        W66581  17.218   3.266   4.811
98241W        W66582  28.087  29.054  13.060
98242W        W66583   6.351   0.806   3.845
98243W        W66584  15.203  36.570   1.297
98244W        W66585  22.688  30.503  13.510
98245W        W66586  19.222  44.326   2.769
98246W        W66587  28.641  15.663  12.979
98247W        W66588   0.335  22.718  11.582
98248W        W66589   9.257  27.159   0.965
98249W        W66590  24.598  28.558  11.577
98250W        W66591  27.029  25.487  12.474
98251W        W66592  19.083  10.221  14.791
98252W        W66593   6.396  34.440  12.486
98253W        W66594  25.572   4.758  11.061
98254W        W66595  11.626  43.787   1.293
98255W        W66596  37.338  27.993  11.993
98256W        W66597  32.044  16.125  10.565
98257W        W66598   0.829  32.544   0.951
98258W        W66599  25.597  38.023  12.375
98259W        W66600   6.710   9.866  11.592
98260W        W66601  24.572  35.040   2.370
98261W        W66602  20.544  28.667  10.579
98262W        W66603  10.260   9.753  14.761
98263W        W66604  43.283  23.140   4.804
98264W        W66605  31.134   0.934   2.307
98265W        W66606  34.052  13.822   4.617
98266W        W66607   8.818  41.039   2.733
98267W        W66608  34.477   6.424   2.903
98268W        W66609  35.513   7.237   3.726
98269W        W66610  24.109  31.504   3.151
98270W        W66611  43.770  13.153   3.303
98271W        W66612  34.590   4.810  11.989
98272W        W66613  28.088  14.168  10.094
98273W        W66614  27.545  38.980  11.442
98274W        W66615  15.730  17.698  10.552
98275W        W66616   2.295  41.788  11.421
98276W        W66617   1.777  18.679   4.195
98277W        W66618  41.382   5.207   1.805
98278W        W66619  38.908  14.827  10.466
98279W        W66620  41.916  15.744  11.952
98280W        W66621  16.612  30.516   4.697
98281W        W66622  16.284   5.210   2.228
98282W        W66623  17.617  29.434   4.771
98283W        W66624   3.780  32.035  13.413
98284W        W66625  40.008  29.647  14.306
98285W        W66626  42.802   6.735  11.545
98286W        W66627  24.719  20.622  10.520
98287W        W66628  17.112   7.843   1.751
98288W        W66629  24.147  12.656   1.345
98289W        W66630  33.389  20.265   1.924
98290W        W66631   4.270  33.493  11.041
98291W        W66632   3.749  11.763   2.391
98292W        W66633   2.445   1.751   5.218
98293W        W66634   2.948  26.119   3.375
98294W        W66635  41.805  29.964   0.903
98295W        W66636  39.357  28.576   0.387
98296W        W66637  43.443  40.959   0.786
98297W        W66638  26.701  35.575  10.458
98298W        W66639  14.133   3.215   2.223
98299W        W66640  20.628  34.897   1.728
98300W        W66641  23.495  33.427   2.769
98301W        W66642  30.074  16.129   4.824
98302W        W66643   3.785   5.802   1.228
98303W        W66644   2.454  43.488  12.384
98304W        W66645  22.515  28.542   3.719
98305W        W66646  14.620  10.219  14.795
98306W        W66647  43.774  29.976  11.423
98307W        W66648  38.380  22.607  10.955
98308W        W66649  35.882   9.666  10.935
98309W        W66650  14.151  35.880   1.372
98310W        W66651  24.528  27.514  13.946
98311W        W66652  20.582  32.090  11.991
98312W        W66653  40.814  32.418  13.919
98313W        W66654  19.104   2.260   1.717
98314W        W66655  21.522  29.085   0.797
98315W        W66656  24.198  27.160  13.025
98316W        W66657   6.349   3.312  10.527
98317W        W66658  37.362  16.203   4.237
98318W        W66659  29.665  44.785  14.437
98319W        W66660  36.582  26.509   4.258
98320W        W66661  18.223  13.241   0.346
98321W        W66662  34.996  25.039  11.411
98322W        W66663   9.687   4.352   2.744
98323W        W66664   8.254  34.970  11.094
98324W        W66665  25.662   3.760  13.524
98325W        W66666   2.446  39.546   3.751
98326W        W66667  18.240  26.577   0.314
98327W        W66668  27.998  17.729   3.809
98328W        W66669  36.383  25.045  14.440
98329W        W66670   5.911  31.534  14.993
98330W        W66671   4.770  42.853   3.299
98331W        W66672   0.863  13.312   0.733
98332W        W66673  42.860  32.109  14.461
98333W        W66674  34.928  31.558   2.187
98334W        W66675  15.161  31.037  10.912
98335W        W66676   1.426  16.251  12.462
98336W        W66677  32.525  17.639  11.946
98337W        W66678  28.483  23.627  13.840
98338W        W66679   1.785  25.197   1.293
98339W        W66680  43.290  28.650  13.404
98340W        W66681  28.173  43.814   1.273
98341W        W66682  31.044  41.380   1.901
98342W        W66683  39.345  22.613  11.099
98343W        W66684  32.617  34.918   1.877
98344W        W66685  34.412  42.299   3.351
98345W        W66686  15.815   0.759   1.284
98346W        W66687  29.997   1.883  13.003
98347W        W66688  26.084  27.163   4.692
98348W        W66689  29.639  29.612  11.516
98349W        W66690   6.323  26.636   2.852
98350W        W66691  43.390  44.388   0.468
98351W        W66692  32.489   5.370  11.452
98352W        W66693  18.172   7.911  11.375
98353W        W66694  39.888  31.469  10.557
98354W        W66695  42.286  29.515   0.857
98355W        W66696  10.699  14.183   4.159
98356W        W66697  17.613  23.094   2.850
98357W        W66698  38.433  43.335  13.461
98358W        W66699  22.179  19.749  10.622
98359W        W66700  42.287   9.682   1.863
98360W        W66701  11.145  37.021  11.444
98361W        W66702  31.572  34.871  11.880
98362W        W66703   3.920  20.732   2.689
98363W        W66704  32.467  21.210   3.168
98364W        W66705  17.299  31.544  13.999
98365W        W66706   3.848   1.376  10.639
98366W        W66707  27.648  35.551   3.631
98367W        W66708  41.908  19.124   3.800
98368W        W66709  17.130   4.926   4.827
98369W        W66710  21.192   7.332   0.842
98370W        W66711  16.255   7.264   3.168
98371W        W66712  35.085  40.850  14.807
98372W        W66713  36.498  39.015  12.995
98373W        W66714  25.144  23.100  14.366
98374W        W66715   5.760  35.414   4.664
98375W        W66716  24.118  18.121  11.896
98376W        W66717  17.654   7.725   0.407
98377W        W66718   0.947  30.023   1.784
98378W        W66719  11.704  32.432   4.655
98379W        W66720  23.025  34.899   0.838
98380W        W66721  28.547  25.561   0.374
98381W        W66722  16.763  31.429   4.723
98382W        W66723  22.203  16.199   0.784
98383W        W66724  10.292  11.370   0.824
98384W        W66725  10.635  19.737   4.799
98385W        W66726   3.325  31.423  14.866
98386W        W66727   1.936   0.365   0.290
98387W        W66728  22.078  30.104  14.465
98388W        W66729  30.559  18.157   3.202
98389W        W66730  18.056   3.363   2.757
98390W        W66731   8.845  21.528  11.533
98391W        W66732  36.368  40.820  11.996
98392W        W66733  24.106  10.163   2.853
98393W        W66734  37.501  33.002  11.380
98394W        W66735   0.261  24.207   2.276
98395W        W66736  44.990   4.853  11.423
98396W        W66737  35.068   9.200   0.248
98397W        W66738   7.906   1.356  12.001
98398W        W66739  31.647  15.227   2.249
98399W        W66740  12.685  26.524   4.165
98400W        W66741   7.338  21.715   3.308
98401W        W66742  11.644   8.340   3.173
98402W        W66743   4.288  20.224  13.881
98403W        W66744  19.048   3.378  10.928
98404W        W66745  42.517  12.650   0.856
98405W        W66746  11.768  43.321   4.334
98406W        W66747  41.044  24.686  11.093
98407W        W66748  32.101  28.950   4.245
98408W        W66749  31.499   9.276   0.242
98409W        W66750  18.669   9.762  12.855
98410W        W66751  40.028  10.318   1.402
98411W        W66752  37.575  25.700   2.303
98412W        W66753  33.003  19.653   2.352
98413W        W66754  34.517  41.866   1.920
98414W        W66755  31.102  16.098  14.825
98415W        W66756  44.931   3.344   1.313
98416W        W66757   9.648  35.920   3.698
98417W        W66758  13.838   1.933  13.443
98418W        W66759  38.998  43.403  12.395
98419W        W66760  39.870  23.568   4.141
98420W        W66761  42.896  19.744  11.419
98421W        W66762   3.398  30.591  14.029
98422W        W66763  24.018  17.181   2.377
98423W        W66764  21.177  26.098  11.098
98424W        W66765   7.267  18.219   4.262
98425W        W66766  33.917  12.830   1.839
98426W        W66767  29.072  39.363   4.237
98427W        W66768   4.815  42.816  14.928
98428W        W66769   9.158  11.857   5.234
98429W        W66770  13.662  16.585  12.960
98430W        W66771  23.104  32.121  10.046
98431W        W66772  12.120   1.419   3.197
98432W        W66773   5.751  32.544  10.994
98433W        W66774   5.246   6.229   9.926
98434W        W66775  11.130  34.988   0.754
98435W        W66776   1.357  12.338  14.819
98436W        W66777  38.881  40.949  13.853
98437W        W66778  23.508  41.400   0.822
98438W        W66779  20.667  39.948   3.328
98439W        W66780  16.740  20.071   2.376
98440W        W66781  27.015  16.102  11.487
98441W        W66782  23.040  27.147   2.783
98442W        W66783  12.206  35.429   4.671
98443W        W66784  12.253  24.542  13.524
98444W        W66785   4.851  15.260  11.966
98445W        W66786  40.468  11.685  12.021
98446W        W66787  19.259  12.718   1.367
98447W        W66788  26.511   5.409   0.390
98448W        W66789  18.270  40.838   1.799
98449W        W66790  26.696  33.951  11.972
98450W        W66791  13.124  17.150  14.382
98451W        W66792  42.426  10.215  13.337
98452W        W66793  36.098   0.492  12.905
98453W        W66794  35.528  13.310   3.281
98454W        W66795   8.357   4.240   4.194
98455W        W66796   8.221  12.745  12.536
98456W        W66797   4.205   4.323   0.751
98457W        W66798  41.003  25.690   2.795
98458W        W66799  31.906  28.661  13.921
98459W        W66800   5.194  28.020   4.636
98460W        W66801  18.127   7.395  13.048
98461W        W66802  15.168  44.424   1.784
98462W        W66803  18.579  43.449  12.033
98463W        W66804  33.939  37.363  13.059
98464W        W66805  24.608  28.041  10.100
98465W        W66806  42.851  44.840   3.196
98466W        W66807  14.310   7.402  12.003
98467W        W66808  25.710   1.357   2.820
98468W        W66809   1.803  25.188   0.307
98469W        W66810   2.253   6.691   4.795
98470W        W66811   5.898  34.443  14.279
98471W        W66812  26.699  44.439   4.140
98472W        W66813  31.642   6.313  13.357
98473W        W66814  42.907  19.770   2.186
98474W        W66815  27.611  14.195  12.032
98475W        W66816  28.148   2.344  11.528
98476W        W66817  34.922  34.991  14.494
98477W        W66818  43.419  32.079  14.778
98478W        W66819  12.175  15.248  12.463
98479W        W66820  18.605  14.692  13.831
98480W        W66821  17.628  11.775   0.929
98481W        W66822  17.200   4.448   4.308
98482W        W66823  39.490   8.404  13.541
98483W        W66824  43.010  25.074   4.178
98484W        W66825  14.283   3.417   0.247
98485W        W66826  38.944   4.373   4.239
98486W        W66827  11.346  18.287   4.762
98487W        W66828  26.189  14.232   2.319
98488W        W66829  27.667   1.791   4.716
98489W        W66830  27.982  34.076   3.632
98490W        W66831   2.430  40.536   4.240
98491W        W66832   2.755  11.356  12.467
98492W        W66833  19.593  27.504  11.485
98493W        W66834   1.322  19.082   3.852
98494W        W66835  41.474  42.316   4.746
98495W        W66836  36.843  36.357  12.967
98496W        W66837   3.865  19.149  10.150
98497W        W66838   0.406   8.301   4.789
98498W        W66839  13.315  38.996  11.465
98499W        W66840   4.275  24.540  13.536
98500W        W66841  20.570  21.109   4.678
98501W        W66842  19.725  43.931   1.298
98502W        W66843   6.242  44.478   3.801
98503W        W66844  38.964  32.455   2.721
98504W        W66845  17.678   6.328  12.988
98505W        W66846   8.233  41.503  12.446
98506W        W66847  16.760  27.967   3.760
98507W        W66848  15.288  40.984   0.247
98508W        W66849  29.460   8.785   4.770
98509W        W66850  10.260   5.919   4.290
98510W        W66851  31.143  27.594   4.272
98511W        W66852  28.173  39.057  14.875
98512W        W66853   4.317   7.314   4.635
98513W        W66854  40.861  38.559  10.524
98514W        W66855  19.076   1.867   4.153
98515W        W66856  22.017   6.317   2.392
98516W        W66857  29.933  31.092  12.455
98517W        W66858   2.304  10.305  10.123
98518W        W66859  21.084  38.528   4.226
98519W        W66860  41.411  23.649  12.352
98520W        W66861  32.916  34.916   1.235
98521W        W66862  29.507  11.760   2.896
98522W        W66863  43.511   1.349  12.001
98523W        W66864  41.395  24.540  12.964
98524W        W66865  22.643  41.298  11.970
98525W        W66866  28.054  32.083   3.322
98526W        W66867  23.188  20.713  12.523
98527W        W66868  10.678  34.883  10.070
98528W        W66869  19.055   2.890   4.196
98529W        W66870  38.403  30.143  13.373
98530W        W66871  28.173  13.303  10.609
98531W        W66872  33.108  27.019  14.031
98532W        W66873   7.726  33.527   5.318
98533W        W66874  42.883  15.257  13.918
98534W        W66875  25.530  21.042  11.126
98535W        W66876   2.459  34.594   3.276
98536W        W66877  31.418  15.127   1.857
98537W        W66878  42.832   0.348  11.397
98538W        W66879  38.522  38.067  12.996
98539W        W66880  14.184  31.957  14.952
98540W        W66881  38.506  22.080  12.467
98541W        W66882  22.110  29.924  14.801
98542W        W66883  31.512  34.373  12.016
98543W        W66884  11.624  19.609   1.766
98544W        W66885   1.377  29.986   3.780
98545W        W66886   1.388  33.029  10.510
98546W        W66887  23.668  43.333  13.910
98547W        W66888   2.450   4.215  12.543
98548W        W66889   0.835   7.357   4.354
98549W        W66890  38.953  39.431   0.343
98550W        W66891  41.402   2.409  12.024
98551W        W66892   0.325   7.774  11.015
98552W        W66893  25.979  30.580  13.382
98553W        W66894  39.062  32.028   1.781
98554W        W66895  44.925  38.825  14.501
98555W        W66896  13.627   7.806   2.333
98556W        W66897  31.901  15.791  14.923
98557W        W66898  20.072  23.213  14.460
98558W        W66899  23.128  16.153  14.956
98559W        W66900   7.346  44.967   4.737
98560W        W66901  15.189  17.695   2.236
98561W        W66902  43.818  30.536   1.318
98562W        W66903  25.589  30.643   1.318
98563W        W66904  21.554  19.635  12.041
98564W        W66905   6.368  33.086   0.825
98565W        W66906  38.555  35.563  13.886
98566W        W66907  44.861  34.439   0.347
98567W        W66908  43.341  31.119  10.607
98568W        W66909  40.528  23.618  12.855
98569W        W66910   2.450  16.299   2.310
98570W        W66911  34.606   2.286   3.666
98571W        W66912  41.906  16.621   1.213
98572W        W66913  21.731  19.127  14.282
98573W        W66914   2.744  15.705   4.684
98574W        W66915  17.645  19.234  11.039
98575W        W66916  17.760  33.941  14.322
98576W        W66917  41.891  35.915   4.339
98577W        W66918  26.656   6.208  13.407
98578W        W66919   5.839  24.070   3.683
98579W        W66920  20.528  14.805   4.754
98580W        W66921   7.182  27.626  14.768
98581W        W66922  28.107  25.184  11.976
98582W        W66923   5.195  25.577   1.332
98583W        W66924  32.579   0.790   3.857
98584W        W66925   0.418  40.440  13.942
98585W        W66926  34.890  31.114  12.386
98586W        W66927   6.833   9.367   3.164
98587W        W66928  20.610  42.447   1.417
98588W        W66929  11.627   7.224  10.576
98589W        W66930  20.192  29.453  11.003
98590W        W66931   0.750   0.428   0.896
98591W        W66932  42.785  39.558   0.274
98592W        W66933  39.922  11.800   4.638
98593W        W66934   0.383  34.598   1.276
98594W        W66935  15.128   6.684  10.506
98595W        W66936  29.080  26.202   4.200
98596W        W66937  13.221   4.272   1.415
98597W        W66938  39.844  42.329  14.513
98598W        W66939  12.642  19.705   1.231
98599W        W66940  17.228  13.345  13.949
98600W        W66941   1.437   8.865   1.329
98601W        W66942   7.231   3.277   1.314
98602W        W66943   1.930  32.017  10.899
98603W        W66944   6.738   8.666  12.062
98604W        W66945   3.908  22.055   4.291
98605W        W66946  11.621  43.367   0.916
98606W        W66947  16.282  15.109   0.251
98607W        W66948  39.970   4.785   2.339
98608W        W66949  31.008  11.749  11.392
98609W        W66950   5.809  36.009   2.763
98610W        W66951  34.947   6.260  11.428
98611W        W66952   4.914  42.937  10.634
98612W        W66953  23.703  17.556   4.833
98613W        W66954  24.140  29.544   2.332
98614W        W66955  41.453  44.397  12.908
98615W        W66956  42.834  15.189   1.314
98616W        W66957  30.967  23.135  11.571
98617W        W66958   9.183  23.581   4.255
98618W        W66959  23.678   9.728   1.322
98619W        W66960  25.654  15.230   0.338
98620W        W66961  43.311  42.287   1.719
98621W        W66962  40.507  30.557  11.517
98622W        W66963  44.485  19.658   1.753
98623W        W66964  20.721  38.435   4.630
98624W        W66965   1.847  27.581  11.407
98625W        W66966  34.604  21.746   3.204
98626W        W66967  36.433   5.328   3.258
98627W        W66968  27.541  19.191   3.816
98628W        W66969  12.761  22.196  10.601
98629W        W66970  40.928  41.427  10.040
98630W        W66971  20.638  23.595  11.890
98631W        W66972  11.351  36.008  13.794
98632W        W66973   4.276  28.007  10.485
98633W        W66974  29.972  21.568   4.174
98634W        W66975  44.977   9.358   0.400
98635W        W66976  24.584  36.929  13.406
98636W        W66977   3.293   8.829   1.744
98637W        W66978   6.351  27.133  12.397
98638W        W66979  28.628   8.369   2.888
98639W        W66980   0.884   6.896   1.373
98640W        W66981  40.845  28.972  12.516
98641W        W66982   4.244  31.599   4.681
98642W        W66983  30.969  35.564   1.771
98643W        W66984  12.783  35.407   0.396
98644W        W66985  20.248   8.249  11.583
98645W        W66986   4.901   0.779  11.481
98646W        W66987  43.857  44.901   4.616
98647W        W66988  32.518  21.062   4.248
98648W        W66989  37.519  44.446   0.445
98649W        W66990  29.049  37.355  11.451
98650W        W66991   3.457  19.666   1.865
98651W        W66992  14.744  18.093  12.552
98652W        W66993  38.970   2.430   4.191
98653W        W66994  34.488   8.861   0.338
98654W        W66995   7.399   5.715   3.656
98655W        W66996  37.581  37.582  12.495
98656W        W66997  39.869  22.126  14.849
98657W        W66998   7.221   4.871   1.895
98658W        W66999  26.614  25.625  13.028
98659W        W67000  24.222  19.261  13.943
98660W        W67001  23.176  13.713  12.460
98661W        W67002  29.119  35.854  14.028
98662W        W67003  13.286  28.531   1.694
98663W        W67004  43.407   5.895  13.311
98664W        W67005  21.692  44.805   1.419
98665W        W67006  18.661  23.546  10.566
98666W        W67007  24.653  19.672   1.218
98667W        W67008   0.444  31.008   2.676
98668W        W67009   4.293  18.549   4.622
98669W        W67010   2.867  17.178   0.841
98670W        W67011  25.570  34.541  14.861
98671W        W67012  38.465  16.166   2.410
98672W        W67013   7.861  10.734   1.236
98673W        W67014  19.540  35.386  10.994
98674W        W67015  40.450  29.977  11.434
98675W        W67016  43.399   0.372   2.410
98676W        W67017  37.969   9.779  10.545
98677W        W67018  41.900   1.973   4.294
98678W        W67019   9.833  23.041   3.232
98679W        W67020  44.976  20.758   2.348
98680W        W67021  18.612   6.773  11.016
98681W        W67022  43.290  41.522   4.164
98682W        W67023  27.530  41.942  13.909
98683W        W67024  13.611  19.191  11.069
98684W        W67025  27.055  21.180   1.309
98685W        W67026  36.571  29.994  14.804
98686W        W67027  26.087  19.670  13.039
98687W        W67028  18.096  38.047   1.323
98688W        W67029  41.871  37.875  12.053
98689W        W67030  32.015  14.648   0.381
98690W        W67031  42.401  44.897  11.868
98691W        W67032   8.798  28.665  14.918
98692W        W67033  24.668  20.246  14.368
98693W        W67034  13.168  30.529  11.920
98694W        W67035  31.406  38.980   4.335
98695W        W67036  13.709  43.847   4.228
98696W        W67037  29.031  25.467   0.287
98697W        W67038  43.983  20.062   3.708
98698W        W67039   5.407  22.635   1.390
98699W        W67040  34.434  12.798   2.774
98700W        W67041  30.157  13.744   4.259
98701W        W67042  30.054  25.058   2.898
98702W        W67043  31.502   6.326   2.887
98703W        W67044  40.010  35.080  10.543
98704W        W67045  44.983  36.884   0.738
98705W        W67046  41.891  39.851  10.996
98706W        W67047  26.040   6.894  10.603
98707W        W67048  37.936  15.109  14.439
98708W        W67049  39.003  35.560  14.424
98709W        W67050  28.673  44.406   4.129
98710W        W67051  13.786  11.138   3.370
98711W        W67052  17.261  20.120   2.241
98712W        W67053   6.266   5.781   1.908
98713W        W67054  24.533  10.351  10.984
98714W        W67055  33.388   7.343   3.349
98715W        W67056  11.257  11.188  10.043
98716W        W67057   8.698  17.797  14.860
98717W        W67058  17.111  25.713  11.387
98718W        W67059   2.944  21.630   0.461
98719W        W67060  41.538   3.742  11.084
98720W        W67061  14.714  12.318   4.156
98721W        W67062   8.765  30.656  14.306
98722W        W67063  29.063  13.194   3.809
98723W        W67064   5.768  17.556   0.295
98724W        W67065  10.865  29.054   3.280
98725W        W67066  17.590  42.511  11.484
98726W        W67067  37.830  13.651   2.396
98727W        W67068  39.879  25.618   4.247
98728W        W67069   9.839  13.635  14.797
98729W        W67070   6.375   2.280   3.866
98730W        W67071  11.133   6.365   0.281
98731W        W67072  29.539  13.230  13.377
98732W        W67073  11.640  14.142  14.319
98733W        W67074  43.300  25.700  12.993
98734W        W67075   2.944  28.163   0.370
98735W        W67076  31.559   5.728   1.214
98736W        W67077  32.442   8.293  13.892
98737W        W67078  31.073  39.388  12.036
98738W        W67079  13.721  35.996   3.329
98739W        W67080   4.399  44.319   2.397
98740W        W67081  18.552  28.991   3.704
98741W        W67082  35.071   8.277   4.832
98742W        W67083  31.411   2.766   1.367
98743W        W67084  39.971  33.622   1.385
98744W        W67085  32.898  26.158   1.415
98745W        W67086  23.165  36.555   4.599
98746W        W67087   3.272   1.902  14.436
98747W        W67088  15.191  18.148  11.546
98748W        W67089  24.708  35.364   0.254
98749W        W67090   6.284   8.259  11.926
98750W        W67091   0.278  44.468   1.327
98751W        W67092  38.332  36.372  11.469
98752W        W67093  18.200   5.316   0.955
98753W        W67094   8.174  29.666   4.661
98754W        W67095  10.714   7.875   2.405
98755W        W67096   8.774   7.901  11.008
98756W        W67097  30.450   7.845  11.922
98757W        W67098  28.563  31.545   3.282
98758W        W67099  21.745  36.359   4.143
98759W        W67100  23.091  26.153   3.255
98760W        W67101  31.560  16.235  12.427
98761W        W67102  35.900  27.072   1.352
98762W        W67103   3.827  19.585  11.056
98763W        W67104  20.645   4.786  14.906
98764W        W67105   4.266  11.705   0.334
98765W        W67106  11.833  42.486   4.290
98766W        W67107  35.003  28.028  10.140
98767W        W67108   5.779   4.878   4.238
98768W        W67109   9.244  35.890  12.357
98769W        W67110   4.804  12.130  13.964
98770W        W67111  33.002  22.215   3.684
98771W        W67112   9.372  29.040  11.536
98772W        W67113  22.139  33.081   3.201
98773W        W67114  37.933   3.730  13.979
98774W        W67115  20.036  42.474   4.757
98775W        W67116  34.500   9.334   3.667
98776W        W67117  16.749  44.328  13.811
98777W        W67118  42.873  11.729   1.736
98778W        W67119  44.987  14.699   3.850
98779W        W67120  41.357  17.793   4.671
98780W        W67121   2.445  35.563  11.062
98781W        W67122  18.556   2.761   4.781
98782W        W67123  24.982  43.362   1.394
98783W        W67124  25.106  28.173   2.675
98784W        W67125   5.883   2.720  15.000
98785W        W67126   9.380  31.938   3.780
98786W        W67127  17.612  10.713   4.164
98787W        W67128  11.243  12.288  11.963
98788W        W67129   0.979   6.739  11.011
98789W        W67130  15.294  40.901   1.366
98790W        W67131   4.867   7.243   0.469
98791W        W67132  33.008  33.955   4.663
98792W        W67133  12.719   2.456   0.756
98793W        W67134  12.645   9.392  13.825
98794W        W67135  15.298   2.420   1.723
98795W        W67136   2.269  36.484  11.424
98796W        W67137  36.945  36.856   2.680
98797W        W67138  38.359  12.343  13.901
98798W        W67139  33.926  27.963   3.787
98799W        W67140  44.263  31.062  11.412
98800W        W67141  25.602  28.967   0.852
98801W        W67142  29.047  31.092  13.330
98802W        W67143  28.575  42.904   3.336
98803W        W67144  18.651   9.320   2.237
98804W        W67145  17.296  16.657   4.733
98805W        W67146   1.844  41.852  11.398
98806W        W67147  27.007   4.217   0.356
98807W        W67148  20.216  43.501   0.958
98808W        W67149   7.192  13.296   4.779
98809W        W67150  17.566  39.054   4.260
98810W        W67151   9.846  41.473  12.007
98811W        W67152  17.206  17.780   2.192
98812W        W67153   7.308  42.473   3.222
98813W        W67154  33.880  33.574  11.566
98814W        W67155  31.898  33.124   1.321
98815W        W67156  31.002   2.761   0.887
98816W        W67157  29.443  29.660   2.263
98817W        W67158   2.770  20.594  14.893
98818W        W67159  37.988  25.600   2.275
98819W        W67160   0.369   8.294   3.164
98820W        W67161  43.817  29.460  12.047
98821W        W67162   3.724  10.171  13.034
98822W        W67163  39.056  31.023  14.857
98823W        W67164   0.408  19.716   0.745
98824W        W67165  17.202  17.092   1.900
98825W        W67166  33.492  19.552   3.286
98826W        W67167  36.529  15.614   4.665
98827W        W67168  16.165  12.614   4.836
98828W        W67169  24.618   2.896  11.006
98829W        W67170  18.179  18.717  11.411
98830W        W67171  44.302   1.385   0.386
98831W        W67172   0.811   1.356   4.354
98832W        W67173  44.920  12.331  14.766
98833W        W67174   2.756  41.002   4.297
98834W        W67175  27.573  13.804   4.662
98835W        W67176  39.424  35.867  12.991
98836W        W67177  32.032  27.003  11.407
98837W        W67178  41.839   5.925   4.659
98838W        W67179  27.112  21.715  11.917
98839W        W67180  19.074   5.860   0.918
98840W        W67181  34.465  26.657  14.808
98841W        W67182  21.194  34.009   4.741
98842W        W67183  17.795   7.304  10.546
98843W        W67184  21.690  42.370  12.405
98844W        W67185  39.045   5.426   9.931
98845W        W67186   5.735  36.436   0.849
98846W        W67187  31.112   0.910  10.574
98847W        W67188   8.382  20.058  14.288
98848W        W67189  28.955  39.863   1.891
98849W        W67190  24.026   1.861  11.028
98850W        W67191  25.088  14.150  14.883
98851W        W67192  21.741  32.401  14.964
98852W        W67193  13.617  38.363   0.788
98853W        W67194  15.740   2.418   0.966
98854W        W67195  34.405  35.088  10.957
98855W        W67196  28.446  21.740   2.789
98856W        W67197  15.291  30.589   1.256
98857W        W67198  16.253  35.574   3.372
98858W        W67199  28.630  23.706  14.925
98859W        W67200   3.851  20.577   1.353
98860W        W67201  19.215   0.351   1.420
98861W        W67202  20.049  30.440  13.449
98862W        W67203  31.992  10.708  14.429
98863W        W67204  42.947   8.196  10.553
98864W        W67205  10.742  30.033  13.308
98865W        W67206  28.590  29.924  14.363
98866W        W67207  21.189  29.635  11.859
98867W        W67208  43.767   5.409  10.500
98868W        W67209  42.511  10.152   0.341
98869W        W67210  38.433   8.791  14.802
98870W        W67211   8.847  24.701   4.687
98871W        W67212  17.693  23.027   1.711
98872W        W67213  19.667  21.080   4.817
98873W        W67214   3.246  27.542   4.135
98874W        W67215  24.024   1.826  14.488
98875W        W67216  30.551  31.002  14.829
98876W        W67217  29.451   0.901   9.996
98877W        W67218  18.690  44.875  12.931
98878W        W67219  15.312  23.713   1.705
98879W        W67220  27.974  44.304  12.432
98880W        W67221  29.107  38.454  14.456
98881W        W67222   7.368  14.615  14.464
98882W        W67223  37.895  16.317  11.394
98883W        W67224  34.101  41.979   3.726
98884W        W67225  12.726  14.186  14.448
98885W        W67226  27.171  12.803  13.534
98886W        W67227  25.085  16.103   5.601
98887W        W67228   3.743  16.216  12.841
98888W        W67229  16.642  28.039  13.410
98889W        W67230  18.271   0.895   4.777
98890W        W67231  10.273  25.702   3.194
98891W        W67232  13.193  39.334  12.364
98892W        W67233  26.201  17.638  10.417
98893W        W67234   3.746  43.363  14.418
98894W        W67235  36.002  15.135  13.886
98895W        W67236  25.132  30.101   5.185
98896W        W67237  42.817   2.741  11.420
98897W        W67238  12.849   0.828   2.819
98898W        W67239  25.178  33.515  12.366
98899W        W67240  40.390  14.259   1.368
98900W        W67241   4.732   9.330   0.765
98901W        W67242   6.203  13.688  11.578
98902W        W67243  37.990  26.583   3.173
98903W        W67244  44.321   4.294  11.954
98904W        W67245  35.971  14.103  13.506
98905W        W67246  25.684  17.156   3.719
98906W        W67247  29.607  23.051   4.823
98907W        W67248  22.547  44.876  13.523
98908W        W67249   3.272  20.666  14.974
98909W        W67250  29.572   2.339   0.470
98910W        W67251  44.391  21.614  13.363
98911W        W67252  17.720  12.799  13.986
98912W        W67253  11.788  24.212  12.433
98913W        W67254   3.374  33.120   4.314
98914W        W67255  30.020  13.106  11.488
98915W        W67256  44.350  16.759  10.445
98916W        W67257  32.029  17.163   2.412
98917W        W67258  41.296  27.052  11.080
98918W        W67259  26.642  25.620   0.831
98919W        W67260  18.673  20.270   3.828
98920W        W67261  41.963  33.516   4.679
98921W        W67262  41.343   7.315   1.358
98922W        W67263  13.180  28.126   1.810
98923W        W67264  34.538  17.123  10.491
98924W        W67265  39.436   7.889   4.151
98925W        W67266  26.519  13.749   3.706
98926W        W67267  39.837   5.734   2.782
98927W        W67268  25.176  21.054   3.825
98928W        W67269  38.852  30.497   1.740
98929W        W67270  11.826  33.964   2.721
98930W        W67271  33.990  26.558  12.489
98931W        W67272   3.337  44.408   1.254
98932W        W67273  15.595  24.051   5.275
98933W        W67274  18.572   7.876  11.459
98934W        W67275  26.063  31.467  10.467
98935W        W67276  30.598  27.662  12.898
98936W        W67277  16.704   2.255   3.369
98937W        W67278  33.474  39.482  11.520
98938W        W67279  23.612  27.960  10.978
98939W        W67280  31.069  21.590   1.838
98940W        W67281  30.131  41.838   4.809
98941W        W67282   7.759   0.371   0.292
98942W        W67283   6.858  26.478  13.511
98943W        W67284  14.643  27.017  14.763
98944W        W67285  41.483  40.889  12.898
98945W        W67286  21.607  35.952   4.788
98946W        W67287   2.293   7.205  12.965
98947W        W67288   8.681  42.802  13.958
98948W        W67289  30.535  32.073   3.825
98949W        W67290  13.704  21.569   2.694
98950W        W67291   2.960  44.801  12.947
98951W        W67292   7.299  44.492  10.999
98952W        W67293  12.276   8.808   3.766
98953W        W67294   4.848  12.835  14.896
98954W        W67295  37.970   2.809  12.894
98955W        W67296  30.067  37.906  14.788
98956W        W67297  21.064  15.095   2.869
98957W        W67298  17.227  24.636   4.304
98958W        W67299   5.327  44.483   1.821
98959W        W67300  26.103  22.138  11.059
98960W        W67301   9.386  36.526   1.759
98961W        W67302  24.589   9.825  11.011
98962W        W67303   2.825  27.050  12.910
98963W        W67304  41.797  27.012   2.843
98964W        W67305  39.857  32.424   3.680
98965W        W67306  19.099  23.180  14.460
98966W        W67307  11.284  29.989   0.428
98967W        W67308  36.856  32.543  14.859
98968W        W67309   4.930   9.169   3.263
98969W        W67310  20.630  38.540  12.369
98970W        W67311  40.837   1.412  13.539
98971W        W67312  24.051  30.653  13.434
98972W        W67313  17.801  26.035  13.845
98973W        W67314  17.593  43.003   1.239
98974W        W67315   6.803  31.989   3.842
98975W        W67316  38.074  23.025  12.085
98976W        W67317  22.154  11.738   2.741
98977W        W67318  27.126  25.652   3.649
98978W        W67319  24.078  18.231  12.873
98979W        W67320  26.195  33.415   4.678
98980W        W67321  17.144  17.746  14.330
98981W        W67322  16.306  26.690   2.228
98982W        W67323  23.594  23.513   3.312
98983W        W67324  39.423  34.918  11.433
98984W        W67325  31.432   0.287   4.328
98985W        W67326  10.250  11.228   1.748
98986W        W67327   4.350  34.972  13.971
98987W        W67328   8.901   6.887   3.759
98988W        W67329  36.430   5.202   1.366
98989W        W67330  23.191  31.645  11.924
98990W        W67331  36.956  27.653   0.870
98991W        W67332  21.052  39.964  13.384
98992W        W67333  17.181  10.809  10.498
98993W        W67334  18.696  22.539   0.359
98994W        W67335  41.924  14.794   3.338
98995W        W67336   0.916  10.836   3.366
98996W        W67337  19.179  30.440  14.787
98997W        W67338  17.555   2.472  10.597
98998W        W67339   8.879  43.804  11.479
98999W        W67340  31.085  34.419  13.818
99000W        W67341  26.518  39.843   3.833
99001W        W67342  43.838  37.078  14.300
99002W        W67343  18.250  33.904   2.804
99003W        W67344  15.628  36.011   4.222
99004W        W67345  38.827  29.644   3.304
99005W        W67346  32.901  27.107  14.374
99006W        W67347  42.779   0.870  13.798
99007W        W67348  12.751  43.362   2.853
99008W        W67349  12.124  43.440  11.952
99009W        W67350  34.872   9.240   3.804
99010W        W67351  33.108  18.120  11.545
99011W        W67352  12.761  40.880  12.580
99012W        W67353  32.456  33.973  14.788
99013W        W67354  16.295  34.370   3.829
99014W        W67355   1.274  42.960  11.085
99015W        W67356  41.814  31.949  11.587
99016W        W67357  12.246   5.932  13.910
99017W        W67358  44.912  35.084   4.154
99018W        W67359  18.687   3.289  13.017
99019W        W67360  15.277  11.794  10.907
99020W        W67361  19.629  38.498  11.458
99021W        W67362  43.900   7.184  10.935
99022W        W67363  28.469   5.379  12.844
99023W        W67364   4.224  29.149  12.069
99024W        W67365  23.629  36.001   4.789
99025W        W67366  37.006  11.229  11.444
99026W        W67367   0.800   6.386   4.787
99027W        W67368  18.679   0.776  10.437
99028W        W67369  10.687  12.769   1.398
99029W        W67370  44.812   3.362   4.808
99030W        W67371  31.122  14.140  13.328
99031W        W67372   7.717  25.068  13.503
99032W        W67373   2.886   3.415  14.428
99033W        W67374  42.447  38.533  11.509
99034W        W67375  17.079  35.470   2.407
99035W        W67376  25.970  15.823   3.256
99036W        W67377  11.780  12.791   4.225
99037W        W67378  10.376   0.829  12.016
99038W        W67379  29.012   3.719   1.865
99039W        W67380   4.770  27.986  10.002
99040W        W67381  28.170   1.785   5.122
99041W        W67382  27.663  34.588  10.461
99042W        W67383  14.685  28.647  14.030
99043W        W67384  27.041  43.769  14.361
99044W        W67385  14.332  39.903  13.523
99045W        W67386  44.961   6.199   4.708
99046W        W67387   1.303  44.958  11.955
99047W        W67388  38.868  42.920   5.175
99048W        W67389  10.314  14.283   3.695
99049W        W67390  43.461  31.565   1.266
99050W        W67391  41.953  21.207   2.308
99051W        W67392  30.108  25.697  13.938
99052W        W67393  23.734  37.451   2.284
99053W        W67394  35.013  19.698   4.632
99054W        W67395  25.540   3.900  10.472
99055W        W67396  35.376  18.698  10.923
99056W        W67397   3.285  43.337   3.261
99057W        W67398   9.220  39.927   3.762
99058W        W67399  20.693  20.161   2.295
99059W        W67400  35.965  34.949   3.678
99060W        W67401  12.242  18.559   4.665
99061W        W67402  19.064  14.768  12.004
99062W        W67403  43.307  30.612  14.463
99063W        W67404  11.220  19.172   2.728
99064W        W67405  28.521   6.775  13.003
99065W        W67406  17.671  22.117  11.059
99066W        W67407  23.710   7.355   3.224
99067W        W67408   1.846  24.978  11.905
99068W        W67409   6.264  12.714   2.393
99069W        W67410  15.627   4.854  13.882
99070W        W67411  30.985  19.254   3.793
99071W        W67412  15.180  36.576   0.461
99072W        W67413   8.828  12.299  10.600
99073W        W67414  16.260  18.095   3.674
99074W        W67415  11.845   1.756  11.371
99075W        W67416   9.665   6.207  13.804
99076W        W67417  27.045  35.556  10.474
99077W        W67418  41.311  11.271  12.086
99078W        W67419  12.306  38.905   0.941
99079W        W67420  30.421  31.996   2.266
99080W        W67421  24.593   2.368   4.816
99081W        W67422   5.360  26.587  13.942
99082W        W67423  20.156   6.724   2.326
99083W        W67424  23.009   1.906  10.576
99084W        W67425   2.772  14.723   4.795
99085W        W67426  33.040  32.509   0.242
99086W        W67427   0.307  10.772   1.713
99087W        W67428   1.896   2.233  10.578
99088W        W67429  20.661   5.863   2.704
99089W        W67430  33.127  40.445  12.067
99090W        W67431  34.952   2.385   4.831
99091W        W67432   5.869  14.231  13.389
99092W        W67433   5.887  23.605  12.559
99093W        W67434   5.801  12.777   0.757
99094W        W67435  18.580  15.618   4.320
99095W        W67436  37.911  22.019   0.245
99096W        W67437   4.290  21.592  12.826
99097W        W67438  12.850  20.632   2.830
99098W        W67439  30.989  17.207   4.131
99099W        W67440  19.620  30.621  14.844
99100W        W67441  14.269  43.976  12.364
99101W        W67442   0.361  25.550  13.967
99102W        W67443  18.131  39.047  11.491
99103W        W67444  35.067  43.818  12.574
99104W        W67445  24.996   3.914   2.408
99105W        W67446  38.328  43.930   4.753
99106W        W67447   4.779  32.120  10.509
99107W        W67448  37.488   4.318   2.269
99108W        W67449   5.324  10.792   4.257
99109W        W67450   0.874  27.037  12.913
99110W        W67451  25.638  40.374   0.889
99111W        W67452   9.313  22.572   1.408
99112W        W67453  27.457   0.393   0.280
99113W        W67454  35.366   2.802  12.044
99114W        W67455  43.831  41.885   1.854
99115W        W67456   3.767  28.516   1.875
99116W        W67457  22.135  44.300  11.561
99117W        W67458  38.391  10.643  13.871
99118W        W67459  24.522   8.302   1.767
99119W        W67460  28.651  17.257   9.957
99120W        W67461  23.559  41.844   1.746
99121W        W67462  12.336   8.828  12.396
99122W        W67463  42.949  19.654   4.709
99123W        W67464  25.195  36.389   2.670
99124W        W67465   9.795   6.687  11.558
99125W        W67466  21.076  33.977   1.768
99126W        W67467  38.505  33.609   2.384
99127W        W67468  26.645  11.744   4.131
99128W        W67469  21.714  13.326  10.518
99129W        W67470  15.812  44.824   9.943
99130W        W67471  15.208  13.195   1.847
99131W        W67472  29.484  43.477  13.997
99132W        W67473  22.046   0.387   4.741
99133W        W67474  21.571  12.636  12.463
99134W        W67475  37.396  39.520  14.959
99135W        W67476  30.434  17.081   0.287
99136W        W67477   1.298   2.773  11.087
99137W        W67478  13.678  26.620  14.320
99138W        W67479  32.894  42.520   5.088
99139W        W67480   5.857  24.569  14.374
99140W        W67481  24.653  43.814   2.250
99141W        W67482   6.759   9.316   0.924
99142W        W67483  44.494  34.530   1.784
99143W        W67484  17.284  37.994   3.823
99144W        W67485  12.654   6.338  13.500
99145W        W67486   8.370  29.029   3.799
99146W        W67487   6.737  29.557  11.438
99147W        W67488  41.850   2.292   1.868
99148W        W67489  14.246  26.603  11.506
99149W        W67490  23.516  42.957  11.444
99150W        W67491  26.064  21.094   5.177
99151W        W67492  43.468  18.163   0.920
99152W        W67493  43.335  36.438  11.884
99153W        W67494  25.087   1.483  11.861
99154W        W67495  28.665  38.037   3.675
99155W        W67496  33.564  40.978   2.215
99156W        W67497  31.137   6.804  10.617
99157W        W67498  36.375  21.139   3.203
99158W        W67499   9.288   0.820   2.341
99159W        W67500  18.647   3.400   3.221
99160W        W67501   7.685  12.211   2.278
99161W        W67502  37.914  31.637  13.854
99162W        W67503  20.201  10.717   4.795
99163W        W67504  28.521  11.307  13.541
99164W        W67505  37.945  16.600  13.846
99165W        W67506   5.727   5.883   3.207
99166W        W67507  37.537  17.680  10.586
99167W        W67508  15.212  22.150   0.410
99168W        W67509  16.146   5.853   3.270
99169W        W67510  17.271  44.782   4.674
99170W        W67511  14.621  28.063   4.603
99171W        W67512   6.716  24.127  14.844
99172W        W67513  33.927  29.936   0.249
99173W        W67514  14.279  15.717  11.573
99174W        W67515   4.704  24.158  14.863
99175W        W67516  34.038  12.119  13.912
99176W        W67517  35.413   4.805   2.369
99177W        W67518  13.621  34.895   0.920
99178W        W67519  36.416   8.300  10.561
99179W        W67520  28.613  23.689   4.671
99180W        W67521  14.644  25.657   2.788
99181W        W67522   5.890   7.671   0.397
99182W        W67523  29.458  11.654   4.798
99183W        W67524  15.649  32.602   3.870
99184W        W67525  14.651  23.514  14.873
99185W        W67526  29.585  32.126  11.919
99186W        W67527  25.144  10.301  11.924
99187W        W67528   2.868  18.156  12.418
99188W        W67529  24.084  28.065   2.732
99189W        W67530   8.836  10.322   0.465
99190W        W67531  12.346   5.421   3.275
99191W        W67532  23.714  12.337   2.782
99192W        W67533  34.972  32.622  14.416
99193W        W67534  15.131   8.764  11.870
99194W        W67535  42.506   2.926  11.975
99195W        W67536  39.546  24.190  11.099
99196W        W67537  41.847  25.009  10.948
99197W        W67538   3.943  18.270  13.478
99198W        W67539  11.226  21.171  14.846
99199W        W67540   2.790  39.372  12.089
99200W        W67541  15.655  39.911  12.935
99201W        W67542   8.770  12.629   1.216
99202W        W67543  32.054  26.584   1.328
99203W        W67544  30.012  31.992   4.234
99204W        W67545  23.992  16.770   2.809
99205W        W67546  38.991   1.916  10.446
99206W        W67547  11.660  19.726   1.222
99207W        W67548  44.303   3.242   1.359
99208W        W67549  39.017  39.036   1.260
99209W        W67550  19.573   3.874  13.315
99210W        W67551  42.987  13.148  10.490
99211W        W67552   4.798  23.524  13.481
99212W        W67553  40.899   5.822  12.567
99213W        W67554  33.607   3.879  10.945
99214W        W67555  38.996  14.200   2.836
99215W        W67556  10.847  12.836  11.578
99216W        W67557  20.633  33.051  13.829
99217W        W67558  25.120  32.595  12.966
99218W        W67559  44.358  35.984  14.342
99219W        W67560  10.820  25.620   3.793
99220W        W67561   7.694  44.325  11.979
99221W        W67562  37.949   5.375  10.621
99222W        W67563  28.444  39.054  13.371
99223W        W67564  32.604  35.004  10.615
99224W        W67565  29.989  12.243   1.862
99225W        W67566   5.904  22.745  12.346
99226W        W67567  39.911   0.790  13.371
99227W        W67568  43.765  25.611  11.911
99228W        W67569   8.406  42.366  14.871
99229W        W67570  34.421   6.368  13.498
99230W        W67571  36.510  43.895   0.439
99231W        W67572  28.586  17.203   2.323
99232W        W67573  26.618  32.041   4.795
99233W        W67574  16.141  15.820   0.809
99234W        W67575   5.365  41.451  11.907
99235W        W67576  16.792  24.511  14.018
99236W        W67577  13.158  28.600   0.907
99237W        W67578   5.886  14.705   4.337
99238W        W67579  11.332  25.674   4.244
99239W        W67580   0.961  29.036  13.332
99240W        W67581  12.326  28.466   4.835
99241W        W67582  20.194   2.454  14.917
99242W        W67583  24.526  34.988  11.526
99243W        W67584  27.157  15.236   1.776
99244W        W67585  34.572  39.366   0.947
99245W        W67586  30.151  22.691   3.816
99246W        W67587  32.980  23.110   0.950
99247W        W67588   6.746   8.258  10.980
99248W        W67589   9.746  32.489   4.121
99249W        W67590   5.264  19.701  12.956
99250W        W67591  28.154  32.954  11.555
99251W        W67592   0.391  41.022   2.335
99252W        W67593  27.474  25.188  10.447
99253W        W67594  37.549  42.941   1.766
99254W        W67595  13.130  19.098   4.316
99255W        W67596  22.159  37.339   2.351
99256W        W67597  18.597  19.154  13.406
99257W        W67598   0.299  25.555   2.300
99258W        W67599  41.406  43.998   4.344
99259W        W67600  37.447  17.085  11.928
99260W        W67601   3.955  42.509   0.299
99261W        W67602   2.885   9.722  11.038
99262W        W67603  27.521  14.291   3.275
99263W        W67604   8.739  42.876  12.386
99264W        W67605  43.857  30.486   4.669
99265W        W67606  34.930  25.161  13.494
99266W        W67607   4.222  20.169  12.882
99267W        W67608  26.999   0.746   4.788
99268W        W67609  15.106  17.289   0.338
99269W        W67610  37.858  36.982   2.212
99270W        W67611  11.732  23.716   2.759
99271W        W67612  20.173  19.263   2.707
99272W        W67613   9.883  27.527   2.889
99273W        W67614   3.738  20.624  14.992
99274W        W67615  35.877   8.222  12.837
99275W        W67616   3.299  13.179   4.224
99276W        W67617  22.162  25.190  13.398
99277W        W67618  43.877  44.968  11.505
99278W        W67619  10.373  10.793  13.335
99279W        W67620  36.549   4.329   1.847
99280W        W67621  21.541   0.478  13.950
99281W        W67622  23.999   5.909   0.886
99282W        W67623  14.164  16.801   2.288
99283W        W67624  32.888   3.905   2.665
99284W        W67625  13.817  21.128   4.814
99285W        W67626  16.097  41.891   1.236
99286W        W67627  38.467  16.210  11.544
99287W        W67628  43.512  29.518   4.226
99288W        W67629  11.345  27.083  13.962
99289W        W67630  32.437  33.486  12.999
99290W        W67631   3.420  12.335  13.413
99291W        W67632  32.554  32.506  13.434
99292W        W67633  15.208  24.174  12.510
99293W        W67634   8.266  42.442  13.454
99294W        W67635  25.127  35.471  12.084
99295W        W67636   7.236   9.777   3.817
99296W        W67637   0.852  40.866   0.854
99297W        W67638  18.143  15.302  12.983
99298W        W67639  44.859  34.948   2.368
99299W        W67640   0.824  42.355   3.792
99300W        W67641   0.293  11.861   3.670
99301W        W67642  18.582   3.824  11.052
99302W        W67643  22.686  20.036   0.422
99303W        W67644  19.688  21.582  11.512
99304W        W67645  23.205  38.498  13.939
99305W        W67646  13.309  42.861  10.563
99306W        W67647   4.780  24.592   4.754
99307W        W67648  12.757   7.877   3.268
99308W        W67649  17.638  27.969  13.405
99309W        W67650  21.604  37.000   0.819
99310W        W67651  40.319  44.932   2.403
99311W        W67652  17.758  41.349   0.848
99312W        W67653  39.474  14.119  11.495
99313W        W67654  38.466   0.273   0.356
99314W        W67655   0.878  17.302   3.239
99315W        W67656  27.113  42.895   0.737
99316W        W67657  20.593  26.538  11.079
99317W        W67658  11.799  22.050  13.807
99318W        W67659  24.079  40.974   4.250
99319W        W67660   7.823  19.703   3.150
99320W        W67661  43.333  41.365  10.999
99321W        W67662  11.672  30.633   1.429
99322W        W67663  27.084  37.566   0.375
99323W        W67664  23.207  32.433   2.702
99324W        W67665  25.518  27.094   1.811
99325W        W67666  37.989  25.144  14.277
99326W        W67667   8.164  23.116   4.756
99327W        W67668   7.373  44.339   4.210
99328W        W67669  16.225  32.406   5.288
99329W        W67670  21.255  29.429   3.198
99330W        W67671  14.687  24.514   4.182
99331W        W67672  33.426  26.693   0.745
99332W        W67673  20.097  27.035  11.953
99333W        W67674  37.403  25.561   0.349
99334W        W67675  27.594  31.422  11.932
99335W        W67676  23.674  39.982  13.881
99336W        W67677  31.942  29.160  10.114
99337W        W67678  31.960  14.641  10.617
99338W        W67679   3.227   0.396  11.516
99339W        W67680   8.786  21.578   3.304
99340W        W67681  31.476  30.501  13.831
99341W        W67682  44.927  21.114   9.669
99342W        W67683  42.452  12.667   0.324
99343W        W67684   0.389  23.521  10.413
99344W        W67685  31.062  30.630  11.003
99345W        W67686  10.729  28.182  13.821
99346W        W67687  22.185  36.579   0.418
99347W        W67688  19.160  39.855  12.530
99348W        W67689  41.446  36.019   3.200
99349W        W67690   2.407  40.865  13.812
99350W        W67691  36.970  26.589  10.634
99351W        W67692   6.757  21.708   3.329
99352W        W67693   1.341  31.941   0.366
99353W        W67694  44.294  38.845  10.562
99354W        W67695   0.818  17.791  12.964
99355W        W67696  26.072  16.571   4.134
99356W        W67697  16.147   6.678   2.690
99357W        W67698  16.207  34.492  14.790
99358W        W67699  30.576  34.536  12.450
99359W        W67700  43.788  25.008  14.490
99360W        W67701   7.696  38.038  11.940
99361W        W67702  27.162  25.129  11.609
99362W        W67703   1.382  14.682   2.340
99363W        W67704  31.525  38.820   1.379
99364W        W67705  34.024  39.930   5.723
99365W        W67706   6.875  32.039   2.414
99366W        W67707  28.087  40.383   2.849
99367W        W67708   8.386   5.929   1.391
99368W        W67709  40.001  24.224  13.536
99369W        W67710  29.063  27.469  14.918
99370W        W67711  35.061  37.908  14.811
99371W        W67712  14.314  35.544   0.922
99372W        W67713  26.546   4.935  12.984
99373W        W67714  39.843  26.474  10.440
99374W        W67715  34.104  44.427   0.321
99375W        W67716  19.762  41.967  12.367
99376W        W67717  40.450  22.581  14.450
99377W        W67718  23.661   3.318  12.935
99378W        W67719  37.031  25.038   5.278
99379W        W67720   0.282  10.331  12.005
99380W        W67721  10.350  40.942   3.147
99381W        W67722   5.914  14.603  10.891
99382W        W67723   0.940   5.932  10.988
99383W        W67724  35.971  19.176   2.194
99384W        W67725  44.455  16.684   0.959
99385W        W67726  17.678   0.817   3.800
99386W        W67727  42.856  35.987  13.391
99387W        W67728  25.674  29.665   5.082
99388W        W67729  23.214  12.721  10.906
99389W        W67730  23.712  11.737  14.898
99390W        W67731  26.582  28.138   0.395
99391W        W67732  13.684  11.772   0.275
99392W        W67733   9.722  23.155   0.959
99393W        W67734  28.137   6.834   1.318
99394W        W67735  14.714  19.243   4.772
99395W        W67736  12.282  43.830  12.885
99396W        W67737   4.431  41.492   4.113
99397W        W67738  13.611  29.587  14.511
99398W        W67739  30.091  33.076   2.782
99399W        W67740  13.811  22.590  13.307
99400W        W67741  26.103   0.384  12.366
99401W        W67742   6.890  43.851   0.355
99402W        W67743  24.128  38.008   2.832
99403W        W67744  37.552  44.000  12.573
99404W        W67745   8.184  33.025  14.803
99405W        W67746  20.181  18.217  10.461
99406W        W67747  41.009   5.225  14.481
99407W        W67748  39.859  16.572  14.307
99408W        W67749  32.142  39.356   5.252
99409W        W67750  20.263   6.734  13.807
99410W        W67751  10.657  39.330   1.818
99411W        W67752  29.950  17.577   1.721
99412W        W67753   6.831  12.292   0.800
99413W        W67754  35.487   8.739  12.030
99414W        W67755  34.411  20.063   4.717
99415W        W67756  29.157  11.294  12.090
99416W        W67757   6.264   6.875  14.875
99417W        W67758  27.997   4.874   4.743
99418W        W67759  14.779  12.162   1.774
99419W        W67760   7.191  41.509   0.879
99420W        W67761  14.681  13.649   1.265
99421W        W67762  31.974  32.406   4.253
99422W        W67763  25.157  13.696   1.733
99423W        W67764  32.436  25.660  11.955
99424W        W67765   9.859  11.346   1.255
99425W        W67766  25.962   1.291  12.892
99426W        W67767  44.923   4.219   2.840
99427W        W67768  39.883   9.319  11.554
99428W        W67769  43.464   9.306  14.806
99429W        W67770   9.689  44.459  12.371
99430W        W67771  16.296   3.235  10.442
99431W        W67772   4.372  21.720  13.337
99432W        W67773  22.610   1.280   0.273
99433W        W67774   4.243  26.098   3.167
99434W        W67775  34.392  18.242   4.273
99435W        W67776  27.676  39.013  11.918
99436W        W67777   7.241  27.131   1.417
99437W        W67778  20.076   5.226  13.337
99438W        W67779  42.390  44.789   4.833
99439W        W67780  32.529  22.997   3.325
99440W        W67781  22.005   7.352  12.419
99441W        W67782  32.900   4.843   0.255
99442W        W67783  23.694  44.429   4.114
99443W        W67784   4.750   3.869   3.321
99444W        W67785  40.829   0.986  13.940
99445W        W67786   4.766  43.433   0.905
99446W        W67787  25.479   3.785   1.786
99447W        W67788  12.702  36.909   3.754
99448W        W67789  15.257  32.584   2.203
99449W        W67790  17.099  22.236  13.830
99450W        W67791  23.594   2.323  14.848
99451W        W67792  15.605   4.772   1.801
99452W        W67793  12.796  29.588   2.863
99453W        W67794  27.010  26.060   4.180
99454W        W67795  13.257   6.235   4.331
99455W        W67796  38.017  17.670  11.563
99456W        W67797  44.422  15.681  11.878
99457W        W67798  24.110  42.907   9.929
99458W        W67799  23.991   9.311  12.038
99459W        W67800  42.800  20.567   4.688
99460W        W67801  36.926  27.044  13.938
99461W        W67802   3.920  11.128   1.781
99462W        W67803   4.881  11.328  11.383
99463W        W67804  22.154  24.638   2.195
99464W        W67805  24.576  44.475  12.953
99465W        W67806  40.944  43.969   2.828
99466W        W67807   7.242  11.759   2.207
99467W        W67808  14.304  43.395  14.938
99468W        W67809  33.953  35.504   4.350
99469W        W67810  40.347  10.636  12.410
99470W        W67811  22.700  34.029   4.770
99471W        W67812  22.597  19.760   1.720
99472W        W67813  31.561  44.786  13.859
99473W        W67814  35.516  39.832   4.130
99474W        W67815  32.616  44.294  13.391
99475W        W67816  14.622  27.511   3.637
99476W        W67817  28.493  12.250  11.482
99477W        W67818  25.604  29.495   0.400
99478W        W67819   5.245   5.223   2.219
99479W        W67820  12.806  30.505  13.046
99480W        W67821  13.250  32.578   1.734
99481W        W67822   4.429  10.312   2.391
99482W        W67823  32.052  42.895  10.481
99483W        W67824  38.059  29.173   4.273
99484W        W67825  41.538  29.146   4.160
99485W        W67826   8.723   2.777  13.510
99486W        W67827  26.459  39.882  12.476
99487W        W67828  37.579  11.330   2.686
99488W        W67829  26.585  32.120  14.022
99489W        W67830  23.161   0.347  14.419
99490W        W67831   1.844  20.168   3.268
99491W        W67832  32.015  37.027   2.794
99492W        W67833   6.382  13.802  10.440
99493W        W67834  12.220   9.705   5.739
99494W        W67835  23.095   5.807   3.362
99495W        W67836  18.093  36.469  10.490
99496W        W67837  22.248   4.439  14.437
99497W        W67838  13.837  38.380   1.267
99498W        W67839   8.880  16.794  12.040
99499W        W67840  14.599  44.928  11.416
99500W        W67841  42.814  33.526  14.326
99501W        W67842  33.624  42.397   5.769
99502W        W67843  22.588   8.266   1.831
99503W        W67844   4.864  16.770  14.863
99504W        W67845  34.488  13.290  14.451
99505W        W67846  37.343   9.664  13.032
99506W        W67847  42.891  25.041  12.530
99507W        W67848  40.412  17.579  11.059
99508W        W67849   7.327  34.011   4.309
99509W        W67850  29.586  25.122   5.092
99510W        W67851  15.812  14.239   1.848
99511W        W67852  36.993  21.045  12.861
99512W        W67853   7.273  21.191  13.528
99513W        W67854  28.109  20.042   1.777
99514W        W67855  34.882  13.214   1.343
99515W        W67856   8.846   3.275   1.318
99516W        W67857   5.208  43.813  12.018
99517W        W67858  36.441  12.245   2.823
99518W        W67859  18.065  23.051   1.883
99519W        W67860   6.744  35.081   4.192
99520W        W67861  44.295  23.648  12.555
99521W        W67862  39.818  25.013   4.325
99522W        W67863  13.225  21.607  12.083
99523W        W67864  35.585  12.301   2.294
99524W        W67865  38.015  11.285  13.454
99525W        W67866  20.684  33.911   3.785
99526W        W67867  12.258   9.359  10.996
99527W        W67868  38.898  32.600  12.464
99528W        W67869  41.987  14.822  12.849
99529W        W67870  14.154   4.231   4.220
99530W        W67871  44.435  21.192  11.036
99531W        W67872   1.456   3.300   0.352
99532W        W67873  27.158   5.323  12.930
99533W        W67874  11.153   6.256   3.700
99534W        W67875  20.246  34.375  11.394
99535W        W67876  33.947  17.742   1.286
99536W        W67877  17.560  36.972  14.306
99537W        W67878  10.829  12.745   1.771
99538W        W67879  23.129  19.263  12.912
99539W        W67880   6.701  20.621  11.395
99540W        W67881  27.533   3.866  13.320
99541W        W67882  24.533  24.608  14.920
99542W        W67883  26.630  19.678  14.019
99543W        W67884  24.010  23.714   1.892
99544W        W67885  28.079  20.588  13.827
99545W        W67886  27.620  20.137  14.029
99546W        W67887  36.050  29.444   0.315
99547W        W67888   3.823  21.755   3.302
99548W        W67889   5.888  30.645  14.365
99549W        W67890  20.132  41.415  14.442
99550W        W67891  25.502  42.465   2.885
99551W        W67892  32.574   6.768  12.436
99552W        W67893  25.624  42.400   4.338
99553W        W67894  37.024  32.411  14.275
99554W        W67895  18.158  37.962  13.907
99555W        W67896   5.765  37.378   3.311
99556W        W67897   6.814  18.236   2.344
99557W        W67898   9.213   7.338   2.879
99558W        W67899  33.472  37.918  14.327
99559W        W67900  44.848  24.064  11.059
99560W        W67901  12.234  23.071   3.303
99561W        W67902  18.109  26.092   1.782
99562W        W67903  43.010   7.302  13.968
99563W        W67904  24.610   1.897  13.845
99564W        W67905   5.287  28.955   3.372
99565W        W67906  10.382   2.408  12.444
99566W        W67907  42.938  28.020  14.807
99567W        W67908  37.436  40.373  11.921
99568W        W67909  12.841  13.205   2.195
99569W        W67910  31.925  25.032   4.630
99570W        W67911   8.774  10.784   1.892
99571W        W67912  16.588  20.759   9.572
99572W        W67913   5.198   5.764   1.700
99573W        W67914  41.955  11.306   1.443
99574W        W67915  38.019  21.744  14.824
99575W        W67916   8.219  15.248   2.769
99576W        W67917  31.033  43.018  11.395
99577W        W67918  39.973   5.336  10.405
99578W        W67919  28.105   5.760   2.785
99579W        W67920  20.707  18.278   2.280
99580W        W67921  23.622   0.417  10.991
99581W        W67922  41.020  22.692   0.476
99582W        W67923  10.866  42.289   2.198
99583W        W67924  16.218   4.735   4.123
99584W        W67925  41.878   1.962  13.546
99585W        W67926   2.904  12.793   0.303
99586W        W67927  19.211  12.293  11.480
99587W        W67928   5.730  10.275   2.303
99588W        W67929  30.153  36.928   1.252
99589W        W67930  32.499   2.409   0.326
99590W        W67931  23.691  33.958   0.470
99591W        W67932  33.077  37.036  14.814
99592W        W67933   4.810  25.009   0.351
99593W        W67934  37.422  42.869  12.418
99594W        W67935  32.537  30.575   3.828
99595W        W67936  18.190  34.951  11.425
99596W        W67937   1.483  21.078  13.468
99597W        W67938  17.183  15.763   3.862
99598W        W67939  41.800  12.689   1.932
99599W        W67940  14.600  26.623   2.222
99600W        W67941   6.393  38.497  14.882
99601W        W67942  27.104  30.952   4.697
99602W        W67943  21.527  11.188  14.780
99603W        W67944  25.131  21.662  13.470
99604W        W67945  23.661  39.485   0.303
99605W        W67946  27.182  31.618   3.866
99606W        W67947   1.323   1.911  12.856
99607W        W67948  11.830  37.055   0.303
99608W        W67949  12.207  37.383   2.249
99609W        W67950  43.987  16.198  12.022
99610W        W67951  40.417   0.850   2.766
99611W        W67952  16.133  35.074   0.922
99612W        W67953  14.180   5.420  14.400
99613W        W67954  44.762  31.543   4.227
99614W        W67955  24.078  19.729   1.401
99615W        W67956   4.387   9.884   3.851
99616W        W67957  40.496  16.721  12.508
99617W        W67958  25.668  23.145   2.717
99618W        W67959  44.843  42.361  14.878
99619W        W67960  44.799   9.802   3.257
99620W        W67961  25.217  10.244  10.908
99621W        W67962  19.257  37.908  12.479
99622W        W67963   4.763   6.921  11.036
99623W        W67964   9.300  32.981   1.771
99624W        W67965  43.007  34.419  14.325
99625W        W67966   4.791  33.533  13.377
99626W        W67967  26.671  37.552   1.753
99627W        W67968  20.647  33.910   4.315
99628W        W67969  13.286  26.612   3.847
99629W        W67970  29.478  28.477   2.353
99630W        W67971  24.656  37.845   2.675
99631W        W67972   7.891  32.500  12.878
99632W        W67973  23.567  13.805  12.895
99633W        W67974  29.030  39.898  13.978
99634W        W67975  20.153  30.069   0.741
99635W        W67976   5.886  36.883   3.149
99636W        W67977  18.128  37.086   4.212
99637W        W67978  30.908  36.538  14.395
99638W        W67979  36.068  37.481   4.767
99639W        W67980   0.296   6.320   2.282
99640W        W67981   4.719  43.777  10.057
99641W        W67982   2.914  31.937  10.514
99642W        W67983  41.789  23.530   0.750
99643W        W67984  15.312  14.194   1.392
99644W        W67985  35.934  31.555  11.083
99645W        W67986  23.133   9.699   4.291
99646W        W67987   5.259  42.007  14.998
99647W        W67988  19.095  20.202   4.653
99648W        W67989  13.719  17.134   4.736
99649W        W67990  14.134   8.793  14.317
99650W        W67991   9.250  20.073  11.429
99651W        W67992   0.923  36.446  13.931
99652W        W67993  44.811  22.199   4.737
99653W        W67994  34.548   8.831  10.586
99654W        W67995  25.674  25.624  11.093
99655W        W67996  17.678  20.734   2.294
99656W        W67997  38.064  16.131   1.308
99657W        W67998  26.496   6.206  14.952
99658W        W67999  29.161  18.093   0.794
99659W        W68000  43.342  25.073   5.205
99660W        W68001  24.706  37.865  12.010
99661W        W68002  28.090  22.244  12.850
99662W        W68003   2.873  20.605  13.008
99663W        W68004  36.096  39.895  13.436
99664W        W68005  28.470  33.008  12.847
99665W        W68006  32.603  37.469  12.080
99666W        W68007   1.258   2.425  10.639
99667W        W68008  36.400   4.828  11.608
99668W        W68009  33.530  13.600   0.927
99669W        W68010  41.530  32.529  11.985
99670W        W68011  27.548  19.148   0.281
99671W        W68012   3.410  26.068   4.239
99672W        W68013  14.180  29.520  10.519
99673W        W68014  29.935  26.173  12.068
99674W        W68015   9.649  17.742  11.880
99675W        W68016  15.677  43.910  13.923
99676W        W68017   8.839   1.920  14.970
99677W        W68018  24.118   1.316  11.067
99678W        W68019  20.622  44.871  12.072
99679W        W68020  14.183   3.709   4.349
99680W        W68021  43.781  26.086   4.696
99681W        W68022  25.646  27.040   5.096
99682W        W68023  18.238  38.471  14.790
99683W        W68024  33.043  16.203   0.945
99684W        W68025  12.277   9.781  14.765
99685W        W68026  13.119   5.204   3.765
99686W        W68027  40.314  35.380  11.551
99687W        W68028   2.913   3.262   4.336
99688W        W68029  30.011   8.824  11.443
99689W        W68030  38.418   1.932   4.653
99690W        W68031  16.270  34.050   0.775
99691W        W68032  13.625  26.651  14.784
99692W        W68033  19.158   5.909   2.263
99693W        W68034  41.507  16.574   2.398
99694W        W68035  18.624  20.129   4.193
99695W        W68036   0.798   0.835   1.778
99696W        W68037  30.152   5.750  11.899
99697W        W68038  40.833  24.482   1.435
99698W        W68039  28.115  11.714  12.372
99699W        W68040  42.918   5.336   1.284
99700W        W68041  31.502  11.796   1.828
99701W        W68042  10.331   1.846   2.804
99702W        W68043  41.490  25.625   3.654
99703W        W68044  16.124  21.100   1.361
99704W        W68045  16.213  21.123  11.431
99705W        W68046  23.146  26.653  10.998
99706W        W68047   4.703  24.084  13.819
99707W        W68048  30.047  10.299   3.201
99708W        W68049  41.896  14.767   2.262
99709W        W68050  26.459  34.967   0.349
99710W        W68051  20.142  44.300   4.207
99711W        W68052  32.992  15.769  12.541
99712W        W68053  34.959  43.961  10.465
99713W        W68054   0.451   7.702  11.372
99714W        W68055  16.715  39.491   3.746
99715W        W68056  30.986  19.257   1.240
99716W        W68057  34.604   0.969  14.439
99717W        W68058  44.777  30.557  13.438
99718W        W68059  20.219  41.891  12.444
99719W        W68060  17.203  39.970  12.562
99720W        W68061  36.015  24.559   1.342
99721W        W68062  22.690  30.547   0.349
99722W        W68063  31.082  14.130   1.700
99723W        W68064   7.411  34.466   4.795
99724W        W68065  16.802   8.778  12.946
99725W        W68066  39.836  41.403  10.966
99726W        W68067  31.906  44.441  13.804
99727W        W68068  40.356  26.093   1.928
99728W        W68069  44.308  31.476   3.387
99729W        W68070  32.614  43.909   4.341
99730W        W68071  25.539  15.675  10.933
99731W        W68072  40.840  18.618  14.980
99732W        W68073  15.203  12.632   0.948
99733W        W68074  32.533   3.915   1.750
99734W        W68075  19.216  43.394   0.880
99735W        W68076  43.413   6.197  12.570
99736W        W68077  44.802  16.639   2.315
99737W        W68078  34.401  10.320   4.322
99738W        W68079  30.623  37.474  11.535
99739W        W68080  22.226   0.817  14.287
99740W        W68081  15.133  33.475   4.649
99741W        W68082  33.065  30.996  14.491
99742W        W68083  37.479  10.863  13.957
99743W        W68084  24.625  34.505  14.475
99744W        W68085  17.294  22.064   0.272
99745W        W68086   8.192  41.851   1.707
99746W        W68087  29.134  22.104  14.800
99747W        W68088  23.679  26.486   1.787
99748W        W68089  17.169  44.994  10.420
99749W        W68090  18.559  11.685  13.948
99750W        W68091  30.618   9.369   2.349
99751W        W68092  14.654  31.958  10.517
99752W        W68093  36.995  13.647  13.318
99753W        W68094   8.759  17.104  11.887
99754W        W68095  42.948  40.046   0.308
99755W        W68096  17.203  38.400  13.328
99756W        W68097   0.920  23.202   2.372
99757W        W68098  22.704  35.919   4.769
99758W        W68099   7.287  18.143  12.019
99759W        W68100  28.050  33.486  10.621
99760W        W68101  18.709   1.743  11.489
99761W        W68102   6.254   3.821  11.034
99762W        W68103  43.478  23.119  13.512
99763W        W68104  15.175  21.573  12.506
99764W        W68105  25.180  12.646   0.825
99765W        W68106  20.211   3.446  13.410
99766W        W68107   3.739   0.815  12.424
99767W        W68108  24.479  17.564  14.493
99768W        W68109  40.464   7.695  11.871
99769W        W68110  14.600   6.783   4.604
99770W        W68111  31.572  14.660  11.404
99771W        W68112  26.552  22.146  10.532
99772W        W68113  41.446  25.585   0.443
99773W        W68114  20.193  43.819   0.955
99774W        W68115  30.019  43.374   4.190
99775W        W68116  14.108  20.208  12.034
99776W        W68117   5.298  26.459  10.539
99777W        W68118  42.336  10.383  14.327
99778W        W68119  21.171  25.073   0.254
99779W        W68120  37.463  12.234   4.708
99780W        W68121   3.865  27.570  11.589
99781W        W68122  27.041  42.524  13.332
99782W        W68123  31.618  38.926   4.795
99783W        W68124  36.888  39.038  10.572
99784W        W68125  38.561   0.891  13.342
99785W        W68126  22.642  30.072  14.437
99786W        W68127  36.548  44.794   4.156
99787W        W68128  16.146  17.069   3.334
99788W        W68129  12.315  22.221   1.840
99789W        W68130  22.150  42.983   0.302
99790W        W68131   7.409  32.475   0.851
99791W        W68132  16.714  35.572  14.295
99792W        W68133  20.240  23.990   3.738
99793W        W68134  22.734   7.882   1.260
99794W        W68135  27.129  14.611   0.762
99795W        W68136   9.277   1.340   0.299
99796W        W68137  19.693  29.600   2.687
99797W        W68138   5.779  37.474   2.735
99798W        W68139   6.804  26.204  12.901
99799W        W68140  39.460  13.319  12.435
99800W        W68141  40.388   0.338  13.860
99801W        W68142  13.200   2.959  13.470
99802W        W68143  25.508  11.860  12.031
99803W        W68144  34.393  27.469   4.322
99804W        W68145  16.083  24.635  10.565
99805W        W68146  14.164  33.883   4.143
99806W        W68147  13.328  29.544  14.294
99807W        W68148  14.676   3.262   0.404
99808W        W68149   3.887   7.840   1.322
99809W        W68150   1.934  13.258   4.663
99810W        W68151  32.000   9.670  11.608
99811W        W68152  31.453  33.470   2.686
99812W        W68153  25.144  14.160   2.805
99813W        W68154  39.400  35.450  14.838
99814W        W68155  39.359  25.539   3.693
99815W        W68156  19.537  27.021  10.545
99816W        W68157   7.744  25.549  12.363
99817W        W68158  27.481  31.545  14.327
99818W        W68159  26.199  28.998  13.041
99819W        W68160  30.420  31.492  10.510
99820W        W68161  22.578  28.044   2.289
99821W        W68162  34.940   6.296   4.599
99822W        W68163  42.935  13.728   4.125
99823W        W68164  28.138  14.783   4.788
99824W        W68165  31.968  43.945   3.169
99825W        W68166  28.172  25.006  11.401
99826W        W68167  32.502  21.195   4.682
99827W        W68168  34.964  19.572   2.242
99828W        W68169  16.730  28.127   1.879
99829W        W68170   0.820  35.527   0.834
99830W        W68171  36.922   4.359  13.899
99831W        W68172  34.115  28.616  12.578
99832W        W68173   0.407   6.380  13.051
99833W        W68174  25.095  20.559  13.925
99834W        W68175  15.231  23.184   5.301
99835W        W68176  31.150   6.681   1.875
99836W        W68177  16.183  12.207   4.346
99837W        W68178  31.024  11.192  14.777
99838W        W68179   5.436  23.679   3.256
99839W        W68180  37.907  38.847  13.543
99840W        W68181   1.302   0.393   2.687
99841W        W68182   5.824  36.897  12.012
99842W        W68183  20.613   5.846  12.490
99843W        W68184  10.352  21.214  11.454
99844W        W68185  10.708  31.518   4.827
99845W        W68186  10.273  21.632  11.095
99846W        W68187   8.317  44.422  12.526
99847W        W68188   7.187   4.703  10.606
99848W        W68189  30.089   1.316   4.598
99849W        W68190   6.407  44.445  10.412
99850W        W68191  23.029  31.588   4.345
99851W        W68192  35.879  14.117   1.383
99852W        W68193   6.682  35.401  10.484
99853W        W68194  24.131   6.360  11.479
99854W        W68195  21.217  29.000   2.691
99855W        W68196   4.209   4.205   0.340
99856W        W68197  29.006  38.990  13.806
99857W        W68198   8.256  26.669  14.488
99858W        W68199  16.648  15.192   1.399
99859W        W68200  12.306  39.337   2.293
99860W        W68201   3.767  41.508  10.572
99861W        W68202   0.418  27.136  12.492
99862W        W68203  32.961   0.767   1.892
99863W        W68204  44.359  10.338  11.882
99864W        W68205   8.294  33.018  13.984
99865W        W68206  12.615  28.570  11.005
99866W        W68207  38.386  13.342   4.240
99867W        W68208   7.209  44.453   3.716
99868W        W68209  32.070   0.367  12.426
99869W        W68210   9.781   1.402  10.557
99870W        W68211   1.776   1.917  12.458
99871W        W68212   6.790  27.620  11.921
99872W        W68213  28.438  31.913   4.642
99873W        W68214  21.605   5.807  14.018
99874W        W68215  19.706  35.545   1.924
99875W        W68216   6.811  29.636  14.818
99876W        W68217  24.649   8.729  13.812
99877W        W68218  33.106  24.648   1.719
99878W        W68219  23.609   5.407  12.987
99879W        W68220  12.259  18.198  13.913
99880W        W68221   8.667   1.917  11.461
99881W        W68222  42.954  23.710   1.835
99882W        W68223   0.255  15.773  13.339
99883W        W68224  26.126  36.417  11.561
99884W        W68225   4.374  35.373   0.442
99885W        W68226   9.339   0.372  13.340
99886W        W68227   0.347  33.417  11.859
99887W        W68228  41.943   9.663  14.298
99888W        W68229  37.341  14.825   1.293
99889W        W68230  35.553   0.317  12.079
99890W        W68231  26.182  38.915  14.301
99891W        W68232  18.179  13.260  14.927
99892W        W68233  16.216  38.493   2.185
99893W        W68234   7.389   7.701  10.451
99894W        W68235   5.717  37.928   3.243
99895W        W68236  25.539   9.264  14.382
99896W        W68237  35.951  29.088  10.612
99897W        W68238  15.181   9.667  10.502
99898W        W68239  33.535  16.106  12.496
99899W        W68240  12.773   6.843   2.800
99900W        W68241  27.020  18.593   4.279
99901W        W68242   8.224  21.101   2.195
99902W        W68243  22.237   9.164   4.336
99903W        W68244  20.686   8.369  10.591
99904W        W68245  21.063  25.688   4.200
99905W        W68246  20.741  21.756  12.567
99906W        W68247  42.417  40.531   0.749
99907W        W68248  29.118   9.237  13.021
99908W        W68249   3.854  41.335  12.487
99909W        W68250  12.853  24.499   2.741
99910W        W68251  11.787  38.564  11.870
99911W        W68252   2.926   8.679   4.732
99912W        W68253   5.403  34.062  10.904
99913W        W68254   7.803  24.018   5.223
99914W        W68255   5.357  25.963   3.231
99915W        W68256  19.217  21.093   4.117
99916W        W68257  34.543  38.991  14.790
99917W        W68258  29.618  27.530   4.354
99918W        W68259  35.372   9.202  14.381
99919W        W68260  35.561  33.022   4.314
99920W        W68261  22.145  18.179   1.401
99921W        W68262  29.515  12.753  13.358
99922W        W68263   3.894  19.282   0.773
99923W        W68264  34.484  32.996  13.964
99924W        W68265   4.780   6.699  13.899
99925W        W68266  30.103  25.998  11.511
99926W        W68267   6.825  36.079   0.816
99927W        W68268  31.017  34.566  12.985
99928W        W68269  10.753  30.479  11.043
99929W        W68270  24.606  36.941  10.935
99930W        W68271  18.095  27.614  10.550
99931W        W68272  11.266   2.236   0.850
99932W        W68273  29.028  34.507  13.392
99933W        W68274   9.814  34.079   0.913
99934W        W68275  24.555  23.094  10.428
99935W        W68276  20.191  35.032  13.792
99936W        W68277   0.785   7.198   2.663
99937W        W68278  26.132  15.626   4.803
99938W        W68279  34.606  27.496  14.415
99939W        W68280  36.409  37.041   2.245
99940W        W68281  44.259  39.486   1.334
99941W        W68282  18.210  40.975  11.040
99942W        W68283   8.192  39.400   2.687
99943W        W68284  10.296  44.999  11.085
99944W        W68285  18.179  38.563  10.636
99945W        W68286   2.234   0.355  10.620
99946W        W68287  13.305  36.900  11.383
99947W        W68288  33.082  10.855   2.238
99948W        W68289   4.918   9.732  11.959
99949W        W68290  17.688  15.710  11.897
99950W        W68291   8.677  39.402   1.332
99951W        W68292  30.479  10.841   3.299
99952W        W68293  28.680  13.639  11.581
99953W        W68294  44.004  16.311   4.693
99954W        W68295  21.656  36.913   1.735
99955W        W68296  36.896  21.229  10.027
99956W        W68297  36.428  11.689   4.686
99957W        W68298  22.158   3.254  10.565
99958W        W68299  31.097  19.732   0.415
99959W        W68300  37.449  34.952   4.764
99960W        W68301  31.922  43.963  13.475
99961W        W68302  29.468  18.724  10.428
99962W        W68303   7.909  32.408  14.803
99963W        W68304  30.089  42.793  10.475
99964W        W68305   6.758   3.792   3.321
99965W        W68306  43.340  28.469   4.304
99966W        W68307   5.314  22.010   0.312
99967W        W68308  31.130   1.401   3.374
99968W        W68309  43.770  40.017   4.725
99969W        W68310  25.504  26.045   1.310
99970W        W68311   0.916  37.915   4.345
99971W        W68312  35.430  22.114  12.050
99972W        W68313   3.292   1.375  14.371
99973W        W68314  30.029  30.462   1.758
99974W        W68315  38.838  27.596   4.754
99975W        W68316   1.972  16.190  13.878
99976W        W68317  27.132  16.604  10.601
99977W        W68318  42.902  21.074  13.433
99978W        W68319   8.895  12.665  11.091
99979W        W68320  38.425   3.399   0.880
99980W        W68321   3.809  31.002   3.764
99981W        W68322  16.208  42.324  12.861
99982W        W68323   9.720   0.263   1.286
99983W        W68324   3.939  31.929   4.114
99984W        W68325   2.948  28.586  10.622
99985W        W68326   2.372   6.786  10.544
99986W        W68327  33.008  17.174   4.339
99987W        W68328  12.724  19.664   1.699
99988W        W68329  30.157  38.836   2.283
99989W        W68330  37.079  40.507   0.413
99990W        W68331  23.713   3.222   3.736
99991W        W68332   4.447   0.378  13.538
99992W        W68333  20.546  22.534   3.636
99993W        W68334  33.583   0.370  14.998
99994W        W68335   8.311  34.961   0.911
99995W        W68336  13.303  16.222  11.074
99996W        W68337  18.196  21.675   1.737
99997W        W68338  39.042   6.694   3.327
99998W        W68339  17.685  16.702   0.878
99999W        W68340  28.181   7.665  10.621
    0W        W68341   6.923  37.941  13.458
    1W        W68342  33.510  25.707  10.572
    2W        W68343  38.563  37.910   4.647
    3W        W68344  40.022  27.451   1.223
    4W        W68345  32.482  13.668   2.681
    5W        W68346   1.340  30.573  13.951
    6W        W68347   1.252  16.278  11.911
    7W        W68348   9.791  29.161  11.473
    8W        W68349  42.357  26.190  11.128
    9W        W68350  24.226  36.099   4.615
   10W        W68351  36.395  12.172   1.256
   11W        W68352  13.740  36.880   1.429
   12W        W68353  10.245  37.429  11.450
   13W        W68354  41.819   6.784   0.400
   14W        W68355  43.976  42.417  13.959
   15W        W68356  15.631   0.323  11.958
   16W        W68357  20.586  15.803   4.338
   17W        W68358  35.453  43.434   1.350
   18W        W68359   8.322  30.643   1.843
   19W        W68360  10.797   1.925   2.721
   20W        W68361   4.344   9.204  11.483
   21W        W68362  29.548  37.534  10.009
   22W        W68363  31.615  44.360   4.171
   23W        W68364  44.904  30.485  10.431
   24W        W68365   1.905  27.941   3.148
   25W        W68366  17.638  25.489  11.576
   26W        W68367   9.724  41.467  13.882
   27W        W68368   3.241  27.043   1.249
   28W        W68369  22.711  19.755  10.016
   29W        W68370  41.418  28.563  10.946
   30W        W68371  18.621   9.806  13.963
   31W        W68372  42.015  24.067   3.641
   32W        W68373   3.278   5.230   2.829
   33W        W68374  42.494  39.466   3.706
   34W        W68375  19.643  29.517   2.252
   35W        W68376  34.398  30.582   4.249
   36W        W68377  13.106  38.488   5.127
   37W        W68378  32.591  24.147   3.739
   38W        W68379  39.992   5.884   4.814
   39W        W68380  38.430  43.853   1.320
   40W        W68381  25.185   0.275   2.309
   41W        W68382  10.694  16.244   2.341
   42W        W68383  14.632   3.846   3.772
   43W        W68384  29.106  42.471   2.880
   44W        W68385  19.635  27.139  14.330
   45W        W68386  38.351  18.119   2.180
   46W        W68387   7.777  34.487   4.672
   47W        W68388  30.433   0.335  11.457
   48W        W68389   1.852   8.880   0.429
   49W        W68390  16.650  43.913   3.864
   50W        W68391   1.873   7.888   2.314
   51W        W68392  29.072  41.917  11.495
   52W        W68393  31.113   5.200   2.762
   53W        W68394  29.510  11.354  14.341
   54W        W68395   8.336  35.581   2.705
   55W        W68396  30.053   3.275  10.999
   56W        W68397   1.293  32.580  13.811
   57W        W68398  23.064  27.993   1.392
   58W        W68399   2.721  15.270  11.398
   59W        W68400  24.008  32.988   2.361
   60W        W68401  35.952  28.439  10.421
   61W        W68402  42.798  44.487   2.303
   62W        W68403  17.167  14.270   0.393
   63W        W68404  17.639  27.501  14.503
   64W        W68405  36.959  10.323  10.937
   65W        W68406  35.929  21.028  10.598
   66W        W68407  34.883  19.574   1.398
   67W        W68408   2.954  25.574  12.412
   68W        W68409   0.944  35.024   0.249
   69W        W68410  22.525   9.679   3.195
   70W        W68411  42.374  42.826  11.963
   71W        W68412  12.780  34.902   4.705
   72W        W68413   4.787   8.759  13.910
   73W        W68414   5.359   3.376   3.355
   74W        W68415  12.656  40.866   2.292
   75W        W68416  34.065  18.630   0.432
   76W        W68417  41.451  40.905  14.808
   77W        W68418  24.700  39.942  12.438
   78W        W68419  18.764  19.741  13.528
   79W        W68420  32.054   0.407   1.239
   80W        W68421   0.456   1.803   0.450
   81W        W68422  43.386  20.200  14.908
   82W        W68423  37.463  39.903   2.727
   83W        W68424  19.584  14.330  11.437
   84W        W68425  21.088  38.403  14.487
   85W        W68426  31.994   7.290  10.037
   86W        W68427  26.194   7.684   4.717
   87W        W68428  26.102  30.586   1.415
   88W        W68429  21.631  19.592   2.898
   89W        W68430  40.335  10.657   0.262
   90W        W68431   5.329   6.794  14.464
   91W        W68432  25.109   1.468   3.145
   92W        W68433   3.901   4.439   2.298
   93W        W68434  17.791  33.481   4.164
   94W        W68435  29.662   4.836   2.216
   95W        W68436  35.900  38.970   2.356
   96W        W68437  44.435  35.446   1.790
   97W        W68438   5.341   5.407   2.790
   98W        W68439  17.233  43.315  12.846
   99W        W68440  17.655  33.067  11.033
  100W        W68441   3.258  10.810   4.248
  101W        W68442   4.314  19.569  14.327
  102W        W68443   9.791  21.229   1.724
  103W        W68444  18.555  44.479   3.675
  104W        W68445  32.633   7.203  10.433
  105W        W68446  33.032   8.180  12.068
  106W        W68447  39.013  43.392   2.298
  107W        W68448  31.918  32.619   4.736
  108W        W68449  41.332  24.222  13.410
  109W        W68450  20.628  31.113   1.320
  110W        W68451  14.319   1.468  13.414
  111W        W68452   1.809  25.516   1.738
  112W        W68453  30.918  42.889   0.340
  113W        W68454  15.663   0.904   3.636
  114W        W68455   3.359  15.661   1.349
  115W        W68456  30.638  30.072  13.824
  116W        W68457  38.366   3.910  10.472
  117W        W68458   0.455  23.615   1.862
  118W        W68459  30.513  15.600   1.339
  119W        W68460  33.931  29.171  13.982
  120W        W68461  39.016  25.211  10.599
  121W        W68462  25.601  26.606  10.418
  122W        W68463  17.296  37.064  11.504
  123W        W68464  19.606  18.634   3.673
  124W        W68465  12.764  40.905   5.310
  125W        W68466  10.310   6.754  12.352
  126W        W68467   2.272   1.971  13.943
  127W        W68468  38.565  22.534   0.810
  128W        W68469   2.844  34.538   2.720
  129W        W68470   1.467   4.860  11.951
  130W        W68471  16.161  12.261  13.853
  131W        W68472  34.003  16.720  13.812
  132W        W68473   0.974   9.790  12.547
  133W        W68474  10.791  28.519   2.842
  134W        W68475  11.217  12.119  12.848
  135W        W68476  19.637  38.956   1.739
  136W        W68477  36.408   1.836   4.759
  137W        W68478   4.303  22.132   3.679
  138W        W68479  19.609  24.020   0.382
  139W        W68480  16.650  15.672  13.979
  140W        W68481   2.742   4.230   2.400
  141W        W68482  24.030  26.499   0.475
  142W        W68483  20.255   0.855  12.885
  143W        W68484  42.875  22.567   0.851
  144W        W68485   2.896  24.506   0.776
  145W        W68486  29.007   1.735  11.127
  146W        W68487   0.325  25.544   4.159
  147W        W68488  24.178  28.089  13.804
  148W        W68489  44.819  28.159   0.846
  149W        W68490  34.066  19.637  13.791
  150W        W68491  15.236  33.897  10.950
  151W        W68492   8.389  33.592   1.439
  152W        W68493  42.823  31.464   4.735
  153W        W68494  44.920  10.156   0.857
  154W        W68495  29.174  19.259   4.747
  155W        W68496  21.511   0.295  10.555
  156W        W68497  19.157  22.721  12.867
  157W        W68498  34.912   1.975  10.083
  158W        W68499   0.264   2.778  11.553
  159W        W68500  29.639  19.597   2.855
  160W        W68501  29.604   7.345   3.682
  161W        W68502  25.189  25.079   1.213
  162W        W68503   9.351  17.786   3.682
  163W        W68504  21.649  28.044   0.255
  164W        W68505  31.090   3.419   1.769
  165W        W68506  15.087  43.776   0.906
  166W        W68507  18.688  39.843  13.001
  167W        W68508  12.116  17.573   0.772
  168W        W68509  10.191  12.304  14.901
  169W        W68510  38.828  38.503   1.230
  170W        W68511  41.318  23.679  10.429
  171W        W68512   2.231  35.916  13.799
  172W        W68513  36.415  40.430  10.475
  173W        W68514  39.453   0.401   3.802
  174W        W68515  12.159   8.833   1.841
  175W        W68516  27.455  30.035   3.352
  176W        W68517  42.793  14.129   4.320
  177W        W68518  15.325  20.236  13.862
  178W        W68519  18.775  37.517   3.776
  179W        W68520   4.817  39.881  10.545
  180W        W68521  28.006  37.572   4.339
  181W        W68522  39.557  40.304  12.919
  182W        W68523  43.800  17.608  11.487
  183W        W68524  28.622  11.323   0.944
  184W        W68525  18.147  26.532  12.965
  185W        W68526  43.500  17.648  13.862
  186W        W68527  21.031  20.741   0.262
  187W        W68528   4.898  19.717   1.934
  188W        W68529  29.558  38.406   2.408
  189W        W68530  10.285  24.014   4.684
  190W        W68531  13.347   7.810  11.568
  191W        W68532  26.666  18.245  10.457
  192W        W68533   0.758  28.141  13.426
  193W        W68534  41.035   7.397  11.944
  194W        W68535  26.090   5.333  14.338
  195W        W68536  15.094  40.335   4.698
  196W        W68537  39.517  28.935   2.250
  197W        W68538  20.665  30.528   3.852
  198W        W68539   5.852  19.568  10.535
  199W        W68540  19.123   3.892  13.395
  200W        W68541  10.158  17.287  11.970
  201W        W68542  27.598  39.389  13.060
  202W        W68543   8.856  14.602  14.826
  203W        W68544   0.372  23.042   0.255
  204W        W68545  37.515  20.256   1.771
  205W        W68546  41.036  28.118   4.243
  206W        W68547  24.678   9.886  10.630
  207W        W68548  22.227  43.912  13.455
  208W        W68549  22.103  13.609   0.342
  209W        W68550   1.478  31.481  12.999
  210W        W68551  38.440  24.565   3.680
  211W        W68552  36.562   9.739   4.230
  212W        W68553  11.193  41.846   3.189
  213W        W68554  14.318   6.766  11.032
  214W        W68555  17.577  13.122  11.106
  215W        W68556  10.731  11.834   1.909
  216W        W68557  39.347   0.904   3.225
  217W        W68558   1.835  11.851  13.837
  218W        W68559  43.890  30.142  12.980
  219W        W68560  44.931  37.875   2.366
  220W        W68561  38.462   0.944  12.074
  221W        W68562   0.791  39.447   4.174
  222W        W68563   3.407   2.725   1.402
  223W        W68564  33.036  18.579  10.427
  224W        W68565   0.420  38.981   2.308
  225W        W68566  10.737  12.331  11.438
  226W        W68567   6.812  23.625  10.591
  227W        W68568  40.876   5.688  11.982
  228W        W68569  15.775  20.666  14.497
  229W        W68570  24.700  27.135   3.276
  230W        W68571   1.299   2.728  14.506
  231W        W68572  44.307  23.225  10.508
  232W        W68573  39.947   0.978  14.377
  233W        W68574  37.937  23.587  13.918
  234W        W68575  43.960  12.260  11.385
  235W        W68576   2.401  40.039  13.796
  236W        W68577  24.696   5.367  14.881
  237W        W68578  43.276  42.883   0.472
  238W        W68579  12.288  32.551   2.663
  239W        W68580  10.847  29.968  12.969
  240W        W68581  31.103  11.194   2.215
  241W        W68582  26.060   7.258   4.679
  242W        W68583  28.508  11.712  14.309
  243W        W68584  40.547  18.736   4.654
  244W        W68585  20.684  43.470  10.514
  245W        W68586   2.955  34.043   1.714
  246W        W68587   4.364  10.736  11.536
  247W        W68588  41.425  18.256  11.442
  248W        W68589  15.203  40.334   5.240
  249W        W68590  35.047  30.626  11.031
  250W        W68591  38.901  33.430   3.761
  251W        W68592  16.275   8.242   4.154
  252W        W68593  17.184  11.769  12.519
  253W        W68594  11.676  15.820   3.640
  254W        W68595  13.773  27.986   4.334
  255W        W68596  30.153  20.650   1.234
  256W        W68597  41.031  24.135  11.072
  257W        W68598  32.548  34.007  12.524
  258W        W68599  30.118  12.726  13.943
  259W        W68600   4.832  13.222  10.470
  260W        W68601  36.929  36.453  13.835
  261W        W68602   4.406  37.457   4.354
  262W        W68603   5.793  37.948   1.224
  263W        W68604   7.261  37.968   3.262
  264W        W68605  44.761   5.786  10.997
  265W        W68606  37.860  42.834  12.998
  266W        W68607   7.208  13.674   1.266
  267W        W68608  26.688   9.729   2.715
  268W        W68609  33.562  39.845   2.232
  269W        W68610  28.997  36.907  11.436
  270W        W68611  17.186   5.835   1.246
  271W        W68612  12.638  21.532   3.348
  272W        W68613  38.866  12.665  13.517
  273W        W68614  39.034  28.462  13.434
  274W        W68615  41.808  41.802   9.968
  275W        W68616   6.700   2.833  12.526
  276W        W68617  33.394   5.335   2.271
  277W        W68618  18.624   3.450  14.971
  278W        W68619  15.614  35.057   1.934
  279W        W68620  17.611  31.612   9.623
  280W        W68621  33.442  18.737  13.937
  281W        W68622  35.417  23.688   4.724
  282W        W68623  13.321  25.151   5.200
  283W        W68624  42.845  10.732  12.455
  284W        W68625  16.803  24.993  12.490
  285W        W68626   8.167   3.852   3.862
  286W        W68627  11.644  15.673  10.141
  287W        W68628  40.527  43.514   5.082
  288W        W68629  27.588  44.318  11.574
  289W        W68630  13.285  25.982   3.696
  290W        W68631  36.539  34.922   4.188
  291W        W68632  10.145  25.991  13.029
  292W        W68633   4.877  28.467   0.405
  293W        W68634   6.259  18.564   4.203
  294W        W68635   7.772  34.036  10.922
  295W        W68636   4.708   1.318   1.296
  296W        W68637  33.066  20.169  12.529
  297W        W68638  27.062  23.144   0.332
  298W        W68639   7.343  36.586   3.779
  299W        W68640  34.974  44.886  12.923
  300W        W68641  16.108  21.733  12.386
  301W        W68642  35.097   2.730  14.424
  302W        W68643  14.241  17.073  14.012
  303W        W68644  18.715   4.394  12.894
  304W        W68645  41.395  15.783   4.190
  305W        W68646  23.111  42.899  12.901
  306W        W68647  19.678  24.670   2.900
  307W        W68648  41.317   1.867   0.859
  308W        W68649  12.773  17.258   3.326
  309W        W68650  12.819   7.187  12.844
  310W        W68651  42.282   7.252  12.857
  311W        W68652  27.945  14.772  12.447
  312W        W68653  25.979  31.636   1.742
  313W        W68654  27.012  41.948  13.539
  314W        W68655   3.830  17.130   3.223
  315W        W68656  44.861  19.240  13.529
  316W        W68657  44.882  44.361  13.887
  317W        W68658  36.359  43.843  13.825
  318W        W68659  18.111  43.373  12.964
  319W        W68660  38.374  39.016   4.230
  320W        W68661   1.368  33.569   0.353
  321W        W68662  40.385  34.385   4.616
  322W        W68663  28.610  24.591   1.710
  323W        W68664  43.994  19.665   4.156
  324W        W68665  26.173  23.667   2.251
  325W        W68666  27.097  20.226  10.963
  326W        W68667  10.807   1.375  11.581
  327W        W68668  15.321  38.414  12.512
  328W        W68669  35.567  17.754  13.013
  329W        W68670  15.815  28.594  12.005
  330W        W68671  38.483  33.994  11.963
  331W        W68672  21.579  41.867   4.787
  332W        W68673  28.959   8.851  12.878
  333W        W68674  40.523  18.645   4.215
  334W        W68675  36.358  26.559  13.010
  335W        W68676  32.434  44.971  10.497
  336W        W68677  37.855  38.423   4.779
  337W        W68678   0.851   1.936  11.114
  338W        W68679  30.640  12.175   3.273
  339W        W68680  30.078  16.315  12.540
  340W        W68681  11.256  43.891   0.767
  341W        W68682   3.944  27.591  10.937
  342W        W68683  32.023   4.791  13.543
  343W        W68684  43.877  13.188  13.838
  344W        W68685  14.282  23.002  11.954
  345W        W68686   2.444  44.994   1.443
  346W        W68687  43.392  24.033  14.461
  347W        W68688  43.452  40.429  14.894
  348W        W68689  35.373  23.137  10.422
  349W        W68690  26.009  10.381  11.574
  350W        W68691  15.642  31.960   9.599
  351W        W68692  16.155  12.660   1.761
  352W        W68693  24.020   5.284   2.867
  353W        W68694  33.562  26.010  11.401
  354W        W68695  37.339  27.021   0.884
  355W        W68696  22.017   0.348  13.525
  356W        W68697  41.458   0.941  13.014
  357W        W68698  39.372  11.785  13.353
  358W        W68699   0.859   9.848   1.387
  359W        W68700   3.954  25.174   4.669
  360W        W68701  32.045  23.736   2.286
  361W        W68702  17.293  34.543  14.426
  362W        W68703  25.541  44.891  14.418
  363W        W68704  29.593   0.888  10.463
  364W        W68705  32.459  24.003   4.349
  365W        W68706  34.106  19.153  11.569
  366W        W68707  29.493   3.930  14.343
  367W        W68708  19.136  44.292  10.640
  368W        W68709  34.983  27.180  10.899
  369W        W68710  12.816   8.779  10.492
  370W        W68711  37.083   4.820  13.483
  371W        W68712  20.713  24.075   3.682
  372W        W68713   1.911   7.339  13.433
  373W        W68714  11.817  39.998  14.799
  374W        W68715  11.664  22.530   3.386
  375W        W68716  43.825   8.664   2.775
  376W        W68717  17.267  39.481   2.813
  377W        W68718   4.771  29.571  11.064
  378W        W68719  10.206  22.617   3.856
  379W        W68720  27.664  27.663   3.228
  380W        W68721  27.540  17.643  11.422
  381W        W68722  14.683  16.074  10.469
  382W        W68723  32.474  28.514   0.767
  383W        W68724  28.631  18.662   3.817
  384W        W68725  32.919  15.667  14.507
  385W        W68726  14.288  26.585  11.947
  386W        W68727  15.288   6.192  12.475
  387W        W68728  11.654  39.001   9.935
  388W        W68729  30.934   2.381   2.673
  389W        W68730   7.707   6.869  14.286
  390W        W68731  11.374  14.320   1.390
  391W        W68732  10.358  22.170   0.962
  392W        W68733  15.088  37.559   0.393
  393W        W68734  15.619  40.980  10.899
  394W        W68735  40.975  21.680  10.992
  395W        W68736  21.683  20.656  12.397
  396W        W68737  41.922  29.580   4.652
  397W        W68738   2.467   0.769   4.218
  398W        W68739  12.809  35.032   4.322
  399W        W68740  15.724  11.639   0.820
  400W        W68741  19.710  34.481  12.553
  401W        W68742  17.735  27.670   2.396
  402W        W68743  33.075  26.052   3.722
  403W        W68744  24.064  22.685  13.381
  404W        W68745  30.160  15.096   0.824
  405W        W68746  22.503   4.861   1.445
  406W        W68747  43.309  26.074  13.829
  407W        W68748  29.563   5.261   2.731
  408W        W68749  19.266  14.591  13.507
  409W        W68750  25.216  38.899  14.941
  410W        W68751   5.436  24.539  14.397
  411W        W68752   5.402  17.718   4.162
  412W        W68753  24.142  31.050   1.404
  413W        W68754  38.034  39.827   2.715
  414W        W68755  18.080   1.321   2.322
  415W        W68756  25.109  38.490   4.121
  416W        W68757  14.114  19.585  11.554
  417W        W68758  12.270  16.169  12.010
  418W        W68759   5.911  15.639  11.920
  419W        W68760  44.385   3.734  12.491
  420W        W68761  30.075  11.647   3.266
  421W        W68762   6.825  22.228   3.825
  422W        W68763  29.062  24.637   2.863
  423W        W68764   5.913  32.016  10.535
  424W        W68765  10.295   9.834  14.472
  425W        W68766  27.057  11.148   1.887
  426W        W68767  15.702  44.919  11.959
  427W        W68768  24.662  44.772   3.352
  428W        W68769  30.043  10.159  11.485
  429W        W68770  26.022  37.053   1.764
  430W        W68771  10.221   8.193   1.409
  431W        W68772  38.841   7.370  10.448
  432W        W68773  43.962   6.873   2.227
  433W        W68774  37.359   8.856  12.890
  434W        W68775  27.463  22.101  10.994
  435W        W68776  18.288   6.296  12.368
  436W        W68777  29.495   0.354   4.217
  437W        W68778  26.560  17.171   5.285
  438W        W68779  39.387  23.667   3.675
  439W        W68780  26.198  41.982  14.327
  440W        W68781  39.853  38.497   2.223
  441W        W68782   3.867  22.649   3.818
  442W        W68783  42.938  44.494  10.487
  443W        W68784  11.369  30.461  11.104
  444W        W68785  30.608  23.503   2.397
  445W        W68786  31.612   1.789  10.446
  446W        W68787  42.941  35.584   1.402
  447W        W68788   1.818  12.676   3.265
  448W        W68789   0.298  19.542  10.065
  449W        W68790  14.185  38.555   0.430
  450W        W68791   8.868  16.609   3.379
  451W        W68792  13.176  39.044   0.779
  452W        W68793   9.255   9.162   2.785
  453W        W68794  44.307   7.288  10.962
  454W        W68795  43.002   4.930  11.399
  455W        W68796  22.627  41.925   1.380
  456W        W68797  40.358  38.502  12.510
  457W        W68798   0.901  22.591   3.259
  458W        W68799  18.690  32.889   4.300
  459W        W68800  15.697  18.170   0.418
  460W        W68801  28.936  20.760   2.874
  461W        W68802  28.945  11.654  11.952
  462W        W68803  29.459  29.972  12.853
  463W        W68804  14.297  23.663  13.948
  464W        W68805   4.299  21.690  14.785
  465W        W68806  42.397  33.999   4.167
  466W        W68807  32.921  16.242  11.488
  467W        W68808  25.014  21.746   4.333
  468W        W68809  39.542  11.270  14.917
  469W        W68810  30.011  27.169   1.343
  470W        W68811  34.037   2.810  10.456
  471W        W68812   2.443   1.836  11.507
  472W        W68813  33.387  24.493  14.980
  473W        W68814  34.981  36.954   1.340
  474W        W68815  25.202  30.558  14.307
  475W        W68816   8.812  38.338   1.406
  476W        W68817   4.260  31.494  13.806
  477W        W68818  40.871  24.179  14.778
  478W        W68819  37.019   1.346  10.594
  479W        W68820  28.663  33.064  13.493
  480W        W68821   2.392   5.434   2.662
  481W        W68822   0.330  22.650   1.926
  482W        W68823   1.304  17.718   3.844
  483W        W68824  39.325  43.936   5.665
  484W        W68825  23.017  39.467  11.958
  485W        W68826  43.394  37.832   2.703
  486W        W68827  26.537  35.934  12.513
  487W        W68828  43.003  21.173  12.369
  488W        W68829  10.246  30.424   4.185
  489W        W68830  20.117  18.050   1.852
  490W        W68831  43.833  27.030  12.462
  491W        W68832   7.702  21.156   3.156
  492W        W68833   0.445  28.017  10.985
  493W        W68834  39.852  31.440  14.322
  494W        W68835   5.213  17.111  12.354
  495W        W68836   7.261  37.941   2.391
  496W        W68837  10.771  23.092  13.358
  497W        W68838  27.101  14.225  11.608
  498W        W68839  25.009   9.854  10.965
  499W        W68840  44.469  44.844   4.801
  500W        W68841  40.844  32.939  11.984
  501W        W68842  33.978  25.166   2.777
  502W        W68843  24.573  21.734   1.288
  503W        W68844  22.647   5.730  14.863
  504W        W68845  14.593  18.098   0.418
  505W        W68846  43.367  17.126   4.265
  506W        W68847  27.127  22.731   3.742
  507W        W68848  44.793   1.781  14.468
  508W        W68849  27.134  22.621  14.928
  509W        W68850  24.127  15.713  13.961
  510W        W68851  17.187   1.840   4.167
  511W        W68852  20.614  28.041   0.864
  512W        W68853  11.833   2.812   3.263
  513W        W68854   4.941  10.225   4.659
  514W        W68855   5.771  23.232   1.896
  515W        W68856  12.123  34.873  14.431
  516W        W68857  28.098  39.977  12.356
  517W        W68858  34.060  14.225  12.388
  518W        W68859   6.746   4.883   1.782
  519W        W68860  38.071  28.142  11.435
  520W        W68861  20.213  21.073  11.088
  521W        W68862  26.542  12.618   3.632
  522W        W68863  26.491  42.024   1.344
  523W        W68864  44.890   0.868   0.868
  524W        W68865   8.789  18.118  13.491
  525W        W68866  34.475   1.823   3.363
  526W        W68867   8.686  40.447   1.336
  527W        W68868  28.584  32.937  12.545
  528W        W68869  42.479  26.963   3.712
  529W        W68870   4.780   2.783  14.001
  530W        W68871  28.515  34.502   0.839
  531W        W68872   4.328  27.971  13.463
  532W        W68873  10.799  40.890   4.271
  533W        W68874  12.683  33.050   2.882
  534W        W68875   1.442  24.217   2.756
  535W        W68876  13.235  16.246   1.289
  536W        W68877  34.550   9.215   1.860
  537W        W68878  13.291   5.240   1.224
  538W        W68879  22.220  44.320  13.023
  539W        W68880  39.863  33.502  12.479
  540W        W68881   8.783  25.668   0.469
  541W        W68882  24.627  13.153   4.643
  542W        W68883  11.836  33.624   3.703
  543W        W68884   9.277  36.487  11.404
  544W        W68885  27.554  17.300  10.410
  545W        W68886  39.829  39.452  11.014
  546W        W68887  35.559   6.821  13.871
  547W        W68888  35.510  44.990   4.718
  548W        W68889  33.880  41.483  10.481
  549W        W68890  42.957   0.779   2.778
  550W        W68891  39.025  26.461  12.415
  551W        W68892   8.365  11.225   1.269
  552W        W68893  15.241  18.097   4.819
  553W        W68894  40.891  14.767   2.226
  554W        W68895   0.777   9.199   2.808
  555W        W68896   1.782  33.068   2.407
  556W        W68897  20.075  13.252   4.193
  557W        W68898   1.848  26.637  14.278
  558W        W68899  17.251   4.418   0.931
  559W        W68900  37.565  23.686   0.392
  560W        W68901  28.171  19.660  12.351
  561W        W68902  36.060  26.176  13.521
  562W        W68903  25.164  31.475  14.883
  563W        W68904  26.047  22.662   3.645
  564W        W68905  20.036  28.602   2.839
  565W        W68906  13.720  39.061   2.318
  566W        W68907   0.797  44.383  14.781
  567W        W68908  18.658  28.090  12.912
  568W        W68909   1.743  33.985  12.924
  569W        W68910  24.205  14.694   2.685
  570W        W68911  13.705  19.076   1.749
  571W        W68912  25.035  41.404   0.927
  572W        W68913   1.811  16.237   3.688
  573W        W68914  22.636  17.654   2.700
  574W        W68915  18.554  24.224   1.727
  575W        W68916  38.464  11.209  14.006
  576W        W68917  29.544  37.838  11.480
  577W        W68918  17.574  10.275   4.724
  578W        W68919  35.963  32.511  14.501
  579W        W68920  29.564   9.295   0.282
  580W        W68921  37.386   7.844   0.401
  581W        W68922  13.721  13.615  14.485
  582W        W68923   7.316   1.426  13.032
  583W        W68924  28.527   6.705   2.216
  584W        W68925  24.162  25.035   4.700
  585W        W68926  35.544   8.856   5.159
  586W        W68927  23.725  24.538   2.816
  587W        W68928  12.741  44.320   1.369
  588W        W68929  37.431  34.081   4.126
  589W        W68930  37.083  42.946  14.864
  590W        W68931  33.117  25.194   4.341
  591W        W68932  15.211   2.943  14.368
  592W        W68933  32.617  32.570   0.252
  593W        W68934   4.211  24.635   0.288
  594W        W68935   2.884  17.121  10.436
  595W        W68936  17.252   9.659  14.359
  596W        W68937  32.113   6.685   4.306
  597W        W68938  40.353  27.025   0.873
  598W        W68939   1.842  21.168   0.808
  599W        W68940  19.683  31.438   1.741
  600W        W68941  17.677  15.130  10.962
  601W        W68942  15.759  36.956   1.904
  602W        W68943  16.150   8.358  14.780
  603W        W68944  36.948  18.162   1.880
  604W        W68945  26.493   3.784  11.875
  605W        W68946  22.530  13.802  13.509
  606W        W68947  33.550   9.308  12.396
  607W        W68948  40.362  27.675   1.321
  608W        W68949  44.997  27.475  13.910
  609W        W68950  33.108  44.389  14.029
  610W        W68951  34.872   0.451  13.443
  611W        W68952  21.612   3.403   2.204
  612W        W68953  34.475  26.530   4.187
  613W        W68954  25.210  40.363  13.989
  614W        W68955  43.021  17.559   4.689
  615W        W68956  24.200   1.451  10.415
  616W        W68957  29.920  40.452  14.381
  617W        W68958  22.168  33.497   2.232
  618W        W68959  40.327  30.556   3.634
  619W        W68960  37.453  38.331   4.270
  620W        W68961  13.718  31.149   1.854
  621W        W68962   6.184  25.978   2.661
  622W        W68963   8.710  39.556  12.861
  623W        W68964  32.902  18.085  12.063
  624W        W68965   5.891  36.981   2.346
  625W        W68966   2.412  16.187  14.925
  626W        W68967  14.138   6.734   4.697
  627W        W68968  34.921  41.398   1.334
  628W        W68969  31.925  43.296   2.245
  629W        W68970  19.051  34.502  10.502
  630W        W68971  12.637  37.518  14.401
  631W        W68972  34.407  11.232   2.414
  632W        W68973  11.622   2.451  10.458
  633W        W68974  22.564  28.660  12.957
  634W        W68975   9.675  12.141   3.845
  635W        W68976  14.747  44.963  11.014
  636W        W68977  40.804  30.554   4.606
  637W        W68978  18.236  19.690   3.264
  638W        W68979  35.020  37.859  11.057
  639W        W68980  14.680  20.232  13.994
  640W        W68981  15.244  39.402   9.606
  641W        W68982  18.725  35.084  11.491
  642W        W68983  17.793  10.277  12.479
  643W        W68984   3.364  32.409   1.773
  644W        W68985  16.106   6.310  11.879
  645W        W68986  28.174  31.971   1.934
  646W        W68987  17.720  22.560   4.638
  647W        W68988  41.938  38.976  10.485
  648W        W68989  39.413  39.462   1.883
  649W        W68990   0.810  23.531   1.254
  650W        W68991   4.236  17.559  10.923
  651W        W68992  39.010  27.955  14.477
  652W        W68993  40.942  34.458  14.793
  653W        W68994  34.381  22.659  13.533
  654W        W68995  19.695  12.358  11.408
  655W        W68996   2.940  35.981   2.374
  656W        W68997  24.183   3.808  14.959
  657W        W68998  34.971  13.298  14.314
  658W        W68999  20.633  16.105  14.981
  659W        W69000  23.575  32.959   2.377
  660W        W69001  31.611   4.890  12.834
  661W        W69002  21.113  10.686   0.451
  662W        W69003  16.606  14.112   2.834
  663W        W69004  38.848  43.285   3.659
  664W        W69005  23.221  29.958   1.733
  665W        W69006  15.640   6.206  12.079
  666W        W69007   1.899  33.421  12.370
  667W        W69008  27.156  19.624   3.309
  668W        W69009  30.605  32.933  12.022
  669W        W69010  27.105  40.864  14.851
  670W        W69011  14.589  43.974  11.609
  671W        W69012  17.726   4.833  13.394
  672W        W69013  30.592  17.236   4.602
  673W        W69014  18.180  10.659   4.169
  674W        W69015  22.508  35.009  11.539
  675W        W69016  16.095  40.934  13.007
  676W        W69017  10.315  15.320  14.028
  677W        W69018  26.699  20.256  10.589
  678W        W69019  28.529  25.600   2.351
  679W        W69020  20.620  36.550  12.962
  680W        W69021  17.061   1.461  10.971
  681W        W69022  39.029  33.952   3.779
  682W        W69023  20.041  35.463  11.377
  683W        W69024  15.299  38.887  11.069
  684W        W69025  40.535  26.192  12.940
  685W        W69026   8.692  33.973  13.397
  686W        W69027  27.061  36.359   1.789
  687W        W69028  15.269  34.029   2.788
  688W        W69029  43.479  25.102  12.529
  689W        W69030  25.540  38.421   3.838
  690W        W69031  23.014   7.884  12.498
  691W        W69032   4.741  22.092   0.334
  692W        W69033  13.188  37.341  13.331
  693W        W69034  33.893  12.230  12.840
  694W        W69035  39.027   6.678  12.084
  695W        W69036  35.587  41.923  12.460
  696W        W69037  40.503  40.531  14.913
  697W        W69038   3.863   0.475   3.861
  698W        W69039  32.070   0.977  12.433
  699W        W69040  20.227   0.969   1.295
  700W        W69041  21.574  17.093   0.765
  701W        W69042  10.866  33.890  14.032
  702W        W69043   4.299  26.501  12.999
  703W        W69044  13.750   1.801   3.278
  704W        W69045  18.685  14.294   3.322
  705W        W69046   5.880   7.877  13.538
  706W        W69047   9.235   5.926   1.874
  707W        W69048   7.191  37.031  10.532
  708W        W69049  21.693  16.227  10.634
  709W        W69050  19.260  18.192  13.404
  710W        W69051  32.466  39.976   0.837
  711W        W69052   6.718  19.091  14.796
  712W        W69053   4.410   2.311  14.848
  713W        W69054  30.651  27.473  11.402
  714W        W69055   1.901  17.732   1.218
  715W        W69056  32.121  17.684   0.872
  716W        W69057  18.051  39.064  13.954
  717W        W69058  43.285  42.827  12.983
  718W        W69059  32.390  36.069   0.825
  719W        W69060  40.505   5.844   1.898
  720W        W69061  19.725   1.957   3.845
  721W        W69062  26.579  21.691   4.647
  722W        W69063  35.363  41.413   3.672
  723W        W69064  33.393  34.022   2.374
  724W        W69065  28.132  15.643  11.092
  725W        W69066  39.967   9.769  10.989
  726W        W69067   1.966  22.576  13.814
  727W        W69068  33.413  29.643  14.512
  728W        W69069  12.290  44.325   1.762
  729W        W69070  23.604   3.862  13.864
  730W        W69071  40.802  35.027  11.096
  731W        W69072   7.211  34.009  10.977
  732W        W69073  14.685  20.688  13.023
  733W        W69074   2.367  23.064   0.395
  734W        W69075  35.402  37.938  12.495
  735W        W69076  39.952  32.959  11.862
  736W        W69077  16.222  37.481   1.383
  737W        W69078  24.537  32.533   0.907
  738W        W69079  15.738  26.050   0.282
  739W        W69080  11.675  29.993   0.377
  740W        W69081  17.238  43.409  11.980
  741W        W69082  12.731  11.714  12.963
  742W        W69083  13.607  24.683  10.630
  743W        W69084  15.774  23.670   1.755
  744W        W69085  27.062  12.315  14.486
  745W        W69086  32.977   6.699   0.370
  746W        W69087  20.031  21.634  14.412
  747W        W69088  26.465  34.446  12.879
  748W        W69089   8.194  35.378   3.356
  749W        W69090  33.024  15.783  10.080
  750W        W69091  39.989  14.212  10.930
  751W        W69092  19.659  26.958   3.754
  752W        W69093  31.942  25.530  14.848
  753W        W69094  17.734  37.919   4.648
  754W        W69095  25.650  39.042  13.801
  755W        W69096  26.475  22.733  12.842
  756W        W69097  34.055   6.769   3.848
  757W        W69098  35.580  30.980  13.447
  758W        W69099  13.171  15.183  14.353
  759W        W69100   5.423  19.770   2.297
  760W        W69101  27.025  18.585  11.393
  761W        W69102  19.058  20.610   4.635
  762W        W69103  32.007   9.815  14.468
  763W        W69104  14.171  44.301  11.112
  764W        W69105  26.546  20.175  11.076
  765W        W69106  23.700  21.541  11.877
  766W        W69107   2.895  37.984  11.925
  767W        W69108  32.433  38.072  14.384
  768W        W69109  11.153  34.575  14.918
  769W        W69110  37.357  33.555   0.860
  770W        W69111  32.888  33.017   4.288
  771W        W69112   6.260  41.519   2.318
  772W        W69113  13.793  25.498  10.514
  773W        W69114  26.147  43.512  12.424
  774W        W69115  42.350  33.033  11.880
  775W        W69116  39.412  40.317   0.247
  776W        W69117  20.046   2.781   2.234
  777W        W69118   5.882  37.012  11.539
  778W        W69119  12.714   9.392  14.474
  779W        W69120  34.101  24.642  12.469
  780W        W69121  28.114  42.521  14.430
  781W        W69122  25.625  38.490   4.696
  782W        W69123  19.679  34.511   3.715
  783W        W69124  11.368   4.406   4.654
  784W        W69125  24.550  15.602   2.200
  785W        W69126  22.572   2.327   3.732
  786W        W69127  19.211  14.271   0.925
  787W        W69128   3.452  44.450   4.351
  788W        W69129  36.954   2.418   0.307
  789W        W69130  35.411  39.039  10.598
  790W        W69131  21.036  31.897  11.413
  791W        W69132  26.146  28.503   1.696
  792W        W69133  35.358  29.649  12.930
  793W        W69134  26.191  22.012   1.777
  794W        W69135  14.304  31.113   0.337
  795W        W69136  26.047  10.216   1.357
  796W        W69137  44.827  17.263   3.230
  797W        W69138  21.747  21.527  14.820
  798W        W69139  18.564  25.119  10.517
  799W        W69140  41.835   7.377   1.351
  800W        W69141  17.782   9.714   3.816
  801W        W69142  15.084   7.871  11.432
  802W        W69143  38.067  27.604   2.832
  803W        W69144  25.118  33.511  11.403
  804W        W69145  24.076  26.599  11.422
  805W        W69146  43.425   7.409   3.226
  806W        W69147  39.001  21.042  11.919
  807W        W69148  17.571   0.818   0.931
  808W        W69149  44.953  16.248  14.493
  809W        W69150  17.119  26.974  12.475
  810W        W69151   8.695  14.615   3.825
  811W        W69152   3.899  28.953   2.863
  812W        W69153  28.120  12.313  10.453
  813W        W69154  39.065   4.286  10.586
  814W        W69155  24.216  43.458  11.980
  815W        W69156  34.992  12.702  11.495
  816W        W69157  25.699  14.293  10.621
  817W        W69158  16.262  19.631  14.432
  818W        W69159  33.453  23.080   4.228
  819W        W69160  35.894  17.270   2.774
  820W        W69161  27.182  14.643   3.271
  821W        W69162   6.261  18.587   0.840
  822W        W69163  42.839   5.711   3.165
  823W        W69164  10.871  39.964  13.471
  824W        W69165  32.559   1.832  14.329
  825W        W69166  18.620  31.924   0.746
  826W        W69167  37.400  18.627   2.279
  827W        W69168  11.630  13.636   0.869
  828W        W69169  10.724  12.622   0.770
  829W        W69170   0.370  40.470  12.527
  830W        W69171  27.194  15.265  10.592
  831W        W69172  17.156  14.170   3.260
  832W        W69173  44.458  39.013  13.908
  833W        W69174   2.964  40.506  10.533
  834W        W69175  24.154  41.447  10.449
  835W        W69176   5.317   0.802  12.034
  836W        W69177  11.138  27.947  12.892
  837W        W69178  35.551  14.819  11.588
  838W        W69179  42.375   8.737  12.988
  839W        W69180   5.293  23.103   4.187
  840W        W69181   3.302  19.187   4.757
  841W        W69182   2.399   6.721   4.142
  842W        W69183  39.467  10.667   1.915
  843W        W69184  14.200  41.848  13.812
  844W        W69185  31.586   2.294   3.291
  845W        W69186  43.783  40.846   3.704
  846W        W69187   9.208  43.865  12.984
  847W        W69188  38.944  21.547  10.995
  848W        W69189   2.930  44.361  11.397
  849W        W69190  22.659  42.915   5.164
  850W        W69191  23.045   8.687  12.866
  851W        W69192  24.989  17.304   4.331
  852W        W69193  26.599  43.514  11.466
  853W        W69194   1.343  33.995  12.043
  854W        W69195  44.370  19.251   0.782
  855W        W69196  26.141  13.750   2.683
  856W        W69197  29.938  16.075  14.345
  857W        W69198   8.183  14.743   1.347
  858W        W69199  29.094  42.297  11.985
  859W        W69200   8.777   2.890   0.337
  860W        W69201  36.497   4.295   4.315
  861W        W69202  34.044  17.732   4.230
  862W        W69203   0.464  40.889   3.673
  863W        W69204  31.040  24.057   0.911
  864W        W69205  13.822   0.458  11.875
  865W        W69206  43.878  13.787   4.758
  866W        W69207  22.541  30.914   1.842
  867W        W69208  43.766   3.259   2.876
  868W        W69209   0.402  21.512  14.450
  869W        W69210  30.063  14.137  14.301
  870W        W69211  27.104  22.212   1.910
  871W        W69212  23.549  31.002  12.537
  872W        W69213  25.205  29.075   2.787
  873W        W69214  33.613  29.511   3.319
  874W        W69215  35.864  43.815  11.072
  875W        W69216  12.777  28.951  13.802
  876W        W69217   0.440  24.500   0.890
  877W        W69218  31.926   3.912   2.678
  878W        W69219   3.885   0.788   3.184
  879W        W69220   3.438   4.766   2.406
  880W        W69221  11.170  12.642  13.471
  881W        W69222   6.899   0.315   3.852
  882W        W69223  27.051  35.499  13.820
  883W        W69224  41.520  22.692   3.694
  884W        W69225  13.231  42.795   5.258
  885W        W69226  40.495  25.157   1.794
  886W        W69227  16.804  42.480   2.225
  887W        W69228  21.152  23.707  10.948
  888W        W69229  43.378  39.330  14.979
  889W        W69230  34.439  24.583   4.172
  890W        W69231  30.099  41.423   3.353
  891W        W69232  43.833  18.152   9.608
  892W        W69233  22.615  16.119   3.658
  893W        W69234  42.412  26.654   4.602
  894W        W69235  15.127  43.363   1.240
  895W        W69236  32.451  37.363  14.434
  896W        W69237  34.555  23.074  14.318
  897W        W69238  19.151  13.843   2.404
  898W        W69239  17.091  25.155  11.992
  899W        W69240  33.487  38.842  11.488
  900W        W69241  26.475  44.431   0.354
  901W        W69242   6.867   9.178   2.779
  902W        W69243  33.081  12.234  13.823
  903W        W69244  19.711  42.369  14.456
  904W        W69245   4.213  44.967   1.880
  905W        W69246  35.905  16.626  12.384
  906W        W69247  29.580  37.022  12.018
  907W        W69248  20.732  15.622  13.476
  908W        W69249  23.645   6.308   0.319
  909W        W69250  11.793   8.716  13.855
  910W        W69251   3.758  12.779  11.861
  911W        W69252  34.496  20.704   3.723
  912W        W69253  22.012   8.759  14.457
  913W        W69254  39.956  34.595   3.368
  914W        W69255   3.905  10.144   4.323
  915W        W69256  34.023  11.209  14.351
  916W        W69257  43.369   4.784  10.404
  917W        W69258   1.469   9.260  12.035
  918W        W69259  39.556  31.132  14.486
  919W        W69260  29.429  34.909  14.841
  920W        W69261  12.664  12.647   1.926
  921W        W69262  34.953  13.335   4.812
  922W        W69263  24.143  11.178   3.704
  923W        W69264  25.562  34.522  13.821
  924W        W69265  26.182   9.267  13.912
  925W        W69266  11.231  12.204  14.859
  926W        W69267  30.500  13.109  13.502
  927W        W69268   8.841   0.773   1.834
  928W        W69269  29.487  14.327  12.458
  929W        W69270  26.703   2.453   2.278
  930W        W69271   8.306  41.029   2.736
  931W        W69272  19.192   9.195  14.277
  932W        W69273  40.029  16.643   1.286
  933W        W69274  34.951  23.521  12.963
  934W        W69275  14.256  21.595  14.842
  935W        W69276  41.296  36.003   0.913
  936W        W69277   6.245  32.632   4.127
  937W        W69278  35.917  14.638   0.359
  938W        W69279  13.648  38.958  14.348
  939W        W69280  42.872  43.336   0.366
  940W        W69281   0.864   1.907  13.983
  941W        W69282  20.705  23.991  10.552
  942W        W69283  40.920  40.531  12.880
  943W        W69284  30.551   1.241  13.950
  944W        W69285  11.841   9.155  12.348
  945W        W69286  36.437  13.782  13.456
  946W        W69287  19.552  11.689  11.050
  947W        W69288  29.608  24.686   1.418
  948W        W69289  14.198   2.246   1.929
  949W        W69290  44.820  11.352   2.857
  950W        W69291  30.076  20.712  12.427
  951W        W69292   2.359   0.759   0.749
  952W        W69293  28.454  19.655  14.418
  953W        W69294   3.427  34.447   4.335
  954W        W69295   9.171  39.994   4.204
  955W        W69296   1.436  25.644  14.820
  956W        W69297   1.892  29.649   4.687
  957W        W69298  11.842  23.574   1.244
  958W        W69299   1.933   3.334   1.764
  959W        W69300  27.126  22.240  12.854
  960W        W69301  44.893  39.982   2.322
  961W        W69302  41.353   3.867  12.505
  962W        W69303  15.646  34.375   0.457
  963W        W69304  11.267   1.882   4.272
  964W        W69305  12.812  39.523  12.359
  965W        W69306  15.701  34.950   1.318
  966W        W69307  25.091  14.269   4.185
  967W        W69308   6.402   7.688  10.462
  968W        W69309   8.236  42.910  14.480
  969W        W69310  19.159  17.076  12.379
  970W        W69311  26.187  11.282  11.119
  971W        W69312  42.410  33.608  10.423
  972W        W69313  29.663   7.821  11.915
  973W        W69314  18.713   3.716   0.282
  974W        W69315  26.977  38.415   3.290
  975W        W69316  28.508  26.662   3.706
  976W        W69317   0.441  34.039   4.614
  977W        W69318  33.453  34.954   3.842
  978W        W69319   2.272  13.332  11.029
  979W        W69320  40.820  30.081   1.889
  980W        W69321  29.051   0.389   0.785
  981W        W69322   3.710  31.134  14.808
  982W        W69323  24.169   8.319  13.396
  983W        W69324  12.187  29.983   4.836
  984W        W69325  13.830  31.982  13.939
  985W        W69326  21.611  15.270  14.498
  986W        W69327  34.987  21.755  13.823
  987W        W69328  28.483   1.789   2.727
  988W        W69329  31.950  41.300  13.029
  989W        W69330  38.881  11.283  13.341
  990W        W69331  35.027  33.041  11.512
  991W        W69332  41.948  31.648  14.361
  992W        W69333  13.227   9.777  10.510
  993W        W69334  10.767   3.336  13.814
  994W        W69335  27.009   9.760  14.803
  995W        W69336  12.722  24.625   3.835
  996W        W69337  18.233  22.205   1.301
  997W        W69338   1.314  22.602   2.817
  998W        W69339  11.180   8.822   1.253
  999W        W69340  33.536  23.624   1.370
 1000W        W69341  20.559  42.420  14.901
 1001W        W69342  41.402  28.541  14.780
 1002W        W69343  16.625  25.634  10.997
 1003W        W69344  29.579  37.915   1.239
 1004W        W69345   1.321  32.442   4.804
 1005W        W69346  32.117  20.732   3.145
 1006W        W69347  29.438  42.924   4.233
 1007W        W69348  31.490  28.647   0.803
 1008W        W69349   9.349  44.966  10.972
 1009W        W69350  15.736  35.601  13.867
 1010W        W69351   3.221  31.013  12.074
 1011W        W69352   8.342  19.062   3.324
 1012W        W69353  22.624   7.321  14.415
 1013W        W69354   9.236  44.783  14.283
 1014W        W69355  27.990  37.979  10.493
 1015W        W69356  25.059  35.052   3.832
 1016W        W69357  33.014   6.710   2.205
 1017W        W69358  41.536  25.545  12.925
 1018W        W69359  35.066  13.140   3.327
 1019W        W69360  29.096  23.702  12.992
 1020W        W69361  27.186  24.037  11.865
 1021W        W69362  18.061   3.314  11.559
 1022W        W69363  34.385  24.974   2.218
 1023W        W69364   1.303   8.292  14.005
 1024W        W69365  31.923  38.444   3.808
 1025W        W69366  35.401  43.423   3.862
 1026W        W69367  20.073  23.607  13.433
 1027W        W69368  43.484   8.698  14.319
 1028W        W69369  13.740  26.554   9.922
 1029W        W69370   8.789  14.675  13.925
 1030W        W69371   3.336   8.832   0.799
 1031W        W69372   4.422  28.640   0.782
 1032W        W69373  29.627  18.144   1.446
 1033W        W69374  40.353  42.431   5.768
 1034W        W69375  44.862  15.749  12.914
 1035W        W69376  26.617  40.878  14.863
 1036W        W69377  10.693  26.152  12.079
 1037W        W69378   5.869  30.565   0.311
 1038W        W69379  18.074  35.087   0.365
 1039W        W69380  25.097  40.821  13.381
 1040W        W69381  42.807   3.777   0.956
 1041W        W69382  39.379  24.608   0.809
 1042W        W69383  26.071  37.843  14.866
 1043W        W69384  24.524  13.163   2.297
 1044W        W69385  42.843  27.454   2.795
 1045W        W69386  10.807  27.978   3.372
 1046W        W69387  42.935  20.643   4.335
 1047W        W69388  23.075   2.902   4.205
 1048W        W69389  10.742  24.211   0.448
 1049W        W69390  14.709  22.723   3.632
 1050W        W69391   8.702  25.208   3.798
 1051W        W69392  21.688  41.892   0.852
 1052W        W69393  20.595  42.972  13.441
 1053W        W69394  33.988   2.873   3.180
 1054W        W69395  18.748  41.004   0.960
 1055W        W69396   5.297   7.273   3.270
 1056W        W69397   1.775  35.863  13.839
 1057W        W69398  22.527  18.278   5.168
 1058W        W69399  15.326  43.893  11.427
 1059W        W69400   5.735   8.665   2.902
 1060W        W69401  10.661  32.067   0.281
 1061W        W69402  19.617  35.937   0.923
 1062W        W69403  25.622   2.359  11.464
 1063W        W69404  16.207  40.455   1.298
 1064W        W69405  35.557  42.979  12.912
 1065W        W69406  18.609  30.041   2.248
 1066W        W69407  35.078  24.133   5.257
 1067W        W69408  25.488   3.232   0.790
 1068W        W69409  31.602  22.044   1.839
 1069W        W69410  28.156  17.695  12.033
 1070W        W69411  12.796  19.231   1.236
 1071W        W69412  14.652  16.680  12.528
 1072W        W69413  41.004   9.832   3.331
 1073W        W69414  44.360  10.715   2.712
 1074W        W69415  26.619   3.383  12.037
 1075W        W69416  44.891  12.225   4.197
 1076W        W69417   5.307  14.218  14.466
 1077W        W69418  17.753  32.105   1.897
 1078W        W69419  26.000  36.576   0.813
 1079W        W69420  11.269  34.026   4.329
 1080W        W69421   6.199  36.908  12.537
 1081W        W69422  33.406   5.415   4.113
 1082W        W69423  19.127  37.037  12.949
 1083W        W69424  32.520  10.684  12.839
 1084W        W69425  39.493  16.592   2.379
 1085W        W69426  20.042  26.681   0.258
 1086W        W69427  11.755  30.913  14.434
 1087W        W69428  35.524  28.997   2.405
 1088W        W69429   0.294  26.000   4.716
 1089W        W69430  40.936  35.378  14.295
 1090W        W69431   0.255   2.319   2.863
 1091W        W69432  15.722  10.734  12.880
 1092W        W69433  41.821  34.020   0.414
 1093W        W69434   3.815  39.498   1.698
 1094W        W69435   4.319  18.605   3.365
 1095W        W69436  28.582  14.803   4.705
 1096W        W69437  30.026  30.465  12.437
 1097W        W69438   0.986  42.485  14.847
 1098W        W69439   5.405  14.737  13.974
 1099W        W69440   7.880  32.065  11.503
 1100W        W69441  30.114   5.780  10.557
 1101W        W69442  36.380  34.923   1.282
 1102W        W69443  27.600  40.024  12.980
 1103W        W69444  23.721  22.234  10.939
 1104W        W69445  17.642  10.762   0.289
 1105W        W69446   5.405  28.535   2.282
 1106W        W69447  29.436   7.221   1.910
 1107W        W69448  31.114   4.859   0.462
 1108W        W69449  29.641  15.318   2.679
 1109W        W69450  15.304  13.166   0.469
 1110W        W69451  40.417   3.930  10.423
 1111W        W69452  44.329  35.962   2.352
 1112W        W69453  30.130   6.855   1.301
 1113W        W69454  42.311  26.987   4.216
 1114W        W69455   0.784  22.706  12.959
 1115W        W69456  10.790  15.696  10.631
 1116W        W69457  16.619  11.340   0.756
 1117W        W69458   3.768  23.236  11.917
 1118W        W69459   2.965  16.575  10.046
 1119W        W69460  43.316  18.603   0.401
 1120W        W69461   6.839  32.572  11.111
 1121W        W69462  26.531   2.845   4.234
 1122W        W69463  33.399   7.385  12.910
 1123W        W69464   8.895  21.039   3.828
 1124W        W69465  20.062  15.716   3.751
 1125W        W69466  33.958  19.051  13.434
 1126W        W69467  13.300  33.118  12.370
 1127W        W69468  26.051  17.770  11.943
 1128W        W69469  36.073  22.134  14.461
 1129W        W69470  24.540   0.894  13.369
 1130W        W69471   9.353  10.836   3.375
 1131W        W69472   8.159   2.946   0.294
 1132W        W69473  11.646  10.752  10.522
 1133W        W69474  26.586   9.161   4.674
 1134W        W69475   6.337   5.791   0.877
 1135W        W69476   0.788  34.945  11.453
 1136W        W69477  18.578   6.428  12.040
 1137W        W69478  37.426  26.573   2.210
 1138W        W69479  17.188  28.965  10.612
 1139W        W69480  10.212   3.403  10.975
 1140W        W69481   4.708  13.141   2.384
 1141W        W69482  31.049  17.592  10.906
 1142W        W69483  40.949  30.999  12.446
 1143W        W69484   2.756  10.646   4.129
 1144W        W69485   3.384  27.149  14.990
 1145W        W69486  35.068  19.094   4.619
 1146W        W69487  17.633  24.044   4.755
 1147W        W69488   4.874  23.573   4.664
 1148W        W69489  16.715  16.292  14.379
 1149W        W69490  22.743  43.347   4.129
 1150W        W69491  14.786  32.465   3.635
 1151W        W69492  16.246  35.470   1.922
 1152W        W69493  19.720  33.392   0.343
 1153W        W69494   7.774  14.664  14.837
 1154W        W69495   8.247  30.916  11.409
 1155W        W69496   2.407   1.330  11.861
 1156W        W69497  32.044   0.347  10.068
 1157W        W69498  38.975  20.743  14.003
 1158W        W69499   4.729   6.314  14.362
 1159W        W69500  31.984  11.696  10.999
 1160W        W69501  42.321  39.884  13.961
 1161W        W69502  21.633   3.905   3.241
 1162W        W69503  11.842  31.048  11.111
 1163W        W69504   3.934  29.476  14.339
 1164W        W69505  28.448  38.571  11.936
 1165W        W69506  40.411  38.940   4.631
 1166W        W69507  42.943   9.767   0.389
 1167W        W69508  39.015  30.540   4.186
 1168W        W69509  30.654   8.792   2.400
 1169W        W69510  44.862  16.285  12.515
 1170W        W69511   3.801   7.300  12.083
 1171W        W69512   4.704  20.769  13.064
 1172W        W69513  10.861  11.691  11.540
 1173W        W69514   9.653  41.298   0.259
 1174W        W69515  24.084   5.272   1.267
 1175W        W69516  11.848  12.765   3.714
 1176W        W69517  43.904  33.987  13.332
 1177W        W69518  12.313  35.451   2.701
 1178W        W69519   8.889   8.839  11.455
 1179W        W69520  34.370   3.423   4.274
 1180W        W69521  28.495  12.800  11.027
 1181W        W69522  26.652  21.599   1.712
 1182W        W69523  41.030  35.552  11.494
 1183W        W69524  11.231  44.866   4.710
 1184W        W69525  15.773  21.197  14.769
 1185W        W69526  31.612  34.517  12.430
 1186W        W69527   2.956  40.011  13.464
 1187W        W69528   7.728   1.269  10.644
 1188W        W69529  40.499   1.354   1.875
 1189W        W69530  12.142  40.319  13.489
 1190W        W69531   9.692  30.443  11.090
 1191W        W69532   7.848  28.566   2.865
 1192W        W69533  32.622  20.177  10.892
 1193W        W69534  16.198  21.037  13.052
 1194W        W69535   3.423  38.444   1.225
 1195W        W69536  35.537  39.460  14.012
 1196W        W69537  41.905  25.171   2.846
 1197W        W69538  34.541  18.718   1.359
 1198W        W69539  44.915  16.140  10.421
 1199W        W69540   4.379   5.370  12.881
 1200W        W69541  20.223  17.093  11.461
 1201W        W69542  16.735  15.805   2.886
 1202W        W69543  29.495  35.521  14.831
 1203W        W69544   4.898  30.954  10.551
 1204W        W69545  30.059  36.482  11.029
 1205W        W69546   9.246  29.510   0.810
 1206W        W69547  31.982  37.392   2.233
 1207W        W69548  44.793  34.036  10.942
 1208W        W69549   9.645  26.095  14.928
 1209W        W69550  11.276  19.770   1.744
 1210W        W69551  16.129  18.742  11.040
 1211W        W69552  17.119  32.958   1.359
 1212W        W69553  33.435  43.287   1.732
 1213W        W69554  18.269  32.025   3.856
 1214W        W69555  43.846  25.552  13.873
 1215W        W69556  42.967  20.204   4.770
 1216W        W69557  23.985  44.801  14.339
 1217W        W69558   3.318  18.709   3.796
 1218W        W69559  25.503  28.454  13.049
 1219W        W69560  36.579  37.500  12.550
 1220W        W69561  20.730  26.069  11.027
 1221W        W69562  13.329  10.667   0.285
 1222W        W69563  29.586  21.248  11.122
 1223W        W69564   2.847   6.768   3.252
 1224W        W69565   4.750   4.297   2.706
 1225W        W69566  24.142   8.300   3.237
 1226W        W69567  31.035  20.061   4.647
 1227W        W69568  29.114  38.847  12.426
 1228W        W69569  14.315   8.402  12.039
 1229W        W69570  36.425   8.196   2.321
 1230W        W69571   0.940  29.956   3.221
 1231W        W69572  27.969  21.577   4.735
 1232W        W69573  15.819  42.885   5.168
 1233W        W69574  13.769  44.330   4.162
 1234W        W69575  10.294   6.356  14.892
 1235W        W69576  24.093  15.742  10.091
 1236W        W69577  18.248  25.602  14.874
 1237W        W69578  15.117   4.741   1.888
 1238W        W69579  36.919   0.261  14.932
 1239W        W69580  40.850  14.242   2.398
 1240W        W69581  32.480  20.700   0.451
 1241W        W69582   8.873  26.629   4.228
 1242W        W69583   1.895  13.226   2.729
 1243W        W69584  28.121  42.457  10.958
 1244W        W69585   9.302  34.473  10.932
 1245W        W69586  34.903  30.431  10.147
 1246W        W69587   7.327  13.167  12.906
 1247W        W69588  32.973  40.856  11.891
 1248W        W69589  38.508  23.176   3.823
 1249W        W69590   6.761  16.687   2.895
 1250W        W69591  23.143  24.527  11.944
 1251W        W69592  32.432  19.275   4.803
 1252W        W69593   4.893  12.841  12.992
 1253W        W69594  15.723  17.801   4.147
 1254W        W69595   6.284   0.318  14.830
 1255W        W69596  12.746   2.330  13.830
 1256W        W69597  14.298  17.266   1.904
 1257W        W69598  23.050  10.807  13.962
 1258W        W69599  19.166  32.631   0.250
 1259W        W69600   4.442  29.436  12.023
 1260W        W69601  39.372   5.356   1.312
 1261W        W69602  20.114  39.872   0.770
 1262W        W69603   5.334  38.466   3.830
 1263W        W69604  44.355  15.818   0.285
 1264W        W69605   8.892  23.012  14.998
 1265W        W69606  41.347   7.402   4.739
 1266W        W69607  33.877  40.840   0.883
 1267W        W69608  32.102  40.448  14.512
 1268W        W69609  38.343  32.451  13.356
 1269W        W69610   3.452  18.686   2.752
 1270W        W69611   1.832  35.559   2.898
 1271W        W69612  14.646  40.963   3.244
 1272W        W69613  32.931  37.877  10.494
 1273W        W69614  26.497   8.710  10.898
 1274W        W69615  21.231  26.621  13.328
 1275W        W69616  40.364  42.484  12.498
 1276W        W69617  13.241   7.393  12.524
 1277W        W69618  15.323  12.736  14.505
 1278W        W69619   7.268  17.073   1.412
 1279W        W69620  11.268   7.197  12.393
 1280W        W69621   0.347  36.058  12.352
 1281W        W69622  32.485  33.581   2.856
 1282W        W69623  28.515  12.138  14.511
 1283W        W69624  33.419  25.584  14.827
 1284W        W69625   3.926   4.436   4.218
 1285W        W69626  21.713  20.537   0.477
 1286W        W69627  31.590  11.268  12.009
 1287W        W69628  30.567   4.729   0.401
 1288W        W69629  39.822  38.386  11.556
 1289W        W69630  29.583  32.506   2.689
 1290W        W69631  35.975  30.014   4.309
 1291W        W69632  34.057  41.919  11.928
 1292W        W69633  26.070  20.741  14.814
 1293W        W69634  29.588  26.053  12.079
 1294W        W69635  24.016  35.562   4.266
 1295W        W69636   9.294   6.339  14.009
 1296W        W69637  44.837  16.140   1.277
 1297W        W69638  16.761  43.471  13.936
 1298W        W69639  35.401  25.984  10.635
 1299W        W69640  38.383  24.546  12.387
 1300W        W69641  44.480  10.801  12.031
 1301W        W69642   5.744  17.072  13.834
 1302W        W69643   6.785   1.773  14.366
 1303W        W69644  15.806  35.978  10.010
 1304W        W69645   8.890  29.089   3.799
 1305W        W69646  20.551  24.135  14.766
 1306W        W69647  22.504  18.131  11.098
 1307W        W69648  25.044  31.542   1.810
 1308W        W69649  10.810  41.975  14.341
 1309W        W69650  31.426   1.772  11.448
 1310W        W69651  17.202  43.834  14.385
 1311W        W69652  18.619   0.862  12.825
 1312W        W69653  42.492  31.528   2.399
 1313W        W69654  15.113  25.484   0.378
 1314W        W69655  44.865  15.124   3.870
 1315W        W69656  13.152  12.186  14.298
 1316W        W69657  41.814  40.850   0.364
 1317W        W69658  23.677  19.762  11.490
 1318W        W69659  16.169   0.369  10.973
 1319W        W69660  44.450  32.502  12.974
 1320W        W69661  41.455  16.598  12.064
 1321W        W69662  14.267  13.124  12.495
 1322W        W69663  13.714  26.627   0.352
 1323W        W69664  32.022   9.742  10.644
 1324W        W69665  22.219  19.093   4.742
 1325W        W69666  18.555  34.458  14.933
 1326W        W69667   0.918  42.469  14.342
 1327W        W69668   4.436   8.264   2.416
 1328W        W69669   9.286  14.702  11.489
 1329W        W69670  16.295  42.908   2.362
 1330W        W69671  29.515  36.395   3.840
 1331W        W69672  20.558   7.343  14.943
 1332W        W69673  29.583  13.679   2.766
 1333W        W69674  43.398  12.131  14.391
 1334W        W69675  10.794   0.281  14.377
 1335W        W69676  18.648  16.110  14.973
 1336W        W69677  41.308  15.634  14.921
 1337W        W69678  25.977  22.030  11.969
 1338W        W69679  25.663  34.432   3.770
 1339W        W69680  20.760  40.930   4.351
 1340W        W69681   6.326   4.341  13.402
 1341W        W69682   8.741  15.143  11.397
 1342W        W69683  29.012  41.789   0.477
 1343W        W69684  17.279  41.820   0.958
 1344W        W69685  40.527   6.332   1.219
 1345W        W69686  13.262  12.214   3.866
 1346W        W69687  29.937  25.539   0.392
 1347W        W69688  39.062   1.732   3.785
 1348W        W69689  14.149  38.946   0.290
 1349W        W69690  34.946   3.728   0.944
 1350W        W69691  21.726  20.643   2.367
 1351W        W69692   7.720   7.674   2.292
 1352W        W69693  30.506  34.979  12.032
 1353W        W69694   4.336  36.004  14.478
 1354W        W69695  23.055   1.828  11.451
 1355W        W69696  41.335  18.765  14.767
 1356W        W69697   4.800  12.306  11.437
 1357W        W69698  17.300  16.107  11.402
 1358W        W69699  30.573   5.372  11.057
 1359W        W69700   0.753  16.742  11.866
 1360W        W69701  16.093  19.607   1.269
 1361W        W69702  34.425   7.870  11.067
 1362W        W69703  23.075  19.672   2.303
 1363W        W69704  18.235  25.048   3.827
 1364W        W69705  29.107   9.763  11.579
 1365W        W69706  36.878   9.646   4.791
 1366W        W69707  36.449  36.042   3.709
 1367W        W69708  37.522  38.899  14.980
 1368W        W69709  43.338   7.889   3.753
 1369W        W69710  18.580  20.581  13.935
 1370W        W69711  34.439  25.593  13.838
 1371W        W69712  30.579  30.628   2.898
 1372W        W69713  26.004  39.931  11.989
 1373W        W69714  43.409  26.140   4.275
 1374W        W69715   8.345  25.970   3.720
 1375W        W69716  40.008  18.255  11.974
 1376W        W69717  26.994  32.114   0.470
 1377W        W69718  29.074  35.034   4.262
 1378W        W69719   8.677  23.004  11.087
 1379W        W69720  29.161   1.442  12.406
 1380W        W69721  40.365   9.818  12.945
 1381W        W69722  31.563  28.164   2.714
 1382W        W69723  20.571  20.080  13.052
 1383W        W69724  22.193  30.033   2.375
 1384W        W69725   0.773  26.491   3.284
 1385W        W69726  14.813  44.354  14.938
 1386W        W69727  19.070  27.121   1.325
 1387W        W69728  11.365  28.931  14.281
 1388W        W69729  36.469  34.929   3.371
 1389W        W69730  15.681  25.644  11.485
 1390W        W69731   0.873  22.223  10.565
 1391W        W69732  25.498  12.321   0.351
 1392W        W69733   9.874  29.965  11.541
 1393W        W69734  15.607  22.134   5.133
 1394W        W69735  40.853  39.953   9.528
 1395W        W69736  14.600  27.644  12.068
 1396W        W69737  25.964  24.091   4.258
 1397W        W69738   4.806  41.898   3.358
 1398W        W69739  20.628  23.190  12.976
 1399W        W69740  12.212   0.805   0.322
 1400W        W69741  21.535  28.033  14.373
 1401W        W69742  38.459   1.361  13.412
 1402W        W69743  41.331  26.564  10.142
 1403W        W69744  40.037   5.195   0.294
 1404W        W69745   5.244  36.891   2.767
 1405W        W69746   2.811  13.256  14.460
 1406W        W69747  40.460   8.813   0.902
 1407W        W69748  31.935  20.711   2.350
 1408W        W69749  31.508   9.313   3.264
 1409W        W69750  14.758  26.696  13.370
 1410W        W69751  24.653   6.211   3.779
 1411W        W69752  37.052  14.123   0.480
 1412W        W69753  12.659   1.837  14.855
 1413W        W69754  21.115  36.500  12.849
 1414W        W69755  22.110  38.927  13.527
 1415W        W69756  41.389  14.604   4.231
 1416W        W69757   8.226   9.762  11.967
 1417W        W69758  37.070  15.193  12.872
 1418W        W69759  40.406  39.468   1.718
 1419W        W69760   7.328   7.238  11.431
 1420W        W69761   4.931  28.615   2.745
 1421W        W69762  28.179  42.910  14.411
 1422W        W69763  19.718  30.575  10.931
 1423W        W69764  14.820  42.524   4.743
 1424W        W69765  13.198  37.936  12.021
 1425W        W69766  42.871  28.959   0.838
 1426W        W69767   5.206  12.854   1.258
 1427W        W69768  41.416  16.774   4.300
 1428W        W69769  34.094  36.554  11.567
 1429W        W69770   2.307  13.347   0.878
 1430W        W69771   7.818  44.383  11.527
 1431W        W69772  39.832   4.218   1.916
 1432W        W69773  29.108   5.707  11.038
 1433W        W69774  38.047  35.053   1.393
 1434W        W69775   2.353  23.522   2.331
 1435W        W69776  38.378  32.525  14.962
 1436W        W69777  13.669  41.425   4.136
 1437W        W69778  35.951  37.437  14.767
 1438W        W69779  18.215  24.523   1.706
 1439W        W69780  42.026  43.958   1.422
 1440W        W69781  11.313  31.937   2.205
 1441W        W69782  18.133  15.779  13.316
 1442W        W69783  30.104  20.681  10.561
 1443W        W69784  44.418  24.687   2.350
 1444W        W69785  34.092  11.165   1.327
 1445W        W69786  40.899  20.099   1.701
 1446W        W69787  39.359   8.733  10.510
 1447W        W69788  28.987  43.338   4.675
 1448W        W69789  31.990  36.580  13.334
 1449W        W69790  14.192   6.259  13.440
 1450W        W69791   1.323   6.183  11.875
 1451W        W69792  19.073  30.576   1.868
 1452W        W69793  36.049   5.781  13.506
 1453W        W69794  38.938   0.463  11.477
 1454W        W69795  43.383   2.952   1.773
 1455W        W69796  14.293  20.543  14.321
 1456W        W69797   4.358  20.606  14.396
 1457W        W69798  17.702  24.993   1.215
 1458W        W69799  14.741   2.345   1.438
 1459W        W69800  30.110  26.508  11.863
 1460W        W69801  44.262  37.886  11.483
 1461W        W69802  17.287  13.842  12.953
 1462W        W69803  34.388   9.217  10.479
 1463W        W69804  30.007  32.393   2.401
 1464W        W69805  16.122   3.393   2.216
 1465W        W69806   8.262  18.686   2.741
 1466W        W69807   4.827  22.171  10.055
 1467W        W69808  43.991  26.097   3.802
 1468W        W69809   7.754  11.642  14.372
 1469W        W69810  44.279  39.389  14.761
 1470W        W69811  28.653  15.279   0.472
 1471W        W69812  37.034  44.909   0.935
 1472W        W69813  19.700  30.989   5.089
 1473W        W69814  32.991  28.446   0.280
 1474W        W69815  41.353  14.823   3.672
 1475W        W69816  21.235  18.107  11.479
 1476W        W69817  41.950  26.650  14.823
 1477W        W69818   7.856   1.970   2.361
 1478W        W69819   4.722  18.782  11.927
 1479W        W69820  16.644  20.102   3.741
 1480W        W69821   1.411   0.805  11.611
 1481W        W69822  18.071  36.377   0.820
 1482W        W69823  40.820  28.968  14.357
 1483W        W69824  24.666  11.636   4.824
 1484W        W69825   4.226  39.490  10.944
 1485W        W69826  13.815  18.264   0.456
 1486W        W69827  24.620  17.112  14.397
 1487W        W69828   6.790  41.444   3.169
 1488W        W69829  26.984  30.611  10.567
 1489W        W69830  24.519  31.973  13.453
 1490W        W69831  34.039  12.356   4.800
 1491W        W69832  32.636  42.353  11.102
 1492W        W69833  27.091  40.319  12.071
 1493W        W69834  23.520  32.518   0.764
 1494W        W69835  12.308  16.199   3.732
 1495W        W69836  23.989  38.018  13.035
 1496W        W69837  23.673  38.932   4.823
 1497W        W69838  33.425   0.793   2.745
 1498W        W69839   4.777   3.711  11.416
 1499W        W69840  35.393  17.266   4.791
 1500W        W69841  34.431   0.308   4.222
 1501W        W69842   1.786  19.070   5.793
 1502W        W69843  32.442  23.720   4.145
 1503W        W69844   9.711  38.483   3.749
 1504W        W69845  35.963  22.696  10.415
 1505W        W69846  16.600   6.264   4.616
 1506W        W69847  28.656  18.201  10.972
 1507W        W69848  44.385  25.573  12.832
 1508W        W69849   6.424   2.336   3.292
 1509W        W69850  14.283   7.855   0.828
 1510W        W69851  25.574  41.333  14.916
 1511W        W69852  12.309  25.085  12.573
 1512W        W69853  32.558  12.790  10.558
 1513W        W69854  39.918  13.235   1.253
 1514W        W69855  39.986   1.873  13.982
 1515W        W69856  39.060  41.329  13.968
 1516W        W69857  21.062   0.958   2.287
 1517W        W69858  32.916  21.652   1.750
 1518W        W69859  24.036  17.072  14.387
 1519W        W69860  24.107  13.820   4.688
 1520W        W69861   3.376  31.146   2.343
 1521W        W69862   0.458   6.786   4.638
 1522W        W69863  36.911  41.470   0.865
 1523W        W69864  23.119  13.133  10.902
 1524W        W69865  15.324  38.425  10.465
 1525W        W69866  38.881   2.461   2.892
 1526W        W69867   4.443  25.634  11.486
 1527W        W69868  35.877  19.269  13.536
 1528W        W69869  33.029  19.159   2.227
 1529W        W69870   8.713   5.393  12.012
 1530W        W69871   4.874  43.310   4.741
 1531W        W69872  35.474   2.821  10.458
 1532W        W69873   6.680  16.804  13.887
 1533W        W69874  29.001  40.990  14.943
 1534W        W69875  31.959   6.885  13.354
 1535W        W69876   5.423  37.864   4.125
 1536W        W69877   4.826   3.421   9.927
 1537W        W69878  32.952   2.240   1.379
 1538W        W69879  42.986  38.892  14.410
 1539W        W69880  34.585  10.218  13.974
 1540W        W69881  33.971  35.546  11.492
 1541W        W69882  39.515  22.233   3.746
 1542W        W69883  43.468   4.750   3.657
 1543W        W69884  14.194  23.605   0.480
 1544W        W69885  18.163  39.029  11.891
 1545W        W69886  20.255  23.080  12.048
 1546W        W69887  37.430  20.748   3.774
 1547W        W69888  35.435  41.029  14.376
 1548W        W69889  30.907   5.746  12.563
 1549W        W69890   5.738  30.421   0.903
 1550W        W69891  33.030  39.869  11.887
 1551W        W69892  23.025  23.732   3.231
 1552W        W69893  24.164  37.865  12.565
 1553W        W69894  22.534  44.327   4.614
 1554W        W69895   6.215  16.710  10.606
 1555W        W69896  32.590  11.181   1.711
 1556W        W69897  24.166  12.156   2.849
 1557W        W69898  25.685  18.056  13.454
 1558W        W69899  35.484  12.802  11.423
 1559W        W69900   6.259  11.787   5.086
 1560W        W69901  17.676  11.850  10.551
 1561W        W69902  24.705  16.743  14.797
 1562W        W69903  33.038  40.957  14.480
 1563W        W69904   3.317  43.270   2.371
 1564W        W69905   8.726  23.641   3.162
 1565W        W69906   3.378  44.914  13.500
 1566W        W69907  21.261   3.269   3.200
 1567W        W69908  28.457   9.166  12.077
 1568W        W69909  25.482   6.890   0.783
 1569W        W69910  32.097   8.283   3.169
 1570W        W69911  21.244   4.755  12.982
 1571W        W69912  28.513  37.844   1.304
 1572W        W69913  21.652  30.954   1.216
 1573W        W69914  12.157  21.168   1.377
 1574W        W69915  40.800  21.641  14.989
 1575W        W69916  17.658  29.458   4.265
 1576W        W69917  21.617  33.539  13.518
 1577W        W69918  35.072   6.696   4.115
 1578W        W69919  33.588  16.758  14.947
 1579W        W69920  15.252  27.625   0.318
 1580W        W69921  26.170  13.615   3.661
 1581W        W69922  22.681  41.800  13.335
 1582W        W69923  14.773   3.880   1.799
 1583W        W69924  23.665  31.448  14.332
 1584W        W69925  18.282  12.164  13.820
 1585W        W69926   6.708  27.520   4.161
 1586W        W69927  32.500  23.622   4.814
 1587W        W69928  28.014  11.767  13.499
 1588W        W69929  18.088   2.720  11.890
 1589W        W69930  12.703  30.552   2.293
 1590W        W69931   8.865  43.900  14.404
 1591W        W69932  11.307  25.028  13.846
 1592W        W69933  24.547  33.027   1.220
 1593W        W69934  30.974  19.177   2.886
 1594W        W69935  24.166  43.386  13.479
 1595W        W69936  20.683  20.723  14.932
 1596W        W69937  25.048   4.906   0.413
 1597W        W69938  32.083  16.766  10.961
 1598W        W69939   1.940  41.014   4.231
 1599W        W69940  39.013   1.925   2.775
 1600W        W69941  14.779  39.450  12.981
 1601W        W69942  20.075  37.860  13.307
 1602W        W69943  38.553  42.776   0.370
 1603W        W69944  11.744  38.372   0.898
 1604W        W69945   4.314  17.622  14.940
 1605W        W69946  20.647  41.876  10.489
 1606W        W69947  23.186   2.743   1.765
 1607W        W69948  22.538  40.387   1.305
 1608W        W69949  31.623  16.759   4.733
 1609W        W69950   3.844  37.010  12.059
 1610W        W69951  18.254  37.927  13.058
 1611W        W69952   5.373  31.127   2.221
 1612W        W69953   4.290  25.166  11.988
 1613W        W69954  24.489   4.355  10.467
 1614W        W69955  35.528  23.103  14.506
 1615W        W69956  25.600  30.073  13.901
 1616W        W69957  39.498  28.511   1.352
 1617W        W69958   2.756  41.845   0.276
 1618W        W69959  20.188   4.387  11.461
 1619W        W69960  23.039  44.756   0.826
 1620W        W69961  36.569  23.232  12.514
 1621W        W69962  11.759  24.161   3.163
 1622W        W69963  25.610  38.867   2.235
 1623W        W69964  25.113   0.333   3.781
 1624W        W69965  33.947   0.337   1.803
 1625W        W69966   6.266  27.529   4.618
 1626W        W69967   8.297   2.728  13.350
 1627W        W69968  42.855  11.787   2.744
 1628W        W69969  20.659  24.555  13.048
 1629W        W69970  25.510  14.656   3.367
 1630W        W69971  33.570  42.805   1.350
 1631W        W69972   9.792  20.115   4.663
 1632W        W69973  10.199  19.115   0.273
 1633W        W69974  25.479  15.607   3.825
 1634W        W69975  23.033  18.204   2.398
 1635W        W69976  30.911  24.691   1.272
 1636W        W69977  29.045  29.648  11.898
 1637W        W69978  42.959  20.594  14.427
 1638W        W69979   6.834  10.868   0.421
 1639W        W69980   0.893  34.402   1.921
 1640W        W69981  21.223  30.599   1.439
 1641W        W69982  37.072  14.742   3.719
 1642W        W69983  23.113  11.308  15.000
 1643W        W69984  38.900   5.705  11.902
 1644W        W69985  37.440  39.063  12.060
 1645W        W69986   0.438   0.493   2.780
 1646W        W69987  14.593   1.913   2.663
 1647W        W69988  19.713   5.357   1.809
 1648W        W69989   1.443  18.572  12.443
 1649W        W69990  41.998  28.970  14.797
 1650W        W69991  32.509  16.589  11.030
 1651W        W69992  41.534   9.890   2.895
 1652W        W69993   8.657  24.665  12.427
 1653W        W69994   3.293   0.476  12.998
 1654W        W69995  42.323   9.298   0.922
 1655W        W69996  42.466  21.049  10.504
 1656W        W69997   9.871   9.676   3.245
 1657W        W69998  31.042  35.448   3.178
 1658W        W69999   1.256  35.066   1.335
 1659W        W70000   2.822  11.222   0.828
 1660W        W70001   7.881  32.623   3.271
 1661W        W70002  34.495  15.646   1.897
 1662W        W70003  14.701  16.281   2.372
 1663W        W70004  24.495  21.734   4.208
 1664W        W70005  37.452  41.834  11.954
 1665W        W70006  41.386  18.130  14.776
 1666W        W70007  15.325  41.913  11.483
 1667W        W70008  34.534   2.467  14.970
 1668W        W70009   2.311  13.119  12.837
 1669W        W70010  21.546  37.493   3.347
 1670W        W70011   0.333  32.906  11.874
 1671W        W70012  39.826  38.840  13.397
 1672W        W70013  32.490  22.525  13.957
 1673W        W70014  29.659   6.215   1.216
 1674W        W70015  34.396  10.646  10.938
 1675W        W70016  38.397  42.864  13.904
 1676W        W70017  29.493   7.175  11.610
 1677W        W70018  23.223  30.610  13.430
 1678W        W70019  10.829  35.563   2.283
 1679W        W70020  36.348  42.974  11.928
 1680W        W70021  11.241  21.032   0.274
 1681W        W70022   7.246  37.439   5.218
 1682W        W70023  22.741  27.991   2.771
 1683W        W70024   3.825  35.094  14.785
 1684W        W70025  36.448  19.662  13.904
 1685W        W70026  42.892  17.659  12.997
 1686W        W70027  19.672  31.466  10.902
 1687W        W70028  28.039  41.333  14.919
 1688W        W70029  37.364  30.936   4.160
 1689W        W70030  29.538   1.797  12.567
 1690W        W70031   0.907  27.613   1.923
 1691W        W70032  35.070  18.577   4.229
 1692W        W70033  15.266  25.518   3.307
 1693W        W70034   5.840  38.930   4.702
 1694W        W70035   9.665  13.843  12.043
 1695W        W70036  38.354  42.402   4.708
 1696W        W70037  22.643  31.585   4.313
 1697W        W70038  41.890  24.585  12.007
 1698W        W70039  27.508  22.649  12.890
 1699W        W70040   1.844  43.886  13.985
 1700W        W70041  18.784  33.065  11.099
 1701W        W70042  44.266  30.592   4.692
 1702W        W70043   8.717  36.356   1.238
 1703W        W70044  42.503  35.089   0.411
 1704W        W70045  16.139  37.084   0.450
 1705W        W70046  17.601  15.775  10.458
 1706W        W70047   5.695  41.834   4.796
 1707W        W70048  16.741  15.762   1.256
 1708W        W70049  40.883  20.134   4.775
 1709W        W70050   1.734   4.385  10.561
 1710W        W70051   7.261  30.960   3.693
 1711W        W70052  20.689  32.392  14.833
 1712W        W70053  13.804  10.229  14.901
 1713W        W70054  13.176  24.148   3.291
 1714W        W70055  21.069  33.113   2.866
 1715W        W70056  20.088   6.201   4.784
 1716W        W70057  41.344   3.845  14.795
 1717W        W70058  43.821  40.975  12.033
 1718W        W70059  37.370  40.869   3.323
 1719W        W70060  18.715  32.432   3.665
 1720W        W70061  11.850  11.854  12.485
 1721W        W70062   3.787  14.809   1.741
 1722W        W70063   9.804  18.786   1.430
 1723W        W70064   9.754  22.189   0.482
 1724W        W70065  26.152  12.280   1.841
 1725W        W70066  20.076  32.569   0.827
 1726W        W70067  18.110  25.631   2.900
 1727W        W70068   3.790   5.422  13.059
 1728W        W70069  18.245  40.462  13.525
 1729W        W70070  29.639  40.915  14.781
 1730W        W70071  18.780  17.144   2.249
 1731W        W70072  43.007  42.857   3.338
 1732W        W70073  39.507  17.649  11.014
 1733W        W70074   7.850  17.565  12.541
 1734W        W70075  13.666  25.995  12.074
 1735W        W70076  41.981   8.867  10.037
 1736W        W70077   7.798   7.746   3.798
 1737W        W70078   8.267  11.218   0.453
 1738W        W70079  19.169  40.448  14.355
 1739W        W70080  43.396  15.107   4.218
 1740W        W70081  34.980   5.222  11.471
 1741W        W70082  19.089  38.921   4.131
 1742W        W70083   4.283  14.641   1.805
 1743W        W70084  24.540  16.105  14.894
 1744W        W70085  35.555   7.260  12.451
 1745W        W70086  36.891  22.016   0.964
 1746W        W70087  43.887   5.378  14.414
 1747W        W70088  10.162  17.709  13.331
 1748W        W70089   6.238  29.111   4.799
 1749W        W70090  19.756  10.801  10.466
 1750W        W70091  27.563  26.061   3.780
 1751W        W70092  11.622  41.013   4.685
 1752W        W70093   0.982  13.217  14.329
 1753W        W70094  33.924  25.038  10.443
 1754W        W70095  10.836  23.704  11.887
 1755W        W70096  41.862  13.667  11.053
 1756W        W70097  22.071  10.712   2.293
 1757W        W70098  33.571  30.066  10.497
 1758W        W70099  38.523   5.210   0.936
 1759W        W70100  27.449  25.602  10.430
 1760W        W70101  24.488   3.892  10.537
 1761W        W70102  40.309  28.497   4.757
 1762W        W70103  29.527  43.398   2.894
 1763W        W70104   3.750  16.180  14.893
 1764W        W70105  26.983  30.508   4.634
 1765W        W70106  37.875  44.432  14.931
 1766W        W70107  44.809   2.347  14.787
 1767W        W70108   0.452  39.835  14.972
 1768W        W70109  17.674  35.385   1.376
 1769W        W70110  22.649  15.228  12.928
 1770W        W70111  35.978  24.492  14.285
 1771W        W70112  43.333   4.264  12.347
 1772W        W70113  41.510  37.530  10.914
 1773W        W70114  44.496  36.461   2.718
 1774W        W70115   9.802  21.690  13.906
 1775W        W70116   5.239  14.588  11.584
 1776W        W70117  21.605  42.957  12.533
 1777W        W70118  21.236  36.847   2.817
 1778W        W70119  44.985   0.962  11.567
 1779W        W70120  38.328  17.217  11.492
 1780W        W70121   7.844  19.061   0.352
 1781W        W70122   1.912  15.627  10.946
 1782W        W70123  22.538   9.327  13.337
 1783W        W70124   7.386  39.013  11.934
 1784W        W70125   4.796  16.680  12.566
 1785W        W70126  11.698  43.461   2.400
 1786W        W70127  18.266  35.457   3.674
 1787W        W70128   1.964   0.815  11.093
 1788W        W70129  43.386  27.942   0.449
 1789W        W70130   5.749  29.455   0.388
 1790W        W70131  17.123   2.344  11.102
 1791W        W70132  13.275  32.985   2.810
 1792W        W70133  12.227   8.747   3.377
 1793W        W70134  34.918  29.670  11.487
 1794W        W70135  43.767  29.423   3.189
 1795W        W70136  19.107  37.837  11.603
 1796W        W70137  27.081  40.926  10.905
 1797W        W70138  23.548  42.014  13.997
 1798W        W70139  19.766   0.474   0.345
 1799W        W70140  19.548  22.102   1.771
 1800W        W70141  10.765  29.512   4.346
 1801W        W70142  44.486  43.924  12.569
 1802W        W70143  43.902   4.394   0.273
 1803W        W70144  34.084  44.874  11.461
 1804W        W70145  36.949  39.858  10.644
 1805W        W70146  35.568   0.344   3.648
 1806W        W70147  28.546  33.078   4.697
 1807W        W70148   4.704  13.675   3.644
 1808W        W70149  25.136  13.340   0.279
 1809W        W70150   3.291   8.322  12.381
 1810W        W70151  41.030  16.298   4.354
 1811W        W70152  35.898  16.681  11.945
 1812W        W70153   7.214  34.544  14.367
 1813W        W70154   8.235   0.410  10.408
 1814W        W70155  23.229  29.089   1.341
 1815W        W70156  22.678   2.815   2.362
 1816W        W70157  14.262  20.222  10.521
 1817W        W70158  17.639  40.448   2.389
 1818W        W70159  23.596  38.415   3.818
 1819W        W70160  16.251  15.676   4.610
 1820W        W70161  41.360   1.337   3.643
 1821W        W70162  26.571  43.419   0.289
 1822W        W70163  35.558  28.168   3.702
 1823W        W70164  23.533   9.173  11.459
 1824W        W70165  37.881  21.232  10.120
 1825W        W70166  20.743   5.705  11.461
 1826W        W70167  35.384  38.864   2.885
 1827W        W70168  13.611   0.768   1.212
 1828W        W70169  10.819  17.573  11.609
 1829W        W70170  33.515  25.140  11.025
 1830W        W70171  43.883  15.146  11.893
 1831W        W70172  41.925  41.470   3.267
 1832W        W70173  22.673  12.636  10.597
 1833W        W70174  22.557  42.001  11.925
 1834W        W70175  16.278  32.505  11.115
 1835W        W70176  11.825   2.812   2.675
 1836W        W70177   3.724  27.482   0.856
 1837W        W70178  41.038  34.058  10.479
 1838W        W70179  41.881   7.715   2.345
 1839W        W70180  20.071  38.459   2.692
 1840W        W70181   2.328  15.278  10.986
 1841W        W70182  25.984  12.171   4.248
 1842W        W70183  32.637  11.658   3.780
 1843W        W70184   6.710  24.609  10.982
 1844W        W70185  11.718  30.605  12.437
 1845W        W70186  34.454   7.248  11.128
 1846W        W70187   4.373  25.686   3.667
 1847W        W70188  20.253  33.044   4.629
 1848W        W70189  40.432  24.589   0.855
 1849W        W70190  24.079  42.018  11.936
 1850W        W70191  16.736   5.386   4.336
 1851W        W70192   6.347  32.508  14.817
 1852W        W70193   8.182   6.288   4.691
 1853W        W70194  43.818  24.163  13.873
 1854W        W70195  31.965   4.281  10.420
 1855W        W70196  31.519  10.827   1.280
 1856W        W70197   4.412  26.130  10.444
 1857W        W70198  13.651  35.997   0.442
 1858W        W70199  12.742   9.382  13.489
 1859W        W70200   0.789  19.230  10.931
 1860W        W70201  10.288  29.078   1.412
 1861W        W70202  10.202   8.197  10.017
 1862W        W70203  13.137   3.860  12.413
 1863W        W70204  40.983  10.661   3.180
 1864W        W70205   0.945  16.645  13.511
 1865W        W70206   3.840  11.293  12.545
 1866W        W70207  28.543  37.024  11.564
 1867W        W70208  28.083  18.066   2.191
 1868W        W70209   1.314  10.653  12.073
 1869W        W70210  22.733   6.876   4.334
 1870W        W70211  41.850  19.577  10.031
 1871W        W70212  37.471  41.034   5.269
 1872W        W70213  40.888   2.364   4.643
 1873W        W70214  34.452  26.162  14.285
 1874W        W70215  26.563  12.311  13.429
 1875W        W70216  43.420  37.445  12.031
 1876W        W70217   4.390  18.153   4.672
 1877W        W70218   4.362   0.381   0.789
 1878W        W70219  27.557  37.014   2.837
 1879W        W70220  14.295  30.558  10.627
 1880W        W70221  31.514  22.681   2.728
 1881W        W70222  19.163  15.230   3.818
 1882W        W70223  44.008  35.035  14.008
 1883W        W70224  41.009   2.229  11.878
 1884W        W70225   0.295  30.145  10.406
 1885W        W70226   9.750   9.882  13.853
 1886W        W70227  26.501  12.177  14.339
 1887W        W70228  30.908  22.536  14.913
 1888W        W70229  27.021  24.548  11.917
 1889W        W70230  42.525  31.600   2.735
 1890W        W70231   9.645  18.100  10.425
 1891W        W70232  11.824  21.184   2.664
 1892W        W70233  26.570  31.013   1.213
 1893W        W70234  23.185  31.974   3.777
 1894W        W70235  14.660  38.894  14.337
 1895W        W70236  15.595  31.993   3.669
 1896W        W70237  19.590  42.487   2.266
 1897W        W70238  11.689  28.084   5.293
 1898W        W70239  24.501  44.755  13.998
 1899W        W70240  27.194  26.103  10.619
 1900W        W70241  43.440  16.659  14.515
 1901W        W70242  27.163  20.595   4.606
 1902W        W70243  41.966  12.234   2.826
 1903W        W70244   2.881  22.043   4.602
 1904W        W70245  24.014   8.173  11.025
 1905W        W70246  25.159  20.744   2.722
 1906W        W70247   9.380  31.955  12.439
 1907W        W70248  42.496  23.512  11.990
 1908W        W70249  24.081  34.926  13.907
 1909W        W70250  30.025  40.319   1.783
 1910W        W70251  17.109   9.234  14.906
 1911W        W70252  44.412  13.621  10.898
 1912W        W70253   7.273  27.142  12.415
 1913W        W70254  38.349   0.742   0.946
 1914W        W70255  42.775  32.985   0.362
 1915W        W70256   0.265  25.146   4.133
 1916W        W70257   6.406   7.725  13.008
 1917W        W70258   3.758  12.261   2.366
 1918W        W70259  24.676   2.237  11.402
 1919W        W70260  43.961  24.575  12.397
 1920W        W70261  27.660   7.724  13.985
 1921W        W70262  39.942  41.985   0.247
 1922W        W70263  28.047   5.845   0.420
 1923W        W70264   8.354  12.641  14.764
 1924W        W70265  34.454  38.468   1.792
 1925W        W70266  27.994   5.869  11.482
 1926W        W70267  27.485  10.247  12.954
 1927W        W70268  11.199  15.757  14.491
 1928W        W70269  21.067  32.573  10.518
 1929W        W70270  11.850  36.903  14.864
 1930W        W70271   2.271  40.036   0.809
 1931W        W70272  27.636  10.693   0.305
 1932W        W70273   2.801  30.545   1.778
 1933W        W70274  41.840   3.316  14.903
 1934W        W70275  37.495   9.863  13.905
 1935W        W70276  32.612   8.818  13.009
 1936W        W70277  23.192   3.368  14.513
 1937W        W70278   2.887   1.960  14.293
 1938W        W70279   1.328  34.463  11.022
 1939W        W70280  17.171  25.073   2.264
 1940W        W70281  32.945  42.407  11.517
 1941W        W70282  41.424  12.711  11.070
 1942W        W70283  25.022  44.414   1.787
 1943W        W70284  43.501  35.877   0.246
 1944W        W70285  13.270   2.286  10.575
 1945W        W70286  31.918  25.685   0.851
 1946W        W70287  34.059  42.816   0.831
 1947W        W70288  21.743  20.753  10.910
 1948W        W70289  27.487  11.649  12.449
 1949W        W70290  38.501   2.816  11.073
 1950W        W70291  14.292  22.201   0.270
 1951W        W70292  22.127  15.145   3.751
 1952W        W70293  36.005   5.750   3.356
 1953W        W70294  29.520  44.824  11.514
 1954W        W70295  26.598  27.178   0.324
 1955W        W70296  16.761  21.214   5.189
 1956W        W70297  12.790  31.106  14.482
 1957W        W70298   9.768  32.414   0.346
 1958W        W70299  19.043  21.627  11.050
 1959W        W70300  25.666   6.702  10.535
 1960W        W70301  13.705  25.526   0.894
 1961W        W70302  35.865   6.300   2.342
 1962W        W70303  24.079  34.387   0.280
 1963W        W70304   1.378  27.055  11.876
 1964W        W70305  24.074  19.707   2.776
 1965W        W70306  10.353  42.495  14.994
 1966W        W70307  28.989  28.180  13.954
 1967W        W70308  13.718   9.311   2.279
 1968W        W70309   6.261  18.771   4.706
 1969W        W70310   4.315  43.459   0.433
 1970W        W70311  23.025  16.098   2.826
 1971W        W70312  35.963   3.730  13.350
 1972W        W70313  41.299  15.617  13.930
 1973W        W70314  16.297  29.018   0.786
 1974W        W70315  37.540   5.359   3.708
 1975W        W70316  37.346  31.602   4.738
 1976W        W70317  35.884  36.557   1.882
 1977W        W70318  29.595  27.057  12.088
 1978W        W70319  20.217  42.852  11.925
 1979W        W70320  42.931   8.204  14.907
 1980W        W70321  12.655  23.239   4.777
 1981W        W70322  10.761  25.612   4.612
 1982W        W70323  23.119  38.358  14.342
 1983W        W70324  29.495  37.358  13.506
 1984W        W70325   7.906  22.183   1.397
 1985W        W70326  32.986  10.785   3.843
 1986W        W70327   0.283  26.486  14.969
 1987W        W70328  26.518  30.055   1.750
 1988W        W70329  23.029  15.094  13.844
 1989W        W70330  18.607  41.353   4.832
 1990W        W70331  34.972  16.123  13.918
 1991W        W70332  26.597   4.403  10.432
 1992W        W70333   0.915  21.167   3.726
 1993W        W70334  42.961  27.132   2.240
 1994W        W70335  21.673  13.198  11.123
 1995W        W70336  37.991  21.111  14.437
 1996W        W70337  37.066  34.592   2.781
 1997W        W70338  16.741  43.460   0.926
 1998W        W70339   2.862  21.597  12.949
 1999W        W70340  14.801  40.940   1.249
 2000W        W70341   5.842  11.821   0.763
 2001W        W70342  28.161   9.649   2.257
 2002W        W70343   5.357  38.897  13.877
 2003W        W70344  44.877   4.410   4.747
 2004W        W70345  29.106  41.402   1.903
 2005W        W70346  20.218  13.150   1.262
 2006W        W70347   7.669  17.777  13.358
 2007W        W70348  23.167   9.316  11.104
 2008W        W70349  39.547   9.873   1.270
 2009W        W70350  32.505  18.559   4.147
 2010W        W70351  29.045  13.817  13.900
 2011W        W70352  41.319   9.702  14.934
 2012W        W70353  37.562  27.523   2.823
 2013W        W70354  12.298  18.153   4.670
 2014W        W70355  38.567  32.930  14.785
 2015W        W70356  17.292  25.986  10.912
 2016W        W70357   8.704  23.732   0.882
 2017W        W70358  31.937   0.749   1.340
 2018W        W70359   3.227  19.772  12.561
 2019W        W70360  11.337  18.767   1.880
 2020W        W70361  36.524  34.018   0.357
 2021W        W70362  12.625  44.438   2.749
 2022W        W70363  38.356  39.551   1.270
 2023W        W70364  16.295  16.631   3.808
 2024W        W70365  33.992  23.213   0.759
 2025W        W70366  40.475  27.499  11.077
 2026W        W70367   0.256   7.887   1.699
 2027W        W70368  18.546  36.991   2.207
 2028W        W70369  28.617  41.911  12.340
 2029W        W70370   5.257   2.358   1.414
 2030W        W70371  30.941  29.654   3.727
 2031W        W70372  29.551  20.642   0.944
 2032W        W70373   7.350  42.997  14.948
 2033W        W70374  18.245  23.605  11.046
 2034W        W70375  39.550  10.185   0.410
 2035W        W70376  33.898  42.343   3.732
 2036W        W70377  43.432  22.118   0.804
 2037W        W70378  30.062  28.449   1.749
 2038W        W70379  13.161  21.690  13.941
 2039W        W70380  14.241   5.713  11.086
 2040W        W70381  19.534  33.086   1.795
 2041W        W70382  42.777  40.943   2.676
 2042W        W70383  40.492   3.401  12.959
 2043W        W70384  32.139  26.204   3.717
 2044W        W70385  40.360  33.024  10.481
 2045W        W70386  14.606  31.473  13.978
 2046W        W70387  38.381  30.079  11.556
 2047W        W70388   3.383   5.277   4.685
 2048W        W70389  39.010  28.659   0.759
 2049W        W70390  21.155  17.123   2.278
 2050W        W70391  20.721  12.684   2.393
 2051W        W70392  32.992  36.862   3.317
 2052W        W70393  22.089  15.660  11.422
 2053W        W70394   3.270  11.221  13.327
 2054W        W70395  21.645   7.328   4.821
 2055W        W70396  25.177  38.000  12.564
 2056W        W70397  13.246   4.277   4.661
 2057W        W70398  11.866  36.033  10.007
 2058W        W70399  16.582  33.590  10.609
 2059W        W70400   2.832   5.291  12.960
 2060W        W70401   0.370   0.449  12.002
 2061W        W70402   8.688  21.732   4.217
 2062W        W70403  35.468   4.421  10.626
 2063W        W70404  38.941  36.052  11.497
 2064W        W70405  15.701  31.419  12.915
 2065W        W70406  18.175   4.296  11.072
 2066W        W70407   9.877   2.819   2.785
 2067W        W70408   5.201  12.621   3.854
 2068W        W70409  11.846  23.032   1.884
 2069W        W70410   6.844  27.048   0.380
 2070W        W70411  42.354   2.295   3.748
 2071W        W70412   1.439   8.336  13.536
 2072W        W70413  25.631  13.147  12.925
 2073W        W70414  11.163  37.898   2.732
 2074W        W70415   0.860  20.044  10.124
 2075W        W70416  23.015  32.912   1.292
 2076W        W70417  18.569   3.225   4.157
 2077W        W70418  41.028  13.640   1.814
 2078W        W70419  26.467  20.653  12.384
 2079W        W70420   1.834  39.909  10.627
 2080W        W70421  39.893  11.638   3.373
 2081W        W70422  34.863  18.088   1.760
 2082W        W70423  13.207   5.722  12.968
 2083W        W70424  26.502  41.494  14.992
 2084W        W70425   9.868  33.520   4.160
 2085W        W70426  42.332  16.196  11.905
 2086W        W70427  43.945   3.344   2.394
 2087W        W70428  14.295   9.710  12.980
 2088W        W70429  12.708  14.154   4.261
 2089W        W70430  25.166  10.876   3.844
 2090W        W70431  23.735  35.053   4.664
 2091W        W70432  11.146  23.587   4.633
 2092W        W70433  14.679  38.555  13.506
 2093W        W70434  16.780  30.494  13.033
 2094W        W70435  26.683  25.988  11.064
 2095W        W70436  44.404  28.478  12.885
 2096W        W70437  16.134  24.717   1.804
 2097W        W70438  16.652  29.984  13.989
 2098W        W70439  22.572  40.897  10.442
 2099W        W70440   9.380  13.242  10.587
 2100W        W70441   1.860   1.904  13.437
 2101W        W70442  35.595  42.506   0.780
 2102W        W70443  17.588   3.719  13.332
 2103W        W70444  15.302  12.349   4.136
 2104W        W70445  36.096  41.347   1.324
 2105W        W70446  29.460  17.161   3.824
 2106W        W70447  12.774  39.543   0.880
 2107W        W70448   5.875  32.949  12.487
 2108W        W70449  35.574  32.963   1.436
 2109W        W70450  25.994  23.566  11.880
 2110W        W70451  36.022  27.101   0.750
 2111W        W70452  27.178   8.163  13.837
 2112W        W70453   8.668  27.613  13.845
 2113W        W70454  14.700  28.579  14.499
 2114W        W70455  21.201  14.799   2.740
 2115W        W70456  33.948   2.288   4.212
 2116W        W70457  27.094  15.165  14.866
 2117W        W70458  19.197   3.227  14.021
 2118W        W70459   4.835  15.284   3.276
 2119W        W70460  16.249  14.804   0.308
 2120W        W70461   0.963  23.098  12.517
 2121W        W70462  11.258  39.968  12.839
 2122W        W70463  16.145  32.948  11.025
 2123W        W70464  34.895  18.155  12.020
 2124W        W70465  10.347   6.220   4.309
 2125W        W70466  35.952  20.768  11.985
 2126W        W70467  13.749   6.745   1.787
 2127W        W70468  31.461   3.784  11.486
 2128W        W70469  32.569  40.850   4.260
 2129W        W70470  12.131  25.659  10.941
 2130W        W70471  28.073  30.633   3.285
 2131W        W70472  25.029  20.629   0.403
 2132W        W70473  24.695  25.213  10.974
 2133W        W70474  41.027  21.251   4.765
 2134W        W70475  33.914  23.491  12.511
 2135W        W70476  20.655   4.433  11.529
 2136W        W70477  14.273  14.246   2.820
 2137W        W70478  38.916  13.286   1.861
 2138W        W70479   5.415  35.407  14.967
 2139W        W70480  17.588  18.083  12.037
 2140W        W70481  14.691  15.161  10.560
 2141W        W70482   6.407  20.188  14.324
 2142W        W70483   8.357  15.705  12.998
 2143W        W70484   9.197  37.050   1.867
 2144W        W70485   6.281  24.671   2.806
 2145W        W70486  18.728  10.716  14.471
 2146W        W70487  25.680  24.516   2.199
 2147W        W70488  27.535   5.911  12.543
 2148W        W70489  13.190  22.101  13.523
 2149W        W70490  31.940  44.428   0.958
 2150W        W70491  44.801  12.710   0.315
 2151W        W70492  36.927  33.996  10.981
 2152W        W70493   9.359  23.550  10.540
 2153W        W70494  28.638  15.767   2.418
 2154W        W70495   2.247  18.567   3.851
 2155W        W70496  32.132   1.262  13.047
 2156W        W70497  30.575  27.569   4.620
 2157W        W70498   5.751  36.435   3.258
 2158W        W70499   7.704   2.350  13.512
 2159W        W70500   3.779  11.627  10.485
 2160W        W70501  11.249  20.040   3.205
 2161W        W70502  38.865   1.433  13.350
 2162W        W70503  36.479   3.295  10.614
 2163W        W70504  26.639  23.724   2.740
 2164W        W70505  43.411   5.855  11.464
 2165W        W70506   4.738  30.554  10.136
 2166W        W70507  38.471   8.310   4.734
 2167W        W70508   0.904  19.587   2.243
 2168W        W70509  11.771  16.075  10.528
 2169W        W70510  41.347  16.314   0.888
 2170W        W70511   8.297  38.401   3.867
 2171W        W70512  25.967  27.126  14.866
 2172W        W70513   8.693  14.661  14.447
 2173W        W70514  41.867  33.049   1.252
 2174W        W70515   5.399  19.744  12.464
 2175W        W70516  36.583   5.791  11.999
 2176W        W70517  37.493   6.757  10.467
 2177W        W70518  22.236  17.167  11.406
 2178W        W70519   5.326   7.727   3.295
 2179W        W70520  33.438  26.459  12.005
 2180W        W70521  12.345  27.659  12.466
 2181W        W70522   2.322  21.718  12.392
 2182W        W70523  22.193  22.199  14.770
 2183W        W70524  25.055  31.104  11.871
 2184W        W70525   2.347  39.423   4.818
 2185W        W70526  28.930  14.145   0.412
 2186W        W70527  43.860   5.399  13.794
 2187W        W70528  36.045  42.968  14.417
 2188W        W70529  21.245  35.410   3.168
 2189W        W70530  17.290  12.208  12.430
 2190W        W70531   8.230   7.902  12.377
 2191W        W70532  27.047   7.411   4.188
 2192W        W70533  13.688  32.505   4.702
 2193W        W70534  30.030  29.666   1.441
 2194W        W70535  16.142  40.358  13.883
 2195W        W70536  14.655  38.051   1.306
 2196W        W70537   8.394  38.066  10.414
 2197W        W70538   3.833  33.498   3.704
 2198W        W70539  15.311  13.291   4.219
 2199W        W70540  35.041  29.063  12.903
 2200W        W70541  41.000  10.723   4.639
 2201W        W70542  43.815  37.454  14.765
 2202W        W70543  21.228  21.639  14.384
 2203W        W70544  35.891  29.513   2.868
 2204W        W70545  39.831  10.800   1.253
 2205W        W70546  17.792  30.429   1.405
 2206W        W70547  36.443  12.731   5.186
 2207W        W70548  30.015   8.740  13.470
 2208W        W70549  32.405  29.663   1.340
 2209W        W70550  33.441   4.705  14.019
 2210W        W70551  31.425  14.791  14.307
 2211W        W70552   6.775  10.220  12.051
 2212W        W70553   4.344  27.966   3.831
 2213W        W70554  13.124  32.458   1.387
 2214W        W70555  31.973  10.297  12.949
 2215W        W70556  10.299  14.717   0.431
 2216W        W70557  36.090   1.237   0.268
 2217W        W70558  18.742  11.663   4.772
 2218W        W70559  25.664   3.362   9.925
 2219W        W70560  15.165   6.383  11.535
 2220W        W70561   1.334   2.403   1.918
 2221W        W70562  23.197  28.184  11.096
 2222W        W70563  13.118  26.508   0.782
 2223W        W70564  22.508  18.290  13.882
 2224W        W70565   9.276  30.529  13.342
 2225W        W70566   0.353  16.685  10.902
 2226W        W70567  28.536  10.204  10.546
 2227W        W70568  37.347  25.086   4.826
 2228W        W70569  39.036  39.820  13.457
 2229W        W70570   7.175  43.819  11.979
 2230W        W70571  29.159  27.164  14.930
 2231W        W70572  31.427  18.649   0.411
 2232W        W70573  38.466  43.321  11.033
 2233W        W70574  20.735  34.563  12.841
 2234W        W70575  41.896   0.865  14.998
 2235W        W70576  35.501  38.048  14.387
 2236W        W70577  39.924  27.498  11.474
 2237W        W70578  20.526   5.810  14.983
 2238W        W70579  10.721   9.871  14.944
 2239W        W70580  29.030   6.244  10.553
 2240W        W70581  10.869   4.873  11.058
 2241W        W70582   4.426   5.715  14.376
 2242W        W70583   1.970  42.334  13.470
 2243W        W70584   2.761  41.879   1.865
 2244W        W70585  19.610  20.157  10.598
 2245W        W70586  31.054  40.452  13.308
 2246W        W70587  43.421  37.835  13.321
 2247W        W70588  43.362  24.702  12.399
 2248W        W70589  44.380   0.815  11.105
 2249W        W70590   5.286  22.183   0.918
 2250W        W70591   5.255  20.541   2.884
 2251W        W70592   5.370   7.337  12.875
 2252W        W70593   1.862   4.847  12.030
 2253W        W70594  21.751  16.121   3.181
 2254W        W70595   4.719  36.375  14.510
 2255W        W70596  17.631  43.796  11.084
 2256W        W70597  25.990  11.348  11.944
 2257W        W70598  29.553   3.832   2.226
 2258W        W70599   0.803  35.087   1.256
 2259W        W70600  10.801   0.873  13.965
 2260W        W70601   0.846  20.665   4.345
 2261W        W70602  34.974  39.483   1.899
 2262W        W70603  13.180  13.772  11.932
 2263W        W70604   9.743  12.845   5.278
 2264W        W70605  39.865  15.791   3.270
 2265W        W70606  36.878   0.920  10.404
 2266W        W70607  18.769  32.422  10.020
 2267W        W70608  15.708  27.503  12.952
 2268W        W70609  38.977  36.572  10.943
 2269W        W70610  24.042   3.422  12.398
 2270W        W70611  29.583   7.177   4.234
 2271W        W70612  12.318  17.307   4.323
 2272W        W70613  33.495   2.819  11.458
 2273W        W70614  10.694  29.001   2.829
 2274W        W70615  20.760  40.495   3.654
 2275W        W70616  30.610  24.582   1.296
 2276W        W70617  27.077  13.228  13.828
 2277W        W70618  25.210  26.017  13.033
 2278W        W70619  15.708  33.056  13.914
 2279W        W70620  30.565  33.035   3.224
 2280W        W70621  17.709   6.397   1.920
 2281W        W70622  30.421  19.629  11.609
 2282W        W70623   8.770  16.156  12.910
 2283W        W70624   4.800   7.371   2.681
 2284W        W70625  33.556  13.149   0.387
 2285W        W70626  23.638  10.239  14.939
 2286W        W70627   9.868  23.046   1.374
 2287W        W70628   0.934  16.652  10.096
 2288W        W70629  25.609  38.409   0.472
 2289W        W70630   3.898  25.199   3.696
 2290W        W70631  30.560  10.211  10.546
 2291W        W70632  29.496   3.880   1.281
 2292W        W70633  22.102  41.819   2.695
 2293W        W70634  16.307  42.805  10.476
 2294W        W70635  11.150  13.165  11.903
 2295W        W70636  20.067   5.410   0.388
 2296W        W70637   8.679  15.601   3.371
 2297W        W70638   0.338  40.903  13.356
 2298W        W70639  36.915   9.266   2.807
 2299W        W70640  44.501  33.118   3.152
 2300W        W70641  37.423  36.550  12.572
 2301W        W70642  32.564   0.782  10.989
 2302W        W70643  34.918  44.339   2.255
 2303W        W70644  23.053  34.461   0.382
 2304W        W70645  22.142  44.762  13.961
 2305W        W70646  44.339  39.925  12.856
 2306W        W70647  14.170   0.475   0.833
 2307W        W70648  43.471  10.827  13.880
 2308W        W70649  38.389  27.554  13.441
 2309W        W70650  12.296  41.912   1.419
 2310W        W70651  18.060  17.271   4.711
 2311W        W70652  39.530  10.307   1.882
 2312W        W70653  29.965  43.361   4.825
 2313W        W70654  44.007  26.532   4.813
 2314W        W70655  39.497  44.409  14.506
 2315W        W70656  17.697  39.411   3.176
 2316W        W70657  43.000  31.049   5.299
 2317W        W70658  25.971  35.929  13.423
 2318W        W70659  24.025  35.576  13.852
 2319W        W70660  27.989  42.945   0.426
 2320W        W70661  25.615   2.280   2.708
 2321W        W70662  24.709  11.677   4.306
 2322W        W70663  22.570  21.583  14.892
 2323W        W70664  26.152  35.479   2.849
 2324W        W70665   6.256  11.741  13.455
 2325W        W70666  30.466  24.051   1.836
 2326W        W70667  32.425  12.687  14.984
 2327W        W70668  36.546   5.797  11.422
 2328W        W70669  25.055  35.923  11.961
 2329W        W70670  29.169  21.118   0.922
 2330W        W70671   4.364   3.925  14.959
 2331W        W70672  41.389   0.336   4.159
 2332W        W70673  18.563   0.278   4.152
 2333W        W70674  10.185  19.080  12.083
 2334W        W70675  22.078  29.486   4.616
 2335W        W70676  34.535   9.206  14.999
 2336W        W70677  35.986  36.410  10.544
 2337W        W70678  30.515  23.094  10.912
 2338W        W70679  25.528  30.556   4.131
 2339W        W70680  18.228  26.082  11.379
 2340W        W70681  16.087  25.154  13.342
 2341W        W70682  39.490   6.740   3.347
 2342W        W70683  17.597  30.151  12.041
 2343W        W70684  10.149  23.148   0.292
 2344W        W70685  35.960  13.295   3.182
 2345W        W70686  31.987   8.855  12.514
 2346W        W70687  23.609  27.057   1.258
 2347W        W70688  21.237  10.640  13.353
 2348W        W70689  22.227  18.281  11.591
 2349W        W70690  11.261   1.819   2.284
 2350W        W70691  41.447  44.423  13.336
 2351W        W70692   1.886  30.451   4.131
 2352W        W70693  12.775  19.198   3.367
 2353W        W70694  20.705  14.595   0.349
 2354W        W70695   6.827   1.885   4.688
 2355W        W70696  18.212  26.524  10.490
 2356W        W70697  26.465  37.014  11.467
 2357W        W70698  39.910   4.416   3.367
 2358W        W70699  34.888   6.331  14.393
 2359W        W70700   8.764  10.876  12.905
 2360W        W70701  37.073  11.195  10.919
 2361W        W70702  37.026   1.793  13.029
 2362W        W70703   5.365  31.047   0.875
 2363W        W70704   3.932  31.424  13.537
 2364W        W70705   6.793  27.483  11.065
 2365W        W70706  32.541  12.294   1.791
 2366W        W70707  36.964  34.002  14.425
 2367W        W70708   7.322  36.014  14.912
 2368W        W70709  12.321  32.141  14.438
 2369W        W70710  23.133  16.720  14.332
 2370W        W70711  13.695  34.385   0.754
 2371W        W70712   2.289   9.385   2.212
 2372W        W70713   1.956  30.089   4.301
 2373W        W70714  35.485  44.280   0.743
 2374W        W70715  29.045  30.417   1.403
 2375W        W70716   6.739  10.864  14.936
 2376W        W70717  33.470  25.654  13.058
 2377W        W70718  16.708  10.867   0.261
 2378W        W70719  18.162  15.254   3.809
 2379W        W70720  17.756  25.572  10.409
 2380W        W70721   7.207  41.415   0.281
 2381W        W70722  24.671  16.074  10.914
 2382W        W70723  42.837  29.433   1.715
 2383W        W70724  23.489  44.416   3.358
 2384W        W70725  28.011   1.357   4.655
 2385W        W70726   0.871  20.614   9.990
 2386W        W70727  11.250   9.379   4.662
 2387W        W70728   1.255  30.943  11.371
 2388W        W70729  43.409  19.075   4.659
 2389W        W70730  13.750  18.552   3.198
 2390W        W70731  34.551  42.401  13.378
 2391W        W70732   0.813  15.203   2.190
 2392W        W70733   9.818  36.512   2.743
 2393W        W70734   8.217  33.097   1.284
 2394W        W70735   5.374  41.482   0.309
 2395W        W70736   0.871   0.802  11.906
 2396W        W70737   6.188  29.103   1.319
 2397W        W70738  32.045   7.205   3.346
 2398W        W70739  38.472  24.616   0.886
 2399W        W70740  15.625  10.819   1.257
 2400W        W70741  18.053  30.458   0.947
 2401W        W70742   0.459  30.932   3.194
 2402W        W70743  40.427  32.902  13.343
 2403W        W70744  27.007   4.244   4.172
 2404W        W70745  22.504  13.177   2.735
 2405W        W70746  20.090   8.311  10.478
 2406W        W70747   1.899  22.520   0.950
 2407W        W70748  16.083  29.936   3.828
 2408W        W70749  21.649  18.294   4.332
 2409W        W70750  28.618   7.236  10.476
 2410W        W70751  18.232  15.658  13.035
 2411W        W70752  37.389   3.836  13.808
 2412W        W70753   6.847  44.495  12.549
 2413W        W70754  34.522  23.539   2.666
 2414W        W70755   2.297  18.246   0.270
 2415W        W70756  37.517  25.655  11.567
 2416W        W70757  26.204  10.701  10.611
 2417W        W70758  27.147  35.877  14.465
 2418W        W70759  39.905  16.808  11.500
 2419W        W70760  32.958  27.524   1.720
 2420W        W70761   1.456   7.345   2.216
 2421W        W70762   2.318   0.327  12.930
 2422W        W70763   1.893   4.216  12.840
 2423W        W70764   8.714  36.510  12.877
 2424W        W70765   5.714  38.990  14.304
 2425W        W70766  41.507  36.947   4.222
 2426W        W70767  22.610  26.603  13.893
 2427W        W70768  43.782  28.996  13.829
 2428W        W70769  11.340  41.306   3.336
 2429W        W70770  26.035  19.259   0.877
 2430W        W70771  28.000  10.259  10.414
 2431W        W70772  28.096  41.896   4.680
 2432W        W70773  31.028  36.359   4.136
 2433W        W70774  16.160  13.637  14.868
 2434W        W70775  18.198  27.018   0.787
 2435W        W70776   5.932  38.383   0.734
 2436W        W70777  28.439  15.257   1.283
 2437W        W70778   4.338  18.572   2.812
 2438W        W70779  18.233  15.245   0.436
 2439W        W70780  17.594  15.770  11.508
 2440W        W70781  38.927  31.122   4.815
 2441W        W70782  30.081   0.755  13.829
 2442W        W70783   3.725  44.754  11.379
 2443W        W70784  10.350   5.835  14.413
 2444W        W70785  15.622  42.468   3.787
 2445W        W70786  22.647  17.633  12.059
 2446W        W70787   9.340  12.349   2.183
 2447W        W70788  17.669  33.033   9.990
 2448W        W70789  35.960  41.812  12.483
 2449W        W70790  33.083  26.092   1.816
 2450W        W70791  19.679  21.025  12.525
 2451W        W70792  38.844  39.912   4.732
 2452W        W70793  20.095   1.291  12.869
 2453W        W70794  34.609   5.333   2.817
 2454W        W70795   7.774  15.655   0.939
 2455W        W70796  40.025   7.284  11.590
 2456W        W70797  28.097  21.119  10.092
 2457W        W70798   5.716   6.199   0.382
 2458W        W70799   2.357  24.480   4.257
 2459W        W70800   9.730  35.567   1.790
 2460W        W70801  36.885   1.420   2.792
 2461W        W70802   7.862  18.150  13.809
 2462W        W70803  38.928  23.699   1.216
 2463W        W70804  31.119  15.111   3.238
 2464W        W70805  30.547  18.705   5.093
 2465W        W70806  28.565  24.695  14.794
 2466W        W70807  22.226  29.511   2.677
 2467W        W70808  16.798  14.233  11.498
 2468W        W70809  18.281  33.103   4.638
 2469W        W70810  17.064  16.771   1.705
 2470W        W70811   6.378   1.342  11.455
 2471W        W70812  18.751  16.773  10.972
 2472W        W70813  42.806  27.484  14.328
 2473W        W70814   4.402  17.145   4.209
 2474W        W70815   0.756   3.347  11.421
 2475W        W70816  36.926   7.901   2.327
 2476W        W70817  32.051  42.376   1.878
 2477W        W70818   2.898  26.172  14.898
 2478W        W70819  10.217  19.697   4.328
 2479W        W70820   6.821   4.253  11.063
 2480W        W70821   8.356  41.841  11.905
 2481W        W70822  11.191   2.305  12.499
 2482W        W70823   3.370  22.541   1.833
 2483W        W70824  40.428  24.483  11.902
 2484W        W70825  42.872  22.581   0.331
 2485W        W70826  23.704  19.177  11.542
 2486W        W70827   7.897  43.932   2.797
 2487W        W70828  20.593  41.026  13.340
 2488W        W70829  31.907  35.956   1.327
 2489W        W70830  38.831  11.636   3.808
 2490W        W70831  29.083  34.911  12.552
 2491W        W70832   9.817  32.005   1.789
 2492W        W70833  31.553  25.621   4.310
 2493W        W70834  13.670  16.576   4.733
 2494W        W70835  37.396   5.431   1.779
 2495W        W70836   9.194  40.036   3.336
 2496W        W70837  38.819  14.653  14.387
 2497W        W70838  16.247  16.114   0.330
 2498W        W70839  17.590  37.086   3.692
 2499W        W70840  22.537  35.072   0.322
 2500W        W70841  10.787  43.438  13.813
 2501W        W70842  22.551  26.096   1.832
 2502W        W70843  16.256  23.216  14.347
 2503W        W70844  17.698   9.796   4.802
 2504W        W70845  33.053  41.042  12.517
 2505W        W70846  15.191  43.450   1.791
 2506W        W70847   8.289  12.279  11.467
 2507W        W70848  43.844  18.285   1.768
 2508W        W70849  38.003  30.931  13.825
 2509W        W70850  26.570   6.853   2.893
 2510W        W70851  16.734  19.768   3.294
 2511W        W70852  30.476  38.525   3.272
 2512W        W70853  25.481  40.852  10.966
 2513W        W70854  43.493  33.927   4.318
 2514W        W70855  16.076  13.756  12.484
 2515W        W70856   7.207  13.662   0.427
 2516W        W70857  11.762  16.150   2.182
 2517W        W70858  11.832   7.403  10.991
 2518W        W70859  34.421   8.680   0.789
 2519W        W70860  16.225  42.026   2.372
 2520W        W70861  12.258  12.757   0.394
 2521W        W70862   5.819  37.991   2.375
 2522W        W70863  15.770  10.724  11.955
 2523W        W70864  10.757  40.479  13.369
 2524W        W70865  14.656  22.044  12.834
 2525W        W70866  19.622  18.144   1.419
 2526W        W70867  30.558  17.229   4.249
 2527W        W70868   1.903  20.524  11.425
 2528W        W70869  15.650  10.780  12.353
 2529W        W70870   2.386  31.589   3.859
 2530W        W70871  24.631  29.063  12.041
 2531W        W70872   5.800  31.612  11.014
 2532W        W70873  27.121  25.115   3.820
 2533W        W70874   3.750   8.786  14.421
 2534W        W70875  21.545  41.932   3.863
 2535W        W70876  44.399  24.089   4.148
 2536W        W70877  25.659  10.183  12.089
 2537W        W70878   5.807  23.623  13.327
 2538W        W70879  25.672  20.561   3.780
 2539W        W70880  17.157  33.993  11.010
 2540W        W70881   8.328  15.265  12.006
 2541W        W70882   5.700   9.183  11.961
 2542W        W70883  27.959  43.843  11.394
 2543W        W70884  31.520  11.191  14.355
 2544W        W70885   0.944  15.762   5.216
 2545W        W70886  21.084  13.162  14.799
 2546W        W70887  41.975  39.063   2.198
 2547W        W70888  17.646  11.201   4.167
 2548W        W70889  24.043  17.677  13.045
 2549W        W70890  23.655  39.830   0.378
 2550W        W70891  41.361  26.053  10.602
 2551W        W70892  15.690   7.184  10.013
 2552W        W70893   7.328  44.453   2.878
 2553W        W70894  17.572  40.874  13.830
 2554W        W70895  34.067  23.154  11.006
 2555W        W70896   4.908  32.568  12.452
 2556W        W70897  17.155   5.281  14.467
 2557W        W70898  14.157  31.123  11.602
 2558W        W70899  44.869  16.268  10.965
 2559W        W70900  40.315   4.231   3.308
 2560W        W70901  24.130  24.120   4.124
 2561W        W70902   2.824  14.174  14.847
 2562W        W70903  15.208  10.778   1.396
 2563W        W70904   9.775  22.592   4.215
 2564W        W70905  26.094  40.819   3.804
 2565W        W70906  22.027  10.832  12.363
 2566W        W70907  42.525  16.249   2.892
 2567W        W70908  29.145   9.371   1.323
 2568W        W70909  18.122  24.626  14.496
 2569W        W70910   7.228  20.196   0.339
 2570W        W70911  13.188  16.240   1.858
 2571W        W70912   2.901  14.200   2.772
 2572W        W70913  25.714  33.918  12.881
 2573W        W70914  35.978  36.925  11.859
 2574W        W70915  20.068  23.724  14.449
 2575W        W70916  27.987  15.609  10.530
 2576W        W70917  30.440  29.011   2.410
 2577W        W70918  26.195  14.197   0.272
 2578W        W70919   1.425  41.517  14.515
 2579W        W70920  19.052  41.491  10.895
 2580W        W70921  26.592  11.793  10.604
 2581W        W70922  44.290  21.069   9.946
 2582W        W70923  20.140   6.196  12.019
 2583W        W70924  20.206   0.968  11.886
 2584W        W70925  20.736  28.095  14.801
 2585W        W70926  43.895  33.998   2.834
 2586W        W70927  43.440  17.096  12.975
 2587W        W70928  35.077   4.252  11.864
 2588W        W70929  32.496  20.578   1.229
 2589W        W70930   0.425  44.859   4.199
 2590W        W70931  35.513  41.430   1.892
 2591W        W70932   9.313   1.920  13.331
 2592W        W70933  15.775  18.286   4.182
 2593W        W70934  33.582   6.865  12.081
 2594W        W70935  42.905  31.928  10.031
 2595W        W70936  42.022  24.072  14.779
 2596W        W70937   1.371  34.471   1.796
 2597W        W70938  27.491  18.054  13.980
 2598W        W70939   7.337  21.184  12.399
 2599W        W70940  26.169   8.807   2.352
 2600W        W70941  30.627  43.947  12.977
 2601W        W70942  18.746   5.336   3.182
 2602W        W70943  17.199  12.724  13.988
 2603W        W70944  30.503  30.944  13.838
 2604W        W70945  39.461  24.228   1.380
 2605W        W70946   7.184   8.755  11.923
 2606W        W70947   1.767  18.746  11.547
 2607W        W70948  43.977  39.386  13.445
 2608W        W70949  36.402  27.952  14.337
 2609W        W70950  13.743  19.135   0.813
 2610W        W70951  28.472  21.667   3.217
 2611W        W70952   4.370  14.622   1.311
 2612W        W70953  32.534  38.821  13.467
 2613W        W70954  24.154  43.498   1.891
 2614W        W70955  33.433  40.041   1.281
 2615W        W70956  26.199  35.405  14.307
 2616W        W70957  27.488  38.015  13.852
 2617W        W70958  37.459   2.872  10.540
 2618W        W70959   7.284  29.007  11.059
 2619W        W70960  16.740  44.925  14.760
 2620W        W70961  39.394  43.429  12.549
 2621W        W70962  30.069   0.412   3.671
 2622W        W70963  22.214  23.514   2.715
 2623W        W70964  12.770  33.935   1.406
 2624W        W70965  16.598  26.958   0.955
 2625W        W70966  36.858  36.581   3.723
 2626W        W70967  43.830  17.293  13.012
 2627W        W70968  30.439  10.298   3.310
 2628W        W70969  27.446  36.461   0.782
 2629W        W70970   2.239  15.150  14.813
 2630W        W70971  33.439  15.738  11.548
 2631W        W70972  11.838  12.809  10.558
 2632W        W70973  38.890  25.534   2.264
 2633W        W70974  31.956   8.227  13.834
 2634W        W70975   5.426  37.978  12.366
 2635W        W70976  29.155  35.951  10.924
 2636W        W70977  15.715  29.169  14.446
 2637W        W70978   1.896   6.201   2.206
 2638W        W70979  20.664  41.351   1.230
 2639W        W70980  41.534   8.336  10.600
 2640W        W70981   6.296  35.357  14.392
 2641W        W70982  21.727   6.214  10.493
 2642W        W70983  10.240  19.107   1.730
 2643W        W70984  44.413   6.698   1.323
 2644W        W70985  27.529  30.094  12.342
 2645W        W70986  39.911   2.833  13.003
 2646W        W70987  10.341  12.270  13.986
 2647W        W70988   0.325  30.105   1.889
 2648W        W70989  41.374  17.570   3.304
 2649W        W70990  33.035  10.172  13.014
 2650W        W70991  18.724  22.524   2.268
 2651W        W70992   9.670  34.972  11.864
 2652W        W70993   3.451  31.550  11.524
 2653W        W70994  39.531  25.629  14.352
 2654W        W70995  28.626   3.234   4.200
 2655W        W70996  33.932  16.164  12.859
 2656W        W70997  20.572  10.371  14.516
 2657W        W70998  31.047  12.315  13.363
 2658W        W70999  39.477  35.572   4.301
 2659W        W71000  16.244  18.705   4.621
 2660W        W71001  41.825   2.769   1.237
 2661W        W71002  21.617  14.641  14.403
 2662W        W71003   4.713  30.077   4.316
 2663W        W71004  27.076  36.534   4.239
 2664W        W71005  35.004  28.658  10.927
 2665W        W71006  21.733  28.022  14.992
 2666W        W71007   7.807  31.576   2.395
 2667W        W71008   5.709   6.920  11.875
 2668W        W71009  14.758  41.439  13.973
 2669W        W71010  25.964  26.457  14.981
 2670W        W71011   3.874  28.988  14.000
 2671W        W71012  27.690  13.793  10.980
 2672W        W71013  24.000   2.258  12.416
 2673W        W71014  26.528   1.836   1.917
 2674W        W71015   3.726  19.239   1.397
 2675W        W71016  40.030   6.689   2.758
 2676W        W71017  34.920  34.598  12.951
 2677W        W71018  40.890  43.502  11.934
 2678W        W71019  29.606   4.816  13.803
 2679W        W71020  16.603  38.042  13.823
 2680W        W71021  34.000  22.025   1.783
 2681W        W71022  18.579  12.618   1.899
 2682W        W71023  26.511  10.326   1.211
 2683W        W71024  17.255  22.226   9.993
 2684W        W71025  27.128  15.642   1.319
 2685W        W71026  42.914  35.852  11.887
 2686W        W71027  36.085  33.465  12.083
 2687W        W71028  37.081  23.623  13.881
 2688W        W71029  21.682   1.306  13.810
 2689W        W71030  24.214  21.094   1.379
 2690W        W71031  10.763  14.829   2.670
 2691W        W71032   9.297   3.852   3.189
 2692W        W71033  12.840  36.377  12.570
 2693W        W71034   7.288  26.677  11.413
 2694W        W71035  44.773   4.747  13.993
 2695W        W71036   7.757  28.053   4.681
 2696W        W71037  16.100   4.926  12.473
 2697W        W71038   7.896   7.852   5.088
 2698W        W71039  18.220  21.215  14.296
 2699W        W71040   5.223  42.519   2.278
 2700W        W71041  14.747   7.177   0.812
 2701W        W71042  23.571  32.593   4.724
 2702W        W71043  17.096   8.661   4.766
 2703W        W71044   0.339  39.324   1.893
 2704W        W71045  18.068  16.685   3.637
 2705W        W71046  32.442  32.604  10.434
 2706W        W71047  37.435  39.499  11.573
 2707W        W71048  11.838  34.009   0.433
 2708W        W71049  37.430  32.057  10.069
 2709W        W71050  27.073  29.467   5.153
 2710W        W71051   1.762  38.052  12.575
 2711W        W71052  37.561  44.478  10.540
 2712W        W71053  37.370  21.601   3.837
 2713W        W71054  37.446   1.459   4.597
 2714W        W71055   5.825  31.447   1.798
 2715W        W71056  10.266  37.883   4.296
 2716W        W71057  22.095  26.681  10.623
 2717W        W71058  10.252   1.273  11.078
 2718W        W71059   1.450  29.014   2.673
 2719W        W71060  44.935  20.739  11.452
 2720W        W71061   9.228  38.042  14.963
 2721W        W71062  15.720   3.763  13.315
 2722W        W71063  23.603  35.373  12.865
 2723W        W71064  43.347   3.322  11.922
 2724W        W71065  21.183  22.045  10.111
 2725W        W71066   5.764  30.641   5.300
 2726W        W71067  42.489  25.061   0.266
 2727W        W71068  18.554  43.861   0.728
 2728W        W71069  20.743  39.554   2.713
 2729W        W71070  13.106  44.354   5.301
 2730W        W71071  34.461   2.756   2.416
 2731W        W71072  24.230  31.596   0.963
 2732W        W71073  30.084  40.042  11.534
 2733W        W71074   8.285   0.844   1.860
 2734W        W71075  15.225  36.559  14.440
 2735W        W71076  18.570  36.929  14.924
 2736W        W71077  10.271   0.946   0.475
 2737W        W71078  39.940   7.792  14.424
 2738W        W71079   9.211  11.791   0.799
 2739W        W71080  14.653  31.582  13.029
 2740W        W71081  19.693  44.385   2.411
 2741W        W71082   7.373  40.971  11.423
 2742W        W71083  15.313   9.154   1.831
 2743W        W71084  28.113  20.638   0.395
 2744W        W71085  16.235   8.295   2.299
 2745W        W71086  25.588   3.334   2.676
 2746W        W71087   3.391  27.615  13.973
 2747W        W71088   2.871  20.541   2.386
 2748W        W71089   5.342  13.631   3.638
 2749W        W71090  19.241  37.349   5.115
 2750W        W71091   5.763  36.008   4.340
 2751W        W71092  37.889  26.164  10.575
 2752W        W71093  40.868  40.397  13.844
 2753W        W71094  18.704  21.179  12.912
 2754W        W71095  29.632  39.344  14.425
 2755W        W71096  20.175  36.996  11.560
 2756W        W71097  29.066  42.031  14.492
 2757W        W71098  16.758   0.874  12.917
 2758W        W71099  42.963  20.117  12.003
 2759W        W71100  21.656  42.309  13.520
 2760W        W71101   0.397  40.308  12.925
 2761W        W71102  25.617  32.028  13.999
 2762W        W71103  15.121   4.753  13.531
 2763W        W71104  12.718  38.450  10.473
 2764W        W71105  24.512  42.287  14.429
 2765W        W71106   6.872  39.425  10.969
 2766W        W71107  29.521   4.343   4.313
 2767W        W71108   1.349  17.205  10.593
 2768W        W71109  21.676  34.595  14.432
 2769W        W71110  21.112  15.274   4.703
 2770W        W71111  41.939   3.374   2.689
 2771W        W71112  25.141  17.188  10.972
 2772W        W71113  24.616  38.057  12.496
 2773W        W71114   8.366  11.630   3.815
 2774W        W71115  28.443   9.199   3.192
 2775W        W71116   0.963  18.257   0.746
 2776W        W71117  38.981  26.976  14.502
 2777W        W71118  14.178  10.657   2.410
 2778W        W71119  31.473   5.227   3.321
 2779W        W71120  36.492  27.576   1.438
 2780W        W71121  26.604  25.216  14.975
 2781W        W71122  41.978  41.519  14.491
 2782W        W71123  26.556  41.910  14.953
 2783W        W71124   9.338   3.269   3.275
 2784W        W71125   7.726  27.603   3.197
 2785W        W71126   9.302  14.103  14.505
 2786W        W71127  24.577   0.868  11.880
 2787W        W71128   9.758  13.807   4.254
 2788W        W71129  12.672  11.753  14.912
 2789W        W71130  17.723   1.359  11.384
 2790W        W71131  25.214  42.334   2.736
 2791W        W71132  27.953  41.460   4.730
 2792W        W71133  13.732   4.913  11.549
 2793W        W71134  18.161  15.230  14.431
 2794W        W71135  30.472  18.172   2.363
 2795W        W71136   1.419  13.741  14.888
 2796W        W71137  33.568  32.565  12.968
 2797W        W71138  33.544   9.289   3.337
 2798W        W71139  18.177  42.865   0.957
 2799W        W71140  29.085  34.965   1.892
 2800W        W71141   8.188  23.108  11.015
 2801W        W71142  28.930  16.701  12.482
 2802W        W71143  43.827  26.984  13.319
 2803W        W71144  23.503  16.175   3.654
 2804W        W71145   0.831   0.860  10.987
 2805W        W71146  37.949  20.169   4.628
 2806W        W71147  19.116  24.148  11.400
 2807W        W71148  25.146  38.353  14.800
 2808W        W71149  39.844   9.312  12.560
 2809W        W71150  19.080  20.266   4.345
 2810W        W71151  18.568   7.405   3.308
 2811W        W71152  44.903  15.658   4.773
 2812W        W71153  40.498  32.402   3.169
 2813W        W71154  41.912  25.184  12.514
 2814W        W71155   5.749  33.472   2.283
 2815W        W71156  29.126  10.302  12.529
 2816W        W71157   5.203  19.235   4.809
 2817W        W71158  13.143  17.138  10.013
 2818W        W71159  30.077  15.256  12.394
 2819W        W71160  14.271  18.255  12.459
 2820W        W71161  39.392  28.662   3.805
 2821W        W71162   0.278  22.736  12.449
 2822W        W71163  18.650  25.039  14.383
 2823W        W71164  14.592  17.598   2.294
 2824W        W71165  24.535  32.045  12.564
 2825W        W71166  37.881  41.435   4.772
 2826W        W71167   6.202  14.293   1.842
 2827W        W71168  10.687   6.298   0.398
 2828W        W71169  22.685  10.364  11.943
 2829W        W71170  16.312  43.765  12.885
 2830W        W71171  36.418  22.064   0.894
 2831W        W71172  21.236  11.263  14.981
 2832W        W71173   9.842  44.862  14.848
 2833W        W71174   2.432   1.364   1.259
 2834W        W71175   3.282  20.205   0.321
 2835W        W71176   4.701   4.798  12.060
 2836W        W71177  14.281  23.167  14.887
 2837W        W71178  31.465   7.222   1.754
 2838W        W71179  44.832   5.304   3.377
 2839W        W71180   9.860   6.723   0.935
 2840W        W71181  14.680  19.620  10.497
 2841W        W71182  40.431  20.588  13.986
 2842W        W71183  12.785  14.223   0.259
 2843W        W71184  30.560  10.664  13.435
 2844W        W71185  26.961  13.226  12.853
 2845W        W71186  11.265  18.554  14.901
 2846W        W71187  35.010  44.009   3.327
 2847W        W71188  44.382   4.803   4.642
 2848W        W71189   9.160  36.845  10.925
 2849W        W71190   0.436  38.565  12.986
 2850W        W71191  28.491  18.769  11.066
 2851W        W71192  33.998  27.662  10.552
 2852W        W71193   9.317   9.728   4.177
 2853W        W71194  44.503  25.534   2.410
 2854W        W71195  34.043  13.608   1.837
 2855W        W71196  28.043  16.189   1.382
 2856W        W71197  44.881  24.033  11.976
 2857W        W71198  27.473  42.822   3.235
 2858W        W71199  38.881  20.065  14.386
 2859W        W71200  14.273  24.978   0.373
 2860W        W71201  26.997  10.638   2.757
 2861W        W71202  20.582  18.559  11.111
 2862W        W71203  34.537  12.256   2.355
 2863W        W71204  34.571  16.677  11.048
 2864W        W71205  10.343   9.342   4.839
 2865W        W71206   3.257  33.902   2.786
 2866W        W71207  14.329   5.694  13.811
 2867W        W71208  16.298  20.260   4.247
 2868W        W71209  40.044  25.606   3.630
 2869W        W71210   3.380  38.965   2.894
 2870W        W71211  19.264   9.307  10.435
 2871W        W71212  41.488  37.545   0.903
 2872W        W71213   1.898  38.076  14.836
 2873W        W71214   4.919  37.971   0.324
 2874W        W71215   7.696  31.142   0.462
 2875W        W71216  13.326  44.490   1.794
 2876W        W71217   3.823  32.049   3.866
 2877W        W71218  20.254  28.015  11.537
 2878W        W71219  34.105  40.865  12.058
 2879W        W71220  24.145  15.225  13.819
 2880W        W71221  36.059   2.338  12.561
 2881W        W71222  32.112  16.073   4.794
 2882W        W71223  38.883  13.278   0.950
 2883W        W71224  39.931  14.170  14.310
 2884W        W71225  13.678  43.363  12.529
 2885W        W71226   0.402   8.247   2.668
 2886W        W71227  15.627  34.983  13.828
 2887W        W71228  38.039  31.025   2.212
 2888W        W71229  12.681  37.855   1.275
 2889W        W71230  28.603  14.118  14.888
 2890W        W71231  42.879  16.807  11.560
 2891W        W71232  16.278  38.047  12.547
 2892W        W71233  34.866   7.825  11.441
 2893W        W71234   6.238  25.633  11.449
 2894W        W71235  14.238   6.908   3.673
 2895W        W71236  25.123  32.594  10.449
 2896W        W71237  10.359  40.852   0.427
 2897W        W71238  41.526   1.253  13.005
 2898W        W71239  14.814  20.057   2.216
 2899W        W71240  12.750   1.830   2.790
 2900W        W71241  29.032  25.199   0.915
 2901W        W71242  36.084  26.610  14.307
 2902W        W71243  38.889  23.502   4.266
 2903W        W71244  25.110  18.577  11.439
 2904W        W71245  17.737   7.317   0.439
 2905W        W71246   4.310  11.630   1.773
 2906W        W71247  38.480  42.288   0.794
 2907W        W71248  33.403  27.455   4.212
 2908W        W71249  26.974  26.132  14.897
 2909W        W71250  12.825   7.189  11.442
 2910W        W71251  39.373  10.650  11.082
 2911W        W71252  42.397   3.283   0.260
 2912W        W71253   6.244  15.652   0.909
 2913W        W71254  15.110   1.863   4.232
 2914W        W71255  41.448   5.706  14.319
 2915W        W71256  11.343  32.132   1.266
 2916W        W71257   3.231  41.909  11.448
 2917W        W71258  18.553  43.852  13.489
 2918W        W71259  33.065  41.938   9.670
 2919W        W71260  17.152  24.984   3.355
 2920W        W71261   3.238  35.938  11.938
 2921W        W71262  27.128  14.241   4.793
 2922W        W71263  11.734  20.600   2.770
 2923W        W71264   0.290  38.385   4.779
 2924W        W71265  16.761  22.230   2.369
 2925W        W71266  44.489  17.280   0.765
 2926W        W71267  23.222  35.363   3.335
 2927W        W71268  38.421  42.010   5.619
 2928W        W71269  13.207  26.997  12.883
 2929W        W71270   5.382  34.404   1.874
 2930W        W71271  36.043  11.849  13.834
 2931W        W71272  22.138  36.455  11.952
 2932W        W71273  32.890   5.299  10.570
 2933W        W71274  20.142  44.984  10.470
 2934W        W71275  15.222  15.182  13.381
 2935W        W71276   4.746   9.260   1.315
 2936W        W71277   1.247  16.633  14.979
 2937W        W71278   4.781   7.683  14.776
 2938W        W71279  24.633  14.601   0.828
 2939W        W71280  10.293   8.389  13.376
 2940W        W71281  23.668  31.477  13.336
 2941W        W71282  10.330  24.666   2.743
 2942W        W71283   5.735  31.631  10.421
 2943W        W71284  30.650   4.401   3.323
 2944W        W71285  10.213  25.972   3.171
 2945W        W71286  44.428  16.277   4.740
 2946W        W71287  36.948  30.639   2.885
 2947W        W71288  24.998  14.675  13.397
 2948W        W71289  38.910  23.034  11.893
 2949W        W71290  33.058   1.441  12.878
 2950W        W71291   1.429  33.525  11.863
 2951W        W71292  26.125  28.948  10.905
 2952W        W71293  10.316  25.705   1.236
 2953W        W71294  39.028  25.104   3.311
 2954W        W71295  28.104  20.170   3.150
 2955W        W71296   4.733  35.099  14.958
 2956W        W71297  19.124  30.012   3.798
 2957W        W71298   8.244  24.609  14.479
 2958W        W71299  22.570  24.989   0.321
 2959W        W71300  16.164  19.255  14.288
 2960W        W71301  10.638  26.999   4.265
 2961W        W71302   5.282  13.223   0.481
 2962W        W71303  38.509  28.451  12.917
 2963W        W71304   6.724  30.493  14.998
 2964W        W71305  41.979  39.029   0.770
 2965W        W71306  44.969   9.312   4.345
 2966W        W71307  18.121  36.488  11.575
 2967W        W71308  31.983  37.582  11.601
 2968W        W71309  38.389  16.576  10.504
 2969W        W71310  18.768   1.252   2.306
 2970W        W71311  27.666  20.696  13.382
 2971W        W71312   1.843  38.006  10.641
 2972W        W71313  22.055  21.606  11.583
 2973W        W71314  30.645  33.457   3.270
 2974W        W71315   7.317  31.401  14.282
 2975W        W71316   4.849  29.568  14.876
 2976W        W71317  25.712  26.028  12.483
 2977W        W71318  20.041  36.399   0.409
 2978W        W71319   2.815  31.580  11.967
 2979W        W71320  31.023   7.223   3.189
 2980W        W71321  29.015   8.235  14.309
 2981W        W71322  10.374  38.874  12.557
 2982W        W71323  23.544   4.794   2.355
 2983W        W71324  41.466  25.539   1.382
 2984W        W71325   6.213  10.750   4.217
 2985W        W71326   8.885   0.289   2.902
 2986W        W71327  17.068  35.060   4.751
 2987W        W71328   2.920  25.143   1.429
 2988W        W71329  25.676  36.560  14.304
 2989W        W71330  41.907  17.747  13.527
 2990W        W71331   6.228  11.281   3.269
 2991W        W71332  40.487  29.526  12.404
 2992W        W71333   4.775  16.164   2.397
 2993W        W71334   3.914  18.574   2.796
 2994W        W71335   0.982  31.937  12.908
 2995W        W71336   4.433  18.677  11.901
 2996W        W71337  36.459  22.714  11.514
 2997W        W71338  37.556  43.416   3.266
 2998W        W71339  31.645  27.501  10.498
 2999W        W71340   6.910  18.693  10.591
 3000W        W71341   1.412  16.134   2.836
 3001W        W71342  42.945  10.368  14.006
 3002W        W71343  40.002  25.586   4.804
 3003W        W71344  41.503  24.168   3.288
 3004W        W71345  33.935  27.165  13.520
 3005W        W71346  43.336  21.057  12.449
 3006W        W71347  10.789  13.145  11.585
 3007W        W71348   7.814  25.211   2.809
 3008W        W71349  30.994  27.975  10.094
 3009W        W71350  18.278  12.191   0.788
 3010W        W71351  42.461  14.710  12.983
 3011W        W71352  17.664  18.058   0.293
 3012W        W71353  31.039  39.894   3.276
 3013W        W71354  10.316   4.876  14.345
 3014W        W71355  35.894  33.393  13.934
 3015W        W71356  17.773  14.639  11.904
 3016W        W71357   3.269  40.983  12.022
 3017W        W71358  39.468  28.163   3.686
 3018W        W71359  10.692  28.570   4.828
 3019W        W71360   9.681  41.886  13.456
 3020W        W71361  40.369  14.653   2.868
 3021W        W71362   4.743   1.862   2.240
 3022W        W71363   8.375  30.928  13.896
 3023W        W71364  22.740  44.909   1.210
 3024W        W71365  10.808   6.772  12.470
 3025W        W71366  33.899  42.932  12.380
 3026W        W71367  30.517  40.863  10.441
 3027W        W71368  22.143  23.732   1.419
 3028W        W71369   9.299  21.247  14.026
 3029W        W71370  21.676  20.561   3.750
 3030W        W71371  17.610  30.641  10.567
 3031W        W71372  13.695  32.073   3.788
 3032W        W71373  22.236  41.323  12.366
 3033W        W71374  36.569   8.701  14.498
 3034W        W71375  41.017  39.054  11.110
 3035W        W71376  10.252  23.601   2.792
 3036W        W71377  12.343  13.298   2.384
 3037W        W71378  12.199  11.195   0.343
 3038W        W71379  40.031  18.680   0.392
 3039W        W71380   3.752   6.695  14.838
 3040W        W71381  41.536  39.365   4.319
 3041W        W71382  14.213  27.194   4.662
 3042W        W71383  43.933   4.903   0.404
 3043W        W71384  39.345  42.465   4.640
 3044W        W71385  32.579  32.932  10.628
 3045W        W71386  17.595  21.216   5.674
 3046W        W71387  29.975  28.481   4.606
 3047W        W71388  35.010  35.405  14.327
 3048W        W71389   1.830   6.215  14.280
 3049W        W71390  17.294  37.880   1.412
 3050W        W71391  24.003  31.943   0.373
 3051W        W71392  18.562   5.405   1.747
 3052W        W71393  37.927  10.306   0.261
 3053W        W71394  35.359   1.349   0.733
 3054W        W71395  17.791  11.298   2.388
 3055W        W71396   6.725  23.185   2.797
 3056W        W71397  11.681  13.318  14.774
 3057W        W71398  41.840  16.100   2.811
 3058W        W71399   9.272   5.708   2.888
 3059W        W71400  37.499  11.839  12.428
 3060W        W71401  41.482  14.269   4.787
 3061W        W71402   1.750  39.817   2.897
 3062W        W71403  38.522  43.386  10.076
 3063W        W71404  17.116  31.032   0.872
 3064W        W71405  19.568  26.194   3.184
 3065W        W71406  34.437  22.237   2.199
 3066W        W71407  21.625  15.655  13.315
 3067W        W71408  42.902  21.560  14.478
 3068W        W71409  12.788  24.012   3.672
 3069W        W71410   2.448  16.122   5.142
 3070W        W71411  34.490  33.539  10.971
 3071W        W71412  44.437  41.803   0.884
 3072W        W71413  11.314  44.492  13.963
 3073W        W71414  42.347  14.661  12.011
 3074W        W71415  35.453  14.219  10.410
 3075W        W71416  18.640  11.677  11.033
 3076W        W71417  18.645   4.741  10.616
 3077W        W71418  32.992   0.397   1.423
 3078W        W71419   8.713  15.668  14.866
 3079W        W71420  34.965  13.624  12.015
 3080W        W71421  36.065   9.319  11.505
 3081W        W71422  20.143  43.908   0.378
 3082W        W71423   0.768  24.640  11.932
 3083W        W71424  43.345   7.747   2.751
 3084W        W71425  33.497  31.926   0.839
 3085W        W71426  43.360  35.534  12.569
 3086W        W71427  21.758  20.529  13.339
 3087W        W71428  10.808   9.356   9.973
 3088W        W71429   9.794  40.424  11.020
 3089W        W71430  26.488  11.807  12.452
 3090W        W71431  17.252  15.807  11.089
 3091W        W71432   0.436  14.137  12.548
 3092W        W71433  28.581  43.829   4.658
 3093W        W71434  19.773   5.832  12.990
 3094W        W71435  26.684   8.710   2.859
 3095W        W71436   7.809  44.942   4.216
 3096W        W71437   1.313  30.008  11.577
 3097W        W71438  39.360  21.691  14.962
 3098W        W71439   3.305  31.460   3.828
 3099W        W71440  34.433  26.047  14.909
 3100W        W71441   8.351  41.484  12.079
 3101W        W71442  34.399  22.725   4.751
 3102W        W71443   2.413  39.441  11.915
 3103W        W71444   1.357  21.116   0.796
 3104W        W71445   3.769   2.395  11.526
 3105W        W71446   1.271  31.469   3.261
 3106W        W71447  25.536  43.987  11.499
 3107W        W71448  41.377  29.037   2.293
 3108W        W71449  35.897  10.253  11.479
 3109W        W71450  35.597  41.373   2.216
 3110W        W71451   1.897   2.366  14.003
 3111W        W71452  20.080  18.100  13.956
 3112W        W71453   0.935  39.536   4.756
 3113W        W71454  30.505  30.934   3.173
 3114W        W71455  26.459   2.293  11.997
 3115W        W71456  36.425  42.827  13.987
 3116W        W71457  24.656  37.347  10.553
 3117W        W71458   3.916   7.340  13.408
 3118W        W71459  31.131  21.083  12.523
 3119W        W71460   8.368  14.205  12.534
 3120W        W71461  41.502  32.106  13.334
 3121W        W71462  12.667  30.097  12.869
 3122W        W71463  29.538  34.514  14.383
 3123W        W71464  34.017  19.096  13.015
 3124W        W71465  27.030  21.560  10.969
 3125W        W71466  30.964  12.626  13.308
 3126W        W71467   8.309  40.831   4.199
 3127W        W71468  29.434  23.987   5.200
 3128W        W71469   1.954  23.522  13.541
 3129W        W71470  32.632   0.377   4.120
 3130W        W71471  25.214  25.165   1.823
 3131W        W71472   6.760  24.637  13.027
 3132W        W71473  32.889  38.840   4.349
 3133W        W71474   5.223  24.973  14.318
 3134W        W71475  17.678   7.413   0.934
 3135W        W71476   5.904  34.409  13.059
 3136W        W71477   3.313  25.546   1.852
 3137W        W71478   8.749  20.596  13.484
 3138W        W71479  12.834   1.337  14.468
 3139W        W71480  43.381  40.914   1.245
 3140W        W71481  23.026  19.698  14.781
 3141W        W71482  19.651  40.857  10.621
 3142W        W71483  37.411  11.305   4.770
 3143W        W71484  32.086  44.397  11.965
 3144W        W71485  13.606  15.172  10.411
 3145W        W71486   7.341  31.039  10.545
 3146W        W71487  32.539  12.140  11.554
 3147W        W71488  34.572  38.891  13.927
 3148W        W71489  41.803  37.393  10.127
 3149W        W71490  42.021  40.542   5.228
 3150W        W71491  22.529  43.842   2.726
 3151W        W71492  36.591  35.101  11.575
 3152W        W71493  42.837   5.208  13.310
 3153W        W71494  15.211  39.000   1.840
 3154W        W71495  27.604  36.398   1.927
 3155W        W71496   3.741  16.261   0.838
 3156W        W71497  25.145  30.910   1.348
 3157W        W71498  39.489  13.261   0.366
 3158W        W71499   6.420   2.856  12.975
 3159W        W71500  25.100  26.480  13.933
 3160W        W71501  12.753  30.909  11.070
 3161W        W71502  23.207   0.447  12.951
 3162W        W71503  11.720  24.717   1.769
 3163W        W71504  10.277  11.681  11.104
 3164W        W71505  31.535   5.841  14.018
 3165W        W71506  42.851  43.804   0.429
 3166W        W71507  31.476  12.683  10.435
 3167W        W71508  44.961  19.660  14.343
 3168W        W71509   7.696  41.372  13.054
 3169W        W71510  26.074  12.131  10.939
 3170W        W71511  37.915  43.960   3.213
 3171W        W71512  39.346  18.244   1.712
 3172W        W71513   2.312  22.169   4.816
 3173W        W71514  18.073  14.256   3.822
 3174W        W71515  12.333  21.546   4.715
 3175W        W71516  36.945  24.618   3.677
 3176W        W71517  31.606   0.480   2.782
 3177W        W71518  26.595  40.394  11.941
 3178W        W71519  43.476  42.353  13.865
 3179W        W71520  14.152  16.159  13.411
 3180W        W71521   6.245   0.419  10.430
 3181W        W71522  22.619   1.943  13.855
 3182W        W71523  26.530  27.964  12.971
 3183W        W71524  40.309   5.413   0.478
 3184W        W71525  43.940  41.826  12.026
 3185W        W71526   4.944  23.172   3.318
 3186W        W71527   2.911  23.595   4.612
 3187W        W71528  21.545  36.902   2.795
 3188W        W71529  12.338  23.636   0.863
 3189W        W71530  28.633  20.625  12.574
 3190W        W71531   6.215   7.670   4.836
 3191W        W71532  14.219  44.874   1.211
 3192W        W71533  26.509  31.446  13.064
 3193W        W71534   2.387  17.217   1.343
 3194W        W71535  28.510  41.398   2.358
 3195W        W71536  29.918  21.528   1.322
 3196W        W71537  26.486  35.016   3.741
 3197W        W71538  38.325  35.986  12.473
 3198W        W71539  16.595  37.412  11.104
 3199W        W71540  44.794  25.484  10.899
 3200W        W71541  22.528  13.775  14.982
 3201W        W71542  23.054  34.458   1.320
 3202W        W71543  14.730  17.238  14.919
 3203W        W71544  23.494  36.552   2.238
 3204W        W71545  14.194  41.359  14.445
 3205W        W71546   6.333  22.517   3.652
 3206W        W71547  18.599  27.475   2.849
 3207W        W71548  22.143  35.524  13.539
 3208W        W71549  22.624  18.105   4.213
 3209W        W71550  14.278  18.601  13.425
 3210W        W71551  17.106   8.729  12.477
 3211W        W71552  22.616  29.497   3.826
 3212W        W71553  39.865  13.674  14.869
 3213W        W71554  11.229  17.075   3.738
 3214W        W71555  25.104  44.760   1.355
 3215W        W71556   5.267  24.514  12.553
 3216W        W71557  38.386  15.581  11.893
 3217W        W71558  32.955   0.918   1.235
 3218W        W71559  36.056   4.748   4.235
 3219W        W71560   3.929  16.714   4.657
 3220W        W71561  36.842  22.076   4.776
 3221W        W71562  27.671   3.232   0.287
 3222W        W71563  10.266  29.661   1.738
 3223W        W71564   0.784  15.619   3.829
 3224W        W71565  13.321  24.535  10.406
 3225W        W71566  30.416  27.665   2.285
 3226W        W71567  13.307  15.185   1.369
 3227W        W71568   3.812  11.177  10.515
 3228W        W71569  29.465  35.951   0.467
 3229W        W71570  19.695  39.844   4.664
 3230W        W71571  20.188  24.719   0.327
 3231W        W71572  34.964  12.169   2.800
 3232W        W71573  31.424  17.649  14.971
 3233W        W71574  42.479  10.373  10.939
 3234W        W71575  31.018  34.048  13.059
 3235W        W71576  30.567   1.337   1.776
 3236W        W71577  28.646  35.968  13.924
 3237W        W71578  21.035  23.705   3.358
 3238W        W71579  25.984  22.118   2.719
 3239W        W71580   4.252  36.921  11.116
 3240W        W71581  18.615  12.273   1.242
 3241W        W71582   7.711  19.041  11.856
 3242W        W71583  21.737  23.995  11.921
 3243W        W71584   5.354   7.258   3.813
 3244W        W71585  31.483   8.214   1.750
 3245W        W71586  10.276   3.907   4.224
 3246W        W71587   4.273  18.163   2.724
 3247W        W71588  12.138  24.065   4.695
 3248W        W71589  16.288  28.542   1.866
 3249W        W71590  29.032  31.024   4.763
 3250W        W71591   9.786  23.133  14.352
 3251W        W71592  32.420   0.313   3.770
 3252W        W71593  30.540  38.863   4.305
 3253W        W71594   9.680  43.394   0.871
 3254W        W71595  20.248  42.453   2.232
 3255W        W71596  12.138  43.313   0.959
 3256W        W71597   4.942   9.362   1.920
 3257W        W71598  10.302   3.358  11.584
 3258W        W71599  37.576  23.732  11.022
 3259W        W71600  23.511  25.032  14.945
 3260W        W71601  42.459  36.513   2.380
 3261W        W71602  13.650  36.870   3.252
 3262W        W71603  11.146  41.492  13.430
 3263W        W71604  21.574  22.553  13.870
 3264W        W71605  11.712  17.096   4.227
 3265W        W71606  29.084   4.771  11.561
 3266W        W71607  36.031  29.505  13.989
 3267W        W71608  29.484  30.083  13.313
 3268W        W71609  20.597  36.945   3.748
 3269W        W71610  33.936  35.955  13.935
 3270W        W71611  10.784  33.077   1.734
 3271W        W71612   7.377  18.662   0.396
 3272W        W71613  41.380   0.920  13.998
 3273W        W71614  40.326  38.832   0.315
 3274W        W71615   6.710  37.063   3.371
 3275W        W71616  13.227  19.734  11.962
 3276W        W71617  12.194  40.527  12.460
 3277W        W71618  33.471  19.576   3.724
 3278W        W71619  43.841  19.704  11.054
 3279W        W71620  21.021  36.086  10.569
 3280W        W71621  27.966  10.303   1.823
 3281W        W71622  24.546   4.337   4.755
 3282W        W71623  17.206  18.223   2.757
 3283W        W71624  29.535  16.796   4.621
 3284W        W71625  10.844  24.658  11.607
 3285W        W71626  38.038  38.366  11.912
 3286W        W71627  30.505  10.730   2.185
 3287W        W71628  38.431   8.889   0.286
 3288W        W71629  33.556  44.987   0.290
 3289W        W71630  19.258  38.449  12.425
 3290W        W71631  35.377  10.816  11.545
 3291W        W71632  33.528  19.228  14.406
 3292W        W71633  22.731  40.538   3.824
 3293W        W71634  41.952  17.771  12.377
 3294W        W71635  17.305  28.608   2.316
 3295W        W71636   0.445  37.988  11.858
 3296W        W71637  28.560  23.634   4.188
 3297W        W71638   3.747  43.858   3.636
 3298W        W71639  13.806  16.080  13.314
 3299W        W71640  28.146  40.459   2.310
 3300W        W71641  26.033   8.827   0.743
 3301W        W71642  11.172  19.580  12.447
 3302W        W71643  32.506  39.031  12.517
 3303W        W71644   0.418  31.507   4.684
 3304W        W71645   8.657  26.978  10.970
 3305W        W71646  23.625  20.645  10.419
 3306W        W71647  14.217  35.090  14.998
 3307W        W71648  33.607   3.794  11.534
 3308W        W71649  35.900  43.506   4.173
 3309W        W71650  43.477  35.862  10.973
 3310W        W71651  30.636   9.833   1.901
 3311W        W71652  39.524  17.206  14.298
 3312W        W71653  28.952  13.139  13.983
 3313W        W71654  30.156  25.064   0.379
 3314W        W71655  23.680  21.684  13.802
 3315W        W71656  44.831   7.207  10.544
 3316W        W71657  12.710  20.551   3.806
 3317W        W71658  27.995  12.193   3.726
 3318W        W71659   8.276  27.124  12.459
 3319W        W71660  17.611  40.496  11.522
 3320W        W71661   2.404  12.766   3.195
 3321W        W71662  29.069  21.675   2.662
 3322W        W71663  26.143   2.934  14.909
 3323W        W71664  19.120   1.328   3.686
 3324W        W71665  23.134   0.455  12.449
 3325W        W71666  18.620  12.697   0.348
 3326W        W71667  29.951  22.091   3.359
 3327W        W71668  18.671  32.103   1.934
 3328W        W71669   7.248  32.517  14.930
 3329W        W71670   7.694  42.386   2.246
 3330W        W71671  29.435  22.091   3.678
 3331W        W71672  39.986  24.058  14.857
 3332W        W71673  16.221  13.681  13.007
 3333W        W71674   0.868  23.182   4.324
 3334W        W71675   1.946  19.172  13.440
 3335W        W71676   7.727   0.269   1.899
 3336W        W71677  42.876   9.824  14.383
 3337W        W71678  25.651  19.098   4.271
 3338W        W71679  31.468  39.468   5.657
 3339W        W71680  39.063   2.246  14.987
 3340W        W71681  42.300  41.988   0.297
 3341W        W71682  19.688  27.692  14.448
 3342W        W71683  17.158  36.949   1.754
 3343W        W71684  21.678  29.602   0.403
 3344W        W71685   2.370  18.616  10.471
 3345W        W71686  43.844  25.509  13.503
 3346W        W71687  25.702   5.919  12.006
 3347W        W71688  17.292  38.018   1.891
 3348W        W71689   0.428  15.696  12.970
 3349W        W71690  42.335   8.782   3.258
 3350W        W71691  14.593   4.217  11.493
 3351W        W71692   5.357   6.261  14.845
 3352W        W71693  14.695  27.475   0.355
 3353W        W71694  28.955  33.444  14.366
 3354W        W71695  14.132   8.231  11.424
 3355W        W71696   3.937  39.360   2.242
 3356W        W71697  16.193  15.248  12.494
 3357W        W71698   7.775  12.625  10.115
 3358W        W71699  39.411  41.878  14.878
 3359W        W71700  14.329  15.170   4.163
 3360W        W71701   0.491  10.353  13.411
 3361W        W71702   6.835  35.540  12.553
 3362W        W71703  33.397  44.345  10.147
 3363W        W71704  29.530   2.843  13.852
 3364W        W71705  15.587  33.400  12.997
 3365W        W71706   9.816  23.005  13.518
 3366W        W71707  14.312  40.434   3.343
 3367W        W71708  41.977  20.670   4.800
 3368W        W71709   7.296  41.968   2.386
 3369W        W71710   7.404  30.594  10.925
 3370W        W71711  28.507   3.955  11.931
 3371W        W71712  22.543   5.356  12.537
 3372W        W71713  15.263  19.178  13.937
 3373W        W71714  16.637  23.575   4.154
 3374W        W71715  43.844  39.951   0.874
 3375W        W71716  42.803  10.638   3.385
 3376W        W71717  32.403   2.375   1.224
 3377W        W71718  44.453  26.985   1.927
 3378W        W71719  28.057  25.602   3.743
 3379W        W71720  15.733  42.294   0.385
 3380W        W71721  10.195  29.503   1.228
 3381W        W71722  20.186   0.864   4.215
 3382W        W71723   4.392  23.634   3.364
 3383W        W71724   2.941   2.931  14.771
 3384W        W71725  38.569  29.642  10.411
 3385W        W71726  31.418  30.563   3.704
 3386W        W71727  27.175  19.696  13.477
 3387W        W71728  11.809  35.871  11.572
 3388W        W71729  30.642  44.322  14.807
 3389W        W71730  35.949  31.147   1.339
 3390W        W71731   9.748  24.116  14.509
 3391W        W71732  18.182  28.958   2.780
 3392W        W71733   7.865  10.231  13.437
 3393W        W71734  21.738  33.573   3.254
 3394W        W71735  40.542  27.661  10.592
 3395W        W71736  13.288   9.273  13.339
 3396W        W71737   2.901  33.417  14.427
 3397W        W71738   3.319  42.841   5.098
 3398W        W71739  15.220  12.127   4.670
 3399W        W71740  13.167  38.463   9.933
 3400W        W71741   4.844   0.927  13.506
 3401W        W71742  39.815  43.490  10.955
 3402W        W71743  41.844  32.625   1.325
 3403W        W71744  24.661   7.807  11.557
 3404W        W71745  20.031  26.011  14.009
 3405W        W71746  40.008  43.815  14.833
 3406W        W71747  13.731  18.232  13.957
 3407W        W71748  26.033   7.182   4.169
 3408W        W71749  26.689  35.527   1.892
 3409W        W71750  40.387  17.739  12.075
 3410W        W71751  23.692  30.573   3.183
 3411W        W71752  19.689  25.665  13.418
 3412W        W71753  31.064  16.793  11.979
 3413W        W71754  11.793  30.924   4.312
 3414W        W71755  25.163   6.397  14.805
 3415W        W71756  12.785   3.389  11.011
 3416W        W71757  42.783  34.104   4.774
 3417W        W71758   0.941   8.372  14.465
 3418W        W71759  36.373  21.735  10.992
 3419W        W71760  35.953  29.632  11.429
 3420W        W71761  26.208  38.867  12.920
 3421W        W71762  12.613  12.301  11.031
 3422W        W71763   6.301   7.252  12.072
 3423W        W71764  27.448  33.537  14.287
 3424W        W71765  25.712  34.970  14.425
 3425W        W71766  27.034  43.944   4.167
 3426W        W71767  15.240  28.478   1.717
 3427W        W71768  26.969   5.264   1.446
 3428W        W71769  38.893  23.989  14.341
 3429W        W71770  25.708  24.695  10.455
 3430W        W71771  17.712  12.634   3.716
 3431W        W71772  26.171  37.083   2.844
 3432W        W71773  12.221  25.105   2.765
 3433W        W71774  19.278  30.464  10.519
 3434W        W71775  37.461  34.030  12.037
 3435W        W71776  24.986  25.556  11.862
 3436W        W71777  18.061  19.114   3.859
 3437W        W71778  23.115   8.341  13.331
 3438W        W71779   4.755   8.206   3.820
 3439W        W71780  30.609  23.993  11.063
 3440W        W71781  11.372   5.913  11.955
 3441W        W71782  41.043  19.135   2.270
 3442W        W71783   9.301  33.104  11.046
 3443W        W71784  39.017  36.020   1.401
 3444W        W71785  14.237  44.968   3.842
 3445W        W71786  13.132  20.705  13.454
 3446W        W71787  14.640   6.193   4.741
 3447W        W71788  10.155  41.419   0.928
 3448W        W71789   8.734  17.691   2.236
 3449W        W71790  31.921  28.978  11.072
 3450W        W71791  25.058  16.103   1.710
 3451W        W71792  15.599   1.298   3.694
 3452W        W71793  26.460  27.532   0.934
 3453W        W71794   9.231  21.659  11.086
 3454W        W71795  37.848  21.096  14.788
 3455W        W71796   0.858  10.834  13.010
 3456W        W71797  17.694   3.231  11.505
 3457W        W71798  25.488  17.653   0.412
 3458W        W71799   8.856  19.069   2.223
 3459W        W71800  32.461   8.199  10.982
 3460W        W71801  12.661  44.483   3.720
 3461W        W71802  33.082  40.930   4.807
 3462W        W71803  31.147  25.056  12.379
 3463W        W71804  10.635   6.333   4.275
 3464W        W71805  16.206  11.164  10.503
 3465W        W71806   6.207   4.314  14.908
 3466W        W71807  42.337  38.394   4.657
 3467W        W71808   2.396  40.997  12.380
 3468W        W71809   6.347  32.907  13.799
 3469W        W71810   0.963   4.336   1.760
 3470W        W71811  30.479  27.642  13.445
 3471W        W71812  43.996  11.726  13.501
 3472W        W71813  43.325  18.767  11.039
 3473W        W71814   4.210  29.155   3.218
 3474W        W71815   7.722  19.683  11.112
 3475W        W71816  30.482  19.081   1.431
 3476W        W71817  24.561  37.841   1.389
 3477W        W71818  41.941  15.806   4.817
 3478W        W71819  10.712   5.390  12.392
 3479W        W71820  35.856  38.981   4.264
 3480W        W71821  27.966  27.977   0.906
 3481W        W71822   7.334   3.919  14.835
 3482W        W71823  27.966  14.718  13.876
 3483W        W71824   0.429  37.976   0.908
 3484W        W71825   8.173  44.970  14.403
 3485W        W71826  16.625  40.547   3.678
 3486W        W71827  29.598   3.808  12.056
 3487W        W71828  29.157  38.425  12.068
 3488W        W71829  34.879  26.588  10.586
 3489W        W71830   2.874  20.592   1.731
 3490W        W71831  12.360  36.974   0.869
 3491W        W71832  43.821   1.367   3.811
 3492W        W71833  21.691  42.958   4.694
 3493W        W71834  36.932   9.335  10.476
 3494W        W71835  23.527  33.419  14.338
 3495W        W71836  33.397  34.383  12.353
 3496W        W71837  34.591   0.894   2.662
 3497W        W71838  18.263  21.730  12.525
 3498W        W71839  32.132   3.727   3.356
 3499W        W71840   7.899  26.054  11.957
 3500W        W71841  10.696  36.985  11.922
 3501W        W71842   9.801  37.436  14.951
 3502W        W71843   7.343  14.716   2.271
 3503W        W71844  33.002  16.160   0.404
 3504W        W71845  15.781  27.478  12.361
 3505W        W71846  33.526  13.837   0.357
 3506W        W71847  44.007  14.326   4.212
 3507W        W71848  42.364  26.103  14.826
 3508W        W71849  23.088  25.491   3.316
 3509W        W71850  37.393   7.674  13.353
 3510W        W71851  21.534  18.193   2.237
 3511W        W71852  22.129   3.811  10.524
 3512W        W71853  21.688  17.183   4.706
 3513W        W71854  23.633  44.888  11.510
 3514W        W71855  11.339   8.268   4.243
 3515W        W71856  18.156  35.413   0.952
 3516W        W71857  16.788  10.259  13.049
 3517W        W71858  23.169  14.183   3.168
 3518W        W71859  20.631  18.618  13.858
 3519W        W71860  18.055  34.082  14.452
 3520W        W71861  13.804  27.045  14.991
 3521W        W71862   6.883   0.941   0.426
 3522W        W71863  31.427  11.660  10.533
 3523W        W71864  28.048  37.421  10.131
 3524W        W71865  44.374  39.374  13.914
 3525W        W71866  16.569  27.650  11.588
 3526W        W71867  25.126  38.979   4.664
 3527W        W71868  42.976   2.471  13.366
 3528W        W71869  13.113  14.761   2.824
 3529W        W71870  30.655  21.636  10.993
 3530W        W71871  23.623  36.983  12.011
 3531W        W71872  35.089  25.192  10.593
 3532W        W71873  23.082  20.535   0.396
 3533W        W71874  41.414  34.967  11.082
 3534W        W71875  29.072  39.832  14.395
 3535W        W71876  37.864   5.365  12.491
 3536W        W71877   5.726  36.008   1.400
 3537W        W71878  32.139  26.126  11.962
 3538W        W71879  30.063  13.246   4.186
 3539W        W71880   6.800  22.676   4.277
 3540W        W71881  31.081  10.747   0.794
 3541W        W71882   9.154  16.216   4.748
 3542W        W71883  34.929  31.437  12.557
 3543W        W71884   3.748  13.164  12.418
 3544W        W71885  38.369  25.036   2.891
 3545W        W71886  18.636  33.126  13.791
 3546W        W71887   9.825  33.549   4.649
 3547W        W71888  31.080  12.752   0.482
 3548W        W71889  14.143  14.236  13.905
 3549W        W71890  28.138  44.389   2.213
 3550W        W71891  32.607   8.715   2.782
 3551W        W71892  43.908   8.761   4.830
 3552W        W71893   6.713  20.040   0.750
 3553W        W71894  28.076  26.984  12.094
 3554W        W71895  14.316  33.945   2.877
 3555W        W71896   9.806  42.843  11.009
 3556W        W71897  10.215   4.826  12.950
 3557W        W71898  29.602  34.445  11.968
 3558W        W71899  33.476  35.902   2.686
 3559W        W71900  32.532  30.919  14.772
 3560W        W71901  44.267  10.240   4.309
 3561W        W71902  38.428  11.129   4.820
 3562W        W71903  26.980   2.905  12.400
 3563W        W71904  35.562  20.681  12.492
 3564W        W71905  38.883  33.434  12.367
 3565W        W71906  21.219  34.024  12.862
 3566W        W71907  22.156   9.818   4.334
 3567W        W71908  28.174  37.443  10.529
 3568W        W71909  28.144  37.081   0.358
 3569W        W71910  23.571  24.566  12.453
 3570W        W71911  44.418   2.736  11.584
 3571W        W71912  19.676  24.148   2.182
 3572W        W71913  27.000  34.393  13.544
 3573W        W71914  40.888  19.610  11.957
 3574W        W71915  27.038   0.756  12.042
 3575W        W71916  14.608  39.022   2.211
 3576W        W71917  20.763  16.792  11.544
 3577W        W71918  25.993  39.323   4.734
 3578W        W71919  22.239  33.029  10.526
 3579W        W71920  37.433   8.201   0.922
 3580W        W71921  15.808   7.377  10.924
 3581W        W71922  14.155   5.732   2.335
 3582W        W71923  10.669  44.766   2.363
 3583W        W71924   8.793  41.010   2.263
 3584W        W71925   5.217  37.970  11.561
 3585W        W71926  39.386  29.148  14.431
 3586W        W71927  29.455  44.421   3.826
 3587W        W71928  33.511  44.335   3.329
 3588W        W71929  33.108   6.724   3.190
 3589W        W71930  27.040  30.656   0.962
 3590W        W71931  15.684  23.594  14.842
 3591W        W71932   3.441  12.657   2.684
 3592W        W71933  35.966  38.017   0.882
 3593W        W71934  10.831  39.432  13.437
 3594W        W71935  37.484  39.953   1.742
 3595W        W71936  13.780   7.253  14.842
 3596W        W71937   7.375   0.291  14.365
 3597W        W71938  29.653  36.870  12.842
 3598W        W71939   9.698  15.209  13.452
 3599W        W71940  32.902   2.781  12.919
 3600W        W71941  13.715   8.697   0.800
 3601W        W71942  29.058   1.308  10.948
 3602W        W71943  44.912  10.802  12.385
 3603W        W71944  26.960  21.575  13.916
 3604W        W71945  25.081  32.092   4.224
 3605W        W71946  37.026  39.064  13.817
 3606W        W71947  34.512  20.168   2.728
 3607W        W71948  26.629  31.090  14.316
 3608W        W71949  24.125   5.824   1.384
 3609W        W71950  16.642  42.480  11.994
 3610W        W71951  17.746  34.613  14.021
 3611W        W71952  32.035   5.687  11.984
 3612W        W71953  11.732  40.367  10.485
 3613W        W71954  21.688   3.796   0.744
 3614W        W71955  29.570  16.632  12.550
 3615W        W71956  14.153  27.450   3.324
 3616W        W71957  16.135  35.373   4.257
 3617W        W71958  40.525  29.079  12.024
 3618W        W71959  25.004   3.338  14.397
 3619W        W71960  41.979  10.330  14.947
 3620W        W71961  20.168  25.035  10.007
 3621W        W71962   2.259  14.639  10.421
 3622W        W71963   3.458  33.403  12.040
 3623W        W71964   1.419  28.504   0.782
 3624W        W71965   6.833  12.799   2.699
 3625W        W71966  39.985   1.346  11.082
 3626W        W71967  31.080  22.215   4.820
 3627W        W71968  39.538  41.412   4.273
 3628W        W71969   1.438  39.318  11.428
 3629W        W71970   1.349   5.699  12.472
 3630W        W71971  12.821   6.246  12.857
 3631W        W71972  23.209  41.843  13.374
 3632W        W71973  24.054  23.571   3.668
 3633W        W71974  41.821  17.589  14.913
 3634W        W71975  44.293  10.831  12.394
 3635W        W71976  31.573  43.894   4.300
 3636W        W71977  12.291  28.619  12.830
 3637W        W71978  36.395  24.584   3.770
 3638W        W71979  31.446  33.973   0.922
 3639W        W71980  18.729  18.172   2.239
 3640W        W71981  40.423  31.963   0.763
 3641W        W71982   8.182  29.624   3.715
 3642W        W71983  13.620  34.598  10.497
 3643W        W71984  15.590  31.412  14.388
 3644W        W71985  15.634  28.961   0.429
 3645W        W71986   2.381  28.025   0.850
 3646W        W71987   2.435   3.454   2.881
 3647W        W71988  12.614   0.387  14.456
 3648W        W71989  40.899  33.019   4.647
 3649W        W71990  30.963  26.494   1.222
 3650W        W71991  18.723  12.742  13.911
 3651W        W71992  18.135  22.707   0.380
 3652W        W71993  27.469  35.970   1.708
 3653W        W71994  10.374  24.017   0.446
 3654W        W71995  38.443  41.832   9.985
 3655W        W71996   3.281  32.515   2.850
 3656W        W71997  22.096   7.374   0.753
 3657W        W71998  13.717  12.812  10.473
 3658W        W71999  19.048  34.009  14.397
 3659W        W72000  21.200  29.158  11.910
 3660W        W72001  16.755  18.282   1.737
 3661W        W72002  10.326   9.889  13.479
 3662W        W72003   4.227   2.850  12.448
 3663W        W72004  12.745  29.031  10.975
 3664W        W72005  37.925   0.744   2.207
 3665W        W72006  14.722   3.917   1.288
 3666W        W72007  28.437  33.976   2.671
 3667W        W72008  21.749  43.938  11.505
 3668W        W72009  41.351  10.864  14.408
 3669W        W72010  37.470   6.279  13.351
 3670W        W72011  24.041  20.702   3.233
 3671W        W72012  22.008   8.246   2.846
 3672W        W72013  38.405  11.273  10.605
 3673W        W72014  17.657  32.591  11.045
 3674W        W72015   5.760  20.210   4.690
 3675W        W72016  12.271  41.416   1.832
 3676W        W72017  40.812   3.840   2.886
 3677W        W72018   9.268  38.566   1.822
 3678W        W72019  11.708  10.226   5.158
 3679W        W72020  39.811  16.713   4.674
 3680W        W72021   1.837  41.956   0.418
 3681W        W72022  40.482  13.732  13.482
 3682W        W72023   6.741  25.121   4.786
 3683W        W72024  10.171   5.304  10.472
 3684W        W72025  19.754  19.729  11.444
 3685W        W72026  34.920  12.710   0.829
 3686W        W72027  25.499  15.765  13.339
 3687W        W72028  33.589   9.711  11.042
 3688W        W72029  17.598  40.388  13.063
 3689W        W72030   4.750   4.890  10.569
 3690W        W72031  36.352  37.019  14.988
 3691W        W72032  23.606  34.515   1.415
 3692W        W72033  22.018  19.714  11.091
 3693W        W72034  44.383  41.962   2.755
 3694W        W72035  21.194  43.412  10.546
 3695W        W72036  37.355   6.410  14.407
 3696W        W72037  16.721  25.113  10.889
 3697W        W72038  43.513  39.950   3.741
 3698W        W72039  33.019  15.623   2.400
 3699W        W72040  10.634  35.873   5.179
 3700W        W72041  37.345  11.284   2.318
 3701W        W72042  14.622  32.082  13.534
 3702W        W72043   4.846  12.853   4.727
 3703W        W72044  42.908   9.169  13.328
 3704W        W72045  15.124  39.018   0.896
 3705W        W72046  29.633  34.600  12.524
 3706W        W72047  39.469  20.184  13.967
 3707W        W72048  41.306  24.599   1.844
 3708W        W72049  26.650  42.846   4.765
 3709W        W72050  30.637  13.664  10.566
 3710W        W72051  33.529  18.206   4.693
 3711W        W72052   3.345   2.919   3.192
 3712W        W72053  18.782  44.398  12.557
 3713W        W72054  28.073  21.586   0.390
 3714W        W72055  28.010  12.637   1.724
 3715W        W72056   0.832  44.362  11.946
 3716W        W72057   1.356  26.474  14.992
 3717W        W72058   9.312  25.980  12.910
 3718W        W72059  10.715  36.869  12.533
 3719W        W72060  15.676  29.123   4.152
 3720W        W72061  22.569  11.864   4.341
 3721W        W72062  31.597  17.078   4.338
 3722W        W72063  18.058  25.036  13.036
 3723W        W72064   0.881  17.259  12.563
 3724W        W72065   1.941  27.633   2.839
 3725W        W72066  35.038  30.512  13.546
 3726W        W72067   4.290  42.351  10.977
 3727W        W72068  24.086   5.431  12.949
 3728W        W72069  41.303  39.809   4.199
 3729W        W72070  33.511  28.662  11.944
 3730W        W72071  42.368  18.158  12.866
 3731W        W72072  30.606  17.111   2.319
 3732W        W72073  14.153  29.654   2.360
 3733W        W72074   5.874  32.007  11.096
 3734W        W72075  44.288  41.825  11.906
 3735W        W72076  30.142  15.101  13.017
 3736W        W72077  27.002  30.163  13.510
 3737W        W72078  37.043  35.510  13.981
 3738W        W72079  12.686  10.714   5.138
 3739W        W72080   3.434   8.805  12.830
 3740W        W72081  15.727  18.214  14.377
 3741W        W72082  21.147  14.236  14.788
 3742W        W72083  30.070  23.184  14.437
 3743W        W72084  37.456   2.790   2.194
 3744W        W72085   2.274  23.501  13.947
 3745W        W72086  21.052   5.334   1.709
 3746W        W72087  43.343  30.114   2.671
 3747W        W72088  19.754  15.141   0.788
 3748W        W72089   3.786   1.249  12.424
 3749W        W72090  28.183   4.320   3.721
 3750W        W72091   1.462  26.207  14.781
 3751W        W72092  11.145  39.358  10.912
 3752W        W72093  26.981   4.424  12.850
 3753W        W72094  41.525  28.589  12.009
 3754W        W72095  39.876  11.642   1.841
 3755W        W72096  23.729  38.879   4.172
 3756W        W72097  39.416  16.698  11.963
 3757W        W72098  35.958  13.122  14.814
 3758W        W72099   2.826  12.778  10.950
 3759W        W72100  42.972  14.713  12.022
 3760W        W72101  18.099  13.662   3.807
 3761W        W72102   7.213  28.168   1.711
 3762W        W72103  11.678  20.094  10.494
 3763W        W72104   1.739  22.510   0.440
 3764W        W72105  32.457   5.763  13.461
 3765W        W72106   5.344  36.854   3.380
 3766W        W72107  24.030   5.869   0.264
 3767W        W72108  39.860  15.753   1.448
 3768W        W72109   7.198  40.009  12.072
 3769W        W72110  28.581  15.734  11.950
 3770W        W72111   3.763  10.190   5.114
 3771W        W72112  20.049  23.699   1.284
 3772W        W72113  42.335  30.966   1.288
 3773W        W72114   3.918  26.125  12.962
 3774W        W72115  17.280   3.753  14.409
 3775W        W72116  27.550  23.658   1.847
 3776W        W72117  44.954   8.355   3.265
 3777W        W72118  11.738   0.985  11.955
 3778W        W72119  35.465  42.503   0.366
 3779W        W72120   2.454  41.299   1.822
 3780W        W72121   3.773  44.505  12.416
 3781W        W72122  14.131  32.121  13.951
 3782W        W72123  15.802  23.672  13.440
 3783W        W72124   4.817  25.480  10.155
 3784W        W72125  24.533   2.911  11.484
 3785W        W72126  28.172  27.620  12.974
 3786W        W72127   9.779  16.131   4.791
 3787W        W72128  14.604  42.387  11.410
 3788W        W72129  26.072  36.906  12.913
 3789W        W72130  26.685  20.620   1.771
 3790W        W72131  34.041   9.370   2.759
 3791W        W72132   8.373  35.057   0.465
 3792W        W72133  13.751   1.456   3.163
 3793W        W72134   8.823  21.145   0.306
 3794W        W72135  21.533  43.988  12.536
 3795W        W72136  18.251   8.786   0.955
 3796W        W72137  23.496  41.534   1.340
 3797W        W72138  39.831   9.177  14.868
 3798W        W72139  29.119  14.606   3.722
 3799W        W72140  33.904  26.026  13.374
 3800W        W72141   5.830  31.541  12.546
 3801W        W72142  19.548   9.669  11.079
 3802W        W72143   6.922  28.082  11.533
 3803W        W72144  18.127  38.378  10.972
 3804W        W72145   5.357   5.387   4.602
 3805W        W72146  19.118   3.899  14.330
 3806W        W72147  26.039   1.352   0.849
 3807W        W72148  12.298  24.601  14.467
 3808W        W72149  19.780   3.822  12.415
 3809W        W72150   9.725  22.506  14.969
 3810W        W72151  35.931  19.665   4.302
 3811W        W72152  18.742  30.083   1.881
 3812W        W72153  20.735  18.256  13.025
 3813W        W72154  15.321  26.085   3.225
 3814W        W72155   4.892   3.802  11.035
 3815W        W72156   5.927  23.599  10.988
 3816W        W72157  18.663  21.586  14.337
 3817W        W72158  43.843  26.006  14.418
 3818W        W72159   4.291  44.453   4.667
 3819W        W72160  14.646   3.240   5.105
 3820W        W72161   7.720  37.499   2.781
 3821W        W72162  31.562   8.868  12.455
 3822W        W72163  19.575  40.465  12.552
 3823W        W72164  27.602  40.484   1.813
 3824W        W72165  32.619  12.851   0.349
 3825W        W72166   6.913  28.655  13.491
 3826W        W72167  29.482  32.395   3.714
 3827W        W72168   1.371   5.225  11.523
 3828W        W72169  11.163   8.365   1.348
 3829W        W72170  11.708  11.363  13.993
 3830W        W72171  25.585  23.507  10.005
 3831W        W72172   7.855  10.708  11.458
 3832W        W72173  22.245  17.784  14.455
 3833W        W72174  36.390  38.035   2.668
 3834W        W72175   3.902  43.355  14.832
 3835W        W72176  10.799  22.168  13.903
 3836W        W72177  27.970   2.437   1.330
 3837W        W72178  43.920  14.781   3.750
 3838W        W72179   3.256   9.194  12.042
 3839W        W72180  25.037  44.374   4.641
 3840W        W72181   0.981  20.093   3.376
 3841W        W72182  12.294  19.588   0.399
 3842W        W72183  38.548  44.841   3.259
 3843W        W72184  42.905  15.788  14.505
 3844W        W72185   1.934  15.310  13.848
 3845W        W72186   0.865  15.258  13.884
 3846W        W72187  19.678  23.494  13.886
 3847W        W72188  33.532  18.267   5.218
 3848W        W72189  11.127   1.855   1.224
 3849W        W72190  24.520  32.481   2.249
 3850W        W72191   9.392   2.948   4.647
 3851W        W72192  27.568   6.701   4.258
 3852W        W72193  21.150  36.976   3.833
 3853W        W72194  11.292  37.948   4.622
 3854W        W72195   8.352  38.859   3.306
 3855W        W72196  41.536  21.209   0.847
 3856W        W72197  22.186   9.857  11.395
 3857W        W72198  26.701   6.823  13.320
 3858W        W72199   4.361   7.300  11.571
 3859W        W72200  18.776  42.387   3.183
 3860W        W72201   3.332  36.356   2.244
 3861W        W72202  22.647  29.663   4.709
 3862W        W72203   9.231  15.592   4.218
 3863W        W72204  44.771  33.018   3.192
 3864W        W72205  22.245  32.920   2.317
 3865W        W72206   9.785  26.545   5.179
 3866W        W72207  22.584  11.736  14.995
 3867W        W72208  36.997  41.032  13.840
 3868W        W72209   2.251  35.411  10.453
 3869W        W72210  29.537  31.048  10.584
 3870W        W72211  27.667   4.851   4.233
 3871W        W72212  27.049  43.014  13.358
 3872W        W72213   7.304  22.160   2.881
 3873W        W72214   4.870  26.679  14.774
 3874W        W72215   5.818  15.195   0.935
 3875W        W72216  27.558  35.535   2.849
 3876W        W72217   6.227  17.729  12.549
 3877W        W72218  21.695  18.707  10.513
 3878W        W72219  27.078  24.032   3.219
 3879W        W72220  30.937   0.289  11.056
 3880W        W72221  19.588  21.110  10.980
 3881W        W72222  28.654  36.991   2.866
 3882W        W72223  44.352  32.498  12.076
 3883W        W72224   4.924  13.196  12.836
 3884W        W72225   9.766  44.826   0.373
 3885W        W72226   7.217  39.549  14.831
 3886W        W72227  24.154  37.579  13.056
 3887W        W72228  19.584  14.684   1.271
 3888W        W72229  33.516   3.913  13.925
 3889W        W72230  13.198  29.935   4.240
 3890W        W72231  10.367  22.240   2.746
 3891W        W72232   7.698   6.913   3.800
 3892W        W72233  36.549   2.460  14.349
 3893W        W72234  28.947   6.679   0.834
 3894W        W72235  43.379  23.538   1.735
 3895W        W72236  29.444  27.057  12.872
 3896W        W72237   8.166   7.806  11.595
 3897W        W72238  25.076   4.713  13.492
 3898W        W72239  29.119  11.799  13.368
 3899W        W72240  12.172  27.188  10.439
 3900W        W72241   8.741   2.839  12.975
 3901W        W72242   9.779  10.834   4.126
 3902W        W72243  16.639  16.290  13.837
 3903W        W72244  15.147  23.062  10.054
 3904W        W72245  16.673  17.754  14.027
 3905W        W72246  35.456  28.543   4.282
 3906W        W72247   5.325  33.904   3.703
 3907W        W72248   5.932  31.067   4.290
 3908W        W72249  35.542  33.565   1.741
 3909W        W72250   5.691  21.085  12.377
 3910W        W72251   6.416  33.009  12.442
 3911W        W72252  27.126  23.708  13.315
 3912W        W72253  22.537   2.910   1.734
 3913W        W72254   3.454  43.797  12.370
 3914W        W72255  24.052  33.050  14.347
 3915W        W72256   7.823  16.115   2.193
 3916W        W72257   2.812  27.149  10.901
 3917W        W72258  17.224  39.408  12.360
 3918W        W72259  24.056   3.863   0.364
 3919W        W72260   6.729  34.945  11.421
 3920W        W72261  32.094  44.493  10.627
 3921W        W72262  19.654  11.830   1.751
 3922W        W72263  34.545   3.296   1.442
 3923W        W72264  21.557  20.220  10.450
 3924W        W72265  27.529  20.557   1.725
 3925W        W72266   5.263  14.135   4.253
 3926W        W72267  27.604  18.198  13.327
 3927W        W72268  10.694  28.060  13.022
 3928W        W72269  13.740  10.761   4.648
 3929W        W72270  33.990  23.518   4.630
 3930W        W72271  19.568  33.434   0.798
 3931W        W72272  33.079  34.074  12.349
 3932W        W72273  41.955  10.316  12.012
 3933W        W72274  29.568  15.629   3.819
 3934W        W72275   5.928  18.631   2.414
 3935W        W72276  39.883  42.959   4.128
 3936W        W72277   7.901  35.912  14.420
 3937W        W72278  14.806   5.367  11.111
 3938W        W72279  36.502  37.555  12.851
 3939W        W72280  43.019  10.871   2.216
 3940W        W72281  18.753  32.511  12.956
 3941W        W72282  10.339  43.013   2.313
 3942W        W72283  10.368  12.133  12.983
 3943W        W72284   2.966  38.390  12.416
 3944W        W72285  16.636  44.458   3.732
 3945W        W72286   8.192  39.914   1.732
 3946W        W72287  32.966  16.209   2.397
 3947W        W72288  17.174  12.172   1.215
 3948W        W72289   6.411  15.245  12.555
 3949W        W72290  15.802  22.531   1.710
 3950W        W72291  11.772   6.856  12.067
 3951W        W72292  42.442  39.984   4.219
 3952W        W72293  17.648  23.201   3.678
 3953W        W72294   2.433  16.185   4.830
 3954W        W72295   3.440  25.595   5.304
 3955W        W72296  15.137   0.891   2.265
 3956W        W72297  29.621  24.490  14.391
 3957W        W72298   5.276  29.011  12.431
 3958W        W72299  28.508  42.937   1.290
 3959W        W72300   6.747   6.325  14.354
 3960W        W72301  21.709   6.727  12.454
 3961W        W72302   6.344  43.933   3.252
 3962W        W72303  28.990  43.379  12.378
 3963W        W72304  21.747   9.192  13.845
 3964W        W72305  12.803   9.154   4.249
 3965W        W72306  24.173  19.051  11.407
 3966W        W72307  36.405  43.318  10.937
 3967W        W72308  31.989  38.517   4.807
 3968W        W72309  25.995  20.701  13.843
 3969W        W72310   3.885  31.018  12.442
 3970W        W72311  37.070  13.734   1.787
 3971W        W72312   0.285  11.768  13.851
 3972W        W72313   8.404   8.247  11.591
 3973W        W72314  31.486  20.549   0.861
 3974W        W72315  38.000  32.501  11.883
 3975W        W72316  32.605  18.694  11.975
 3976W        W72317  42.779  10.373  10.897
 3977W        W72318  22.048  22.040   2.729
 3978W        W72319  12.692  37.559   2.778
 3979W        W72320  14.204  12.803  14.510
 3980W        W72321  11.357  38.455   2.229
 3981W        W72322  41.871  10.754  12.869
 3982W        W72323  22.582  22.712  10.573
 3983W        W72324  14.632  13.124   3.869
 3984W        W72325   3.310   6.825  14.979
 3985W        W72326   6.699   3.330  12.896
 3986W        W72327   5.755  33.920  11.507
 3987W        W72328   6.258   2.469   2.229
 3988W        W72329  43.850  36.029   2.384
 3989W        W72330  24.574  27.552  12.843
 3990W        W72331  28.676  23.118  14.346
 3991W        W72332   9.368  32.496   0.412
 3992W        W72333  15.698  31.008   5.200
 3993W        W72334  15.192  21.251   1.223
 3994W        W72335  28.567  14.164  11.120
 3995W        W72336  20.758  35.023  14.407
 3996W        W72337   6.805  12.221  14.876
 3997W        W72338   1.240  22.564   3.800
 3998W        W72339  12.759  37.398  14.985
 3999W        W72340   2.295  44.857   1.802
 4000W        W72341  10.177  39.520   2.698
 4001W        W72342   4.742  41.808   1.375
 4002W        W72343   0.249  23.554  12.975
 4003W        W72344  30.607  27.106   0.892
 4004W        W72345  21.169  33.958   1.400
 4005W        W72346  35.467  30.603   1.852
 4006W        W72347  14.634   2.840   1.807
 4007W        W72348  14.147  33.437   4.668
 4008W        W72349  39.454  23.735  14.327
 4009W        W72350  43.306   2.303   2.368
 4010W        W72351   6.319   8.865   1.321
 4011W        W72352   9.744   0.485   0.858
 4012W        W72353  24.204  35.417   1.860
 4013W        W72354  32.885   6.417  14.315
 4014W        W72355  16.160  34.055  12.831
 4015W        W72356  30.122  24.678  10.897
 4016W        W72357  23.592   1.949   3.652
 4017W        W72358  33.473  22.506  10.557
 4018W        W72359  28.649   7.827  14.392
 4019W        W72360  34.448  17.716  13.790
 4020W        W72361  36.908  43.273  10.998
 4021W        W72362  11.686  19.637  11.001
 4022W        W72363  20.681  42.838   0.837
 4023W        W72364  34.403   1.327  12.986
 4024W        W72365  10.228   6.800   4.221
 4025W        W72366  26.020  29.436  12.448
 4026W        W72367  25.670  20.568  12.365
 4027W        W72368   6.836  14.694   1.287
 4028W        W72369  35.359   6.820  11.462
 4029W        W72370  10.852  12.722   2.243
 4030W        W72371  35.973   0.338  10.613
 4031W        W72372  22.537   6.309   1.215
 4032W        W72373  35.901  14.163  12.356
 4033W        W72374  44.794  27.604  14.361
 4034W        W72375  29.440  13.176  11.451
 4035W        W72376   2.243  27.964   4.117
 4036W        W72377  16.282  41.510  13.009
 4037W        W72378  22.040  23.549  13.438
 4038W        W72379  28.657  38.884  11.477
 4039W        W72380  16.286  42.835   3.823
 4040W        W72381  13.223   9.173  10.915
 4041W        W72382  20.731  11.138  14.996
 4042W        W72383  23.735  40.504   0.776
 4043W        W72384  31.903   9.210  10.412
 4044W        W72385  12.795  41.918  11.966
 4045W        W72386  23.130  25.521   2.843
 4046W        W72387  10.644  21.249   0.868
 4047W        W72388  41.973   0.795   1.762
 4048W        W72389  35.026   9.661   4.252
 4049W        W72390  21.627  19.578   5.138
 4050W        W72391  28.157  42.959  12.343
 4051W        W72392  10.361  27.651   9.949
 4052W        W72393  22.703  32.009  13.906
 4053W        W72394  27.184  44.500   2.216
 4054W        W72395  28.082  27.449   4.827
 4055W        W72396   5.438   4.787   4.322
 4056W        W72397  19.177  37.034  10.957
 4057W        W72398  22.244  11.719   4.326
 4058W        W72399  16.566  42.518   0.295
 4059W        W72400  31.534  22.536  13.992
 4060W        W72401  39.915  31.085  10.920
 4061W        W72402  11.327   0.252   0.809
 4062W        W72403  38.827  43.395   0.800
 4063W        W72404   7.737  24.028   4.276
 4064W        W72405  28.936  13.250   0.361
 4065W        W72406  19.720   8.887  10.434
 4066W        W72407  33.529  19.553  13.472
 4067W        W72408   2.286  11.134   0.308
 4068W        W72409  44.930  15.748  11.418
 4069W        W72410  25.665  24.667   1.441
 4070W        W72411  21.112  17.717  13.510
 4071W        W72412  36.407  34.052  11.516
 4072W        W72413  12.299   9.788   1.346
 4073W        W72414  31.426  25.971   3.212
 4074W        W72415  18.259  19.117   2.282
 4075W        W72416  24.107  30.511  11.916
 4076W        W72417  15.170  15.621   2.245
 4077W        W72418  43.976  27.996  14.305
 4078W        W72419  35.009  28.948   1.794
 4079W        W72420  21.210  36.027   2.792
 4080W        W72421   4.356  18.171  14.335
 4081W        W72422   1.364  23.062  11.458
 4082W        W72423   7.867  23.707   2.214
 4083W        W72424  40.893  24.144   0.896
 4084W        W72425   0.797  43.438   3.350
 4085W        W72426  11.132   0.956   0.482
 4086W        W72427  42.450  15.110  14.939
 4087W        W72428  34.937  43.810  11.002
 4088W        W72429  19.630  35.508   4.718
 4089W        W72430  43.332   2.803  12.015
 4090W        W72431  40.461   8.316  13.055
 4091W        W72432  33.120  24.013   4.777
 4092W        W72433  11.364  24.608   2.863
 4093W        W72434  26.619   2.420  13.987
 4094W        W72435  36.975  22.186  12.411
 4095W        W72436  16.768  19.750  12.375
 4096W        W72437  12.688  42.890  14.295
 4097W        W72438  36.989  11.173  10.604
 4098W        W72439  29.611  21.176  13.998
 4099W        W72440  11.626   6.190   3.764
 4100W        W72441  27.518  17.235  11.371
 4101W        W72442  20.218  42.456   3.328
 4102W        W72443  17.191  25.077  14.961
 4103W        W72444  36.447  31.554   0.298
 4104W        W72445  22.024  21.532  12.049
 4105W        W72446   1.939  40.037   1.821
 4106W        W72447  33.061  39.397  14.358
 4107W        W72448  38.380  37.422  11.935
 4108W        W72449  27.545  32.522  12.990
 4109W        W72450  25.020  20.742   3.149
 4110W        W72451  27.523  40.549   0.477
 4111W        W72452  24.055  40.354  12.069
 4112W        W72453   0.845  34.962  10.485
 4113W        W72454  29.578  40.935   2.888
 4114W        W72455  17.227  22.634  13.523
 4115W        W72456   3.914  38.879   4.204
 4116W        W72457   4.216  31.456   4.161
 4117W        W72458  30.058  20.238  14.973
 4118W        W72459  27.484  39.876   4.175
 4119W        W72460  39.366  41.523   1.826
 4120W        W72461  16.190  13.802  10.988
 4121W        W72462  44.345  20.733   2.276
 4122W        W72463  20.223   1.249  10.457
 4123W        W72464  21.623  43.927   0.777
 4124W        W72465   3.244   3.377   3.808
 4125W        W72466  41.327   7.259   1.770
 4126W        W72467   9.300  18.673   0.277
 4127W        W72468  16.261  11.154  12.004
 4128W        W72469  29.057  14.298   1.874
 4129W        W72470  19.667  37.537  13.939
 4130W        W72471  35.863   7.781   4.342
 4131W        W72472  22.544  40.471   3.190
 4132W        W72473  35.598  27.576  11.439
 4133W        W72474  12.758  19.600   3.261
 4134W        W72475  31.571  37.034  11.990
 4135W        W72476  20.107   0.838   1.773
 4136W        W72477  21.596  31.599   1.889
 4137W        W72478   9.381  17.262  11.023
 4138W        W72479  14.617  26.607   3.160
 4139W        W72480  44.841  43.359   0.304
 4140W        W72481   9.390  28.106   3.795
 4141W        W72482   7.785  30.155   4.772
 4142W        W72483  13.639  41.868  11.434
 4143W        W72484  38.004  23.231   0.816
 4144W        W72485   8.721   8.879   4.263
 4145W        W72486  28.170  28.654  14.299
 4146W        W72487   0.836  28.096  14.869
 4147W        W72488  27.449  31.608  13.848
 4148W        W72489  18.256  24.127   0.766
 4149W        W72490  38.437  34.399   0.297
 4150W        W72491  21.246  15.311  12.019
 4151W        W72492  18.632  24.092   0.395
 4152W        W72493  28.647  37.976  14.385
 4153W        W72494  34.463  36.988  10.436
 4154W        W72495   4.322   8.672  14.868
 4155W        W72496  17.632  26.545   4.312
 4156W        W72497  28.951   9.765  13.918
 4157W        W72498   7.892  28.479  12.492
 4158W        W72499  16.735   9.676  12.027
 4159W        W72500  36.515  27.611  10.638
 4160W        W72501   6.850   2.899  13.367
 4161W        W72502  27.537  42.963   3.772
 4162W        W72503  30.924  15.283   2.202
 4163W        W72504  33.897  19.765   4.602
 4164W        W72505  32.455  23.097  10.974
 4165W        W72506  41.312  12.639  11.987
 4166W        W72507  28.102  43.812  10.960
 4167W        W72508   2.238   3.916  10.930
 4168W        W72509  13.644   3.412   0.895
 4169W        W72510   5.245  20.224  13.882
 4170W        W72511  18.760  30.996   4.610
 4171W        W72512  11.703   8.729   3.184
 4172W        W72513  14.232  41.440  14.796
 4173W        W72514  14.273   1.425  10.585
 4174W        W72515  15.267  30.623   2.835
 4175W        W72516  25.611   0.455   1.358
 4176W        W72517  17.132  41.851  13.030
 4177W        W72518   2.253  41.978   3.753
 4178W        W72519  38.014  11.165   1.808
 4179W        W72520  39.412  37.905   4.833
 4180W        W72521  19.567  13.655   2.696
 4181W        W72522  29.468   1.243  14.957
 4182W        W72523  44.378  11.221  10.044
 4183W        W72524  13.771  32.046  14.877
 4184W        W72525  42.416  17.661  11.094
 4185W        W72526  33.500  28.086  13.534
 4186W        W72527   2.880  11.283  13.045
 4187W        W72528  39.019  14.184   2.332
 4188W        W72529  19.715  34.090   2.259
 4189W        W72530  38.937  11.715   0.254
 4190W        W72531  31.604  13.605   4.733
 4191W        W72532   0.331  11.803  14.382
 4192W        W72533  41.031   1.417   3.857
 4193W        W72534  26.507  12.817   0.481
 4194W        W72535   4.389  44.459  13.310
 4195W        W72536   3.333  29.436  14.314
 4196W        W72537  40.443  28.634  13.420
 4197W        W72538  22.599   0.339   4.187
 4198W        W72539  37.886  19.555  10.543
 4199W        W72540  39.519  23.549   2.396
 4200W        W72541  17.207   4.245   3.288
 4201W        W72542  13.175   5.845  14.005
 4202W        W72543  31.517  44.886   4.713
 4203W        W72544  36.400  15.770  13.474
 4204W        W72545  29.627  14.773   2.284
 4205W        W72546  18.615  35.532  14.444
 4206W        W72547  31.114  29.654  12.859
 4207W        W72548  30.491   3.263   2.720
 4208W        W72549  37.419  32.928  14.360
 4209W        W72550   4.348  38.562  14.288
 4210W        W72551  17.669  19.188   3.200
 4211W        W72552  13.209   3.394   9.938
 4212W        W72553   5.313  30.935  11.083
 4213W        W72554  29.478  33.877  13.013
 4214W        W72555  16.736  36.887  12.384
 4215W        W72556  18.783  38.511  11.372
 4216W        W72557   2.860  18.707   3.731
 4217W        W72558  31.578  14.340  13.328
 4218W        W72559  38.426  43.374   3.734
 4219W        W72560  22.143  24.564   0.748
 4220W        W72561   5.778   1.783   3.284
 4221W        W72562  25.022   0.886   2.401
 4222W        W72563  28.995  19.069  13.987
 4223W        W72564   8.369  40.827  10.495
 4224W        W72565  30.037  20.091  11.480
 4225W        W72566   1.424  39.015  10.428
 4226W        W72567  36.854   4.826   3.285
 4227W        W72568  29.591   8.296  13.007
 4228W        W72569  16.715  12.337  11.906
 4229W        W72570  14.317   4.370   2.295
 4230W        W72571  20.078   6.423  14.427
 4231W        W72572  27.497  25.149  11.881
 4232W        W72573   2.847  11.776  13.504
 4233W        W72574  32.061  31.995   2.224
 4234W        W72575   1.338  28.476  14.887
 4235W        W72576  42.472  13.342  12.085
 4236W        W72577  24.562  43.913   1.369
 4237W        W72578  36.358  39.018   3.781
 4238W        W72579  16.679   8.869   1.841
 4239W        W72580  23.026  34.434  11.482
 4240W        W72581   3.870  13.797   3.146
 4241W        W72582  39.510  16.270  11.528
 4242W        W72583  12.253  22.023   2.800
 4243W        W72584  12.285  23.074  11.503
 4244W        W72585  21.743   8.820   2.188
 4245W        W72586  34.030  16.751  11.047
 4246W        W72587  43.971  33.547  13.413
 4247W        W72588  24.182   0.892  14.335
 4248W        W72589   3.904   7.731   2.282
 4249W        W72590  40.010  42.527   4.687
 4250W        W72591  24.662  16.271   1.323
 4251W        W72592  12.809  10.237   4.317
 4252W        W72593  14.760   2.450   2.737
 4253W        W72594   2.341  23.546  13.047
 4254W        W72595  27.532  13.132   0.771
 4255W        W72596  30.472  17.072   1.314
 4256W        W72597  13.244   4.867  13.854
 4257W        W72598  42.495  16.074  12.841
 4258W        W72599  39.526  21.624   4.143
 4259W        W72600   5.852  17.621  11.093
 4260W        W72601  13.199  11.281   4.716
 4261W        W72602  16.720  21.207  13.313
 4262W        W72603  31.632  13.153  11.478
 4263W        W72604  18.198   2.452  13.539
 4264W        W72605  28.503  10.202   0.423
 4265W        W72606  18.647  18.135   0.366
 4266W        W72607  22.239  23.016  14.013
 4267W        W72608  40.307  31.093  12.446
 4268W        W72609  25.071   0.408  10.959
 4269W        W72610  44.502   2.813  10.897
 4270W        W72611  31.091  26.034  11.485
 4271W        W72612  43.970   0.845   3.353
 4272W        W72613  12.823   0.775  12.029
 4273W        W72614  39.060   2.756   2.820
 4274W        W72615  15.637   2.231   2.665
 4275W        W72616  18.160  18.162   3.719
 4276W        W72617  18.141  29.154  10.620
 4277W        W72618  20.603  25.189   1.709
 4278W        W72619  34.969   2.412   3.758
 4279W        W72620  33.408  33.059   2.796
 4280W        W72621   2.445  16.802  13.520
 4281W        W72622   6.379  13.272  14.864
 4282W        W72623   5.716  30.143   0.866
 4283W        W72624  12.765   3.348   0.303
 4284W        W72625  21.567  41.433  12.341
 4285W        W72626   9.719  17.691  12.845
 4286W        W72627  27.692  13.764  10.483
 4287W        W72628  18.286  29.620  12.347
 4288W        W72629   3.243  37.838  12.942
 4289W        W72630  30.466   8.358  10.522
 4290W        W72631  43.969  38.455  14.475
 4291W        W72632  26.119  26.088  10.134
 4292W        W72633  17.140   2.871  13.797
 4293W        W72634  14.322  42.322  12.970
 4294W        W72635  25.525  10.176  11.505
 4295W        W72636  24.121  36.378  14.874
 4296W        W72637   1.417  41.416  11.610
 4297W        W72638  40.437  28.960   5.095
 4298W        W72639  42.778  25.538   2.893
 4299W        W72640  20.047   1.885  13.804
 4300W        W72641   3.949  25.151   4.172
 4301W        W72642   5.860   8.203  14.996
 4302W        W72643  23.087  37.521  11.495
 4303W        W72644  44.785   0.762   2.343
 4304W        W72645  21.626  36.082   1.251
 4305W        W72646  33.938   9.710  14.384
 4306W        W72647  25.554  31.918   1.286
 4307W        W72648  12.359  39.951  14.820
 4308W        W72649  31.084  43.410   3.344
 4309W        W72650   7.200   5.789  12.042
 4310W        W72651   1.378  15.613  13.044
 4311W        W72652  28.583  23.172  10.455
 4312W        W72653  35.571  20.689  13.528
 4313W        W72654  23.058  42.014   2.731
 4314W        W72655   5.329  21.082   2.269
 4315W        W72656  11.286  41.377   0.936
 4316W        W72657   8.744   3.347   2.895
 4317W        W72658  19.767  19.741   3.645
 4318W        W72659  14.313  13.270  10.517
 4319W        W72660  41.799  43.439   1.778
 4320W        W72661  12.843  34.532   4.707
 4321W        W72662  41.444  22.160   4.218
 4322W        W72663  18.120  44.945   0.409
 4323W        W72664  16.200   1.922  10.597
 4324W        W72665  25.653  18.629   4.234
 4325W        W72666  21.649  10.263  13.794
 4326W        W72667   9.715  43.338   2.279
 4327W        W72668  10.862  40.308  10.913
 4328W        W72669  33.049  26.590   4.165
 4329W        W72670  12.180  32.040   3.182
 4330W        W72671   0.742   1.409   4.720
 4331W        W72672   3.227   7.260  12.077
 4332W        W72673  44.296   7.205   3.709
 4333W        W72674  40.919  30.106   0.737
 4334W        W72675  33.386  15.792   5.260
 4335W        W72676  18.693  11.335  13.340
 4336W        W72677   1.854  33.568  13.956
 4337W        W72678  40.054  12.351   1.878
 4338W        W72679  14.125   6.872   0.746
 4339W        W72680  17.630  23.634  12.971
 4340W        W72681  23.589  15.754  10.566
 4341W        W72682   1.411  40.334   2.879
 4342W        W72683  13.207  27.036   3.371
 4343W        W72684  12.627  39.449  13.833
 4344W        W72685  15.251  39.450  10.995
 4345W        W72686  21.699  40.495   2.778
 4346W        W72687  12.170  14.336  11.462
 4347W        W72688  25.186  37.017   3.642
 4348W        W72689  36.505  24.596  10.577
 4349W        W72690   6.317  29.953   4.729
 4350W        W72691   0.436  36.589  12.843
 4351W        W72692   8.700  37.076   4.821
 4352W        W72693  41.996  24.612   2.663
 4353W        W72694  10.322   3.952  12.067
 4354W        W72695  28.989  29.570  13.815
 4355W        W72696  18.548   6.255  13.940
 4356W        W72697  22.719  30.571   2.798
 4357W        W72698  23.029  37.044   2.345
 4358W        W72699  33.574  27.050   2.831
 4359W        W72700  21.539  38.335  12.527
 4360W        W72701   0.400  38.943   3.228
 4361W        W72702  14.747  44.990   3.374
 4362W        W72703  21.186  41.024   0.936
 4363W        W72704  39.881   1.254  13.847
 4364W        W72705  11.206  27.026   1.695
 4365W        W72706  25.002  27.001  14.874
 4366W        W72707  40.312  10.144   3.268
 4367W        W72708  26.103   6.900   2.798
 4368W        W72709  13.693   6.863  12.041
 4369W        W72710  16.104  43.484   0.387
 4370W        W72711  17.284  40.406   4.294
 4371W        W72712  13.192  21.087   5.290
 4372W        W72713  19.197   9.762  14.483
 4373W        W72714  43.283  27.961  10.029
 4374W        W72715   5.740   0.469  13.409
 4375W        W72716  23.649   0.427  11.502
 4376W        W72717  10.785   7.753   3.738
 4377W        W72718  35.106   5.736  14.819
 4378W        W72719   8.318  25.059  14.935
 4379W        W72720  29.493  28.665  12.095
 4380W        W72721  39.426  30.484  11.487
 4381W        W72722  39.381  12.268   0.276
 4382W        W72723   5.712   8.849  13.874
 4383W        W72724  37.905   2.965  14.004
 4384W        W72725  24.088   4.436  11.910
 4385W        W72726  20.041   6.347  13.053
 4386W        W72727  14.655   7.880   1.389
 4387W        W72728  37.491  30.577   4.135
 4388W        W72729  35.476  42.442  10.592
 4389W        W72730  43.403   2.859   4.346
 4390W        W72731  25.073  36.448   4.634
 4391W        W72732  40.333  39.335  12.506
 4392W        W72733  42.334  32.536  12.040
 4393W        W72734  39.037   9.708   0.880
 4394W        W72735  16.801   9.258  11.571
 4395W        W72736  34.575  38.937   3.651
 4396W        W72737   5.266  16.135  13.359
 4397W        W72738  28.470  11.271  13.813
 4398W        W72739  40.415  23.087   1.852
 4399W        W72740  28.032   7.236   2.809
 4400W        W72741   3.280  13.752  10.440
 4401W        W72742  41.834   2.373   1.236
 4402W        W72743  18.270   9.389  11.997
 4403W        W72744  30.010  29.661   4.685
 4404W        W72745  29.573  18.181  14.456
 4405W        W72746  22.580  32.892   0.375
 4406W        W72747  21.262  26.062  14.285
 4407W        W72748  18.147  41.329  14.897
 4408W        W72749   7.226   6.711  13.917
 4409W        W72750   6.869  39.367  13.439
 4410W        W72751   8.194  13.838  14.422
 4411W        W72752  37.011  24.615  14.785
 4412W        W72753   4.214  38.370   2.392
 4413W        W72754  27.031  40.328  12.876
 4414W        W72755   7.227  41.818  11.873
 4415W        W72756  12.360  29.626  12.844
 4416W        W72757   0.896  20.165  12.936
 4417W        W72758  16.122  14.734  13.489
 4418W        W72759  41.402  20.700   2.791
 4419W        W72760  10.790  38.000  14.820
 4420W        W72761  20.141  27.971  13.039
 4421W        W72762  32.459  30.648  13.988
 4422W        W72763  29.667  18.052   0.347
 4423W        W72764  15.254  31.901   3.238
 4424W        W72765  39.963  44.471   4.118
 4425W        W72766   1.806  43.829  13.527
 4426W        W72767  39.929  42.932  13.528
 4427W        W72768  38.341  13.776  13.913
 4428W        W72769  27.063  15.804   4.737
 4429W        W72770  41.827  37.573  11.469
 4430W        W72771  32.071  10.638   1.904
 4431W        W72772  15.097  17.756   1.258
 4432W        W72773  18.789   5.793  12.046
 4433W        W72774  20.551  26.619   2.744
 4434W        W72775  30.539  42.462  11.463
 4435W        W72776  41.306  36.574  12.903
 4436W        W72777  21.643  39.007  10.021
 4437W        W72778  20.257  29.985   2.784
 4438W        W72779  17.652   8.718   2.841
 4439W        W72780  29.440  12.183  14.864
 4440W        W72781  18.582  24.035   5.289
 4441W        W72782  41.306  23.223   4.310
 4442W        W72783  44.450   3.896   2.301
 4443W        W72784  18.706  19.071   2.766
 4444W        W72785  41.969  31.139   4.733
 4445W        W72786  31.902  30.057  14.414
 4446W        W72787  42.405  11.756   3.629
 4447W        W72788  25.507  19.274  11.558
 4448W        W72789  12.280  13.119   1.769
 4449W        W72790  25.583  22.194  13.521
 4450W        W72791  18.754  10.323   3.739
 4451W        W72792  35.981   6.841   0.246
 4452W        W72793  23.048  36.009   4.227
 4453W        W72794   1.290  25.073   0.251
 4454W        W72795  27.573   0.255   2.810
 4455W        W72796  28.973  27.983   0.322
 4456W        W72797  24.111   2.778   1.785
 4457W        W72798  11.233   6.336  12.404
 4458W        W72799  27.549  25.151  11.446
 4459W        W72800  19.755   5.835  14.411
 4460W        W72801  23.090  16.078   4.693
 4461W        W72802  29.922  16.768  13.910
 4462W        W72803   1.407   6.887   2.261
 4463W        W72804  18.652  15.279  11.044
 4464W        W72805  34.422  25.546  14.492
 4465W        W72806   6.678  20.175  13.407
 4466W        W72807   9.705  34.415  11.516
 4467W        W72808   8.657  31.055  14.819
 4468W        W72809   5.815  11.626   4.707
 4469W        W72810  14.707   6.422  11.102
 4470W        W72811  44.919  12.345   2.794
 4471W        W72812  14.121  42.329  14.417
 4472W        W72813  38.072   6.706   3.334
 4473W        W72814  12.635  22.506  13.408
 4474W        W72815  15.732  40.832  14.358
 4475W        W72816  13.750   6.751   0.846
 4476W        W72817  38.471  41.297   5.206
 4477W        W72818  34.879  26.560  13.389
 4478W        W72819  31.526  38.468   2.387
 4479W        W72820  26.197  10.761   2.377
 4480W        W72821  37.450  15.097   3.829
 4481W        W72822  32.536  35.478  11.082
 4482W        W72823   0.877  14.634   2.876
 4483W        W72824  24.644  33.080  12.909
 4484W        W72825  35.391  36.955  12.511
 4485W        W72826  28.174  15.622  11.979
 4486W        W72827  19.123  28.535  10.891
 4487W        W72828  38.392   3.343  13.351
 4488W        W72829   0.318  31.477  13.492
 4489W        W72830  24.045  28.488   2.251
 4490W        W72831  10.325  32.483   1.866
 4491W        W72832  37.983  44.788   1.300
 4492W        W72833  44.451  26.163   2.222
 4493W        W72834  24.716  34.599   0.412
 4494W        W72835  23.241  38.358   3.633
 4495W        W72836  24.626  15.751   5.257
 4496W        W72837   8.736  15.212   9.994
 4497W        W72838  15.702  27.659  14.918
 4498W        W72839  24.064  13.618   1.221
 4499W        W72840  27.591   9.855   2.328
 4500W        W72841   1.280  18.273  11.392
 4501W        W72842  41.325   7.878   2.394
 4502W        W72843  42.913  32.585  11.453
 4503W        W72844  36.881  44.003  10.495
 4504W        W72845  28.599  15.653   0.272
 4505W        W72846  14.155  20.192   1.703
 4506W        W72847  16.284  35.959  11.080
 4507W        W72848  24.557  13.645   2.383
 4508W        W72849  33.592  16.211  14.322
 4509W        W72850  43.765  39.461   2.272
 4510W        W72851   7.749  15.775   3.183
 4511W        W72852  31.944   4.375  12.849
 4512W        W72853  35.883  39.956  10.409
 4513W        W72854  31.979  35.054  10.642
 4514W        W72855   8.861  19.042   0.780
 4515W        W72856  38.470  11.623  12.899
 4516W        W72857  43.462  41.369   0.419
 4517W        W72858  31.100  15.122  14.865
 4518W        W72859   0.367  40.458  11.515
 4519W        W72860  34.886  31.052   2.760
 4520W        W72861  25.029  24.222  12.887
 4521W        W72862   7.740  28.078   1.419
 4522W        W72863  34.967   9.203   1.845
 4523W        W72864  44.903  22.675   4.635
 4524W        W72865  34.555  38.890  13.423
 4525W        W72866  28.681   4.434  13.318
 4526W        W72867   4.816   2.931   3.710
 4527W        W72868   5.691  18.260  14.345
 4528W        W72869  41.356  28.179  10.915
 4529W        W72870  28.967   8.850  13.445
 4530W        W72871  38.825  15.238  13.946
 4531W        W72872  18.257  18.618   2.299
 4532W        W72873  30.538   0.277   0.785
 4533W        W72874  43.454  35.016  11.486
 4534W        W72875  32.436  43.987   1.915
 4535W        W72876  32.509   0.826   0.905
 4536W        W72877  22.209  34.551  12.472
 4537W        W72878  14.808  40.869  14.969
 4538W        W72879  36.941  40.452  11.955
 4539W        W72880  20.270  18.584   1.430
 4540W        W72881  17.640  28.460   4.162
 4541W        W72882  32.450  33.972   3.787
 4542W        W72883  39.322  32.071   2.805
 4543W        W72884  35.599   8.752  10.931
 4544W        W72885  40.509  18.169   1.909
 4545W        W72886  30.958  19.667   2.376
 4546W        W72887  15.698  44.893   0.374
 4547W        W72888   6.919  13.669  12.530
 4548W        W72889  30.081  42.485   3.258
 4549W        W72890  34.542  19.664  14.452
 4550W        W72891  35.960  34.503  13.323
 4551W        W72892  17.701  18.093   4.341
 4552W        W72893  19.738  18.687   2.410
 4553W        W72894  34.876  14.099   0.796
 4554W        W72895  39.412  30.942  10.555
 4555W        W72896  12.218  40.440   2.694
 4556W        W72897  20.229  14.321  10.620
 4557W        W72898  32.495  12.803  11.862
 4558W        W72899  30.626  16.761   4.178
 4559W        W72900  31.498  27.624   3.680
 4560W        W72901  11.243  10.837   1.818
 4561W        W72902  35.581  29.481   3.675
 4562W        W72903  14.257   2.455   2.864
 4563W        W72904   7.345  42.971   1.395
 4564W        W72905  24.080  23.987  12.964
 4565W        W72906  39.898  32.558   0.440
 4566W        W72907  20.075  29.967  11.385
 4567W        W72908   7.176  37.074  11.008
 4568W        W72909  20.085  25.023   1.801
 4569W        W72910  22.720  40.872   3.212
 4570W        W72911   5.430   2.829   2.323
 4571W        W72912   8.225  22.236   0.417
 4572W        W72913  28.538  44.935  13.891
 4573W        W72914  17.215  14.246  12.907
 4574W        W72915  14.631  17.084   2.689
 4575W        W72916   0.439  38.970   4.231
 4576W        W72917  44.367  23.035   4.326
 4577W        W72918  42.948  30.621  11.531
 4578W        W72919   8.709  28.938   2.737
 4579W        W72920   9.164  36.848  10.563
 4580W        W72921  12.733  21.106   0.942
 4581W        W72922  35.086  11.172  11.531
 4582W        W72923  41.935  30.953  13.385
 4583W        W72924  43.801  14.702  12.555
 4584W        W72925   8.334  42.322  10.560
 4585W        W72926  19.121  33.031  12.483
 4586W        W72927  10.801  15.104   4.811
 4587W        W72928  15.271  24.151   4.324
 4588W        W72929  37.014  24.201  13.446
 4589W        W72930   9.703   3.900  13.840
 4590W        W72931  34.521  20.233  14.514
 4591W        W72932  16.120  24.077   2.386
 4592W        W72933  14.776  25.078  11.404
 4593W        W72934   1.906   4.856  13.038
 4594W        W72935  11.194  40.946  11.611
 4595W        W72936  39.023   4.826   1.719
 4596W        W72937  38.004  34.014   0.257
 4597W        W72938  29.647  29.522   3.785
 4598W        W72939  11.200  40.012  10.086
 4599W        W72940  38.428  17.100   4.627
 4600W        W72941   1.883  15.672  12.999
 4601W        W72942   6.896   3.867   1.721
 4602W        W72943  11.786  38.447   2.730
 4603W        W72944  13.771   7.819  11.051
 4604W        W72945   3.454  25.485  11.034
 4605W        W72946  34.593  37.475   1.217
 4606W        W72947   2.863  42.407  14.998
 4607W        W72948  37.572  40.020  13.539
 4608W        W72949  37.537  23.162   3.234
 4609W        W72950  36.409  35.082   2.876
 4610W        W72951  17.759   4.280  11.592
 4611W        W72952  35.462  31.096  11.525
 4612W        W72953  17.164  38.965   3.776
 4613W        W72954   5.235  34.898   1.289
 4614W        W72955   3.310  35.473   0.772
 4615W        W72956  23.525  43.301   4.248
 4616W        W72957  43.941  35.874   0.314
 4617W        W72958  22.608  33.547  11.444
 4618W        W72959   8.397  43.803  11.394
 4619W        W72960  37.972   5.437   0.882
 4620W        W72961  25.606  41.809   1.434
 4621W        W72962  13.656   5.832  11.060
 4622W        W72963  19.151  15.319  13.485
 4623W        W72964   8.762  22.128   1.431
 4624W        W72965  44.961  41.498  12.340
 4625W        W72966  16.108  21.702   3.696
 4626W        W72967  25.540  10.284   1.754
 4627W        W72968  26.063   5.755   3.779
 4628W        W72969  14.145  10.678  14.948
 4629W        W72970  22.074  21.138  10.438
 4630W        W72971  34.546  26.648  10.906
 4631W        W72972   6.713  22.018   1.217
 4632W        W72973   0.290   5.689  12.049
 4633W        W72974   9.271  19.136  11.997
 4634W        W72975  34.586  40.861   0.337
 4635W        W72976  42.522   1.871  13.350
 4636W        W72977  39.382  26.678  13.507
 4637W        W72978  15.734  28.520   1.347
 4638W        W72979   5.417   2.282  10.592
 4639W        W72980  11.253   9.808   5.768
 4640W        W72981  14.181  33.596   2.744
 4641W        W72982  29.596  16.665  11.388
 4642W        W72983   3.284  16.679  13.491
 4643W        W72984  15.777  30.963  11.497
 4644W        W72985  40.548  16.738   0.391
 4645W        W72986  14.333  14.098  13.370
 4646W        W72987   7.380   3.814   1.316
 4647W        W72988  21.680  14.197  10.904
 4648W        W72989  17.605  26.166   3.276
 4649W        W72990  42.829  18.648  11.015
 4650W        W72991  23.097  20.540   4.281
 4651W        W72992  22.674  29.541  10.087
 4652W        W72993  18.156   9.861  10.992
 4653W        W72994  43.895  21.748   0.965
 4654W        W72995  32.526  29.097  13.912
 4655W        W72996  19.554  36.395   0.862
 4656W        W72997  41.440  18.691   3.287
 4657W        W72998  27.054  41.441   1.749
 4658W        W72999  42.435  35.024  12.429
 4659W        W73000  42.803  35.098   0.934
 4660W        W73001  41.470  34.965  12.830
 4661W        W73002  27.035  26.703   2.299
 4662W        W73003  17.800  44.960   1.865
 4663W        W73004  29.651  26.020   4.238
 4664W        W73005  42.525   6.267  14.770
 4665W        W73006  40.339  33.600  12.464
 4666W        W73007  26.668  20.107  14.758
 4667W        W73008  38.464   0.801   1.442
 4668W        W73009   1.253  35.540  11.122
 4669W        W73010  22.703  26.118  14.928
 4670W        W73011  17.657  36.539   3.863
 4671W        W73012   5.219  37.467   1.393
 4672W        W73013  36.464  12.264  11.480
 4673W        W73014   0.874  24.978  10.481
 4674W        W73015  21.189   1.322  10.970
 4675W        W73016  22.191  23.661   0.911
 4676W        W73017  40.508  41.405  12.888
 4677W        W73018  40.332  43.954   1.404
 4678W        W73019   3.901   5.827   0.877
 4679W        W73020   2.804  16.171  12.033
 4680W        W73021  43.845   9.243   2.364
 4681W        W73022  41.860  34.393   1.247
 4682W        W73023   6.231  24.083  11.083
 4683W        W73024  11.258  30.442  14.935
 4684W        W73025  39.367   1.891   4.696
 4685W        W73026  34.944  23.671  11.538
 4686W        W73027  40.477  42.791   5.738
 4687W        W73028  28.612  11.745   4.820
 4688W        W73029  28.576  26.078  11.867
 4689W        W73030  28.480  19.146  12.968
 4690W        W73031  33.931  13.296   1.235
 4691W        W73032  24.191  25.156  12.046
 4692W        W73033  40.907  35.362  10.502
 4693W        W73034  30.529  27.156  14.358
 4694W        W73035  14.813  18.180  14.781
 4695W        W73036   8.782  12.774  10.481
 4696W        W73037  43.876   7.333  12.940
 4697W        W73038  35.932  24.557  13.942
 4698W        W73039  43.493   0.893  13.007
 4699W        W73040   0.760  15.327   2.876
 4700W        W73041   7.851  26.595  12.897
 4701W        W73042  44.449   9.155   0.884
 4702W        W73043  39.473   3.277   3.247
 4703W        W73044  39.820  40.368   9.989
 4704W        W73045  13.153  38.424   2.888
 4705W        W73046  12.683  18.185   4.278
 4706W        W73047   1.374  41.960  14.834
 4707W        W73048  28.167  15.707   3.282
 4708W        W73049  42.869   5.423   4.817
 4709W        W73050  44.861  25.075   4.652
 4710W        W73051  41.832   0.255   1.355
 4711W        W73052  17.616  38.467   4.758
 4712W        W73053  22.632  38.347   4.173
 4713W        W73054  23.035   2.325  11.878
 4714W        W73055  41.445  43.886  14.027
 4715W        W73056  32.512   2.462  14.829
 4716W        W73057   9.291  12.277   4.344
 4717W        W73058  42.335  10.848   4.313
 4718W        W73059  12.665  35.857  11.977
 4719W        W73060  21.556  32.488  14.303
 4720W        W73061  38.538  40.821   0.954
 4721W        W73062  16.201  35.877   3.708
 4722W        W73063  35.011  44.416  14.399
 4723W        W73064  16.669  32.912  11.495
 4724W        W73065  42.499  28.434   2.367
 4725W        W73066  24.550   3.253   4.808
 4726W        W73067  24.498  31.513  13.997
 4727W        W73068  11.314   3.455  13.839
 4728W        W73069  34.889  24.096  13.983
 4729W        W73070   5.335  36.878  11.097
 4730W        W73071   4.350  31.068   0.824
 4731W        W73072   5.260   9.384  11.019
 4732W        W73073  44.423  28.104  12.351
 4733W        W73074   6.222  43.982  10.938
 4734W        W73075  24.100  14.154  10.106
 4735W        W73076  23.508   0.905  13.497
 4736W        W73077  25.967  42.360   3.236
 4737W        W73078  27.509  26.487  10.514
 4738W        W73079   1.347  14.200  12.046
 4739W        W73080  22.101  43.485   4.317
 4740W        W73081  27.581  35.380   4.155
 4741W        W73082  31.502  18.756   2.827
 4742W        W73083  34.472  12.744  12.550
 4743W        W73084   1.395   8.398  11.374
 4744W        W73085  15.105  32.462   9.525
 4745W        W73086  27.445  41.352  13.463
 4746W        W73087   8.390   5.202  13.344
 4747W        W73088  35.418  22.092  12.428
 4748W        W73089  29.503  19.215   4.624
 4749W        W73090  15.806  37.453  11.377
 4750W        W73091  42.491  40.930   2.221
 4751W        W73092  33.451   9.225   0.329
 4752W        W73093  34.471  11.366  11.866
 4753W        W73094  36.571  32.410  14.514
 4754W        W73095  35.976  40.387  11.461
 4755W        W73096  42.330  10.825  14.286
 4756W        W73097  29.154   3.822   0.956
 4757W        W73098  16.640   7.353   1.742
 4758W        W73099  34.530  31.046   0.258
 4759W        W73100  41.360  39.446  14.797
 4760W        W73101  43.839  18.269  11.569
 4761W        W73102  15.729  21.702   0.942
 4762W        W73103   7.240   3.317   2.392
 4763W        W73104  38.521  41.011  13.026
 4764W        W73105  20.613  29.129  12.929
 4765W        W73106  27.544  13.344   1.371
 4766W        W73107  27.515   6.887  10.931
 4767W        W73108  28.090  16.784  13.887
 4768W        W73109  14.829  28.113  13.537
 4769W        W73110  21.251  41.819  13.816
 4770W        W73111   9.726  37.030  14.360
 4771W        W73112  12.258  12.812  13.390
 4772W        W73113  15.204  34.437   5.104
 4773W        W73114  21.019  23.137   3.222
 4774W        W73115  42.468  25.565  14.490
 4775W        W73116  37.950  10.814  13.945
 4776W        W73117   2.809   7.364  10.604
 4777W        W73118  27.148  33.952   0.785
 4778W        W73119  32.465  30.446  11.117
 4779W        W73120   0.269  12.793   1.765
 4780W        W73121  44.950   6.228   2.792
 4781W        W73122  37.386  12.762   1.363
 4782W        W73123   7.792   5.687  11.957
 4783W        W73124   6.790  43.917   1.329
 4784W        W73125  19.695   5.714   2.693
 4785W        W73126  24.012  26.986   2.333
 4786W        W73127  33.997  14.242   3.247
 4787W        W73128  33.011  15.100   4.153
 4788W        W73129  31.054   5.845  10.968
 4789W        W73130  24.498   1.939   2.808
 4790W        W73131  42.429  34.591  11.022
 4791W        W73132  23.058  11.699   0.358
 4792W        W73133  25.531  10.785  11.604
 4793W        W73134   0.319  11.623   2.853
 4794W        W73135  11.263   3.306  13.390
 4795W        W73136  26.473  43.332   2.869
 4796W        W73137  44.311  29.623   4.290
 4797W        W73138  28.940  16.107   1.263
 4798W        W73139  10.235  30.513  14.958
 4799W        W73140  19.269  31.946   1.743
 4800W        W73141   0.420  27.503   0.286
 4801W        W73142  26.685  33.943   1.886
 4802W        W73143   4.733  13.712   0.872
 4803W        W73144  26.165  44.757   3.665
 4804W        W73145   9.746  17.176  11.374
 4805W        W73146  39.027   0.875   2.746
 4806W        W73147  22.221  22.719  10.978
 4807W        W73148  24.163  24.480   4.214
 4808W        W73149  34.005  31.582  13.529
 4809W        W73150  39.522  10.785  14.801
 4810W        W73151   4.763  39.974   4.613
 4811W        W73152  27.622  32.061   2.849
 4812W        W73153  26.957   6.681   0.418
 4813W        W73154   6.228  14.314  14.834
 4814W        W73155  21.033  43.356  12.517
 4815W        W73156  17.590   5.388   2.301
 4816W        W73157  21.171  12.750   2.245
 4817W        W73158  41.360  12.769  11.390
 4818W        W73159  18.188  26.526   2.857
 4819W        W73160  13.834  27.957  13.872
 4820W        W73161   1.957   6.225   1.814
 4821W        W73162  27.611  23.984   0.955
 4822W        W73163  25.710  23.620   1.874
 4823W        W73164  14.702  14.166  11.607
 4824W        W73165  31.125  29.974   4.165
 4825W        W73166  16.569   7.270  14.865
 4826W        W73167  38.043  38.881  11.561
 4827W        W73168   8.785  39.002  14.904
 4828W        W73169  13.123  15.189  14.030
 4829W        W73170   3.851  13.710  11.600
 4830W        W73171   9.844  34.533  14.027
 4831W        W73172  17.790  14.635   3.730
 4832W        W73173  42.450  19.774  11.964
 4833W        W73174  31.120   7.267   4.172
 4834W        W73175  12.760  15.233  11.891
 4835W        W73176  12.803  20.595  11.374
 4836W        W73177  36.525  40.844  12.457
 4837W        W73178   4.824   0.849   3.279
 4838W        W73179  29.126  27.601   1.830
 4839W        W73180  40.394   7.263   1.270
 4840W        W73181   7.324  19.275  14.944
 4841W        W73182  10.379  29.136   0.754
 4842W        W73183  18.781  33.042  11.897
 4843W        W73184  27.176  27.991   4.206
 4844W        W73185   1.378  40.523  12.017
 4845W        W73186  39.894  16.674  12.375
 4846W        W73187  35.946  13.256   2.178
 4847W        W73188  13.696  28.941  10.510
 4848W        W73189  21.538  34.612  13.324
 4849W        W73190  15.110   2.764  13.509
 4850W        W73191  10.685  12.299   9.644
 4851W        W73192  21.672   8.216   2.301
 4852W        W73193   8.246  31.434  10.998
 4853W        W73194  15.772   7.285  12.085
 4854W        W73195  22.529   5.406   4.232
 4855W        W73196   4.440  38.969  14.020
 4856W        W73197  23.700   6.713   1.731
 4857W        W73198  38.837  38.014  14.277
 4858W        W73199   2.942  26.155   1.346
 4859W        W73200  24.156   9.237   2.726
 4860W        W73201   1.387  17.091  11.374
 4861W        W73202   1.955  30.999   3.300
 4862W        W73203  38.960  31.406  13.385
 4863W        W73204  30.505  11.159   1.853
 4864W        W73205  38.872  23.213  14.887
 4865W        W73206   2.278  31.606   2.182
 4866W        W73207  16.157  23.658   4.316
 4867W        W73208   8.778  44.416  10.543
 4868W        W73209   5.743  40.487  12.452
 4869W        W73210  38.385   6.799  13.925
 4870W        W73211  22.182   4.711   3.301
 4871W        W73212   1.859  29.460  10.425
 4872W        W73213  37.003  23.696   4.794
 4873W        W73214  26.154  32.429  14.515
 4874W        W73215  18.252  26.691   4.817
 4875W        W73216  10.735   3.859  10.421
 4876W        W73217  17.664  12.637  11.438
 4877W        W73218  31.516  12.787   1.820
 4878W        W73219  23.651  15.244  12.035
 4879W        W73220  22.593  32.910   9.944
 4880W        W73221  22.996  24.604  12.550
 4881W        W73222  35.904   5.847  14.288
 4882W        W73223  22.686  22.733   0.440
 4883W        W73224   6.308  35.896   1.228
 4884W        W73225  19.269  32.067  11.438
 4885W        W73226  17.131  29.466  11.548
 4886W        W73227  17.103  34.466  14.846
 4887W        W73228  37.523   1.333  12.427
 4888W        W73229  24.029  29.644  12.348
 4889W        W73230  34.040  16.700  13.005
 4890W        W73231  43.401  28.496  14.987
 4891W        W73232  14.124  37.903  13.514
 4892W        W73233  11.226  17.595  11.393
 4893W        W73234   9.298  10.207  10.531
 4894W        W73235  31.629  23.084  11.589
 4895W        W73236  20.722  31.440   1.446
 4896W        W73237  39.552  20.763  10.548
 4897W        W73238  38.850  24.179  12.006
 4898W        W73239   3.341  13.117   0.282
 4899W        W73240   8.674  33.552   2.314
 4900W        W73241   6.291   7.667  11.919
 4901W        W73242  33.874  36.842   2.216
 4902W        W73243  21.228  23.545  11.586
 4903W        W73244  43.414   9.269   2.900
 4904W        W73245  16.787  25.094   0.965
 4905W        W73246  29.451   2.422   2.214
 4906W        W73247   2.750   9.817  11.932
 4907W        W73248  26.102  14.164   1.836
 4908W        W73249  16.566  18.254   3.766
 4909W        W73250   5.290  15.762   3.354
 4910W        W73251  29.075  17.771   4.664
 4911W        W73252  42.955  26.147  11.577
 4912W        W73253  34.540  15.714  10.446
 4913W        W73254  11.169   6.262  10.490
 4914W        W73255  23.696   9.800  13.805
 4915W        W73256   1.328  20.624  14.292
 4916W        W73257   2.872  41.502  14.446
 4917W        W73258  22.746  12.330   3.859
 4918W        W73259  41.854  39.826  13.488
 4919W        W73260  25.972   3.828   3.304
 4920W        W73261   4.792  15.734  10.410
 4921W        W73262   3.841  33.490  14.896
 4922W        W73263  23.121  30.082   4.604
 4923W        W73264  18.188  14.131  11.611
 4924W        W73265  21.549  23.996  10.466
 4925W        W73266  37.467  35.498   4.189
 4926W        W73267  40.904  43.956  13.938
 4927W        W73268  29.549   0.364  11.105
 4928W        W73269  18.661  35.447   4.695
 4929W        W73270  11.365  36.484  12.568
 4930W        W73271  40.049  21.551   2.239
 4931W        W73272  32.467  25.009  12.942
 4932W        W73273  28.667  29.057   0.279
 4933W        W73274   4.277  10.864  11.027
 4934W        W73275  27.486  12.825  13.037
 4935W        W73276  38.528   9.666  14.384
 4936W        W73277  29.501  36.874  11.378
 4937W        W73278  30.503  29.096  14.905
 4938W        W73279  28.672  38.501   1.734
 4939W        W73280  22.252  27.046   0.364
 4940W        W73281  13.229  44.868   3.337
 4941W        W73282  30.928  18.791   3.720
 4942W        W73283   2.453  15.235  11.560
 4943W        W73284  37.904  35.565  12.930
 4944W        W73285  29.636  18.561  11.912
 4945W        W73286  21.031  15.739  10.621
 4946W        W73287  14.293  25.533  13.840
 4947W        W73288  31.573  42.918   1.365
 4948W        W73289  20.646   9.700  14.854
 4949W        W73290  13.322  26.161  13.995
 4950W        W73291  12.633  28.062  10.918
 4951W        W73292  36.088  19.085  14.502
 4952W        W73293  38.961  41.468   0.780
 4953W        W73294  25.174  40.381   5.304
 4954W        W73295  11.801   6.740   3.154
 4955W        W73296  30.601  32.578   1.378
 4956W        W73297   1.777   2.419   0.423
 4957W        W73298  13.733   6.322  12.849
 4958W        W73299  42.933  44.485  14.276
 4959W        W73300  40.403  29.099  12.422
 4960W        W73301  25.701   0.865   0.777
 4961W        W73302  12.348  23.697  11.415
 4962W        W73303  24.640   4.853   2.398
 4963W        W73304   4.736  35.384   3.780
 4964W        W73305   9.784  10.820  12.832
 4965W        W73306  26.651  33.996   2.782
 4966W        W73307   6.882  38.972   0.730
 4967W        W73308  12.745  33.949   2.667
 4968W        W73309  11.764  21.661  11.967
 4969W        W73310   7.787   3.937   3.777
 4970W        W73311  37.465   2.918   4.294
 4971W        W73312   9.739   0.799  14.461
 4972W        W73313  30.458  34.909  14.818
 4973W        W73314  21.074  29.555  10.596
 4974W        W73315  29.504  17.725  13.479
 4975W        W73316  10.206  31.457  14.285
 4976W        W73317  31.575  31.607  13.058
 4977W        W73318   3.236  21.027  12.381
 4978W        W73319  29.060  22.040  13.352
 4979W        W73320  17.073   7.258  10.894
 4980W        W73321  44.267  38.976   5.141
 4981W        W73322  19.163  29.434   1.775
 4982W        W73323  22.540  23.099  12.087
 4983W        W73324  28.000  13.115   1.810
 4984W        W73325  31.138  18.654  10.421
 4985W        W73326   3.917  23.503   3.207
 4986W        W73327  39.448  12.714  13.400
 4987W        W73328   4.848  32.548  12.092
 4988W        W73329  17.617  21.610   3.726
 4989W        W73330  19.538  17.623  11.058
 4990W        W73331   4.347  22.627   0.261
 4991W        W73332  19.576  16.136   1.713
 4992W        W73333  41.331  41.425  14.891
 4993W        W73334  12.808  41.976  10.609
 4994W        W73335  18.789  34.462   1.239
 4995W        W73336  31.094  39.373  14.314
 4996W        W73337  34.430  13.339  13.911
 4997W        W73338  15.660  10.342  10.991
 4998W        W73339  41.431  23.118   0.325
 4999W        W73340  35.910  17.620   2.261
 5000W        W73341   9.244   4.855  12.896
 5001W        W73342  33.914  41.018  13.900
 5002W        W73343  39.944   8.772  11.394
 5003W        W73344  10.164   9.186   2.693
 5004W        W73345   6.323  38.366  14.508
 5005W        W73346   6.880  15.715   1.778
 5006W        W73347   7.838  39.418  10.992
 5007W        W73348  41.037  23.537  10.531
 5008W        W73349  12.627  42.819   0.466
 5009W        W73350   1.917   5.779   4.730
 5010W        W73351  34.524  33.382  11.905
 5011W        W73352   1.870   7.726  13.407
 5012W        W73353  26.482   7.666   3.847
 5013W        W73354  18.584  30.629  12.972
 5014W        W73355  35.549  29.582  14.286
 5015W        W73356  40.308  23.210   4.317
 5016W        W73357  43.942  38.389  11.060
 5017W        W73358   2.373  32.592  11.953
 5018W        W73359  20.087  29.136  14.843
 5019W        W73360  25.143  10.747  12.059
 5020W        W73361  38.056  38.046   4.140
 5021W        W73362  37.012  33.978   2.759
 5022W        W73363   0.457  26.972  10.614
 5023W        W73364  18.563   2.939  12.854
 5024W        W73365  44.933  21.075   1.853
 5025W        W73366  41.836  14.266  12.973
 5026W        W73367  26.014  36.521   0.402
 5027W        W73368  13.263   9.711   0.417
 5028W        W73369   6.903  44.802   3.222
 5029W        W73370  17.749  37.986   0.840
 5030W        W73371  22.110  19.693  14.781
 5031W        W73372   4.840  41.960   2.676
 5032W        W73373   5.422   1.378  10.972
 5033W        W73374   7.229  17.588   0.816
 5034W        W73375  44.984  34.535   1.411
 5035W        W73376  13.297  22.064   1.264
 5036W        W73377  33.452  28.516   2.303
 5037W        W73378   6.875  33.967   3.638
 5038W        W73379  20.597   2.927  12.910
 5039W        W73380  15.316  38.476  11.881
 5040W        W73381  37.545  29.519  14.876
 5041W        W73382  14.626   1.842  10.425
 5042W        W73383   9.794   8.885   4.139
 5043W        W73384  39.988  44.429  13.479
 5044W        W73385  39.889  39.533   2.353
 5045W        W73386  34.456  10.344   4.601
 5046W        W73387   5.708  34.538   0.397
 5047W        W73388   7.368   5.218   0.758
 5048W        W73389  41.870  13.828  14.032
 5049W        W73390  18.562  44.944  10.898
 5050W        W73391   7.217   9.775  12.521
 5051W        W73392   2.827  16.190   0.729
 5052W        W73393  11.778  15.292   4.626
 5053W        W73394   2.721  12.230  11.444
 5054W        W73395   4.387  23.103  12.525
 5055W        W73396  24.081  16.089  13.856
 5056W        W73397  23.987   2.364  10.559
 5057W        W73398   4.927  31.149  13.477
 5058W        W73399  10.868  20.253  10.927
 5059W        W73400  33.910  34.527   3.631
 5060W        W73401  35.860   7.233   3.779
 5061W        W73402   4.739  22.673   1.712
 5062W        W73403  19.615  21.704   0.820
 5063W        W73404  11.763  30.572  10.890
 5064W        W73405  43.306  20.751   2.285
 5065W        W73406  15.701  27.486  12.070
 5066W        W73407   3.937  23.571  12.521
 5067W        W73408  31.541  31.596  11.059
 5068W        W73409  19.061  37.531  10.459
 5069W        W73410  44.939  44.456   4.756
 5070W        W73411  12.198  15.200  13.472
 5071W        W73412  24.710  10.224  11.912
 5072W        W73413  36.877  25.177   4.193
 5073W        W73414  31.056  41.340  11.503
 5074W        W73415  24.012  21.078   1.698
 5075W        W73416  25.568  40.929   0.770
 5076W        W73417   7.835  24.693  13.020
 5077W        W73418   3.868  33.560   4.768
 5078W        W73419  33.516  29.113  10.620
 5079W        W73420   3.401  38.913   4.788
 5080W        W73421  39.338  21.709   2.276
 5081W        W73422  26.056  29.519   4.662
 5082W        W73423   3.349  24.034  11.941
 5083W        W73424  26.553  35.095   4.825
 5084W        W73425  27.571  38.477  12.986
 5085W        W73426  10.720  37.005  11.017
 5086W        W73427  25.121  23.997  12.555
 5087W        W73428   2.722  44.406  14.381
 5088W        W73429  38.838  27.460   4.161
 5089W        W73430  23.051  34.954   2.864
 5090W        W73431  37.487   4.450   2.826
 5091W        W73432   4.341  43.817  14.277
 5092W        W73433  28.517  21.612  14.947
 5093W        W73434  38.865  10.634   4.302
 5094W        W73435  20.756  38.510  12.001
 5095W        W73436  35.907  40.964   3.367
 5096W        W73437  41.026  44.305   0.289
 5097W        W73438  35.388  25.066   1.301
 5098W        W73439  24.043  27.626  13.340
 5099W        W73440  10.671  11.799  13.843
 5100W        W73441  12.786  38.402  13.856
 5101W        W73442  17.640   8.658   4.757
 5102W        W73443   7.872  26.586  11.875
 5103W        W73444   0.426  36.388  12.406
 5104W        W73445  21.172  20.211   4.658
 5105W        W73446  42.014   8.872   4.659
 5106W        W73447  20.061  21.100   3.305
 5107W        W73448  24.040   6.707  13.381
 5108W        W73449  35.989  20.093   3.709
 5109W        W73450  33.536  21.179   2.744
 5110W        W73451  42.951  41.999  13.791
 5111W        W73452  13.170  25.604   3.326
 5112W        W73453  40.915   4.861  13.835
 5113W        W73454  31.052   5.826   1.846
 5114W        W73455  13.171  17.638  11.063
 5115W        W73456  17.632  27.134  10.521
 5116W        W73457  40.972  17.701  14.499
 5117W        W73458   7.412  13.229  11.070
 5118W        W73459   5.221  32.906  14.504
 5119W        W73460   8.895  18.222   4.653
 5120W        W73461  30.035   4.363  10.524
 5121W        W73462  12.619  27.028   3.651
 5122W        W73463  38.909  24.712   4.691
 5123W        W73464  17.300  25.685  14.768
 5124W        W73465  19.262  18.119   4.714
 5125W        W73466  18.552  37.926   1.922
 5126W        W73467  27.620  31.980   2.268
 5127W        W73468  32.006  44.275  12.367
 5128W        W73469  25.986  25.158  12.053
 5129W        W73470   0.761  12.783  13.360
 5130W        W73471   3.405  10.819   1.842
 5131W        W73472  27.546  27.526   9.556
 5132W        W73473  23.025  21.244  13.040
 5133W        W73474  16.801  42.871   1.254
 5134W        W73475  32.020  14.682  12.866
 5135W        W73476  31.456   3.928   3.679
 5136W        W73477  12.652  15.714  11.062
 5137W        W73478  13.760   5.233   4.788
 5138W        W73479  21.524  17.655  13.409
 5139W        W73480  14.603  38.439  11.408
 5140W        W73481  37.986  34.089   3.365
 5141W        W73482  16.213  12.143   2.381
 5142W        W73483  43.280  36.591  14.962
 5143W        W73484  40.539  15.300  14.354
 5144W        W73485  31.438  28.124  14.417
 5145W        W73486  30.983  17.255  13.321
 5146W        W73487  43.399  43.282  13.845
 5147W        W73488  14.687  39.939  14.793
 5148W        W73489  36.896  18.168  14.514
 5149W        W73490  12.717  26.115  13.853
 5150W        W73491  19.043  12.222   3.672
 5151W        W73492  40.426  30.952  13.511
 5152W        W73493  36.855  11.234  11.961
 5153W        W73494   4.298  14.330  12.485
 5154W        W73495  36.996   3.825   4.678
 5155W        W73496  28.067  17.791   2.193
 5156W        W73497   4.852  16.290   3.165
 5157W        W73498   6.331  25.200  11.556
 5158W        W73499  34.063  18.107   0.821
 5159W        W73500  32.938  27.690  11.061
 5160W        W73501  25.163  15.700  12.905
 5161W        W73502  14.677  21.613   4.222
 5162W        W73503  39.454  12.706   1.909
 5163W        W73504  14.804  33.993   5.642
 5164W        W73505  19.266   7.804   3.228
 5165W        W73506  26.129  37.475   3.343
 5166W        W73507  30.944  15.749   0.917
 5167W        W73508   3.946  33.554  11.394
 5168W        W73509  28.485  19.538   2.325
 5169W        W73510  16.186  38.045   2.868
 5170W        W73511   2.820  15.263  12.526
 5171W        W73512  25.041  17.767   4.174
 5172W        W73513  10.200  42.383   4.301
 5173W        W73514   7.787  27.162  12.999
 5174W        W73515  11.630  26.109  11.008
 5175W        W73516  28.519  40.977   1.211
 5176W        W73517   5.422  37.027   0.282
 5177W        W73518  25.633  24.488  11.107
 5178W        W73519  40.509  35.529   2.883
 5179W        W73520   2.426  15.766   4.182
 5180W        W73521  35.090  43.420   0.735
 5181W        W73522  41.323   1.380  14.503
 5182W        W73523  20.574  28.941   1.443
 5183W        W73524   5.342  40.007  14.374
 5184W        W73525  16.705  23.089  14.934
 5185W        W73526  37.916  24.657   1.739
 5186W        W73527  21.042   0.394   0.833
 5187W        W73528  25.213   4.889   3.376
 5188W        W73529  33.414  41.498  10.508
 5189W        W73530  29.446  13.753   1.418
 5190W        W73531  10.717  12.214   2.320
 5191W        W73532  14.131  23.013   2.183
 5192W        W73533  42.504   8.855   1.298
 5193W        W73534   3.852  44.786   3.828
 5194W        W73535   4.402  19.271  14.884
 5195W        W73536   5.377  43.333   0.303
 5196W        W73537  44.001  38.041   0.844
 5197W        W73538   1.877   7.735  10.985
 5198W        W73539  37.344  30.082   1.251
 5199W        W73540  29.639   3.795  10.988
 5200W        W73541  13.338  10.861  14.850
 5201W        W73542  12.718  25.039  12.484
 5202W        W73543  25.972  19.540  11.014
 5203W        W73544  10.316  20.067  14.334
 5204W        W73545  17.184  10.368  14.359
 5205W        W73546  41.532  38.036   1.713
 5206W        W73547   4.297  24.050  14.393
 5207W        W73548   1.933   0.259   2.843
 5208W        W73549  37.419  35.945   2.237
 5209W        W73550  30.152  23.177   4.795
 5210W        W73551   5.325   8.178   4.245
 5211W        W73552  35.889  33.906   2.661
 5212W        W73553  41.908  42.320   2.758
 5213W        W73554  37.432  21.610   4.251
 5214W        W73555   1.786  27.095   1.871
 5215W        W73556   4.933  32.059  11.059
 5216W        W73557  26.209  43.782  10.573
 5217W        W73558  43.352  21.535  11.088
 5218W        W73559   8.313   0.912   3.698
 5219W        W73560  31.089  23.081  14.031
 5220W        W73561  33.461   1.962   2.690
 5221W        W73562  24.542   0.379   0.343
 5222W        W73563  44.768  28.942   1.908
 5223W        W73564  36.997  21.659   1.319
 5224W        W73565  38.396  23.006   2.886
 5225W        W73566  42.878  24.200  12.906
 5226W        W73567  22.051  18.135  11.863
 5227W        W73568  10.342  34.999   4.609
 5228W        W73569  27.603  38.958  12.968
 5229W        W73570  38.550  20.543  13.795
 5230W        W73571  28.674  29.531  10.898
 5231W        W73572  32.131  38.549   2.321
 5232W        W73573  13.640  17.744  14.030
 5233W        W73574   9.772  39.969  14.283
 5234W        W73575  34.449   3.304   5.313
 5235W        W73576   4.443  20.133   1.864
 5236W        W73577  17.082  29.945  12.428
 5237W        W73578  11.226  21.738  12.432
 5238W        W73579  11.260  19.285  14.793
 5239W        W73580  17.159   9.826  10.060
 5240W        W73581  19.639  35.491  10.644
 5241W        W73582   9.838   2.361   2.699
 5242W        W73583   8.884  36.017  12.369
 5243W        W73584  11.280  29.961   4.781
 5244W        W73585   9.227   9.224   1.719
 5245W        W73586  13.613  35.556   2.688
 5246W        W73587  34.589  38.948   3.314
 5247W        W73588  35.427  30.144  13.527
 5248W        W73589  23.055  39.848   4.689
 5249W        W73590  16.252  35.953  14.989
 5250W        W73591  36.918  39.398   3.675
 5251W        W73592   8.350  14.156   4.136
 5252W        W73593   6.781  28.650  14.368
 5253W        W73594   6.391  18.650  12.979
 5254W        W73595  18.248  26.112   0.352
 5255W        W73596  34.576  16.687  13.008
 5256W        W73597  26.084  15.099   4.768
 5257W        W73598  32.045  11.865  12.562
 5258W        W73599  11.173  44.913   4.221
 5259W        W73600  28.672  25.684  12.437
 5260W        W73601  11.304  15.719   1.763
 5261W        W73602  42.462   6.859  10.499
 5262W        W73603  41.525  38.016   3.820
 5263W        W73604  19.257  32.440   2.889
 5264W        W73605   0.924  41.376   0.322
 5265W        W73606  32.616  37.354   2.711
 5266W        W73607   7.182  24.596   1.296
 5267W        W73608  23.241  33.563   2.303
 5268W        W73609  28.163   8.898  10.022
 5269W        W73610   0.276  37.931   4.729
 5270W        W73611   3.800  17.588   1.881
 5271W        W73612  13.326  27.110   2.361
 5272W        W73613  17.156  24.524  11.937
 5273W        W73614  18.582  32.556   2.711
 5274W        W73615  17.259  35.912  12.041
 5275W        W73616  44.312   0.392  13.994
 5276W        W73617  38.875  39.317   3.199
 5277W        W73618  38.932  22.564   1.726
 5278W        W73619  26.109  26.514  12.926
 5279W        W73620  24.181  33.556   2.386
 5280W        W73621  35.601   0.316  12.937
 5281W        W73622   7.398  31.060   3.168
 5282W        W73623  14.711   1.274   1.901
 5283W        W73624   1.329  27.590  12.867
 5284W        W73625   6.338   7.769  11.104
 5285W        W73626  36.461  40.481   1.427
 5286W        W73627  29.666  36.352   4.633
 5287W        W73628   9.279  30.439  12.067
 5288W        W73629   4.816   5.847  11.984
 5289W        W73630  38.064  19.084  14.013
 5290W        W73631   8.299  13.844   2.206
 5291W        W73632  28.532  36.481  14.422
 5292W        W73633   2.443   1.857   1.907
 5293W        W73634  23.618  30.075  10.407
 5294W        W73635  24.480   0.411   3.172
 5295W        W73636  27.113  42.487   4.608
 5296W        W73637  44.314  27.564  11.121
 5297W        W73638  36.083  22.146  12.925
 5298W        W73639  21.135  22.702   1.727
 5299W        W73640  43.875  30.160   0.257
 5300W        W73641  16.743  43.809  11.899
 5301W        W73642  32.561  33.132   2.883
 5302W        W73643  18.287   8.285  10.471
 5303W        W73644  18.574   6.361   2.670
 5304W        W73645   7.889  17.072   2.285
 5305W        W73646  29.939  28.532   3.820
 5306W        W73647  40.343  23.627   1.752
 5307W        W73648  44.399  24.628  11.372
 5308W        W73649  27.663   5.399  11.051
 5309W        W73650   1.978  18.169  10.485
 5310W        W73651  28.082  22.539  11.112
 5311W        W73652  27.150  12.664   4.644
 5312W        W73653  23.490  27.179   2.373
 5313W        W73654  15.244   9.793  13.051
 5314W        W73655  41.410  43.382  13.794
 5315W        W73656  40.015  18.587  13.316
 5316W        W73657  33.511  24.606  11.553
 5317W        W73658  13.119  34.907   0.816
 5318W        W73659   4.359  20.063  12.397
 5319W        W73660  44.799  38.411   4.148
 5320W        W73661  15.739  16.287  11.028
 5321W        W73662  24.141  18.137   3.866
 5322W        W73663   6.878  33.493   1.771
 5323W        W73664   1.299  18.563  14.982
 5324W        W73665   7.245  18.777  11.474
 5325W        W73666  19.274   6.259   3.298
 5326W        W73667  25.215  38.041   0.832
 5327W        W73668  13.762  42.870  11.412
 5328W        W73669  30.943  13.755  10.924
 5329W        W73670  12.849  38.005  13.328
 5330W        W73671  37.362  43.428   2.215
 5331W        W73672  40.843  32.105   0.243
 5332W        W73673  24.029  20.262  13.383
 5333W        W73674  26.599  25.643  10.425
 5334W        W73675  32.032  27.537   3.763
 5335W        W73676  17.600  20.156  11.987
 5336W        W73677  34.563  33.983   2.187
 5337W        W73678  18.735   8.238  10.633
 5338W        W73679  15.677  32.131  11.051
 5339W        W73680  12.831  28.128   1.296
 5340W        W73681  37.938  32.089  13.444
 5341W        W73682   6.824  27.072   3.332
 5342W        W73683  15.613  35.547   2.665
 5343W        W73684  28.147   7.406  12.875
 5344W        W73685  16.714   0.447   1.260
 5345W        W73686  26.966  24.185  14.919
 5346W        W73687  43.888  10.867   4.725
 5347W        W73688  42.806  26.026   2.340
 5348W        W73689  19.089  39.359   0.855
 5349W        W73690  14.259  42.471   1.438
 5350W        W73691  15.247  16.637  12.983
 5351W        W73692  28.940  44.883   1.795
 5352W        W73693  40.328  14.287   1.915
 5353W        W73694  27.145  31.151  10.436
 5354W        W73695  33.047  34.030  12.069
 5355W        W73696  22.505   5.366  13.844
 5356W        W73697   9.773   7.356   2.216
 5357W        W73698  37.914  37.515  12.983
 5358W        W73699  37.923  37.340   3.238
 5359W        W73700  28.034  16.288   4.345
 5360W        W73701  34.094  36.861  10.504
 5361W        W73702  37.884  43.800  14.850
 5362W        W73703  35.080  33.506  11.011
 5363W        W73704  14.161  30.552  14.358
 5364W        W73705  27.974  28.549   2.770
 5365W        W73706   8.855  28.629  12.857
 5366W        W73707  36.575  41.502   1.813
 5367W        W73708  39.818  18.092   0.813
 5368W        W73709  30.909  40.508  13.932
 5369W        W73710  34.056   0.351   2.768
 5370W        W73711  32.523  17.211  10.947
 5371W        W73712  30.979  42.518   0.276
 5372W        W73713  17.617  12.772  12.564
 5373W        W73714   1.842  39.886  11.877
 5374W        W73715  27.511  34.023  12.966
 5375W        W73716  10.837   6.799  13.902
 5376W        W73717  41.865   6.695   3.214
 5377W        W73718   7.222  40.991   1.263
 5378W        W73719  28.672  16.097   1.371
 5379W        W73720  26.478  30.042  11.393
 5380W        W73721  36.565  29.008   4.834
 5381W        W73722  31.521   4.262  14.436
 5382W        W73723  11.357   2.437   1.263
 5383W        W73724   3.766   8.759  10.562
 5384W        W73725  18.114  28.526  10.604
 5385W        W73726  10.317  11.777   4.725
 5386W        W73727  11.626  32.557   3.344
 5387W        W73728   5.883  27.616   0.282
 5388W        W73729  11.133  41.413  10.510
 5389W        W73730  17.222   7.884  13.406
 5390W        W73731  36.513  38.072  10.603
 5391W        W73732   0.893   4.874  12.007
 5392W        W73733  24.030  13.651   3.164
 5393W        W73734  41.460   7.238  11.421
 5394W        W73735  24.028  34.891  12.552
 5395W        W73736   2.428  32.935   1.752
 5396W        W73737  25.638   0.290  14.441
 5397W        W73738  13.336  43.909  13.917
 5398W        W73739  36.056  13.629   0.335
 5399W        W73740  21.188  28.055   0.834
 5400W        W73741  14.318  27.611  13.428
 5401W        W73742   3.428   7.800  10.557
 5402W        W73743  30.096  18.267  14.838
 5403W        W73744  25.710  21.511   3.198
 5404W        W73745  40.337  37.491  12.553
 5405W        W73746   1.467  43.422   1.213
 5406W        W73747   5.354  40.394   3.368
 5407W        W73748  10.328  41.358   3.247
 5408W        W73749  26.641   7.758   2.335
 5409W        W73750   9.352  40.309  14.461
 5410W        W73751  41.328   8.272   1.873
 5411W        W73752   9.747  18.745   0.390
 5412W        W73753  28.653  20.129   4.833
 5413W        W73754  13.695  12.290   3.679
 5414W        W73755   5.439  41.388  14.830
 5415W        W73756  32.012  35.465  10.457
 5416W        W73757  18.603  12.154  11.596
 5417W        W73758  21.552   6.716   0.483
 5418W        W73759  17.139  29.436  14.023
 5419W        W73760  29.617  26.650   4.638
 5420W        W73761   5.266   9.840  14.869
 5421W        W73762  14.810   0.917   1.240
 5422W        W73763  12.187  24.073  12.462
 5423W        W73764  35.901  28.673  13.927
 5424W        W73765  35.422  33.983   3.287
 5425W        W73766  27.979  24.077  14.982
 5426W        W73767  10.229  42.026   2.218
 5427W        W73768   4.279  27.586  12.847
 5428W        W73769  39.878  14.757   2.788
 5429W        W73770  28.613  24.711  10.636
 5430W        W73771   0.758  29.175   2.254
 5431W        W73772   6.852   2.881  13.995
 5432W        W73773  23.712   3.832  11.086
 5433W        W73774  38.470  40.484   4.668
 5434W        W73775  32.125   1.339   4.243
 5435W        W73776   9.188  18.604   2.670
 5436W        W73777  38.828   4.242   3.699
 5437W        W73778  37.356  42.481   1.294
 5438W        W73779  25.647  37.374   2.876
 5439W        W73780  27.604  17.727   3.328
 5440W        W73781  15.793  17.249  13.815
 5441W        W73782  16.144  40.903  14.829
 5442W        W73783  33.952  42.332  14.446
 5443W        W73784   5.261  14.119   3.747
 5444W        W73785   7.775  34.983  14.951
 5445W        W73786  28.520   2.888   3.651
 5446W        W73787  34.517   7.296   1.841
 5447W        W73788  16.568  44.796  11.988
 5448W        W73789  26.571  10.256   2.787
 5449W        W73790  34.049  37.846  14.294
 5450W        W73791   2.235  16.705   0.882
 5451W        W73792  30.527  34.970   1.833
 5452W        W73793  37.554  26.484   0.782
 5453W        W73794  35.945  20.142   0.367
 5454W        W73795   8.220   9.153   3.690
 5455W        W73796  43.835  14.643  11.025
 5456W        W73797  11.730  34.486   3.162
 5457W        W73798  40.424  16.083  12.920
 5458W        W73799  28.487  42.805  12.345
 5459W        W73800   2.748   9.854  13.505
 5460W        W73801  30.530  29.667  14.416
 5461W        W73802  31.430  44.773  12.059
 5462W        W73803  18.275   2.321  14.013
 5463W        W73804  33.433  24.122  14.879
 5464W        W73805  27.087  44.385  11.929
 5465W        W73806  11.835  38.380  11.059
 5466W        W73807   7.196  25.053  10.603
 5467W        W73808  13.824  34.096   2.715
 5468W        W73809  35.927  31.483  10.639
 5469W        W73810  37.345  35.937  14.508
 5470W        W73811  17.061  33.066   3.276
 5471W        W73812  19.177  28.481   1.422
 5472W        W73813  28.588  25.588  13.850
 5473W        W73814   6.711   5.301   4.174
 5474W        W73815   0.825  26.164   3.770
 5475W        W73816  28.491   4.798  11.406
 5476W        W73817  40.853  19.755  10.993
 5477W        W73818  39.329   8.787   4.251
 5478W        W73819  13.223   2.341   2.280
 5479W        W73820   7.673  26.620   4.616
 5480W        W73821  40.324  24.612   4.231
 5481W        W73822   8.713  36.392  14.478
 5482W        W73823  26.486   1.280   2.320
 5483W        W73824   0.883  39.925  11.098
 5484W        W73825  12.132  38.494   4.638
 5485W        W73826  40.462  17.294   9.993
 5486W        W73827   5.786   0.953   1.708
 5487W        W73828  14.298  34.884   4.310
 5488W        W73829  28.028  11.205   3.161
 5489W        W73830  39.888  24.084   3.196
 5490W        W73831  33.036  31.619  14.773
 5491W        W73832  24.601  25.156   1.799
 5492W        W73833   8.243   6.285  14.899
 5493W        W73834  42.287  13.276  14.919
 5494W        W73835   1.475  34.111  13.505
 5495W        W73836  35.025  12.325  14.361
 5496W        W73837   9.226   7.210  10.919
 5497W        W73838   5.832   6.887  11.098
 5498W        W73839   4.414  35.393  11.431
 5499W        W73840   9.170  20.566   0.285
 5500W        W73841  11.718   7.256  11.452
 5501W        W73842   1.829  15.323  10.539
 5502W        W73843  41.027  12.811   4.807
 5503W        W73844  25.559  30.575  10.944
 5504W        W73845  29.053   5.373   2.760
 5505W        W73846  39.553   8.205   3.672
 5506W        W73847  14.803  23.071   4.622
 5507W        W73848  42.363   3.935   4.133
 5508W        W73849   8.363  29.062  11.938
 5509W        W73850   2.841  29.067   1.895
 5510W        W73851  13.831  13.206  13.326
 5511W        W73852   2.794  27.542  14.818
 5512W        W73853  10.164  22.204  12.382
 5513W        W73854  27.042   9.834  12.958
 5514W        W73855  39.380   7.672  11.534
 5515W        W73856   6.793  19.553  14.997
 5516W        W73857  44.005  31.453  14.930
 5517W        W73858  29.479   9.240   1.322
 5518W        W73859  40.420  41.335  14.881
 5519W        W73860  20.741  41.974   3.188
 5520W        W73861   8.286   6.681  10.914
 5521W        W73862  19.193   3.329  12.379
 5522W        W73863   3.721  32.035   3.375
 5523W        W73864  20.530  20.271   1.433
 5524W        W73865  31.100  16.129  13.972
 5525W        W73866  39.334  12.821   4.676
 5526W        W73867  40.838  28.137   2.356
 5527W        W73868  14.622  25.577   1.851
 5528W        W73869  29.484  31.144  13.863
 5529W        W73870  33.550  23.002  12.852
 5530W        W73871  19.151  39.863   1.384
 5531W        W73872  19.741  28.943  11.013
 5532W        W73873  19.099  33.087  13.416
 5533W        W73874  38.409  40.429   3.265
 5534W        W73875  32.072  28.176   2.832
 5535W        W73876  38.448  30.597  12.964
 5536W        W73877  28.077  41.906   4.211
 5537W        W73878  33.066  25.474  11.599
 5538W        W73879   8.700  29.442   1.342
 5539W        W73880  16.202   8.271   3.229
 5540W        W73881  18.786  31.605  12.037
 5541W        W73882  18.776  36.058  11.525
 5542W        W73883  35.384  24.488  12.027
 5543W        W73884  21.673  21.186   0.966
 5544W        W73885  32.578   9.185   0.462
 5545W        W73886  33.444  42.837   1.705
 5546W        W73887  16.697  19.071   4.611
 5547W        W73888  36.930  22.738  13.539
 5548W        W73889  24.621   2.255   4.126
 5549W        W73890   1.250  29.063   3.723
 5550W        W73891   0.376  31.948   1.834
 5551W        W73892   3.861  11.690   0.726
 5552W        W73893  30.548  16.310  11.014
 5553W        W73894   6.738  36.927   1.848
 5554W        W73895  30.581  42.886  10.526
 5555W        W73896  35.581  29.971   1.772
 5556W        W73897   9.700  24.018   0.931
 5557W        W73898   2.916  21.092   4.255
 5558W        W73899  26.481  38.934  14.469
 5559W        W73900  43.451  10.706  14.768
 5560W        W73901  10.825  11.354   3.755
 5561W        W73902   0.425  12.753   4.222
 5562W        W73903  17.175  43.795  14.889
 5563W        W73904   9.235   3.347  14.343
 5564W        W73905   6.260  35.485   4.143
 5565W        W73906  18.107   2.456   4.681
 5566W        W73907  40.812  17.618   3.765
 5567W        W73908   4.379  22.685   0.769
 5568W        W73909  10.648  13.158  14.402
 5569W        W73910   6.886  24.536   1.803
 5570W        W73911  38.062   5.423   2.793
 5571W        W73912  18.159   4.868   3.353
 5572W        W73913   4.409  27.483   1.816
 5573W        W73914   5.817  16.259  13.834
 5574W        W73915  35.874  26.960   2.887
 5575W        W73916   4.833  23.565  10.534
 5576W        W73917  12.728  33.072   4.318
 5577W        W73918   7.805   1.933  12.866
 5578W        W73919  25.533   6.877   3.256
 5579W        W73920  10.790   8.862  11.050
 5580W        W73921  40.947  39.919  11.906
 5581W        W73922  37.523  33.126  13.434
 5582W        W73923  17.640  35.857   3.223
 5583W        W73924  11.224  37.983   3.279
 5584W        W73925  25.988  33.928  10.447
 5585W        W73926   6.371  39.979   0.813
 5586W        W73927  24.041  20.674  13.848
 5587W        W73928  40.910  12.180   1.756
 5588W        W73929  39.964  15.176   3.853
 5589W        W73930   1.300  29.448   4.331
 5590W        W73931  14.631   2.909   0.381
 5591W        W73932  23.606  28.444   4.314
 5592W        W73933  27.565  26.546   1.227
 5593W        W73934  32.489  43.882   2.298
 5594W        W73935  42.959   3.893  12.848
 5595W        W73936  38.062  28.003   0.963
 5596W        W73937  11.302  22.147   2.357
 5597W        W73938  33.388  38.330   2.714
 5598W        W73939  19.252   7.190   3.287
 5599W        W73940   0.426  39.856  13.990
 5600W        W73941  29.157  26.974  13.807
 5601W        W73942  27.559  20.547   0.336
 5602W        W73943  23.040  28.062   1.698
 5603W        W73944  34.551  18.647   1.764
 5604W        W73945  13.708  29.161  12.505
 5605W        W73946  36.548  41.872   4.165
 5606W        W73947  42.425   5.194  11.926
 5607W        W73948  12.685  41.879  11.440
 5608W        W73949  16.078  23.198  13.480
 5609W        W73950  10.378  22.518   9.970
 5610W        W73951  31.562   4.908  12.403
 5611W        W73952   4.734  40.816   4.748
 5612W        W73953   8.667   4.397   0.757
 5613W        W73954  21.046  29.045   3.361
 5614W        W73955   0.443  26.146  14.947
 5615W        W73956   6.816   0.911  11.562
 5616W        W73957   2.453   5.886  11.010
 5617W        W73958  30.548  22.565   3.663
 5618W        W73959  25.115  17.265  12.933
 5619W        W73960  30.642   5.725  11.938
 5620W        W73961  17.622  39.531  14.023
 5621W        W73962  34.580   2.815  11.562
 5622W        W73963  25.110  12.293  11.404
 5623W        W73964  15.132  33.903  14.433
 5624W        W73965  22.027  40.458  10.918
 5625W        W73966  16.221  36.557   0.289
 5626W        W73967  35.916  40.388   3.249
 5627W        W73968  15.753  22.230   0.915
 5628W        W73969   8.351  40.363  11.946
 5629W        W73970  10.314   8.863  14.968
 5630W        W73971  24.057  35.884   5.289
 5631W        W73972  34.579  11.847   4.790
 5632W        W73973  42.011  16.623   3.688
 5633W        W73974  38.409  33.944   4.820
 5634W        W73975  17.133  29.520   0.274
 5635W        W73976  12.294   8.864   2.246
 5636W        W73977   9.279  35.517  10.513
 5637W        W73978  27.039  42.798  13.933
 5638W        W73979   0.877   9.748   2.781
 5639W        W73980  25.061   2.359   1.380
 5640W        W73981  15.153   0.302   1.303
 5641W        W73982  20.643   6.357  14.929
 5642W        W73983  42.976  41.958   3.378
 5643W        W73984  43.421  26.576  12.527
 5644W        W73985  10.771   4.780  14.330
 5645W        W73986  16.694  38.918   1.451
 5646W        W73987  40.011   1.953   2.403
 5647W        W73988  39.468  41.409   0.460
 5648W        W73989  13.247   0.481   1.366
 5649W        W73990   5.691   3.852   0.947
 5650W        W73991  44.328  11.735  10.969
 5651W        W73992  41.398  30.593  12.366
 5652W        W73993   8.693  21.171   5.186
 5653W        W73994   8.214  19.133  11.057
 5654W        W73995  30.654  18.138  11.610
 5655W        W73996   6.256   4.784   1.269
 5656W        W73997   2.958  32.492  12.472
 5657W        W73998   7.758  26.971  10.545
 5658W        W73999  25.633  30.137   1.394
 5659W        W74000  36.037  32.589  10.482
 5660W        W74001  33.096  22.017   2.248
 5661W        W74002  14.696  41.842   3.368
 5662W        W74003   9.372  41.839   2.414
 5663W        W74004  37.838  42.430  13.007
 5664W        W74005  36.985  25.529   0.318
 5665W        W74006   9.679  24.058   2.762
 5666W        W74007  18.294  24.108   4.610
 5667W        W74008  30.102  41.040  12.425
 5668W        W74009  18.711  43.361   2.257
 5669W        W74010  21.692  39.836  12.065
 5670W        W74011  39.822  35.987  14.996
 5671W        W74012  34.471  22.252  13.307
 5672W        W74013  43.862  33.515  14.997
 5673W        W74014  32.469  32.071  10.623
 5674W        W74015  30.541   2.227   0.953
 5675W        W74016  20.260  39.857   4.335
 5676W        W74017   6.201  31.455   2.273
 5677W        W74018  10.779   1.462   4.222
 5678W        W74019   5.199  35.991  13.931
 5679W        W74020  17.217  11.363   1.802
 5680W        W74021  28.530   2.251  10.956
 5681W        W74022   7.886  13.707  12.540
 5682W        W74023  22.189  36.091  13.494
 5683W        W74024  40.323  27.973   5.289
 5684W        W74025  17.775  40.442  14.823
 5685W        W74026  17.089  16.677  10.055
 5686W        W74027   1.417  15.628  12.522
 5687W        W74028  26.191  12.196  14.799
 5688W        W74029   3.443   8.692   4.229
 5689W        W74030  18.105   2.343   0.731
 5690W        W74031  19.601   5.424   0.464
 5691W        W74032  15.822  37.465   3.254
 5692W        W74033  22.501  20.736  14.803
 5693W        W74034  35.038  44.790   2.721
 5694W        W74035  26.161  34.995  14.382
 5695W        W74036  32.103  19.110   0.418
 5696W        W74037  43.362  14.827  14.990
 5697W        W74038  24.599  17.241  12.916
 5698W        W74039  36.592  14.219   3.689
 5699W        W74040  16.192  15.744   1.797
 5700W        W74041  13.218  23.496   0.459
 5701W        W74042  44.357  36.846  11.039
 5702W        W74043  17.579  18.604   3.199
 5703W        W74044  16.254   6.689   1.927
 5704W        W74045  32.971  35.485   0.398
 5705W        W74046  23.215  10.857   1.785
 5706W        W74047   2.899  37.891  14.471
 5707W        W74048   6.858  24.574  13.890
 5708W        W74049  23.046   5.774   4.734
 5709W        W74050  36.854   8.177   4.774
 5710W        W74051  30.444   5.319  13.839
 5711W        W74052  38.995  27.148   4.819
 5712W        W74053  18.696  24.040   1.358
 5713W        W74054  11.772  26.137   2.201
 5714W        W74055  21.227  23.572   2.733
 5715W        W74056  31.595  41.859  12.056
 5716W        W74057  23.648  12.740   0.849
 5717W        W74058  35.959  19.722  13.989
 5718W        W74059  30.470  43.491  10.476
 5719W        W74060  42.824  11.745   3.699
 5720W        W74061  25.037  12.772   3.700
 5721W        W74062  30.446  21.704   2.380
 5722W        W74063  25.674  29.572   5.665
 5723W        W74064   3.333  19.194   3.335
 5724W        W74065  23.145  35.358  14.993
 5725W        W74066  34.417  40.419  10.004
 5726W        W74067   8.796  14.609   4.614
 5727W        W74068  40.969   1.322  10.991
 5728W        W74069   7.343  15.284   1.254
 5729W        W74070  28.638  24.984   0.332
 5730W        W74071  27.174   9.311  11.599
 5731W        W74072   0.392  23.137   3.762
 5732W        W74073  29.029  19.110  11.059
 5733W        W74074  20.153  29.569   3.286
 5734W        W74075  11.862  29.433  10.984
 5735W        W74076   5.279  31.018  13.851
 5736W        W74077  14.278  43.450   3.641
 5737W        W74078  29.434  35.512   1.704
 5738W        W74079  16.081  23.127   5.136
 5739W        W74080  41.953  42.300  13.928
 5740W        W74081   0.430  22.080  12.550
 5741W        W74082  44.316  43.370   1.315
 5742W        W74083  20.044  43.889  14.347
 5743W        W74084  23.567  19.208   0.332
 5744W        W74085  25.618  32.030   2.230
 5745W        W74086  26.124  12.787  13.054
 5746W        W74087  32.094   4.764  11.069
 5747W        W74088  14.105  44.927  10.631
 5748W        W74089  36.879  11.244   4.829
 5749W        W74090  11.332   2.232  14.332
 5750W        W74091   1.948  19.268   1.316
 5751W        W74092  23.596   4.839   3.201
 5752W        W74093  17.670  32.076   2.745
 5753W        W74094  27.584   3.815   4.192
 5754W        W74095  15.213  14.188  13.485
 5755W        W74096   9.194  19.166  14.007
 5756W        W74097  18.068  31.483  11.373
 5757W        W74098   4.935  12.852   1.297
 5758W        W74099  28.059  14.176  13.053
 5759W        W74100  18.559  30.046  14.504
 5760W        W74101  15.327   9.697   2.203
 5761W        W74102  16.171  20.063   0.282
 5762W        W74103   0.250  40.449  13.527
 5763W        W74104  37.936  35.503   3.207
 5764W        W74105  30.139  11.142   4.205
 5765W        W74106  44.944   4.832   3.295
 5766W        W74107  25.097  41.385   1.824
 5767W        W74108  44.299   4.264   4.124
 5768W        W74109  12.153   7.715   4.132
 5769W        W74110  23.098  24.710   3.242
 5770W        W74111  25.583  20.675   3.236
 5771W        W74112  10.339  41.371  14.820
 5772W        W74113  15.755  37.375   2.898
 5773W        W74114   6.900   3.276  14.407
 5774W        W74115   4.236   0.937   3.375
 5775W        W74116  14.818  15.622  13.013
 5776W        W74117  41.972  29.530  13.048
 5777W        W74118  22.705  20.587  14.467
 5778W        W74119  14.774  21.532   2.266
 5779W        W74120  42.512  22.061   3.147
 5780W        W74121  13.283   5.307   1.749
 5781W        W74122  27.044   6.860  13.976
 5782W        W74123  15.603  17.180   5.248
 5783W        W74124  35.005  33.500   1.914
 5784W        W74125   9.855  11.733   5.615
 5785W        W74126  36.552   2.467  11.479
 5786W        W74127  43.303  20.713   5.306
 5787W        W74128  30.943  15.641  12.954
 5788W        W74129   7.300   3.292  10.528
 5789W        W74130  32.511   3.850  12.417
 5790W        W74131  28.518  19.593  14.802
 5791W        W74132   6.201  37.926   2.291
 5792W        W74133  40.471  27.942  14.005
 5793W        W74134  22.523  43.461  10.578
 5794W        W74135  18.109  11.760   3.819
 5795W        W74136   2.780   6.369  11.056
 5796W        W74137  33.983  38.845  10.012
 5797W        W74138  36.088  33.874   3.214
 5798W        W74139  12.750  14.286  12.827
 5799W        W74140  42.382  24.993   2.213
 5800W        W74141   1.370  35.895   2.235
 5801W        W74142  25.208   7.723   3.681
 5802W        W74143   6.897   9.718   2.247
 5803W        W74144  39.557   5.212   3.707
 5804W        W74145  28.632  38.893  10.076
 5805W        W74146  42.857  14.702  11.026
 5806W        W74147  39.857  33.066  10.426
 5807W        W74148  40.308  26.019  10.945
 5808W        W74149   0.379  20.159   0.901
 5809W        W74150   9.156  22.670  11.541
 5810W        W74151  37.986  21.640   0.838
 5811W        W74152   9.872   2.302   3.824
 5812W        W74153  35.358  44.885   3.300
 5813W        W74154  27.094   8.825  13.859
 5814W        W74155   9.652  23.053  10.404
 5815W        W74156  28.931  36.565  10.526
 5816W        W74157   7.377  27.639   1.703
 5817W        W74158  29.008  42.472  11.566
 5818W        W74159  15.327  14.112  12.824
 5819W        W74160  26.125  31.093  14.283
 5820W        W74161  39.874   3.375   4.835
 5821W        W74162  32.611  37.544   1.436
 5822W        W74163   0.280  22.198   2.750
 5823W        W74164  36.962  10.784  12.388
 5824W        W74165   9.372  12.337  11.905
 5825W        W74166  12.206  18.643  14.801
 5826W        W74167   4.266  37.578   0.874
 5827W        W74168  34.562  26.552  13.843
 5828W        W74169   5.933  16.095   0.861
 5829W        W74170  39.918  15.190   2.375
 5830W        W74171  15.738  39.447   2.783
 5831W        W74172  29.968  26.611  12.505
 5832W        W74173  20.550  15.248  11.886
 5833W        W74174  40.314  19.719  14.923
 5834W        W74175  22.505  14.706  11.423
 5835W        W74176  32.082  17.603   1.753
 5836W        W74177  42.781  16.730  12.063
 5837W        W74178  18.084  33.061  14.970
 5838W        W74179  16.313  41.842   3.314
 5839W        W74180  18.779  32.582   5.101
 5840W        W74181  40.990  23.649   4.154
 5841W        W74182  10.179  24.210  13.406
 5842W        W74183  30.454  13.262  12.437
 5843W        W74184  12.248   7.214  12.433
 5844W        W74185   0.281  14.748  10.617
 5845W        W74186  10.800  12.226   4.752
 5846W        W74187  33.001  15.620  12.874
 5847W        W74188  34.952   4.819   2.196
 5848W        W74189  18.713  29.919  14.992
 5849W        W74190  11.344  19.200   0.391
 5850W        W74191  25.575  42.361   1.800
 5851W        W74192  35.039  30.573   4.695
 5852W        W74193  38.051  15.170   1.887
 5853W        W74194  32.964  26.074  14.338
 5854W        W74195  28.086  42.286  12.948
 5855W        W74196  32.614  43.907   4.833
 5856W        W74197   3.878  14.226   4.792
 5857W        W74198  18.124   0.264  12.520
 5858W        W74199  13.350   6.687   4.702
 5859W        W74200  37.435  34.963   3.784
 5860W        W74201  14.803   1.276   0.951
 5861W        W74202  11.154   8.267   3.305
 5862W        W74203  33.057   5.438  11.540
 5863W        W74204  42.998  26.544   1.251
 5864W        W74205  20.261   7.417  13.852
 5865W        W74206  19.118  11.366  12.958
 5866W        W74207  32.555  17.584   1.443
 5867W        W74208  42.925  18.788   2.211
 5868W        W74209  22.160   5.688  10.452
 5869W        W74210  37.519   4.871   2.189
 5870W        W74211   9.287  28.681   1.443
 5871W        W74212  25.159   6.686   3.695
 5872W        W74213  43.015  11.625  10.990
 5873W        W74214  33.549  37.577  13.935
 5874W        W74215   3.352  24.178  14.818
 5875W        W74216  38.062   4.867   3.837
 5876W        W74217   9.332   2.452   2.356
 5877W        W74218   0.968  20.230  14.386
 5878W        W74219  38.893  31.435  12.039
 5879W        W74220  11.780  23.197   3.660
 5880W        W74221   9.671  17.681   0.773
 5881W        W74222   3.770   2.350  13.411
 5882W        W74223  13.724  22.630   3.855
 5883W        W74224  28.098  39.454   2.687
 5884W        W74225  13.298  29.920   0.799
 5885W        W74226  43.488  20.725   5.567
 5886W        W74227   3.455  12.848   0.438
 5887W        W74228  42.014  42.929   5.765
 5888W        W74229  25.191   5.885  11.412
 5889W        W74230   2.265  33.417  10.051
 5890W        W74231  21.637  16.645  14.838
 5891W        W74232  44.317  34.052  14.858
 5892W        W74233  44.429  27.558  10.578
 5893W        W74234  41.428  23.195  14.307
 5894W        W74235  29.513  21.029   9.920
 5895W        W74236  27.189  14.667   3.735
 5896W        W74237  24.147  26.575   4.164
 5897W        W74238  25.090  35.447   3.305
 5898W        W74239  10.326  24.208  14.827
 5899W        W74240   8.336  41.833   3.196
 5900W        W74241  28.519  27.586  13.333
 5901W        W74242   6.840  27.468   0.361
 5902W        W74243  40.809  35.051  10.535
 5903W        W74244  15.791  14.674   0.860
 5904W        W74245  23.595   7.757  10.644
 5905W        W74246  35.922  21.578   0.865
 5906W        W74247  16.113  18.198   4.319
 5907W        W74248  25.177   9.654   1.390
 5908W        W74249   6.274  39.927   4.294
 5909W        W74250  14.834  20.673  10.947
 5910W        W74251  22.197  37.394  12.494
 5911W        W74252  30.050   6.732  13.377
 5912W        W74253  15.254  33.896   3.210
 5913W        W74254  19.067  33.426  11.408
 5914W        W74255  28.601  14.202  12.875
 5915W        W74256  24.113  34.531   3.172
 5916W        W74257   7.245   5.355  10.488
 5917W        W74258  31.525  26.062  13.500
 5918W        W74259  13.812  28.556   3.224
 5919W        W74260  38.918  42.896   3.855
 5920W        W74261   9.263  26.660   3.845
 5921W        W74262  37.843  14.236   4.685
 5922W        W74263   0.254  13.234  14.320
 5923W        W74264  37.066  29.946  14.923
 5924W        W74265  39.555  18.226  11.521
 5925W        W74266  24.564  19.619  14.429
 5926W        W74267  13.175  11.756  11.876
 5927W        W74268  10.330  11.369   2.885
 5928W        W74269  30.960  11.240  14.469
 5929W        W74270  12.333  34.403   2.222
 5930W        W74271   8.215  23.134  12.877
 5931W        W74272  26.046  17.201   1.908
 5932W        W74273  30.144  27.111   2.198
 5933W        W74274  42.511  20.680   4.299
 5934W        W74275  17.214  13.733  13.484
 5935W        W74276   2.251  39.452   1.365
 5936W        W74277   5.706   0.750   3.276
 5937W        W74278   8.308   9.205   0.869
 5938W        W74279  44.429  32.576  14.881
 5939W        W74280  42.993  20.548   2.814
 5940W        W74281  35.055  11.731  14.761
 5941W        W74282  43.287   7.867   0.897
 5942W        W74283  12.248  10.864   1.712
 5943W        W74284  24.131  37.085  14.359
 5944W        W74285  32.584  38.536   5.302
 5945W        W74286  25.989  24.211   0.734
 5946W        W74287  17.686  28.678  12.506
 5947W        W74288  14.199  39.514  12.000
 5948W        W74289  18.639   1.927  14.496
 5949W        W74290  17.770   3.799  13.936
 5950W        W74291  35.066  44.397  13.359
 5951W        W74292  16.239  22.649   1.835
 5952W        W74293  32.953  22.583  11.933
 5953W        W74294   2.795  23.068  11.524
 5954W        W74295  17.672   5.900  13.362
 5955W        W74296  10.662   7.339  10.981
 5956W        W74297  24.601   5.282  14.336
 5957W        W74298  38.992   6.261  14.369
 5958W        W74299  30.476  37.507   3.353
 5959W        W74300  16.084   8.255  13.344
 5960W        W74301  22.637  34.414  11.076
 5961W        W74302  34.058  32.428   3.854
 5962W        W74303  31.522  18.775   3.632
 5963W        W74304   3.937  17.628  12.542
 5964W        W74305   3.759  37.416   1.901
 5965W        W74306  28.172  22.181  12.576
 5966W        W74307  22.556  35.391  10.455
 5967W        W74308   6.258  10.801  12.050
 5968W        W74309  13.824  31.599  13.362
 5969W        W74310  44.313  32.961  10.909
 5970W        W74311  33.549  33.553  13.545
 5971W        W74312  24.069  33.393   1.743
 5972W        W74313   2.818  18.149   0.366
 5973W        W74314  20.537   1.464  13.048
 5974W        W74315  12.314  23.626   0.282
 5975W        W74316  25.179  11.311  13.357
 5976W        W74317  38.461   6.731   0.811
 5977W        W74318  40.876  26.985  14.437
 5978W        W74319  27.657   9.376  11.464
 5979W        W74320  41.442  34.002  12.548
 5980W        W74321  28.074   7.770   2.798
 5981W        W74322  37.462  23.520  10.587
 5982W        W74323  32.597  18.631   0.751
 5983W        W74324  43.895  36.918   2.746
 5984W        W74325  16.729  32.113   4.773
 5985W        W74326  34.997   4.720   0.358
 5986W        W74327   7.786  25.522   2.385
 5987W        W74328  34.503  37.451   2.358
 5988W        W74329  43.899  28.452  12.069
 5989W        W74330  43.275   3.374   5.280
 5990W        W74331  12.229   5.394   4.176
 5991W        W74332  11.758  12.699   2.752
 5992W        W74333  18.195  14.327   0.844
 5993W        W74334  16.222  12.630   3.168
 5994W        W74335  16.177  11.230   1.777
 5995W        W74336  14.318   2.251   4.285
 5996W        W74337   4.895   6.795   1.909
 5997W        W74338  37.955  26.119  12.430
 5998W        W74339  44.990  43.979   3.216
 5999W        W74340   1.412  20.678  12.571
 6000W        W74341  12.769  27.173  12.872
 6001W        W74342  37.368   7.756  11.565
 6002W        W74343  10.719  29.507  13.529
 6003W        W74344  24.210  37.356  14.443
 6004W        W74345  35.604  21.664  12.500
 6005W        W74346  17.060  27.655   1.888
 6006W        W74347  12.174  14.334   0.307
 6007W        W74348  23.226  12.184   3.690
 6008W        W74349  18.634   1.949   1.781
 6009W        W74350  32.942  21.171  12.863
 6010W        W74351   1.273  20.727   3.839
 6011W        W74352  42.477  27.163   1.338
 6012W        W74353  38.896  42.520   3.241
 6013W        W74354  33.412  25.552  14.466
 6014W        W74355  22.654  31.930   1.804
 6015W        W74356   4.889  10.376  13.541
 6016W        W74357  11.361  14.743   4.247
 6017W        W74358  27.136  19.601  10.959
 6018W        W74359  23.661  33.394  14.853
 6019W        W74360  19.683  12.803  10.898
 6020W        W74361  10.739  29.028   0.432
 6021W        W74362  31.972  16.220   1.930
 6022W        W74363   9.173  17.775   4.179
 6023W        W74364  32.407  30.972  13.308
 6024W        W74365  16.130  17.675  12.350
 6025W        W74366  32.929  39.476   5.695
 6026W        W74367  35.099   6.233   1.929
 6027W        W74368   4.300   5.808   4.695
 6028W        W74369  29.104  12.242   4.799
 6029W        W74370  13.806  43.512   0.793
 6030W        W74371  42.875   5.928  11.411
 6031W        W74372  17.647   5.884  12.518
 6032W        W74373  15.199  17.604   4.275
 6033W        W74374  38.927  35.970  12.011
 6034W        W74375  43.964   4.369   2.377
 6035W        W74376   3.827   4.929  12.392
 6036W        W74377  32.450  37.498  11.491
 6037W        W74378  37.441  31.081   0.300
 6038W        W74379  16.623  12.190   0.284
 6039W        W74380   0.827   7.810   1.863
 6040W        W74381   2.760  40.941   2.872
 6041W        W74382   2.752   9.709   0.386
 6042W        W74383  21.147  28.459  11.564
 6043W        W74384  37.434  28.113   2.764
 6044W        W74385  26.158   3.232  13.452
 6045W        W74386  31.484   9.254   1.311
 6046W        W74387  31.951   2.799   0.751
 6047W        W74388   8.803  30.104  12.944
 6048W        W74389  12.628  32.530  13.058
 6049W        W74390  12.298  18.755   1.399
 6050W        W74391   0.450   7.290  11.069
 6051W        W74392   3.378   8.355  13.836
 6052W        W74393  33.604  16.767   2.225
 6053W        W74394  11.759  41.366   2.795
 6054W        W74395  37.490  33.419   3.238
 6055W        W74396  20.634  18.246  10.638
 6056W        W74397  43.458   3.775  12.456
 6057W        W74398  31.118  22.674  13.939
 6058W        W74399  37.037  11.762  12.960
 6059W        W74400  43.470  26.572   4.270
 6060W        W74401  39.440   2.416   2.336
 6061W        W74402  31.563  43.303  10.466
 6062W        W74403  28.607  18.059  11.444
 6063W        W74404   2.744   0.786  13.006
 6064W        W74405  32.094  15.328   0.297
 6065W        W74406  32.111  15.774   4.652
 6066W        W74407   6.193  18.266   3.165
 6067W        W74408   2.447  26.176   4.339
 6068W        W74409  34.999  17.784   3.834
 6069W        W74410   9.780  29.567   2.231
 6070W        W74411  38.977  16.300  14.964
 6071W        W74412   2.733  38.478   1.220
 6072W        W74413  40.310  37.425  14.872
 6073W        W74414  11.726   5.821  14.894
 6074W        W74415  31.938   3.773   4.248
 6075W        W74416  22.180  43.450   4.792
 6076W        W74417  21.164   4.806   5.262
 6077W        W74418   4.212  37.049   3.190
 6078W        W74419  14.664   5.390  14.280
 6079W        W74420  42.938  18.085   0.833
 6080W        W74421   0.287  31.914   2.828
 6081W        W74422  38.520  39.545  12.029
 6082W        W74423   9.185  19.685   0.956
 6083W        W74424  36.367  26.479  14.933
 6084W        W74425  43.771  10.825   4.185
 6085W        W74426   5.354  15.097   4.754
 6086W        W74427   5.698  28.966   3.240
 6087W        W74428  34.985  14.203  14.456
 6088W        W74429  10.822  12.313  14.391
 6089W        W74430  28.448  16.608  14.983
 6090W        W74431   0.296   7.334  10.430
 6091W        W74432   8.395  18.140  12.471
 6092W        W74433  38.893   1.304   3.806
 6093W        W74434   7.871  38.350   1.347
 6094W        W74435  27.556  44.478   0.297
 6095W        W74436  42.874  27.987  13.952
 6096W        W74437   5.367  26.038  10.983
 6097W        W74438  31.106  39.377  13.341
 6098W        W74439   5.365   5.812   0.845
 6099W        W74440  12.313  24.003  10.958
 6100W        W74441  16.643  19.172   3.226
 6101W        W74442  11.801  39.964   5.137
 6102W        W74443   8.856  15.789   0.280
 6103W        W74444  35.584  40.469   0.471
 6104W        W74445  18.262  13.733  12.564
 6105W        W74446   5.390  43.502  12.982
 6106W        W74447  30.483  44.805   1.810
 6107W        W74448  20.201   7.188  12.026
 6108W        W74449  41.370  38.942   2.277
 6109W        W74450  11.689   1.316   0.964
 6110W        W74451  34.022  24.567   2.709
 6111W        W74452   6.698  35.028  10.537
 6112W        W74453  25.570  23.694  12.408
 6113W        W74454  40.015   3.371   0.301
 6114W        W74455  10.792  43.282  13.000
 6115W        W74456  24.199   3.896  11.582
 6116W        W74457  40.973  20.116   2.850
 6117W        W74458  32.094  32.048  14.306
 6118W        W74459  17.563  19.702  10.586
 6119W        W74460  34.573  21.615  10.517
 6120W        W74461  40.480  10.821  14.494
 6121W        W74462  43.021  18.601  10.143
 6122W        W74463  35.941   1.794  13.978
 6123W        W74464  33.974  38.394  12.879
 6124W        W74465  20.236  44.271   9.940
 6125W        W74466   8.686   2.748   1.903
 6126W        W74467  38.536  38.076  11.928
 6127W        W74468  37.883  40.031  14.006
 6128W        W74469   3.232   9.359  14.408
 6129W        W74470  28.012  34.990  11.547
 6130W        W74471   3.286  38.404  12.842
 6131W        W74472   2.374   3.949   0.388
 6132W        W74473  25.685   4.943   0.369
 6133W        W74474  11.293  40.006   4.127
 6134W        W74475  19.660  34.912  13.953
 6135W        W74476  26.573  23.227  11.431
 6136W        W74477  37.989  37.941   0.370
 6137W        W74478  38.832   2.419  12.342
 6138W        W74479  18.273  44.896  10.588
 6139W        W74480  18.689   5.309  11.597
 6140W        W74481  40.304  27.064   3.355
 6141W        W74482  39.052  31.619  13.024
 6142W        W74483   3.328  41.813  12.507
 6143W        W74484  32.591   3.425  12.439
 6144W        W74485  10.838   0.826  12.986
 6145W        W74486   7.388  14.271   4.722
 6146W        W74487  30.923  21.061   1.394
 6147W        W74488  32.038  27.179  14.439
 6148W        W74489  25.548  32.535  10.641
 6149W        W74490  44.351  13.332  10.486
 6150W        W74491  11.683   6.919  14.369
 6151W        W74492  14.155  17.183   1.231
 6152W        W74493  15.243  15.701  11.939
 6153W        W74494  34.905  30.939  10.567
 6154W        W74495  17.692  17.592   2.417
 6155W        W74496  40.946  16.316   1.899
 6156W        W74497  37.865   8.658   1.818
 6157W        W74498  38.395  21.568   0.965
 6158W        W74499  33.386  43.822  13.912
 6159W        W74500  43.437  16.606  13.519
 6160W        W74501  38.534  21.521   2.695
 6161W        W74502  10.175  35.453   1.707
 6162W        W74503  24.698  31.022   2.222
 6163W        W74504  28.664  10.318  12.852
 6164W        W74505  37.335  11.791   0.369
 6165W        W74506  36.556  38.856  10.534
 6166W        W74507   1.746  11.698   1.439
 6167W        W74508  23.567  35.915  10.929
 6168W        W74509  16.284   4.251   3.807
 6169W        W74510  26.458  10.216  14.342
 6170W        W74511   3.752  27.999   3.330
 6171W        W74512  24.570   2.247  10.946
 6172W        W74513  37.081   8.276  14.973
 6173W        W74514  35.571  39.997   4.779
 6174W        W74515  16.637   4.316  14.399
 6175W        W74516   0.854  16.686   0.272
 6176W        W74517  40.899  37.560  11.961
 6177W        W74518   8.698  24.048  13.359
 6178W        W74519  19.718   8.871  11.584
 6179W        W74520  36.041  19.608  12.579
 6180W        W74521  30.559   7.722   1.450
 6181W        W74522  18.099  15.786   1.403
 6182W        W74523  18.271   6.910   2.669
 6183W        W74524  30.107  17.248  10.566
 6184W        W74525  37.559  41.301   1.809
 6185W        W74526  44.756  37.419  12.089
 6186W        W74527  38.324  25.001  13.884
 6187W        W74528  29.104  39.935  10.984
 6188W        W74529  39.339   9.389   0.872
 6189W        W74530  37.570   0.945  13.401
 6190W        W74531  31.597  11.189   4.136
 6191W        W74532  24.538  18.698   5.185
 6192W        W74533   4.292   2.302   3.350
 6193W        W74534   3.391   9.346   2.352
 6194W        W74535   4.769  12.268   3.780
 6195W        W74536  11.371  12.856   2.363
 6196W        W74537  35.522  44.394   3.870
 6197W        W74538   7.792  22.130  13.021
 6198W        W74539  29.647  39.821   4.679
 6199W        W74540  44.416  11.147   4.164
 6200W        W74541  36.066   1.385  13.490
 6201W        W74542  22.663   7.249   9.952
 6202W        W74543  27.101  21.564  12.379
 6203W        W74544   6.828  28.604  13.861
 6204W        W74545  12.832   6.742  10.483
 6205W        W74546  43.875  14.690  12.870
 6206W        W74547  17.064  23.523   1.250
 6207W        W74548  44.998  34.389  10.422
 6208W        W74549  11.729   9.212  10.480
 6209W        W74550  25.678  20.034  12.362
 6210W        W74551   0.415   8.291   2.328
 6211W        W74552  14.315  32.392  11.457
 6212W        W74553  38.856   1.895   1.847
 6213W        W74554   9.226  33.424  13.814
 6214W        W74555  34.986   1.851  12.384
 6215W        W74556  20.134  44.328  12.960
 6216W        W74557   8.167   7.376  12.406
 6217W        W74558   5.712  29.102  13.478
 6218W        W74559   2.853   8.325  11.574
 6219W        W74560  32.615  41.510   1.367
 6220W        W74561  44.412   5.396  12.456
 6221W        W74562  22.019  42.281  11.891
 6222W        W74563   2.259  24.168   2.771
 6223W        W74564  24.711   2.327  12.985
 6224W        W74565  33.947   9.833  13.441
 6225W        W74566  19.759  34.098   3.164
 6226W        W74567   3.402   0.427   3.270
 6227W        W74568   4.353   0.952   4.252
 6228W        W74569  37.079  22.731   4.796
 6229W        W74570  20.252  23.064   0.872
 6230W        W74571  23.584  14.233   0.430
 6231W        W74572  20.044   0.428  11.077
 6232W        W74573  19.163  34.417   0.444
 6233W        W74574  21.543  44.484   0.866
 6234W        W74575   2.870  13.767  14.903
 6235W        W74576   2.378  39.063   4.294
 6236W        W74577  18.760  42.964   2.790
 6237W        W74578   3.433  19.733  10.126
 6238W        W74579  35.466  25.190   0.439
 6239W        W74580  40.813  29.486   4.779
 6240W        W74581  40.474  43.876  14.350
 6241W        W74582  34.569  44.840  11.461
 6242W        W74583  13.692  21.524   3.783
 6243W        W74584  35.021   2.916  10.520
 6244W        W74585  42.431  10.814   1.296
 6245W        W74586  32.095  18.098   2.741
 6246W        W74587  29.023  32.450  13.806
 6247W        W74588  36.908  29.424  14.452
 6248W        W74589  21.118   6.332  13.368
 6249W        W74590  44.876  44.292   4.194
 6250W        W74591   8.798  14.762  11.573
 6251W        W74592  17.599  32.628   0.764
 6252W        W74593  38.849  36.091   2.223
 6253W        W74594  39.422  15.297   2.863
 6254W        W74595  38.864  29.014   0.242
 6255W        W74596  31.617  28.990  10.639
 6256W        W74597  14.620  40.341   0.467
 6257W        W74598  37.911   1.795   0.393
 6258W        W74599  30.908  16.146   0.745
 6259W        W74600   0.972  20.566  11.089
 6260W        W74601  20.630  26.592  11.888
 6261W        W74602  17.557  38.375   1.901
 6262W        W74603  15.730  33.978  12.039
 6263W        W74604   7.672  16.571   1.328
 6264W        W74605  10.200  14.810   3.301
 6265W        W74606  16.711  34.956   5.698
 6266W        W74607  23.516   8.330  13.996
 6267W        W74608  12.620  22.704  12.084
 6268W        W74609  38.460   1.405   0.772
 6269W        W74610  38.386   2.411  12.083
 6270W        W74611  44.908  18.112   4.266
 6271W        W74612  29.549  37.540  11.587
 6272W        W74613  24.221   4.753  10.524
 6273W        W74614  12.310  23.602  10.425
 6274W        W74615  38.420  28.606  12.364
 6275W        W74616  20.068  27.951  11.054
 6276W        W74617  32.604  17.708   2.850
 6277W        W74618  33.466  20.613   1.354
 6278W        W74619  36.493  19.106   0.293
 6279W        W74620  28.630  34.533  14.830
 6280W        W74621  31.539  40.494   0.338
 6281W        W74622  31.513  29.484   1.414
 6282W        W74623  40.874  43.455   0.263
 6283W        W74624   8.301  18.625  14.017
 6284W        W74625  32.081   3.262  14.932
 6285W        W74626   8.383  20.657  12.992
 6286W        W74627  44.461  31.522   4.686
 6287W        W74628  43.426  10.680   2.737
 6288W        W74629  24.702  28.615   9.971
 6289W        W74630  38.846  12.842  13.877
 6290W        W74631   4.797   0.791   2.883
 6291W        W74632  18.270  21.252  10.631
 6292W        W74633   8.888   7.311  11.945
 6293W        W74634  44.443   7.824  12.090
 6294W        W74635   1.356  27.621  13.954
 6295W        W74636  25.570  20.685  12.861
 6296W        W74637  42.366  34.515   3.723
 6297W        W74638  33.998  30.646   4.292
 6298W        W74639  11.852  37.352   4.203
 6299W        W74640  33.581  15.176  11.945
 6300W        W74641  29.124  16.110  14.957
 6301W        W74642   3.424  42.417  11.941
 6302W        W74643   8.857  13.736   4.116
 6303W        W74644  34.582  41.349   0.847
 6304W        W74645  16.273  29.152   4.314
 6305W        W74646  11.773  20.257   2.244
 6306W        W74647  28.005  33.911   4.220
 6307W        W74648   4.943  20.130   0.892
 6308W        W74649  27.583  15.186  11.905
 6309W        W74650  17.581  29.950  12.890
 6310W        W74651  12.319  13.174  12.979
 6311W        W74652  16.129  42.804   4.169
 6312W        W74653   0.326   9.808  13.925
 6313W        W74654  42.306  42.803   0.300
 6314W        W74655  10.777  42.936   2.803
 6315W        W74656   6.759  10.290   0.425
 6316W        W74657  35.896  28.988  13.045
 6317W        W74658  13.272  29.567  11.988
 6318W        W74659  33.051   7.391   1.216
 6319W        W74660   0.419  19.598   4.286
 6320W        W74661   7.866  17.185   2.674
 6321W        W74662  39.005  10.232   1.845
 6322W        W74663   9.693   7.171  13.369
 6323W        W74664  13.345   6.739  13.416
 6324W        W74665  14.223  17.644  11.948
 6325W        W74666  14.712  21.121  12.510
 6326W        W74667  28.446  27.102  10.930
 6327W        W74668  11.794   9.697  12.507
 6328W        W74669  32.459  25.161   2.853
 6329W        W74670  42.005   3.954   2.892
 6330W        W74671  11.155  37.538   0.406
 6331W        W74672  19.047  10.875   0.322
 6332W        W74673  40.833  28.011  11.983
 6333W        W74674  20.054  34.973  12.916
 6334W        W74675  31.051  40.914   2.386
 6335W        W74676   0.834  14.188   3.800
 6336W        W74677  42.391  24.513   4.262
 6337W        W74678  37.037  41.792   4.787
 6338W        W74679  24.634  27.639   0.335
 6339W        W74680   6.899  12.669   2.191
 6340W        W74681  22.108   4.746   2.283
 6341W        W74682   7.202  26.565   1.329
 6342W        W74683  44.443  33.926   0.853
 6343W        W74684   9.695  18.122  13.521
 6344W        W74685  23.656  20.577  12.405
 6345W        W74686  33.413  27.940  13.056
 6346W        W74687  13.684  26.951  12.958
 6347W        W74688   5.800  37.399  13.855
 6348W        W74689  24.138  20.726  13.394
 6349W        W74690   6.906  35.521  13.363
 6350W        W74691   5.359  36.421  10.643
 6351W        W74692  33.443  38.516   3.630
 6352W        W74693   7.193  37.855   4.777
 6353W        W74694  28.512   5.423   2.334
 6354W        W74695   1.861  24.975  12.419
 6355W        W74696  20.628  18.260  12.484
 6356W        W74697  17.129  36.918  11.951
 6357W        W74698   2.821  10.233  14.507
 6358W        W74699  34.501   4.878  11.015
 6359W        W74700  16.190  42.475  12.560
 6360W        W74701   1.855   4.802   0.455
 6361W        W74702  16.735  24.024   3.273
 6362W        W74703   3.841   0.384  13.423
 6363W        W74704   8.872   9.373  11.909
 6364W        W74705  22.531   5.387  14.334
 6365W        W74706  22.723   7.815  12.898
 6366W        W74707  24.025  33.539  13.439
 6367W        W74708  33.060  31.973   0.458
 6368W        W74709  33.419   5.405   3.702
 6369W        W74710  32.598   9.669   3.717
 6370W        W74711  19.697  34.426   4.680
 6371W        W74712   5.921  31.562   2.851
 6372W        W74713  10.223  40.454   3.318
 6373W        W74714   2.443  15.226   3.299
 6374W        W74715  41.793  28.003   2.350
 6375W        W74716   4.714  26.997  13.420
 6376W        W74717  32.455  21.611   0.443
 6377W        W74718  10.345  39.967   1.934
 6378W        W74719  17.759   7.896  10.511
 6379W        W74720  35.093  32.551   1.392
 6380W        W74721  37.576  39.931  13.028
 6381W        W74722  37.940  11.846  14.442
 6382W        W74723  30.958  23.176  14.828
 6383W        W74724  37.892  21.734   1.914
 6384W        W74725  13.113   8.194  13.919
 6385W        W74726  32.455  39.503   5.214
 6386W        W74727  33.036  11.127   2.355
 6387W        W74728  21.240   1.882  11.069
 6388W        W74729   9.361  42.934   0.775
 6389W        W74730  23.035   2.267   3.309
 6390W        W74731   7.283  37.078  12.845
 6391W        W74732  21.149  25.487   0.885
 6392W        W74733  24.995  29.643   1.888
 6393W        W74734  16.627  32.420  11.860
 6394W        W74735  35.505  17.646   0.732
 6395W        W74736   6.425   9.242  13.049
 6396W        W74737  26.078  18.646   4.281
 6397W        W74738  29.661  13.211  11.052
 6398W        W74739  40.541  39.327   4.722
 6399W        W74740  13.808  27.067  13.441
 6400W        W74741  41.961  28.157  10.083
 6401W        W74742  12.357   8.382   4.280
 6402W        W74743  13.779  16.747   1.898
 6403W        W74744  17.660   4.902   0.481
 6404W        W74745  37.470  10.260   1.832
 6405W        W74746  40.331   3.299   5.091
 6406W        W74747  14.107  31.960   1.851
 6407W        W74748  14.240  34.959   0.308
 6408W        W74749  40.009   0.383  11.857
 6409W        W74750  10.153  30.134  11.388
 6410W        W74751  35.571  20.559   2.762
 6411W        W74752  21.106  40.004   2.197
 6412W        W74753  16.747  22.515  12.072
 6413W        W74754  26.002  19.725  12.435
 6414W        W74755  20.051  32.904  14.977
 6415W        W74756   5.912  20.053   1.728
 6416W        W74757  13.170  25.540   0.951
 6417W        W74758   7.874  43.272   0.900
 6418W        W74759   0.458  29.048  11.032
 6419W        W74760  41.033   6.777  11.582
 6420W        W74761  23.005  11.804   4.838
 6421W        W74762  44.338  38.885  14.323
 6422W        W74763  15.325  22.666  14.945
 6423W        W74764  13.155  13.784   0.743
 6424W        W74765  12.349  27.942   1.695
 6425W        W74766  38.979  11.800  14.762
 6426W        W74767  29.570  40.871  11.036
 6427W        W74768   4.292  13.160  14.981
 6428W        W74769  23.115  32.482  11.528
 6429W        W74770  29.592  35.866   2.703
 6430W        W74771   7.373  30.090   2.713
 6431W        W74772  38.867  11.231   2.340
 6432W        W74773  30.115  13.731   3.168
 6433W        W74774   2.784  29.636  10.507
 6434W        W74775   5.872  22.094  12.371
 6435W        W74776  27.482  11.843   4.287
 6436W        W74777   4.870  44.995  11.910
 6437W        W74778  11.321  44.899   0.417
 6438W        W74779  18.700   6.867   4.216
 6439W        W74780  33.445  44.886  13.490
 6440W        W74781  22.729  12.207  12.415
 6441W        W74782  34.004  16.167  11.527
 6442W        W74783  31.514   8.226   4.764
 6443W        W74784   7.180  16.137   2.182
 6444W        W74785  33.004  11.355  12.023
 6445W        W74786  10.296  14.146   1.251
 6446W        W74787   8.383  33.885   3.737
 6447W        W74788  42.374  44.274  11.437
 6448W        W74789  13.108  37.489   3.335
 6449W        W74790  44.486  38.504  10.455
 6450W        W74791  39.510   0.825   3.838
 6451W        W74792  35.098  26.062  11.593
 6452W        W74793  10.744  30.949  10.607
 6453W        W74794  44.821  43.287  12.488
 6454W        W74795  13.608  27.014   1.223
 6455W        W74796  29.948   4.396   0.836
 6456W        W74797  38.026  17.301   0.897
 6457W        W74798   8.790  14.122   4.293
 6458W        W74799   0.858  18.600  11.060
 6459W        W74800  31.620  32.449   1.842
 6460W        W74801  42.506  36.455   4.349
 6461W        W74802  13.704  34.989  11.045
 6462W        W74803   4.878  11.851  11.878
 6463W        W74804  26.201  20.735  10.933
 6464W        W74805   2.955  41.030  12.863
 6465W        W74806  19.203   3.739   0.735
 6466W        W74807  27.524  36.057  14.859
 6467W        W74808  32.519  41.456   4.649
 6468W        W74809  23.068  34.605  12.571
 6469W        W74810  35.968  30.004  11.391
 6470W        W74811  44.322  38.062   0.852
 6471W        W74812   7.275  43.371  13.914
 6472W        W74813  44.995   1.747   1.863
 6473W        W74814  41.820  14.128   0.345
 6474W        W74815  33.985  15.083   2.850
 6475W        W74816   8.679  27.619  10.473
 6476W        W74817  11.763  17.078   2.886
 6477W        W74818  43.306  29.477  14.930
 6478W        W74819  40.318   9.768   3.641
 6479W        W74820  14.696  39.510   5.216
 6480W        W74821  30.068   7.339   4.825
 6481W        W74822  11.338  22.217   3.217
 6482W        W74823  19.543  43.434   3.357
 6483W        W74824  30.070  31.964  11.433
 6484W        W74825  30.441   1.863   1.731
 6485W        W74826  16.150  42.449   2.275
 6486W        W74827  11.819  18.590  11.962
 6487W        W74828   1.271  27.001   4.713
 6488W        W74829  26.969  23.723   0.880
 6489W        W74830   0.415   9.764  12.563
 6490W        W74831  31.490   6.824   2.406
 6491W        W74832  22.234  17.305  12.473
 6492W        W74833  43.438  12.359  11.447
 6493W        W74834  22.557  43.948  13.796
 6494W        W74835   1.398  29.663  11.535
 6495W        W74836  10.762  41.509  12.544
 6496W        W74837  44.827  22.570   0.426
 6497W        W74838  13.731   6.800  13.958
 6498W        W74839   7.747  42.326  13.358
 6499W        W74840  36.386  28.969  13.366
 6500W        W74841   1.446   0.419   3.743
 6501W        W74842   8.195   2.308  14.847
 6502W        W74843  18.553  35.068  12.042
 6503W        W74844  33.512  34.030  11.884
 6504W        W74845  43.328  30.454  10.146
 6505W        W74846  36.472  44.429  13.338
 6506W        W74847  21.647   7.395  10.984
 6507W        W74848   5.756  25.978  14.327
 6508W        W74849   6.195   5.332   3.280
 6509W        W74850  38.824  25.146   4.266
 6510W        W74851  41.012   8.195   2.868
 6511W        W74852  21.060   8.313   2.361
 6512W        W74853   3.421  15.777  12.359
 6513W        W74854  29.451  43.276   4.695
 6514W        W74855   4.945  20.673   0.468
 6515W        W74856  13.172  43.419  11.439
 6516W        W74857  10.647  21.668   3.722
 6517W        W74858  33.499   8.174   2.397
 6518W        W74859  22.076   1.908   3.155
 6519W        W74860  15.150  27.997  13.857
 6520W        W74861  12.303   0.805   2.829
 6521W        W74862  13.696  28.142  14.866
 6522W        W74863  40.359  36.025  13.061
 6523W        W74864  18.556  15.823  12.527
 6524W        W74865  29.039  35.093   2.225
 6525W        W74866  41.946  43.860  12.866
 6526W        W74867   2.722  18.641   2.197
 6527W        W74868  36.414  27.155  13.311
 6528W        W74869  31.424   7.321  11.464
 6529W        W74870  17.590  15.662  13.543
 6530W        W74871  18.162  31.896   1.821
 6531W        W74872  30.649  28.971   0.943
 6532W        W74873  15.186  37.407   4.741
 6533W        W74874  32.891  11.727   1.723
 6534W        W74875  39.848  13.185   4.128
 6535W        W74876   4.790   7.312  12.402
 6536W        W74877   7.790  27.557   4.298
 6537W        W74878  44.805  18.052  14.398
 6538W        W74879  12.227  32.520  12.471
 6539W        W74880  19.586  31.099  10.537
 6540W        W74881  44.765  44.268   0.377
 6541W        W74882  27.079  33.405  11.382
 6542W        W74883  35.597  12.829  10.635
 6543W        W74884   9.328  42.886  10.972
 6544W        W74885  15.097  22.531   5.678
 6545W        W74886  40.439  24.560   1.933
 6546W        W74887  39.543  42.376   1.763
 6547W        W74888   3.863  27.590  13.910
 6548W        W74889  24.107  18.787  10.545
 6549W        W74890  41.307  20.160   4.128
 6550W        W74891   9.721   5.411   2.332
 6551W        W74892  37.412  11.858  11.381
 6552W        W74893   4.212  41.359  10.985
 6553W        W74894  14.314  18.680  13.015
 6554W        W74895   9.270  30.152   0.754
 6555W        W74896  25.528  13.639  13.983
 6556W        W74897  36.473  31.025   0.817
 6557W        W74898   0.452  43.780  12.364
 6558W        W74899  39.491   1.276   1.449
 6559W        W74900  32.022  22.238  10.620
 6560W        W74901  33.116  41.983   5.206
 6561W        W74902  14.689  21.142  13.399
 6562W        W74903  41.432  19.135   3.328
 6563W        W74904   8.787  18.631   1.355
 6564W        W74905  42.497  30.463  13.468
 6565W        W74906   5.321  16.664  11.942
 6566W        W74907   0.863  18.783  14.496
 6567W        W74908  36.493  37.408  11.945
 6568W        W74909  36.894  12.171   2.203
 6569W        W74910  41.899  43.381   1.288
 6570W        W74911  40.832   2.242  13.337
 6571W        W74912  27.983   2.329  10.979
 6572W        W74913   3.727  24.547  11.929
 6573W        W74914   4.785  18.742  11.447
 6574W        W74915  14.608  20.267  12.342
 6575W        W74916  44.453   7.343   4.778
 6576W        W74917  43.466  21.231  12.053
 6577W        W74918  19.067  33.457  14.840
 6578W        W74919  44.777   1.410  11.871
 6579W        W74920  28.976   4.424   3.780
 6580W        W74921  13.618  36.423  12.081
 6581W        W74922   0.463  43.845   1.732
 6582W        W74923  36.921  33.561  10.560
 6583W        W74924  30.968  31.068  13.037
 6584W        W74925  12.700   9.383   0.368
 6585W        W74926  40.001  40.903   0.736
 6586W        W74927   2.725  33.036   2.893
 6587W        W74928  40.470   8.381  14.000
 6588W        W74929  14.667  36.482   0.942
 6589W        W74930  31.072  41.494   4.238
 6590W        W74931  11.193  24.683   1.317
 6591W        W74932  42.891  22.229  11.405
 6592W        W74933  14.609  19.215   0.915
 6593W        W74934  22.660  25.652   2.829
 6594W        W74935  10.768  21.602  10.483
 6595W        W74936  29.055  43.964  11.578
 6596W        W74937  11.273  23.016   0.925
 6597W        W74938  35.046  36.908   1.880
 6598W        W74939  17.281   8.883   4.252
 6599W        W74940   8.258  39.400  13.020
 6600W        W74941  39.963  34.874  14.477
 6601W        W74942   5.920  43.283   1.803
 6602W        W74943  11.659   0.440  11.403
 6603W        W74944   0.871  29.164  13.936
 6604W        W74945  33.033  34.049  14.008
 6605W        W74946  14.620   1.788   4.121
 6606W        W74947  35.912  23.649   0.728
 6607W        W74948  10.293  16.808  13.919
 6608W        W74949  19.227  44.879  11.046
 6609W        W74950  34.934  39.913   0.414
 6610W        W74951  17.611  32.426  10.404
 6611W        W74952  27.481  12.772   4.337
 6612W        W74953  37.081  31.476   3.379
 6613W        W74954  10.343   8.725  11.993
 6614W        W74955  32.551   7.724   1.884
 6615W        W74956  22.179  20.731   2.270
 6616W        W74957  37.037  41.436  14.780
 6617W        W74958  16.240   8.694   4.666
 6618W        W74959  44.455  17.077  13.955
 6619W        W74960  11.650   2.765  11.471
 6620W        W74961   2.283   4.699  14.854
 6621W        W74962   6.881   9.786  10.639
 6622W        W74963  38.452  16.237   0.910
 6623W        W74964  39.498  39.930   3.327
 6624W        W74965   6.353  15.300  13.860
 6625W        W74966   8.850  13.346  11.080
 6626W        W74967  10.330  14.783  13.968
 6627W        W74968  14.135  12.829  11.601
 6628W        W74969  35.959   0.387  12.541
 6629W        W74970  38.893  31.136   3.164
 6630W        W74971   7.361  37.361  11.409
 6631W        W74972  39.452  16.268   0.750
 6632W        W74973   4.714  12.623  12.473
 6633W        W74974  23.225  24.225  13.045
 6634W        W74975  38.900  30.498   3.714
 6635W        W74976  14.297  43.850  13.824
 6636W        W74977  15.267  28.120  10.941
 6637W        W74978  21.749  15.134  12.863
 6638W        W74979  15.760  36.903  14.852
 6639W        W74980   6.427  31.077  11.039
 6640W        W74981   3.910  14.304  13.415
 6641W        W74982   5.758   4.920   0.933
 6642W        W74983   7.201  22.519   2.221
 6643W        W74984  40.395  20.187  12.356
 6644W        W74985  31.632   9.848   0.860
 6645W        W74986   7.365  39.817  14.926
 6646W        W74987  24.634  42.433  12.028
 6647W        W74988   5.300  35.370   2.692
 6648W        W74989  33.429  32.956  14.887
 6649W        W74990  38.436  37.887  14.832
 6650W        W74991  18.551   8.190  11.526
 6651W        W74992  40.312  31.153  14.915
 6652W        W74993  33.418   0.939   0.864
 6653W        W74994   2.290  11.303   3.335
 6654W        W74995  34.531  12.252  13.506
 6655W        W74996   6.772  36.851  10.962
 6656W        W74997   8.841   4.440   2.695
 6657W        W74998  43.288  14.807   4.803
 6658W        W74999  26.163   8.313   3.222
 6659W        W75000  30.967   8.792   4.606
 6660W        W75001   8.742  27.651   0.436
 6661W        W75002  34.371  38.023   3.339
 6662W        W75003  24.025  13.717  11.107
 6663W        W75004   4.244  23.147   1.930
 6664W        W75005  25.160  37.540  13.944
 6665W        W75006  21.533  36.880  12.476
 6666W        W75007  20.247  15.261  14.986
 6667W        W75008  34.610   0.983   4.694
 6668W        W75009   3.896  33.512   0.819
 6669W        W75010  20.581   6.234   0.393
 6670W        W75011  38.325  36.377   0.852
 6671W        W75012   9.830   4.263  13.051
 6672W        W75013  16.679  30.146  14.366
 6673W        W75014   5.877  26.595   4.239
 6674W        W75015  20.682  24.493  11.405
 6675W        W75016   2.880   6.917   4.224
 6676W        W75017   2.337  20.676   1.251
 6677W        W75018  40.443   8.897   3.852
 6678W        W75019   3.927  31.119  11.906
 6679W        W75020  14.655  28.173  11.474
 6680W        W75021  18.147   0.268  13.327
 6681W        W75022  22.182  28.047   2.360
 6682W        W75023  35.505  27.688   0.758
 6683W        W75024  32.974   8.310  14.495
 6684W        W75025  41.334  41.491   3.368
 6685W        W75026  44.390  44.900  12.466
 6686W        W75027   4.356  31.060   2.732
 6687W        W75028  28.114  29.621  10.947
 6688W        W75029  16.796   7.905  14.995
 6689W        W75030  15.201  40.898  14.370
 6690W        W75031  14.269  24.117   0.369
 6691W        W75032  13.250  36.890  14.333
 6692W        W75033  43.478  12.613   2.389
 6693W        W75034  32.910   1.272   3.848
 6694W        W75035  12.819  31.427   4.199
 6695W        W75036  26.529  44.937  11.085
 6696W        W75037  26.594  19.653   1.442
 6697W        W75038  34.947   4.432   3.671
 6698W        W75039   2.251  40.443  10.499
 6699W        W75040  44.775   0.973   4.705
 6700W        W75041   5.420  10.340  11.598
 6701W        W75042   7.824  30.943  13.916
 6702W        W75043  23.608  37.461  11.068
 6703W        W75044  35.456  22.542  14.970
 6704W        W75045  10.734  18.134  11.015
 6705W        W75046  33.481  26.207  13.440
 6706W        W75047  38.976  13.817   0.283
 6707W        W75048  28.947  36.021  13.364
 6708W        W75049  31.626  30.534  10.408
 6709W        W75050  19.134  39.473  11.033
 6710W        W75051  21.648   6.788  14.466
 6711W        W75052   5.794  21.521   0.244
 6712W        W75053  12.796  15.613  13.043
 6713W        W75054   3.947  34.080   0.758
 6714W        W75055  21.241  38.542  11.417
 6715W        W75056  44.946   0.780   3.635
 6716W        W75057  27.098   3.718  10.457
 6717W        W75058   4.366  30.525  12.926
 6718W        W75059  39.410  38.999  10.054
 6719W        W75060  28.122   9.812   1.837
 6720W        W75061  17.658   8.849  12.994
 6721W        W75062  20.121  14.277  13.798
 6722W        W75063   4.907   2.346  12.883
 6723W        W75064  40.956  36.360  12.543
 6724W        W75065  40.837  32.461   4.744
 6725W        W75066  42.423  19.676  13.326
 6726W        W75067  41.377  20.590   2.404
 6727W        W75068  16.079   5.279   4.229
 6728W        W75069  21.676  41.016   3.373
 6729W        W75070  16.233  38.356  12.070
 6730W        W75071   2.774  38.024  14.006
 6731W        W75072  44.505  41.891  10.597
 6732W        W75073  22.028  20.761  12.519
 6733W        W75074   4.717  27.630  11.065
 6734W        W75075  30.988  37.078  11.582
 6735W        W75076  33.454  37.012   3.315
 6736W        W75077  31.931   1.854  11.598
 6737W        W75078   7.366  15.275  12.050
 6738W        W75079   5.284   0.875   0.375
 6739W        W75080  32.618  41.512   3.732
 6740W        W75081  32.025  28.565  11.477
 6741W        W75082  33.019   2.916   3.249
 6742W        W75083   9.222  24.546   0.303
 6743W        W75084   5.892  28.575   4.225
 6744W        W75085  23.142  29.516  11.449
 6745W        W75086   0.469  25.200   0.880
 6746W        W75087  21.107  27.071   2.408
 6747W        W75088  28.634  18.577   4.259
 6748W        W75089  20.712  28.137   3.375
 6749W        W75090   4.431  38.849   4.606
 6750W        W75091  38.412  29.106  10.973
 6751W        W75092  36.366   1.958  10.437
 6752W        W75093  22.608  25.551  13.490
 6753W        W75094  29.552  35.531  10.890
 6754W        W75095  30.461  37.940  14.280
 6755W        W75096  39.992   7.326   1.862
 6756W        W75097  44.287  18.774   2.391
 6757W        W75098   5.724  11.811   1.339
 6758W        W75099  40.804  11.149   0.436
 6759W        W75100  27.036  27.491   1.836
 6760W        W75101  23.990   9.698  13.813
 6761W        W75102  16.783  39.855   0.252
 6762W        W75103  26.198   1.455  13.978
 6763W        W75104  16.613  11.665  10.576
 6764W        W75105  12.257   2.421  14.435
 6765W        W75106   0.760  22.555  11.550
 6766W        W75107  15.777  29.021  11.558
 6767W        W75108  28.452  17.111   3.251
 6768W        W75109  15.733  24.991  12.043
 6769W        W75110  28.628  26.065  13.395
 6770W        W75111   5.309  24.718  14.998
 6771W        W75112  44.279   5.794  11.574
 6772W        W75113  18.271  35.037  10.637
 6773W        W75114  36.046  18.084   2.277
 6774W        W75115  11.740  43.292   3.767
 6775W        W75116   6.763  41.363   4.242
 6776W        W75117   5.724  41.494   0.748
 6777W        W75118   8.800  35.503  11.022
 6778W        W75119  35.522   8.204  13.314
 6779W        W75120  15.170   8.796   0.751
 6780W        W75121   6.351  14.323   3.819
 6781W        W75122  24.087   6.306  13.500
 6782W        W75123   9.744  38.419   4.319
 6783W        W75124  37.344  38.021   4.271
 6784W        W75125  14.698  37.560   5.250
 6785W        W75126  30.074   0.389  13.009
 6786W        W75127   7.904  14.337   1.357
 6787W        W75128  10.797  26.188   3.727
 6788W        W75129   7.258  18.163  12.569
 6789W        W75130  13.679   5.884  11.855
 6790W        W75131  33.600  12.613   1.340
 6791W        W75132  41.832  35.082   3.207
 6792W        W75133  40.517  23.586  11.405
 6793W        W75134   4.387  40.387   0.806
 6794W        W75135  10.758  21.608   2.310
 6795W        W75136  29.650  18.291   1.840
 6796W        W75137  24.135  44.393  11.491
 6797W        W75138  25.074  11.202   0.351
 6798W        W75139   4.206  14.320  11.567
 6799W        W75140   6.217   3.802  12.969
 6800W        W75141  15.135   0.434   4.159
 6801W        W75142   0.812  17.172  14.919
 6802W        W75143  34.907  38.353   1.881
 6803W        W75144  25.028  26.502   3.863
 6804W        W75145  29.527   0.794  13.832
 6805W        W75146  35.516   5.870   1.421
 6806W        W75147  41.852   3.731  12.408
 6807W        W75148  29.086  18.088  13.811
 6808W        W75149  37.978  28.484  11.944
 6809W        W75150  13.702   2.246   1.872
 6810W        W75151  20.077  16.594  13.799
 6811W        W75152  41.455  10.223   1.245
 6812W        W75153  31.579  14.644  13.542
 6813W        W75154  36.094  15.693   0.906
 6814W        W75155  44.952  34.018  12.499
 6815W        W75156  37.081  29.000   4.347
 6816W        W75157  23.587   5.907  10.494
 6817W        W75158  44.349  24.500   1.918
 6818W        W75159  33.977  29.600   0.454
 6819W        W75160  16.300  19.646   0.332
 6820W        W75161  24.107  14.328   4.179
 6821W        W75162  11.845  17.300  14.835
 6822W        W75163   2.459  16.738   1.871
 6823W        W75164  24.716   7.701   1.323
 6824W        W75165   3.947  19.200  12.892
 6825W        W75166  31.915  28.513  13.413
 6826W        W75167  32.523   9.224   1.443
 6827W        W75168  44.756  38.335   1.344
 6828W        W75169  19.220   8.180  14.397
 6829W        W75170  36.972  19.041   1.378
 6830W        W75171  15.300   9.776   3.725
 6831W        W75172  28.185  36.527   2.197
 6832W        W75173  39.966  39.930  13.900
 6833W        W75174  21.675   5.378  11.548
 6834W        W75175   7.667  35.449   1.905
 6835W        W75176  35.357   2.787   3.296
 6836W        W75177  34.614  23.594  10.941
 6837W        W75178  24.688   8.671   1.391
 6838W        W75179  21.749  10.643   1.372
 6839W        W75180  24.544  23.194  14.032
 6840W        W75181  36.012  44.350  13.019
 6841W        W75182  35.469  17.659   3.841
 6842W        W75183   9.364  13.712  12.005
 6843W        W75184  12.710  15.743  12.088
 6844W        W75185  27.080   5.258  13.490
 6845W        W75186  18.568  16.117  11.994
 6846W        W75187   7.886  26.076   1.813
 6847W        W75188  17.716  11.698   3.300
 6848W        W75189   4.416  23.681   1.813
 6849W        W75190   4.288  35.400  10.912
 6850W        W75191  42.989  17.591  12.523
 6851W        W75192  14.702  30.542  14.808
 6852W        W75193   5.222  42.993  11.891
 6853W        W75194   6.332  19.652   3.652
 6854W        W75195  26.091  26.173   3.740
 6855W        W75196   2.898   7.865  14.346
 6856W        W75197  13.295   7.276  14.373
 6857W        W75198  12.142   0.312   0.306
 6858W        W75199  14.319  17.606  13.340
 6859W        W75200  32.916  22.221  10.497
 6860W        W75201   0.894  19.063   5.577
 6861W        W75202  12.141  44.268   0.742
 6862W        W75203   6.387  40.955   3.836
 6863W        W75204  41.307  12.675   2.381
 6864W        W75205  19.250  39.032  11.513
 6865W        W75206  14.140  14.679   0.479
 6866W        W75207  16.212  43.976  10.610
 6867W        W75208   0.494  41.923  12.523
 6868W        W75209  38.065  11.174   4.180
 6869W        W75210  25.519   8.722  14.849
 6870W        W75211  26.507  41.308  13.416
 6871W        W75212  20.048  30.432   1.925
 6872W        W75213  37.881   4.310  11.020
 6873W        W75214  38.533  33.968   0.935
 6874W        W75215  13.336  31.631  13.517
 6875W        W75216  13.294  22.555  14.453
 6876W        W75217  22.730   0.813  11.498
 6877W        W75218  26.141  16.580  13.909
 6878W        W75219  24.226  30.132  12.433
 6879W        W75220  35.504  16.266  14.361
 6880W        W75221   4.244   5.252  14.512
 6881W        W75222   4.225   8.688  11.439
 6882W        W75223  23.006  32.013   3.246
 6883W        W75224  23.663  30.926  12.874
 6884W        W75225   7.714  12.806   2.700
 6885W        W75226  27.487  15.695   4.826
 6886W        W75227  22.740  26.493  12.049
 6887W        W75228  20.578  12.810  14.384
 6888W        W75229  29.064  41.529  14.468
 6889W        W75230  22.684  42.395  14.908
 6890W        W75231   5.898  19.753  12.431
 6891W        W75232  12.213  38.426  11.123
 6892W        W75233   0.428   9.156   1.395
 6893W        W75234  44.974  20.091   5.616
 6894W        W75235  31.962  24.076  12.557
 6895W        W75236  11.667   7.199  13.938
 6896W        W75237  36.522   1.402  13.327
 6897W        W75238  39.946   2.781  12.023
 6898W        W75239  17.125   2.410   1.364
 6899W        W75240   2.420  32.013   2.243
 6900W        W75241  43.461  25.706  11.382
 6901W        W75242  40.418   4.426  12.841
 6902W        W75243   7.875  21.644  12.082
 6903W        W75244  15.182  27.676   0.739
 6904W        W75245   7.682  28.139  11.593
 6905W        W75246   5.720   3.376  10.901
 6906W        W75247   5.315  14.780  13.423
 6907W        W75248  35.600  10.249  11.516
 6908W        W75249   1.360  17.279  10.133
 6909W        W75250  22.139  38.928  10.578
 6910W        W75251  36.894  18.197  12.996
 6911W        W75252  35.424  39.045   1.849
 6912W        W75253   7.836   8.249   2.774
 6913W        W75254  24.503  11.216  11.970
 6914W        W75255  22.634  41.327  10.457
 6915W        W75256  38.516  25.147  12.444
 6916W        W75257  40.350   3.322   2.267
 6917W        W75258  31.086  16.116  14.350
 6918W        W75259  15.725  33.966  10.076
 6919W        W75260  14.828  42.913  11.909
 6920W        W75261  37.972  19.106   3.356
 6921W        W75262   7.747  10.334  14.928
 6922W        W75263  11.225  22.670   4.227
 6923W        W75264  14.627   3.877   0.392
 6924W        W75265  16.676  36.088   3.172
 6925W        W75266  35.499   2.432   0.763
 6926W        W75267  26.047   0.846   1.416
 6927W        W75268  13.268  12.721   1.877
 6928W        W75269  24.000  44.353   2.356
 6929W        W75270   8.873   5.845   1.871
 6930W        W75271  25.149  14.623   5.167
 6931W        W75272   3.770  41.402  13.328
 6932W        W75273   2.949  38.419   4.318
 6933W        W75274   2.868  32.425   3.147
 6934W        W75275  31.028  40.041   9.565
 6935W        W75276  30.479  36.519   3.205
 6936W        W75277  43.319  22.017   3.745
 6937W        W75278  17.561  21.740   4.613
 6938W        W75279  24.168  20.263   2.305
 6939W        W75280  26.517  19.055  10.463
 6940W        W75281   2.916  22.208   0.429
 6941W        W75282  26.085  10.186  13.993
 6942W        W75283   3.244  18.190  10.068
 6943W        W75284  41.389  18.637   0.857
 6944W        W75285   6.276  36.409   2.250
 6945W        W75286  24.631  12.853   2.394
 6946W        W75287  11.177  33.442  13.028
 6947W        W75288  14.310   4.727  12.535
 6948W        W75289   4.854  35.032   0.447
 6949W        W75290  41.489   6.368   1.228
 6950W        W75291  34.097  31.407  14.910
 6951W        W75292  40.519  21.195   1.275
 6952W        W75293  10.375  21.679  10.409
 6953W        W75294  18.653  41.852  12.835
 6954W        W75295  44.477  32.995   2.665
 6955W        W75296  43.431   0.252  10.530
 6956W        W75297   6.694   8.790   3.686
 6957W        W75298  38.330  14.690   1.868
 6958W        W75299  35.075  33.116   3.264
 6959W        W75300  28.146   1.381   1.906
 6960W        W75301  40.388  22.138   2.805
 6961W        W75302   2.913   8.812   0.914
 6962W        W75303  43.360  16.593   2.293
 6963W        W75304  20.726   7.304  12.364
 6964W        W75305   0.837  11.796   3.689
 6965W        W75306   9.825  16.810  14.351
 6966W        W75307  12.815  36.415  13.018
 6967W        W75308  24.074   0.258   3.349
 6968W        W75309  40.417  25.058  11.004
 6969W        W75310  24.493   1.359   0.409
 6970W        W75311  33.533   5.313  10.528
 6971W        W75312  38.026  23.082   0.295
 6972W        W75313  18.257  43.453  11.484
 6973W        W75314   2.403  21.758  13.480
 6974W        W75315   5.345  29.141  13.834
 6975W        W75316  25.688  19.633   1.915
 6976W        W75317  38.432  30.065  11.129
 6977W        W75318   8.814  18.631   4.822
 6978W        W75319  39.862  41.976  11.111
 6979W        W75320  19.552   0.341   3.270
 6980W        W75321   9.380   3.781  14.279
 6981W        W75322  39.922  35.421   3.764
 6982W        W75323  37.363  13.664   0.934
 6983W        W75324  44.475  32.549   5.116
 6984W        W75325  18.677  13.811   0.926
 6985W        W75326  42.514  10.652  11.119
 6986W        W75327  22.666  38.962  11.924
 6987W        W75328  17.724   0.764  11.510
 6988W        W75329   6.276  40.391   2.899
 6989W        W75330  32.594  22.196   3.273
 6990W        W75331  11.259  42.384   4.325
 6991W        W75332  31.064   8.246   0.858
 6992W        W75333  24.674   7.328  10.469
 6993W        W75334  23.077  39.811  14.943
 6994W        W75335  43.984   7.360  14.299
 6995W        W75336  38.917  13.249  13.382
 6996W        W75337  18.274  14.643  13.053
 6997W        W75338   5.376  31.613  14.339
 6998W        W75339  10.690  24.704   0.329
 6999W        W75340  29.097  22.096   1.358
 7000W        W75341  15.814  14.259  10.043
 7001W        W75342  42.864  25.625  13.486
 7002W        W75343   1.925  16.680  12.840
 7003W        W75344  11.668   1.851  10.507
 7004W        W75345  18.189   8.395   1.302
 7005W        W75346   6.269  13.263   1.294
 7006W        W75347  11.688  43.837   1.748
 7007W        W75348  43.291  32.073  13.327
 7008W        W75349  30.983  33.615   4.154
 7009W        W75350  23.191  21.575   1.755
 7010W        W75351  12.850  30.454   3.866
 7011W        W75352   5.749  33.491  13.044
 7012W        W75353  29.131  40.039   4.202
 7013W        W75354  16.594  34.930  14.493
 7014W        W75355   4.873  42.021  13.990
 7015W        W75356  40.844  19.540   4.264
 7016W        W75357  18.618  35.956  12.826
 7017W        W75358  27.078  43.493  14.775
 7018W        W75359  20.267   8.766   3.698
 7019W        W75360  31.906   5.343  13.794
 7020W        W75361  17.744  26.630  14.286
 7021W        W75362  40.895   5.276  11.040
 7022W        W75363  33.989  15.204   4.238
 7023W        W75364  40.309   2.891  12.828
 7024W        W75365   1.763  34.934  13.402
 7025W        W75366  26.055   8.701   1.896
 7026W        W75367  39.448  38.853  11.905
 7027W        W75368  33.891   7.360   3.267
 7028W        W75369  37.509  40.490   1.313
 7029W        W75370  38.930   2.337   4.597
 7030W        W75371  40.453  11.669   1.333
 7031W        W75372  39.876  20.154   1.232
 7032W        W75373   2.743   4.338   3.652
 7033W        W75374  39.492  23.111  13.421
 7034W        W75375   1.399  32.916  13.329
 7035W        W75376   2.384  37.441   1.773
 7036W        W75377  11.322  29.927  12.573
 7037W        W75378  23.661  10.733  14.813
 7038W        W75379  42.937  19.124   0.304
 7039W        W75380  27.076   1.413   3.868
 7040W        W75381  19.741  24.580   4.317
 7041W        W75382   8.185  27.184   0.910
 7042W        W75383  22.673  27.640   1.423
 7043W        W75384  20.556  17.301  11.867
 7044W        W75385  11.331  22.532   0.355
 7045W        W75386  41.518  16.087   4.724
 7046W        W75387  10.304  41.938   1.809
 7047W        W75388   2.261  40.320  11.866
 7048W        W75389   3.897  27.691  10.577
 7049W        W75390  19.559  21.555  13.796
 7050W        W75391  13.652   0.846   4.233
 7051W        W75392  16.696  28.971  10.623
 7052W        W75393  35.984  39.376   3.158
 7053W        W75394  42.871   7.888   0.776
 7054W        W75395   4.430  35.599  13.406
 7055W        W75396  19.655  18.214   4.337
 7056W        W75397   2.444  27.455   4.639
 7057W        W75398  36.902  33.087   2.372
 7058W        W75399  10.345   2.303  14.936
 7059W        W75400  34.470  41.471   2.244
 7060W        W75401  34.419  41.957   2.385
 7061W        W75402  23.550  34.452   0.473
 7062W        W75403  29.565  42.954  10.590
 7063W        W75404  29.524  22.207   1.244
 7064W        W75405  40.914  30.645   3.248
 7065W        W75406  38.840  29.035   2.699
 7066W        W75407  11.821  33.605  13.460
 7067W        W75408  33.412  19.116   3.219
 7068W        W75409  23.226  14.802  13.341
 7069W        W75410   2.934  30.518  11.601
 7070W        W75411  11.237  33.386   4.124
 7071W        W75412   4.715   0.454  11.395
 7072W        W75413  30.134  14.301  10.643
 7073W        W75414  19.735   7.894   1.245
 7074W        W75415  34.452  27.668  13.803
 7075W        W75416  35.508   3.272  14.933
 7076W        W75417  15.227  18.274  13.526
 7077W        W75418  25.529   3.228   2.305
 7078W        W75419  40.809  13.767   0.258
 7079W        W75420  12.846  42.334  14.358
 7080W        W75421   0.423  18.206   9.973
 7081W        W75422  18.732  34.608   0.440
 7082W        W75423  15.151  40.412   0.904
 7083W        W75424   7.688  32.927   2.751
 7084W        W75425  19.549  39.012  13.508
 7085W        W75426  41.962   4.398   3.757
 7086W        W75427   1.778  21.728   3.374
 7087W        W75428  17.792   5.864  13.910
 7088W        W75429  22.545  38.027  14.324
 7089W        W75430  42.945   3.438  14.843
 7090W        W75431  30.461  24.549   4.349
 7091W        W75432   2.908   0.952   0.463
 7092W        W75433  23.732  22.097   4.618
 7093W        W75434  22.613   7.216   1.252
 7094W        W75435  36.037  16.661  13.863
 7095W        W75436   2.924  26.976   4.283
 7096W        W75437  36.367  20.112   1.356
 7097W        W75438   8.707  28.652   3.855
 7098W        W75439  24.653  41.897  14.418
 7099W        W75440  18.672   5.727   2.838
 7100W        W75441  35.996   3.748   0.751
 7101W        W75442   7.910  22.724   1.407
 7102W        W75443  17.795  37.491   4.739
 7103W        W75444  17.281   0.870  14.287
 7104W        W75445  26.002  39.033   2.870
 7105W        W75446  40.429   1.952  14.887
 7106W        W75447   8.769  38.853  10.597
 7107W        W75448  10.382  26.980  10.442
 7108W        W75449  20.606  11.140   4.191
 7109W        W75450  26.504   4.848   4.607
 7110W        W75451   2.358  17.213  12.024
 7111W        W75452   8.264  13.761   4.641
 7112W        W75453  43.779  13.280  12.551
 7113W        W75454  35.000  13.747   0.945
 7114W        W75455   8.370  35.421   4.277
 7115W        W75456  32.534   8.748   5.086
 7116W        W75457  16.683  34.438   9.524
 7117W        W75458   1.333  43.875   0.383
 7118W        W75459  21.120  10.314   1.871
 7119W        W75460  33.886  42.451   1.396
 7120W        W75461  25.101   8.201  14.926
 7121W        W75462  16.209  31.425   9.543
 7122W        W75463   0.743  41.985   2.705
 7123W        W75464  10.177  24.152   3.261
 7124W        W75465  39.518  38.883  12.482
 7125W        W75466   5.232  15.214   0.746
 7126W        W75467   5.861  12.856  12.479
 7127W        W75468  28.492  15.810  11.072
 7128W        W75469  16.729  21.603   3.279
 7129W        W75470  18.777  40.870   3.233
 7130W        W75471  25.690  12.648   2.314
 7131W        W75472  25.567  38.534  11.962
 7132W        W75473   6.759  38.408  11.899
 7133W        W75474  44.498  40.960   1.886
 7134W        W75475  36.915  27.657   4.812
 7135W        W75476   3.398   7.263   3.238
 7136W        W75477   1.292  37.483   2.678
 7137W        W75478   1.856  29.951  14.397
 7138W        W75479   9.196  12.755   5.105
 7139W        W75480  44.885  22.216  12.851
 7140W        W75481  44.927  39.841   3.853
 7141W        W75482  38.998  15.086  14.927
 7142W        W75483  40.811  37.034   4.801
 7143W        W75484  23.209   8.357  11.401
 7144W        W75485  43.366  17.254  10.075
 7145W        W75486  17.645  13.607  11.026
 7146W        W75487  23.650  16.156   2.332
 7147W        W75488  10.190  21.074  14.833
 7148W        W75489  15.301  13.628  10.482
 7149W        W75490   2.896  44.321  12.939
 7150W        W75491  22.189  36.923   0.734
 7151W        W75492  17.556   2.302  11.021
 7152W        W75493  14.810  35.540  10.451
 7153W        W75494  38.361   2.388  14.472
 7154W        W75495  13.319  40.376   1.865
 7155W        W75496   2.247   6.911  12.918
 7156W        W75497  31.502  22.127  14.345
 7157W        W75498  44.326  36.977  10.157
 7158W        W75499  34.959   6.879   2.312
 7159W        W75500  39.482  22.207  13.796
 7160W        W75501   4.243  32.003  14.948
 7161W        W75502  18.235  32.055   2.858
 7162W        W75503   6.200  39.490   1.356
 7163W        W75504  33.468  30.453  13.477
 7164W        W75505  42.784  36.430   1.810
 7165W        W75506  43.301  11.673  14.770
 7166W        W75507  25.592  42.031   3.150
 7167W        W75508  25.032  27.544  11.493
 7168W        W75509   7.689   1.412   4.700
 7169W        W75510  44.911  10.785   2.855
 7170W        W75511   0.490  44.899  10.464
 7171W        W75512  39.035  11.194   4.609
 7172W        W75513   8.203  11.260   2.383
 7173W        W75514   5.815  13.332  12.521
 7174W        W75515   4.831  25.469  12.374
 7175W        W75516  40.432   6.799  10.490
 7176W        W75517  21.526  18.591   4.622
 7177W        W75518   6.189  34.487  11.042
 7178W        W75519   0.948  24.137  10.507
 7179W        W75520   1.958   2.800   3.265
 7180W        W75521  28.652  34.445   4.223
 7181W        W75522  44.377  29.003  14.304
 7182W        W75523   1.433  28.556  10.984
 7183W        W75524  15.683  30.992  10.536
 7184W        W75525  31.941   2.897   4.144
 7185W        W75526  26.579  27.985  11.607
 7186W        W75527  40.952   3.736   0.862
 7187W        W75528  25.100   3.270   1.327
 7188W        W75529  13.291   5.382   4.630
 7189W        W75530  30.603   1.754  12.408
 7190W        W75531  33.441  30.991   1.396
 7191W        W75532  19.617  28.136  11.399
 7192W        W75533  41.303  18.768   4.784
 7193W        W75534  31.603  24.995   2.701
 7194W        W75535  44.968  15.698   5.164
 7195W        W75536  27.587  43.925  13.974
 7196W        W75537  27.022   7.877  13.382
 7197W        W75538  15.321  31.964  14.316
 7198W        W75539  17.639  44.473   4.718
 7199W        W75540  35.440  35.422   3.364
 7200W        W75541  31.501  33.476   0.337
 7201W        W75542  26.691  19.271   3.357
 7202W        W75543  41.003  12.258  10.505
 7203W        W75544  33.957  20.582  11.608
 7204W        W75545   3.316  19.253   5.104
 7205W        W75546  23.069  23.032   2.243
 7206W        W75547   9.728  21.576   0.938
 7207W        W75548  30.490  40.447   1.888
 7208W        W75549  39.471  34.985   1.432
 7209W        W75550  23.068  23.174  13.965
 7210W        W75551  19.282   8.351   3.345
 7211W        W75552  31.017  32.975  12.487
 7212W        W75553   1.427  32.446   0.457
 7213W        W75554   8.736   0.469   2.328
 7214W        W75555  22.133  18.210   4.132
 7215W        W75556   4.387  13.799  14.313
 7216W        W75557  18.285  12.683   2.887
 7217W        W75558  34.930  17.244   3.299
 7218W        W75559  37.909  43.391  14.817
 7219W        W75560  39.897  29.627  12.390
 7220W        W75561  32.021  28.636  12.390
 7221W        W75562  42.338  25.617   2.380
 7222W        W75563  26.030   3.294  12.525
 7223W        W75564  16.125  32.394   0.797
 7224W        W75565  23.731  28.980   1.210
 7225W        W75566  25.100  28.170  13.037
 7226W        W75567  20.171  31.934   2.334
 7227W        W75568   6.859  39.014   4.192
 7228W        W75569   3.264  36.909  13.858
 7229W        W75570  31.003  15.812   0.452
 7230W        W75571  19.569  21.092  10.521
 7231W        W75572  10.343  13.841  14.479
 7232W        W75573  22.616  32.063   1.342
 7233W        W75574  35.461  10.824   1.854
 7234W        W75575  17.736  12.194   0.857
 7235W        W75576  27.986   9.764   4.228
 7236W        W75577  33.044  12.296   2.376
 7237W        W75578   1.290  39.340   0.309
 7238W        W75579  24.993  29.978   4.250
 7239W        W75580  31.029  24.130  13.881
 7240W        W75581   8.655   8.834   2.226
 7241W        W75582  33.501  28.934   0.358
 7242W        W75583  25.982  22.043   3.187
 7243W        W75584  23.659  20.578   0.872
 7244W        W75585  14.139  10.669   4.796
 7245W        W75586  12.630  10.174  10.038
 7246W        W75587  30.657  36.371  11.450
 7247W        W75588   1.323  39.934  12.544
 7248W        W75589  38.512  29.056   4.686
 7249W        W75590  42.025   9.887  12.356
 7250W        W75591  44.853  16.107   2.890
 7251W        W75592  21.725   7.862  11.492
 7252W        W75593   9.786  15.719  12.540
 7253W        W75594  17.779  27.494  11.883
 7254W        W75595   2.926   8.700  12.958
 7255W        W75596  33.893  18.148  13.381
 7256W        W75597  34.460  37.897   1.775
 7257W        W75598  26.540  26.668   4.686
 7258W        W75599  26.204  23.160  12.358
 7259W        W75600  43.918  43.014   1.257
 7260W        W75601  13.113  18.581  14.436
 7261W        W75602  16.264   8.213  14.337
 7262W        W75603   8.186  27.541  14.960
 7263W        W75604  30.097  37.847   1.889
 7264W        W75605  37.873  32.594   4.222
 7265W        W75606  38.017  12.179  13.991
 7266W        W75607  31.067  33.384   1.784
 7267W        W75608  15.214  24.499   3.302
 7268W        W75609  22.127   9.259  11.930
 7269W        W75610  44.952  11.144  12.950
 7270W        W75611  35.020  30.133  11.921
 7271W        W75612   6.687  40.419  14.851
 7272W        W75613   3.899  19.096   0.265
 7273W        W75614  23.021  14.135  14.425
 7274W        W75615  18.060  42.521  10.635
 7275W        W75616  11.737   1.956   3.687
 7276W        W75617  11.781   7.713  11.553
 7277W        W75618   4.869  20.539   4.159
 7278W        W75619  37.493   1.318   0.883
 7279W        W75620   0.402  14.221   2.351
 7280W        W75621  20.545  42.825   0.321
 7281W        W75622   9.337  22.709  13.818
 7282W        W75623  12.220  43.956   2.692
 7283W        W75624  35.980  35.868   2.805
 7284W        W75625  11.757   2.796   0.413
 7285W        W75626  14.159  30.911  13.921
 7286W        W75627  10.699  14.170   1.399
 7287W        W75628  22.190   5.211   2.845
 7288W        W75629   1.479  38.917   1.816
 7289W        W75630  26.613  37.529  10.893
 7290W        W75631  17.733  25.086   4.202
 7291W        W75632   9.292  34.496   4.276
 7292W        W75633  33.456  26.110   3.303
 7293W        W75634  31.596  37.532  14.868
 7294W        W75635  23.506  42.889   1.445
 7295W        W75636  20.715  37.388  13.531
 7296W        W75637  16.191  17.245  12.468
 7297W        W75638   2.739  15.142  13.042
 7298W        W75639  41.467  25.175  14.379
 7299W        W75640  43.974  28.486  14.961
 7300W        W75641  26.676  14.732  14.290
 7301W        W75642   1.261  31.525  12.503
 7302W        W75643  29.588   2.272  10.943
 7303W        W75644  11.227  40.361  14.030
 7304W        W75645  38.380  13.738   1.388
 7305W        W75646   0.301   2.929  12.917
 7306W        W75647  29.447   3.945   0.789
 7307W        W75648   9.709  21.030  13.009
 7308W        W75649  40.341  15.625  13.477
 7309W        W75650   4.714  22.607  12.875
 7310W        W75651  43.974  11.675   3.367
 7311W        W75652  14.249  43.466  12.007
 7312W        W75653  31.601  40.990  12.384
 7313W        W75654  29.974   7.796   1.427
 7314W        W75655  44.304  42.919   0.937
 7315W        W75656  39.930  28.039   0.811
 7316W        W75657  21.154  33.496   0.847
 7317W        W75658  36.544  11.339  13.501
 7318W        W75659  17.089  37.348  12.529
 7319W        W75660   0.751  19.042   0.770
 7320W        W75661  10.309   2.283   0.740
 7321W        W75662  19.741   5.810   1.252
 7322W        W75663  43.786   8.174  12.437
 7323W        W75664  24.201  17.574   4.825
 7324W        W75665  25.538  16.655   0.854
 7325W        W75666  41.512  30.120   1.280
 7326W        W75667  27.454  28.941  10.555
 7327W        W75668  43.971   4.410   4.216
 7328W        W75669  22.069  43.841   0.309
 7329W        W75670  10.344  34.523  10.626
 7330W        W75671  28.650  42.012  13.354
 7331W        W75672  32.989  20.723  12.424
 7332W        W75673  13.705  33.488   4.807
 7333W        W75674   0.851   1.822  13.425
 7334W        W75675  20.610  25.079   4.670
 7335W        W75676  16.677  12.330   4.226
 7336W        W75677  10.180  26.005   3.866
 7337W        W75678  18.733  33.997  12.972
 7338W        W75679  32.632   9.254  10.516
 7339W        W75680  44.930  20.657   2.873
 7340W        W75681  23.582  29.508  10.538
 7341W        W75682  12.842  32.549  14.498
 7342W        W75683  18.058  25.541  13.377
 7343W        W75684  42.861  35.473  14.455
 7344W        W75685  23.525  36.508   1.714
 7345W        W75686  37.484  36.424  12.997
 7346W        W75687  11.826   7.871   0.475
 7347W        W75688  32.417   2.350   4.718
 7348W        W75689  34.496   1.239   2.326
 7349W        W75690  13.164  30.987  14.475
 7350W        W75691   2.942   7.774  11.569
 7351W        W75692   4.792  21.243   0.892
 7352W        W75693  16.218  16.687   1.785
 7353W        W75694  18.235  14.683   2.283
 7354W        W75695  32.092  17.124  14.444
 7355W        W75696  35.549  16.664  12.824
 7356W        W75697  26.702  42.280  14.412
 7357W        W75698  15.279  31.643   5.135
 7358W        W75699  34.426  32.428   0.910
 7359W        W75700  37.576  23.010  14.306
 7360W        W75701  18.730   3.818  11.454
 7361W        W75702  33.586  24.040  10.620
 7362W        W75703  39.436  12.223   4.344
 7363W        W75704  38.874  39.866  13.909
 7364W        W75705  41.457   6.402   4.230
 7365W        W75706  11.315  25.539  13.965
 7366W        W75707  37.958   8.300  12.054
 7367W        W75708  10.272  44.755   2.244
 7368W        W75709  39.333  16.756   1.879
 7369W        W75710  19.137  41.359   4.161
 7370W        W75711  41.398  16.308  14.369
 7371W        W75712  14.614  10.839  12.559
 7372W        W75713  37.004  24.000  12.355
 7373W        W75714  15.131  25.127   0.369
 7374W        W75715   3.345   5.891  12.468
 7375W        W75716  17.085  30.535   0.292
 7376W        W75717  12.210  15.667   4.665
 7377W        W75718  24.607   5.845   2.812
 7378W        W75719  43.512   2.790  12.504
 7379W        W75720  21.029   0.304   2.350
 7380W        W75721  25.980  41.363  10.623
 7381W        W75722  39.458  25.019   3.854
 7382W        W75723  23.638   9.747  12.839
 7383W        W75724   2.236  22.681  12.952
 7384W        W75725  32.902  10.645  11.104
 7385W        W75726  23.489  41.948   1.290
 7386W        W75727  32.892  21.737   2.259
 7387W        W75728  30.973  42.350   1.888
 7388W        W75729   5.358  44.799   0.379
 7389W        W75730  27.056  19.596  14.844
 7390W        W75731   7.853  30.510  12.511
 7391W        W75732  13.644  29.142   0.331
 7392W        W75733   5.242  42.955  14.392
 7393W        W75734  20.153  23.543  12.886
 7394W        W75735  33.062  21.567  13.491
 7395W        W75736  19.125  26.130  14.510
 7396W        W75737  28.931  12.272   0.433
 7397W        W75738  23.060  24.509  11.419
 7398W        W75739  11.678  18.284   5.300
 7399W        W75740   3.401  38.051   0.727
 7400W        W75741  43.349  16.779   0.915
 7401W        W75742  42.292  43.798  10.929
 7402W        W75743  20.530  42.032  14.461
 7403W        W75744  12.633  16.084  10.944
 7404W        W75745  10.269   9.869   3.722
 7405W        W75746  43.975  15.189  14.461
 7406W        W75747  41.995  43.993   3.250
 7407W        W75748  21.652  21.162  12.065
 7408W        W75749  42.794  17.210   0.939
 7409W        W75750   1.874  10.687  13.365
 7410W        W75751  24.171   4.296   4.186
 7411W        W75752  18.106  33.074  11.427
 7412W        W75753  42.378  26.568  11.926
 7413W        W75754  17.151  33.578  13.914
 7414W        W75755  34.020  38.933   0.382
 7415W        W75756  37.995  35.440   2.746
 7416W        W75757   9.657  16.805  13.428
 7417W        W75758  39.500  18.195   4.190
 7418W        W75759  34.065  25.696  13.390
 7419W        W75760   4.789  17.129  12.070
 7420W        W75761  34.523  17.797  13.458
 7421W        W75762  40.950  28.658   1.385
 7422W        W75763  21.633  11.718  12.528
 7423W        W75764  26.121  16.749   2.275
 7424W        W75765  33.964  20.727  13.049
 7425W        W75766  18.558  17.285   3.862
 7426W        W75767  25.581  29.455   2.291
 7427W        W75768  25.691  41.861  10.435
 7428W        W75769  11.178  19.082  14.492
 7429W        W75770  30.419  16.778   4.686
 7430W        W75771  31.104  30.048   1.771
 7431W        W75772  32.512  11.772   0.277
 7432W        W75773  28.516  15.083  11.441
 7433W        W75774  30.154   9.843   2.209
 7434W        W75775   4.775  23.242   1.266
 7435W        W75776  40.324  38.901  10.621
 7436W        W75777  39.486  14.307   1.306
 7437W        W75778  32.516  44.290  12.057
 7438W        W75779  22.682  17.224   5.200
 7439W        W75780  11.764  19.252  12.431
 7440W        W75781  40.400   6.880   2.192
 7441W        W75782   5.344  32.470  13.530
 7442W        W75783  21.178  22.568   5.224
 7443W        W75784  35.380  33.548   2.709
 7444W        W75785  26.001   9.754  13.451
 7445W        W75786  25.604  15.159   0.774
 7446W        W75787  34.025  27.624   4.140
 7447W        W75788  28.550   6.706   2.870
 7448W        W75789   9.150  12.138  12.404
 7449W        W75790  37.919   4.845  14.793
 7450W        W75791  36.857  30.491  12.557
 7451W        W75792   1.857  15.102  11.091
 7452W        W75793  29.605   9.758   3.306
 7453W        W75794  21.252  44.349  12.010
 7454W        W75795  31.429  44.785  14.370
 7455W        W75796   1.976  10.161  10.905
 7456W        W75797   8.779   1.249   0.283
 7457W        W75798  18.747  34.559   1.812
 7458W        W75799  34.882  20.047   1.890
 7459W        W75800  42.978  22.563  13.861
 7460W        W75801  22.237  23.679   0.482
 7461W        W75802  42.487  43.912   1.282
 7462W        W75803   1.393   2.436  13.866
 7463W        W75804  26.112  17.157  10.556
 7464W        W75805  33.040  33.479   1.878
 7465W        W75806  17.128  20.214   1.238
 7466W        W75807  17.734  43.461  13.962
 7467W        W75808  26.141  33.561  11.474
 7468W        W75809  35.042   3.257  12.838
 7469W        W75810  11.716  30.427  10.509
 7470W        W75811  42.872  40.849   4.706
 7471W        W75812  38.048  35.999  11.051
 7472W        W75813  22.086  23.061   3.761
 7473W        W75814  32.027  24.084   3.650
 7474W        W75815  27.519   9.270   4.682
 7475W        W75816  30.615  23.010   4.776
 7476W        W75817  30.979  33.913  11.893
 7477W        W75818   7.860   3.294   2.719
 7478W        W75819   8.228   4.391   1.251
 7479W        W75820  41.838  42.463   4.294
 7480W        W75821  42.333  29.667  13.452
 7481W        W75822  11.799   5.798  10.453
 7482W        W75823  17.761  43.767   2.189
 7483W        W75824  30.567  42.449  11.078
 7484W        W75825   8.803  20.639   4.644
 7485W        W75826  20.678  28.672  14.017
 7486W        W75827  20.187  13.258   2.839
 7487W        W75828   1.939  29.026  13.974
 7488W        W75829  41.905  12.778   5.159
 7489W        W75830  10.253  29.541  11.122
 7490W        W75831  31.013   5.768   0.739
 7491W        W75832  13.257  28.529  13.476
 7492W        W75833   7.361  41.403  11.512
 7493W        W75834  19.706  39.940  12.066
 7494W        W75835  21.734  34.943   1.721
 7495W        W75836   6.921  31.587  14.019
 7496W        W75837  40.340  38.553   1.444
 7497W        W75838  27.469  42.789  14.442
 7498W        W75839  11.763   4.265  13.367
 7499W        W75840  19.627  36.846   4.734
 7500W        W75841  36.943  34.900   1.757
 7501W        W75842  11.196  10.190  10.021
 7502W        W75843  20.107   9.648   3.771
 7503W        W75844  25.072  27.580   4.833
 7504W        W75845  41.024   4.861  12.542
 7505W        W75846  18.688  21.113   5.789
 7506W        W75847   7.385  23.550  10.970
 7507W        W75848   6.335   2.295  12.521
 7508W        W75849  41.294  40.965   2.284
 7509W        W75850  25.114  44.330  12.932
 7510W        W75851  32.083  29.501   5.084
 7511W        W75852  21.184  41.806   4.746
 7512W        W75853  33.970   9.776   4.720
 7513W        W75854  10.295  33.610   4.676
 7514W        W75855  15.687  22.069  10.608
 7515W        W75856  12.695  25.580   0.810
 7516W        W75857  24.042  15.241  14.396
 7517W        W75858  21.052   0.781   3.387
 7518W        W75859  10.343  12.291  13.421
 7519W        W75860   7.855  35.472  12.843
 7520W        W75861  12.687  28.169   0.397
 7521W        W75862  26.519  30.468   3.279
 7522W        W75863  40.847  23.648  12.941
 7523W        W75864  20.125  21.074  12.928
 7524W        W75865   8.857  39.965   1.860
 7525W        W75866  18.765  10.291   1.721
 7526W        W75867  34.607   6.691  14.938
 7527W        W75868   8.741  25.584  12.946
 7528W        W75869  40.488  14.309   2.711
 7529W        W75870  28.066  24.982   4.349
 7530W        W75871  29.097  10.786   3.178
 7531W        W75872   6.419  31.648   4.825
 7532W        W75873   2.754  43.986   4.274
 7533W        W75874  19.558   3.333   2.876
 7534W        W75875   7.215   3.435  13.047
 7535W        W75876   4.872  30.036  10.451
 7536W        W75877  25.534  12.252   1.328
 7537W        W75878  14.807  18.697   3.778
 7538W        W75879  36.503  31.073  11.948
 7539W        W75880  20.253  10.695  10.426
 7540W        W75881   3.459  13.185  14.322
 7541W        W75882   4.207  19.166   4.119
 7542W        W75883  42.864   0.442   2.290
 7543W        W75884   4.779  39.334  12.042
 7544W        W75885  13.117  32.522   3.168
 7545W        W75886   1.326  28.531   1.229
 7546W        W75887  15.613   3.899   4.192
 7547W        W75888  25.182  15.578   2.221
 7548W        W75889   3.949  27.959  11.372
 7549W        W75890  39.837  37.507  13.961
 7550W        W75891  43.397  43.932   4.616
 7551W        W75892  23.148   6.221   0.256
 7552W        W75893  19.060  42.449   1.737
 7553W        W75894  10.752  11.847  12.023
 7554W        W75895   9.369  40.540   1.705
 7555W        W75896  43.991  25.006  12.361
 7556W        W75897  12.758  18.672  14.435
 7557W        W75898  35.419  24.026  10.446
 7558W        W75899  35.953  40.963  13.986
 7559W        W75900   3.908  10.158  14.360
 7560W        W75901   0.467  26.473   2.247
 7561W        W75902   5.687  36.066  10.923
 7562W        W75903  27.562  17.680   4.783
 7563W        W75904  11.182  26.993  12.095
 7564W        W75905  39.835  16.744   0.764
 7565W        W75906  17.183  28.621  13.001
 7566W        W75907   5.898  36.944  14.785
 7567W        W75908  43.955  27.662   1.379
 7568W        W75909  27.029   6.210  10.444
 7569W        W75910   9.692  44.373   4.669
 7570W        W75911  38.489   0.788   4.699
 7571W        W75912  24.609  25.690  11.051
 7572W        W75913   5.348  36.572  13.892
 7573W        W75914  37.407   8.656   2.894
 7574W        W75915  23.522  41.034   2.835
 7575W        W75916  44.870  19.278   3.193
 7576W        W75917  15.637  36.446   0.472
 7577W        W75918   9.800  13.167  11.107
 7578W        W75919   1.819  15.161  13.378
 7579W        W75920   4.245  40.373  12.010
 7580W        W75921  28.602  14.801  14.765
 7581W        W75922  29.594  16.094   2.830
 7582W        W75923  34.571  37.445   0.932
 7583W        W75924  15.738  35.078   9.934
 7584W        W75925   0.929   9.719  14.990
 7585W        W75926  36.353  17.764   4.153
 7586W        W75927  31.953   3.836  12.938
 7587W        W75928  34.369  37.346   2.870
 7588W        W75929  40.425   9.672  13.919
 7589W        W75930  39.915  37.556  10.992
 7590W        W75931  19.095   9.348   2.852
 7591W        W75932   3.912  18.728   9.584
 7592W        W75933  15.590  38.941  11.548
 7593W        W75934   6.383  37.389   2.285
 7594W        W75935  32.543  10.271  11.575
 7595W        W75936  16.272  14.653  11.582
 7596W        W75937   3.930  34.028   3.670
 7597W        W75938  13.685  38.920  10.629
 7598W        W75939  22.214  43.310   3.166
 7599W        W75940  15.680   7.893  11.497
 7600W        W75941  41.509  18.110   0.373
 7601W        W75942  10.322  18.137   0.925
 7602W        W75943   2.386  24.077  10.570
 7603W        W75944  26.183  43.501  11.022
 7604W        W75945  41.811  12.853  10.631
 7605W        W75946   5.335  20.128  10.556
 7606W        W75947  14.770  42.408  13.385
 7607W        W75948  37.912  16.733   1.233
 7608W        W75949  40.922   2.388   1.701
 7609W        W75950   7.265  22.507  14.013
 7610W        W75951  39.385   8.879   2.268
 7611W        W75952   8.885  17.163   5.201
 7612W        W75953  11.771  39.467   3.354
 7613W        W75954  15.656  15.767  11.373
 7614W        W75955  19.751  20.246   0.399
 7615W        W75956   1.257  17.210  14.889
 7616W        W75957  40.541   4.742  12.070
 7617W        W75958   9.846  42.459  13.970
 7618W        W75959  12.688  24.598   0.343
 7619W        W75960  23.179   9.807  11.938
 7620W        W75961  33.465  12.116  13.458
 7621W        W75962  17.096  24.624  12.849
 7622W        W75963  26.170  10.879  12.451
 7623W        W75964   8.247   4.260   0.249
 7624W        W75965  26.562  21.035   3.714
 7625W        W75966   6.191   3.944  14.489
 7626W        W75967  14.179  27.484   2.762
 7627W        W75968  40.426  28.977   4.793
 7628W        W75969   7.313  24.664   2.301
 7629W        W75970   4.932  17.571   0.941
 7630W        W75971   2.278   9.392   4.346
 7631W        W75972  23.668  10.283   1.451
 7632W        W75973  26.517   0.904  13.913
 7633W        W75974  33.595   6.402   4.142
 7634W        W75975   6.773  38.391  13.917
 7635W        W75976  26.653  19.051  14.334
 7636W        W75977  29.153  35.481   4.325
 7637W        W75978   6.277  39.962  11.429
 7638W        W75979  13.823   5.308   2.361
 7639W        W75980  13.171   8.296  10.428
 7640W        W75981   2.900  33.501   4.119
 7641W        W75982  23.159   0.315   1.396
 7642W        W75983  21.105  28.987  13.535
 7643W        W75984   8.669  17.716   1.293
 7644W        W75985   0.266  10.728  11.479
 7645W        W75986  13.626   8.832  12.416
 7646W        W75987  23.158  44.932  13.337
 7647W        W75988  22.170   5.198   0.916
 7648W        W75989  31.463  41.945   3.345
 7649W        W75990  15.092   7.684  14.978
 7650W        W75991  23.226  22.645  11.016
 7651W        W75992  38.946   3.266  11.914
 7652W        W75993   9.785   7.814  11.477
 7653W        W75994  26.482  14.589  10.526
 7654W        W75995  23.628  27.102  11.074
 7655W        W75996   7.345  35.054  11.955
 7656W        W75997  35.869   8.890   4.269
 7657W        W75998  26.665   2.757   2.822
 7658W        W75999  43.323  10.308   1.752
 7659W        W76000  27.953   6.882  13.310
 7660W        W76001  39.858  41.462  14.876
 7661W        W76002  15.205  40.509  11.035
 7662W        W76003  21.574  10.659   0.732
 7663W        W76004  24.508   7.191  13.399
 7664W        W76005  15.254  35.988  11.927
 7665W        W76006  32.950   9.811   4.790
 7666W        W76007  42.412  17.113  13.057
 7667W        W76008  17.262  22.560   0.470
 7668W        W76009  20.154  20.225   0.843
 7669W        W76010  20.117  42.979   0.824
 7670W        W76011   2.834  41.030  11.909
 7671W        W76012  36.570  39.850  10.955
 7672W        W76013   7.311  15.795   0.788
 7673W        W76014  10.805  32.011  10.519
 7674W        W76015   4.231  28.020   1.880
 7675W        W76016  31.980  24.484   0.765
 7676W        W76017  30.461  28.519   2.291
 7677W        W76018  37.523  16.809  14.407
 7678W        W76019  28.017  20.164  11.400
 7679W        W76020   0.957  14.163  14.279
 7680W        W76021   1.817  11.712  11.977
 7681W        W76022  42.828   4.295  13.930
 7682W        W76023  12.219   1.908  14.860
 7683W        W76024   1.266  38.951   2.265
 7684W        W76025  21.254   7.260   2.370
 7685W        W76026  36.874  41.372   2.284
 7686W        W76027  25.118   6.732  13.887
 7687W        W76028  25.571  31.055   3.691
 7688W        W76029  14.280  14.284   1.424
 7689W        W76030  20.559  44.495   1.763
 7690W        W76031  34.956  31.113  12.017
 7691W        W76032  14.735  14.274   1.415
 7692W        W76033  11.317   1.481   1.919
 7693W        W76034  10.679  29.072  12.456
 7694W        W76035  38.405  11.214  11.440
 7695W        W76036  44.408  25.707   3.800
 7696W        W76037  30.423  31.110  11.459
 7697W        W76038  19.054  22.566   0.392
 7698W        W76039  44.413   8.213   2.373
 7699W        W76040  29.957  27.057  10.930
 7700W        W76041   5.756  30.908   1.279
 7701W        W76042   0.810  24.053  13.043
 7702W        W76043  43.896  23.188  11.116
 7703W        W76044  32.636  28.959   3.263
 7704W        W76045  37.059  25.160  14.968
 7705W        W76046  14.285  16.683  13.344
 7706W        W76047  31.610  22.046   2.284
 7707W        W76048  19.141  29.971   4.829
 7708W        W76049   7.790  31.596   2.775
 7709W        W76050  33.454  29.031   2.826
 7710W        W76051  29.645  19.045  10.499
 7711W        W76052  33.527  21.627   3.333
 7712W        W76053  20.143   0.416   2.680
 7713W        W76054  17.614  25.974  10.982
 7714W        W76055  19.750  24.686   3.721
 7715W        W76056   6.340   8.665  14.386
 7716W        W76057  17.584  39.495   2.227
 7717W        W76058   3.298  40.335  14.007
 7718W        W76059  14.720   4.302  11.967
 7719W        W76060   9.378  32.543   0.904
 7720W        W76061  40.353  16.586  14.909
 7721W        W76062  35.568  31.101   4.153
 7722W        W76063  44.766   1.466   4.215
 7723W        W76064  31.009  30.137  13.330
 7724W        W76065   5.727  16.098  10.557
 7725W        W76066  32.533  29.551  12.824
 7726W        W76067  15.605   8.706   5.238
 7727W        W76068  38.944  35.980   4.327
 7728W        W76069  35.996  12.165  11.936
 7729W        W76070  38.977   7.278   2.384
 7730W        W76071  25.535  20.055   0.268
 7731W        W76072   4.409  17.229   1.327
 7732W        W76073  38.502  28.614  11.866
 7733W        W76074  13.301  20.257   4.733
 7734W        W76075  44.359  13.281  11.944
 7735W        W76076  43.287  32.953  11.502
 7736W        W76077   5.295   3.326  11.981
 7737W        W76078  13.249  15.251   1.710
 7738W        W76079   8.826   3.303  10.988
 7739W        W76080  42.464   0.268   3.864
 7740W        W76081  11.233  17.114  12.090
 7741W        W76082  18.090  10.749   3.259
 7742W        W76083  23.600  16.713   9.598
 7743W        W76084  36.057   0.845   2.686
 7744W        W76085   3.946  21.535   4.163
 7745W        W76086   2.425  29.483  11.432
 7746W        W76087  30.914   8.223   2.220
 7747W        W76088  39.354  42.933   4.259
 7748W        W76089   7.851  38.376  14.443
 7749W        W76090  12.356   9.741   5.300
 7750W        W76091  18.604  39.052  10.640
 7751W        W76092  43.879  33.510  10.513
 7752W        W76093  14.182  16.631  12.071
 7753W        W76094  22.251  34.540  11.033
 7754W        W76095   0.444  44.836  14.290
 7755W        W76096   7.777   1.756  11.054
 7756W        W76097   4.217  42.811   3.756
 7757W        W76098  22.145  34.111  14.877
 7758W        W76099  24.001  22.579  10.530
 7759W        W76100  12.201   2.338  13.019
 7760W        W76101   9.673   5.378  11.446
 7761W        W76102  22.511   1.412  10.580
 7762W        W76103   2.844  18.280  14.824
 7763W        W76104  34.596   7.720   3.297
 7764W        W76105  41.505  18.551   1.232
 7765W        W76106  31.022  36.026  13.840
 7766W        W76107  40.327  20.548  11.577
 7767W        W76108   6.752  22.744   1.773
 7768W        W76109  44.483  38.333   3.258
 7769W        W76110  19.711  22.718   4.736
 7770W        W76111  42.357  44.758  14.936
 7771W        W76112  39.549  41.863   4.294
 7772W        W76113  17.595   2.356   3.850
 7773W        W76114   7.188   0.896   3.276
 7774W        W76115  38.954  42.305   2.898
 7775W        W76116  19.235   4.211  14.487
 7776W        W76117   4.431  26.169  12.062
 7777W        W76118  33.541  26.702   1.425
 7778W        W76119   4.763  14.716   4.716
 7779W        W76120  10.660  24.609  12.926
 7780W        W76121  43.806   9.307   3.702
 7781W        W76122  40.022  10.841  12.860
 7782W        W76123  35.896  41.891  12.962
 7783W        W76124  11.299  14.711   3.678
 7784W        W76125  43.447  23.195   0.312
 7785W        W76126  38.855   2.387   0.951
 7786W        W76127  30.035  38.002  13.816
 7787W        W76128  33.510  43.958   4.662
 7788W        W76129  33.049  18.703  12.082
 7789W        W76130  30.564  15.240   0.800
 7790W        W76131  29.604   2.448  11.994
 7791W        W76132   2.270  35.984   2.679
 7792W        W76133   2.370   5.843   1.340
 7793W        W76134  15.140  17.555  13.983
 7794W        W76135  12.156  29.571   1.877
 7795W        W76136  44.325  35.403   0.782
 7796W        W76137  12.122   7.743  13.378
 7797W        W76138  19.202  26.484  13.548
 7798W        W76139   4.910   9.815  11.083
 7799W        W76140  32.524  16.170  14.987
 7800W        W76141  42.898  30.615  10.608
 7801W        W76142   4.235  40.897  11.594
 7802W        W76143  19.200  21.574  12.918
 7803W        W76144   4.938  26.057   2.776
 7804W        W76145  40.492  23.612  10.564
 7805W        W76146  44.395  13.149  12.468
 7806W        W76147  24.114  32.557  10.543
 7807W        W76148  15.229   9.242  13.492
 7808W        W76149  44.286  10.727  10.504
 7809W        W76150   7.329  36.939   4.733
 7810W        W76151  10.261  35.463   2.305
 7811W        W76152   5.386   2.958   0.379
 7812W        W76153  12.294   4.277   3.693
 7813W        W76154  15.213  41.509  12.405
 7814W        W76155  44.778  34.399  11.118
 7815W        W76156  38.055  41.793   0.292
 7816W        W76157  10.831   4.921   1.697
 7817W        W76158  12.814  11.318   2.184
 7818W        W76159  20.178  11.206   2.713
 7819W        W76160  22.045   8.840   2.738
 7820W        W76161   5.801  16.610  14.783
 7821W        W76162   5.353  42.503   0.843
 7822W        W76163  37.573  11.219  13.827
 7823W        W76164   9.733   3.937   4.656
 7824W        W76165  11.207   9.684   9.596
 7825W        W76166  11.761  32.557   2.853
 7826W        W76167   6.864   8.378  14.991
 7827W        W76168   5.360  26.600   3.777
 7828W        W76169   4.802  19.534  14.448
 7829W        W76170   4.449  11.826  12.857
 7830W        W76171  44.411  14.686  11.598
 7831W        W76172  13.769  10.643   0.741
 7832W        W76173  42.434  28.455  14.995
 7833W        W76174  12.756  30.486  11.398
 7834W        W76175  17.775   9.181  13.919
 7835W        W76176  17.231   6.205  13.404
 7836W        W76177   8.181   0.410  12.521
 7837W        W76178  17.236  38.913  14.814
 7838W        W76179   6.364  12.682   1.718
 7839W        W76180  20.098   1.807   2.192
 7840W        W76181   4.783  34.065   1.423
 7841W        W76182  25.968  32.904   3.258
 7842W        W76183  22.123  14.099   4.331
 7843W        W76184  44.793  39.401   1.362
 7844W        W76185  37.959  28.087  10.455
 7845W        W76186  33.484  39.812  12.390
 7846W        W76187  44.498  17.120  11.553
 7847W        W76188  42.867  39.406   4.690
 7848W        W76189  24.039  38.420  14.961
 7849W        W76190  24.515  16.169  11.531
 7850W        W76191   1.903  16.694   4.325
 7851W        W76192   4.738  37.336  11.041
 7852W        W76193  35.395   9.309  10.517
 7853W        W76194  36.464  40.440   0.929
 7854W        W76195  22.199  29.511  12.455
 7855W        W76196  40.029  32.052  13.361
 7856W        W76197   0.947  34.027   0.967
 7857W        W76198  27.138   0.828   3.341
 7858W        W76199  44.778  26.096  14.299
 7859W        W76200  14.182   1.295  14.514
 7860W        W76201  35.534  24.560  11.511
 7861W        W76202   6.823  10.750   1.741
 7862W        W76203  19.741  32.110   0.464
 7863W        W76204  37.472  30.971  12.889
 7864W        W76205  14.777  35.596   0.304
 7865W        W76206  40.015   7.179   4.804
 7866W        W76207  18.256  34.423  14.765
 7867W        W76208   3.810   7.851  13.471
 7868W        W76209  42.859   7.274   0.414
 7869W        W76210  20.725  19.184  14.821
 7870W        W76211  33.962   0.388   4.257
 7871W        W76212  12.349   3.927  10.915
 7872W        W76213   8.237  32.493  14.806
 7873W        W76214   1.968  17.218  12.431
 7874W        W76215  27.008   9.881  14.399
 7875W        W76216  26.112  26.164   1.874
 7876W        W76217  34.415   8.655  12.878
 7877W        W76218  40.338  41.039  12.932
 7878W        W76219  24.497  23.160   0.467
 7879W        W76220  32.600  20.750  11.431
 7880W        W76221  34.459  42.933  14.415
 7881W        W76222  44.797  11.295   2.390
 7882W        W76223  16.638  44.825   2.355
 7883W        W76224  12.795   2.393  14.791
 7884W        W76225   2.926   9.780  14.027
 7885W        W76226  36.402   1.352   1.852
 7886W        W76227  15.193  28.638  12.550
 7887W        W76228   9.695  19.114   0.758
 7888W        W76229  10.233  12.847  13.794
 7889W        W76230  33.022  16.303  14.370
 7890W        W76231   5.878  38.387  11.522
 7891W        W76232   4.852  38.503  10.436
 7892W        W76233  36.363  39.975   9.967
 7893W        W76234  10.848  42.448  12.836
 7894W        W76235  32.443  40.526   0.456
 7895W        W76236   5.431   4.268   2.202
 7896W        W76237  41.805   2.858  14.828
 7897W        W76238  16.269  30.597  14.386
 7898W        W76239  37.920  25.058  12.406
 7899W        W76240  13.682  34.926   4.215
 7900W        W76241  39.929   3.784  14.508
 7901W        W76242  21.570  20.114   4.788
 7902W        W76243  22.575  24.479  11.855
 7903W        W76244  14.716  18.269   3.380
 7904W        W76245  35.467  31.447   2.769
 7905W        W76246  35.495   5.831  11.486
 7906W        W76247  40.898  30.134  14.276
 7907W        W76248  15.817  30.925  13.531
 7908W        W76249  32.913  38.563  13.362
 7909W        W76250  22.548  25.085   4.703
 7910W        W76251  24.133   1.403   4.209
 7911W        W76252  39.994   8.251   4.243
 7912W        W76253  15.605  25.471  14.427
 7913W        W76254  29.966   5.775   2.879
 7914W        W76255  11.664  39.556   5.198
 7915W        W76256  28.485  17.719  12.580
 7916W        W76257  33.954   7.394  12.003
 7917W        W76258   0.300  34.526   3.735
 7918W        W76259  17.561  24.693   4.672
 7919W        W76260  37.952  24.667   0.875
 7920W        W76261  33.438   7.259   2.355
 7921W        W76262  32.936  36.356  12.952
 7922W        W76263  39.892  41.031  14.977
 7923W        W76264  14.800  28.520   0.959
 7924W        W76265   9.704  38.409   4.755
 7925W        W76266  38.910  18.591   9.985
 7926W        W76267   5.774   9.886  12.851
 7927W        W76268  41.423   1.240   1.409
 7928W        W76269   9.381   6.880  13.890
 7929W        W76270   5.933  21.087   0.343
 7930W        W76271  20.268  25.695   0.907
 7931W        W76272  19.582  40.392  12.916
 7932W        W76273  41.511  35.866  11.390
 7933W        W76274  41.517   5.819   0.791
 7934W        W76275   5.433  29.486  10.934
 7935W        W76276   5.830  10.640   2.303
 7936W        W76277   6.338  12.620  10.890
 7937W        W76278  12.233  33.957  14.483
 7938W        W76279  12.752  37.028   1.326
 7939W        W76280  44.958  15.672   2.782
 7940W        W76281  29.555   2.309   1.849
 7941W        W76282  35.437   9.796   3.378
 7942W        W76283  24.657   1.754   4.770
 7943W        W76284  28.552  21.026  10.541
 7944W        W76285  36.422  14.206  14.944
 7945W        W76286  37.536  17.233  11.465
 7946W        W76287  27.160  34.448   4.305
 7947W        W76288  43.772  31.058   4.118
 7948W        W76289  21.261  27.687  14.922
 7949W        W76290  18.296  34.405  10.480
 7950W        W76291  15.256  30.073   1.308
 7951W        W76292   3.948   0.950  10.058
 7952W        W76293  29.504  41.413  11.002
 7953W        W76294  23.733  16.318  13.056
 7954W        W76295  44.290   4.294   0.777
 7955W        W76296  34.597   6.727  12.989
 7956W        W76297  12.261  25.094  12.862
 7957W        W76298  12.305  41.450   2.306
 7958W        W76299  37.864  23.727  14.370
 7959W        W76300  40.007  11.215  12.981
 7960W        W76301  19.216  30.113  12.879
 7961W        W76302  34.471   1.861  14.919
 7962W        W76303   2.758  10.300   4.741
 7963W        W76304   0.439  38.551   3.803
 7964W        W76305  37.872  13.116   2.814
 7965W        W76306  44.299   3.798   2.771
 7966W        W76307   7.673   3.328   0.810
 7967W        W76308  31.020   0.438   1.767
 7968W        W76309  25.143   6.294  11.125
 7969W        W76310  43.446  33.110   2.848
 7970W        W76311  41.431  11.190  13.978
 7971W        W76312  10.729  35.562   4.325
 7972W        W76313   1.899  20.690  12.884
 7973W        W76314  38.846  26.457   0.874
 7974W        W76315   9.355  26.123  14.763
 7975W        W76316  28.601  44.768   1.904
 7976W        W76317  40.983  29.173   1.834
 7977W        W76318  15.249  13.151  11.864
 7978W        W76319   9.868  11.810  12.852
 7979W        W76320   4.706   6.922   0.876
 7980W        W76321  28.053  28.613   0.287
 7981W        W76322  28.648  30.515   3.700
 7982W        W76323  42.288  15.113   4.644
 7983W        W76324  25.617  33.879  11.043
 7984W        W76325  27.661  10.676  10.426
 7985W        W76326   4.355  34.608  10.952
 7986W        W76327  13.708  22.134   2.384
 7987W        W76328  21.619  12.785  12.090
 7988W        W76329  12.743  19.091   4.660
 7989W        W76330  26.095  41.869  12.408
 7990W        W76331  35.088   2.404  14.284
 7991W        W76332   2.767  22.586  13.995
 7992W        W76333  15.769   0.796   1.754
 7993W        W76334  31.988  36.348   2.368
 7994W        W76335  37.521  12.704  12.574
 7995W        W76336   8.161  35.579   3.844
 7996W        W76337  14.723  43.950  14.278
 7997W        W76338   2.285  23.195  11.064
 7998W        W76339  35.918  23.073   2.862
 7999W        W76340  18.059  23.578   0.370
 8000W        W76341  39.039  44.800  10.607
 8001W        W76342  25.990  34.485   4.685
 8002W        W76343  21.106  16.209  13.322
 8003W        W76344  15.641  16.216   3.738
 8004W        W76345  14.141  43.381  14.439
 8005W        W76346  10.780  33.127  12.012
 8006W        W76347   7.803  37.042   4.620
 8007W        W76348  42.514  12.794  12.455
 8008W        W76349   3.360  12.147   3.387
 8009W        W76350  41.828  23.736   2.295
 8010W        W76351  10.234   5.826  10.035
 8011W        W76352  12.347   4.277   2.262
 8012W        W76353  20.244  14.196   1.764
 8013W        W76354  24.002  31.976   3.776
 8014W        W76355  24.517  36.895  11.941
 8015W        W76356  15.591  38.554   0.932
 8016W        W76357  21.631  39.015   3.632
 8017W        W76358  38.057  40.831  14.939
 8018W        W76359  21.126   6.266  14.453
 8019W        W76360   5.412  33.022   3.276
 8020W        W76361  33.541  29.658   4.173
 8021W        W76362  38.958  32.913  10.993
 8022W        W76363  21.113  21.136   3.342
 8023W        W76364   4.355  14.330  14.879
 8024W        W76365  27.020   1.888  11.446
 8025W        W76366  32.107  23.056  10.419
 8026W        W76367   1.345  40.823   3.715
 8027W        W76368  38.408  43.994  14.767
 8028W        W76369  43.436  29.497  11.901
 8029W        W76370  24.128  18.547   4.202
 8030W        W76371  21.234  36.934  14.884
 8031W        W76372  28.437   7.797  13.405
 8032W        W76373  38.377   2.895  11.899
 8033W        W76374  22.669  41.904   4.738
 8034W        W76375  13.270  27.128   4.225
 8035W        W76376  41.807  33.456  10.135
 8036W        W76377  30.913  20.566  13.879
 8037W        W76378  38.355   0.410   4.655
 8038W        W76379  44.358   7.788   4.630
 8039W        W76380  25.681  43.469  12.507
 8040W        W76381   9.689  40.825  12.833
 8041W        W76382  42.490  15.681   2.384
 8042W        W76383  14.814  36.086   4.304
 8043W        W76384   2.364  10.352   5.168
 8044W        W76385  19.234  37.012   0.861
 8045W        W76386   3.911  18.122  12.448
 8046W        W76387  31.126  44.007  14.897
 8047W        W76388  37.890  43.377  10.542
 8048W        W76389  31.149   4.222   4.244
 8049W        W76390  25.095  41.294  11.554
 8050W        W76391  22.637  24.176   1.704
 8051W        W76392  20.168  12.693  12.342
 8052W        W76393  44.356  13.149   0.288
 8053W        W76394  42.345   6.339   0.892
 8054W        W76395   4.700  15.218   3.782
 8055W        W76396  24.601  13.721   3.300
 8056W        W76397  20.723  21.650  10.473
 8057W        W76398   3.448  12.316  10.999
 8058W        W76399   4.920  43.275  13.322
 8059W        W76400  11.633  13.729   4.730
 8060W        W76401  37.065   5.300   0.766
 8061W        W76402  12.312  36.424   2.743
 8062W        W76403  15.110  20.110   3.237
 8063W        W76404  30.542  43.767   2.375
 8064W        W76405   7.876   8.879  11.965
 8065W        W76406  39.542  10.333  14.393
 8066W        W76407  37.006  32.077  13.942
 8067W        W76408  17.635  24.212  12.062
 8068W        W76409  44.372  42.512  13.405
 8069W        W76410  13.616  30.008   3.669
 8070W        W76411  28.530   9.870  14.018
 8071W        W76412   0.808  25.203   4.337
 8072W        W76413   8.163  44.492  10.487
 8073W        W76414   4.777  38.326  10.983
 8074W        W76415   5.889  27.990   1.223
 8075W        W76416  36.043  35.470   3.836
 8076W        W76417  16.255  31.106   3.362
 8077W        W76418   4.414  21.693  12.035
 8078W        W76419  22.596  12.310   4.650
 8079W        W76420  35.501  30.485   2.717
 8080W        W76421  42.385  17.668   1.277
 8081W        W76422  15.182  28.447   2.886
 8082W        W76423   0.924  31.002   4.172
 8083W        W76424  25.001  15.183   1.876
 8084W        W76425  10.202   7.900   3.787
 8085W        W76426  23.067  26.996  11.104
 8086W        W76427   8.828   1.456   2.879
 8087W        W76428  20.221   2.754  14.483
 8088W        W76429  31.932  16.147   3.305
 8089W        W76430  24.701  31.033  14.896
 8090W        W76431  21.699  29.040   4.678
 8091W        W76432  30.075  39.988  10.614
 8092W        W76433   4.747  20.071  12.086
 8093W        W76434   4.238   1.800   2.899
 8094W        W76435  44.445  21.638   4.173
 8095W        W76436  31.644  14.285  11.125
 8096W        W76437  34.468  14.827   3.183
 8097W        W76438  22.018  32.953   0.817
 8098W        W76439  10.737  16.305  10.644
 8099W        W76440   2.877  12.253   0.247
 8100W        W76441  31.111  27.582  14.469
 8101W        W76442  17.604   0.852   4.827
 8102W        W76443  37.385  19.748   4.598
 8103W        W76444  11.358  36.962  12.883
 8104W        W76445  11.845   5.201  14.906
 8105W        W76446  39.339  37.037   4.606
 8106W        W76447  20.073  38.899   3.273
 8107W        W76448  42.423   6.277   1.246
 8108W        W76449  37.461  33.954   2.761
 8109W        W76450  38.958  19.551   2.808
 8110W        W76451  36.426  35.389   4.224
 8111W        W76452   6.843  44.010  14.305
 8112W        W76453  16.279  31.982  13.499
 8113W        W76454  38.947  33.090  13.328
 8114W        W76455  42.369  34.473   1.260
 8115W        W76456  36.913  26.657   0.465
 8116W        W76457  21.716  22.667   4.675
 8117W        W76458   7.369  34.572   1.935
 8118W        W76459  21.255   5.197  13.955
 8119W        W76460  32.019   1.847  10.608
 8120W        W76461  36.432  43.768  10.456
 8121W        W76462  29.015  38.463   4.815
 8122W        W76463   2.472  14.761  13.377
 8123W        W76464  42.007  38.903   0.359
 8124W        W76465  31.125  16.730  14.949
 8125W        W76466  22.019   0.329   1.806
 8126W        W76467  28.554   1.832   0.481
 8127W        W76468  35.478  33.058  11.431
 8128W        W76469   3.368  17.147   0.930
 8129W        W76470  27.522  27.153   1.935
 8130W        W76471  14.775   4.769  13.863
 8131W        W76472  18.766  40.944  12.077
 8132W        W76473   9.267  38.356   0.784
 8133W        W76474  36.926  13.248  12.070
 8134W        W76475  21.561  32.553   3.379
 8135W        W76476   4.884  35.394  13.034
 8136W        W76477  10.152  18.724  11.444
 8137W        W76478  43.311   7.311   0.945
 8138W        W76479   4.355  33.933  12.871
 8139W        W76480  15.164  29.467   2.227
 8140W        W76481  29.132  19.101  14.310
 8141W        W76482  25.481  29.994  14.276
 8142W        W76483  27.141  14.195   1.443
 8143W        W76484  25.542   5.802   0.399
 8144W        W76485  41.525  29.121   1.738
 8145W        W76486  11.278  24.198  12.879
 8146W        W76487  24.645  23.552   0.417
 8147W        W76488  44.340  26.954   1.389
 8148W        W76489  34.400  14.784   2.236
 8149W        W76490  21.598  39.041  14.313
 8150W        W76491  28.556  16.190   2.700
 8151W        W76492  31.078  36.517   3.263
 8152W        W76493  22.556  43.434   2.852
 8153W        W76494  25.501  15.154  11.113
 8154W        W76495   7.689  33.471   0.440
 8155W        W76496  15.777  43.334  12.923
 8156W        W76497  33.557   0.818   2.376
 8157W        W76498  25.113  28.056   4.782
 8158W        W76499  10.853  26.523   0.436
 8159W        W76500  42.409  12.239  14.509
 8160W        W76501  41.507  36.353  14.930
 8161W        W76502  34.904   5.257   0.455
 8162W        W76503  41.859  39.845   3.733
 8163W        W76504  13.120  38.819   1.437
 8164W        W76505  39.966  11.708   3.651
 8165W        W76506  30.113  24.562  12.556
 8166W        W76507  42.812  42.952   3.861
 8167W        W76508  43.454  27.975  12.971
 8168W        W76509  35.585  28.496  13.973
 8169W        W76510  28.457  30.552  13.332
 8170W        W76511  17.136  27.941  10.572
 8171W        W76512  12.141  37.865   1.848
 8172W        W76513   8.895   3.918  11.599
 8173W        W76514  44.327  25.575  14.282
 8174W        W76515  44.275  32.424  13.840
 8175W        W76516   8.337  25.599  11.419
 8176W        W76517  31.951   1.834  14.019
 8177W        W76518  20.613  15.711   0.773
 8178W        W76519  32.437  15.217  14.326
 8179W        W76520  18.104  41.395   3.203
 8180W        W76521  11.273  15.816  13.915
 8181W        W76522  13.135  42.891  11.014
 8182W        W76523  18.704  21.064   3.858
 8183W        W76524  18.558  15.754  13.452
 8184W        W76525  40.875  35.541   4.679
 8185W        W76526  33.396  15.253  14.414
 8186W        W76527  18.069   1.285  12.395
 8187W        W76528  35.416  36.855  13.359
 8188W        W76529   7.374  18.114  14.472
 8189W        W76530  38.883  20.759   2.899
 8190W        W76531  17.246  32.963  14.956
 8191W        W76532  18.073   1.284  10.532
 8192W        W76533   4.799   5.415   1.897
 8193W        W76534  36.352  26.030   1.908
 8194W        W76535  30.913  18.260  12.348
 8195W        W76536  20.605  43.469   1.344
 8196W        W76537   2.893   6.900  13.815
 8197W        W76538  37.348  39.438  13.817
 8198W        W76539  33.033  21.659   4.198
 8199W        W76540  15.667   1.252   3.286
 8200W        W76541  26.573   6.808   3.827
 8201W        W76542  24.678   0.293  10.894
 8202W        W76543  23.525   7.899   3.633
 8203W        W76544  44.937   1.773   2.875
 8204W        W76545  39.504  34.491  11.512
 8205W        W76546  30.419  35.557   3.711
 8206W        W76547   5.738  10.769   1.819
 8207W        W76548   5.810   6.829  13.383
 8208W        W76549  42.993  16.759   0.344
 8209W        W76550  21.562  39.019   4.296
 8210W        W76551   3.221  19.559   3.704
 8211W        W76552  35.864  18.101  10.893
 8212W        W76553  20.681   9.268   0.248
 8213W        W76554  36.872   0.903   1.390
 8214W        W76555  17.776  12.335  12.468
 8215W        W76556  19.708   0.490  10.890
 8216W        W76557   6.369  17.063   3.205
 8217W        W76558   4.858   3.895   1.360
 8218W        W76559  42.398   5.776   2.228
 8219W        W76560  12.737   6.838   3.380
 8220W        W76561  39.831  21.653   0.965
 8221W        W76562   2.393  19.618   5.690
 8222W        W76563  12.655  37.895   4.825
 8223W        W76564   7.826  34.968   1.854
 8224W        W76565   1.378   8.376  11.040
 8225W        W76566  32.096  26.546  12.420
 8226W        W76567  37.418  11.640  13.028
 8227W        W76568  33.532  14.336  10.615
 8228W        W76569  40.530  36.091   2.841
 8229W        W76570  25.107   2.729   3.660
 8230W        W76571  44.306  21.743  13.033
 8231W        W76572  38.545  19.276   1.257
 8232W        W76573   7.693  26.124   0.267
 8233W        W76574  13.603   8.758   4.335
 8234W        W76575  10.287  22.629   2.684
 8235W        W76576  12.646  19.658   4.771
 8236W        W76577  19.114  18.750   1.706
 8237W        W76578  24.049  11.787   5.106
 8238W        W76579  41.936  19.238  14.801
 8239W        W76580  38.065   9.769  12.039
 8240W        W76581  31.587  43.884  13.528
 8241W        W76582  30.421  38.942  12.425
 8242W        W76583   0.318  19.613  10.598
 8243W        W76584  11.137  11.816  14.311
 8244W        W76585  29.586  34.996  13.796
 8245W        W76586  24.066  26.460   1.915
 8246W        W76587  13.152  26.057   0.308
 8247W        W76588  22.679  37.081  12.838
 8248W        W76589  41.519  29.515  10.994
 8249W        W76590  39.466   6.211   3.802
 8250W        W76591  42.799  28.152  12.983
 8251W        W76592   0.946  41.347   4.738
 8252W        W76593   7.350   5.364   2.222
 8253W        W76594  16.698  27.101   4.148
 8254W        W76595  34.865  26.690   2.327
 8255W        W76596   4.296   2.274   4.216
 8256W        W76597  40.452  10.773   4.209
 8257W        W76598   6.225  25.497   2.330
 8258W        W76599  33.593  16.671  14.304
 8259W        W76600  43.502  42.927  10.119
 8260W        W76601   3.225   0.754   3.355
 8261W        W76602  29.639   1.808   3.742
 8262W        W76603  32.490  44.010   1.384
 8263W        W76604  20.763  23.169  11.971
 8264W        W76605  42.395  39.433   2.681
 8265W        W76606  14.204   9.838  10.490
 8266W        W76607  26.190  20.586   2.402
 8267W        W76608  22.159   0.929   4.341
 8268W        W76609  41.482  33.933  14.993
 8269W        W76610  32.603  25.037   5.088
 8270W        W76611  14.761  19.192   1.716
 8271W        W76612  25.479   4.843  14.814
 8272W        W76613  12.814  15.783   1.410
 8273W        W76614   7.732   4.263   0.870
 8274W        W76615  22.614  11.162   3.675
 8275W        W76616  35.990   4.893   3.759
 8276W        W76617  37.415  30.472   1.370
 8277W        W76618  32.103  30.647   2.350
 8278W        W76619  12.158   9.705   2.372
 8279W        W76620  16.615  24.067   1.861
 8280W        W76621  26.541  20.081  13.467
 8281W        W76622  16.288  14.241  13.824
 8282W        W76623  36.074  24.129   5.184
 8283W        W76624  15.744   1.932  14.471
 8284W        W76625  32.496  25.197  12.515
 8285W        W76626  38.377  44.008   0.404
 8286W        W76627  30.566  21.206   1.310
 8287W        W76628  28.565   1.467  14.996
 8288W        W76629  37.405  18.224  10.024
 8289W        W76630  27.673  39.547  10.599
 8290W        W76631   1.368  23.693  13.452
 8291W        W76632  28.096  35.487  11.458
 8292W        W76633  13.173  31.131  11.599
 8293W        W76634  27.043  34.570  11.913
 8294W        W76635  43.442  32.447   2.860
 8295W        W76636  39.370  13.179  11.569
 8296W        W76637  28.584   4.865  14.784
 8297W        W76638   4.932  12.837  14.500
 8298W        W76639   1.277  38.855  11.599
 8299W        W76640  19.626   7.793   2.407
 8300W        W76641  38.967  24.710   4.350
 8301W        W76642   2.729   3.739  12.023
 8302W        W76643  17.735  14.797   4.835
 8303W        W76644  11.322   7.302   1.229
 8304W        W76645  40.024  44.445  12.540
 8305W        W76646   1.247   5.205  13.432
 8306W        W76647  17.618  41.358   2.352
 8307W        W76648  27.461  15.131  14.302
 8308W        W76649  15.599  10.660   2.672
 8309W        W76650  40.458  24.172   3.702
 8310W        W76651  30.982  24.167  13.476
 8311W        W76652  20.716  20.048   4.244
 8312W        W76653  13.756  16.081   0.876
 8313W        W76654  44.953  27.621  10.584
 8314W        W76655  26.530  40.845   4.295
 8315W        W76656  18.739  10.145  13.804
 8316W        W76657   2.791  32.422   1.835
 8317W        W76658  20.616  28.930  14.942
 8318W        W76659  16.188   0.818  10.979
 8319W        W76660  44.881   4.259  14.504
 8320W        W76661   9.186  43.453  13.347
 8321W        W76662   0.472  34.573   4.623
 8322W        W76663  29.513  12.704  13.969
 8323W        W76664  36.386   7.776  14.869
 8324W        W76665  40.798   8.370  13.056
 8325W        W76666  39.054  34.542   2.821
 8326W        W76667   6.306  42.959  11.022
 8327W        W76668  28.980   2.288  13.015
 8328W        W76669  17.694  21.212   3.798
 8329W        W76670  40.859  24.621   4.751
 8330W        W76671   3.445   5.331   4.319
 8331W        W76672   1.307  14.715  12.540
 8332W        W76673  21.138  32.084  13.019
 8333W        W76674  24.166  31.143  11.432
 8334W        W76675  33.577  27.501   2.238
 8335W        W76676  13.663   6.416   4.616
 8336W        W76677  39.003  20.222  14.024
 8337W        W76678  28.535  16.278  12.001
 8338W        W76679  32.903   7.195  13.457
 8339W        W76680  17.800   3.758   2.188
 8340W        W76681   6.274  23.082   0.282
 8341W        W76682  11.320  35.501   1.812
 8342W        W76683  24.126  41.453  12.524
 8343W        W76684   0.281  23.222  13.865
 8344W        W76685   1.395   0.953  10.942
 8345W        W76686  23.035   3.367   2.816
 8346W        W76687  31.021   5.347  10.965
 8347W        W76688  26.001   6.227   0.951
 8348W        W76689  11.760  30.912   1.438
 8349W        W76690   2.343  25.120  13.387
 8350W        W76691  33.419  32.008   3.306
 8351W        W76692  24.635  42.484   4.652
 8352W        W76693  19.680  42.007  14.928
 8353W        W76694   6.872  30.654  12.016
 8354W        W76695   1.381  25.515   3.680
 8355W        W76696  15.747  24.107  13.470
 8356W        W76697   3.763  24.989   1.921
 8357W        W76698  28.656  35.530   4.332
 8358W        W76699  30.437  12.169   1.285
 8359W        W76700  24.993  29.508   1.348
 8360W        W76701  42.923  32.002  11.518
 8361W        W76702  10.844  21.642   0.423
 8362W        W76703  20.114  42.923   2.775
 8363W        W76704  26.509   7.748   1.860
 8364W        W76705  41.432  43.398   5.698
 8365W        W76706   2.900   8.196  12.961
 8366W        W76707  40.456  32.424   1.432
 8367W        W76708  34.427  43.777  13.521
 8368W        W76709   1.906  12.275  11.992
 8369W        W76710  32.544  32.916   0.376
 8370W        W76711  31.570  35.998   4.227
 8371W        W76712  34.546  40.424   9.554
 8372W        W76713   3.894  19.135   2.702
 8373W        W76714   3.915  29.436   2.675
 8374W        W76715  25.096  34.538  12.836
 8375W        W76716   0.868  22.015   2.819
 8376W        W76717  37.998   2.935  14.919
 8377W        W76718  14.763   5.731  11.985
 8378W        W76719  33.040   0.323  14.870
 8379W        W76720   0.958  18.643  13.029
 8380W        W76721  41.946   0.257   0.434
 8381W        W76722  17.645  30.152   1.713
 8382W        W76723  23.582  16.124  11.913
 8383W        W76724  24.717  21.639   1.789
 8384W        W76725   3.296  35.458   2.336
 8385W        W76726   9.716  21.080  12.484
 8386W        W76727  32.140   4.729   0.464
 8387W        W76728  20.565  43.355   3.221
 8388W        W76729  24.161   4.910  14.860
 8389W        W76730   0.902   9.193  10.513
 8390W        W76731   8.180  18.144   2.200
 8391W        W76732   5.860   0.983   3.717
 8392W        W76733  32.114  39.951  11.451
 8393W        W76734  34.076  22.025  11.504
 8394W        W76735  33.996  20.112   2.237
 8395W        W76736  20.109  39.037   4.733
 8396W        W76737   0.902  26.527  10.955
 8397W        W76738  14.302  20.625  12.461
 8398W        W76739  34.899  30.471  12.906
 8399W        W76740  21.034   4.751  11.486
 8400W        W76741   9.197  15.303  13.921
 8401W        W76742  25.997  24.609   2.219
 8402W        W76743  14.724  35.084   2.836
 8403W        W76744  15.749  18.579   4.347
 8404W        W76745   6.836  32.600  11.467
 8405W        W76746  37.561  18.093   2.689
 8406W        W76747   2.299  12.202   4.651
 8407W        W76748  21.218  35.931  12.388
 8408W        W76749  23.644  35.445  10.408
 8409W        W76750  15.675  32.497  12.885
 8410W        W76751  17.281   0.419  11.020
 8411W        W76752  26.631  25.553   2.686
 8412W        W76753  31.936   5.845   3.828
 8413W        W76754  36.016  41.348   4.143
 8414W        W76755   9.331   5.871  13.512
 8415W        W76756  20.573  43.783  12.421
 8416W        W76757  12.133   2.771   3.705
 8417W        W76758  18.105  32.001   0.729
 8418W        W76759  36.409  14.171  12.970
 8419W        W76760  17.732   2.959  14.895
 8420W        W76761  41.867  11.834  14.437
 8421W        W76762  43.836  18.639  11.597
 8422W        W76763  29.536  23.631  13.808
 8423W        W76764  30.148  25.626   3.731
 8424W        W76765  20.139   4.228   0.454
 8425W        W76766   8.310  31.631   4.269
 8426W        W76767  24.057  30.967  12.515
 8427W        W76768  15.240  40.544   2.372
 8428W        W76769  20.176   1.753   4.232
 8429W        W76770  30.474   0.251  12.376
 8430W        W76771  12.855  28.992  11.604
 8431W        W76772  27.674  13.271  12.556
 8432W        W76773  29.969  23.084   2.355
 8433W        W76774  12.656   8.808  11.535
 8434W        W76775  21.653  14.602   0.413
 8435W        W76776  44.958   1.263  13.962
 8436W        W76777  31.449  40.468   2.348
 8437W        W76778   8.192  15.133   0.816
 8438W        W76779   3.245  17.178   2.662
 8439W        W76780  41.799   7.683  11.598
 8440W        W76781  38.467   7.214   2.750
 8441W        W76782  16.636   7.316  13.946
 8442W        W76783  26.529   9.393   2.761
 8443W        W76784  17.273  27.527   3.282
 8444W        W76785   2.257   2.862  11.959
 8445W        W76786  14.303   7.405   4.119
 8446W        W76787  43.347  36.948  10.640
 8447W        W76788  17.680   3.283   2.763
 8448W        W76789  35.531  10.361   1.232
 8449W        W76790  44.989  10.286  11.126
 8450W        W76791   7.799   8.785  11.056
 8451W        W76792  22.059   8.792  10.440
 8452W        W76793  24.979  16.115   4.213
 8453W        W76794  38.070  40.386   3.740
 8454W        W76795  13.689  39.878   1.246
 8455W        W76796   3.377  22.528   0.833
 8456W        W76797  28.649  26.476  14.353
 8457W        W76798  22.564   6.266   0.369
 8458W        W76799  30.073   3.424   1.925
 8459W        W76800  24.974  18.728  14.424
 8460W        W76801   0.915  30.567  12.423
 8461W        W76802  24.517   5.922   2.182
 8462W        W76803  37.015  15.241   4.830
 8463W        W76804  10.304  28.141   1.308
 8464W        W76805  30.427  30.006   2.688
 8465W        W76806  29.113  24.606  14.451
 8466W        W76807   7.729   8.806  11.488
 8467W        W76808  35.460  19.753   2.329
 8468W        W76809  14.130  44.476  12.510
 8469W        W76810  30.995  27.124  12.373
 8470W        W76811  22.086   3.739   3.173
 8471W        W76812   5.889   0.943   0.332
 8472W        W76813  38.870  34.903  12.014
 8473W        W76814   1.920  10.666  12.842
 8474W        W76815   8.343  21.575   1.444
 8475W        W76816  15.775  31.966  11.589
 8476W        W76817  20.661  44.485  13.795
 8477W        W76818  21.758  19.042   2.669
 8478W        W76819  21.117   6.715  12.854
 8479W        W76820  32.091  22.087  13.971
 8480W        W76821   3.444  12.193   3.841
 8481W        W76822  34.455  30.638  13.064
 8482W        W76823  18.264  36.842  14.475
 8483W        W76824  22.160  38.366   3.148
 8484W        W76825  36.438  24.023   4.812
 8485W        W76826  27.553  19.545   1.720
 8486W        W76827  15.809   2.402  10.436
 8487W        W76828   8.358  34.932   3.347
 8488W        W76829  32.983  42.462  14.976
 8489W        W76830   4.775   6.331   0.825
 8490W        W76831  31.918  31.043  12.025
 8491W        W76832   0.930  10.723  13.985
 8492W        W76833   6.311  26.697   2.209
 8493W        W76834  24.156  38.034   3.631
 8494W        W76835  34.606  24.694   2.374
 8495W        W76836   9.687  16.089   2.313
 8496W        W76837   0.261   0.321   4.170
 8497W        W76838  27.974  33.510  12.905
 8498W        W76839   7.678  30.600  11.904
 8499W        W76840  20.697   0.292  12.925
 8500W        W76841  34.922   6.764  12.372
 8501W        W76842  39.494  33.072  14.332
 8502W        W76843  14.811  28.475  11.099
 8503W        W76844  14.105   0.805  13.491
 8504W        W76845  35.948  33.096   1.306
 8505W        W76846  37.031   2.900  10.552
 8506W        W76847  31.088  44.845   0.865
 8507W        W76848  23.514  38.947  11.380
 8508W        W76849  20.095  17.718  10.461
 8509W        W76850  44.956  17.756  12.015
 8510W        W76851  14.200  40.941   3.192
 8511W        W76852  31.116   7.800   3.721
 8512W        W76853   0.326  41.839   1.711
 8513W        W76854  16.722  44.338   2.879
 8514W        W76855  22.025  30.439  13.453
 8515W        W76856  38.937  22.139   3.700
 8516W        W76857   4.238  35.603  10.639
 8517W        W76858  40.852  12.625  12.090
 8518W        W76859  11.748  37.980   4.619
 8519W        W76860  35.521  35.046  14.897
 8520W        W76861  18.280   5.231   0.366
 8521W        W76862   0.872  17.182   3.669
 8522W        W76863   3.951  26.472   3.315
 8523W        W76864  36.456  37.460   3.725
 8524W        W76865   7.335  27.954  12.371
 8525W        W76866  20.053  36.896   0.932
 8526W        W76867   3.410  20.060   0.750
 8527W        W76868  19.665  32.514   4.122
 8528W        W76869  26.596   0.851   0.921
 8529W        W76870  26.516   9.170  14.932
 8530W        W76871  28.666  29.079  14.960
 8531W        W76872  15.280  35.445   4.230
 8532W        W76873  40.923   1.816  13.397
 8533W        W76874  13.134  13.207   0.798
 8534W        W76875  35.955  43.332   1.428
 8535W        W76876  22.642  43.939  10.923
 8536W        W76877  32.447  39.364   3.243
 8537W        W76878  11.666  21.717   2.696
 8538W        W76879  43.272  30.607  13.390
 8539W        W76880  19.577  30.421  14.377
 8540W        W76881  40.359  34.592  13.943
 8541W        W76882  19.626   2.288   0.350
 8542W        W76883  25.010  17.262  13.875
 8543W        W76884  27.121  14.163   0.952
 8544W        W76885   3.881  34.381   1.754
 8545W        W76886   3.781   6.682  13.436
 8546W        W76887  37.855  12.225  11.504
 8547W        W76888  12.679   1.388   3.761
 8548W        W76889  29.662  43.975   2.211
 8549W        W76890  22.702  25.547  10.906
 8550W        W76891  36.385   8.776  12.046
 8551W        W76892  38.477   2.913  10.499
 8552W        W76893  34.489  26.464  13.351
 8553W        W76894  21.633  40.509  12.949
 8554W        W76895  31.502   0.864  11.127
 8555W        W76896  15.217  27.586  12.899
 8556W        W76897  17.655  21.731   4.222
 8557W        W76898  34.576  39.332   4.249
 8558W        W76899  39.314  35.915   3.239
 8559W        W76900   2.278  31.549  11.564
 8560W        W76901   1.871  14.824   4.659
 8561W        W76902  15.205  10.867   0.438
 8562W        W76903  15.718  33.610  13.315
 8563W        W76904  22.220  31.909  11.422
 8564W        W76905  44.379  43.828   0.452
 8565W        W76906  35.440  22.619  10.950
 8566W        W76907   7.322  23.629  13.907
 8567W        W76908   8.267   4.828  13.422
 8568W        W76909   0.480  26.489   0.943
 8569W        W76910  32.018  40.043  13.417
 8570W        W76911   9.765  19.671  12.042
 8571W        W76912   7.692  44.454  14.957
 8572W        W76913   2.848  14.228  12.473
 8573W        W76914  39.496  10.654  10.566
 8574W        W76915  44.275  31.920   1.376
 8575W        W76916  32.987  42.815   0.967
 8576W        W76917   2.814  37.512   0.413
 8577W        W76918  19.676  20.197   2.737
 8578W        W76919  13.288  10.829   1.711
 8579W        W76920  20.739  39.517   4.739
 8580W        W76921   0.362  43.953   4.663
 8581W        W76922  20.114  11.350   4.247
 8582W        W76923  29.113  11.207   4.342
 8583W        W76924   0.401  18.693  10.471
 8584W        W76925  25.581  23.632  11.037
 8585W        W76926  32.035  12.124  10.438
 8586W        W76927  15.742  39.558  11.447
 8587W        W76928  27.134  26.952   0.243
 8588W        W76929  31.992  15.685   2.743
 8589W        W76930  23.187   3.748   2.728
 8590W        W76931  17.075  36.530  11.411
 8591W        W76932  23.022  31.139   4.815
 8592W        W76933   1.260  25.614   1.713
 8593W        W76934  26.587   8.326   1.734
 8594W        W76935   8.327  21.029   5.226
 8595W        W76936  38.047  31.934  12.903
 8596W        W76937  13.683  15.681  13.541
 8597W        W76938   9.737  18.734  14.999
 8598W        W76939  26.033   3.267   4.640
 8599W        W76940  39.840  18.066   4.138
 8600W        W76941   3.228   7.393  14.022
 8601W        W76942  12.631  33.055  11.079
 8602W        W76943  39.474  26.976   4.166
 8603W        W76944   0.448  39.397   2.752
 8604W        W76945  37.962  42.439   0.827
 8605W        W76946  33.889   6.183  14.356
 8606W        W76947  39.934   1.260  14.469
 8607W        W76948  36.517  37.043  11.535
 8608W        W76949  15.610   2.391   0.300
 8609W        W76950  29.093  12.135  14.961
 8610W        W76951  13.339   9.176   2.903
 8611W        W76952  29.516  23.019  12.978
 8612W        W76953   2.757   8.834  10.583
 8613W        W76954  19.572   3.934  13.039
 8614W        W76955  13.283  44.002  12.912
 8615W        W76956   8.839  29.112  10.443
 8616W        W76957  35.392  25.562  11.472
 8617W        W76958  12.205  37.501  11.862
 8618W        W76959  14.105  44.779  14.999
 8619W        W76960  42.020  21.612   4.350
 8620W        W76961  39.989   3.299   3.153
 8621W        W76962  13.166   3.242  14.822
 8622W        W76963  32.551  23.580  12.450
 8623W        W76964  42.964   6.278  11.866
 8624W        W76965  36.014   7.234  11.525
 8625W        W76966  37.933  40.017  12.459
 8626W        W76967  27.190  10.837  13.390
 8627W        W76968  21.236  34.409   1.415
 8628W        W76969  28.496  27.448  14.503
 8629W        W76970  34.487  21.146  12.400
 8630W        W76971  20.522  32.063  14.778
 8631W        W76972  11.754  32.102   9.995
 8632W        W76973  40.020  43.453   2.875
 8633W        W76974  32.530  23.524   3.376
 8634W        W76975   5.336   8.308  11.036
 8635W        W76976  20.534  27.062  10.501
 8636W        W76977  44.821  24.499  11.542
 8637W        W76978  27.533   4.253   4.756
 8638W        W76979  10.775  31.487   3.300
 8639W        W76980  36.392   0.366   1.711
 8640W        W76981  16.582  40.323   2.744
 8641W        W76982  22.611  13.158  14.422
 8642W        W76983  25.047  13.105  12.060
 8643W        W76984  11.709   7.208   1.440
 8644W        W76985  23.665  16.587   2.834
 8645W        W76986  36.005   5.199  11.561
 8646W        W76987   7.408  29.641   1.819
 8647W        W76988   3.725  18.252   3.203
 8648W        W76989  34.578  11.769   4.317
 8649W        W76990  17.561  30.566   5.322
 8650W        W76991  25.602  33.493   0.448
 8651W        W76992  24.976  31.558   3.717
 8652W        W76993  29.147  38.512  11.056
 8653W        W76994  43.934  18.682  12.922
 8654W        W76995   0.369   9.847   0.460
 8655W        W76996  22.172  28.939  12.369
 8656W        W76997  34.557  36.926   0.944
 8657W        W76998  18.106  22.128  14.842
 8658W        W76999  34.438  37.393  14.933
 8659W        W77000   5.761  17.773   2.293
 8660W        W77001  12.781  40.829   0.478
 8661W        W77002  43.309  19.058  10.122
 8662W        W77003  11.705  18.791   4.735
 8663W        W77004  21.757  21.725  11.587
 8664W        W77005  26.174  32.502  14.778
 8665W        W77006   7.272   9.820  14.023
 8666W        W77007  12.248  29.601  12.577
 8667W        W77008  16.182  25.514   4.643
 8668W        W77009  30.096  13.203  12.027
 8669W        W77010  40.898  16.692   1.339
 8670W        W77011   5.308  29.569  14.396
 8671W        W77012  33.549  14.151   2.250
 8672W        W77013   6.393   0.827   0.386
 8673W        W77014   6.294  15.700  14.831
 8674W        W77015   0.936  36.967  11.433
 8675W        W77016   0.893  39.415   2.215
 8676W        W77017  25.012  38.536  13.466
 8677W        W77018  10.331   4.773   3.735
 8678W        W77019  24.655   6.896   2.880
 8679W        W77020  30.012  36.031  12.353
 8680W        W77021  29.960  31.417  10.615
 8681W        W77022  41.491  29.590   1.263
 8682W        W77023  26.548  27.983   1.703
 8683W        W77024  20.647  36.012   1.308
 8684W        W77025  41.808  34.992  13.366
 8685W        W77026  38.869  41.938   3.253
 8686W        W77027   4.712  37.983   3.258
 8687W        W77028  41.348  17.144  13.860
 8688W        W77029  43.453  23.698  11.858
 8689W        W77030  18.275  21.575   2.714
 8690W        W77031  30.480  33.560  11.123
 8691W        W77032  24.043  27.169   1.746
 8692W        W77033  30.517  13.757   0.918
 8693W        W77034  24.704  22.098  12.388
 8694W        W77035   5.263  31.012   4.775
 8695W        W77036  37.461   9.872   0.259
 8696W        W77037  43.392  40.977  13.458
 8697W        W77038  11.794  22.236  11.055
 8698W        W77039  24.206   7.385  11.416
 8699W        W77040  43.352  25.481   3.651
 8700W        W77041   9.657   3.771   1.411
 8701W        W77042  32.933  30.558  14.426
 8702W        W77043  27.510  23.068   0.961
 8703W        W77044  29.631  20.572   3.180
 8704W        W77045  41.339  21.161   5.134
 8705W        W77046   2.239  38.943  14.972
 8706W        W77047  32.132  37.996   1.742
 8707W        W77048  31.642  37.076  12.860
 8708W        W77049  29.055   4.284  11.867
 8709W        W77050  26.159  26.089   4.341
 8710W        W77051  31.023  44.796  11.113
 8711W        W77052  44.813  35.920  13.386
 8712W        W77053  12.153  29.140  14.764
 8713W        W77054  25.995  36.419  14.022
 8714W        W77055   8.855   6.198   1.924
 8715W        W77056  30.032  14.744   1.389
 8716W        W77057  38.002  33.007   2.349
 8717W        W77058  32.589  17.569   3.771
 8718W        W77059  21.061   9.332  14.346
 8719W        W77060   4.900  25.203  13.307
 8720W        W77061  22.226  32.539   0.249
 8721W        W77062  36.480  15.142   2.266
 8722W        W77063  24.055  29.008  13.436
 8723W        W77064  14.827  14.643   3.154
 8724W        W77065   4.782  35.062   1.370
 8725W        W77066  42.029  33.407   0.830
 8726W        W77067  44.471  18.781   4.271
 8727W        W77068  27.583  28.488   2.416
 8728W        W77069  18.612   8.803  13.509
 8729W        W77070  15.812  39.050  10.580
 8730W        W77071  34.030   6.423  14.887
 8731W        W77072  35.032  20.100  14.390
 8732W        W77073   6.212  18.054  14.503
 8733W        W77074  39.941   6.364  14.952
 8734W        W77075  11.244  31.584   2.870
 8735W        W77076  14.187   6.773  10.556
 8736W        W77077  33.078  18.700  11.483
 8737W        W77078  21.741  12.838  14.881
 8738W        W77079  43.441  24.700  11.532
 8739W        W77080   6.868  24.147   0.926
 8740W        W77081  41.440  42.848  11.504
 8741W        W77082  31.641  44.985   2.260
 8742W        W77083  34.035  22.201  13.417
 8743W        W77084  43.506  36.848   0.347
 8744W        W77085  20.602  18.645   4.255
 8745W        W77086  36.559  28.662   1.409
 8746W        W77087  10.751  40.354  11.436
 8747W        W77088   3.372  15.182  10.573
 8748W        W77089   2.247  11.633  14.801
 8749W        W77090  36.587  14.303   2.242
 8750W        W77091  43.941  16.609  12.576
 8751W        W77092  21.081   4.889   1.845
 8752W        W77093  22.721  41.461   2.331
 8753W        W77094  22.126  25.568   4.213
 8754W        W77095  11.791  13.126   2.256
 8755W        W77096  10.378  33.608   3.179
 8756W        W77097  21.539  36.552  14.408
 8757W        W77098  16.114  44.317   2.852
 8758W        W77099  12.305  18.188  11.129
 8759W        W77100   8.660   7.736   2.200
 8760W        W77101  37.831   3.817  10.436
 8761W        W77102  19.053  32.919   3.815
 8762W        W77103  19.141  27.052   3.203
 8763W        W77104   6.387  23.491  13.399
 8764W        W77105   9.831  32.106  10.549
 8765W        W77106   6.702  29.503  14.465
 8766W        W77107  25.005   8.294   4.243
 8767W        W77108  39.508  27.060   2.407
 8768W        W77109  15.201   5.835   3.366
 8769W        W77110  13.800  24.132   0.306
 8770W        W77111  35.477   2.776   4.767
 8771W        W77112  22.667  19.737   0.779
 8772W        W77113  15.203  43.355  14.404
 8773W        W77114  44.817  11.645   1.347
 8774W        W77115  27.482  41.455  12.879
 8775W        W77116  20.693  31.977   1.736
 8776W        W77117  16.176  21.515   1.877
 8777W        W77118  30.930  38.486   4.168
 8778W        W77119  20.100  15.795  12.827
 8779W        W77120  38.410  22.228   3.377
 8780W        W77121   0.742  14.195   5.222
 8781W        W77122  28.504  17.206  12.563
 8782W        W77123  14.785   3.735  12.843
 8783W        W77124   9.388  13.211   0.344
 8784W        W77125   6.762  16.306  14.766
 8785W        W77126  37.463  15.714  14.431
 8786W        W77127  29.438  29.142  14.018
 8787W        W77128  23.207  30.125   4.298
 8788W        W77129  14.198   9.669   4.331
 8789W        W77130  41.840  19.271  12.916
 8790W        W77131  42.009   3.316   1.705
 8791W        W77132  19.702  39.882   4.204
 8792W        W77133  25.212   0.381  13.470
 8793W        W77134  41.367  37.516   0.322
 8794W        W77135  24.118   1.877   0.283
 8795W        W77136  11.332  12.357  11.011
 8796W        W77137   5.289  30.486   3.155
 8797W        W77138  32.557  16.607   4.171
 8798W        W77139   1.957  11.800  10.437
 8799W        W77140  21.662   3.792  14.296
 8800W        W77141  26.173  10.850  14.405
 8801W        W77142   0.287  20.253  14.424
 8802W        W77143  21.570   9.714  13.886
 8803W        W77144  19.283  44.821   3.757
 8804W        W77145   6.703   2.390   3.381
 8805W        W77146  17.144   1.281   1.407
 8806W        W77147  22.671  22.023  13.471
 8807W        W77148  35.402   5.307  10.912
 8808W        W77149  27.948  34.509  13.423
 8809W        W77150  40.438  29.489  14.886
 8810W        W77151  17.704   1.908  11.434
 8811W        W77152  43.815  44.775   2.763
 8812W        W77153   2.735  44.444   3.291
 8813W        W77154  22.571   4.238  14.413
 8814W        W77155  26.205  10.724   4.296
 8815W        W77156   8.193  42.376  12.575
 8816W        W77157  41.336   1.395  12.433
 8817W        W77158   2.962  26.601  14.863
 8818W        W77159  12.632   7.299   1.331
 8819W        W77160  34.491  24.073   4.787
 8820W        W77161  25.609  10.647  14.920
 8821W        W77162  16.663  23.675   3.840
 8822W        W77163   9.392  40.871  14.814
 8823W        W77164  16.769  22.105  12.875
 8824W        W77165  40.955  32.390   4.319
 8825W        W77166  35.873  39.905  13.821
 8826W        W77167  32.894  42.475  10.080
 8827W        W77168   5.696  41.859  12.967
 8828W        W77169   7.754  38.569  10.897
 8829W        W77170  44.884  41.832   1.867
 8830W        W77171  44.916  36.880   1.872
 8831W        W77172  28.969  33.515   1.711
 8832W        W77173  26.183   6.736   0.466
 8833W        W77174  13.604  42.308   3.374
 8834W        W77175  41.987  24.504  14.883
 8835W        W77176  12.189   6.786   1.784
 8836W        W77177   5.363   8.345  10.472
 8837W        W77178  34.939  17.306  11.974
 8838W        W77179  43.854  26.607  14.974
 8839W        W77180  41.825   0.772  10.558
 8840W        W77181  19.259  44.961   2.198
 8841W        W77182  36.356  41.868   3.835
 8842W        W77183   4.343   9.185   1.701
 8843W        W77184  29.551  43.295   1.221
 8844W        W77185  14.691  34.520  11.000
 8845W        W77186  28.085  43.280  11.924
 8846W        W77187  37.082  10.218   2.403
 8847W        W77188  32.492  15.664  12.572
 8848W        W77189  34.968  39.480  12.026
 8849W        W77190   9.857  34.876   2.246
 8850W        W77191  43.362  35.984   1.284
 8851W        W77192  28.658  26.981  11.384
 8852W        W77193  44.375  32.577   4.292
 8853W        W77194  27.080  24.223  14.462
 8854W        W77195  19.621  39.560   2.719
 8855W        W77196  32.914  30.595  12.527
 8856W        W77197   0.796  27.638  14.906
 8857W        W77198  20.101  23.539  11.022
 8858W        W77199  12.169   5.329   2.312
 8859W        W77200   5.435   3.790  12.449
 8860W        W77201  23.734  20.266  14.781
 8861W        W77202  31.055  25.604  11.114
 8862W        W77203  24.029   7.702  13.318
 8863W        W77204  14.267   5.402  14.943
 8864W        W77205  34.071  43.788  14.361
 8865W        W77206  20.725  11.741   3.301
 8866W        W77207  29.050  10.324   2.388
 8867W        W77208  29.463  27.017   1.758
 8868W        W77209  32.010  29.132  10.571
 8869W        W77210  31.581  21.638  13.902
 8870W        W77211   4.332  39.442  11.415
 8871W        W77212  20.084  17.649  13.477
 8872W        W77213  37.064  19.563  14.995
 8873W        W77214  34.022  12.759   3.778
 8874W        W77215  28.490   9.847  12.091
 8875W        W77216  39.898  23.138   4.705
 8876W        W77217  30.540  17.750   0.768
 8877W        W77218  41.303  16.627   0.961
 8878W        W77219   5.819  40.923  12.949
 8879W        W77220  27.001  37.973   2.829
 8880W        W77221   5.375  39.053  10.639
 8881W        W77222   1.870   6.821  12.346
 8882W        W77223  36.449  39.320  12.026
 8883W        W77224  31.519   4.945   1.406
 8884W        W77225  16.144  10.811   3.280
 8885W        W77226  21.212   7.271   2.860
 8886W        W77227  20.266  23.639   3.715
 8887W        W77228  29.484  38.058  12.443
 8888W        W77229  10.174  37.894  14.393
 8889W        W77230  11.245  37.531   4.701
 8890W        W77231  30.967  18.673  10.894
 8891W        W77232  16.647   4.720  10.995
 8892W        W77233  37.508  25.113  14.478
 8893W        W77234  21.679  42.333   3.868
 8894W        W77235   8.667   4.720   4.601
 8895W        W77236   9.820   4.225  14.775
 8896W        W77237  15.194  11.267  12.496
 8897W        W77238  40.337   9.212  14.762
 8898W        W77239   6.772  22.642  12.472
 8899W        W77240   5.817  12.618  14.282
 8900W        W77241  26.102  18.243   9.589
 8901W        W77242  43.957  35.975  13.860
 8902W        W77243  29.174   0.913   2.739
 8903W        W77244  34.524  32.982  10.549
 8904W        W77245  32.507  23.572  13.944
 8905W        W77246   2.762  38.899  10.933
 8906W        W77247   6.270  42.380   0.439
 8907W        W77248  35.455   0.896  11.866
 8908W        W77249   8.349   8.823  11.602
 8909W        W77250  35.536   6.750   1.418
 8910W        W77251  22.099   6.307  12.902
 8911W        W77252  21.048  30.589   3.637
 8912W        W77253  13.611  22.999   2.233
 8913W        W77254   3.378   4.842   0.888
 8914W        W77255   2.769  14.318  14.336
 8915W        W77256  32.055  23.082  14.975
 8916W        W77257  40.828  34.412   2.745
 8917W        W77258  40.317  10.750   3.676
 8918W        W77259   7.173  31.091  13.008
 8919W        W77260  43.322  22.026  11.075
 8920W        W77261  32.617  40.840  11.024
 8921W        W77262  10.296   3.805   1.791
 8922W        W77263  11.137  24.519   1.695
 8923W        W77264  27.675  39.519   2.419
 8924W        W77265  34.971  23.109   3.325
 8925W        W77266  44.358  29.990   4.123
 8926W        W77267  16.145   4.448  11.069
 8927W        W77268  24.016  15.183   0.862
 8928W        W77269  30.045  21.148   3.210
 8929W        W77270  12.820  35.961  13.934
 8930W        W77271  16.091  39.043  14.432
 8931W        W77272  39.993  25.044   2.241
 8932W        W77273  44.936   1.238  11.111
 8933W        W77274  39.974   4.827  14.805
 8934W        W77275  35.087   4.939   1.736
 8935W        W77276  20.221  36.543   2.811
 8936W        W77277   3.286  24.149   0.889
 8937W        W77278  34.393  30.450   2.892
 8938W        W77279  22.685  10.294   0.877
 8939W        W77280  13.713  30.590   2.310
 8940W        W77281  21.732   3.744  11.943
 8941W        W77282   3.907  17.674   9.613
 8942W        W77283  22.694  14.151   1.270
 8943W        W77284  34.885   0.277   4.798
 8944W        W77285  24.485  11.729  12.406
 8945W        W77286   6.762  30.540   1.246
 8946W        W77287  36.391   8.695   0.267
 8947W        W77288  41.930   3.436  12.883
 8948W        W77289  43.901  21.623   3.278
 8949W        W77290  15.094  30.469   2.329
 8950W        W77291  22.629   2.282  11.073
 8951W        W77292  35.058  17.586  12.077
 8952W        W77293  39.063  33.082   1.217
 8953W        W77294  26.515  38.000  11.436
 8954W        W77295  14.211  42.393   4.208
 8955W        W77296  39.468   9.787   1.814
 8956W        W77297  11.320  33.532  14.854
 8957W        W77298  41.323  42.388   1.325
 8958W        W77299  44.794  36.372   1.900
 8959W        W77300  12.316  42.960   0.429
 8960W        W77301   2.768  19.058  14.777
 8961W        W77302  14.680  12.850   1.284
 8962W        W77303   4.323  24.655  14.288
 8963W        W77304  39.498   2.287   3.333
 8964W        W77305   7.339  13.210  11.435
 8965W        W77306  25.711   2.720   4.153
 8966W        W77307  43.815  10.307   1.406
 8967W        W77308  10.744   9.314  12.050
 8968W        W77309   5.802  38.070  13.062
 8969W        W77310  31.543  31.018   3.710
 8970W        W77311  26.187   8.181  12.571
 8971W        W77312  31.020  30.163  12.992
 8972W        W77313  32.958  21.149   0.296
 8973W        W77314  38.046  37.389  13.385
 8974W        W77315  42.857  28.097  13.498
 8975W        W77316  25.177  41.522  13.547
 8976W        W77317   8.690   8.838  13.485
 8977W        W77318  32.984  32.399  11.466
 8978W        W77319  42.410  13.817  14.902
 8979W        W77320   4.286   3.745  13.416
 8980W        W77321  22.623  34.979  14.022
 8981W        W77322  44.274  24.001  12.527
 8982W        W77323   3.304  11.356  13.945
 8983W        W77324   7.397  34.947   0.765
 8984W        W77325   6.281   5.251   1.296
 8985W        W77326   1.476  15.097   1.734
 8986W        W77327  44.315  23.567   3.796
 8987W        W77328  15.095  42.881  11.047
 8988W        W77329  36.020  24.174   0.826
 8989W        W77330   4.289  29.058  13.544
 8990W        W77331   5.794   0.339   2.699
 8991W        W77332   2.262   9.689   1.894
 8992W        W77333  17.279   7.854   3.178
 8993W        W77334  44.298  41.501  10.888
 8994W        W77335  24.501   7.270  14.399
 8995W        W77336   3.329   0.920   4.725
 8996W        W77337  25.963  40.454  13.479
 8997W        W77338   9.203  32.034  10.926
 8998W        W77339  38.949  30.921   4.313
 8999W        W77340   8.174  31.920  11.490
 9000W        W77341  12.836  29.159  14.838
 9001W        W77342  15.740  17.254  10.899
 9002W        W77343   3.938   8.699  12.019
 9003W        W77344  33.960  12.278   1.243
 9004W        W77345  40.423  37.402   0.846
 9005W        W77346  42.850  34.879   1.781
 9006W        W77347  34.598  41.906  11.109
 9007W        W77348  42.445  26.655  12.427
 9008W        W77349  34.493  36.511  10.454
 9009W        W77350  19.695  12.636  10.621
 9010W        W77351  15.609  25.479  12.442
 9011W        W77352  12.730  40.364   3.272
 9012W        W77353  39.528  42.469   0.461
 9013W        W77354  37.418  40.875   0.315
 9014W        W77355   3.276  41.492  13.371
 9015W        W77356  32.556  30.508   1.436
 9016W        W77357  22.076  28.113  14.501
 9017W        W77358  28.085  36.888   3.767
 9018W        W77359   4.853   7.754  10.583
 9019W        W77360  24.089  32.079   2.414
 9020W        W77361  27.580   3.305  11.512
 9021W        W77362  44.946  35.028  12.055
 9022W        W77363  41.477  34.868  13.925
 9023W        W77364  41.988  21.600  11.450
 9024W        W77365  19.104  42.015   2.390
 9025W        W77366  19.697  42.325  13.989
 9026W        W77367  33.409  44.898   4.143
 9027W        W77368  17.241  35.456  14.787
 9028W        W77369   8.833  40.465   0.268
 9029W        W77370  21.557   6.189   2.855
 9030W        W77371  10.696  15.737  13.435
 9031W        W77372  33.987  23.166   4.170
 9032W        W77373  22.589  10.746   3.805
 9033W        W77374   4.910  27.055  12.864
 9034W        W77375  31.083  17.766  12.452
 9035W        W77376  14.196  11.855  13.407
 9036W        W77377  18.193  18.181   4.738
 9037W        W77378  11.651  27.949  11.387
 9038W        W77379  42.522  28.538   0.935
 9039W        W77380  43.914  29.139  12.980
 9040W        W77381  15.085   3.818   1.830
 9041W        W77382  28.179  23.992  10.920
 9042W        W77383  24.653  33.034   2.737
 9043W        W77384  38.483  21.144  12.571
 9044W        W77385   3.829  10.330   9.979
 9045W        W77386   7.219  24.612  13.923
 9046W        W77387  20.061  10.369   3.766
 9047W        W77388  23.212  10.249  13.922
 9048W        W77389  44.401  42.785  13.847
 9049W        W77390  10.215  37.068  12.088
 9050W        W77391  18.716  39.460   2.667
 9051W        W77392  32.034   6.300  14.479
 9052W        W77393  31.897  35.391  13.040
 9053W        W77394  34.509  17.250  10.937
 9054W        W77395   0.764  18.112   3.850
 9055W        W77396   6.812  37.456  13.813
 9056W        W77397   6.411   4.379  10.476
 9057W        W77398  24.545  17.134   1.436
 9058W        W77399  34.999   7.320  14.970
 9059W        W77400  14.241  19.115  13.393
 9060W        W77401  29.926  40.392  13.544
 9061W        W77402  22.739  28.995  11.497
 9062W        W77403  16.110  10.680  13.866
 9063W        W77404  15.768  12.306  13.945
 9064W        W77405  15.196  12.665   3.851
 9065W        W77406  18.137   5.227   4.290
 9066W        W77407  28.531  29.661   0.479
 9067W        W77408  30.559  22.140  14.508
 9068W        W77409  26.082  31.146   4.656
 9069W        W77410  30.010  17.772   3.283
 9070W        W77411  10.173  42.412   0.297
 9071W        W77412   5.414  16.082  14.454
 9072W        W77413  11.171  16.158  11.483
 9073W        W77414  32.452  17.062  11.541
 9074W        W77415  10.688   6.762  14.477
 9075W        W77416   6.201   3.930   1.218
 9076W        W77417  29.583  31.903  13.844
 9077W        W77418  25.537  33.618  10.030
 9078W        W77419  34.990  12.754  10.910
 9079W        W77420  16.256  23.046   1.231
 9080W        W77421  20.537   8.176   2.764
 9081W        W77422   4.765   3.807  13.984
 9082W        W77423  30.088  28.076   1.395
 9083W        W77424  12.145  32.524   0.756
 9084W        W77425   5.364  26.614  12.985
 9085W        W77426   0.911  37.896   3.781
 9086W        W77427  36.054  25.974  13.865
 9087W        W77428  31.038  44.319   2.215
 9088W        W77429   2.370  15.769   4.624
 9089W        W77430  44.993  35.459  11.382
 9090W        W77431  18.784  22.708  10.427
 9091W        W77432   5.708  25.577   1.236
 9092W        W77433  12.834  42.495  11.896
 9093W        W77434  22.029  37.479   4.218
 9094W        W77435   7.731  37.048  10.990
 9095W        W77436   6.263  12.182  14.359
 9096W        W77437  27.131  17.762  12.500
 9097W        W77438  19.047  37.840   3.730
 9098W        W77439  11.661   7.909   5.115
 9099W        W77440  34.873   9.205   0.923
 9100W        W77441  26.973  42.398   3.385
 9101W        W77442  36.984   4.870   0.358
 9102W        W77443  28.042  31.044  11.423
 9103W        W77444   8.813   9.329  12.541
 9104W        W77445  44.419   3.440   0.377
 9105W        W77446  23.085  29.471  11.010
 9106W        W77447  32.916  44.350  13.538
 9107W        W77448   8.286  29.027  12.855
 9108W        W77449   3.950  29.055   3.856
 9109W        W77450  13.336  30.048   2.828
 9110W        W77451   2.961   0.493   4.668
 9111W        W77452  31.542  41.436   4.736
 9112W        W77453  23.092  34.017   3.321
 9113W        W77454   7.293  12.624   0.840
 9114W        W77455  23.016  30.601  11.532
 9115W        W77456  33.502  15.126   3.662
 9116W        W77457  34.390  10.142   3.245
 9117W        W77458  42.382  11.293  13.313
 9118W        W77459  41.887  35.480  12.446
 9119W        W77460  12.714  33.404   1.755
 9120W        W77461   6.864  36.520   3.722
 9121W        W77462  11.662  11.177   0.849
 9122W        W77463  19.164  10.643  12.096
 9123W        W77464  37.386  21.587   0.967
 9124W        W77465  37.427  19.716  13.365
 9125W        W77466  42.809  38.973  10.603
 9126W        W77467  24.630  14.638  12.885
 9127W        W77468   5.207  10.313   3.654
 9128W        W77469   9.802  43.021   0.875
 9129W        W77470  33.601   9.717  13.398
 9130W        W77471  35.024  15.770  10.496
 9131W        W77472  41.444  18.080  14.296
 9132W        W77473  12.261  37.520   4.831
 9133W        W77474  27.182  28.983  12.376
 9134W        W77475   9.785  26.488   4.690
 9135W        W77476  15.094   3.247  12.363
 9136W        W77477  36.589  30.150  14.429
 9137W        W77478  32.090  12.308  13.826
 9138W        W77479  27.484  30.656  11.507
 9139W        W77480   6.366   0.804   2.278
 9140W        W77481  30.627  30.047  14.996
 9141W        W77482  28.545  11.858  11.531
 9142W        W77483  42.873  28.668   2.772
 9143W        W77484  13.131  31.590  10.983
 9144W        W77485  26.117  35.580   0.747
 9145W        W77486  31.510   0.265  14.349
 9146W        W77487   9.317  18.622  13.449
 9147W        W77488  10.830  11.341  11.032
 9148W        W77489   0.849  14.104   9.994
 9149W        W77490  21.673  19.265  11.608
 9150W        W77491  17.656  39.423   3.635
 9151W        W77492  39.423   9.383  11.579
 9152W        W77493   9.361  40.037  13.853
 9153W        W77494   7.817  13.740   1.899
 9154W        W77495  26.471  28.998  13.419
 9155W        W77496  11.160  12.628  12.519
 9156W        W77497  43.375   1.734  14.813
 9157W        W77498  40.439  13.231   3.860
 9158W        W77499  37.930   4.437  14.317
 9159W        W77500  32.929  37.981   3.775
 9160W        W77501  35.931  35.062  13.445
 9161W        W77502   4.368   5.432  10.914
 9162W        W77503  10.829  37.364   0.764
 9163W        W77504  16.585   8.871   0.365
 9164W        W77505  24.716   7.709  13.534
 9165W        W77506  19.058  14.750  13.056
 9166W        W77507   5.347  21.634  11.536
 9167W        W77508  20.564  30.428  14.813
 9168W        W77509  38.854  28.631   1.862
 9169W        W77510  12.141  38.071  14.428
 9170W        W77511  17.685  38.452   1.399
 9171W        W77512  31.903   6.230   1.926
 9172W        W77513  10.305  44.958  11.965
 9173W        W77514   7.364  35.413  13.493
 9174W        W77515  22.048  39.408   1.867
 9175W        W77516  23.058   5.310  12.065
 9176W        W77517  11.371  26.018   0.816
 9177W        W77518  15.118  29.141   3.311
 9178W        W77519   8.267  16.088  13.978
 9179W        W77520  32.483  17.280  10.510
 9180W        W77521  34.887  35.016  13.800
 9181W        W77522  41.515  41.460  13.037
 9182W        W77523  20.031  36.487   4.811
 9183W        W77524  28.034  26.158   0.463
 9184W        W77525  36.884  42.958  13.453
 9185W        W77526  12.196  29.158  10.605
 9186W        W77527   6.687  40.906   3.149
 9187W        W77528  29.555  12.656  14.798
 9188W        W77529  42.308   0.776   2.825
 9189W        W77530  17.282  12.350   2.824
 9190W        W77531  23.130   9.760  13.848
 9191W        W77532  19.681  35.424   3.803
 9192W        W77533  43.009  17.245   2.711
 9193W        W77534  18.295  12.710   4.772
 9194W        W77535   3.358  41.976  13.872
 9195W        W77536  29.000  33.948  10.567
 9196W        W77537  30.548   3.218   3.174
 9197W        W77538   5.389  36.577  14.336
 9198W        W77539   3.862  44.348   0.891
 9199W        W77540   6.783  31.553   1.351
 9200W        W77541  12.744  23.076   3.210
 9201W        W77542  10.197  32.531   0.366
 9202W        W77543  24.661   1.406   1.870
 9203W        W77544   2.775  41.404   3.739
 9204W        W77545  24.686   6.275   1.213
 9205W        W77546   4.774  32.123   1.835
 9206W        W77547  11.638  10.635  13.353
 9207W        W77548  26.472  24.589   0.933
 9208W        W77549  34.036  17.578   0.908
 9209W        W77550   5.755  28.985   4.321
 9210W        W77551  17.585   1.377  10.520
 9211W        W77552  18.605  40.940   4.669
 9212W        W77553  40.931  23.523  11.100
 9213W        W77554  12.160  26.552  13.954
 9214W        W77555   4.289   7.753   2.322
 9215W        W77556  22.581  21.236   2.316
 9216W        W77557  23.643   3.350   1.792
 9217W        W77558  36.365   3.875  11.871
 9218W        W77559  14.707   5.738  11.032
 9219W        W77560   9.702  14.655   1.424
 9220W        W77561  25.630  44.282   1.344
 9221W        W77562  30.050  28.971   2.769
 9222W        W77563  38.913   7.788  13.997
 9223W        W77564  11.765  29.635  10.568
 9224W        W77565  40.549  24.149   2.814
 9225W        W77566  16.765  19.072   0.825
 9226W        W77567  11.174  31.648   4.786
 9227W        W77568  39.964  11.734  13.357
 9228W        W77569  29.095  31.531   3.653
 9229W        W77570  29.642   3.410  10.411
 9230W        W77571  32.569  44.472   0.817
 9231W        W77572  38.479  32.960  11.968
 9232W        W77573  27.630  42.454   0.766
 9233W        W77574  16.148  21.168   9.577
 9234W        W77575   4.775  15.704  14.852
 9235W        W77576  27.479  21.729  14.983
 9236W        W77577  37.500   6.340  10.460
 9237W        W77578  34.607   6.690   2.719
 9238W        W77579  24.049  32.575  13.403
 9239W        W77580   0.330  18.247  14.502
 9240W        W77581  22.557   8.719  13.452
 9241W        W77582  17.061  21.178   3.722
 9242W        W77583  40.484  11.671   1.797
 9243W        W77584   5.281  14.766   1.230
 9244W        W77585  10.749  41.835   2.872
 9245W        W77586   3.845  12.788  14.793
 9246W        W77587  34.032  14.329   0.936
 9247W        W77588   1.837  40.803   1.212
 9248W        W77589  33.447  12.849   9.961
 9249W        W77590  22.138  42.985   1.358
 9250W        W77591   9.873  34.077  10.960
 9251W        W77592  30.439  26.041   0.349
 9252W        W77593  10.670   6.914  10.465
 9253W        W77594   7.754  42.921   4.117
 9254W        W77595  32.911   3.729   0.334
 9255W        W77596   1.446   3.271   1.327
 9256W        W77597  38.002   1.803  12.989
 9257W        W77598  16.112  39.008   2.260
 9258W        W77599  41.004   9.269  11.118
 9259W        W77600  28.636   0.933  13.393
 9260W        W77601  42.388  34.935  12.038
 9261W        W77602  10.672  27.107   0.298
 9262W        W77603   3.934  22.712   2.207
 9263W        W77604   7.225   4.342   1.433
 9264W        W77605  36.437   8.283  11.094
 9265W        W77606   9.682  33.968   2.668
 9266W        W77607  33.028  36.427   0.363
 9267W        W77608   1.906   9.256  10.535
 9268W        W77609   4.309  14.125  11.074
 9269W        W77610  39.477  44.814  12.511
 9270W        W77611  36.350  40.920  13.338
 9271W        W77612  37.439  26.128  13.482
 9272W        W77613  39.493  24.996  13.891
 9273W        W77614  35.053  23.991   2.894
 9274W        W77615   5.729   3.237  12.402
 9275W        W77616  15.165  35.535  13.371
 9276W        W77617  10.285  39.929   2.309
 9277W        W77618  36.841  42.392  14.028
 9278W        W77619  25.010  18.640   5.323
 9279W        W77620   7.764  41.298  12.068
 9280W        W77621  36.948  31.144  14.443
 9281W        W77622   6.707  37.967   3.224
 9282W        W77623  22.081  43.426  13.862
 9283W        W77624  35.044  44.498  14.851
 9284W        W77625  19.126   6.781   3.193
 9285W        W77626  37.505  38.858   5.303
 9286W        W77627  11.297  21.646  10.997
 9287W        W77628   7.730  31.907   1.396
 9288W        W77629  39.962  29.999   1.421
 9289W        W77630  26.456  32.958  10.633
 9290W        W77631  25.703  32.027  14.852
 9291W        W77632  40.969  27.186  13.427
 9292W        W77633   4.377   2.228  13.953
 9293W        W77634  23.707  15.659   0.468
 9294W        W77635  18.052  22.626   0.853
 9295W        W77636  32.026  10.770   1.420
 9296W        W77637  20.649   2.452  13.428
 9297W        W77638  30.079   6.382  11.065
 9298W        W77639  42.472  18.279  10.424
 9299W        W77640   0.419   6.275  11.463
 9300W        W77641   4.714  41.033  10.952
 9301W        W77642  42.820  33.496   3.278
 9302W        W77643  27.034  11.811   1.365
 9303W        W77644   4.363  37.395  13.338
 9304W        W77645   2.418  23.586  10.527
 9305W        W77646  24.195  17.162   3.735
 9306W        W77647  13.258   2.876   4.777
 9307W        W77648  32.482   8.764   4.670
 9308W        W77649  44.438  41.964   2.330
 9309W        W77650  17.063   4.784   2.417
 9310W        W77651  18.223   6.908   3.827
 9311W        W77652  39.890  17.143   1.341
 9312W        W77653  23.148  44.319  11.877
 9313W        W77654  21.155  30.965   3.679
 9314W        W77655  24.090   7.356  14.286
 9315W        W77656   6.186  41.529  11.918
 9316W        W77657  19.611   1.282   4.805
 9317W        W77658   0.830  27.121  13.401
 9318W        W77659  16.606  23.155  12.349
 9319W        W77660  17.179  26.078   1.756
 9320W        W77661  13.821  15.590  12.457
 9321W        W77662  27.047  37.012   4.813
 9322W        W77663  21.127  32.537   1.368
 9323W        W77664   9.358  31.607   3.372
 9324W        W77665  22.176  14.643   1.216
 9325W        W77666  38.981  24.196  11.102
 9326W        W77667   3.411   8.292   0.786
 9327W        W77668   5.926  38.033   1.905
 9328W        W77669  40.835  29.492   3.235
 9329W        W77670  17.150  26.079   3.176
 9330W        W77671   8.887  36.521  11.443
 9331W        W77672  43.402   3.729   2.328
 9332W        W77673  33.078  44.276  10.630
 9333W        W77674   8.284  21.671   4.835
 9334W        W77675  38.856  16.156  10.903
 9335W        W77676  32.404  43.380  14.883
 9336W        W77677   2.424  25.689  14.797
 9337W        W77678  33.053   0.471  10.466
 9338W        W77679  33.468  26.559  10.604
 9339W        W77680  37.909  27.608  14.925
 9340W        W77681   9.150   5.843   4.149
 9341W        W77682   2.909  32.598  12.989
 9342W        W77683  25.125   0.818  14.997
 9343W        W77684   3.933  17.188   5.593
 9344W        W77685   4.262  40.548  14.356
 9345W        W77686  11.146  19.111   4.632
 9346W        W77687  12.612  14.695  13.863
 9347W        W77688   7.324  40.828  12.439
 9348W        W77689  16.742  33.437   1.226
 9349W        W77690  29.969   7.186   2.781
 9350W        W77691   4.242  27.194   3.689
 9351W        W77692  39.918   2.346   3.767
 9352W        W77693  22.090  29.026  14.919
 9353W        W77694   2.311  13.824   2.689
 9354W        W77695  32.955  10.221  12.569
 9355W        W77696   2.307   4.895   4.228
 9356W        W77697  14.739  20.199   4.314
 9357W        W77698  40.465  44.856   2.765
 9358W        W77699  30.981   9.775  14.296
 9359W        W77700  28.964  22.624  12.571
 9360W        W77701  30.648   8.225   0.478
 9361W        W77702  21.193   2.867   4.188
 9362W        W77703  34.464  16.128  11.090
 9363W        W77704  30.122  36.358  12.876
 9364W        W77705  43.980  21.035  12.070
 9365W        W77706  35.984   0.896   0.886
 9366W        W77707  13.740   0.893  11.552
 9367W        W77708  33.427   2.458   3.827
 9368W        W77709  29.954  32.468  13.989
 9369W        W77710   6.340  34.929  13.449
 9370W        W77711  11.802  40.418  11.430
 9371W        W77712  25.157   3.818  13.023
 9372W        W77713  18.294  24.625  13.461
 9373W        W77714   0.473  41.863   2.875
 9374W        W77715  26.633  29.477   3.705
 9375W        W77716  26.155  24.084   4.690
 9376W        W77717  26.602  26.049   0.819
 9377W        W77718  23.237  28.557  10.444
 9378W        W77719  35.487  44.861  13.536
 9379W        W77720  37.382  20.138  11.877
 9380W        W77721  23.161  12.311  12.055
 9381W        W77722  24.001  10.778   2.280
 9382W        W77723  16.683  20.605  10.440
 9383W        W77724  29.926  23.991   4.253
 9384W        W77725  34.594  30.457   4.685
 9385W        W77726  25.080  41.293  12.510
 9386W        W77727  32.577  20.228  14.819
 9387W        W77728  11.625  26.642   1.883
 9388W        W77729  24.080  38.866  12.033
 9389W        W77730  35.958   5.746   2.677
 9390W        W77731  11.721   5.803  13.360
 9391W        W77732   7.231  28.028  14.356
 9392W        W77733   8.717  37.076   2.850
 9393W        W77734  19.234  44.410  11.426
 9394W        W77735  13.663  15.581   5.308
 9395W        W77736   7.221  38.932  12.515
 9396W        W77737  22.528   5.244   1.887
 9397W        W77738  44.300  20.102   0.851
 9398W        W77739  33.485   8.195   3.197
 9399W        W77740  37.462  13.135  10.998
 9400W        W77741  22.084  39.996  12.009
 9401W        W77742  40.831  26.009   3.175
 9402W        W77743  26.639  38.364  11.036
 9403W        W77744   4.223  19.643   4.638
 9404W        W77745  16.708  40.851   1.935
 9405W        W77746  23.167  26.479   1.929
 9406W        W77747  32.546   5.216  12.825
 9407W        W77748  12.130  32.136   2.249
 9408W        W77749  31.523  19.051  13.802
 9409W        W77750  20.038  22.708   0.758
 9410W        W77751  11.271  43.951  11.036
 9411W        W77752  31.055  24.117  11.978
 9412W        W77753  17.787  37.060  12.455
 9413W        W77754  39.340  23.168  12.841
 9414W        W77755  36.584  34.406  12.912
 9415W        W77756  17.136  43.500   4.695
 9416W        W77757  39.525   0.361   2.383
 9417W        W77758   6.774  20.763   4.647
 9418W        W77759  29.141  29.620  13.546
 9419W        W77760  13.670  42.312  14.953
 9420W        W77761   9.717  37.885   3.356
 9421W        W77762   6.400  24.652   2.392
 9422W        W77763  28.674   3.907  11.507
 9423W        W77764   6.881  23.181   4.746
 9424W        W77765  28.552  43.772   2.757
 9425W        W77766  43.013   5.775  12.052
 9426W        W77767   7.403   9.779   1.419
 9427W        W77768  25.535  11.633   4.309
 9428W        W77769  22.689  20.211   1.713
 9429W        W77770  18.264  39.362   4.623
 9430W        W77771  16.576  29.155  12.072
 9431W        W77772   2.261  27.472  10.477
 9432W        W77773  16.214  38.861   4.144
 9433W        W77774  14.239  29.124   2.233
 9434W        W77775  40.901   3.712  12.907
 9435W        W77776  24.225   4.445   3.254
 9436W        W77777  20.044  39.511   4.231
 9437W        W77778  36.554  32.557   3.262
 9438W        W77779  42.004  21.084   4.726
 9439W        W77780  14.779  16.267  11.917
 9440W        W77781  26.627   8.353  14.488
 9441W        W77782  37.968  18.239   1.393
 9442W        W77783  11.136  30.994  12.484
 9443W        W77784   3.331  26.036   0.943
 9444W        W77785   2.861   8.328  14.794
 9445W        W77786  16.601   6.907   1.704
 9446W        W77787   6.272  38.395  11.597
 9447W        W77788  19.641  21.072  12.030
 9448W        W77789   2.286  35.982   0.394
 9449W        W77790  14.711  13.138  12.552
 9450W        W77791  34.573  42.497   3.663
 9451W        W77792   9.308  41.514  12.464
 9452W        W77793  25.621  39.826   4.649
 9453W        W77794  24.139  13.136   3.761
 9454W        W77795  38.398  40.385  11.096
 9455W        W77796  33.123  31.607   1.827
 9456W        W77797  35.976  39.843   3.288
 9457W        W77798  18.596  12.189   1.838
 9458W        W77799   0.805  16.774   4.723
 9459W        W77800  12.800  34.946  14.917
 9460W        W77801  30.575  22.519  11.466
 9461W        W77802   2.349   0.870   0.410
 9462W        W77803   1.342  16.787   3.261
 9463W        W77804  22.118  41.818  14.895
 9464W        W77805  15.765  27.623  13.344
 9465W        W77806  26.083  23.691   1.418
 9466W        W77807  18.693  40.982   0.419
 9467W        W77808  29.090  35.922  12.842
 9468W        W77809  29.128  31.932  14.335
 9469W        W77810  23.020  22.214   4.797
 9470W        W77811   8.350  42.804  12.058
 9471W        W77812  41.356  39.436   0.428
 9472W        W77813  34.946  42.365  12.878
 9473W        W77814  25.084  36.537   3.368
 9474W        W77815  29.964  13.198   3.825
 9475W        W77816  10.373   7.271  13.943
 9476W        W77817  43.433  40.473  12.479
 9477W        W77818  38.416  34.081   0.348
 9478W        W77819  18.758  14.126   5.294
 9479W        W77820  21.662  15.136   3.838
 9480W        W77821  22.647  37.006   1.397
 9481W        W77822  26.599  34.113   4.827
 9482W        W77823   1.763   9.682  11.520
 9483W        W77824   9.171  21.240  13.020
 9484W        W77825  36.907  15.180   3.780
 9485W        W77826  29.532   0.304   3.783
 9486W        W77827  11.128   3.304   1.411
 9487W        W77828  16.639  41.322  14.863
 9488W        W77829  24.130  40.336   3.758
 9489W        W77830  17.784  27.580   0.434
 9490W        W77831  22.086  44.765  11.502
 9491W        W77832   6.919  23.649  12.016
 9492W        W77833  34.452   3.383  12.900
 9493W        W77834   0.297   7.791   0.915
 9494W        W77835   8.851   5.332   2.719
 9495W        W77836  40.893  10.758  14.835
 9496W        W77837  22.626   7.342  12.026
 9497W        W77838  33.505  20.567  11.589
 9498W        W77839  44.957   2.790  13.013
 9499W        W77840  42.413   6.791  11.109
 9500W        W77841  30.490  37.368   2.865
 9501W        W77842   1.395  19.768  11.516
 9502W        W77843   1.830   0.390  11.036
 9503W        W77844   7.735  22.738   2.818
 9504W        W77845  36.899  29.553  13.804
 9505W        W77846  10.247  41.878  10.604
 9506W        W77847  30.920  24.590  12.890
 9507W        W77848  14.138  40.834   2.412
 9508W        W77849   3.847  20.753   1.713
 9509W        W77850  40.922   2.812   3.336
 9510W        W77851  43.922   1.452   1.931
 9511W        W77852   4.717  37.004   1.774
 9512W        W77853  31.054  32.978  14.828
 9513W        W77854   2.253  15.133  11.987
 9514W        W77855   3.407  37.834   3.754
 9515W        W77856  19.242  41.903  12.555
 9516W        W77857   4.265  42.001   2.818
 9517W        W77858  40.308  33.540   1.770
 9518W        W77859   7.835  37.055   3.238
 9519W        W77860  26.138   4.751  11.090
 9520W        W77861  34.427  25.536   3.328
 9521W        W77862   6.840  21.716  10.927
 9522W        W77863  31.020  25.712   0.449
 9523W        W77864   7.819  41.030  13.889
 9524W        W77865  15.221  25.490  13.872
 9525W        W77866  16.762  29.662  10.581
 9526W        W77867  23.549  26.496   1.352
 9527W        W77868  31.079  14.780   3.335
 9528W        W77869  43.312   2.841   3.333
 9529W        W77870  29.061  15.628  12.901
 9530W        W77871  22.553  44.901  10.567
 9531W        W77872  43.472  39.948  14.353
 9532W        W77873  26.203  11.127   1.407
 9533W        W77874  20.742  30.052  10.623
 9534W        W77875  42.780   2.438   0.320
 9535W        W77876  42.030   3.220  14.499
 9536W        W77877  23.514  44.463  11.883
 9537W        W77878  32.107   7.407   1.749
 9538W        W77879  26.107  31.524   1.330
 9539W        W77880  11.852   5.342  11.065
 9540W        W77881  13.628  15.238  14.316
 9541W        W77882  41.325   7.679  12.550
 9542W        W77883  39.495   8.334   0.779
 9543W        W77884  38.047   4.307   4.659
 9544W        W77885  16.283  21.696   4.251
 9545W        W77886  43.013  18.138  10.539
 9546W        W77887  32.946  40.493   4.641
 9547W        W77888   2.381  44.493   3.709
 9548W        W77889   8.322  12.360   2.886
 9549W        W77890   4.730  31.628   2.872
 9550W        W77891   0.393  28.991   0.398
 9551W        W77892  34.967  16.146  13.462
 9552W        W77893  42.377  34.541   4.773
 9553W        W77894  43.410  44.463  13.463
 9554W        W77895   7.735  33.131  14.803
 9555W        W77896  41.300  12.223  12.406
 9556W        W77897   8.271  17.109   1.700
 9557W        W77898   6.184  34.873   0.398
 9558W        W77899  22.080  43.004   4.114
 9559W        W77900  14.687   0.843   4.325
 9560W        W77901  43.511  12.780  13.985
 9561W        W77902  40.991  40.333   3.269
 9562W        W77903  40.454  24.174  10.980
 9563W        W77904  12.716  19.085  14.845
 9564W        W77905  11.755  37.428   2.419
 9565W        W77906  10.313  40.039   0.454
 9566W        W77907  26.678  12.755   3.146
 9567W        W77908  35.976  21.647  11.474
 9568W        W77909  44.378  21.732   1.722
 9569W        W77910  20.226   4.419   0.773
 9570W        W77911  16.776  44.976  14.473
 9571W        W77912  36.520  42.322  11.442
 9572W        W77913   9.266   9.164   1.372
 9573W        W77914   3.359  17.213  12.941
 9574W        W77915  23.177  36.871   3.260
 9575W        W77916  44.957  44.498   1.281
 9576W        W77917   4.786   8.189   4.637
 9577W        W77918  21.059  27.094   0.828
 9578W        W77919  18.698   3.304  10.109
 9579W        W77920  25.651  40.003   0.916
 9580W        W77921  14.247   6.365   3.164
 9581W        W77922   9.754  22.584  13.914
 9582W        W77923  36.395  39.886   0.272
 9583W        W77924   9.241  13.747   4.225
 9584W        W77925  16.727  25.582   4.661
 9585W        W77926  30.001  13.210  10.597
 9586W        W77927  39.896  26.196  14.994
 9587W        W77928  17.557  19.545  11.479
 9588W        W77929  22.724  35.865  13.047
 9589W        W77930  33.118   0.467   0.352
 9590W        W77931   1.315  19.106   4.307
 9591W        W77932  38.941  17.154  12.090
 9592W        W77933   2.450  25.992   3.194
 9593W        W77934  22.662  15.729  12.094
 9594W        W77935  31.451  30.446   4.190
 9595W        W77936  25.669  10.677  12.350
 9596W        W77937   2.249   3.739   0.911
 9597W        W77938  17.581  31.112   0.940
 9598W        W77939  31.899  22.618  14.322
 9599W        W77940  42.807  10.809  10.454
 9600W        W77941  19.555  44.314  11.502
 9601W        W77942  43.810  26.513   3.244
 9602W        W77943  32.048  22.228   4.836
 9603W        W77944  17.275   2.335   2.889
 9604W        W77945  27.543  37.903  12.974
 9605W        W77946  22.524  37.380  12.952
 9606W        W77947  30.977  17.560   4.177
 9607W        W77948  18.258   7.253   4.716
 9608W        W77949  27.116  39.876   3.303
 9609W        W77950   8.206  21.724  11.065
 9610W        W77951  18.757  42.883  10.437
 9611W        W77952  37.881  35.597  14.421
 9612W        W77953  25.157  43.359   0.831
 9613W        W77954  35.979  10.831   0.872
 9614W        W77955  20.689   7.205   1.708
 9615W        W77956  37.953  37.428  10.405
 9616W        W77957  12.127  38.033   3.250
 9617W        W77958  36.471  42.325  12.412
 9618W        W77959  28.522  16.200  10.625
 9619W        W77960  35.503  12.756   2.828
 9620W        W77961  27.139  41.514  12.352
 9621W        W77962   0.492  16.666   0.333
 9622W        W77963  26.630   8.825  13.036
 9623W        W77964  32.044   5.855   1.799
 9624W        W77965   2.821  35.578   0.365
 9625W        W77966   9.213  43.857  13.937
 9626W        W77967   1.283  19.664   2.189
 9627W        W77968  20.064  28.077  13.974
 9628W        W77969   4.702  30.457  13.499
 9629W        W77970  10.839  41.823   3.241
 9630W        W77971  32.019  13.654  12.400
 9631W        W77972  25.000  26.484  14.928
 9632W        W77973   9.183  30.414   4.740
 9633W        W77974  16.692   9.284  14.841
 9634W        W77975  43.432  34.873  14.416
 9635W        W77976  24.511  31.972   2.746
 9636W        W77977  39.840  25.970   4.778
 9637W        W77978   3.907  40.961   0.786
 9638W        W77979  40.844  44.931  11.549
 9639W        W77980  13.241  44.930   2.732
 9640W        W77981  15.251  42.437  14.884
 9641W        W77982  35.391   8.182  12.050
 9642W        W77983   5.205  17.290  11.885
 9643W        W77984   2.349  26.673  13.460
 9644W        W77985  19.622   4.938   4.689
 9645W        W77986  38.541   5.280   1.396
 9646W        W77987  44.774   7.404   4.800
 9647W        W77988  11.649  20.029   1.853
 9648W        W77989   5.769  37.370   0.337
 9649W        W77990   3.231   4.364   0.459
 9650W        W77991  38.544   0.374   1.442
 9651W        W77992   7.764  32.560  10.969
 9652W        W77993  39.002  25.520   1.315
 9653W        W77994   8.293  18.565   4.674
 9654W        W77995  18.773  15.818   3.368
 9655W        W77996  44.890  36.520   2.234
 9656W        W77997  34.545  10.246   0.462
 9657W        W77998  21.513  10.785   3.366
 9658W        W77999   7.795  28.544  13.506
 9659W        W78000  35.410  36.954  13.963
 9660W        W78001  14.605   5.392  14.790
 9661W        W78002  44.877   4.703   4.739
 9662W        W78003  32.419  24.011  10.981
 9663W        W78004  14.184  30.632  14.803
 9664W        W78005   1.871  22.689  12.557
 9665W        W78006   0.891  31.044   1.748
 9666W        W78007   7.868  29.022  12.503
 9667W        W78008  27.063   9.780  10.501
 9668W        W78009  40.951  17.629  12.953
 9669W        W78010  17.075   7.180   2.668
 9670W        W78011  33.474  14.757  13.795
 9671W        W78012  40.516  40.851   0.415
 9672W        W78013  41.795  33.553  10.501
 9673W        W78014   7.734  33.116   0.291
 9674W        W78015   2.868  22.025  11.111
 9675W        W78016   8.845  43.892   1.725
 9676W        W78017  11.188  32.998   0.849
 9677W        W78018  34.592   9.326  11.547
 9678W        W78019  15.229  36.014  12.484
 9679W        W78020  21.718  14.286  13.906
 9680W        W78021  24.147  11.289  14.799
 9681W        W78022  31.083  23.040  11.870
 9682W        W78023  42.922   3.932  11.121
 9683W        W78024  22.022   1.302   4.292
 9684W        W78025  42.827  42.028   1.382
 9685W        W78026  30.417  37.023   3.860
 9686W        W78027  20.680  20.250   0.348
 9687W        W78028   1.268  33.877   3.283
 9688W        W78029  17.111  44.769   1.764
 9689W        W78030  25.124  23.116  12.441
 9690W        W78031  35.525  26.458   0.473
 9691W        W78032  28.594  18.286  10.556
 9692W        W78033  41.017  11.866  11.406
 9693W        W78034  22.010  25.653   0.252
 9694W        W78035   5.879   9.189   3.312
 9695W        W78036  26.535  20.212   5.113
 9696W        W78037   8.388  38.839  10.910
 9697W        W78038  14.155  19.143   4.185
 9698W        W78039  13.163  39.373   2.885
 9699W        W78040  15.585  43.772  11.973
 9700W        W78041  44.343  20.606  12.911
 9701W        W78042  38.405  10.806  10.947
 9702W        W78043  21.147  24.140  12.439
 9703W        W78044  36.538  14.234   5.229
 9704W        W78045  11.294  38.524   0.353
 9705W        W78046   3.799  44.444  14.322
 9706W        W78047  13.256  32.936   0.775
 9707W        W78048  30.627  36.423  14.008
 9708W        W78049   2.759  12.756  14.761
 9709W        W78050  22.504  29.593   0.464
 9710W        W78051  38.827  37.406   9.997
 9711W        W78052  17.283  27.181   1.922
 9712W        W78053  23.560  29.061  14.381
 9713W        W78054   6.896   7.705  11.563
 9714W        W78055   4.932  38.909   0.358
 9715W        W78056  35.019  41.415   3.315
 9716W        W78057  34.871   8.700   5.204
 9717W        W78058  35.592  27.483   0.351
 9718W        W78059  17.202   1.285  13.985
 9719W        W78060  22.606  29.982  12.903
 9720W        W78061  14.762  32.976  10.096
 9721W        W78062  29.946  36.885   3.314
 9722W        W78063  34.043  41.387  12.518
 9723W        W78064   5.860   5.695  13.322
 9724W        W78065  26.040  26.548  10.490
 9725W        W78066   0.273  10.308  10.593
 9726W        W78067  14.596   6.775  13.843
 9727W        W78068  34.517  11.204   4.676
 9728W        W78069  32.547  20.739  10.497
 9729W        W78070  40.935   5.263   4.118
 9730W        W78071   5.918  12.176  12.516
 9731W        W78072   5.825  18.686  11.455
 9732W        W78073  34.884  41.334   0.374
 9733W        W78074  40.448  23.048   0.332
 9734W        W78075  21.150  37.989   2.669
 9735W        W78076  26.678  14.780  10.945
 9736W        W78077   6.749  18.236   4.827
 9737W        W78078  41.806  43.894  11.049
 9738W        W78079  36.494  41.538  14.442
 9739W        W78080  22.522  19.670   3.369
 9740W        W78081   4.918   8.344   2.854
 9741W        W78082  36.015  39.934   2.894
 9742W        W78083  20.235  22.568  14.386
 9743W        W78084  35.513   2.306  14.787
 9744W        W78085  10.330  34.550  11.895
 9745W        W78086  44.930   6.820   2.364
 9746W        W78087   7.203  27.507  12.410
 9747W        W78088  37.949  26.573   0.388
 9748W        W78089   8.734  44.898  13.877
 9749W        W78090  41.469  30.583   2.288
 9750W        W78091  42.951  31.055  12.066
 9751W        W78092  43.985  15.746  14.406
 9752W        W78093  13.323  38.016  13.039
 9753W        W78094  31.087  43.861   4.759
 9754W        W78095  43.390  44.983  11.608
 9755W        W78096  15.644  44.411  13.878
 9756W        W78097  35.893  18.636  14.778
 9757W        W78098   4.278  20.030  10.403
 9758W        W78099   3.437  36.004   3.730
 9759W        W78100  35.079  37.891  12.385
 9760W        W78101   3.229  33.440   2.217
 9761W        W78102  22.535   2.292   4.721
 9762W        W78103  44.304  26.083  12.422
 9763W        W78104  34.975  11.680  12.033
 9764W        W78105  16.742  20.098  10.525
 9765W        W78106  37.456  17.705  14.015
 9766W        W78107  14.141  16.272  14.769
 9767W        W78108  43.987  32.409   0.419
 9768W        W78109  21.747  25.665   1.828
 9769W        W78110  19.747  28.111   3.728
 9770W        W78111  24.700  42.874  13.411
 9771W        W78112  11.246  16.693  13.063
 9772W        W78113  36.351  21.213  13.378
 9773W        W78114   9.350  40.840   3.277
 9774W        W78115  43.835  15.176  14.808
 9775W        W78116   7.226  40.994  12.046
 9776W        W78117  27.171  44.807  14.392
 9777W        W78118  17.076  26.077   0.922
 9778W        W78119  37.454  26.553   5.297
 9779W        W78120  41.410   4.378   0.466
 9780W        W78121  24.046  40.449   2.346
 9781W        W78122  14.115  12.774  13.540
 9782W        W78123  20.595  38.350  13.508
 9783W        W78124  43.937  31.410   2.182
 9784W        W78125   9.386  26.157  14.473
 9785W        W78126   2.928  11.134   3.847
 9786W        W78127  36.914  15.322  13.999
 9787W        W78128   5.863   8.236   0.400
 9788W        W78129  36.886   2.749   3.344
 9789W        W78130  43.414  19.620  13.315
 9790W        W78131  11.148  22.728  12.984
 9791W        W78132   4.225  44.479   4.275
 9792W        W78133  18.267  26.133  14.300
 9793W        W78134   2.353  15.205  13.828
 9794W        W78135  44.481  15.721  10.946
 9795W        W78136  20.630   7.811  13.857
 9796W        W78137  35.874  16.203  13.855
 9797W        W78138  44.839   3.405   3.678
 9798W        W78139  16.254  16.169  14.322
 9799W        W78140  17.169  25.526  14.439
 9800W        W78141  37.892  37.991  11.522
 9801W        W78142  21.181   2.272  13.037
 9802W        W78143  12.287   7.270  14.977
 9803W        W78144  17.139  24.062   3.330
 9804W        W78145  25.171  43.413  12.404
 9805W        W78146  38.044  12.146   3.864
 9806W        W78147  25.697   3.862  11.453
 9807W        W78148  17.072   5.718   1.855
 9808W        W78149  21.707   8.848  12.500
 9809W        W78150  22.536  23.714  12.094
 9810W        W78151  34.880  33.925  14.988
 9811W        W78152   2.393  33.542  13.040
 9812W        W78153  13.282  22.615  11.015
 9813W        W78154  16.293  26.638  11.462
 9814W        W78155  16.310  39.994  14.317
 9815W        W78156  29.592  38.978  12.543
 9816W        W78157  33.044   1.731  11.027
 9817W        W78158  15.178   1.774  11.994
 9818W        W78159   4.283   7.690  11.436
 9819W        W78160  25.027   7.723  13.539
 9820W        W78161  43.881  10.754   1.433
 9821W        W78162   0.927  19.278  11.965
 9822W        W78163   2.268  20.044  10.986
 9823W        W78164  25.127  37.879  14.362
 9824W        W78165  41.435  26.557   0.873
 9825W        W78166  43.331  30.486  10.590
 9826W        W78167   9.703   3.323  12.420
 9827W        W78168  13.689  13.135  14.808
 9828W        W78169  38.557  24.079  14.775
 9829W        W78170  28.111  44.320   4.646
 9830W        W78171  18.090   3.818  11.998
 9831W        W78172   8.870  40.034  12.859
 9832W        W78173  14.270  39.846   3.665
 9833W        W78174  21.723   1.293   0.468
 9834W        W78175  39.855  11.151  14.275
 9835W        W78176  32.583  14.769   3.744
 9836W        W78177  39.436  44.872  14.761
 9837W        W78178  39.460   2.347  12.991
 9838W        W78179  43.294  26.460  14.326
 9839W        W78180  28.039  31.612   4.219
 9840W        W78181  10.810   6.262  14.944
 9841W        W78182  38.824  29.122   4.761
 9842W        W78183  27.520  18.287   3.792
 9843W        W78184   2.915  35.905  11.531
 9844W        W78185  41.008  41.810  10.592
 9845W        W78186  41.037  40.322   5.640
 9846W        W78187  15.724   7.245   4.776
 9847W        W78188  42.029  31.914   0.799
 9848W        W78189  34.441  28.667   4.157
 9849W        W78190  26.074   0.461  13.910
 9850W        W78191  37.044  40.319  13.454
 9851W        W78192  11.780  12.714   1.451
 9852W        W78193  44.896   3.905   0.934
 9853W        W78194  23.491   7.899  12.359
 9854W        W78195  43.331  33.570   4.194
 9855W        W78196  42.860   3.260  12.376
 9856W        W78197  36.005   3.390  13.854
 9857W        W78198  24.088  44.427  14.939
 9858W        W78199  37.364  35.855  14.833
 9859W        W78200  28.129   1.365  11.966
 9860W        W78201  25.162  38.849  11.005
 9861W        W78202  38.837  37.578   2.707
 9862W        W78203   3.353   4.282  11.059
 9863W        W78204   5.391  31.064   4.120
 9864W        W78205  38.908  39.854  10.149
 9865W        W78206  38.951  26.646  11.467
 9866W        W78207  17.750  28.046   3.179
 9867W        W78208  43.810  21.151  11.427
 9868W        W78209  36.956  39.896  11.967
 9869W        W78210  42.789  16.662   1.417
 9870W        W78211  13.276   1.322   4.716
 9871W        W78212   1.756  14.161  11.889
 9872W        W78213  27.075  29.576  11.923
 9873W        W78214  11.270  25.050  13.371
 9874W        W78215  13.747  20.580  13.367
 9875W        W78216  19.157  43.432   3.326
 9876W        W78217  10.822  20.731  13.455
 9877W        W78218   0.983  15.592   2.189
 9878W        W78219   6.739  35.073   1.314
 9879W        W78220  29.533  36.457  12.544
 9880W        W78221  25.197  10.644   0.317
 9881W        W78222  16.636   1.282  11.483
 9882W        W78223   1.405  42.871  13.883
 9883W        W78224  22.166  33.968   4.172
 9884W        W78225  13.801   5.383  11.607
 9885W        W78226  43.272   6.849   4.809
 9886W        W78227  33.618   3.273   4.707
 9887W        W78228  16.583  25.684  14.452
 9888W        W78229  21.257  32.936  11.583
 9889W        W78230  18.722  42.324   1.773
 9890W        W78231  32.950  28.580   4.662
 9891W        W78232  22.549  39.477   2.671
 9892W        W78233  23.123  44.998  14.898
 9893W        W78234  44.442  19.091   5.086
 9894W        W78235  12.242  44.400  12.955
 9895W        W78236  22.156   0.294   1.281
 9896W        W78237   5.934   2.726  12.536
 9897W        W78238  41.453  34.005  13.999
 9898W        W78239   0.930  40.022   2.339
 9899W        W78240  34.929  40.502  10.159
 9900W        W78241  44.302  40.965   2.865
 9901W        W78242   4.840  29.932  12.852
 9902W        W78243  26.545  24.223  13.885
 9903W        W78244  42.512  10.358  12.490
 9904W        W78245   3.254  42.303  14.353
 9905W        W78246  18.163   7.381   0.430
 9906W        W78247  44.277  20.146  11.068
 9907W        W78248  18.253   5.247   3.720
 9908W        W78249  13.184   7.835  12.518
 9909W        W78250  36.093  26.060  10.622
 9910W        W78251  38.548   3.820   0.869
 9911W        W78252  28.975   1.929  11.902
 9912W        W78253  11.786  11.800   1.425
 9913W        W78254   5.747  40.340   4.642
 9914W        W78255  32.432  40.340  14.382
 9915W        W78256   4.731  18.674  13.383
 9916W        W78257  40.338  13.606   4.124
 9917W        W78258   2.966   3.424  13.917
 9918W        W78259  33.078   7.878   2.777
 9919W        W78260  42.829  40.034  11.006
 9920W        W78261  42.006  31.118   1.374
 9921W        W78262  29.539  18.746   3.710
 9922W        W78263  33.461  39.938  13.013
 9923W        W78264  10.231  21.713  12.366
 9924W        W78265   6.303  25.209   1.932
 9925W        W78266  33.541  30.096   2.227
 9926W        W78267   8.204  24.099   2.385
 9927W        W78268  20.612  30.532  11.604
 9928W        W78269  24.091  40.019   4.284
 9929W        W78270  40.960   9.759   4.623
 9930W        W78271   7.675  32.393   2.352
 9931W        W78272  15.737  20.609  13.907
 9932W        W78273  37.498  11.842   4.309
 9933W        W78274  26.951  11.204   0.896
 9934W        W78275  40.419   2.779   3.257
 9935W        W78276  13.138   0.406   3.335
 9936W        W78277  44.417  17.704   5.728
 9937W        W78278   9.344  18.551  11.451
 9938W        W78279  22.664  13.306   4.231
 9939W        W78280  11.758  40.368  13.830
 9940W        W78281   7.382  26.121   3.768
 9941W        W78282  31.547  40.896  13.978
 9942W        W78283  34.899   8.234   0.910
 9943W        W78284  17.772  40.052  13.397
 9944W        W78285  18.647  12.652   3.175
 9945W        W78286  40.388  34.936  14.408
 9946W        W78287  15.642  31.133   1.370
 9947W        W78288  11.631  13.318  11.951
 9948W        W78289   1.827  35.049  12.052
 9949W        W78290  32.443  10.374  14.479
 9950W        W78291  42.505  12.299   2.235
 9951W        W78292  32.626  11.849  10.490
 9952W        W78293  34.369  40.857  13.444
 9953W        W78294  35.364  27.657  13.869
 9954W        W78295  11.133  13.231   2.364
 9955W        W78296  38.908   6.807  11.055
 9956W        W78297  43.306  17.299  11.472
 9957W        W78298   5.789  15.312   4.728
 9958W        W78299   8.886  31.543  12.040
 9959W        W78300  22.725   4.750  13.016
 9960W        W78301  34.446  15.589  13.411
 9961W        W78302  42.998  10.171   5.111
 9962W        W78303  13.690   0.946   2.351
 9963W        W78304  15.133  19.130  14.822
 9964W        W78305  18.069  20.138  13.024
 9965W        W78306  37.863  14.591  10.999
 9966W        W78307  28.668  25.700   4.178
 9967W        W78308  32.124   9.725  11.033
 9968W        W78309  38.956  42.401   3.720
 9969W        W78310  20.762  44.326   4.319
 9970W        W78311  31.470  23.500   3.182
 9971W        W78312  41.453  10.662   1.731
 9972W        W78313   7.833  33.422   1.394
 9973W        W78314   4.829  34.444   4.250
 9974W        W78315  13.667  38.507  13.332
 9975W        W78316  27.977  26.672  11.612
 9976W        W78317   3.400  35.383  12.567
 9977W        W78318  22.007  16.786  10.566
 9978W        W78319   6.204  17.266  12.020
 9979W        W78320   8.178  41.403  13.048
 9980W        W78321  35.465  12.732   2.203
 9981W        W78322  43.502  37.508  11.599
 9982W        W78323  42.432  11.240  10.465
 9983W        W78324  25.189  43.310   4.689
 9984W        W78325  31.996   2.295   3.774
 9985W        W78326  40.893  21.615  14.471
 9986W        W78327  19.732  28.459   1.887
 9987W        W78328  38.861  12.243   3.798
 9988W        W78329  24.570   5.852  14.340
 9989W        W78330  37.062   7.368  10.508
 9990W        W78331  16.634  27.168   4.724
 9991W        W78332  23.198  12.769   1.841
 9992W        W78333  15.635  37.540   1.897
 9993W        W78334  33.599  38.571  14.290
 9994W        W78335  21.130   2.447   0.783
 9995W        W78336  19.559  13.127   3.723
 9996W        W78337  32.933  14.287  14.478
 9997W        W78338  35.989   9.210  12.844
 9998W        W78339  34.476  37.072  11.983
 9999W        W78340  20.667   8.745   3.686
10000W        W78341  29.016  17.107   2.233
10001W        W78342  39.419   8.801   0.833
10002W        W78343  41.420  22.238  10.569
10003W        W78344  18.678   8.679   0.337
10004W        W78345  31.135  34.103  11.004
10005W        W78346  14.641  42.474  10.428
10006W        W78347  20.239  26.117  11.981
10007W        W78348  34.011  34.921  11.933
10008W        W78349  28.999  33.050   3.723
10009W        W78350  28.997  26.099  10.484
10010W        W78351  41.460   6.309  14.434
10011W        W78352  25.562   3.319  14.860
10012W        W78353  38.042  18.224   0.450
10013W        W78354   0.377  23.638  14.021
10014W        W78355  18.585  33.976   5.092
10015W        W78356   6.710   1.267   2.316
10016W        W78357  31.493  26.672   3.173
10017W        W78358  38.382  19.757   3.300
10018W        W78359  35.420  14.644  14.470
10019W        W78360  33.590  37.030  11.515
10020W        W78361  14.294  31.631   0.369
10021W        W78362   2.318  31.106   1.236
10022W        W78363  23.555  24.513   4.823
10023W        W78364  31.587  11.785   3.168
10024W        W78365  34.088  25.218   3.655
10025W        W78366  43.471  44.854   3.289
10026W        W78367   5.252  25.191  13.879
10027W        W78368  29.137  17.125   4.220
10028W        W78369  43.884  18.582  13.995
10029W        W78370  28.679  23.652  11.576
10030W        W78371  13.642  12.838   3.824
10031W        W78372   4.430  19.571  10.580
10032W        W78373   4.346  41.948  14.950
10033W        W78374  42.527  14.664   0.946
10034W        W78375  30.080  29.152   3.151
10035W        W78376  44.866  37.875   3.766
10036W        W78377  11.191  23.622  12.467
10037W        W78378  14.298   9.778   2.835
10038W        W78379  24.991  22.080  13.308
10039W        W78380  42.524  18.669  13.829
10040W        W78381   9.649  21.133   3.286
10041W        W78382  15.314  32.021  14.931
10042W        W78383  18.555  14.309   0.952
10043W        W78384  38.970  25.121   3.840
10044W        W78385  28.163  24.684  12.380
10045W        W78386  30.465  28.488  12.563
10046W        W78387  30.539  24.497  13.902
10047W        W78388  18.077  10.347  13.317
10048W        W78389  25.521   6.740   2.861
10049W        W78390  34.460  17.161   0.389
10050W        W78391  16.081  16.117   1.222
10051W        W78392  16.292  35.891   1.289
10052W        W78393   6.257  24.648   0.361
10053W        W78394  23.135  25.504   3.803
10054W        W78395  26.578  24.140  12.525
10055W        W78396  13.661  26.689  11.887
10056W        W78397   8.675  27.655   0.897
10057W        W78398  14.275  22.669  10.888
10058W        W78399   8.406  22.697  13.896
10059W        W78400   7.237  33.383  12.908
10060W        W78401   8.400  34.998  11.488
10061W        W78402  28.938  38.398   2.857
10062W        W78403  36.078  27.523   0.892
10063W        W78404  14.693  30.079  14.025
10064W        W78405  11.777  28.065  14.300
10065W        W78406  34.039  30.440   4.711
10066W        W78407  26.460  21.123  14.508
10067W        W78408  29.503  29.052   2.666
10068W        W78409   0.302  36.850   4.791
10069W        W78410  41.899  16.284  13.853
10070W        W78411  41.952  14.704  10.440
10071W        W78412  28.172   8.377  11.442
10072W        W78413  32.964  30.162   4.340
10073W        W78414   3.460  11.281   1.382
10074W        W78415  11.257  44.948  10.429
10075W        W78416  24.113  27.962   4.343
10076W        W78417  44.367  24.623  13.406
10077W        W78418  31.932  41.385   1.325
10078W        W78419  20.753  15.175  10.411
10079W        W78420  17.673  15.109   2.683
10080W        W78421  20.039  29.129   4.137
10081W        W78422  32.443  20.681  11.118
10082W        W78423  16.288   5.337  13.805
10083W        W78424   2.795   0.322   0.837
10084W        W78425  11.282  30.033  10.964
10085W        W78426  28.488  37.415  13.533
10086W        W78427  35.002  12.696  12.961
10087W        W78428  38.375  32.902  14.385
10088W        W78429  13.751  41.821   3.338
10089W        W78430  10.667  24.026  11.431
10090W        W78431  17.194   6.883  14.335
10091W        W78432  28.141  36.959   4.126
10092W        W78433  43.843  42.401  11.559
10093W        W78434  12.246  15.615  11.576
10094W        W78435  34.374   8.663   2.257
10095W        W78436  34.953  32.931   4.745
10096W        W78437  19.222  27.598  12.424
10097W        W78438   4.707  41.934  10.006
10098W        W78439  18.263  12.750  11.953
10099W        W78440  31.085  16.292   3.189
10100W        W78441   5.788  12.309  12.975
10101W        W78442  23.211  41.862  10.518
10102W        W78443   1.789  16.654  11.880
10103W        W78444  35.546  13.842  12.566
10104W        W78445  14.647  43.431   2.335
10105W        W78446  37.928  44.394   3.358
10106W        W78447  14.267   0.271   2.405
10107W        W78448  12.361  17.083  10.957
10108W        W78449  30.557  17.626  11.879
10109W        W78450  16.757  19.136   2.693
10110W        W78451  19.193  11.666   3.710
10111W        W78452  39.494  25.973  10.557
10112W        W78453  43.836  13.316  13.446
10113W        W78454   5.739  18.242   2.283
10114W        W78455  33.082  38.536  13.877
10115W        W78456  14.126   7.773   1.313
10116W        W78457  12.830  21.693   0.882
10117W        W78458  15.270  38.936  11.945
10118W        W78459  39.919  10.380  14.915
10119W        W78460  21.057  31.421   2.761
10120W        W78461   7.805   7.406   2.367
10121W        W78462  22.658  18.683   0.884
10122W        W78463  31.418  16.189   1.908
10123W        W78464  38.558  41.811  12.555
10124W        W78465  17.767  12.298  11.421
10125W        W78466  39.335  24.186   3.355
10126W        W78467  29.086  18.683   3.704
10127W        W78468  40.957  26.172   2.812
10128W        W78469   3.403  21.163  13.949
10129W        W78470  28.996  22.011  14.381
10130W        W78471  18.141  44.786   2.363
10131W        W78472  14.806  33.046   2.827
10132W        W78473  12.626  38.882   2.881
10133W        W78474   0.319  42.958  12.420
10134W        W78475  34.105  27.598   1.405
10135W        W78476  21.200  24.973   1.720
10136W        W78477  20.577  10.292   0.271
10137W        W78478   9.253  24.659  11.414
10138W        W78479  19.660   0.812  14.380
10139W        W78480  12.634   5.389  10.410
10140W        W78481  39.981  13.794  13.857
10141W        W78482  42.491  22.575   0.299
10142W        W78483  33.520  14.281   4.839
10143W        W78484  13.125  38.424  12.076
10144W        W78485   8.699  16.807   2.291
10145W        W78486  15.753  36.536  12.505
10146W        W78487  18.637  31.580  12.374
10147W        W78488  25.684  12.201   2.416
10148W        W78489  19.574  13.623   1.309
10149W        W78490  37.855  25.018  11.587
10150W        W78491  22.034  37.869  11.088
10151W        W78492  14.173  16.772   3.183
10152W        W78493   2.835  19.638   3.652
10153W        W78494  31.603  35.972   4.725
10154W        W78495  29.456  22.180  10.945
10155W        W78496  24.721  13.625  12.059
10156W        W78497  42.353  17.193   3.334
10157W        W78498  37.080  16.595   3.164
10158W        W78499  30.002  21.577  13.493
10159W        W78500  39.943   0.902   0.955
10160W        W78501  17.588  26.092  14.439
10161W        W78502   6.817   3.844  12.450
10162W        W78503  29.115  40.340   4.667
10163W        W78504  28.080  12.137   3.381
10164W        W78505   5.722   2.777  11.909
10165W        W78506  21.071  21.572  12.902
10166W        W78507  13.328  22.090  14.282
10167W        W78508  30.609  28.941  10.431
10168W        W78509  36.516  23.514  14.428
10169W        W78510   8.867  37.407  13.804
10170W        W78511   6.685  17.184   2.280
10171W        W78512  22.629  28.496   4.134
10172W        W78513  16.615  44.485  12.887
10173W        W78514  10.359  37.070  11.545
10174W        W78515  11.723   5.425   2.255
10175W        W78516   8.223  11.860   3.311
10176W        W78517  13.737   4.222  14.494
10177W        W78518  27.496  25.626  12.536
10178W        W78519  30.040   0.391  14.285
10179W        W78520  32.109  18.695   0.951
10180W        W78521  42.821   2.915   3.180
10181W        W78522   2.911  42.512  12.062
10182W        W78523  18.725  15.615  11.889
10183W        W78524  21.532  39.810   1.763
10184W        W78525  33.519  23.707   1.724
10185W        W78526  34.080  39.527  14.286
10186W        W78527   4.698  38.071   5.284
10187W        W78528   9.380  40.346   4.784
10188W        W78529   1.828   7.820   0.310
10189W        W78530   1.258  11.722  13.946
10190W        W78531   7.845  41.867  10.575
10191W        W78532  15.093  40.521  13.435
10192W        W78533  33.542  23.710   3.828
10193W        W78534  26.144  13.768   1.428
10194W        W78535   2.892  14.788   0.344
10195W        W78536  32.477   8.361  14.986
10196W        W78537  32.622  25.577  11.599
10197W        W78538  19.246  14.121   1.711
10198W        W78539  19.181  31.453   1.841
10199W        W78540   6.821   4.372  14.392
10200W        W78541  20.108  21.544   3.785
10201W        W78542  20.102  43.913   4.685
10202W        W78543  29.423   6.387  11.881
10203W        W78544  31.554   8.868   0.740
10204W        W78545  14.729  14.147   3.797
10205W        W78546   9.704  29.666  11.514
10206W        W78547  18.088  29.951  10.485
10207W        W78548  29.620   1.375   0.937
10208W        W78549  24.061   6.280  11.998
10209W        W78550   4.250  29.124   0.790
10210W        W78551   6.336  36.076  12.923
10211W        W78552  17.307  22.028  12.355
10212W        W78553  15.727  15.315  10.557
10213W        W78554  22.647  44.940   4.291
10214W        W78555  15.125  12.199   0.840
10215W        W78556  34.975   6.822   1.230
10216W        W78557   1.960  14.745  12.916
10217W        W78558   5.371   1.832  13.830
10218W        W78559   2.387  32.978  13.908
10219W        W78560  28.973  32.031   3.739
10220W        W78561   8.171  12.799  14.433
10221W        W78562  30.460  19.695   4.166
10222W        W78563   4.919  32.986  12.983
10223W        W78564  23.043   4.298   2.304
10224W        W78565  34.120  22.607  14.447
10225W        W78566  27.628  44.413  12.085
10226W        W78567   3.236  13.688  14.428
10227W        W78568  37.368  21.757   0.347
10228W        W78569  36.555   2.874   4.713
10229W        W78570   4.227  19.745  13.021
10230W        W78571  44.806  19.604   5.207
10231W        W78572  31.036  32.984   4.134
10232W        W78573  16.181  44.976  10.965
10233W        W78574  42.512  15.271   3.788
10234W        W78575  36.028  42.986   3.655
10235W        W78576   6.786  43.511   2.670
10236W        W78577  30.029  36.457   4.136
10237W        W78578  43.951  37.870  14.938
10238W        W78579  40.932  14.783  11.526
10239W        W78580   7.329  22.222  14.022
10240W        W78581   1.835   6.772  12.876
10241W        W78582  33.977  24.542   2.338
10242W        W78583  41.849   6.861  10.481
10243W        W78584  37.908  13.829   1.755
10244W        W78585   7.765  30.538   5.319
10245W        W78586  32.582  24.530  10.960
10246W        W78587  22.552  36.863   0.443
10247W        W78588  27.097   3.235  12.370
10248W        W78589  27.011   0.439   0.372
10249W        W78590  18.732  43.980  12.990
10250W        W78591  28.068  37.509   1.288
10251W        W78592  29.612  13.716  14.908
10252W        W78593  14.604  41.987   2.891
10253W        W78594   7.368  42.795   3.185
10254W        W78595   3.727  13.192   1.421
10255W        W78596  31.959  18.268   4.792
10256W        W78597   2.280  16.751  13.811
10257W        W78598  34.071  17.065   1.444
10258W        W78599  38.376  24.631  11.403
10259W        W78600  28.017  24.609  11.604
10260W        W78601   1.460  30.061  12.542
10261W        W78602  31.148  13.677  10.583
10262W        W78603  31.054  29.101   3.679
10263W        W78604  33.570  36.428  14.954
10264W        W78605  21.143  42.825  10.444
10265W        W78606  24.489   4.733  13.912
10266W        W78607   9.845  34.541   2.391
10267W        W78608   4.314  39.051  14.958
10268W        W78609  25.510  29.468   4.298
10269W        W78610   9.191  37.540  10.460
10270W        W78611  23.514   7.329  12.509
10271W        W78612  18.237  34.438   1.771
10272W        W78613  25.632   9.313   1.373
10273W        W78614   6.866  10.259   2.715
10274W        W78615   0.834  40.380   4.772
10275W        W78616  18.743  16.073   0.262
10276W        W78617  28.634  37.503  10.913
10277W        W78618  29.637  35.479   0.897
10278W        W78619  35.919  44.011   2.687
10279W        W78620  34.116  23.668   4.254
10280W        W78621  21.230   2.434   3.704
10281W        W78622  16.652  23.515  13.354
10282W        W78623  29.168  31.573  11.507
10283W        W78624  42.814   8.745  14.328
10284W        W78625  36.398  42.862   1.441
10285W        W78626  29.056  36.447  11.958
10286W        W78627  32.927  17.203   1.776
10287W        W78628  38.469  26.662   4.247
10288W        W78629   8.314  15.187   3.195
10289W        W78630  28.154   5.821   5.115
10290W        W78631  15.625  33.540   9.944
10291W        W78632  41.328   4.934  14.779
10292W        W78633  12.787  26.000   4.693
10293W        W78634  28.133  30.421  10.140
10294W        W78635  41.358   0.917  11.606
10295W        W78636   8.780  23.656  10.642
10296W        W78637  33.075  17.766  14.275
10297W        W78638  37.851  20.159  11.500
10298W        W78639   0.804   0.817  13.947
10299W        W78640  17.109   6.914   3.776
10300W        W78641  12.339  15.210  12.873
10301W        W78642  16.084  40.054  12.037
10302W        W78643  18.727   7.302  14.939
10303W        W78644  33.403   6.183   0.339
10304W        W78645  40.887   0.422  13.524
10305W        W78646   5.424  35.402  11.508
10306W        W78647   3.826   4.945   3.809
10307W        W78648   6.740  30.555   2.777
10308W        W78649  38.341  34.891   1.712
10309W        W78650  20.164   5.888  14.420
10310W        W78651  17.642  42.991  13.957
10311W        W78652  43.941  31.518   2.701
10312W        W78653  23.090  20.582   2.810
10313W        W78654  43.883  35.941  10.643
10314W        W78655  23.703  42.852   4.310
10315W        W78656  27.638  33.430  12.048
10316W        W78657  21.074  12.853  12.360
10317W        W78658  39.860  34.915  11.593
10318W        W78659   2.748  31.908  11.990
10319W        W78660  30.423  18.080   1.775
10320W        W78661  10.233   0.359  14.939
10321W        W78662  37.350  34.892  14.354
10322W        W78663   3.433  23.076  11.941
10323W        W78664   0.862  41.810   3.244
10324W        W78665  13.207  35.573   0.297
10325W        W78666   4.725  34.978   3.733
10326W        W78667  15.167  18.183  14.478
10327W        W78668  39.460  13.689   0.933
10328W        W78669  31.606  10.799   0.404
10329W        W78670   1.310  38.407  13.811
10330W        W78671  29.034  25.470  11.037
10331W        W78672  10.667  24.109   1.339
10332W        W78673   0.957   6.296  11.509
10333W        W78674  36.089  14.108  14.451
10334W        W78675  24.574  14.199  14.471
10335W        W78676  37.456  41.466   0.912
10336W        W78677  21.232   2.744   3.335
10337W        W78678  23.694  17.293  12.086
10338W        W78679  15.135  32.133  10.439
10339W        W78680  14.677  27.046   0.882
10340W        W78681   6.814  16.611   4.313
10341W        W78682  18.205  25.063   1.221
10342W        W78683  11.790  36.363  14.387
10343W        W78684  14.329  32.543   5.289
10344W        W78685  39.995   7.330   3.821
10345W        W78686  23.003  26.612  12.036
10346W        W78687  28.130  35.896   2.375
10347W        W78688  11.231  10.810   4.770
10348W        W78689   8.740   9.748   4.655
10349W        W78690  21.668  27.609   1.347
10350W        W78691  40.356  38.928   1.444
10351W        W78692  23.634   1.818   1.248
10352W        W78693  36.072   1.368   1.842
10353W        W78694   5.888  43.354  13.396
10354W        W78695  39.475  11.678  13.008
10355W        W78696  38.491  39.828   4.181
10356W        W78697  28.629   2.349   2.273
10357W        W78698  14.732  15.622  14.370
10358W        W78699  10.834  29.576   3.161
10359W        W78700  35.468  31.914   1.261
10360W        W78701  19.738  12.659  10.047
10361W        W78702  28.092   3.736   3.385
10362W        W78703  11.657   5.803  12.383
10363W        W78704  18.625  22.528   1.820
10364W        W78705   2.390  26.606  14.465
10365W        W78706   1.875  26.613  10.995
10366W        W78707   1.833  38.025   0.453
10367W        W78708  25.694  26.471   9.644
10368W        W78709  28.492   2.320   4.632
10369W        W78710  41.879  33.944  12.406
10370W        W78711  17.171  10.746  12.560
10371W        W78712  37.076  10.715   3.696
10372W        W78713  15.112   5.361   2.692
10373W        W78714   7.700  39.858  14.310
10374W        W78715   6.298  41.813   3.819
10375W        W78716  30.118  41.912  14.008
10376W        W78717  33.904   6.922  12.855
10377W        W78718  31.085  23.000   4.212
10378W        W78719  31.586  21.146   1.347
10379W        W78720  11.639  26.611   2.877
10380W        W78721  22.586   5.795   0.915
10381W        W78722  33.412  12.213   3.661
10382W        W78723  39.036  23.191  13.520
10383W        W78724  13.138  30.529  12.471
10384W        W78725   2.948  44.754  13.546
10385W        W78726   7.869  39.961  12.941
10386W        W78727   8.222   4.851   0.889
10387W        W78728  41.884  31.454   0.376
10388W        W78729  19.561  28.183  12.341
10389W        W78730  41.302  17.275   2.751
10390W        W78731   3.393   9.175   3.781
10391W        W78732  14.285  12.134  14.010
10392W        W78733  23.001   7.830  14.511
10393W        W78734  26.091  14.689  13.868
10394W        W78735  14.834  41.472  11.889
10395W        W78736  40.324  41.925  13.456
10396W        W78737  20.723  37.433   2.875
10397W        W78738  37.400  30.056  13.889
10398W        W78739   6.845  21.717  14.360
10399W        W78740   7.391  27.125   4.740
10400W        W78741  41.479  42.031   1.358
10401W        W78742  32.521  16.701   1.438
10402W        W78743  25.516   6.208   2.760
10403W        W78744   7.740  24.092   4.599
10404W        W78745  19.172  13.152   1.742
10405W        W78746  29.084  13.640   2.762
10406W        W78747   7.295  35.534  11.936
10407W        W78748  35.081  20.235   4.677
10408W        W78749  27.950  40.028   0.406
10409W        W78750  25.597   5.227   2.881
10410W        W78751  33.095  44.329   3.834
10411W        W78752  23.725   8.816   4.277
10412W        W78753   3.916  28.646  14.021
10413W        W78754  22.591  39.358  14.347
10414W        W78755  17.571  32.021   4.147
10415W        W78756   0.962  18.570   0.859
10416W        W78757  30.047  16.139   2.403
10417W        W78758  20.536  42.901  12.416
10418W        W78759  42.426  23.095   2.812
10419W        W78760  32.136   1.421  13.458
10420W        W78761   4.783  31.540   0.244
10421W        W78762  30.128  26.615   3.812
10422W        W78763  18.554  33.022   0.943
10423W        W78764  31.133   2.312  14.991
10424W        W78765  42.427   0.453   2.679
10425W        W78766  14.800  30.015  13.500
10426W        W78767  11.141  24.690  14.279
10427W        W78768  10.359  33.411  10.037
10428W        W78769  37.339  15.678   3.790
10429W        W78770  25.511  14.316  12.934
10430W        W78771  16.144  32.404  13.028
10431W        W78772  36.575  31.898   4.681
10432W        W78773   8.786  35.579  10.627
10433W        W78774  16.701   4.285  13.019
10434W        W78775  27.194  30.016   4.305
10435W        W78776  43.886  44.367   2.398
10436W        W78777  20.601  22.229  13.346
10437W        W78778  10.698   9.333   3.253
10438W        W78779  16.629   3.775  13.838
10439W        W78780   7.215   3.240   3.686
10440W        W78781  39.525  31.414   1.865
10441W        W78782  43.493  40.415   3.334
10442W        W78783  43.360   6.878   0.797
10443W        W78784  13.202   0.493   1.884
10444W        W78785  21.115  22.135  13.999
10445W        W78786  19.114  40.984   2.889
10446W        W78787   4.366   4.234  10.456
10447W        W78788  34.911  25.658  13.875
10448W        W78789   1.288  21.100   2.187
10449W        W78790  34.108  35.458   3.311
10450W        W78791  16.793  19.199  11.572
10451W        W78792  35.374  43.272   2.285
10452W        W78793  40.371  20.197   1.861
10453W        W78794  44.345  13.146  13.862
10454W        W78795   3.872  33.500  12.029
10455W        W78796  14.676  44.307  13.995
10456W        W78797  33.388  13.145  14.920
10457W        W78798  29.009  35.026  14.409
10458W        W78799   2.967  22.659   2.856
10459W        W78800  18.065  36.959   2.304
10460W        W78801   9.752  27.057   1.230
10461W        W78802   7.759  12.215  13.027
10462W        W78803  41.438  39.883  14.368
10463W        W78804   4.395  25.530  11.949
10464W        W78805  31.482  38.350  10.913
10465W        W78806  38.062  42.427   9.563
10466W        W78807  41.941   3.851  12.863
10467W        W78808   5.361  31.906   3.241
10468W        W78809  31.919  39.442  12.457
10469W        W78810   6.905  26.521   3.767
10470W        W78811  20.731  36.411  11.064
10471W        W78812  28.009   9.847   0.355
10472W        W78813   4.405  15.170   0.919
10473W        W78814  26.601  24.221   3.171
10474W        W78815  15.279  39.020  12.524
10475W        W78816  13.846  32.916   0.366
10476W        W78817  19.768  35.548   3.165
10477W        W78818  15.655  18.759  14.285
10478W        W78819   0.981  19.618  13.316
10479W        W78820  13.299   7.248  14.986
10480W        W78821  33.596  16.163  10.967
10481W        W78822   4.852  23.069  14.387
10482W        W78823   1.272  40.388   4.317
10483W        W78824  36.069  34.043  10.500
10484W        W78825  13.684  12.260  10.517
10485W        W78826  39.878  20.764   2.726
10486W        W78827  28.010   0.296  13.802
10487W        W78828  31.143  27.646  14.015
10488W        W78829  14.121  28.073  11.608
10489W        W78830  11.127  11.256   1.436
10490W        W78831  42.471  44.299  13.439
10491W        W78832  18.288  41.312  12.986
10492W        W78833  37.383  39.403   0.950
10493W        W78834  23.106   3.837  12.531
10494W        W78835   4.430  36.999   3.792
10495W        W78836   9.182  15.760   0.833
10496W        W78837  33.014  12.360  13.547
10497W        W78838  13.651   7.703   4.156
10498W        W78839  36.091  35.504   3.221
10499W        W78840  44.474  39.500  12.834
10500W        W78841  34.609  12.219  14.500
10501W        W78842  22.591  42.292   3.809
10502W        W78843  28.982  36.991  11.025
10503W        W78844  44.448  28.155  10.988
10504W        W78845  35.995  11.349   1.782
10505W        W78846   7.686  19.238  12.390
10506W        W78847  42.475  18.636   4.338
10507W        W78848  14.215   2.306  14.824
10508W        W78849  30.615  42.373   1.367
10509W        W78850  33.413  17.288   0.262
10510W        W78851  36.364  26.994   4.672
10511W        W78852  21.047  38.416   4.750
10512W        W78853  41.534  21.559   0.352
10513W        W78854  28.010  16.590   1.884
10514W        W78855  13.167  30.930  14.848
10515W        W78856  42.380  43.009  13.802
10516W        W78857   9.317  30.644   1.403
10517W        W78858  17.639  18.717  14.834
10518W        W78859   7.893   2.766   3.373
10519W        W78860  22.633  16.727   1.787
10520W        W78861   4.275  36.463   2.823
10521W        W78862  37.497  38.563  13.981
10522W        W78863  25.013  21.532  13.029
10523W        W78864  28.681  18.181  13.347
10524W        W78865  17.229  28.666  11.942
10525W        W78866   6.716  31.643  13.020
10526W        W78867   7.813  15.300  11.417
10527W        W78868   6.403  33.541  13.943
10528W        W78869  26.066   1.271  10.998
10529W        W78870  41.389  35.003  14.360
10530W        W78871  12.323   2.789   0.350
10531W        W78872  19.096  14.789  10.581
10532W        W78873  41.034  42.969   5.113
10533W        W78874  24.204  18.058   1.284
10534W        W78875   2.325  12.219  11.418
10535W        W78876  35.552   9.831  11.488
10536W        W78877   7.389  15.801   3.360
10537W        W78878  20.746  28.611  14.423
10538W        W78879   5.379  31.629   3.192
10539W        W78880  12.738  42.891   0.881
10540W        W78881  32.897  44.426   2.355
10541W        W78882  21.181  21.576  11.521
10542W        W78883   9.870   2.425   0.765
10543W        W78884  36.085  43.435  10.946
10544W        W78885  34.073  35.100  13.946
10545W        W78886  39.000  21.153   2.743
10546W        W78887   1.733  24.011  13.049
10547W        W78888  36.397  39.535   1.820
10548W        W78889  22.698  33.055   3.847
10549W        W78890  29.651   0.301  13.009
10550W        W78891  15.140   2.325  11.401
10551W        W78892   5.320  24.524   2.715
10552W        W78893  44.270   3.420  10.551
10553W        W78894  12.220  42.355   0.905
10554W        W78895  43.766  16.293   0.835
10555W        W78896  35.481  29.952  14.369
10556W        W78897  41.377  15.267  12.401
10557W        W78898  27.123   2.917   0.424
10558W        W78899  13.210  16.301   2.250
10559W        W78900   6.257  11.222  14.007
10560W        W78901  36.440  41.350   9.950
10561W        W78902  33.388  25.504  13.465
10562W        W78903  22.736  17.105   4.127
10563W        W78904   2.469  41.983   1.779
10564W        W78905  28.136  38.509   2.302
10565W        W78906  42.452  40.939   0.355
10566W        W78907  11.822  14.217  10.620
10567W        W78908  14.220  21.615   1.925
10568W        W78909  26.675  34.613  13.353
10569W        W78910  29.125  23.564   3.380
10570W        W78911  34.101  42.991   2.346
10571W        W78912  44.808  24.642   4.114
10572W        W78913  23.092  23.217   3.298
10573W        W78914   2.428  35.976   1.903
10574W        W78915  44.827  14.750  12.922
10575W        W78916  27.131  36.968  13.047
10576W        W78917  18.684  37.930   2.366
10577W        W78918  35.406  40.474  14.875
10578W        W78919   0.867  19.672  11.384
10579W        W78920  38.537  41.812   0.908
10580W        W78921  34.614  40.845  11.944
10581W        W78922  31.541  18.132   2.179
10582W        W78923  26.676  27.563   3.741
10583W        W78924   8.203  21.082  10.485
10584W        W78925  28.536   1.912   4.317
10585W        W78926  19.657  15.618   2.298
10586W        W78927  39.403  30.604  12.417
10587W        W78928   7.696  10.832  11.074
10588W        W78929  23.563  38.834   1.706
10589W        W78930  39.355  17.069   4.688
10590W        W78931   9.154  11.127  14.364
10591W        W78932  43.485   0.789   0.407
10592W        W78933  27.000  29.497  13.987
10593W        W78934  21.546   5.395  11.017
10594W        W78935  20.754  36.502  10.416
10595W        W78936  11.224  18.250   3.227
10596W        W78937  32.436  28.985  11.018
10597W        W78938  12.822  12.816  11.868
10598W        W78939  36.387  43.908   0.966
10599W        W78940  22.578   8.690  11.978
10600W        W78941  21.140  42.915   1.826
10601W        W78942  35.598   7.842  14.956
10602W        W78943  28.523  17.588  10.534
10603W        W78944   6.396   8.381   1.372
10604W        W78945  21.583  26.113  10.644
10605W        W78946  39.830  39.460  13.339
10606W        W78947  35.925  19.671   0.355
10607W        W78948  31.463  30.109  11.863
10608W        W78949  39.382  26.156  11.551
10609W        W78950   9.316  27.152  14.759
10610W        W78951  40.332  35.974  13.452
10611W        W78952  28.976  38.553  14.767
10612W        W78953  38.822  38.428  11.024
10613W        W78954  14.826  28.502   3.639
10614W        W78955   1.879  13.634  11.527
10615W        W78956  33.999  18.680   0.859
10616W        W78957  11.288  20.214   1.755
10617W        W78958  31.951  11.144  12.487
10618W        W78959  16.786  17.211  11.117
10619W        W78960  12.182   1.831   3.814
10620W        W78961  24.085   2.823   4.829
10621W        W78962  15.808   2.920   0.952
10622W        W78963  26.026  13.106  11.415
10623W        W78964  14.166  16.696  10.136
10624W        W78965  14.098  15.133  13.940
10625W        W78966  35.478   7.839  12.886
10626W        W78967  10.820  17.087   3.315
10627W        W78968  42.389   9.193   2.890
10628W        W78969  28.135  15.645   2.735
10629W        W78970  17.285  28.036   0.810
10630W        W78971  15.612  25.556  12.825
10631W        W78972  44.342  40.869   2.251
10632W        W78973   3.833  17.152  10.550
10633W        W78974  42.394  35.359  13.307
10634W        W78975  36.485   5.796  13.015
10635W        W78976  36.956  11.197   0.310
10636W        W78977  44.325   5.263   4.216
10637W        W78978  29.159  22.655  13.980
10638W        W78979   2.864  11.353  13.343
10639W        W78980  23.494   8.664   0.792
10640W        W78981  10.280   6.275  13.507
10641W        W78982  10.170   7.223   3.212
10642W        W78983  35.582  19.762  10.444
10643W        W78984  25.576  10.828  10.546
10644W        W78985   7.323  34.946  10.434
10645W        W78986  14.228   8.195  14.946
10646W        W78987  36.074  42.932  13.545
10647W        W78988  22.084  25.052  10.998
10648W        W78989   7.312   6.758   2.883
10649W        W78990  28.031  40.430   0.889
10650W        W78991  31.644  21.099  13.468
10651W        W78992  26.470  36.959   2.354
10652W        W78993  12.754  38.350   5.735
10653W        W78994  43.003   1.894  12.882
10654W        W78995  12.662  37.920   9.964
10655W        W78996  21.674  30.600   4.753
10656W        W78997  39.917  31.904   1.348
10657W        W78998   3.877  16.760   0.348
10658W        W78999  41.789  31.004  12.363
10659W        W79000  13.697  30.475  13.792
10660W        W79001  23.503  16.760   2.225
10661W        W79002   7.871   4.341  14.419
10662W        W79003   7.738  25.557   1.403
10663W        W79004   2.260  12.660   2.297
10664W        W79005   2.465   7.743  10.421
10665W        W79006  36.580  27.046   2.362
10666W        W79007  38.481  16.194  14.414
10667W        W79008  18.743  44.880   1.292
10668W        W79009   7.784   8.315  13.371
10669W        W79010  44.911  10.831  10.577
10670W        W79011  11.305  34.921   2.416
10671W        W79012   1.365  26.537  11.965
10672W        W79013   5.373   0.844   4.726
10673W        W79014   8.879   3.767   4.213
10674W        W79015  36.860  37.414   4.637
10675W        W79016  35.508  34.098  13.969
10676W        W79017  14.799  29.123   2.317
10677W        W79018  42.893  19.651   0.361
10678W        W79019  33.470  19.642  14.447
10679W        W79020  10.782  21.058   3.736
10680W        W79021  12.318   6.780   4.829
10681W        W79022  14.104  39.846   4.624
10682W        W79023   6.822  39.315   4.212
10683W        W79024   6.892  21.640  11.879
10684W        W79025   5.850  44.895  13.405
10685W        W79026  36.989   4.231  14.433
10686W        W79027  23.123  41.831  12.474
10687W        W79028   0.922  15.620   4.161
10688W        W79029  26.635  39.862   3.152
10689W        W79030  24.720  23.708   4.346
10690W        W79031  13.671  32.395   4.233
10691W        W79032  36.874  22.583   2.180
10692W        W79033   0.893  30.096   2.753
10693W        W79034  44.903   8.808   3.277
10694W        W79035  24.182  42.304   4.295
10695W        W79036  30.446  13.775   3.783
10696W        W79037  25.155   7.685  11.044
10697W        W79038  39.461  39.847  12.367
10698W        W79039  11.740  39.549   2.710
10699W        W79040  39.388  15.764  12.361
10700W        W79041  12.218  43.019  12.053
10701W        W79042  33.533  25.491  11.568
10702W        W79043  44.849  14.110  13.029
10703W        W79044   7.817   0.279  14.868
10704W        W79045  30.454  14.146  13.024
10705W        W79046  35.877  35.558   4.811
10706W        W79047  40.311   8.270   0.813
10707W        W79048  34.435  35.415   2.209
10708W        W79049  39.483  44.285  10.624
10709W        W79050  12.612   6.685  12.492
10710W        W79051  38.362  44.505  11.493
10711W        W79052  13.795   4.786   0.930
10712W        W79053  12.319   9.341  14.027
10713W        W79054  40.934   1.289   2.712
10714W        W79055  35.855  24.020   0.405
10715W        W79056  26.177  31.053  10.442
10716W        W79057  15.691   6.892  10.515
10717W        W79058  31.491   2.445   2.814
10718W        W79059   4.872  38.981   9.958
10719W        W79060  24.616  27.075   0.860
10720W        W79061   1.427  11.268   0.304
10721W        W79062  19.553  18.182   0.404
10722W        W79063  23.713  38.460   2.833
10723W        W79064  35.072  30.976   4.801
10724W        W79065  28.026  12.635  13.406
10725W        W79066  25.487  31.616  12.560
10726W        W79067  43.423  28.661  10.482
10727W        W79068  13.189  38.020   4.685
10728W        W79069  30.944  20.554   3.268
10729W        W79070  28.630  38.910   0.275
10730W        W79071  26.488  31.048   3.258
10731W        W79072  32.485   5.921  10.431
10732W        W79073   9.258  18.169  14.938
10733W        W79074  38.835  22.704  11.906
10734W        W79075  11.659  36.423   2.417
10735W        W79076   4.904  43.277   4.327
10736W        W79077  25.018  30.129   0.837
10737W        W79078  37.474  24.561  13.007
10738W        W79079  10.700  34.078   2.840
10739W        W79080  14.816  16.259   0.894
10740W        W79081  30.923   7.788   0.921
10741W        W79082  26.091  39.506  13.016
10742W        W79083  21.237   7.763  13.424
10743W        W79084  39.397   4.207   0.329
10744W        W79085  38.376  14.230  14.849
10745W        W79086  21.588  28.107   2.862
10746W        W79087  40.808  44.432   2.727
10747W        W79088   3.399  27.035   0.344
10748W        W79089   2.460   1.282   2.897
10749W        W79090  35.930  28.029   0.848
10750W        W79091  13.820  42.005   3.665
10751W        W79092  31.026  24.177  10.948
10752W        W79093  26.091   1.891   3.658
10753W        W79094  24.217  15.156   4.210
10754W        W79095  29.069   1.336   4.278
10755W        W79096  24.008  22.696  10.135
10756W        W79097  26.502  15.603   3.864
10757W        W79098  16.807  17.292  14.502
10758W        W79099  38.032   5.832  12.940
10759W        W79100   2.324  15.149   0.436
10760W        W79101   4.870  16.646   1.410
10761W        W79102  28.002  16.211   3.746
10762W        W79103  43.808  25.635   2.793
10763W        W79104  37.084  30.096  11.417
10764W        W79105  33.489  34.930  11.586
10765W        W79106  33.932  42.895  14.479
10766W        W79107  19.573   6.194  11.017
10767W        W79108  10.799  37.087   4.656
10768W        W79109  33.565  32.590   4.641
10769W        W79110  11.252  17.156   1.414
10770W        W79111   3.906  18.221  11.119
10771W        W79112   4.417  18.629  12.829
10772W        W79113  22.159  35.413   0.368
10773W        W79114  19.759  30.512   1.387
10774W        W79115  38.342  29.983   1.916
10775W        W79116  37.048  32.128   0.944
10776W        W79117  24.653   9.826  14.282
10777W        W79118  14.829  22.662   2.328
10778W        W79119   8.660  35.883  14.457
10779W        W79120   8.743  29.162   2.279
10780W        W79121   0.744  35.575  11.987
10781W        W79122  32.885  34.437  13.981
10782W        W79123  43.791   9.782  13.033
10783W        W79124  28.963  11.157  11.585
10784W        W79125  14.831  13.284   2.843
10785W        W79126  34.980   5.319  14.371
10786W        W79127  32.398   1.408  14.787
10787W        W79128  19.569  36.034   4.732
10788W        W79129  26.481  37.353   3.703
10789W        W79130  26.088  40.422   0.915
10790W        W79131  44.344  20.766   3.728
10791W        W79132   3.380  31.011  11.059
10792W        W79133  13.152   6.893   1.724
10793W        W79134  36.389  25.152  11.584
10794W        W79135  19.091  33.926  14.022
10795W        W79136  25.604  31.508  11.000
10796W        W79137  14.207   2.250  12.081
10797W        W79138  34.968   8.884  14.413
10798W        W79139  43.396  33.476   3.158
10799W        W79140  43.348  19.272  14.792
10800W        W79141  12.760   5.202  14.767
10801W        W79142  43.832  27.659  11.868
10802W        W79143  10.275   7.206  13.457
10803W        W79144  23.715   3.231   2.212
10804W        W79145  15.184  16.751  14.376
10805W        W79146  41.832   6.718  12.514
10806W        W79147  20.080  36.996   2.791
10807W        W79148  42.997  15.092  10.573
10808W        W79149   5.850  33.106   2.881
10809W        W79150  42.332  17.748  13.528
10810W        W79151  43.344  14.258   3.217
10811W        W79152  42.979  18.262  14.463
10812W        W79153   2.906  35.030  13.897
10813W        W79154   5.254  17.272  14.474
10814W        W79155  41.019  12.639   0.358
10815W        W79156  40.878  39.897   0.776
10816W        W79157  43.353   5.833  10.546
10817W        W79158   3.817  38.360  12.060
10818W        W79159  31.579  31.044   4.749
10819W        W79160  17.749  26.952   1.818
10820W        W79161  14.681  24.628   4.643
10821W        W79162  15.110  20.612   4.789
10822W        W79163  25.552  16.114  11.473
10823W        W79164  30.516   4.339   1.342
10824W        W79165  42.410  36.583  11.377
10825W        W79166  43.914  34.880  10.404
10826W        W79167  21.054   1.860  13.478
10827W        W79168   3.804  27.085  14.846
10828W        W79169  20.264  24.221   1.719
10829W        W79170  25.085  17.671   3.730
10830W        W79171  13.617  25.978  12.500
10831W        W79172  37.403   1.348  12.088
10832W        W79173  19.553   7.794   0.413
10833W        W79174  20.079  25.962  14.403
10834W        W79175   6.721   9.711  13.940
10835W        W79176  10.319  42.884   5.094
10836W        W79177  30.022  43.451   0.839
10837W        W79178   4.728  44.002  14.807
10838W        W79179  41.338  31.034  14.298
10839W        W79180  19.224  44.376   4.324
10840W        W79181  16.753   2.237   3.655
10841W        W79182   6.833  18.161  10.916
10842W        W79183  29.619  15.774   2.241
10843W        W79184  25.576  40.831   3.352
10844W        W79185  31.412  22.208   1.432
10845W        W79186  38.943  22.594  11.071
10846W        W79187  37.483   5.832   0.947
10847W        W79188  19.207  23.010   4.221
10848W        W79189   8.322  12.130   0.369
10849W        W79190  23.055  11.659  14.366
10850W        W79191  22.517  11.365  10.985
10851W        W79192  16.234   4.350  11.592
10852W        W79193  11.360  21.587   2.297
10853W        W79194  11.232  27.682   4.602
10854W        W79195  25.116  21.123  11.540
10855W        W79196  23.631  35.962   4.221
10856W        W79197  12.337   5.797   1.246
10857W        W79198   6.897  30.531   1.816
10858W        W79199   3.291  11.750  14.021
10859W        W79200  12.187  39.449   1.316
10860W        W79201   0.454  30.919  11.528
10861W        W79202  13.621  30.652  12.528
10862W        W79203  39.495  21.116   0.245
10863W        W79204   8.774   7.233  10.084
10864W        W79205  25.546  39.989  10.066
10865W        W79206   2.313  40.393  12.548
10866W        W79207   6.718  12.836   3.183
10867W        W79208  16.083  32.950   0.815
10868W        W79209   1.770  25.610   2.288
10869W        W79210  34.559  21.643  12.969
10870W        W79211  40.378  12.306  11.081
10871W        W79212   2.413  26.116  14.329
10872W        W79213   6.253   4.218  11.406
10873W        W79214  39.493   5.702  12.062
10874W        W79215   3.405  29.036   2.357
10875W        W79216  44.368  20.131  13.427
10876W        W79217  17.198  21.137   5.130
10877W        W79218  11.639  22.156  14.939
10878W        W79219  12.268  40.992   9.997
10879W        W79220   8.798  25.973  14.953
10880W        W79221  23.001  14.713   3.826
10881W        W79222  40.021  25.122   0.292
10882W        W79223  16.200  36.415   3.658
10883W        W79224  41.956  44.448   3.181
10884W        W79225  19.257  18.113  10.457
10885W        W79226  11.790  27.185  14.017
10886W        W79227  26.047   6.863   4.802
10887W        W79228  29.631  15.270   0.789
10888W        W79229  43.409  22.183  14.392
10889W        W79230   8.747  33.542   3.365
10890W        W79231   4.383   9.734   4.599
10891W        W79232  30.517  39.432  12.023
10892W        W79233  29.626  20.118  12.886
10893W        W79234  37.368  43.372   1.371
10894W        W79235  39.859   4.832   0.458
10895W        W79236   0.395  19.074   4.677
10896W        W79237  15.795  22.719  12.865
10897W        W79238  21.212  29.508   1.344
10898W        W79239   9.243  33.965  11.470
10899W        W79240  19.260  18.631   0.410
10900W        W79241   8.223   6.415   0.333
10901W        W79242   9.706   4.359   4.312
10902W        W79243  14.687   2.813   3.245
10903W        W79244  23.071  30.451   3.770
10904W        W79245  13.307  23.528   2.707
10905W        W79246  31.469  25.714   2.181
10906W        W79247  16.208  41.526  12.023
10907W        W79248   3.409  34.381   2.272
10908W        W79249   4.942  20.726  12.489
10909W        W79250  20.028  37.983  10.493
10910W        W79251  39.492  24.098   0.779
10911W        W79252  21.230   9.665  11.968
10912W        W79253   2.809  17.764   0.466
10913W        W79254  17.171  34.403  13.841
10914W        W79255  31.023  24.981   0.764
10915W        W79256  16.724   3.268  11.979
10916W        W79257  23.120   8.346  12.541
10917W        W79258  10.711  22.626  13.358
10918W        W79259  28.443  31.933  12.960
10919W        W79260   5.814  18.203   3.725
10920W        W79261   7.868   5.364   3.344
10921W        W79262  28.137  37.580  12.580
10922W        W79263  42.399   0.490   1.360
10923W        W79264  26.562  11.750  13.820
10924W        W79265   6.680  23.533   1.929
10925W        W79266   6.751  20.630   1.729
10926W        W79267   0.424  40.823   4.704
10927W        W79268   6.315  24.520   0.801
10928W        W79269  44.491  43.933  11.034
10929W        W79270  14.800  10.265   3.249
10930W        W79271  38.328  18.715  14.859
10931W        W79272   0.907  21.532   3.285
10932W        W79273  27.690  17.265  12.540
10933W        W79274  32.516  34.452   1.228
10934W        W79275   6.804  15.723  10.979
10935W        W79276  24.682  28.624   2.761
10936W        W79277   8.281  23.032  13.328
10937W        W79278  33.601  39.550  10.987
10938W        W79279  35.506  29.538  14.981
10939W        W79280   5.783  11.824  11.012
10940W        W79281   9.795  19.707   0.844
10941W        W79282   1.869  38.490  12.467
10942W        W79283  28.468  11.309  14.444
10943W        W79284  21.189  22.125  14.408
10944W        W79285  42.483  18.749   4.711
10945W        W79286  20.058  13.795  12.940
10946W        W79287   8.665  36.394   1.751
10947W        W79288  16.121   0.836   3.708
10948W        W79289   0.305  15.120  10.485
10949W        W79290  33.053  19.583  13.969
10950W        W79291   2.282  26.014  11.422
10951W        W79292   7.279  33.561  12.542
10952W        W79293  18.706  10.157   9.961
10953W        W79294  36.844  43.898  12.454
10954W        W79295  17.741  28.506  13.354
10955W        W79296   1.750  25.502  10.404
10956W        W79297  26.084  15.175   1.752
10957W        W79298   7.265   2.383  12.544
10958W        W79299  11.135  23.160   4.223
10959W        W79300   0.944   8.808  13.966
10960W        W79301  41.517  41.432  10.944
10961W        W79302  25.078  36.929  11.861
10962W        W79303   5.867   5.245   3.715
10963W        W79304  12.830  25.139  13.807
10964W        W79305  22.134   9.367   0.802
10965W        W79306  10.664  33.380  12.903
10966W        W79307  22.593  28.608  14.496
10967W        W79308  10.378  30.627   2.678
10968W        W79309   1.318  41.428   0.265
10969W        W79310   9.704  36.507  13.380
10970W        W79311  34.527  40.905  10.145
10971W        W79312  17.234  39.327   3.762
10972W        W79313   7.300  11.213   0.877
10973W        W79314  33.622  19.706  11.930
10974W        W79315  15.144  34.526  11.056
10975W        W79316  19.168  11.220   0.350
10976W        W79317  37.350  43.415  12.404
10977W        W79318  44.463  39.925  14.291
10978W        W79319   8.708   8.218  12.984
10979W        W79320   1.829  26.200   1.740
10980W        W79321  44.413  28.597   1.240
10981W        W79322  43.973  32.560  11.546
10982W        W79323  30.981  40.896  14.792
10983W        W79324  19.770  35.433   0.778
10984W        W79325  18.746  21.567   0.272
10985W        W79326  17.216  43.307   0.348
10986W        W79327  41.885  12.199   1.366
10987W        W79328  24.165  36.409  11.588
10988W        W79329  34.526  40.026   5.788
10989W        W79330  31.570  33.003   1.399
10990W        W79331   4.290  28.543   1.349
10991W        W79332   2.298  40.303   2.848
10992W        W79333  39.499  16.234   3.687
10993W        W79334  19.164  33.124   3.270
10994W        W79335  41.494  22.599  12.834
10995W        W79336  26.566  35.562  13.464
10996W        W79337  13.181  37.970   0.315
10997W        W79338  19.082  41.537   3.207
10998W        W79339  44.847  34.447  13.399
10999W        W79340   4.859  27.004   3.654
11000W        W79341  26.983  17.104   4.718
11001W        W79342  35.560  30.930  12.825
11002W        W79343  37.405  18.649   0.931
11003W        W79344   4.831  25.980   4.608
11004W        W79345  31.088   0.462   2.410
11005W        W79346  11.212  20.535   1.375
11006W        W79347  20.036  24.219  10.966
11007W        W79348  23.237   3.747   3.289
11008W        W79349  28.540  10.791   2.417
11009W        W79350  41.381   0.817  11.977
11010W        W79351   0.271  26.084  11.492
11011W        W79352  20.204  36.462  12.905
11012W        W79353  39.857  31.479  13.489
11013W        W79354  17.165  36.447   3.249
11014W        W79355  39.407  41.971  12.894
11015W        W79356  32.503  44.837  14.335
11016W        W79357  19.174  27.957  13.948
11017W        W79358   8.746   8.740  11.118
11018W        W79359  21.654  30.603   1.433
11019W        W79360  29.012  23.731  11.087
11020W        W79361  17.769  40.469   4.256
11021W        W79362   2.262  14.250   2.746
11022W        W79363   9.392   4.403  11.411
11023W        W79364  38.366  42.282  13.403
11024W        W79365   6.819  42.413  13.924
11025W        W79366  33.884   5.335  12.378
11026W        W79367  18.788  22.071   3.280
11027W        W79368   9.739   7.241  12.409
11028W        W79369  19.724  10.772   3.249
11029W        W79370  32.009  35.542   4.802
11030W        W79371  19.603  26.571   3.169
11031W        W79372  29.978  41.021   1.286
11032W        W79373  16.258  43.436  14.838
11033W        W79374  19.562  26.966  12.368
11034W        W79375  16.082  20.612  11.581
11035W        W79376  13.842  41.400   3.838
11036W        W79377  29.147   9.158  14.444
11037W        W79378  16.189  26.009   4.803
11038W        W79379   4.432  43.301  12.902
11039W        W79380  31.048  10.261   2.666
11040W        W79381  44.893  37.018  13.455
11041W        W79382  37.018   7.300  11.113
11042W        W79383   1.339   1.289   1.423
11043W        W79384  27.555  19.107   2.408
11044W        W79385  39.324  18.629  14.419
11045W        W79386  14.183  28.986   9.985
11046W        W79387  40.958  10.637  12.489
11047W        W79388  22.126  24.982   3.272
11048W        W79389   5.221  36.404   2.682
11049W        W79390   2.272  32.942  12.985
11050W        W79391  27.030  29.963  11.379
11051W        W79392   5.358  41.498  10.425
11052W        W79393  40.483  24.566   1.296
11053W        W79394   1.806  35.057  12.429
11054W        W79395  13.208  22.577  12.404
11055W        W79396  10.169  38.894   5.321
11056W        W79397  44.485  19.541  10.902
11057W        W79398   1.267  28.015   2.370
11058W        W79399  20.029  25.608  13.371
11059W        W79400  28.521  30.644   3.335
11060W        W79401   1.322   9.289   3.332
11061W        W79402   7.721  27.544  13.001
11062W        W79403  37.952   8.824  10.608
11063W        W79404  34.998  16.172  11.889
11064W        W79405  29.591  31.557  12.518
11065W        W79406  26.007  34.107   1.445
11066W        W79407   7.294  25.521  14.509
11067W        W79408  29.608  33.481  12.438
11068W        W79409   7.665  12.117  13.801
11069W        W79410   7.872   3.251   2.300
11070W        W79411  25.183  17.198  14.290
11071W        W79412  11.144  12.172  14.328
11072W        W79413  36.487  11.185   0.438
11073W        W79414  42.924   4.329  11.939
11074W        W79415  20.555   2.400  11.028
11075W        W79416  11.188  36.919   2.321
11076W        W79417  36.588  39.836   2.383
11077W        W79418  24.151  37.998  12.050
11078W        W79419  27.660   9.217   1.428
11079W        W79420  36.914  42.376  12.062
11080W        W79421  41.799  37.950   0.344
11081W        W79422  37.432  15.314   1.802
11082W        W79423   4.439   9.746  12.419
11083W        W79424  24.034  41.538   3.257
11084W        W79425  15.702  14.715   3.786
11085W        W79426  43.986  24.601  12.828
11086W        W79427   9.249  10.804  12.968
11087W        W79428  31.092  17.643   3.803
11088W        W79429  11.357   9.886   0.476
11089W        W79430  23.156  21.220   5.175
11090W        W79431   2.306  22.020  11.909
11091W        W79432  42.509  37.424   2.845
11092W        W79433  34.517  24.575   0.829
11093W        W79434  17.217  28.498   1.233
11094W        W79435  24.522  16.135   0.278
11095W        W79436  18.104  34.529   2.845
11096W        W79437  30.074   8.850  10.442
11097W        W79438  13.775   8.871  11.498
11098W        W79439   5.263  29.173   2.261
11099W        W79440   2.342  21.587  10.430
11100W        W79441  15.698  20.205   1.424
11101W        W79442  39.984   0.961  12.549
11102W        W79443  35.475   4.371  11.565
11103W        W79444  17.797  18.776   3.680
11104W        W79445  24.139  11.730   2.767
11105W        W79446  21.157  19.626  14.313
11106W        W79447  13.685  26.603   1.751
11107W        W79448  31.991  32.392  14.769
11108W        W79449  38.033   4.227   2.206
11109W        W79450   0.342  13.330  14.920
11110W        W79451  20.032  32.028  13.358
11111W        W79452  38.931  15.285   2.324
11112W        W79453  15.186   2.466  14.926
11113W        W79454  27.601  24.646   0.298
11114W        W79455   0.247  11.774   0.418
11115W        W79456  34.931  19.249  12.568
11116W        W79457  22.147  35.403  11.372
11117W        W79458   7.310   0.294   0.377
11118W        W79459  25.675  38.409   1.363
11119W        W79460  35.892   5.768   3.732
11120W        W79461  40.798  27.101  11.532
11121W        W79462  35.005  25.689   1.912
11122W        W79463  21.716  31.951   0.307
11123W        W79464  30.615  17.114  13.891
11124W        W79465  12.205  21.242   0.921
11125W        W79466  43.815  23.509   3.249
11126W        W79467  15.221  41.003  11.582
11127W        W79468  16.239  34.877  14.908
11128W        W79469  22.100  41.793  10.485
11129W        W79470  28.551  40.534   4.673
11130W        W79471  23.570  27.055  12.523
11131W        W79472   5.821  44.275  11.588
11132W        W79473  21.693   0.418  14.369
11133W        W79474   4.874  22.038  10.578
11134W        W79475  28.541   0.795   3.785
11135W        W79476  10.784  43.908   4.774
11136W        W79477  43.405   9.793  10.976
11137W        W79478   5.817   0.264  11.064
11138W        W79479  11.209  29.559  14.811
11139W        W79480  31.461  44.414   2.234
11140W        W79481  11.854   0.272  14.344
11141W        W79482  10.162  24.989   3.261
11142W        W79483  44.356  18.252   4.814
11143W        W79484  35.993  24.481  11.520
11144W        W79485  36.454  35.522  14.504
11145W        W79486  39.383  18.637  10.481
11146W        W79487  21.612  19.064   1.893
11147W        W79488   2.471  19.103   2.269
11148W        W79489  19.705  27.080   1.735
11149W        W79490  26.064  32.020   2.880
11150W        W79491  37.381  35.097   0.390
11151W        W79492  17.759  23.601   2.829
11152W        W79493  28.484  34.536   0.341
11153W        W79494  13.816  35.551   0.896
11154W        W79495  24.595  15.229   3.258
11155W        W79496  44.454  11.802   0.467
11156W        W79497  14.174  18.652  11.545
11157W        W79498  18.153  15.132   4.271
11158W        W79499   2.289  16.637   9.662
11159W        W79500  26.633  24.101   0.243
11160W        W79501  44.271  15.246   3.789
11161W        W79502   8.830  15.586  13.399
11162W        W79503  18.232   3.762   1.244
11163W        W79504  32.475  42.983  12.450
11164W        W79505  35.402  30.655  12.379
11165W        W79506   6.849  29.029   2.855
11166W        W79507  37.440  28.556   0.875
11167W        W79508  16.586   3.437  12.509
11168W        W79509   7.326  16.104  14.874
11169W        W79510  26.655  22.577  14.936
11170W        W79511  35.363  20.108  11.971
11171W        W79512  12.234   6.822   0.253
11172W        W79513  40.303  33.044   1.807
11173W        W79514   8.719  41.819  12.964
11174W        W79515  24.611  23.233  11.502
11175W        W79516   4.349   6.248  13.056
11176W        W79517  19.656  13.766  10.901
11177W        W79518  33.890  10.867  14.884
11178W        W79519  11.646  26.978  13.538
11179W        W79520   9.357   4.935  11.055
11180W        W79521  12.282   1.882  11.384
11181W        W79522   4.733  16.661   0.246
11182W        W79523  25.963   4.706  11.431
11183W        W79524  25.198  22.715  13.019
11184W        W79525  21.654  33.031  12.893
11185W        W79526  43.841  36.034  11.473
11186W        W79527  27.942  25.097   3.228
11187W        W79528  13.659  34.538   4.809
11188W        W79529  37.854  38.076  12.443
11189W        W79530  29.522  39.467  10.560
11190W        W79531  13.317   0.805  14.436
11191W        W79532   3.726  15.745   1.708
11192W        W79533   8.804   0.813  11.919
11193W        W79534  21.044  35.866   2.337
11194W        W79535  27.073   1.956   4.221
11195W        W79536  37.028  25.603  11.984
11196W        W79537  35.361  22.205   2.410
11197W        W79538  43.516  29.042   1.804
11198W        W79539  17.118  42.986  13.930
11199W        W79540  31.488   5.399   4.694
11200W        W79541  36.394   3.782   1.707
11201W        W79542  12.755   3.893  11.433
11202W        W79543   1.385  23.720   0.452
11203W        W79544  38.389   2.385  13.867
11204W        W79545  20.637  27.954  13.841
11205W        W79546  36.521  20.559  13.534
11206W        W79547  29.481  25.516   2.714
11207W        W79548  31.074   7.898   5.219
11208W        W79549  39.464  34.441   0.760
11209W        W79550  34.385  28.613  11.385
11210W        W79551  15.115   2.463  12.838
11211W        W79552  43.371  20.107   4.339
11212W        W79553  42.331   3.249  10.903
11213W        W79554   6.257   2.373   1.898
11214W        W79555  11.636  38.570  10.484
11215W        W79556  28.435  43.424  10.553
11216W        W79557  37.555  22.158  11.880
11217W        W79558  42.491  31.950   3.305
11218W        W79559   4.919  12.247  10.433
11219W        W79560  16.772  26.137   3.368
11220W        W79561  26.630  12.151   0.730
11221W        W79562  22.072  21.196  14.008
11222W        W79563  44.416  21.579  13.986
11223W        W79564  22.088  18.247   4.716
11224W        W79565  25.153  10.854  12.348
11225W        W79566   7.348  32.508   2.218
11226W        W79567  14.609  39.401   3.305
11227W        W79568   2.243  21.182  12.393
11228W        W79569  19.243   5.243  11.407
11229W        W79570   0.753  11.791   0.267
11230W        W79571  39.553   3.382  11.097
11231W        W79572  24.103  24.569  13.457
11232W        W79573  19.582   1.342  11.880
11233W        W79574   3.835   4.331   2.813
11234W        W79575  36.447  21.034   3.752
11235W        W79576   5.338  29.647   1.442
11236W        W79577  21.758  22.615   4.127
11237W        W79578  32.011  33.551   5.235
11238W        W79579  43.933  17.597   3.787
11239W        W79580   8.323   4.768  14.389
11240W        W79581   5.338  31.404  11.997
11241W        W79582  18.622  21.211  11.598
11242W        W79583   9.378  44.991   3.827
11243W        W79584  12.798  20.178   0.250
11244W        W79585  11.183   5.697  14.343
11245W        W79586  17.612  21.570  10.915
11246W        W79587  11.718  30.426  11.989
11247W        W79588  22.710   9.785   2.419
11248W        W79589   7.198  21.184   0.921
11249W        W79590  10.712  20.152   2.267
11250W        W79591   5.432  12.812  14.775
11251W        W79592  12.845  38.010  12.879
11252W        W79593   3.879  27.082  10.423
11253W        W79594  42.863   8.164   0.384
11254W        W79595   3.790  25.044   0.463
11255W        W79596  25.678  41.393   5.192
11256W        W79597  16.212  22.576  10.888
11257W        W79598  35.876  12.255  13.502
11258W        W79599  39.463  41.845  11.116
11259W        W79600  15.179  42.474  10.492
11260W        W79601  42.350   4.716  12.393
11261W        W79602  33.106   0.864  13.438
11262W        W79603  20.232   1.387  14.909
11263W        W79604  13.126  25.152   3.267
11264W        W79605  12.295   3.837  13.502
11265W        W79606  29.945  39.033  12.365
11266W        W79607  21.622   3.710  12.405
11267W        W79608  14.299  43.387  13.018
11268W        W79609  31.602  35.440   0.375
11269W        W79610  23.511  26.457  11.894
11270W        W79611  22.600  22.205  12.547
11271W        W79612  28.174  42.971   4.121
11272W        W79613  42.786   1.447  12.881
11273W        W79614   1.756   3.264  11.985
11274W        W79615   2.357  31.002   4.646
11275W        W79616  20.747  37.405   2.209
11276W        W79617  28.617   8.357   1.285
11277W        W79618  26.976  27.966   5.119
11278W        W79619  11.371  13.221  10.038
11279W        W79620   7.261  40.511   0.886
11280W        W79621  43.972   7.689   3.664
11281W        W79622  40.449  29.171  10.008
11282W        W79623  42.977  40.412  11.425
11283W        W79624  23.547  23.723  11.414
11284W        W79625   4.883  38.848   3.848
11285W        W79626  30.133   0.796  11.497
11286W        W79627  23.160  31.968  13.507
11287W        W79628  22.206  21.247   4.701
11288W        W79629  30.977  16.807  11.414
11289W        W79630  22.683  37.060   4.829
11290W        W79631  38.936  15.282   5.096
11291W        W79632  41.443  25.604  14.867
11292W        W79633  24.704  40.475  10.425
11293W        W79634  29.077  14.113  13.380
11294W        W79635  29.524  21.205   1.396
11295W        W79636  11.200  37.513  11.472
11296W        W79637  30.108   1.434   0.335
11297W        W79638  13.144   9.736   2.724
11298W        W79639  20.689  40.515  11.015
11299W        W79640  21.044  11.312   4.809
11300W        W79641  22.708   4.384  12.549
11301W        W79642  28.594   5.906   1.811
11302W        W79643  26.981   4.859  14.012
11303W        W79644  26.584  23.133   0.407
11304W        W79645  40.878  33.078   3.350
11305W        W79646  26.168  26.132   5.655
11306W        W79647   8.161  10.807  12.846
11307W        W79648  30.953  42.993  10.128
11308W        W79649  20.551  31.451  11.427
11309W        W79650  37.847  10.338   2.258
11310W        W79651  38.547  29.495  11.090
11311W        W79652  11.168  26.532   0.885
11312W        W79653  40.314  35.916   2.298
11313W        W79654  35.477  22.176  14.414
11314W        W79655  41.391   9.709  13.019
11315W        W79656  16.232  40.369   3.704
11316W        W79657  17.694  35.092   0.842
11317W        W79658   2.817  26.570  12.945
11318W        W79659  34.538  21.209  10.595
11319W        W79660  21.533  25.059   3.169
11320W        W79661  13.653  10.858  11.454
11321W        W79662  31.413  40.804   4.120
11322W        W79663   1.441  30.499  14.445
11323W        W79664  31.410   3.354   3.724
11324W        W79665  41.961  37.048   1.751
11325W        W79666  13.790  42.479  11.090
11326W        W79667  17.661  21.660  13.503
11327W        W79668  29.644  25.099   4.720
11328W        W79669  38.444   2.295  12.340
11329W        W79670  28.014  34.435   0.383
11330W        W79671  22.530  32.893  11.863
11331W        W79672  19.559   6.693   4.762
11332W        W79673  31.583   6.289   4.261
11333W        W79674  43.396  10.276   2.331
11334W        W79675  28.522   5.854  10.508
11335W        W79676   2.408  21.166   1.749
11336W        W79677  14.776  43.298   1.771
11337W        W79678  31.016  43.481  12.579
11338W        W79679   2.812  43.290  13.054
11339W        W79680   0.351  12.116  12.930
11340W        W79681   6.283  38.029   3.818
11341W        W79682   8.348  19.555   4.817
11342W        W79683  12.644   1.950  10.439
11343W        W79684   9.833  31.548   0.862
11344W        W79685  15.296   5.251  12.482
11345W        W79686  18.248  31.024  12.997
11346W        W79687   3.236   4.410   1.233
11347W        W79688  42.388  24.152  14.503
11348W        W79689  24.654  42.925  14.833
11349W        W79690  17.620  11.631  12.880
11350W        W79691  25.700  38.010   1.765
11351W        W79692  15.119  11.850  10.645
11352W        W79693  15.709   7.889   1.894
11353W        W79694  22.636  15.140   4.221
11354W        W79695  37.077   1.894   4.344
11355W        W79696  25.992   6.374  12.432
11356W        W79697  20.149  26.598   2.417
11357W        W79698  22.153   2.929   1.751
11358W        W79699  41.900   2.871   3.149
11359W        W79700  32.990  24.027  12.952
11360W        W79701  34.865  40.465  13.006
11361W        W79702  12.219  15.583  13.327
11362W        W79703  31.098  14.771   4.791
11363W        W79704  14.161  18.198  14.318
11364W        W79705  16.623   4.838   2.196
11365W        W79706  25.075   0.743   1.409
11366W        W79707  21.121  34.452  13.868
11367W        W79708   2.424  12.346  14.428
11368W        W79709  32.010  40.966   1.743
11369W        W79710  41.397  29.950   0.269
11370W        W79711  37.913   2.913  11.533
11371W        W79712  33.913  35.064  10.496
11372W        W79713  19.163  39.322  12.950
11373W        W79714   6.785  10.832  12.906
11374W        W79715  42.898  23.991   2.358
11375W        W79716  39.855  15.216  11.594
11376W        W79717  19.566  11.846  13.824
11377W        W79718  10.319  41.873   0.740
11378W        W79719  24.141  11.683  12.541
11379W        W79720  14.310   5.239   4.623
11380W        W79721  19.124   2.364   2.778
11381W        W79722   4.295   0.349   4.256
11382W        W79723   4.862  30.501   2.818
11383W        W79724   6.330  30.460  11.084
11384W        W79725  41.841  41.503   0.383
11385W        W79726   2.378  29.503  14.919
11386W        W79727  10.252  28.597   0.336
11387W        W79728   3.232  33.032  12.854
11388W        W79729  43.830  24.146   4.652
11389W        W79730  29.557  16.792  12.073
11390W        W79731  29.926   3.900  11.068
11391W        W79732   2.926  13.600  10.910
11392W        W79733  20.710   1.241   0.344
11393W        W79734  13.626  19.638  11.599
11394W        W79735  13.328  11.664  11.401
11395W        W79736  24.168  21.051   3.319
11396W        W79737  24.587   8.395   4.700
11397W        W79738  14.679  40.366  12.946
11398W        W79739  22.544   3.407   1.881
11399W        W79740  43.370  31.035  12.088
11400W        W79741  27.671  35.492  14.772
11401W        W79742  21.123  39.940  14.370
11402W        W79743  27.944  24.974  13.389
11403W        W79744  19.669  43.826  14.460
11404W        W79745  39.013  44.370   1.381
11405W        W79746  44.324  36.078  13.808
11406W        W79747  26.099  18.613   3.732
11407W        W79748  26.072  18.611  14.392
11408W        W79749  24.490  33.938   2.317
11409W        W79750   5.735  33.895  14.434
11410W        W79751  29.600  42.820  13.424
11411W        W79752  41.438  34.594  13.372
11412W        W79753  35.022  24.056   4.600
11413W        W79754  34.401  34.944  13.895
11414W        W79755  34.885  25.597   1.376
11415W        W79756  16.769  29.148  11.609
11416W        W79757  37.520  12.777  14.367
11417W        W79758   8.182  38.049  11.585
11418W        W79759  25.011  17.219   4.632
11419W        W79760  19.216  29.559  14.351
11420W        W79761  44.399   0.329   2.836
11421W        W79762  31.436  14.195   0.792
11422W        W79763  15.676  37.862  11.884
11423W        W79764  25.088  38.825   3.295
11424W        W79765  12.686  16.124   4.618
11425W        W79766  20.562  19.555   1.758
11426W        W79767  19.136  13.173   3.278
11427W        W79768  24.645  12.193  14.417
11428W        W79769   8.324  24.619  13.389
11429W        W79770   8.824  41.027   3.265
11430W        W79771   5.887  15.686   1.874
11431W        W79772  42.341   1.893  10.958
11432W        W79773  27.592  18.212   4.802
11433W        W79774  17.298  42.373   3.832
11434W        W79775  44.936  17.069  13.528
11435W        W79776  24.609  44.461  12.050
11436W        W79777  17.295   1.409   0.243
11437W        W79778  11.308  19.713  11.588
11438W        W79779   4.413  36.855   0.913
11439W        W79780  35.891   5.325   0.965
11440W        W79781  25.112   0.868   2.877
11441W        W79782  14.126  25.519   3.196
11442W        W79783   5.747   1.838   1.883
11443W        W79784  24.112   1.461   1.235
11444W        W79785  15.681  19.129  10.923
11445W        W79786  38.828  18.673  14.413
11446W        W79787  17.611  19.623   1.716
11447W        W79788  13.790  42.335   2.766
11448W        W79789  23.064  12.153  11.027
11449W        W79790  42.479  34.897  10.466
11450W        W79791   1.265  20.621  13.829
11451W        W79792  44.800  41.876   4.724
11452W        W79793   1.294  32.473  10.485
11453W        W79794  41.305  27.668   1.318
11454W        W79795  33.548   0.804  11.600
11455W        W79796  35.405  30.654   0.437
11456W        W79797  16.776  14.758  12.374
11457W        W79798  33.078  27.602   0.796
11458W        W79799  29.021  23.211   4.178
11459W        W79800  24.111  12.630  13.543
11460W        W79801   0.432  12.346  10.457
11461W        W79802   8.191  16.729  13.440
11462W        W79803   7.815  25.995   0.872
11463W        W79804  13.110  26.062  14.777
11464W        W79805  38.355  41.461  13.062
11465W        W79806   3.809  14.334   4.200
11466W        W79807  41.884  24.534   3.286
11467W        W79808  16.212  27.090   0.313
11468W        W79809  32.469  44.917  11.929
11469W        W79810  39.932  12.199  10.605
11470W        W79811   4.292  23.023  13.027
11471W        W79812  10.867  19.198  11.528
11472W        W79813  37.903  29.455  11.500
11473W        W79814  10.379  34.438   0.471
11474W        W79815   6.197  19.555   0.372
11475W        W79816  32.473  24.993   0.876
11476W        W79817  11.752  21.134   1.412
11477W        W79818  32.028  32.132   2.837
11478W        W79819  14.817   5.785  14.973
11479W        W79820   2.841   7.873   1.319
11480W        W79821  29.577  36.396   4.338
11481W        W79822  27.623  44.916   2.697
11482W        W79823   8.679  42.942  10.962
11483W        W79824  39.906  37.015  12.342
11484W        W79825  13.315   5.280   2.870
11485W        W79826  16.785  38.504   3.176
11486W        W79827  25.026   1.775  13.345
11487W        W79828   1.378  24.616  11.499
11488W        W79829  40.396  42.313   1.363
11489W        W79830  14.595  44.947   1.412
11490W        W79831  43.938  22.665   2.265
11491W        W79832   1.887  11.320  11.979
11492W        W79833  34.506  32.089  14.289
11493W        W79834  27.962   4.848  12.472
11494W        W79835  37.501  22.696  13.900
11495W        W79836  41.852  25.517   2.786
11496W        W79837  42.328  44.000  14.311
11497W        W79838  34.048  24.205  13.387
11498W        W79839  39.948  40.466  12.938
11499W        W79840   5.765  43.854  11.957
11500W        W79841  12.303  11.133  11.085
11501W        W79842  15.125  19.262   4.686
11502W        W79843  37.543  36.480   3.264
11503W        W79844   5.858  30.579   3.856
11504W        W79845  19.271  25.574   1.265
11505W        W79846  14.264  34.531   2.272
11506W        W79847  29.490   7.416   3.174
11507W        W79848   8.697   6.921  10.425
11508W        W79849  44.844  41.810   0.431
11509W        W79850  18.759  18.070   1.217
11510W        W79851  30.445   2.396   3.699
11511W        W79852   0.927  38.018   2.321
11512W        W79853  24.144  28.580   3.282
11513W        W79854   1.873  28.633  14.847
11514W        W79855  26.526  25.069   3.767
11515W        W79856  25.582   9.674   2.369
11516W        W79857   2.371  44.889  12.916
11517W        W79858  15.797  40.452   1.378
11518W        W79859  33.995  10.173  10.050
11519W        W79860  21.224   2.308   4.216
11520W        W79861   2.861  20.666  12.003
11521W        W79862  39.459  13.174   1.411
11522W        W79863   3.718  27.551  14.504
11523W        W79864  23.094   9.169  12.037
11524W        W79865   9.766  32.548   3.640
11525W        W79866  14.736  44.885   2.227
11526W        W79867   7.792   5.235  10.614
11527W        W79868  31.404   0.898  11.432
11528W        W79869  11.767   0.949  12.339
11529W        W79870   9.884  37.955  11.560
11530W        W79871  18.156   4.302  12.463
11531W        W79872   6.405   6.366   5.237
11532W        W79873  42.864   3.871   3.743
11533W        W79874  27.499  39.973  10.425
11534W        W79875  21.698  35.862  13.836
11535W        W79876  42.422  15.683  10.921
11536W        W79877  42.357  32.922  12.419
11537W        W79878  28.150   6.753  14.870
11538W        W79879  11.151  29.535   0.863
11539W        W79880   0.972  36.571   0.482
11540W        W79881  35.553   7.362  10.561
11541W        W79882   7.193   7.817  11.900
11542W        W79883  14.678  30.096   1.753
11543W        W79884  11.698  13.613  14.320
11544W        W79885   4.368  31.110  11.595
11545W        W79886  18.550  20.634   3.386
11546W        W79887  42.857  27.999   4.638
11547W        W79888   7.239  38.886   0.360
11548W        W79889  28.041  36.517  10.490
11549W        W79890  33.006  38.847   2.332
11550W        W79891   7.693  40.817   4.255
11551W        W79892  35.503  18.584   2.397
11552W        W79893  15.246  27.176   0.326
11553W        W79894  24.680  10.215   0.363
11554W        W79895  41.849  13.699  12.422
11555W        W79896  25.516   1.917   0.953
11556W        W79897  42.013  38.489   1.916
11557W        W79898  20.205  38.017  12.036
11558W        W79899   1.322  41.012   1.928
11559W        W79900  13.273   6.860   3.177
11560W        W79901  16.303   1.905  12.835
11561W        W79902  33.958  44.970   2.697
11562W        W79903   7.280  22.742   4.124
11563W        W79904  42.951  18.087   1.368
11564W        W79905  19.760  29.556   3.695
11565W        W79906  10.717  34.589  13.453
11566W        W79907  11.339   2.380  10.643
11567W        W79908   3.872  34.910  13.873
11568W        W79909  15.127   0.951   3.184
11569W        W79910  33.958   0.823   3.857
11570W        W79911  19.046   8.858   3.771
11571W        W79912  16.619  17.195   0.414
11572W        W79913   1.385  28.127   2.794
11573W        W79914  33.494  42.443  14.462
11574W        W79915  22.703  38.870  12.835
11575W        W79916   1.264   7.407  11.048
11576W        W79917  27.589   8.839   2.384
11577W        W79918   6.840   5.859   0.355
11578W        W79919   3.446  36.027   3.163
11579W        W79920  15.191   3.375   0.733
11580W        W79921  29.519  32.560   4.821
11581W        W79922  19.642  30.075  11.868
11582W        W79923  32.413  44.384   1.434
11583W        W79924   5.437  31.475  14.782
11584W        W79925  30.913  42.467  10.578
11585W        W79926  16.592  26.522  12.403
11586W        W79927  44.804  22.610   3.802
11587W        W79928  30.106  19.602  12.971
11588W        W79929  24.659  16.787   3.751
11589W        W79930  43.383  13.605  11.585
11590W        W79931  15.795  22.743   0.423
11591W        W79932  25.507  11.215  13.911
11592W        W79933  11.779  19.708  10.521
11593W        W79934  29.529  37.041  14.948
11594W        W79935   1.310  14.213   0.791
11595W        W79936  42.396  26.486   3.775
11596W        W79937  37.504  17.697   0.477
11597W        W79938  27.001  33.102   1.241
11598W        W79939  11.768  27.106  11.476
11599W        W79940  33.977  22.162   2.198
11600W        W79941  11.276  16.076  12.404
11601W        W79942   1.861  39.493  14.289
11602W        W79943  37.578  33.455  13.901
11603W        W79944   2.341  16.682  10.094
11604W        W79945  24.125  40.441  14.954
11605W        W79946  38.837  10.176  10.467
11606W        W79947  28.606   6.200  12.399
11607W        W79948   5.776  29.574   0.826
11608W        W79949  15.670  40.416   0.780
11609W        W79950  22.747  39.813   2.395
11610W        W79951  31.041  38.372   0.846
11611W        W79952  22.091   8.765   1.227
11612W        W79953  24.189  18.629  11.009
11613W        W79954   2.376   4.212   1.800
11614W        W79955   4.218  39.520  13.517
11615W        W79956  42.927  38.522   0.460
11616W        W79957  25.558  39.932  13.483
11617W        W79958  28.623   3.387   0.289
11618W        W79959  24.218   4.213   1.439
11619W        W79960  24.717   3.791  13.883
11620W        W79961  43.799  41.431  13.441
11621W        W79962  34.465  20.554   1.726
11622W        W79963  41.040   3.350   2.889
11623W        W79964  23.638  37.338   1.364
11624W        W79965   2.753  21.081  10.952
11625W        W79966  29.570  17.122   5.150
11626W        W79967  11.341   2.239   3.312
11627W        W79968  28.929  19.102  10.566
11628W        W79969  30.981  41.505  13.541
11629W        W79970   8.321  14.667  12.511
11630W        W79971  12.794  44.964   2.319
11631W        W79972  33.613  24.153  12.924
11632W        W79973   3.811  25.068  14.813
11633W        W79974  23.722   6.278  10.606
11634W        W79975  27.034  22.656   0.275
11635W        W79976  32.931   5.212  14.898
11636W        W79977  36.570   3.440   2.216
11637W        W79978  43.950  15.599   0.862
11638W        W79979  38.386  34.060  10.641
11639W        W79980  33.561  33.517  11.376
11640W        W79981  10.368   0.302   3.845
11641W        W79982  37.345   2.823   1.240
11642W        W79983  14.600  33.931   5.187
11643W        W79984  40.333  26.128   0.905
11644W        W79985   2.914   4.818   0.331
11645W        W79986   7.719  19.266  10.438
11646W        W79987  35.995  20.645  10.965
11647W        W79988   3.338  43.001  10.000
11648W        W79989  19.770  20.053  13.855
11649W        W79990  42.962  17.573   0.895
11650W        W79991  24.022  32.459   4.294
11651W        W79992  30.157  35.551   0.780
11652W        W79993  32.939  37.554   3.350
11653W        W79994  42.856   7.733   4.144
11654W        W79995  36.937   7.243   2.276
11655W        W79996  16.134  36.075   2.677
11656W        W79997   9.360  29.593  10.437
11657W        W79998   9.295  44.811  10.559
11658W        W79999  10.147  41.994  12.446
11659W        W80000  25.532  36.580   3.726
11660W        W80001  15.247  15.751   4.617
11661W        W80002  42.781  42.451   0.874
11662W        W80003   6.403  22.675   0.943
11663W        W80004  44.458   1.282  14.356
11664W        W80005  43.507  23.609  11.488
11665W        W80006  13.335   6.744   1.358
11666W        W80007   8.173  24.585   1.322
11667W        W80008  12.348   6.404   3.761
11668W        W80009  40.340   0.969   2.213
11669W        W80010   1.381   7.366   4.704
11670W        W80011   2.247  13.623   4.643
11671W        W80012  43.000   4.337  10.516
11672W        W80013  12.195   5.251  10.638
11673W        W80014  23.555   3.342  14.298
11674W        W80015   7.665  18.080  10.117
11675W        W80016  23.129  26.631  14.776
11676W        W80017  25.078  11.743   5.149
11677W        W80018  15.129   6.353   2.743
11678W        W80019   0.476  10.289   3.164
11679W        W80020  31.095  20.603  11.576
11680W        W80021  27.613  28.640   3.317
11681W        W80022  41.861  15.590   0.955
11682W        W80023  11.837   8.827  11.552
11683W        W80024  27.982  13.148   3.366
11684W        W80025   0.811  24.606  12.890
11685W        W80026   5.881   3.315  11.533
11686W        W80027  10.785  27.468   4.647
11687W        W80028   6.284   8.870   3.680
11688W        W80029   7.702   8.758   1.709
11689W        W80030  32.533  44.360   3.168
11690W        W80031  22.073   1.383   1.230
11691W        W80032  40.496   9.777   0.840
11692W        W80033  22.503  27.954   3.799
11693W        W80034   1.379  42.527  14.981
11694W        W80035  37.503  39.869  11.407
11695W        W80036   3.318  38.335   4.767
11696W        W80037  39.320   9.278  12.896
11697W        W80038   2.891  25.160   0.947
11698W        W80039  18.177  17.252   1.432
11699W        W80040   9.757  30.161   2.818
11700W        W80041   4.215  34.579  12.339
11701W        W80042  42.400   1.285   1.289
11702W        W80043  14.240  38.388   2.411
11703W        W80044   3.956  12.142   0.413
11704W        W80045  25.682  37.996   4.273
11705W        W80046  25.127  38.952  13.427
11706W        W80047   3.421  31.110   0.752
11707W        W80048  39.402   1.403   2.864
11708W        W80049  37.452  37.903   3.819
11709W        W80050  15.242   4.733  14.800
11710W        W80051  21.170   3.357  13.821
11711W        W80052   3.449   1.825  12.058
11712W        W80053  39.044   5.286  14.778
11713W        W80054  33.621  10.267  13.956
11714W        W80055  37.990  20.623   1.759
11715W        W80056  39.845  44.941  10.590
11716W        W80057  27.546  13.768   2.901
11717W        W80058   4.703  42.930  12.980
11718W        W80059  12.305  17.561  13.404
11719W        W80060  14.819  35.965  12.882
11720W        W80061  35.015  14.127   4.195
11721W        W80062  11.707   7.906  11.979
11722W        W80063  32.055  14.230  14.977
11723W        W80064  33.030  22.689  14.353
11724W        W80065  22.117  36.942  10.625
11725W        W80066   5.196  32.571  10.411
11726W        W80067  41.946   7.765  13.957
11727W        W80068  28.953  11.327  13.899
11728W        W80069   7.355  14.682   0.415
11729W        W80070  37.486  42.313   2.788
11730W        W80071   2.407  44.866  11.028
11731W        W80072  12.213  38.448   1.842
11732W        W80073  18.244  17.634   4.647
11733W        W80074  31.474  24.716  14.353
11734W        W80075  16.160   0.931   1.419
11735W        W80076  13.693   8.229   1.874
11736W        W80077  20.081  42.858   3.643
11737W        W80078  35.959  38.968   2.736
11738W        W80079   3.385  11.709  13.041
11739W        W80080  43.334  34.097   3.360
11740W        W80081  44.427  43.327  13.364
11741W        W80082  18.545  17.235  13.454
11742W        W80083  20.691  16.121   2.411
11743W        W80084  16.762   1.825  14.942
11744W        W80085  10.784   8.176   4.660
11745W        W80086  24.078  22.007  12.350
11746W        W80087  40.807  31.559   2.313
11747W        W80088  20.740   0.852  13.874
11748W        W80089  31.117  41.863   1.767
11749W        W80090  26.125  35.085   1.323
11750W        W80091  17.681  44.402  12.458
11751W        W80092  25.024   5.853   3.274
11752W        W80093  29.976  15.581  13.482
11753W        W80094  44.441   0.896  12.474
11754W        W80095  34.477  35.534   3.722
11755W        W80096  24.169  26.540  12.022
11756W        W80097   5.808  35.431  11.479
11757W        W80098  24.174  15.159   3.366
11758W        W80099  27.100   9.732   0.261
11759W        W80100  41.388  43.284  12.481
11760W        W80101  34.935  41.996   3.327
11761W        W80102   7.910  41.455   0.762
11762W        W80103   0.761  30.030  12.998
11763W        W80104  27.642  12.641  11.033
11764W        W80105  40.797  26.547   4.783
11765W        W80106  40.824   0.318  13.982
11766W        W80107  20.594  34.911  13.882
11767W        W80108   7.319  27.089   0.730
11768W        W80109  36.542   2.959  13.547
11769W        W80110  42.837  22.508   4.148
11770W        W80111  36.841  28.128   4.323
11771W        W80112  29.158  34.997   3.206
11772W        W80113  20.257  23.017   1.373
11773W        W80114  27.638  10.758  12.546
11774W        W80115  41.329  40.816  11.088
11775W        W80116  11.686  26.188   4.624
11776W        W80117  10.331  42.894  14.835
11777W        W80118   0.484  17.237   1.796
11778W        W80119  23.204   2.443  12.432
11779W        W80120  33.615  16.611   0.963
11780W        W80121  30.101   9.882  10.633
11781W        W80122  28.979   4.408   4.599
11782W        W80123  44.384  18.287  14.787
11783W        W80124  37.384   1.803  11.007
11784W        W80125  29.077  35.076  10.463
11785W        W80126   6.227  43.293   2.875
11786W        W80127  25.521  43.885  12.876
11787W        W80128   8.169  32.603  13.854
11788W        W80129  37.896  35.375  13.803
11789W        W80130  23.132  18.233  13.804
11790W        W80131  42.004   6.401   0.775
11791W        W80132  13.253  15.159  13.456
11792W        W80133   2.445  22.710   2.203
11793W        W80134  36.885  28.586  11.915
11794W        W80135   3.896  21.514  12.559
11795W        W80136  23.491   4.287  12.402
11796W        W80137  18.691  26.593   5.271
11797W        W80138  34.108   5.204   4.812
11798W        W80139  21.639  42.970  13.394
11799W        W80140  39.857  19.136  12.396
11800W        W80141  31.632   8.192  11.023
11801W        W80142  31.583   3.348   5.152
11802W        W80143   6.294   0.368   0.388
11803W        W80144   2.740  34.489  13.363
11804W        W80145   0.439  32.128  14.803
11805W        W80146  42.525   9.253   2.305
11806W        W80147   1.903   6.386  13.369
11807W        W80148   1.464  37.843  13.463
11808W        W80149  20.634  32.402  12.058
11809W        W80150  39.903  35.935   1.386
11810W        W80151  12.654  31.065   3.639
11811W        W80152  40.379   8.171   3.153
11812W        W80153  17.785  44.494  13.879
11813W        W80154   1.969   0.847   0.375
11814W        W80155  19.652  11.830   5.294
11815W        W80156  27.668  21.635   3.165
11816W        W80157  15.731  30.920  12.563
11817W        W80158  34.082   6.700   1.343
11818W        W80159  12.135   6.355   2.726
11819W        W80160  19.542  17.665   1.395
11820W        W80161  24.568  44.878   0.246
11821W        W80162  13.108   8.852   3.663
11822W        W80163   7.390  40.884   4.336
11823W        W80164   9.297  12.690  10.465
11824W        W80165  15.592  27.455  13.979
11825W        W80166  16.782  32.483   4.636
11826W        W80167  31.403   7.386   4.293
11827W        W80168  39.448  30.444   3.355
11828W        W80169  34.887   2.769   0.301
11829W        W80170  14.712  27.989  14.306
11830W        W80171  22.543  13.797  12.989
11831W        W80172   1.276  37.428  12.551
11832W        W80173  43.498  14.312  14.894
11833W        W80174  21.067  42.825  12.364
11834W        W80175  36.482  26.987  11.580
11835W        W80176  15.601  44.395   9.962
11836W        W80177  42.518  19.175   0.459
11837W        W80178  28.010  25.705  11.546
11838W        W80179  43.477  11.256   1.738
11839W        W80180  35.561  15.171   4.773
11840W        W80181  17.732  40.354   0.346
11841W        W80182  29.450  20.151  14.889
11842W        W80183  21.663  29.481   0.753
11843W        W80184  39.388  25.468   2.276
11844W        W80185   2.375   6.210   4.286
11845W        W80186  44.997  13.179   3.281
11846W        W80187  23.068  16.674   4.786
11847W        W80188  30.489  42.871  13.955
11848W        W80189   2.801   9.345   0.789
11849W        W80190  26.991   8.338  14.840
11850W        W80191  42.387  40.910  11.011
11851W        W80192  36.978  30.102  12.574
11852W        W80193  23.505  10.856  13.458
11853W        W80194  43.770   0.875  13.470
11854W        W80195  36.079  22.517   2.262
11855W        W80196  41.328  24.687   3.168
11856W        W80197  11.245  21.248   3.381
11857W        W80198  24.210  27.195  13.969
11858W        W80199  42.005   5.833   2.895
11859W        W80200  15.713  20.729  10.936
11860W        W80201  40.998  40.328   0.410
11861W        W80202  42.511  14.296   3.815
11862W        W80203  19.231   3.765  12.087
11863W        W80204  26.576  22.107   3.684
11864W        W80205   6.848  44.858  13.046
11865W        W80206  22.067  24.513  11.111
11866W        W80207  14.113   2.747   4.652
11867W        W80208  25.510  41.470  12.857
11868W        W80209  12.312  40.373   2.270
11869W        W80210   6.305  43.332   0.771
11870W        W80211   9.656  20.640  13.371
11871W        W80212   3.913  24.137   4.813
11872W        W80213  28.664  26.566   4.256
11873W        W80214  17.296   1.735   2.277
11874W        W80215  34.454  34.006   3.797
11875W        W80216  27.508   0.442   1.819
11876W        W80217  31.958  42.815  14.798
11877W        W80218  15.619  37.514   3.656
11878W        W80219   3.289   0.293  11.933
11879W        W80220  40.858  44.397  13.455
11880W        W80221  38.385  23.542  10.928
11881W        W80222  42.324  35.973  11.109
11882W        W80223  31.430   1.369  12.382
11883W        W80224  19.200  32.607  10.943
11884W        W80225  30.431   8.891   0.339
11885W        W80226  14.730  10.856   4.219
11886W        W80227  37.508   8.238   3.229
11887W        W80228  21.698  16.582  13.318
11888W        W80229  12.245  27.038  11.972
11889W        W80230  23.663  12.709  13.343
11890W        W80231  34.872  15.597   3.849
11891W        W80232   7.672   7.836  11.392
11892W        W80233   9.815  29.428  12.393
11893W        W80234  23.214  28.083   3.836
11894W        W80235   8.676   4.874  11.950
11895W        W80236   6.302  23.523  12.373
11896W        W80237  19.712  38.055   5.284
11897W        W80238   7.776  15.145   4.775
11898W        W80239  11.686  32.415  14.459
11899W        W80240   1.305  34.426  10.447
11900W        W80241  24.975  10.709   2.264
11901W        W80242  33.000  12.146   3.264
11902W        W80243   5.233  17.143   2.833
11903W        W80244   0.313  35.980  12.981
11904W        W80245  28.991   8.678   0.874
11905W        W80246   5.341   6.217   4.663
11906W        W80247  40.506  17.144   5.096
11907W        W80248  39.915  17.130  13.523
11908W        W80249  17.748  41.980   3.355
11909W        W80250  14.264  38.449  13.479
11910W        W80251   2.804  22.227  14.364
11911W        W80252  21.751  31.511  12.009
11912W        W80253  38.538  40.000   3.751
11913W        W80254   8.666  39.318   2.339
11914W        W80255  21.173  22.722   4.621
11915W        W80256   1.770   0.388  11.894
11916W        W80257  38.859   9.656  10.434
11917W        W80258  37.033  18.187   0.251
11918W        W80259   6.361  18.723  13.904
11919W        W80260   9.234  24.492  14.894
11920W        W80261  44.451  10.679   2.379
11921W        W80262  23.005  41.412  14.013
11922W        W80263  20.529  28.513   3.776
11923W        W80264  30.149  43.940  13.475
11924W        W80265  31.065  17.093  14.769
11925W        W80266  26.657  34.456   3.372
11926W        W80267  25.503  33.071  12.963
11927W        W80268   8.406  33.992   3.305
11928W        W80269  44.935  39.361  11.114
11929W        W80270  11.270  14.236  12.398
11930W        W80271  19.565  39.982   0.378
11931W        W80272  30.586  41.330  14.900
11932W        W80273  41.028  32.393   0.768
11933W        W80274  12.148  38.055  13.495
11934W        W80275  30.532  18.176   4.289
11935W        W80276  22.520  10.216  14.507
11936W        W80277  17.685  33.609   1.701
11937W        W80278  12.704  17.197  12.487
11938W        W80279  13.219  42.438   2.821
11939W        W80280   0.271  21.622   2.663
11940W        W80281  28.575  23.602  12.343
11941W        W80282  13.633  24.550   2.757
11942W        W80283  12.162  17.692   1.390
11943W        W80284  17.136   1.929   3.739
11944W        W80285   4.332  43.469   2.814
11945W        W80286  36.459  40.965   1.907
11946W        W80287   4.889  12.342  12.530
11947W        W80288  32.498  14.207   2.815
11948W        W80289  41.909   7.725   3.670
11949W        W80290  27.492  30.993   3.807
11950W        W80291  43.373  39.823  10.526
11951W        W80292   2.776  24.679   3.297
11952W        W80293  32.952  30.414   4.196
11953W        W80294   7.859  35.505   3.159
11954W        W80295  44.366  25.167  14.823
11955W        W80296  42.849   1.930   4.690
11956W        W80297  17.233   9.812   1.752
11957W        W80298  13.670  36.086  13.902
11958W        W80299  16.082  39.455   3.759
11959W        W80300  14.679   9.836   3.313
11960W        W80301   5.232  35.410   2.248
11961W        W80302  43.415  42.506   4.712
11962W        W80303  41.470   3.263  11.976
11963W        W80304  43.780   9.387  12.487
11964W        W80305  38.478  26.016   2.228
11965W        W80306  22.184  41.313  11.595
11966W        W80307  41.023  37.974   4.241
11967W        W80308  40.402  40.323   1.861
11968W        W80309  33.572  23.184   3.832
11969W        W80310   3.932  23.996   2.341
11970W        W80311   4.222  25.061   3.218
11971W        W80312  20.549  11.293  12.571
11972W        W80313  36.872   2.438   3.838
11973W        W80314  26.570  21.720   1.354
11974W        W80315  36.347  15.721   0.337
11975W        W80316   0.331  18.100  13.034
11976W        W80317   4.756  17.582  11.039
11977W        W80318  21.589  35.560  13.046
11978W        W80319  27.582  22.632   0.257
11979W        W80320  29.921   8.769   0.438
11980W        W80321   3.858  33.415   4.137
11981W        W80322   7.377   3.356  11.007
11982W        W80323  32.457  35.597   3.357
11983W        W80324  27.599  43.846   3.865
11984W        W80325  28.122  11.865   4.323
11985W        W80326  28.160   2.850   1.253
11986W        W80327  27.450  18.753  13.362
11987W        W80328  11.145   6.735  14.971
11988W        W80329  23.725  36.553   3.385
11989W        W80330  20.169   3.765  13.328
11990W        W80331   4.860  29.928   1.385
11991W        W80332  44.903  31.419  12.024
11992W        W80333  20.702  12.320  12.347
11993W        W80334  18.088   0.780  11.397
11994W        W80335  23.130  39.442   3.226
11995W        W80336  30.458   5.818   9.999
11996W        W80337  18.587  15.160  14.852
11997W        W80338  26.533   4.423  10.892
11998W        W80339  36.557  10.315   1.844
11999W        W80340  15.727   5.409   3.146
12000W        W80341  23.546   5.819   2.784
12001W        W80342  29.461  38.381  10.480
12002W        W80343  24.100  44.969  10.542
12003W        W80344   0.777  36.525   3.783
12004W        W80345  21.115  35.570   4.203
12005W        W80346  16.174  11.267   0.282
12006W        W80347  24.618  11.856   2.327
12007W        W80348  36.907   2.424   3.367
12008W        W80349  38.995  29.921  10.919
12009W        W80350  37.904  15.210   4.724
12010W        W80351  34.484  26.571  12.896
12011W        W80352  26.150  28.084   4.228
12012W        W80353  26.110  38.021   4.753
12013W        W80354   0.248  15.823  11.953
12014W        W80355  28.185  39.326  12.001
12015W        W80356  14.124  20.700   4.681
12016W        W80357   1.382   8.269  14.765
12017W        W80358  27.078  34.897  12.959
12018W        W80359  27.956  20.095  13.012
12019W        W80360  38.408  12.808   2.208
12020W        W80361   9.370  31.137  14.447
12021W        W80362   7.681  18.566   0.793
12022W        W80363   0.358  34.413  10.617
12023W        W80364   6.202  11.258  13.434
12024W        W80365  20.250  18.775   1.732
12025W        W80366   9.328  32.578   4.200
12026W        W80367   1.286  17.067   1.229
12027W        W80368  37.377  27.572   3.243
12028W        W80369  40.006  31.988   9.931
12029W        W80370  17.626   3.246   1.391
12030W        W80371  35.001   5.919  11.920
12031W        W80372  14.179  35.365  12.896
12032W        W80373  43.384  19.699  11.405
12033W        W80374  19.066  18.575   3.739
12034W        W80375   7.680  42.803  11.025
12035W        W80376  41.411  42.299  14.983
12036W        W80377  38.456  23.047   1.361
12037W        W80378  39.553   8.734  11.019
12038W        W80379   4.862   2.264  10.503
12039W        W80380  44.983  19.044   4.666
12040W        W80381  29.445  19.252  14.991
12041W        W80382   8.870   6.309   1.360
12042W        W80383   4.895  21.089   1.256
12043W        W80384  18.191  40.325   1.393
12044W        W80385  33.597  12.349  10.923
12045W        W80386   0.491  16.202  14.017
12046W        W80387  19.587  35.481   0.253
12047W        W80388   1.817  41.950  13.393
12048W        W80389  13.807   2.393  13.328
12049W        W80390  12.746  42.509  10.889
12050W        W80391  14.675  22.650   4.775
12051W        W80392   4.316  17.592  11.931
12052W        W80393   7.225  13.144  12.370
12053W        W80394   4.375   7.355  14.481
12054W        W80395  34.425  29.592   0.856
12055W        W80396  35.553  34.504   4.168
12056W        W80397  42.438  27.163   2.779
12057W        W80398  22.683  37.497   0.250
12058W        W80399  16.160  38.892  12.091
12059W        W80400  39.825  23.544  14.015
12060W        W80401   6.347  23.622  14.988
12061W        W80402  40.994  36.928  10.580
12062W        W80403  26.108  43.492  13.473
12063W        W80404   4.270  22.233  13.320
12064W        W80405  24.000  20.542   0.756
12065W        W80406  28.143  26.594  12.973
12066W        W80407  11.265  21.052   1.294
12067W        W80408  42.458   9.728  12.510
12068W        W80409   7.213  19.177   2.707
12069W        W80410  16.302  19.064  11.124
12070W        W80411  32.565   6.197  10.901
12071W        W80412  16.639  12.835   1.309
12072W        W80413   5.797  27.687  14.410
12073W        W80414   8.703  24.478   1.383
12074W        W80415  30.527  27.945  10.578
12075W        W80416   2.858  17.634  12.450
12076W        W80417  18.599  39.030   4.607
12077W        W80418  11.622  24.668   0.891
12078W        W80419   4.771  19.618   3.334
12079W        W80420  10.690   1.909   0.811
12080W        W80421  23.159  32.940  14.826
12081W        W80422   2.875  18.703  13.967
12082W        W80423  10.243  13.194   2.704
12083W        W80424  42.481   2.465   4.279
12084W        W80425  25.682  24.081   3.312
12085W        W80426  22.072  24.986  14.304
12086W        W80427  29.524  15.100  10.494
12087W        W80428  26.563  25.135   2.882
12088W        W80429  10.253  41.424  10.599
12089W        W80430  36.084   2.306   0.790
12090W        W80431  38.532  29.105  14.874
12091W        W80432  10.658  20.645  10.612
12092W        W80433  38.871  41.375   4.267
12093W        W80434  14.685   8.190   2.190
12094W        W80435   3.809  41.455   1.318
12095W        W80436   4.367   9.151   3.264
12096W        W80437  30.425   7.388   2.873
12097W        W80438  44.440   9.825  12.077
12098W        W80439   1.952  11.304  13.985
12099W        W80440  16.705  41.340   0.252
12100W        W80441  18.692  41.805   2.241
12101W        W80442  43.504  19.593   5.303
12102W        W80443  31.896  32.616   1.701
12103W        W80444  40.949  13.280  12.862
12104W        W80445  29.048   9.388   0.868
12105W        W80446  18.199  20.564   1.835
12106W        W80447  31.102  26.696   4.115
12107W        W80448   6.810   9.239  14.822
12108W        W80449   6.913   4.271   4.191
12109W        W80450  39.040  38.860  11.586
12110W        W80451  37.428  10.823  14.422
12111W        W80452  29.985  44.861   1.393
12112W        W80453  25.126   7.271   4.712
12113W        W80454  34.944  28.653  12.571
12114W        W80455  30.646  38.976  10.551
12115W        W80456   9.226   2.374   1.427
12116W        W80457   0.398   2.252   1.367
12117W        W80458  25.644   2.299   3.258
12118W        W80459  32.059   8.391   0.943
12119W        W80460  33.384  35.583  14.826
12120W        W80461  21.518  35.386  13.350
12121W        W80462  19.119   5.260  14.919
12122W        W80463   4.845  27.108   0.249
12123W        W80464  24.175   9.732   1.256
12124W        W80465  31.483  21.050  12.829
12125W        W80466  32.471  33.415   4.721
12126W        W80467  27.135  41.400  12.830
12127W        W80468  32.006  10.786  11.992
12128W        W80469  11.656  10.699   4.351
12129W        W80470  34.874  25.017   0.768
12130W        W80471  26.132  21.607   3.376
12131W        W80472  16.712   6.773  11.596
12132W        W80473  44.262  18.691  13.449
12133W        W80474  10.302  37.482  10.509
12134W        W80475  11.648  16.744  14.019
12135W        W80476  33.392  17.606   4.136
12136W        W80477  18.732  28.555   0.960
12137W        W80478  27.664   3.895   4.801
12138W        W80479   1.315  23.998   4.305
12139W        W80480  13.840   9.175   2.790
12140W        W80481  42.499  15.169  14.031
12141W        W80482  38.441  25.585  12.412
12142W        W80483  41.467  19.191  14.887
12143W        W80484  21.098  11.202  13.310
12144W        W80485   3.782  23.216   3.383
12145W        W80486   7.282  18.089   2.679
12146W        W80487  23.493  34.551   2.861
12147W        W80488  40.439  39.844   2.320
12148W        W80489  25.504   5.353  12.829
12149W        W80490  31.512  21.551   3.292
12150W        W80491  44.362  29.973  14.412
12151W        W80492   1.428  17.561   9.992
12152W        W80493  26.045  31.936  10.450
12153W        W80494  12.849  27.070  10.479
12154W        W80495  20.721  19.189   0.887
12155W        W80496  13.345  36.950   1.433
12156W        W80497  37.021  27.029  11.011
12157W        W80498  27.495  31.541  12.873
12158W        W80499  39.032  21.114  11.468
12159W        W80500  19.198  38.330  11.371
12160W        W80501  29.605  36.900   0.803
12161W        W80502  39.907   3.862   4.265
12162W        W80503  38.441   1.868   4.346
12163W        W80504  15.809  12.198  12.495
12164W        W80505  30.985  31.910   0.475
12165W        W80506  31.975   6.211   1.386
12166W        W80507  19.147   9.150  14.844
12167W        W80508  31.951  17.693  12.926
12168W        W80509  22.578  33.929  13.822
12169W        W80510  39.438  10.643   0.417
12170W        W80511  23.111  22.567  12.024
12171W        W80512  38.498  18.788   0.784
12172W        W80513  40.857   3.331   0.932
12173W        W80514  40.381  10.308  10.494
12174W        W80515  10.338  19.250   0.923
12175W        W80516  23.500  37.080   4.335
12176W        W80517  38.061  24.132  14.887
12177W        W80518  17.639   6.313   3.237
12178W        W80519   9.333  18.213   5.270
12179W        W80520  18.105   0.894   0.391
12180W        W80521   5.691   4.381   0.763
12181W        W80522  14.655  35.924  10.422
12182W        W80523  24.508  16.702   3.385
12183W        W80524   3.869  17.594  14.450
12184W        W80525  17.745  35.895   2.860
12185W        W80526   9.831   2.739   4.780
12186W        W80527   8.314  28.464  14.402
12187W        W80528  31.455   1.814  13.335
12188W        W80529  17.678  12.240   2.262
12189W        W80530   8.847  41.451  13.446
12190W        W80531  42.290  39.367  12.364
12191W        W80532  44.350  12.683  12.834
12192W        W80533   3.344   9.741  13.360
12193W        W80534  27.943   6.240   4.662
12194W        W80535  22.571  20.122   2.854
12195W        W80536  44.805  33.380   1.277
12196W        W80537  32.632  26.127   1.260
12197W        W80538   3.235  29.449  11.894
12198W        W80539   3.226  44.757   4.126
12199W        W80540   7.204  16.176  13.865
12200W        W80541  13.609   7.885  11.457
12201W        W80542   5.870  26.058  12.402
12202W        W80543  43.435  17.567  14.797
12203W        W80544  40.927  30.568  13.963
12204W        W80545   0.855   5.436  11.855
12205W        W80546  17.558   6.335   4.812
12206W        W80547  30.120  26.141   0.262
12207W        W80548   1.856  12.630  14.770
12208W        W80549  11.666  18.634  13.458
12209W        W80550   3.262  36.482  10.639
12210W        W80551  32.950  26.688  14.277
12211W        W80552  36.378   3.839   1.374
12212W        W80553  27.599  20.213  11.961
12213W        W80554  32.052   5.718  12.475
12214W        W80555  10.652  29.660   1.765
12215W        W80556   9.298  34.999  13.401
12216W        W80557   5.340  17.172  14.879
12217W        W80558   3.402   9.777  14.788
12218W        W80559  30.440  24.485   0.834
12219W        W80560  10.723  13.626   2.833
12220W        W80561  20.639  38.900  14.375
12221W        W80562   1.743  19.704  12.453
12222W        W80563  28.545  35.014  11.963
12223W        W80564  42.367   5.423   1.384
12224W        W80565   3.813  30.460   2.737
12225W        W80566   9.824  44.978  11.605
12226W        W80567  18.760  39.863  14.305
12227W        W80568  28.031  17.801   1.786
12228W        W80569  40.907   3.450  14.304
12229W        W80570  34.377  39.554  13.391
12230W        W80571  11.837   0.274   0.256
12231W        W80572   3.309  15.272  14.998
12232W        W80573  18.293  42.425   4.232
12233W        W80574   1.941  41.812   2.674
12234W        W80575  21.027  21.090  13.423
12235W        W80576  40.925  41.412  14.995
12236W        W80577  20.075   2.893  12.555
12237W        W80578  32.487  39.931   3.814
12238W        W80579  33.051  14.639   4.146
12239W        W80580   1.743  25.483  11.099
12240W        W80581  38.980  22.056   2.244
12241W        W80582  43.983   7.733  14.490
12242W        W80583  27.025  25.147  11.923
12243W        W80584  36.919  33.886  13.048
12244W        W80585  39.522   6.420   1.397
12245W        W80586  10.768  15.648  14.925
12246W        W80587   5.214  36.512  12.957
12247W        W80588  25.602  37.039  12.836
12248W        W80589  38.459  14.728  14.960
12249W        W80590  18.073  43.764  13.473
12250W        W80591   6.409  27.020  11.567
12251W        W80592  41.298  29.045   1.303
12252W        W80593  20.673  15.643  12.064
12253W        W80594  39.327   6.751  13.323
12254W        W80595   9.709  13.702  13.542
12255W        W80596  31.943  26.470   0.307
12256W        W80597  29.084  18.117  14.800
12257W        W80598  24.719  24.186  11.517
12258W        W80599  10.287  16.634  11.106
12259W        W80600  30.030  22.580  13.885
12260W        W80601   5.296  11.629  11.966
12261W        W80602  17.632   8.212  14.896
12262W        W80603  15.715  40.000   1.769
12263W        W80604  39.356  14.752   2.671
12264W        W80605   6.690  17.593   3.798
12265W        W80606  26.631   8.255  13.507
12266W        W80607  44.905  38.952  13.371
12267W        W80608   5.430  44.396  12.856
12268W        W80609  41.916  32.498   4.212
12269W        W80610   4.769  18.637  10.580
12270W        W80611  35.936  33.581   3.630
12271W        W80612  38.027  44.459   2.328
12272W        W80613   9.729  21.721  11.459
12273W        W80614  41.017  42.401  14.407
12274W        W80615  35.369  39.324  14.342
12275W        W80616  15.662  44.008   0.915
12276W        W80617  35.066  25.694  10.609
12277W        W80618  10.679   9.784  13.857
12278W        W80619  42.294  11.776   4.832
12279W        W80620  30.951  13.825  13.507
12280W        W80621   6.285  22.035   4.603
12281W        W80622   1.865  25.014  11.612
12282W        W80623  39.908  27.549   4.714
12283W        W80624  38.997  44.424  12.085
12284W        W80625  27.177  24.522   4.210
12285W        W80626  10.764   5.896   2.194
12286W        W80627  41.902  37.907   2.310
12287W        W80628  38.443  30.417   1.357
12288W        W80629  38.521  29.661  12.062
12289W        W80630  16.588  23.050   2.714
12290W        W80631  27.467  35.872   0.363
12291W        W80632  37.872  43.421  13.407
12292W        W80633  43.990  33.503   1.908
12293W        W80634  35.875   5.418  13.346
12294W        W80635  41.850   6.713  14.801
12295W        W80636  25.106  43.420  13.003
12296W        W80637  15.701  42.281  11.591
12297W        W80638  21.063  42.452  10.513
12298W        W80639   3.225  44.297  11.096
12299W        W80640   1.298  21.706   2.263
12300W        W80641   1.273  12.139   4.279
12301W        W80642  37.064   2.309  11.594
12302W        W80643  13.275  20.684  13.877
12303W        W80644  20.607  42.406  13.854
12304W        W80645  23.229  19.063   5.307
12305W        W80646  12.805  36.972  11.103
12306W        W80647   4.703   9.711  13.433
12307W        W80648  24.537  16.576   5.802
12308W        W80649  11.759  17.662  14.011
12309W        W80650  37.478  23.116  10.977
12310W        W80651  10.325  16.721   2.901
12311W        W80652   4.287  13.343  12.037
12312W        W80653  23.210  13.122   3.202
12313W        W80654  25.089  18.686   4.724
12314W        W80655  39.357  23.989  12.034
12315W        W80656  31.980  32.078   1.450
12316W        W80657  10.740  38.383   4.819
12317W        W80658   7.328   8.767   4.720
12318W        W80659  15.657   1.481   1.924
12319W        W80660  29.513  36.440   2.277
12320W        W80661  43.428  12.240   1.384
12321W        W80662  14.194  33.615  13.797
12322W        W80663  10.776   3.861  11.505
12323W        W80664  35.363  34.964  12.977
12324W        W80665  21.158  29.010  12.409
12325W        W80666  28.561  41.035  12.390
12326W        W80667  29.487  22.179   2.386
12327W        W80668   1.351  41.906   1.358
12328W        W80669   2.909  40.846   3.629
12329W        W80670  21.570   2.866   1.220
12330W        W80671   9.760  30.457   3.382
12331W        W80672  12.283  17.084  10.560
12332W        W80673  37.849  13.698  11.021
12333W        W80674   3.752  19.221  14.363
12334W        W80675   1.808  27.667   0.350
12335W        W80676  44.828  10.878  13.890
12336W        W80677   4.869  41.497  14.830
12337W        W80678  25.129  28.031  11.405
12338W        W80679  44.344   3.350   1.871
12339W        W80680  37.469   4.711  13.412
12340W        W80681  16.235  38.559  13.855
12341W        W80682   4.329  12.734  10.553
12342W        W80683  19.135  34.536   2.198
12343W        W80684  23.556  42.804   0.377
12344W        W80685  11.339  11.691   1.882
12345W        W80686   9.668   0.985   2.822
12346W        W80687  15.678  33.506   0.425
12347W        W80688   1.953  33.123   3.698
12348W        W80689  27.996   9.881   1.266
12349W        W80690  30.957  43.406  10.901
12350W        W80691  12.768  43.906   3.287
12351W        W80692  10.193  43.837  12.362
12352W        W80693   7.232   0.878  12.360
12353W        W80694   1.753  16.190  14.847
12354W        W80695   1.876  30.453  13.457
12355W        W80696  31.445  25.549   0.950
12356W        W80697  35.430  13.325   2.791
12357W        W80698  34.409   3.798   3.360
12358W        W80699  12.264   4.874   3.385
12359W        W80700  44.362  22.632   4.307
12360W        W80701  24.579   8.286  12.348
12361W        W80702  32.516  12.771   3.796
12362W        W80703  25.120   2.823  14.962
12363W        W80704  29.046  24.572   3.651
12364W        W80705  26.639  26.487   5.155
12365W        W80706   8.809   2.378   1.834
12366W        W80707  24.042  25.022  11.028
12367W        W80708  37.429  41.383   3.838
12368W        W80709   5.821  24.503  10.985
12369W        W80710   0.320  11.280  11.464
12370W        W80711  21.734  34.049  11.026
12371W        W80712  39.938  30.156  13.899
12372W        W80713   7.869  10.849   4.771
12373W        W80714  32.475  32.571   3.302
12374W        W80715   0.971  42.777   3.720
12375W        W80716  13.215  29.481   4.337
12376W        W80717  26.158   1.317  12.580
12377W        W80718  43.279  11.307  12.064
12378W        W80719  32.011  36.861   3.855
12379W        W80720   4.704  17.720  12.082
12380W        W80721  12.801  18.125  13.985
12381W        W80722  19.582  42.007  11.550
12382W        W80723  36.467   1.338   0.889
12383W        W80724  16.766  19.071   2.274
12384W        W80725  13.779   7.171   4.220
12385W        W80726  30.997  37.403   1.382
12386W        W80727  20.637  29.615  12.878
12387W        W80728  11.860  30.523  11.452
12388W        W80729  38.999  25.004  11.972
12389W        W80730  29.062  34.537   4.244
12390W        W80731   0.492   8.280  11.050
12391W        W80732  19.631  15.150  14.489
12392W        W80733  14.242  13.217   0.806
12393W        W80734  12.834  44.499  10.503
12394W        W80735   9.208  39.972  14.862
12395W        W80736   9.873  19.669   4.693
12396W        W80737   1.765  33.479  10.445
12397W        W80738   2.253  19.276  12.011
12398W        W80739  35.030  30.510   2.804
12399W        W80740  44.332  15.196  13.525
12400W        W80741  31.594  25.009   4.190
12401W        W80742   1.471   4.889   0.456
12402W        W80743  15.822  14.667  11.867
12403W        W80744  23.513  36.975  10.526
12404W        W80745  32.099  15.220   2.736
12405W        W80746   7.295  41.382  14.426
12406W        W80747  39.510  14.710  13.478
12407W        W80748  32.618   4.746  11.388
12408W        W80749  24.709  37.485   4.679
12409W        W80750  39.524   9.840   3.207
12410W        W80751  11.283  10.238  11.434
12411W        W80752   4.793   3.340  12.996
12412W        W80753   8.899   6.260  14.349
12413W        W80754  10.872  14.284   0.952
12414W        W80755   6.395   3.912   2.821
12415W        W80756  19.201  28.955  13.424
12416W        W80757  38.932   9.314  13.809
12417W        W80758  20.530  30.082   4.827
12418W        W80759  38.006  39.358   3.694
12419W        W80760  30.931   9.380  13.989
12420W        W80761  27.631  39.441  11.868
12421W        W80762   6.254  10.821  13.962
12422W        W80763  28.041  12.763   4.224
12423W        W80764  42.917   8.668   4.706
12424W        W80765   8.265   9.757   4.645
12425W        W80766  34.601  14.698  13.027
12426W        W80767   2.730  29.064  13.028
12427W        W80768  10.144  22.665  11.472
12428W        W80769  22.569  14.689  14.794
12429W        W80770  34.469  17.177   4.794
12430W        W80771   1.378   0.424  14.009
12431W        W80772  42.827  44.850  12.405
12432W        W80773  44.329  29.998   1.712
12433W        W80774  18.241   4.336   2.758
12434W        W80775  27.478  43.426  13.057
12435W        W80776   2.385  10.746   1.866
12436W        W80777  26.159  14.104   3.709
12437W        W80778  19.279  10.692   2.799
12438W        W80779  17.100  28.519  13.511
12439W        W80780  28.597  19.276  11.531
12440W        W80781   6.803  34.974  11.981
12441W        W80782  15.168  17.736  10.524
12442W        W80783  15.585  30.652   4.260
12443W        W80784  36.841  39.345  13.058
12444W        W80785  25.633   8.274   4.168
12445W        W80786  36.887  26.028  11.057
12446W        W80787   2.439  31.444   3.303
12447W        W80788  44.459  21.617   3.681
12448W        W80789  26.194   5.361   3.218
12449W        W80790   9.872  25.136  11.576
12450W        W80791  18.131  10.844  13.484
12451W        W80792  33.434  20.150   0.273
12452W        W80793  17.248  13.732  13.840
12453W        W80794  42.447  26.165   3.867
12454W        W80795  10.180  39.319   3.741
12455W        W80796  39.535  14.728   0.965
12456W        W80797  37.906  23.692   2.761
12457W        W80798  34.369  44.875   0.851
12458W        W80799   8.778  32.899   1.914
12459W        W80800  15.131  11.628  13.515
12460W        W80801  15.612   2.458   4.245
12461W        W80802   3.838  27.100  12.022
12462W        W80803  20.193  11.758  11.937
12463W        W80804  33.485  14.790   2.220
12464W        W80805   3.268  11.305   3.857
12465W        W80806  20.182  17.074   4.179
12466W        W80807   5.349   2.856  12.905
12467W        W80808  39.452  21.025  14.484
12468W        W80809   0.431  42.890  10.603
12469W        W80810   2.727   5.398   3.759
12470W        W80811  31.896   1.457   0.458
12471W        W80812  22.057  41.526  12.966
12472W        W80813   2.938   4.942   3.233
12473W        W80814   7.414  43.858  10.930
12474W        W80815   2.812  41.004   1.426
12475W        W80816  37.975  41.329   3.184
12476W        W80817   8.848  14.261   0.436
12477W        W80818  16.200   4.857   0.447
12478W        W80819   1.450  39.344  14.787
12479W        W80820  11.300   2.366  14.791
12480W        W80821   7.683  40.868  14.460
12481W        W80822  35.405  20.204  14.430
12482W        W80823   8.876  23.587  13.505
12483W        W80824   6.381  18.665   1.290
12484W        W80825  14.301  43.017  12.001
12485W        W80826  10.769  13.648  10.642
12486W        W80827   2.323  28.076  13.480
12487W        W80828  26.089  11.807   0.309
12488W        W80829  45.000  44.755  14.449
12489W        W80830  36.556  30.032  12.427
12490W        W80831  41.931  33.404   2.797
12491W        W80832  44.406  19.246   4.294
12492W        W80833  41.884  17.237   2.718
12493W        W80834  38.948  25.097   5.155
12494W        W80835   6.361  13.187   1.887
12495W        W80836  15.686  27.667   3.245
12496W        W80837  14.166  33.932  13.477
12497W        W80838   6.814  42.011   1.767
12498W        W80839   5.856  16.119   0.388
12499W        W80840  43.004  13.180   4.271
12500W        W80841  11.347   1.857  14.332
12501W        W80842  19.577  18.561  12.447
12502W        W80843  42.414  43.452  12.476
12503W        W80844  17.798  43.436   2.372
12504W        W80845  24.695  13.264  14.315
12505W        W80846  31.116  21.654   2.795
12506W        W80847  31.625  27.129  12.482
12507W        W80848  31.408  16.144  11.552
12508W        W80849   7.233   4.442   2.254
12509W        W80850  15.175  31.435  14.030
12510W        W80851  24.228  38.023   4.658
12511W        W80852  10.818  16.636  13.455
12512W        W80853  20.691  43.419  12.913
12513W        W80854   5.391  35.905   2.746
12514W        W80855  30.076  31.999  13.929
12515W        W80856  16.301  20.765   9.633
12516W        W80857  27.616  11.711  11.963
12517W        W80858  16.627  20.717  14.366
12518W        W80859  26.074  38.546  13.316
12519W        W80860  19.548  29.137  11.868
12520W        W80861  19.739  32.501   3.643
12521W        W80862  34.963  32.007  13.419
12522W        W80863   7.724  31.119  11.473
12523W        W80864   3.918   1.903   2.799
12524W        W80865  17.170  33.527  13.468
12525W        W80866  31.563  34.392   3.697
12526W        W80867  42.856  41.317  13.464
12527W        W80868   6.212  12.287  12.837
12528W        W80869  37.916  44.464   0.424
12529W        W80870  21.553  34.565   3.730
12530W        W80871  35.580   2.231  10.471
12531W        W80872  31.141   2.847   2.206
12532W        W80873  30.440  31.992   0.837
12533W        W80874  31.133  40.483   3.762
12534W        W80875  11.690  37.908   1.212
12535W        W80876  31.081  23.596   4.716
12536W        W80877  32.624   7.326   1.370
12537W        W80878   9.202   6.684   3.306
12538W        W80879  42.790  25.609   1.234
12539W        W80880   6.279  22.583  11.925
12540W        W80881  39.543  14.164  10.536
12541W        W80882  27.044  37.431  14.463
12542W        W80883  19.073  11.785   2.696
12543W        W80884  27.546  43.799   2.849
12544W        W80885  17.074  37.377   1.248
12545W        W80886   6.330  31.959  11.399
12546W        W80887  42.318  18.776  10.582
12547W        W80888  32.980  22.745  12.909
12548W        W80889  16.754  31.039  14.813
12549W        W80890   2.421   9.872  11.883
12550W        W80891  34.382  39.832   4.318
12551W        W80892  11.638  21.050  11.470
12552W        W80893  25.615   8.693   0.926
12553W        W80894  29.129  39.352  14.969
12554W        W80895  37.455  25.501   1.370
12555W        W80896  30.531  10.779  14.829
12556W        W80897  28.645  36.446   0.921
12557W        W80898   5.417  12.348  11.390
12558W        W80899   1.754  24.626  12.517
12559W        W80900   0.841  31.953   1.249
12560W        W80901   9.195  34.461   1.911
12561W        W80902   8.773  13.181  11.409
12562W        W80903  40.542  26.501  12.474
12563W        W80904  26.078  14.178  13.007
12564W        W80905   3.775  12.158  12.827
12565W        W80906  14.716  39.811  13.990
12566W        W80907  27.598  27.558   5.688
12567W        W80908   1.840  14.776   2.289
12568W        W80909   1.377  12.281  12.877
12569W        W80910  31.114  43.475  13.859
12570W        W80911  38.844   8.865  11.861
12571W        W80912  21.633   3.709   4.149
12572W        W80913  34.075  11.748   4.208
12573W        W80914   3.940  30.546   9.952
12574W        W80915   6.866  28.027  11.889
12575W        W80916  28.476   4.407   2.834
12576W        W80917  42.488   3.226   0.777
12577W        W80918  10.325  16.125   4.309
12578W        W80919   0.867  24.141   1.748
12579W        W80920   7.178  40.849   0.745
12580W        W80921   6.419  23.730   1.332
12581W        W80922  16.212  44.457  11.915
12582W        W80923  38.439  17.110  10.928
12583W        W80924  20.259  30.102  12.897
12584W        W80925  23.593  10.683  12.365
12585W        W80926  25.497  16.570  10.601
12586W        W80927  18.229   5.256   2.734
12587W        W80928  12.300  36.362  13.430
12588W        W80929  25.079  44.464   5.291
12589W        W80930  16.152  32.074  14.410
12590W        W80931   4.366  43.913  14.882
12591W        W80932  11.655  34.989   0.272
12592W        W80933  25.158  24.681   0.297
12593W        W80934  31.478  34.874   3.355
12594W        W80935   8.289  28.028  11.875
12595W        W80936   4.432   2.763   4.116
12596W        W80937  14.672  36.446   2.718
12597W        W80938  40.317  20.131  14.924
12598W        W80939   5.387  31.139  14.957
12599W        W80940   5.831  35.564   0.253
12600W        W80941  15.235  26.112  10.611
12601W        W80942  34.534  15.637   3.729
12602W        W80943  44.399  44.486   2.327
12603W        W80944  35.052  23.035   4.351
12604W        W80945  44.959  30.582  14.002
12605W        W80946  41.004  21.512  11.992
12606W        W80947  23.717  44.836  12.479
12607W        W80948   9.723  32.939   1.847
12608W        W80949  27.084   0.973   4.235
12609W        W80950   4.736  25.105  11.491
12610W        W80951   7.190  14.783  13.441
12611W        W80952  34.443   7.747   0.939
12612W        W80953  10.189  34.511   2.724
12613W        W80954  13.766   2.323  10.981
12614W        W80955  18.588  39.832   3.769
12615W        W80956  20.639  43.873  13.515
12616W        W80957  25.999  34.975  12.974
12617W        W80958  27.619   5.211  10.408
12618W        W80959  42.897  12.754  14.787
12619W        W80960  15.673  24.147  12.008
12620W        W80961  21.035  20.117   3.705
12621W        W80962  42.828  11.235   4.759
12622W        W80963  11.245  20.045   3.818
12623W        W80964  16.166  36.948  13.029
12624W        W80965  41.316  11.315  14.443
12625W        W80966  30.936   0.317   0.413
12626W        W80967   8.205  37.926  14.773
12627W        W80968   9.738  26.612   9.962
12628W        W80969  24.547  26.046   3.218
12629W        W80970  44.374  14.121  13.019
12630W        W80971  34.968   5.722  10.994
12631W        W80972  38.344  21.623  10.596
12632W        W80973  21.656  34.925   0.460
12633W        W80974  22.008  21.189   1.333
12634W        W80975  41.415   7.876  12.993
12635W        W80976  25.659  25.632  11.576
12636W        W80977  14.629  30.552   4.115
12637W        W80978  33.440   4.387  12.887
12638W        W80979  38.507  10.697   4.172
12639W        W80980  40.835  21.530  10.516
12640W        W80981  28.174  12.751  10.933
12641W        W80982  40.980  26.636   3.210
12642W        W80983  32.496   5.196  12.065
12643W        W80984  17.639  37.571  14.819
12644W        W80985  28.137  27.195   2.900
12645W        W80986  36.905  17.749  12.052
12646W        W80987  22.075  34.904   0.314
12647W        W80988  26.993  44.293   3.234
12648W        W80989  39.923  32.478   2.275
12649W        W80990  33.071  27.472  14.424
12650W        W80991  33.427  30.961   4.273
12651W        W80992   4.848  41.935  14.794
12652W        W80993  18.255  19.645   0.396
12653W        W80994  15.321  21.181   4.222
12654W        W80995  15.242  17.227  12.516
12655W        W80996  16.230  19.777  12.457
12656W        W80997  30.022  39.496  11.478
12657W        W80998  13.220   8.752   3.179
12658W        W80999   7.719   3.758  10.636
12659W        W81000  35.907   8.803   2.209
12660W        W81001  26.104  11.670   2.416
12661W        W81002  36.593  21.059   2.205
12662W        W81003  13.346  27.045  12.341
12663W        W81004  10.710  28.484   0.360
12664W        W81005  14.250  17.652   1.225
12665W        W81006  11.289  29.957   3.770
12666W        W81007  39.021  36.558  12.835
12667W        W81008  16.647  16.249  13.034
12668W        W81009   0.936  22.101   3.160
12669W        W81010  30.955  24.596  13.444
12670W        W81011  37.008  23.122  13.801
12671W        W81012  15.111  33.510  10.492
12672W        W81013  11.350   4.302   2.710
12673W        W81014   8.405  31.539  14.936
12674W        W81015  25.136  31.997   0.954
12675W        W81016  30.059  10.236  13.520
12676W        W81017  33.092  24.053  14.295
12677W        W81018  34.586  18.115  10.478
12678W        W81019  11.281  39.875   1.286
12679W        W81020   7.865  43.370   4.258
12680W        W81021   9.150  14.269   1.357
12681W        W81022  13.705  24.993   4.238
12682W        W81023  12.815  36.382   2.179
12683W        W81024  23.677  44.426  13.824
12684W        W81025  33.116  33.095   2.184
12685W        W81026   3.780  32.061  11.892
12686W        W81027  21.119  24.074   0.825
12687W        W81028  11.188  20.553  11.510
12688W        W81029  17.086   9.200   4.230
12689W        W81030  35.422  42.428   3.207
12690W        W81031  35.016   4.733   5.114
12691W        W81032  40.373   0.860  11.116
12692W        W81033  33.534  39.380   9.926
12693W        W81034  43.858  43.372  14.508
12694W        W81035   7.324  12.348  14.881
12695W        W81036  14.215  29.663   2.884
12696W        W81037  20.069  21.136  12.046
12697W        W81038   9.878  31.127  14.462
12698W        W81039  39.351  37.560   1.745
12699W        W81040  34.888  35.397  14.026
12700W        W81041  40.052  36.555  13.457
12701W        W81042  19.559  16.272   4.158
12702W        W81043  12.292  35.965   3.629
12703W        W81044   4.316  44.340   0.384
12704W        W81045  34.376   8.726   1.248
12705W        W81046  14.793  29.522  10.517
12706W        W81047  44.475   4.762   3.171
12707W        W81048  19.061  27.497  14.357
12708W        W81049  12.281   6.362  14.777
12709W        W81050  22.538  40.511  11.444
12710W        W81051  33.896  38.846  14.851
12711W        W81052  28.160   8.718   1.807
12712W        W81053  37.491   0.920  10.461
12713W        W81054  42.465   7.289  11.444
12714W        W81055  42.797  18.747  12.037
12715W        W81056  26.688  12.841   1.777
12716W        W81057  10.237  38.844  12.907
12717W        W81058   4.416   7.363   0.960
12718W        W81059  21.086  31.497   4.348
12719W        W81060  34.891  12.327   3.372
12720W        W81061  39.992  25.541   3.189
12721W        W81062  19.711  14.157  14.970
12722W        W81063   6.899   9.817   1.888
12723W        W81064  15.719  31.939  10.619
12724W        W81065  37.909  30.107   4.142
12725W        W81066  27.648  21.226   1.384
12726W        W81067  12.257  37.580   4.233
12727W        W81068  36.023  41.379   4.707
12728W        W81069  20.241   1.458   4.607
12729W        W81070  28.935  11.825  14.321
12730W        W81071   8.664  19.699   1.763
12731W        W81072  16.089  21.669   3.187
12732W        W81073  41.885  13.617  12.894
12733W        W81074  23.242  15.674   0.964
12734W        W81075  17.144  36.949  14.364
12735W        W81076  26.122  18.103  12.376
12736W        W81077  29.503   0.362  11.416
12737W        W81078  28.666  40.914  11.546
12738W        W81079  19.542   5.774   0.904
12739W        W81080   2.394  31.567  13.949
12740W        W81081  21.176  31.926  14.381
12741W        W81082  30.613  13.659   2.854
12742W        W81083  24.626   8.753  11.605
12743W        W81084  29.982  38.949  12.892
12744W        W81085  25.714  42.523   3.809
12745W        W81086  11.329  13.348  11.588
12746W        W81087  10.172  30.525   0.395
12747W        W81088  33.905  13.722   3.758
12748W        W81089  32.509  14.719   2.284
12749W        W81090   2.893  20.137  13.342
12750W        W81091  25.679   8.206   3.274
12751W        W81092  23.589  32.100  11.898
12752W        W81093  34.004   8.817  12.887
12753W        W81094  17.183  40.305   1.793
12754W        W81095  34.518   0.841  12.016
12755W        W81096  18.618  13.194   2.716
12756W        W81097   5.839   7.301  11.576
12757W        W81098  18.596  37.580   1.324
12758W        W81099   8.819  11.693  13.797
12759W        W81100  44.295   9.165   4.183
12760W        W81101   3.943  22.598   0.772
12761W        W81102   2.755  23.673  14.372
12762W        W81103  24.135   1.384  11.526
12763W        W81104  41.987   1.423  14.774
12764W        W81105  35.013  11.825  14.358
12765W        W81106  23.161  29.033  12.527
12766W        W81107   3.862  23.989  11.516
12767W        W81108   3.312  42.376  10.426
12768W        W81109  11.859  11.714   2.742
12769W        W81110  19.099  29.083   1.307
12770W        W81111  14.683  38.873  10.123
12771W        W81112  26.139   7.407  12.342
12772W        W81113  22.604  13.253   1.780
12773W        W81114  33.451  32.133  11.986
12774W        W81115  32.528   7.260  13.363
12775W        W81116  25.629  15.128   2.862
12776W        W81117  35.062  11.630   2.318
12777W        W81118  44.771  23.558  10.626
12778W        W81119   2.878  20.096   2.299
12779W        W81120   8.894  25.181   0.788
12780W        W81121  14.159   9.856  12.515
12781W        W81122  11.773   3.724   4.220
12782W        W81123  18.149  20.549  13.341
12783W        W81124   9.151  39.314   4.310
12784W        W81125   5.387  43.421   4.349
12785W        W81126  14.201  16.314   1.335
12786W        W81127  23.154   3.373  14.834
12787W        W81128  13.110  43.942   2.203
12788W        W81129  28.006   4.790   5.275
12789W        W81130  15.135  40.936   4.152
12790W        W81131  43.871   6.242  14.918
12791W        W81132  37.510  27.561  14.010
12792W        W81133  37.838  22.589  12.048
12793W        W81134  18.101  20.256  14.797
12794W        W81135  43.799  20.743   2.411
12795W        W81136  18.133  31.534  14.396
12796W        W81137  34.876  44.962   3.719
12797W        W81138  33.121  13.750   3.749
12798W        W81139  11.863  10.690  14.336
12799W        W81140  31.441  31.586   0.299
12800W        W81141  27.009  23.073  13.513
12801W        W81142  42.449  40.036  12.991
12802W        W81143  43.505  29.577  14.485
12803W        W81144  43.325  35.927   3.715
12804W        W81145  35.532  27.967   0.401
12805W        W81146   3.247  16.772  13.957
12806W        W81147  20.143  13.635   4.706
12807W        W81148   1.242  25.659   2.399
12808W        W81149  43.487  16.239  12.864
12809W        W81150   3.910  23.656   4.608
12810W        W81151  44.429   2.391   2.840
12811W        W81152  28.094   4.833   0.342
12812W        W81153  13.342  22.109   3.261
12813W        W81154   1.918  42.029  13.853
12814W        W81155  17.774  29.567  13.923
12815W        W81156  37.992   5.311   3.316
12816W        W81157   5.717  35.011   2.686
12817W        W81158  24.597  15.126  11.451
12818W        W81159  18.090   4.783  10.601
12819W        W81160  11.275  12.235   5.245
12820W        W81161  31.648  18.257  12.096
12821W        W81162   0.443  25.669   0.373
12822W        W81163  27.986  21.025  13.794
12823W        W81164   0.854  40.437   2.324
12824W        W81165  17.604  25.574   3.211
12825W        W81166  17.577  14.791   2.752
12826W        W81167  11.843  14.122   2.735
12827W        W81168  40.040   8.233  14.813
12828W        W81169  44.466   6.368   5.271
12829W        W81170  42.981  18.737   0.360
12830W        W81171   0.323  20.655  11.114
12831W        W81172  37.991   1.338  14.902
12832W        W81173  20.595   1.266   4.152
12833W        W81174  34.403  40.337   2.382
12834W        W81175  33.451  25.701   0.745
12835W        W81176   5.855  26.703  14.951
12836W        W81177  35.040  27.648   0.924
12837W        W81178   3.850  31.011   1.305
12838W        W81179  27.531  10.732  12.089
12839W        W81180  22.659  23.544  11.556
12840W        W81181  13.658  24.619   1.698
12841W        W81182  40.001   5.344   2.866
12842W        W81183   6.792  35.506   0.740
12843W        W81184  27.154  22.614   1.362
12844W        W81185  38.418  19.094   1.824
12845W        W81186  21.703  36.376  11.497
12846W        W81187   6.402  43.977  11.411
12847W        W81188  25.680  20.752   4.676
12848W        W81189  12.316  12.145   9.948
12849W        W81190  26.502  27.071   3.251
12850W        W81191  26.963   0.333   2.866
12851W        W81192  38.905   0.337  10.888
12852W        W81193  28.487  44.962  12.889
12853W        W81194   8.702  15.115  10.633
12854W        W81195  14.275  32.503  11.059
12855W        W81196  27.548  20.051  11.544
12856W        W81197  27.019  23.697   4.753
12857W        W81198   3.359   4.280   2.196
12858W        W81199  40.479   0.492   2.685
12859W        W81200  26.564  14.182  13.313
12860W        W81201  26.515   8.761   4.751
12861W        W81202  36.971  37.416  13.035
12862W        W81203  36.083  40.346  13.408
12863W        W81204  44.902  12.648  12.569
12864W        W81205  15.090  11.224   2.387
12865W        W81206  11.367  36.047   4.269
12866W        W81207  34.560  44.412   4.217
12867W        W81208  22.582  23.614   4.314
12868W        W81209  24.585  20.732  12.823
12869W        W81210  35.573  20.198   3.651
12870W        W81211  24.021  21.237  13.896
12871W        W81212  33.452   5.687   1.908
12872W        W81213  34.911   2.234  11.574
12873W        W81214  29.573   5.821  11.455
12874W        W81215   9.696  32.086   1.399
12875W        W81216   3.822   9.704   3.340
12876W        W81217   1.897   9.700  12.395
12877W        W81218  25.968  17.160   5.716
12878W        W81219  30.654  23.144  13.482
12879W        W81220   9.369  33.546  10.012
12880W        W81221  28.647  28.631   3.732
12881W        W81222  10.361  10.272   1.340
12882W        W81223  10.283   8.759  10.896
12883W        W81224  39.915  18.262   1.383
12884W        W81225   8.382  32.956  12.436
12885W        W81226  36.444  20.637   1.286
12886W        W81227  44.764  40.948  11.386
12887W        W81228  42.821  37.086   2.829
12888W        W81229   8.228  18.178   4.718
12889W        W81230  24.669  36.983   2.247
12890W        W81231  39.484  41.907  12.445
12891W        W81232  17.121  44.983  14.294
12892W        W81233  17.191  30.624   3.769
12893W        W81234  28.507  44.753   0.779
12894W        W81235  25.182   4.893   4.292
12895W        W81236  36.955  38.032   3.249
12896W        W81237  15.811  22.592   0.880
12897W        W81238   5.301  20.578  14.444
12898W        W81239   0.832  15.086  11.997
12899W        W81240  25.628  13.673   1.371
12900W        W81241   0.844  32.960   3.739
12901W        W81242  35.370  32.951   2.698
12902W        W81243  34.871  44.958  14.849
12903W        W81244   7.184   6.857  12.528
12904W        W81245  21.610   6.911   4.647
12905W        W81246  18.288  40.976   3.300
12906W        W81247  11.196  28.439   3.715
12907W        W81248  39.448  36.897   0.290
12908W        W81249  12.661   6.338   2.896
12909W        W81250   9.795  36.439  11.558
12910W        W81251  37.934  14.775  11.588
12911W        W81252   2.259  38.041   0.428
12912W        W81253   1.937  11.681  12.824
12913W        W81254  12.184  38.447   4.160
12914W        W81255  44.842   0.889   1.872
12915W        W81256   7.761  41.897  11.868
12916W        W81257  13.202  27.940  11.024
12917W        W81258  40.866  41.467   1.352
12918W        W81259   5.286  39.879   1.342
12919W        W81260  43.963  18.282  12.979
12920W        W81261  28.985  36.529   3.794
12921W        W81262  12.637  28.558   2.398
12922W        W81263  13.765   3.398  11.437
12923W        W81264  31.003   9.171  10.568
12924W        W81265  13.795  32.929   4.629
12925W        W81266  17.240  39.455  11.049
12926W        W81267  29.630   7.295   5.246
12927W        W81268  29.983  44.927   1.836
12928W        W81269  41.420   6.254  10.598
12929W        W81270  26.546  31.479  10.030
12930W        W81271  14.751  14.752  13.880
12931W        W81272  38.963   0.266  13.828
12932W        W81273  29.053  16.263  13.398
12933W        W81274   5.369  23.515  10.519
12934W        W81275  44.328  19.565  14.367
12935W        W81276   3.303  32.058  12.060
12936W        W81277   3.390   6.287  12.965
12937W        W81278  35.549  28.531   2.270
12938W        W81279  25.657  10.243   2.391
12939W        W81280  27.593  23.540  10.520
12940W        W81281   0.296   4.832  10.539
12941W        W81282  33.983  39.935  12.873
12942W        W81283  13.261  28.538   3.798
12943W        W81284  18.179  29.150  12.834
12944W        W81285  29.153  16.095  14.369
12945W        W81286   9.790  17.128   2.401
12946W        W81287  26.484  22.017   4.620
12947W        W81288   0.755   7.314   4.712
12948W        W81289   4.376  13.669  12.018
12949W        W81290   5.832  28.507   3.321
12950W        W81291  42.832  43.491  14.940
12951W        W81292  18.166  17.758  14.300
12952W        W81293  41.299   1.438   1.922
12953W        W81294  12.231  34.058  12.018
12954W        W81295  31.642  23.112   0.261
12955W        W81296   3.237  13.190   1.792
12956W        W81297   4.939  17.196  10.510
12957W        W81298   5.810   2.322   4.134
12958W        W81299   1.281  41.860   0.749
12959W        W81300  25.115  34.541  14.956
12960W        W81301  27.198   0.964  11.444
12961W        W81302  19.647   2.900  11.036
12962W        W81303  16.316  12.316   4.644
12963W        W81304  21.204  30.933   1.279
12964W        W81305   6.258  33.391  11.010
12965W        W81306  19.176  40.400  13.485
12966W        W81307   9.236  18.243  11.971
12967W        W81308  38.058  26.100  12.009
12968W        W81309  18.282  27.086   1.925
12969W        W81310  10.777   2.878  13.839
12970W        W81311  24.190   2.244   2.672
12971W        W81312  30.603  24.490   2.752
12972W        W81313  19.175  16.272  11.855
12973W        W81314  15.640   4.420  10.468
12974W        W81315  12.198  17.682  12.861
12975W        W81316  10.249  32.443  12.030
12976W        W81317  17.705  32.956  14.963
12977W        W81318   3.823  35.504   2.737
12978W        W81319  31.607  43.972  11.016
12979W        W81320  25.597  40.369  11.937
12980W        W81321  44.789  12.853   2.761
12981W        W81322  30.439  41.875   3.749
12982W        W81323  11.633  28.973   1.395
12983W        W81324  22.043  28.526  10.918
12984W        W81325  16.588  16.769  14.880
12985W        W81326   1.952  13.176   4.144
12986W        W81327  43.020  22.603   3.305
12987W        W81328  25.086   1.366  13.368
12988W        W81329  44.425  43.789   0.920
12989W        W81330  22.062  14.191   2.218
12990W        W81331   2.463   8.208   1.301
12991W        W81332   5.376   3.326  11.505
12992W        W81333  23.516   9.820  14.306
12993W        W81334  13.182   0.885  10.563
12994W        W81335  38.059  32.604   0.799
12995W        W81336  16.733   7.794   4.179
12996W        W81337   2.960   0.332  14.383
12997W        W81338   7.780  40.314   0.791
12998W        W81339   0.962  16.724   1.361
12999W        W81340  30.636   6.243   0.927
13000W        W81341   0.861  41.439   5.262
13001W        W81342  35.599  12.305  14.996
13002W        W81343   8.828  24.029  12.024
13003W        W81344  29.637  19.061   3.208
13004W        W81345  29.665   8.675   9.922
13005W        W81346  29.621  22.515  14.913
13006W        W81347  30.042  16.193   4.326
13007W        W81348   8.713  21.117   1.364
13008W        W81349  11.760  21.026   2.206
13009W        W81350   2.791  33.994   3.251
13010W        W81351  37.948   6.324  12.068
13011W        W81352  34.507  44.950  11.870
13012W        W81353  21.231  31.999   3.300
13013W        W81354  42.513   8.693   0.472
13014W        W81355  20.209  21.064  10.472
13015W        W81356  40.350  40.402   0.388
13016W        W81357  12.765  23.034  12.489
13017W        W81358   2.878   4.329  14.994
13018W        W81359  42.996  34.369   4.301
13019W        W81360  22.161  34.498   2.704
13020W        W81361  25.155  40.828   3.759
13021W        W81362   5.842  18.688  14.828
13022W        W81363  28.617  35.469   3.635
13023W        W81364  29.928   5.403   3.823
13024W        W81365  30.136  10.198   4.210
13025W        W81366  25.544  30.159   9.956
13026W        W81367  13.725  34.889  12.491
13027W        W81368  37.491   2.889   3.699
13028W        W81369  35.986  13.279  12.511
13029W        W81370   1.405  13.295   4.282
13030W        W81371   7.668   1.369   4.350
13031W        W81372  35.367   4.388  12.850
13032W        W81373  24.703  33.556   1.237
13033W        W81374  17.078  20.033   4.772
13034W        W81375  36.994  42.834  11.964
13035W        W81376   4.905  38.562   0.313
13036W        W81377  18.661  42.789  12.035
13037W        W81378  17.740  37.502  10.566
13038W        W81379  21.640  17.219  14.294
13039W        W81380  15.665   6.825  12.021
13040W        W81381  20.149  28.991  10.909
13041W        W81382  14.098  44.438   1.395
13042W        W81383  19.205   1.895  11.086
13043W        W81384  30.441  23.208   1.703
13044W        W81385  40.054  12.624   1.440
13045W        W81386   9.255   1.825   3.849
13046W        W81387  36.898  39.834  12.861
13047W        W81388  42.835  33.041   1.247
13048W        W81389  21.515   3.829  11.469
13049W        W81390  30.484  35.984  14.311
13050W        W81391  35.923  15.136   0.879
13051W        W81392   3.828  25.625   2.313
13052W        W81393  38.023  39.363   0.914
13053W        W81394  39.370  34.575   3.724
13054W        W81395   6.898  26.163   4.805
13055W        W81396   1.365  22.715   1.234
13056W        W81397  31.443   3.805  13.063
13057W        W81398  32.494  31.466   2.265
13058W        W81399  22.048   6.271   4.316
13059W        W81400  10.733   7.760   4.680
13060W        W81401  23.189  39.054   0.813
13061W        W81402   5.712  35.459  14.462
13062W        W81403   5.430  29.046  13.376
13063W        W81404   3.231  40.976   1.398
13064W        W81405   0.265  22.028  10.906
13065W        W81406   0.465   8.676  14.361
13066W        W81407  15.744  40.880  11.397
13067W        W81408  29.537  20.190   3.323
13068W        W81409  30.482  30.451   0.274
13069W        W81410  20.074  37.935   4.306
13070W        W81411  16.208  23.174   2.201
13071W        W81412  26.200  15.241   3.678
13072W        W81413   0.271  35.076   4.210
13073W        W81414  24.687  25.197   0.753
13074W        W81415  39.047   4.441  12.968
13075W        W81416  27.502  16.664  11.513
13076W        W81417   3.227   5.350  10.927
13077W        W81418  20.125  14.599   0.918
13078W        W81419  35.580  35.444  12.996
13079W        W81420  28.630  42.521  14.496
13080W        W81421   0.873   2.442   3.729
13081W        W81422  17.113   0.421   1.216
13082W        W81423  27.690  36.380  10.503
13083W        W81424   8.350  13.298  13.539
13084W        W81425  36.979  22.230   3.668
13085W        W81426  32.434  24.481   3.268
13086W        W81427  35.590  43.892   4.162
13087W        W81428  16.316  19.598  14.772
13088W        W81429  31.997  38.355  12.829
13089W        W81430   8.237  44.460   3.228
13090W        W81431   2.338  12.662   1.735
13091W        W81432  40.036  13.331  14.953
13092W        W81433  11.354  43.822  13.872
13093W        W81434  42.000   6.248  10.642
13094W        W81435  15.122  28.996  12.395
13095W        W81436  41.890  41.811  14.823
13096W        W81437  32.585  29.627   2.847
13097W        W81438   2.800  26.993  13.419
13098W        W81439   8.700  13.299  13.309
13099W        W81440  30.952  30.447   4.819
13100W        W81441  37.576  32.458   1.933
13101W        W81442   2.318   6.888   0.841
13102W        W81443  12.300  26.982  13.479
13103W        W81444   3.781  43.769  11.529
13104W        W81445  10.874  22.036   2.802
13105W        W81446  33.582  33.073  10.515
13106W        W81447  20.070   2.336   4.717
13107W        W81448   4.416  43.987   2.351
13108W        W81449  40.814  34.532  13.915
13109W        W81450   8.856  15.648   0.946
13110W        W81451   7.838   8.860   2.345
13111W        W81452  25.509   8.786  13.839
13112W        W81453  21.079  28.635  13.817
13113W        W81454  28.656  44.793   0.275
13114W        W81455  38.569   9.677   0.730
13115W        W81456  10.318  36.085  10.432
13116W        W81457  34.490   1.415   1.860
13117W        W81458  42.412  25.992   2.689
13118W        W81459  14.624   3.264   3.305
13119W        W81460  14.818  27.070   0.394
13120W        W81461  12.719  42.928  11.915
13121W        W81462  33.014  25.550   4.123
13122W        W81463  41.008  22.554  12.031
13123W        W81464  27.025  16.780   4.339
13124W        W81465  18.254  41.813  13.966
13125W        W81466  25.047  35.989  11.498
13126W        W81467  35.422  14.661   2.900
13127W        W81468  21.742  23.043   1.723
13128W        W81469  19.121  23.528  13.940
13129W        W81470  12.127  29.047  12.918
13130W        W81471  14.592  21.119  12.085
13131W        W81472  42.351  27.479  13.992
13132W        W81473  26.098   7.260  10.626
13133W        W81474  14.321  14.628   3.799
13134W        W81475  20.178  25.040  14.908
13135W        W81476   4.333   3.850   1.832
13136W        W81477  14.833   6.286   2.879
13137W        W81478  13.613   2.828   0.775
13138W        W81479  12.788  21.142   2.196
13139W        W81480  33.496  37.351   0.829
13140W        W81481  16.265  42.417   4.618
13141W        W81482  16.132  23.563   4.741
13142W        W81483  13.780   2.233   1.335
13143W        W81484  39.910  18.673  12.919
13144W        W81485  29.525  35.365  14.505
13145W        W81486  14.746   4.774   2.178
13146W        W81487   8.345  44.473   4.205
13147W        W81488  34.106  28.538   1.329
13148W        W81489  41.454  20.680   3.750
13149W        W81490   2.450  36.908  12.548
13150W        W81491  43.378   9.772   1.278
13151W        W81492  25.115  13.312  13.438
13152W        W81493  14.257  30.066   1.428
13153W        W81494  12.258  32.626  11.953
13154W        W81495  32.955   5.693  10.913
13155W        W81496  40.049  21.523   1.314
13156W        W81497  38.469  28.153   0.830
13157W        W81498   3.949  32.015   0.763
13158W        W81499  21.589  40.998   0.429
13159W        W81500  22.026  26.993  13.010
13160W        W81501   1.445  22.567  13.818
13161W        W81502  14.709   5.914   0.762
13162W        W81503  32.901  13.834  13.842
13163W        W81504  23.648  32.918  10.476
13164W        W81505  26.205  18.264  13.375
13165W        W81506   2.798  29.494  13.854
13166W        W81507   9.881   2.357  14.373
13167W        W81508   4.718  32.044   0.767
13168W        W81509   4.298  35.006   0.483
13169W        W81510  29.624  20.735  13.513
13170W        W81511  17.082   2.841   3.672
13171W        W81512  44.292  42.007   0.330
13172W        W81513   2.814  21.576  14.879
13173W        W81514  20.235  16.778  10.949
13174W        W81515  15.309  16.746   0.322
13175W        W81516   8.176  16.260   4.773
13176W        W81517  12.119  44.864  14.774
13177W        W81518  24.498  24.479  13.443
13178W        W81519   9.348   3.340   3.832
13179W        W81520  11.346  12.286   0.767
13180W        W81521  27.174  35.584   1.761
13181W        W81522  34.986  14.105  12.870
13182W        W81523  34.579   0.750   3.763
13183W        W81524   7.876  14.170   3.850
13184W        W81525  18.781  29.128  13.913
13185W        W81526   6.775  27.175  10.523
13186W        W81527  38.931   8.251  12.076
13187W        W81528   7.783   7.832  14.927
13188W        W81529  41.824  43.377   2.296
13189W        W81530  40.438   8.215  13.415
13190W        W81531  14.290   2.889  12.078
13191W        W81532  21.047   8.765  10.638
13192W        W81533  41.934  42.372   5.758
13193W        W81534  26.127  21.725   2.721
13194W        W81535  42.471  23.670   3.824
13195W        W81536   6.270   5.370  14.338
13196W        W81537  44.419  15.602   3.189
13197W        W81538  13.344  44.003   3.750
13198W        W81539  39.410   7.203  14.031
13199W        W81540   9.680  43.387   3.278
13200W        W81541   6.777  14.714   1.766
13201W        W81542  26.055  18.764   2.810
13202W        W81543  10.742  37.479   2.792
13203W        W81544  12.646  33.560   1.323
13204W        W81545  34.869  43.485   1.825
13205W        W81546  25.621   9.673  14.986
13206W        W81547   6.261  32.096   0.358
13207W        W81548   2.893  38.866   4.216
13208W        W81549  20.040  33.592   1.276
13209W        W81550  27.594  17.197   0.929
13210W        W81551  37.567  16.603  12.541
13211W        W81552  27.135  43.343  13.361
13212W        W81553   7.790  17.595   4.682
13213W        W81554  10.638   7.776  11.452
13214W        W81555   6.374  44.375  14.847
13215W        W81556  21.673   5.290   3.736
13216W        W81557   0.387  39.529  12.940
13217W        W81558   9.257   8.362   2.299
13218W        W81559  35.488  32.406  12.965
13219W        W81560  35.001  16.112  12.420
13220W        W81561  13.307  24.515  14.808
13221W        W81562  35.102  24.129   1.862
13222W        W81563  14.246  28.595   1.696
13223W        W81564  39.532  33.591   1.797
13224W        W81565  15.298  43.311   3.285
13225W        W81566  37.968   4.823  11.427
13226W        W81567   8.328  11.768   0.777
13227W        W81568   4.278  43.414  14.762
13228W        W81569  14.223  26.078  10.517
13229W        W81570   4.308   6.731  12.517
13230W        W81571  12.787  43.996   4.621
13231W        W81572  26.137   9.311   0.383
13232W        W81573  14.326   5.771   4.824
13233W        W81574  24.700   0.440   4.276
13234W        W81575   3.437   7.730  10.989
13235W        W81576  41.488  29.664   1.727
13236W        W81577  13.667  18.562   4.128
13237W        W81578  37.508  19.741  14.419
13238W        W81579  40.016  31.598   3.762
13239W        W81580  11.775  22.209  10.621
13240W        W81581  44.457  35.918  12.542
13241W        W81582  38.899  31.908  12.948
13242W        W81583   4.790   8.706   2.798
13243W        W81584  21.167  21.198  12.557
13244W        W81585  26.091   7.748  14.997
13245W        W81586  30.501  23.516  14.303
13246W        W81587  43.479  19.064  11.888
13247W        W81588  26.604  26.696  13.059
13248W        W81589   6.828  36.954   2.765
13249W        W81590  13.281  33.509   0.813
13250W        W81591   8.343  26.955   4.297
13251W        W81592   1.467  14.107   1.745
13252W        W81593  37.906  14.217  13.826
13253W        W81594   8.267  33.540  11.382
13254W        W81595  20.124  25.661   2.733
13255W        W81596  44.264  42.789   1.332
13256W        W81597  43.493  34.097  11.586
13257W        W81598  34.413  33.474  13.036
13258W        W81599   1.329  39.025   1.220
13259W        W81600  14.096  27.512   0.446
13260W        W81601  25.105   5.380   1.227
13261W        W81602  28.065  18.678  12.420
13262W        W81603  42.000  41.491   4.224
13263W        W81604  40.424  14.183   9.935
13264W        W81605   3.927   7.204  10.442
13265W        W81606  42.501  22.508  10.579
13266W        W81607  18.061  14.103  14.945
13267W        W81608   1.756   9.344  12.353
13268W        W81609  40.306  25.061  14.871
13269W        W81610   4.359   0.301   0.480
13270W        W81611  13.657   7.828  10.465
13271W        W81612  21.091  40.934   3.315
13272W        W81613  10.877  10.646   4.727
13273W        W81614  15.666   4.319   5.187
13274W        W81615  41.475  13.254   2.306
13275W        W81616  44.445   7.249  12.536
13276W        W81617   0.967  41.838  10.615
13277W        W81618  28.007  26.040  11.999
13278W        W81619   8.209   0.826  13.912
13279W        W81620  38.327   2.887  11.576
13280W        W81621  17.258  35.384  10.963
13281W        W81622  43.919   1.886   1.933
13282W        W81623  27.194  42.020  14.344
13283W        W81624  30.467  11.691   2.294
13284W        W81625  39.994  39.896   0.395
13285W        W81626  10.168   0.371   0.819
13286W        W81627   8.308  38.935  11.964
13287W        W81628  42.289   3.328  14.992
13288W        W81629  34.370  33.954  14.460
13289W        W81630  24.026  11.659  12.991
13290W        W81631   1.345  23.526   1.216
13291W        W81632  40.916  32.018   4.712
13292W        W81633  26.090  27.577   4.124
13293W        W81634   3.427  30.988   2.777
13294W        W81635   2.775  25.576   1.347
13295W        W81636  10.822  26.623  12.543
13296W        W81637  39.970  10.330  12.535
13297W        W81638  16.199  31.090   3.736
13298W        W81639   7.181  25.086   4.838
13299W        W81640  30.579  14.258   1.851
13300W        W81641  32.397  13.724  14.993
13301W        W81642  13.299  40.828   0.901
13302W        W81643  44.413  24.489   1.272
13303W        W81644  41.809  19.575  11.446
13304W        W81645  31.034  34.999  14.363
13305W        W81646   5.894  18.072   2.855
13306W        W81647  16.263  15.642  11.567
13307W        W81648  31.551  34.000  12.824
13308W        W81649  37.434   0.845  14.956
13309W        W81650  38.069  33.994  14.804
13310W        W81651   8.405  31.523   3.755
13311W        W81652   0.847  42.859  12.510
13312W        W81653  41.801  20.147   1.742
13313W        W81654  21.622   2.943  13.385
13314W        W81655  23.736  36.090  13.376
13315W        W81656  20.654  32.132  14.403
13316W        W81657  38.950  14.671  13.378
13317W        W81658  13.670  40.926  13.347
13318W        W81659  26.486  13.176   0.790
13319W        W81660  15.600  37.527  13.037
13320W        W81661  21.614  32.888   3.766
13321W        W81662  25.712   1.759  10.963
13322W        W81663  39.507  37.873  14.307
13323W        W81664  12.722  32.957  11.500
13324W        W81665  28.131   6.683  10.537
13325W        W81666  34.561  37.930   4.213
13326W        W81667  30.116  28.526  13.806
13327W        W81668   3.798  31.945  14.347
13328W        W81669  21.060   6.375   4.768
13329W        W81670  22.155  34.918  11.964
13330W        W81671  16.614  41.947   1.837
13331W        W81672  13.780  20.075  14.450
13332W        W81673  22.586  14.238  12.428
13333W        W81674  37.022  38.925   2.269
13334W        W81675  40.529  28.676   4.139
13335W        W81676  33.087  23.659  11.060
13336W        W81677  21.085   4.935   4.275
13337W        W81678   2.824  42.350   3.348
13338W        W81679  15.193  39.888   1.843
13339W        W81680   2.389  18.072   4.785
13340W        W81681  35.378  29.471   3.387
13341W        W81682  41.483  36.980  11.022
13342W        W81683  40.951  29.650  14.978
13343W        W81684  22.529  12.691  14.340
13344W        W81685  23.644  22.132  14.807
13345W        W81686  35.923  34.550   1.435
13346W        W81687  11.762   9.737   3.304
13347W        W81688  33.412   1.838  13.880
13348W        W81689  10.231  40.390   2.284
13349W        W81690  31.506  26.530   0.450
13350W        W81691  21.547  26.698  14.952
13351W        W81692  24.620  35.861  13.478
13352W        W81693  40.970  14.142   3.642
13353W        W81694   6.778  13.318  10.531
13354W        W81695  37.487  29.529  11.564
13355W        W81696  21.690  28.092  12.845
13356W        W81697  10.243  39.903  10.640
13357W        W81698  10.184  15.659   5.309
13358W        W81699  16.694  13.257   3.176
13359W        W81700  43.407  42.861   3.800
13360W        W81701  44.778  19.201  12.550
13361W        W81702  27.121  36.953  13.998
13362W        W81703  29.024  20.076  14.364
13363W        W81704   7.758  27.958   2.798
13364W        W81705  23.223  23.158  11.118
13365W        W81706  20.046   2.814   4.773
13366W        W81707  12.334  20.142   2.302
13367W        W81708  31.601   6.870  12.035
13368W        W81709   7.393   9.274   4.333
13369W        W81710  30.535  41.349  12.827
13370W        W81711  30.077  12.839  13.360
13371W        W81712  31.000  19.730   4.756
13372W        W81713  18.562   9.255  11.905
13373W        W81714  34.076   1.385  13.803
13374W        W81715   7.715  15.703   2.899
13375W        W81716  15.274  41.995  13.320
13376W        W81717   4.712   3.774   1.788
13377W        W81718   4.894  38.013   4.158
13378W        W81719  31.034  10.684  13.547
13379W        W81720   2.364  42.318   1.238
13380W        W81721  43.483  21.259   5.126
13381W        W81722  20.034   9.247  13.987
13382W        W81723  15.652   0.467  14.005
13383W        W81724  36.851  29.452   3.701
13384W        W81725   7.172   3.871   0.245
13385W        W81726  38.953  26.587  13.863
13386W        W81727  21.550  33.924  12.359
13387W        W81728  25.011  35.001  12.950
13388W        W81729   3.358  36.358   5.318
13389W        W81730  30.468  22.624  14.845
13390W        W81731  34.413  12.688   4.808
13391W        W81732  35.058  41.013   4.330
13392W        W81733  19.679  14.196   5.100
13393W        W81734  11.637   6.903   3.833
13394W        W81735   1.877  14.769   1.245
13395W        W81736  13.318  23.168  11.111
13396W        W81737  29.020  23.075  14.919
13397W        W81738  42.490  13.656   4.758
13398W        W81739   4.249  43.326  14.317
13399W        W81740  35.090   4.277   4.309
13400W        W81741  41.003   1.901   3.824
13401W        W81742  39.484  25.197  10.966
13402W        W81743  36.540   9.790   0.904
13403W        W81744  40.497  15.182   0.763
13404W        W81745  44.421  42.831   1.913
13405W        W81746   1.932   8.237   2.317
13406W        W81747  18.593  30.533   4.682
13407W        W81748  43.295  36.949   1.291
13408W        W81749   2.282  19.775   4.181
13409W        W81750   6.187  26.513  13.832
13410W        W81751  18.683  35.070   1.887
13411W        W81752   9.656  40.338   2.701
13412W        W81753  32.936  31.534  13.326
13413W        W81754  22.233   3.238   0.354
13414W        W81755  39.456  16.087   0.313
13415W        W81756   7.215  27.193  10.435
13416W        W81757  25.634  12.254  14.507
13417W        W81758  30.044  13.757   1.334
13418W        W81759  25.077  18.789  12.387
13419W        W81760  11.205  37.034   4.831
13420W        W81761   1.931  27.978   4.618
13421W        W81762  29.929   8.196  11.451
13422W        W81763   6.857  20.624   0.747
13423W        W81764  23.078  41.382  14.503
13424W        W81765  12.632   5.815   2.284
13425W        W81766  37.943  43.900  11.121
13426W        W81767  38.511  28.470  13.398
13427W        W81768   4.938  41.971  11.877
13428W        W81769   4.227  40.362  10.938
13429W        W81770  35.001   7.895   3.847
13430W        W81771  10.358  15.269  12.513
13431W        W81772  44.411  37.376   2.361
13432W        W81773  29.631  11.790  12.959
13433W        W81774  31.119  28.581  13.997
13434W        W81775  20.748  40.854   2.712
13435W        W81776  32.485  37.037   4.601
13436W        W81777  30.445  33.068  14.430
13437W        W81778  40.464   6.209  12.366
13438W        W81779  25.001  36.488   0.297
13439W        W81780  27.132  22.510   3.341
13440W        W81781  18.066  43.021   3.857
13441W        W81782  21.534  10.732   2.756
13442W        W81783   4.801  34.992  14.412
13443W        W81784   4.207  15.225   3.372
13444W        W81785  32.011  43.987   4.790
13445W        W81786   2.933  10.727  10.414
13446W        W81787  22.091  31.039  10.471
13447W        W81788  42.517  20.125  12.858
13448W        W81789  37.847  16.689   0.888
13449W        W81790  24.098  43.783  14.325
13450W        W81791  36.093   3.798  13.968
13451W        W81792  12.832   8.716   2.394
13452W        W81793   4.409  19.699   1.385
13453W        W81794   7.353  31.015  14.491
13454W        W81795   3.784  21.027   4.247
13455W        W81796  39.932   1.452   4.251
13456W        W81797   2.845   1.917   3.643
13457W        W81798  13.349  25.079  13.032
13458W        W81799  38.075  22.504   4.809
13459W        W81800  30.499   0.774   3.319
13460W        W81801  27.169  26.649  14.404
13461W        W81802  26.585  13.194  12.947
13462W        W81803  34.372  34.510  11.519
13463W        W81804  26.621  12.743   4.322
13464W        W81805   9.375  22.506  11.033
13465W        W81806  33.988   3.732  12.559
13466W        W81807  34.547  30.577  10.487
13467W        W81808  20.679   5.206  12.366
13468W        W81809   3.805  29.012   0.754
13469W        W81810  18.192   0.830   0.956
13470W        W81811  27.045  30.000   0.484
13471W        W81812  30.967  15.239  10.515
13472W        W81813  38.839  28.584   2.280
13473W        W81814  38.056  19.274  11.421
13474W        W81815  28.098  36.349  12.559
13475W        W81816  20.262   8.893   5.205
13476W        W81817  28.958  28.474  14.011
13477W        W81818  13.837  31.409   4.655
13478W        W81819  30.927  10.655  11.886
13479W        W81820  37.039  44.432  10.409
13480W        W81821  15.198  24.166   4.725
13481W        W81822  44.883  11.810  11.488
13482W        W81823  27.689  21.516  10.964
13483W        W81824   6.824   6.747   4.240
13484W        W81825  33.893  11.247   3.186
13485W        W81826  31.552   7.737   4.259
13486W        W81827  16.241  34.962  10.604
13487W        W81828  35.009  32.141  10.547
13488W        W81829  43.314  43.990  11.519
13489W        W81830  25.700   8.375   1.830
13490W        W81831  14.263  11.775   1.281
13491W        W81832  44.272   3.455  13.834
13492W        W81833  36.875  25.682   4.607
13493W        W81834   6.683  39.540   1.295
13494W        W81835   8.285  19.192  14.834
13495W        W81836  20.207  34.384   4.768
13496W        W81837  38.959  10.328  10.931
13497W        W81838  36.543  44.378   3.659
13498W        W81839  44.805  20.758   0.850
13499W        W81840   6.912  40.966   0.754
13500W        W81841  13.669  19.133  11.491
13501W        W81842  32.577  22.630   3.172
13502W        W81843  23.634  40.357   3.260
13503W        W81844   2.336  43.453  14.374
13504W        W81845  33.971   6.707   0.468
13505W        W81846  31.579  39.852  10.914
13506W        W81847   8.663  33.465  13.352
13507W        W81848  30.615  44.447   5.280
13508W        W81849  13.322  40.979   3.782
13509W        W81850  18.141   8.195  14.285
13510W        W81851  28.989  13.759   0.735
13511W        W81852  41.914  10.379   4.761
13512W        W81853  23.129   4.713  12.356
13513W        W81854   5.906  23.220   4.211
13514W        W81855  37.395  33.475  13.326
13515W        W81856  35.110  31.581   1.419
13516W        W81857  42.412  13.702  10.411
13517W        W81858  28.559  13.181   0.819
13518W        W81859  33.050  32.133  14.356
13519W        W81860  42.405  10.691  13.885
13520W        W81861  38.476  29.444   0.824
13521W        W81862  30.990  25.505  12.395
13522W        W81863   9.362  23.186  10.407
13523W        W81864  14.665   4.893  13.010
13524W        W81865  39.350  31.999   3.852
13525W        W81866   6.269  39.926  11.123
13526W        W81867  19.637  18.545  12.872
13527W        W81868  15.803  26.109  12.090
13528W        W81869  36.029  17.295   3.743
13529W        W81870   7.803   3.417  14.470
13530W        W81871  15.771  42.446   4.827
13531W        W81872  19.055   2.300   0.302
13532W        W81873  19.076  21.173  11.527
13533W        W81874  11.169   2.888   2.729
13534W        W81875  40.345   2.457  13.005
13535W        W81876  18.134  37.502   1.280
13536W        W81877  24.171  18.612  11.949
13537W        W81878   3.899   0.471  11.398
13538W        W81879  18.567  28.172   2.290
13539W        W81880  30.921  24.201  14.922
13540W        W81881  18.665  42.422   3.703
13541W        W81882   5.693  39.956  14.386
13542W        W81883   8.882  34.020   1.231
13543W        W81884  18.184  32.439   9.973
13544W        W81885  10.849  10.176  11.070
13545W        W81886  17.578  42.878  12.341
13546W        W81887  38.376  16.626   1.901
13547W        W81888  34.405  18.547   2.673
13548W        W81889   8.352  10.220   2.264
13549W        W81890  18.674   3.929  11.913
13550W        W81891  23.510   5.322  11.951
13551W        W81892  32.616   9.706  11.553
13552W        W81893  20.592  35.447  14.509
13553W        W81894   4.730   6.227   2.316
13554W        W81895  21.549  16.220  11.120
13555W        W81896   5.237  35.488  14.430
13556W        W81897   2.260   4.761   2.328
13557W        W81898  12.357  44.280  12.078
13558W        W81899  30.096  22.222   1.898
13559W        W81900  44.437  22.609   4.821
13560W        W81901  19.227  13.667   4.698
13561W        W81902   9.363  30.656   0.467
13562W        W81903   7.289  17.713  10.482
13563W        W81904  34.430  17.768   1.437
13564W        W81905  25.628  28.041   2.881
13565W        W81906   4.863  28.134  13.820
13566W        W81907  40.492   6.826   3.348
13567W        W81908  10.645  11.141   5.293
13568W        W81909  44.495  37.459  13.530
13569W        W81910  13.794  33.031   4.121
13570W        W81911   7.267   5.858   1.711
13571W        W81912  36.069  27.458   1.796
13572W        W81913  17.684  23.676  11.106
13573W        W81914  38.935   8.403  10.956
13574W        W81915  18.200  38.564   4.663
13575W        W81916  42.312  42.430   3.383
13576W        W81917  37.046  21.670  12.983
13577W        W81918  41.919  26.688   1.378
13578W        W81919   8.861  22.644  10.952
13579W        W81920  18.258   3.828  14.458
13580W        W81921  27.589  38.016   0.251
13581W        W81922  17.275  33.445   0.911
13582W        W81923  12.705  27.098   1.212
13583W        W81924   2.293  23.115   3.310
13584W        W81925  18.682  41.398  11.975
13585W        W81926  27.534  14.668  13.985
13586W        W81927  37.875  22.049   2.260
13587W        W81928  37.945  25.213  12.052
13588W        W81929  28.173  16.610   0.452
13589W        W81930  41.879  27.641   4.673
13590W        W81931  30.564  41.322   3.665
13591W        W81932  11.336  19.233  13.843
13592W        W81933  44.953   1.802  12.909
13593W        W81934  37.406   4.414   4.757
13594W        W81935  39.989  17.756  10.553
13595W        W81936   8.180  24.185   2.784
13596W        W81937   8.786  12.253   1.866
13597W        W81938  37.554  40.376   2.314
13598W        W81939  17.590  29.584  14.401
13599W        W81940  35.107  41.879  10.404
13600W        W81941   3.359  23.637   1.757
13601W        W81942   9.728  26.636  11.902
13602W        W81943  23.632  26.500  13.465
13603W        W81944   2.867  30.108   2.356
13604W        W81945  25.177   8.783   2.772
13605W        W81946  26.097   1.291   3.822
13606W        W81947  29.171  29.122   0.285
13607W        W81948   1.338  36.043   4.618
13608W        W81949  37.071   2.321  14.977
13609W        W81950   1.873   5.268   0.402
13610W        W81951  43.818   8.188  14.779
13611W        W81952  13.799  34.101   0.815
13612W        W81953   6.424  18.588  14.356
13613W        W81954  44.406  23.606  14.002
13614W        W81955   9.340  30.638  13.917
13615W        W81956  42.400  21.200   3.639
13616W        W81957  11.753  40.865  12.421
13617W        W81958   8.313   0.375   1.247
13618W        W81959  39.868   6.834   1.341
13619W        W81960  35.090  26.036   0.771
13620W        W81961  41.303  33.131  10.971
13621W        W81962  35.888  42.379   4.231
13622W        W81963  16.756  13.121  14.944
13623W        W81964  40.804  16.239   0.877
13624W        W81965  10.340  41.417  11.058
13625W        W81966  11.339  34.101  12.989
13626W        W81967  23.217   9.283   2.737
13627W        W81968   1.407  29.144  10.586
13628W        W81969  39.489   7.669   2.219
13629W        W81970  37.868   3.811  13.329
13630W        W81971   5.358  16.158   2.700
13631W        W81972  32.934  15.111  13.339
13632W        W81973  41.817  18.260  10.011
13633W        W81974  14.743  28.051  12.858
13634W        W81975  25.964  14.209   1.414
13635W        W81976  40.439  11.158   0.878
13636W        W81977  31.539  27.653   0.941
13637W        W81978  25.643   6.329  11.438
13638W        W81979  14.259  41.386   3.218
13639W        W81980  19.247  24.496   3.336
13640W        W81981   1.417  15.612   2.369
13641W        W81982  27.455  40.530   2.664
13642W        W81983  23.725  24.039  12.892
13643W        W81984  38.854  34.049  13.547
13644W        W81985  27.964  13.269  10.944
13645W        W81986   9.333  37.463   2.823
13646W        W81987  23.124   3.461  13.854
13647W        W81988  20.125  20.214  14.342
13648W        W81989  40.007  37.359  13.050
13649W        W81990  19.761  27.612   0.367
13650W        W81991  18.146   5.321  13.034
13651W        W81992  39.902  28.168  13.317
13652W        W81993  32.891  44.814   0.348
13653W        W81994  25.605   3.819  13.848
13654W        W81995  17.732  29.976  14.916
13655W        W81996  21.110  30.997  12.460
13656W        W81997  19.156  30.452  13.844
13657W        W81998   7.796   0.782  12.924
13658W        W81999  13.831  11.246   3.651
13659W        W82000  22.528  16.587   4.301
13660W        W82001  42.394   9.877  11.061
13661W        W82002  13.345  44.459   2.256
13662W        W82003  38.984  38.434  13.430
13663W        W82004  13.123  29.133   2.752
13664W        W82005  11.249  32.906   4.189
13665W        W82006   6.226  28.662   1.725
13666W        W82007  24.976  16.178  12.078
13667W        W82008   7.679  21.545  14.951
13668W        W82009   9.336  13.738  12.545
13669W        W82010  36.030  23.605  10.497
13670W        W82011  23.085  15.679  12.413
13671W        W82012  10.281  20.116  13.425
13672W        W82013   3.886  28.469   4.714
13673W        W82014  32.477  43.490  14.444
13674W        W82015  35.451  25.471   3.805
13675W        W82016  30.127  22.669  12.580
13676W        W82017   7.256  11.816  13.888
13677W        W82018   5.222  31.938  14.814
13678W        W82019  28.019  16.291   0.380
13679W        W82020   7.750  38.422   4.304
13680W        W82021  37.941  21.085   0.880
13681W        W82022  32.438  17.791  10.901
13682W        W82023  37.381  41.000  12.477
13683W        W82024  39.811  43.448   0.855
13684W        W82025  40.344  23.084  12.827
13685W        W82026  24.989   4.943   4.791
13686W        W82027  31.520   4.403  12.536
13687W        W82028  16.781  34.610   1.237
13688W        W82029  35.884  35.875   2.320
13689W        W82030  12.822   4.310  12.457
13690W        W82031   8.888  10.276   3.337
13691W        W82032  28.445  43.846  12.873
13692W        W82033  23.552   7.892  11.077
13693W        W82034  21.750  12.686  11.577
13694W        W82035  16.782  43.432   1.814
13695W        W82036  22.745  18.701  13.985
13696W        W82037  40.392  13.748  12.564
13697W        W82038  40.384  21.647   0.355
13698W        W82039  37.835   3.330   0.897
13699W        W82040  42.378  43.009  10.618
13700W        W82041  11.361  44.360   0.860
13701W        W82042  16.115  33.026  14.862
13702W        W82043  17.757  37.501  10.972
13703W        W82044   6.745  26.528   2.181
13704W        W82045  23.668  42.433  13.997
13705W        W82046  24.125   7.332   1.919
13706W        W82047  26.175  31.550  14.995
13707W        W82048   4.706  25.185  14.883
13708W        W82049  40.430   3.783   0.387
13709W        W82050  17.067   1.251  14.952
13710W        W82051  23.011   8.355   0.927
13711W        W82052  30.558   8.682   4.697
13712W        W82053  15.328  20.526   1.256
13713W        W82054   1.363   2.730  10.445
13714W        W82055  37.022  30.158   1.854
13715W        W82056  39.358  32.063   4.337
13716W        W82057  39.017  37.394   5.287
13717W        W82058  30.433  11.788  12.044
13718W        W82059  22.084  13.732  13.449
13719W        W82060  20.051  20.130   1.222
13720W        W82061  42.830  23.711  10.416
13721W        W82062  13.747  41.874  11.028
13722W        W82063   1.261  42.840   2.700
13723W        W82064   2.314   9.297  13.898
13724W        W82065  44.987  27.548   4.616
13725W        W82066  43.970  11.804   2.288
13726W        W82067  22.230  22.088   3.345
13727W        W82068   1.910  17.679  13.841
13728W        W82069  27.512  16.226   0.447
13729W        W82070  31.912  41.802  11.128
13730W        W82071   0.474  27.663  14.279
13731W        W82072  44.339  18.587  14.956
13732W        W82073  17.080  11.624   2.275
13733W        W82074  23.219  26.031  11.556
13734W        W82075  42.320  26.632  12.924
13735W        W82076  44.321  20.549  11.401
13736W        W82077  37.878  13.841  12.019
13737W        W82078  37.451   0.902   3.148
13738W        W82079  11.332  12.140  12.479
13739W        W82080  11.220  31.504  14.419
13740W        W82081  32.628  33.592  13.521
13741W        W82082  39.023  35.076   4.330
13742W        W82083  27.635   9.772   3.298
13743W        W82084  19.095  18.132   0.760
13744W        W82085  20.039   8.256  13.509
13745W        W82086  13.739  27.512  11.874
13746W        W82087  42.847   9.247  13.925
13747W        W82088  37.919  30.614   1.862
13748W        W82089  19.570  21.091   4.150
13749W        W82090   8.309   6.233  12.080
13750W        W82091  37.542   4.360   0.884
13751W        W82092  19.144  42.973  14.346
13752W        W82093  29.667  38.069   2.859
13753W        W82094  43.301   8.327  14.769
13754W        W82095  27.071  32.425  12.944
13755W        W82096  27.044  15.272   0.854
13756W        W82097  22.575   6.894   0.300
13757W        W82098  26.008  42.292  13.355
13758W        W82099  19.133  32.585  10.473
13759W        W82100  29.965  23.094  14.949
13760W        W82101  38.515  24.681   3.377
13761W        W82102   5.699  38.880  13.323
13762W        W82103  36.910   9.243   0.860
13763W        W82104  23.034  39.408   4.598
13764W        W82105  29.001  25.620   2.203
13765W        W82106  31.474   7.413   0.796
13766W        W82107   8.726  29.100  14.975
13767W        W82108  39.352  44.827   2.324
13768W        W82109   8.399  10.357   0.957
13769W        W82110   7.817  30.585   2.315
13770W        W82111  11.765  39.358  10.138
13771W        W82112  12.856   9.334  10.427
13772W        W82113  43.381  16.797   2.670
13773W        W82114  26.071  20.259   3.832
13774W        W82115   6.415  35.417  11.103
13775W        W82116   9.210  15.289  14.513
13776W        W82117  19.587  14.267   3.706
13777W        W82118  17.195  26.505   0.855
13778W        W82119  13.121  18.736   0.435
13779W        W82120  12.736  42.416  12.946
13780W        W82121  43.814  34.983  13.315
13781W        W82122  21.094  39.859  11.393
13782W        W82123  16.618  43.814   2.386
13783W        W82124  16.192  28.146  14.956
13784W        W82125  19.120   9.742  12.046
13785W        W82126   3.911  41.453   0.414
13786W        W82127  12.657  35.482  13.897
13787W        W82128  44.957  32.564  11.108
13788W        W82129  23.165  32.131  11.916
13789W        W82130  15.302  25.707  11.069
13790W        W82131  21.653  18.182   1.434
13791W        W82132  29.620   3.880   4.628
13792W        W82133  32.492   5.320   3.695
13793W        W82134   3.235  18.605  12.552
13794W        W82135  42.386  30.586   2.334
13795W        W82136  20.526   4.763  11.121
13796W        W82137  38.040  10.146  10.419
13797W        W82138  17.682  35.069  12.018
13798W        W82139   7.171   1.312   4.685
13799W        W82140  39.489  34.113  11.558
13800W        W82141   2.281  19.159  13.473
13801W        W82142  14.157   8.391   0.404
13802W        W82143  34.459  31.470  12.533
13803W        W82144  11.848  23.065   0.824
13804W        W82145  33.609   4.794   5.216
13805W        W82146  43.998   9.706   1.906
13806W        W82147  39.426  14.780   4.763
13807W        W82148  38.065  36.434   2.884
13808W        W82149  19.120  23.222   1.893
13809W        W82150  36.960  15.261   3.243
13810W        W82151  21.143  34.550   0.335
13811W        W82152  19.251  19.716  13.483
13812W        W82153  37.363  33.947   0.418
13813W        W82154  29.146  25.626   4.157
13814W        W82155  27.974   7.225  11.129
13815W        W82156  19.146   1.897   2.289
13816W        W82157  43.411  37.948   1.347
13817W        W82158   3.217  17.777   1.817
13818W        W82159  32.026  40.042   3.714
13819W        W82160  16.214   5.208   1.228
13820W        W82161  14.153  34.945   3.637
13821W        W82162   7.229  33.945   1.444
13822W        W82163   0.852  13.327  11.374
13823W        W82164  28.534  12.736   4.274
13824W        W82165  20.573  26.989   4.167
13825W        W82166   5.926   5.742  12.581
13826W        W82167  24.546  22.006  13.350
13827W        W82168   9.657  18.276   4.696
13828W        W82169  42.842   8.818   4.256
13829W        W82170  18.773  14.644   1.406
13830W        W82171   7.822  14.770   0.389
13831W        W82172  34.576   9.217   4.226
13832W        W82173  43.375  27.082   2.754
13833W        W82174  22.028  17.306   4.665
13834W        W82175   2.393  34.104   0.459
13835W        W82176  15.823  37.353   4.244
13836W        W82177  33.926  19.116  11.054
13837W        W82178  38.534   6.742  13.471
13838W        W82179  41.417  21.235  10.918
13839W        W82180  42.292  30.021   0.446
13840W        W82181   8.678  36.533   4.794
13841W        W82182  21.534  21.100   0.293
13842W        W82183   1.752   1.295   4.263
13843W        W82184  25.018  27.040  11.039
13844W        W82185  24.133  26.158  14.906
13845W        W82186  24.161  28.496   5.677
13846W        W82187  27.560  22.053   1.218
13847W        W82188   2.316  22.566  10.924
13848W        W82189  23.003  19.600   0.454
13849W        W82190  21.132  36.992  12.340
13850W        W82191  38.381  44.771  13.928
13851W        W82192  19.235  15.805  12.549
13852W        W82193  22.560   6.726  13.851
13853W        W82194  22.234  43.868  12.535
13854W        W82195   9.752  16.715   3.868
13855W        W82196  41.358  16.800  13.308
13856W        W82197  14.104  10.329   5.225
13857W        W82198  15.249  37.536  11.939
13858W        W82199  33.914  36.467  10.469
13859W        W82200   3.221   5.303  13.509
13860W        W82201  38.345   6.743  12.408
13861W        W82202  21.538  10.705  14.916
13862W        W82203  25.605  19.132   9.447
13863W        W82204   0.872  11.708   4.668
13864W        W82205  29.037  30.942   0.306
13865W        W82206  13.261  26.091  12.823
13866W        W82207  42.784  14.096  12.057
13867W        W82208  35.440   5.764   0.941
13868W        W82209  31.142  39.915   2.214
13869W        W82210  17.267  14.791   3.748
13870W        W82211   8.836  31.624  11.513
13871W        W82212   5.790   1.759  10.935
13872W        W82213  39.336   9.724   4.257
13873W        W82214  27.107  41.880   0.834
13874W        W82215  37.854  23.681  11.608
13875W        W82216  13.805   5.316   3.181
13876W        W82217  22.111  10.757  12.971
13877W        W82218  16.212  30.451   3.351
13878W        W82219  18.252  17.562  11.381
13879W        W82220  18.769  34.609   0.784
13880W        W82221  11.272   8.729  11.890
13881W        W82222  24.010  37.410  10.615
13882W        W82223  29.005   5.890   4.725
13883W        W82224  44.290  23.536   0.798
13884W        W82225  37.830  39.951  13.430
13885W        W82226  38.441  34.480  12.524
13886W        W82227  15.197   8.288  14.367
13887W        W82228  44.480   8.829  14.759
13888W        W82229  32.436  16.105  12.958
13889W        W82230  29.668  40.015   2.744
13890W        W82231  25.631  29.137  10.052
13891W        W82232  24.995   7.674  13.820
13892W        W82233  26.564   9.748   0.812
13893W        W82234   8.686  24.011  12.393
13894W        W82235  28.654  24.013  10.515
13895W        W82236   6.281  27.027  13.955
13896W        W82237  21.619  27.116   2.222
13897W        W82238  15.249  21.587   4.174
13898W        W82239  20.226  37.908   3.664
13899W        W82240  23.216   7.318   0.838
13900W        W82241  12.255  21.657  14.777
13901W        W82242  22.114  21.736   0.274
13902W        W82243  36.486  14.789   4.164
13903W        W82244   7.884  24.999  12.056
13904W        W82245  37.077  35.573  10.637
13905W        W82246   4.810  17.559   0.476
13906W        W82247  41.362  30.060  12.578
13907W        W82248  44.830  38.905   4.788
13908W        W82249  25.653  25.615  12.559
13909W        W82250  33.583  10.217   3.869
13910W        W82251  11.146  32.935   3.778
13911W        W82252  24.601  12.344   4.194
13912W        W82253   6.688  23.027  14.949
13913W        W82254  27.463  30.538   2.329
13914W        W82255  40.817  27.954  10.505
13915W        W82256  26.020   9.338  10.494
13916W        W82257   1.813  16.111   3.250
13917W        W82258   5.421  23.678   1.911
13918W        W82259   1.300  33.883   2.294
13919W        W82260   1.798  37.537  11.099
13920W        W82261  36.347  41.434   4.306
13921W        W82262  30.530   2.405   2.748
13922W        W82263  29.505   2.903  12.464
13923W        W82264  22.196  19.189   3.159
13924W        W82265   4.220  23.135  14.308
13925W        W82266  28.585  41.413  10.554
13926W        W82267  34.482  24.145   3.174
13927W        W82268  20.048  25.088   4.719
13928W        W82269   3.941  30.495   4.704
13929W        W82270   8.321  13.755  13.430
13930W        W82271  17.192  13.811  14.368
13931W        W82272  19.558  33.500  14.352
13932W        W82273  15.634  34.021  13.965
13933W        W82274  38.002  20.139  14.825
13934W        W82275  27.563  27.627  13.856
13935W        W82276  35.103  22.717   0.421
13936W        W82277  25.503  27.655   2.245
13937W        W82278  25.506  32.437  12.962
13938W        W82279   3.947  32.933  11.430
13939W        W82280  27.946  19.720  11.951
13940W        W82281   5.265  22.145   3.857
13941W        W82282  26.644  42.445  11.458
13942W        W82283   3.836   1.779   1.423
13943W        W82284  43.941  17.608  11.933
13944W        W82285  40.886  14.313   0.749
13945W        W82286  30.420  11.782  14.421
13946W        W82287   2.236  40.353  13.987
13947W        W82288  11.285   0.912   2.802
13948W        W82289   4.874   7.876   0.901
13949W        W82290  28.642  28.660  13.361
13950W        W82291  13.840  22.511   0.786
13951W        W82292  23.201   0.970  14.330
13952W        W82293  28.940  14.646   3.368
13953W        W82294  28.501  15.313  13.010
13954W        W82295   8.226  21.568  13.839
13955W        W82296  43.951  12.807  13.894
13956W        W82297  23.679   2.774  11.882
13957W        W82298  25.703  28.119   1.398
13958W        W82299   0.350   2.878   2.700
13959W        W82300  26.992   9.829  11.564
13960W        W82301  36.993   7.378  12.027
13961W        W82302  17.748   2.277  11.978
13962W        W82303  13.791  15.584  11.889
13963W        W82304  38.508  19.131  11.049
13964W        W82305  12.611   6.325   4.275
13965W        W82306  30.911  26.613  13.460
13966W        W82307  20.187  41.332   9.952
13967W        W82308  24.130  16.774   3.793
13968W        W82309   6.354  37.871  11.880
13969W        W82310  10.744   9.361  10.462
13970W        W82311  16.692   3.320  14.845
13971W        W82312  27.669  16.283  14.829
13972W        W82313  24.215  27.451   4.800
13973W        W82314  27.589  20.180   2.221
13974W        W82315  27.555  13.174  13.847
13975W        W82316   2.340   4.754  14.409
13976W        W82317  21.071   5.334  11.532
13977W        W82318  35.430  10.162   3.384
13978W        W82319  40.368   8.685  12.546
13979W        W82320  34.109   4.936  10.583
13980W        W82321  27.059  32.629  11.067
13981W        W82322   5.907  33.587   3.811
13982W        W82323   5.909   3.434   4.243
13983W        W82324   7.697  43.954   0.830
13984W        W82325  11.241   9.348   1.287
13985W        W82326  24.631  17.622   1.835
13986W        W82327  34.416   2.876   0.325
13987W        W82328   6.736  16.749  12.445
13988W        W82329   9.747   1.442  13.505
13989W        W82330   6.395   3.852  11.445
13990W        W82331  35.450  11.749  11.459
13991W        W82332   4.336  33.510   3.739
13992W        W82333  21.746   1.959  12.868
13993W        W82334  42.408  20.565  14.912
13994W        W82335  25.661  27.634   5.304
13995W        W82336  13.255  16.621  10.993
13996W        W82337  35.881  13.685  14.832
13997W        W82338  22.702  14.762   3.234
13998W        W82339  14.594  26.654   0.939
13999W        W82340  29.032   1.949  14.862
14000W        W82341  41.369  35.900   0.468
14001W        W82342   5.247  19.214   1.783
14002W        W82343  22.718  35.006  13.021
14003W        W82344   2.229  17.297  12.846
14004W        W82345  25.531  38.022   2.329
14005W        W82346  28.656   8.301  13.054
14006W        W82347  43.408   9.318   3.653
14007W        W82348   2.368  38.889  12.845
14008W        W82349  32.129   8.782   5.245
14009W        W82350  42.935  15.193  10.943
14010W        W82351  40.010   4.245   1.440
14011W        W82352  11.839   0.889  13.369
14012W        W82353  28.623  27.015  13.931
14013W        W82354  18.570  23.580   2.801
14014W        W82355  16.123   5.294   0.329
14015W        W82356   5.212  14.602   2.339
14016W        W82357  25.165  24.128  11.409
14017W        W82358  29.075  25.111   1.755
14018W        W82359   1.889  20.545   2.394
14019W        W82360  16.278  20.030   3.313
14020W        W82361  26.973  30.617  12.388
14021W        W82362   4.387   9.845  14.972
14022W        W82363  15.656  25.683  12.027
14023W        W82364  16.648  41.018   4.751
14024W        W82365   7.214  25.493   3.150
14025W        W82366  11.333  39.995   3.871
14026W        W82367   8.343   0.759  13.060
14027W        W82368  39.986  34.055   0.939
14028W        W82369  29.076  21.539   1.392
14029W        W82370  33.115  37.382   5.194
14030W        W82371  24.613  19.252  11.912
14031W        W82372   8.848  36.546   0.467
14032W        W82373  24.995   3.916  14.763
14033W        W82374  42.319  40.311  12.824
14034W        W82375  33.049  17.576   3.301
14035W        W82376  23.011  31.015   4.178
14036W        W82377  14.196   6.362   4.252
14037W        W82378   4.765  32.937  10.645
14038W        W82379  27.608  42.835   2.249
14039W        W82380  19.139  22.500   2.257
14040W        W82381  13.788  28.992   2.409
14041W        W82382  39.871  32.591   4.764
14042W        W82383  11.860  23.695   3.333
14043W        W82384  32.902  34.100   0.808
14044W        W82385  39.878  15.631   1.877
14045W        W82386  20.641  22.052   2.858
14046W        W82387  32.454  21.627   4.140
14047W        W82388  14.760   0.930  11.952
14048W        W82389  25.526  44.472   4.227
14049W        W82390  11.271  23.188   1.281
14050W        W82391  32.073  17.697  14.308
14051W        W82392  21.211  26.687   0.812
14052W        W82393  40.798  39.543  14.821
14053W        W82394  10.712  38.431   3.240
14054W        W82395  22.093  30.415   0.809
14055W        W82396  44.332  20.029  12.391
14056W        W82397  43.491  38.848   4.242
14057W        W82398  41.412  35.523   4.123
14058W        W82399  16.686  29.159   2.725
14059W        W82400  19.567  44.992   3.820
14060W        W82401  42.979  35.977  12.380
14061W        W82402  39.062  34.580   4.731
14062W        W82403   8.870  26.134   3.375
14063W        W82404   8.249  16.811  14.393
14064W        W82405   8.789  34.111  12.933
14065W        W82406  39.531  27.997   0.423
14066W        W82407   9.706   6.386   4.721
14067W        W82408  33.978  21.219  12.878
14068W        W82409  23.553  23.534   1.300
14069W        W82410  10.687  41.514  13.911
14070W        W82411  38.936  24.230  11.380
14071W        W82412  23.720  27.120   2.823
14072W        W82413   0.850  14.799  10.937
14073W        W82414  17.653  25.640  14.468
14074W        W82415  13.234  41.439  13.307
14075W        W82416  41.804  21.698  10.541
14076W        W82417  29.633  39.914  14.823
14077W        W82418   2.235  20.572   1.695
14078W        W82419  36.902  38.975   1.432
14079W        W82420  34.445   9.732   0.246
14080W        W82421  37.910  40.808  12.927
14081W        W82422  28.945  11.313   2.700
14082W        W82423  25.097   7.821   1.863
14083W        W82424  30.966  38.055   2.271
14084W        W82425  19.250  32.564  11.530
14085W        W82426  33.039   6.212   3.305
14086W        W82427   2.864  18.593  14.836
14087W        W82428  27.175   3.375  11.975
14088W        W82429  10.733  32.907   3.664
14089W        W82430  38.506  32.990   4.662
14090W        W82431  43.273  17.557   2.694
14091W        W82432  29.526   9.213   3.259
14092W        W82433  27.572   5.759  14.821
14093W        W82434   3.948  18.293   1.842
14094W        W82435  22.538  41.525  14.360
14095W        W82436   2.458  33.394   2.238
14096W        W82437   9.361  36.988   4.607
14097W        W82438  29.168  44.266   3.639
14098W        W82439  16.689   8.320  14.921
14099W        W82440  38.497  41.011  10.616
14100W        W82441  42.413  36.409  10.524
14101W        W82442   4.240  18.685   5.320
14102W        W82443  30.158  40.423   4.768
14103W        W82444  40.324  12.759   2.373
14104W        W82445  44.425  38.473  12.471
14105W        W82446  10.287   3.439  12.539
14106W        W82447  27.074  37.841  10.501
14107W        W82448  35.988  39.042  10.485
14108W        W82449  36.375  38.935   2.323
14109W        W82450  31.410  38.360  14.022
14110W        W82451  18.783  39.939   4.160
14111W        W82452  43.888   8.374  13.041
14112W        W82453  43.798  17.738  13.347
14113W        W82454  43.930  44.453   0.938
14114W        W82455  38.456  14.128  10.925
14115W        W82456  41.891  25.968  10.637
14116W        W82457  32.603  26.630   0.351
14117W        W82458  32.429  42.019   3.324
14118W        W82459  16.614  40.005   2.366
14119W        W82460  36.963  44.494   4.309
14120W        W82461  18.163  43.320   1.216
14121W        W82462  20.120  33.903  13.396
14122W        W82463  19.223  27.510   2.863
14123W        W82464  31.546  39.808   2.412
14124W        W82465   2.378  43.999  11.390
14125W        W82466  21.652  37.987  14.476
14126W        W82467  29.656  16.694   1.210
14127W        W82468  23.563   0.273   0.812
14128W        W82469   2.256  18.660   2.292
14129W        W82470  44.968  33.423  13.799
14130W        W82471  13.799  14.301  12.378
14131W        W82472  21.695  24.119  14.482
14132W        W82473  44.936   7.831  12.504
14133W        W82474  21.562  25.623  13.390
14134W        W82475  43.499  43.419  14.359
14135W        W82476  27.580  15.705  14.312
14136W        W82477  17.108   8.355   1.887
14137W        W82478  29.523  16.228   3.730
14138W        W82479  44.342  32.901  14.414
14139W        W82480  24.531   3.316   1.214
14140W        W82481  10.705  24.079   1.820
14141W        W82482  24.560  28.507   0.761
14142W        W82483   4.882  22.043   1.841
14143W        W82484   9.362   7.264  13.477
14144W        W82485  24.025   7.371  12.429
14145W        W82486  12.721   4.392  14.509
14146W        W82487  30.013  29.631   0.262
14147W        W82488   9.873   7.175  11.476
14148W        W82489  17.802   9.227   3.176
14149W        W82490   8.847  11.781   1.832
14150W        W82491  21.256  11.152  11.101
14151W        W82492  28.560  11.332  11.096
14152W        W82493  11.336  43.779   2.817
14153W        W82494  43.008  13.735  14.412
14154W        W82495   3.729  15.642  11.541
14155W        W82496  11.131  18.190   3.783
14156W        W82497  34.508  44.314  10.622
14157W        W82498   0.347  26.484   4.773
14158W        W82499  29.595  36.856   0.401
14159W        W82500   1.393  26.028   2.776
14160W        W82501  28.118  32.411  11.597
14161W        W82502  22.710   3.789  12.454
14162W        W82503   4.792  39.852  11.923
14163W        W82504  29.101  12.801  13.504
14164W        W82505  11.308  26.626  11.394
14165W        W82506  14.617  29.025  14.837
14166W        W82507  35.988  29.659   0.877
14167W        W82508  15.626   4.746  10.434
14168W        W82509  26.576   0.462   3.856
14169W        W82510   4.794  16.110   0.884
14170W        W82511  38.916  43.400  11.455
14171W        W82512  17.755  23.522   1.874
14172W        W82513  15.295  41.950  14.377
14173W        W82514  24.056  26.627   1.219
14174W        W82515  11.176  15.295   2.867
14175W        W82516  30.611   1.890   3.784
14176W        W82517   4.833  12.706   3.681
14177W        W82518  34.071  29.123   2.732
14178W        W82519  22.633  37.892   0.362
14179W        W82520   8.868  11.177   4.704
14180W        W82521   7.800  32.079   0.946
14181W        W82522  22.055  20.196   1.733
14182W        W82523  32.033  31.924   1.704
14183W        W82524  37.069  36.869   4.118
14184W        W82525  36.022  28.519  12.831
14185W        W82526  30.110   7.855  14.023
14186W        W82527   6.742  29.574   0.274
14187W        W82528   7.292  37.498   1.342
14188W        W82529  39.882  39.551  12.426
14189W        W82530  16.747  13.268  10.426
14190W        W82531  27.509  36.422   3.813
14191W        W82532  34.929  21.612   1.727
14192W        W82533  20.751  24.634   1.216
14193W        W82534  23.672  43.775  14.906
14194W        W82535  17.693   8.341   0.401
14195W        W82536  23.620  21.050  12.902
14196W        W82537  11.290  10.336  14.495
14197W        W82538  11.758  31.518  13.885
14198W        W82539  21.249  44.461  12.825
14199W        W82540  27.013  40.372   4.134
14200W        W82541  18.188  24.105  10.056
14201W        W82542   2.959   3.453  14.824
14202W        W82543  38.518   6.801   2.902
14203W        W82544  34.468   4.881  13.331
14204W        W82545  26.540   9.772   3.718
14205W        W82546  41.495  39.320   1.908
14206W        W82547  10.649   0.252  12.372
14207W        W82548  25.091  44.500  12.540
14208W        W82549  15.695   8.227   4.654
14209W        W82550  44.300  16.291   1.775
14210W        W82551  21.159  16.576   0.289
14211W        W82552  13.315   2.797   4.334
14212W        W82553  44.832  34.016   1.846
14213W        W82554   9.868  25.041  12.378
14214W        W82555  28.656  39.330   4.268
14215W        W82556  30.621  14.210  13.487
14216W        W82557  30.913  31.990  14.893
14217W        W82558  19.736  39.911   2.352
14218W        W82559  14.256  11.778  10.592
14219W        W82560  18.649  38.074  13.330
14220W        W82561  27.684  25.991   2.873
14221W        W82562   4.405  33.967  13.332
14222W        W82563  33.894  23.579  14.784
14223W        W82564  22.675  30.569   2.256
14224W        W82565  28.071  10.872   0.883
14225W        W82566  13.140  42.522  10.591
14226W        W82567  25.049   5.423   1.774
14227W        W82568  41.536  39.536  11.598
14228W        W82569  42.963  15.265   4.789
14229W        W82570  20.527  28.148   4.720
14230W        W82571   5.894  31.467  11.556
14231W        W82572  19.687  15.295  14.980
14232W        W82573  20.610  21.224  10.152
14233W        W82574  18.554  38.053  14.906
14234W        W82575   7.407  18.692   2.402
14235W        W82576  10.723   9.717  14.414
14236W        W82577  41.359  20.193  12.393
14237W        W82578   3.809   6.697   0.338
14238W        W82579  25.087  38.335   0.265
14239W        W82580  28.468  26.186  11.388
14240W        W82581  15.803   4.793  12.468
14241W        W82582   9.767  25.619   2.355
14242W        W82583  35.981   4.857   0.317
14243W        W82584  17.207  15.210  12.346
14244W        W82585  36.032  27.172  13.410
14245W        W82586  29.496   9.879  13.927
14246W        W82587  19.571  22.170   0.784
14247W        W82588  11.291   5.775  10.630
14248W        W82589  32.994   8.654  10.993
14249W        W82590  28.521  21.043   4.817
14250W        W82591  32.082  24.097  11.381
14251W        W82592  10.358  28.562  13.890
14252W        W82593  25.613  20.248   4.199
14253W        W82594  39.828  22.722   1.246
14254W        W82595  37.391  35.102  13.818
14255W        W82596  27.562   9.679   3.809
14256W        W82597  22.721  33.526   2.221
14257W        W82598  13.322  28.114  12.940
14258W        W82599  26.988  33.619  11.991
14259W        W82600  39.955  18.248   2.345
14260W        W82601   3.766  13.668  14.845
14261W        W82602  34.964   5.330  12.959
14262W        W82603  36.408  31.041   3.746
14263W        W82604  40.025   1.744   3.359
14264W        W82605  20.048  24.228  12.827
14265W        W82606  26.497  30.474  13.971
14266W        W82607  39.333  36.913   4.244
14267W        W82608  16.254   9.165   2.701
14268W        W82609   8.672  34.447   0.299
14269W        W82610  12.171  29.088   4.648
14270W        W82611   1.939  11.249  14.905
14271W        W82612  23.224   8.207   3.153
14272W        W82613  43.354  37.877  11.113
14273W        W82614  40.806  16.580   2.346
14274W        W82615  39.005  15.815  13.957
14275W        W82616  15.183   6.334   3.715
14276W        W82617  24.538  21.137   4.802
14277W        W82618  19.706  14.824  14.897
14278W        W82619  31.586  32.118  10.609
14279W        W82620   0.910  38.865  10.891
14280W        W82621  20.719   1.788   2.750
14281W        W82622  24.703  27.171  12.091
14282W        W82623  16.145  19.165   1.375
14283W        W82624  28.637  25.552  10.450
14284W        W82625  16.676  25.984  11.540
14285W        W82626  42.523  42.798  13.368
14286W        W82627  26.540  30.983  14.946
14287W        W82628   6.340  28.541  12.067
14288W        W82629  22.227  25.707   1.907
14289W        W82630   8.304  10.810   0.414
14290W        W82631  27.637  21.081   2.308
14291W        W82632  29.635   8.778   3.653
14292W        W82633  27.120  29.657  13.050
14293W        W82634  13.169  22.658  13.380
14294W        W82635  37.865  11.621   2.404
14295W        W82636  34.506  20.186   4.130
14296W        W82637  21.227  27.953   1.818
14297W        W82638  14.832  28.952   2.898
14298W        W82639  38.923   3.401  12.493
14299W        W82640  40.493  42.809   0.767
14300W        W82641  23.038   6.883   3.302
14301W        W82642   4.813   0.932  13.845
14302W        W82643  17.738   4.427  11.940
14303W        W82644  44.998   5.815   0.461
14304W        W82645   3.955  40.899   4.140
14305W        W82646  44.302   7.719  14.307
14306W        W82647  13.226  18.764   2.195
14307W        W82648   6.272  43.019   5.277
14308W        W82649  17.100   4.922  11.591
14309W        W82650  21.608  35.522  13.961
14310W        W82651   2.862  34.478  13.976
14311W        W82652  24.199   3.729  11.080
14312W        W82653   0.279  20.049  11.498
14313W        W82654  15.215  35.004   5.289
14314W        W82655   7.707  35.954  11.611
14315W        W82656  17.696  35.360  11.439
14316W        W82657  30.505  24.109   1.342
14317W        W82658  25.075  43.803   2.242
14318W        W82659  25.179  41.522   3.806
14319W        W82660  31.470  11.285   0.891
14320W        W82661  27.620  10.272  10.922
14321W        W82662   7.862  18.096   4.139
14322W        W82663  11.702  20.040  12.461
14323W        W82664  23.025  33.465   4.198
14324W        W82665   5.293   6.819   0.964
14325W        W82666  10.736   8.316   3.687
14326W        W82667   9.683  31.135  11.498
14327W        W82668  19.739  26.653  11.021
14328W        W82669  20.252  10.747   1.745
14329W        W82670  41.896  30.996   0.279
14330W        W82671   0.743  17.083   4.628
14331W        W82672  37.043  43.809  11.399
14332W        W82673   5.314   9.649  13.443
14333W        W82674  27.069  42.836  12.895
14334W        W82675  40.935  29.647  14.342
14335W        W82676  40.006  31.535  14.789
14336W        W82677  26.596  36.572  10.481
14337W        W82678  36.887  40.366  10.903
14338W        W82679  16.166  10.379  12.040
14339W        W82680  39.847  39.938  14.504
14340W        W82681   2.290  20.143   5.308
14341W        W82682  15.592   0.425   1.220
14342W        W82683  14.257  34.527  13.511
14343W        W82684  29.986  32.111  14.343
14344W        W82685  31.977  13.802   3.358
14345W        W82686  11.639   4.433  12.964
14346W        W82687  24.137   1.473  13.974
14347W        W82688   7.298  11.139   1.337
14348W        W82689  36.081  11.638  11.387
14349W        W82690  36.516  11.844  10.058
14350W        W82691  32.553  30.454  11.887
14351W        W82692   9.186  27.143  13.436
14352W        W82693  23.533  13.750   3.186
14353W        W82694  27.166  36.874   2.257
14354W        W82695  25.109  29.621  10.093
14355W        W82696  32.472  21.162  11.436
14356W        W82697   6.751   5.910   0.897
14357W        W82698   7.242  16.208   2.898
14358W        W82699  12.722  26.600   0.420
14359W        W82700  27.475  40.969   3.760
14360W        W82701  35.586  32.458   1.212
14361W        W82702  11.266  38.392   4.693
14362W        W82703  24.227  21.183   9.977
14363W        W82704   0.298  32.940  14.907
14364W        W82705  37.377  22.172   2.723
14365W        W82706  44.280   1.894  11.410
14366W        W82707  15.215  19.104  12.453
14367W        W82708  16.755   2.331   0.807
14368W        W82709  37.573  37.006  13.336
14369W        W82710   7.194  21.071   4.644
14370W        W82711  39.031  35.432  14.792
14371W        W82712  27.558  23.136   0.390
14372W        W82713  31.548  29.051   4.174
14373W        W82714  34.933  36.039  14.929
14374W        W82715  12.266  11.148   4.682
14375W        W82716   3.292  43.380  12.443
14376W        W82717  26.569  33.591   1.741
14377W        W82718  25.521  34.094   1.396
14378W        W82719   7.249  25.063  12.559
14379W        W82720  24.095  28.137   0.388
14380W        W82721   9.292   1.740   0.472
14381W        W82722  15.139  12.196  13.369
14382W        W82723  28.080  15.682   4.201
14383W        W82724   2.740   2.864   4.286
14384W        W82725  22.605   5.413  13.379
14385W        W82726  25.569   0.452  14.893
14386W        W82727  30.128  16.807  12.946
14387W        W82728  40.884  37.535   0.823
14388W        W82729   4.863  28.536  10.906
14389W        W82730  23.025  40.483  11.047
14390W        W82731   8.275  21.178   4.743
14391W        W82732  40.441  12.339  11.877
14392W        W82733  31.109  26.086  10.572
14393W        W82734  44.381  29.963   2.731
14394W        W82735  31.431  22.653   2.207
14395W        W82736  42.328  41.813   4.173
14396W        W82737  10.876  37.905   0.260
14397W        W82738   2.825  40.500   4.627
14398W        W82739  18.564  13.180   0.966
14399W        W82740  21.211   9.214  14.821
14400W        W82741  36.553  33.475  10.145
14401W        W82742   4.945  25.063   3.333
14402W        W82743  12.687   2.229   4.122
14403W        W82744  32.025  34.406   1.885
14404W        W82745  20.668   4.313   4.724
14405W        W82746   1.969  17.712   2.232
14406W        W82747  38.332  39.942   1.339
14407W        W82748  19.243  44.348   4.646
14408W        W82749   1.257  33.424  12.877
14409W        W82750   1.346  17.610  13.408
14410W        W82751   1.896  33.467   0.929
14411W        W82752  15.648  29.464   2.816
14412W        W82753   1.856  26.496  10.533
14413W        W82754   5.331  17.598  10.942
14414W        W82755   4.339  36.542   0.942
14415W        W82756   6.291  24.535  13.388
14416W        W82757  41.327   3.372   0.251
14417W        W82758  34.100  10.746  12.446
14418W        W82759  28.581   4.225  11.115
14419W        W82760   5.810  36.470  11.517
14420W        W82761  16.671  19.601  10.928
14421W        W82762  28.004  43.362  11.382
14422W        W82763  41.824  18.170   4.615
14423W        W82764  34.916  37.551  12.074
14424W        W82765  15.191   5.397  13.520
14425W        W82766  10.251   5.319  11.912
14426W        W82767  14.175  28.642  13.831
14427W        W82768   6.867  24.700  10.502
14428W        W82769  12.116  20.656  11.949
14429W        W82770  38.909  41.384   2.867
14430W        W82771  32.556  17.130   2.186
14431W        W82772   5.394  41.015  11.585
14432W        W82773   6.219  31.132   3.294
14433W        W82774  22.101  14.310   5.301
14434W        W82775  23.139   7.388  11.863
14435W        W82776   7.331  12.187  11.075
14436W        W82777  34.533  13.653   4.633
14437W        W82778  24.158  29.115  14.318
14438W        W82779   0.437   4.280  11.924
14439W        W82780  24.541  34.597   4.735
14440W        W82781  39.862  44.357  12.867
14441W        W82782  41.885  30.517  11.610
14442W        W82783  14.230   9.189   3.691
14443W        W82784  41.412  15.144   1.777
14444W        W82785   5.781   7.204  11.059
14445W        W82786  43.893   7.885  14.957
14446W        W82787  33.489  42.436  11.462
14447W        W82788   3.722  25.551   1.272
14448W        W82789  19.717  31.919   3.181
14449W        W82790  39.826  35.432  13.005
14450W        W82791  18.288  40.406  11.608
14451W        W82792  41.462  34.925   1.906
14452W        W82793  17.190   4.326  12.062
14453W        W82794  12.770  44.846   4.307
14454W        W82795  42.924  37.407  10.458
14455W        W82796  36.474   4.211  13.912
14456W        W82797  35.999  10.273   4.315
14457W        W82798  31.634  25.119  14.406
14458W        W82799   0.440   8.899   4.308
14459W        W82800  29.448  12.837   9.951
14460W        W82801  16.630  18.665   3.848
14461W        W82802   5.333  17.270  12.881
14462W        W82803  12.762  41.496   1.442
14463W        W82804   2.237  21.027  14.907
14464W        W82805  38.850   6.766  12.477
14465W        W82806  31.517  31.620   3.168
14466W        W82807   7.751   8.673  14.859
14467W        W82808  26.507  11.687   0.883
14468W        W82809  14.249  22.139  11.464
14469W        W82810  44.769  40.445  12.977
14470W        W82811  10.171   0.322   4.644
14471W        W82812  42.469  19.264  12.579
14472W        W82813  25.059   8.255  13.391
14473W        W82814  27.565  32.462   1.437
14474W        W82815  29.015  18.247  12.884
14475W        W82816  21.188  37.373   3.242
14476W        W82817  40.927  16.766   0.445
14477W        W82818  22.121   6.802   2.900
14478W        W82819  29.541  31.646  13.372
14479W        W82820  42.506  41.022  14.009
14480W        W82821  44.759  25.163  13.540
14481W        W82822  37.347  16.710   9.935
14482W        W82823  26.065  31.488  12.984
14483W        W82824  22.145   8.384  10.477
14484W        W82825  18.552  43.967   2.841
14485W        W82826  18.129  34.536  12.575
14486W        W82827  30.483  38.474  11.023
14487W        W82828  24.059  17.158   0.916
14488W        W82829  19.568  20.171  14.282
14489W        W82830   3.799  30.085  11.411
14490W        W82831  19.207  21.747   5.162
14491W        W82832  29.476  39.938   3.784
14492W        W82833  30.984   7.718   2.331
14493W        W82834  22.169  17.120  14.837
14494W        W82835   3.458  10.344  10.498
14495W        W82836  16.079  13.692  14.018
14496W        W82837  44.870  11.829   2.879
14497W        W82838  23.127  21.175  10.948
14498W        W82839   4.802  32.417  14.791
14499W        W82840   9.705   8.180   3.810
14500W        W82841  23.133  37.969   1.750
14501W        W82842  27.057  36.438   3.644
14502W        W82843   7.665  35.418  14.423
14503W        W82844  21.631  44.941   1.771
14504W        W82845  30.550   7.865  14.927
14505W        W82846   1.430  41.993  10.969
14506W        W82847  34.034   6.688   1.732
14507W        W82848  26.955   2.456   2.186
14508W        W82849   6.817  25.521  14.974
14509W        W82850  40.835  15.594  12.911
14510W        W82851  40.347  36.914   1.408
14511W        W82852  42.967  25.105   2.853
14512W        W82853  43.772  35.994   1.312
14513W        W82854  32.575   8.361  12.900
14514W        W82855  14.597  17.611  10.515
14515W        W82856   7.331   6.335  13.020
14516W        W82857  33.498   5.786  13.941
14517W        W82858  24.479  42.426  12.503
14518W        W82859  44.000  16.077  13.988
14519W        W82860  10.714  38.348   0.391
14520W        W82861  23.627  33.941  12.432
14521W        W82862  40.453  18.632   3.242
14522W        W82863  22.236  24.612  10.636
14523W        W82864  10.378  12.191  11.409
14524W        W82865  24.551   9.209  11.912
14525W        W82866  40.809  43.299  12.515
14526W        W82867  28.524  35.012  13.918
14527W        W82868  22.671  15.160  10.038
14528W        W82869   2.770   9.829  12.946
14529W        W82870  29.467  20.599   1.786
14530W        W82871  25.198  42.987   3.673
14531W        W82872  28.549  21.029  14.390
14532W        W82873   3.295  31.925   2.807
14533W        W82874   9.724  12.202  11.507
14534W        W82875  23.698  12.637  12.908
14535W        W82876   5.718  20.589  14.356
14536W        W82877  20.624  41.379   4.676
14537W        W82878  18.742   1.892  10.410
14538W        W82879   0.897   3.376  11.872
14539W        W82880  16.616  31.030  14.343
14540W        W82881  12.208  35.949   4.343
14541W        W82882   7.745   7.886   3.187
14542W        W82883  42.906   7.878  13.392
14543W        W82884   5.207   4.826   1.217
14544W        W82885  32.555  34.386   0.961
14545W        W82886  22.125  30.155   1.235
14546W        W82887   1.391  16.088  14.776
14547W        W82888  13.290   7.865  12.036
14548W        W82889  21.258  38.060  10.908
14549W        W82890  35.390  41.922  14.332
14550W        W82891  38.364  35.872  11.459
14551W        W82892  11.751  28.130  13.357
14552W        W82893  23.614  24.609   3.217
14553W        W82894  33.063  38.504   2.782
14554W        W82895  16.708  31.499  12.531
14555W        W82896  26.137  38.560   1.748
14556W        W82897  23.023  15.785   1.724
14557W        W82898  42.990   6.384  14.861
14558W        W82899   2.886  15.649   3.655
14559W        W82900  43.004   2.760  12.942
14560W        W82901  32.544   1.801   1.787
14561W        W82902   9.793  34.495   2.873
14562W        W82903   2.860   6.373  14.994
14563W        W82904  13.183  27.560  14.425
14564W        W82905   9.741  13.769  14.292
14565W        W82906  16.274  39.948   0.908
14566W        W82907  22.228   2.265   4.708
14567W        W82908  32.465   3.372  11.975
14568W        W82909   7.685  13.818  14.503
14569W        W82910  19.091  23.588  10.518
14570W        W82911  18.726  21.741  12.542
14571W        W82912   5.240  14.236  11.124
14572W        W82913  32.021   9.315   2.872
14573W        W82914   2.902   4.390  13.971
14574W        W82915   7.839  19.140   1.732
14575W        W82916  10.860  25.027  13.833
14576W        W82917   2.318  33.548  12.062
14577W        W82918  13.229   1.467  13.879
14578W        W82919  24.598  20.738   4.753
14579W        W82920  22.047  43.938  14.958
14580W        W82921  28.523  42.967  12.063
14581W        W82922   4.264  28.638   4.301
14582W        W82923  29.018  33.089  12.978
14583W        W82924  18.736   4.260  10.507
14584W        W82925  36.995  32.968  14.444
14585W        W82926  11.751  11.845   3.235
14586W        W82927  12.301  11.239  14.994
14587W        W82928  27.457   5.412  12.552
14588W        W82929  22.723  31.152  14.979
14589W        W82930   1.276  16.569   4.829
14590W        W82931  21.174  20.216   0.283
14591W        W82932  25.709  43.997   3.291
14592W        W82933  12.188  13.262   2.808
14593W        W82934  36.356  38.832   3.158
14594W        W82935  19.608  28.005  11.892
14595W        W82936  14.311  42.442   2.777
14596W        W82937   8.788  34.929   5.171
14597W        W82938   3.348  15.743  12.916
14598W        W82939  12.274  12.238  10.562
14599W        W82940  38.947  34.026   2.216
14600W        W82941  42.922  32.487  12.378
14601W        W82942  11.136  12.268   1.925
14602W        W82943  19.651   4.259  12.427
14603W        W82944  38.046   6.888   4.762
14604W        W82945   8.370  11.860  14.281
14605W        W82946   8.769  29.060   4.824
14606W        W82947  41.299  43.422  11.973
14607W        W82948  27.036  31.421   3.333
14608W        W82949  23.610  39.832   2.280
14609W        W82950  40.839  28.182   0.332
14610W        W82951  11.793  30.032  10.591
14611W        W82952  30.144  10.678  11.083
14612W        W82953  16.133  24.666  13.964
14613W        W82954  32.592  29.563   2.412
14614W        W82955  21.185   3.816  14.931
14615W        W82956  13.257  30.963   3.255
14616W        W82957  10.776   0.779  12.001
14617W        W82958   2.409  29.143  10.562
14618W        W82959  44.333  14.129  13.932
14619W        W82960  20.635   2.818  10.564
14620W        W82961  34.588  18.591   0.440
14621W        W82962   8.871  38.503  11.510
14622W        W82963  36.915  23.134   1.326
14623W        W82964   1.923  10.811   0.877
14624W        W82965  36.012  15.185  14.488
14625W        W82966  40.968  12.849  14.919
14626W        W82967  34.425  32.479   4.271
14627W        W82968  24.984  42.336   3.380
14628W        W82969  10.777  34.407  12.861
14629W        W82970  34.079  19.147   0.413
14630W        W82971  39.343  26.138  12.944
14631W        W82972   2.808  10.272  14.908
14632W        W82973  36.447  34.096  12.346
14633W        W82974  26.519  16.175  14.345
14634W        W82975  40.342  32.035  14.856
14635W        W82976   8.875  35.493  13.975
14636W        W82977  27.978   2.885   4.262
14637W        W82978  40.541  37.559  11.503
14638W        W82979  15.717  42.352  12.418
14639W        W82980   4.736   3.930   2.178
14640W        W82981   5.304  42.516   4.600
14641W        W82982  20.547  30.020   0.750
14642W        W82983  38.543  11.843  10.639
14643W        W82984   2.874  25.209   4.227
14644W        W82985  18.659  20.534   4.175
14645W        W82986  34.097  16.204  14.009
14646W        W82987  12.307  10.263   0.906
14647W        W82988  25.667  32.579  11.892
14648W        W82989   1.354   1.911  11.530
14649W        W82990  43.799  28.549   3.833
14650W        W82991  19.114  41.975  14.488
14651W        W82992  36.889  40.953  14.843
14652W        W82993  38.538  43.361   4.689
14653W        W82994  35.896   0.456   1.758
14654W        W82995  38.988  18.664  14.893
14655W        W82996  22.209  16.136   1.423
14656W        W82997  43.426   0.281  10.948
14657W        W82998  29.567  33.006   2.417
14658W        W82999  19.261  17.239   1.812
14659W        W83000  38.419  37.904   0.901
14660W        W83001  15.233   6.778   0.481
14661W        W83002  15.636  38.855  12.502
14662W        W83003  38.946  36.441   1.864
14663W        W83004   7.839  19.655  11.407
14664W        W83005   9.665   9.874  14.945
14665W        W83006  43.309  16.784  14.761
14666W        W83007  25.539  44.413  12.384
14667W        W83008  26.152   4.406  11.373
14668W        W83009   8.211  40.847  10.942
14669W        W83010  23.543   9.211   2.714
14670W        W83011   1.361  13.149   3.306
14671W        W83012  19.775  21.056  13.064
14672W        W83013   3.355   0.442   4.701
14673W        W83014  40.009  21.708  12.010
14674W        W83015  29.440  20.164   0.916
14675W        W83016  27.654   4.749  11.987
14676W        W83017   5.894  25.121  14.369
14677W        W83018  18.170  24.531  13.976
14678W        W83019  36.922  12.128  11.970
14679W        W83020  25.143   4.741   1.727
14680W        W83021   3.747  14.293   3.208
14681W        W83022  28.049  32.611   1.894
14682W        W83023  26.107   8.867  12.494
14683W        W83024  10.671   1.348   0.892
14684W        W83025  20.204  39.954  10.464
14685W        W83026  10.257  39.521  14.280
14686W        W83027  14.193  11.203   2.888
14687W        W83028  24.605  41.368  13.384
14688W        W83029  28.017  38.440  14.847
14689W        W83030  25.637  26.589   1.346
14690W        W83031  29.510  31.451  14.906
14691W        W83032  13.126  40.981  14.961
14692W        W83033  41.941  21.067  13.378
14693W        W83034   1.403  11.128  11.977
14694W        W83035  34.996  43.855   1.222
14695W        W83036   1.899   9.704   3.193
14696W        W83037  18.584  33.611   0.961
14697W        W83038   2.886   9.332  10.931
14698W        W83039  34.067   8.720   2.672
14699W        W83040  44.794   4.295   4.256
14700W        W83041   4.364  40.487  13.515
14701W        W83042   7.831   8.866  14.377
14702W        W83043  42.830  32.405  13.491
14703W        W83044  22.053  27.636   4.164
14704W        W83045   3.287  17.790  10.468
14705W        W83046  21.572  41.856   2.317
14706W        W83047   7.812  34.075   4.832
14707W        W83048  40.478   0.262   1.912
14708W        W83049  38.836  29.130   4.328
14709W        W83050   8.795  16.582   0.850
14710W        W83051   6.424  35.515   1.319
14711W        W83052  15.665   5.254  10.514
14712W        W83053  30.636  11.781   1.787
14713W        W83054  22.040   4.830  11.872
14714W        W83055  26.066  24.204  13.399
14715W        W83056  43.018  41.999   3.642
14716W        W83057   2.421   2.372   0.735
14717W        W83058  27.524  27.016   4.193
14718W        W83059  30.559  24.189   0.357
14719W        W83060  15.748  24.510  13.942
14720W        W83061  37.839  33.589   3.794
14721W        W83062  31.637  26.643   4.274
14722W        W83063   1.929  41.953   1.263
14723W        W83064   2.885   6.883  13.414
14724W        W83065  41.938   1.349  13.839
14725W        W83066  20.053  36.872  11.913
14726W        W83067  24.217  39.989  12.054
14727W        W83068  11.738  31.515  10.625
14728W        W83069  32.584   0.846   0.441
14729W        W83070  31.971  44.767   4.727
14730W        W83071  30.054  19.211   3.723
14731W        W83072  13.250   3.279   5.269
14732W        W83073  12.735  26.078  14.342
14733W        W83074  18.236  24.479   1.360
14734W        W83075  10.193  34.063   3.217
14735W        W83076  26.986  19.148   3.780
14736W        W83077  34.939  14.311  14.896
14737W        W83078  43.978   8.834   2.267
14738W        W83079  30.453  35.891  13.376
14739W        W83080  23.614   7.280  14.326
14740W        W83081  12.214  18.594  13.890
14741W        W83082   8.167  32.574   0.920
14742W        W83083  27.091   3.743  14.475
14743W        W83084  29.107  23.491   0.894
14744W        W83085  34.902  10.353   3.674
14745W        W83086  30.161  15.287  14.454
14746W        W83087  27.167  40.957   4.247
14747W        W83088  12.658  38.847   3.821
14748W        W83089  13.147  17.123  13.345
14749W        W83090  40.032  14.294  12.518
14750W        W83091  40.813  25.026  13.929
14751W        W83092  42.881  38.958   4.698
14752W        W83093  11.280  16.197   1.930
14753W        W83094   1.805  37.020  10.912
14754W        W83095   3.225  26.097  13.361
14755W        W83096  34.117  11.279   0.358
14756W        W83097  22.508  10.342  12.509
14757W        W83098  19.173  26.106   2.236
14758W        W83099   0.816  41.877   0.909
14759W        W83100  38.501  31.023  10.501
14760W        W83101   3.753  40.468  14.935
14761W        W83102  24.005  15.613  10.938
14762W        W83103   2.823  19.584  11.034
14763W        W83104  44.443  21.734   2.325
14764W        W83105  43.303  10.831   0.370
14765W        W83106   2.890  12.181  14.889
14766W        W83107   0.284  36.001   1.249
14767W        W83108   0.760  39.390   2.884
14768W        W83109  39.841  39.413   4.279
14769W        W83110  33.891  32.560  12.542
14770W        W83111  16.577  34.494  11.984
14771W        W83112  40.494  39.998   0.348
14772W        W83113  39.406  22.671  12.357
14773W        W83114  30.997  13.686  13.006
14774W        W83115  20.652  32.483   1.376
14775W        W83116   7.320  22.014   2.319
14776W        W83117  11.169   9.859   3.214
14777W        W83118   6.746  20.082  11.547
14778W        W83119  39.916  27.177   4.747
14779W        W83120  28.084  29.574  13.541
14780W        W83121  39.361  20.229   2.286
14781W        W83122  40.320   0.940   5.275
14782W        W83123  16.099  34.379   4.340
14783W        W83124  37.936   1.405   3.257
14784W        W83125  27.940  23.018  11.405
14785W        W83126  29.937   4.765   9.961
14786W        W83127  35.367  13.608  11.973
14787W        W83128  16.569  34.412   2.679
14788W        W83129   2.898  43.925  14.763
14789W        W83130  15.777   1.427  13.030
14790W        W83131  16.195   6.676  10.952
14791W        W83132  39.524  21.547   3.653
14792W        W83133   0.742   7.295  12.058
14793W        W83134  37.340  29.998  11.947
14794W        W83135   0.857  27.153   3.744
14795W        W83136  22.158  23.632  12.369
14796W        W83137  38.385   7.737  14.763
14797W        W83138  29.001  42.367   3.296
14798W        W83139  37.363  18.112  13.328
14799W        W83140  17.134  21.604  10.577
14800W        W83141  35.537  20.258   4.335
14801W        W83142  20.126  38.502  11.064
14802W        W83143  15.792  10.781   3.675
14803W        W83144  40.415  25.653  13.345
14804W        W83145  18.689  39.464   0.465
14805W        W83146  36.878  23.215   2.836
14806W        W83147  13.306  22.608  10.552
14807W        W83148  22.223  15.208   2.678
14808W        W83149  23.146   2.743   0.756
14809W        W83150  29.028  16.187  10.507
14810W        W83151  39.948   3.928  13.974
14811W        W83152  36.530  13.298  12.989
14812W        W83153   4.335   3.889   2.727
14813W        W83154   3.427   2.832   1.790
14814W        W83155   0.819  13.303   4.155
14815W        W83156  39.353   5.351  13.831
14816W        W83157  11.754  20.769  10.421
14817W        W83158  22.641   8.171  11.056
14818W        W83159   5.761   4.280   1.861
14819W        W83160  30.658  30.457   2.234
14820W        W83161  18.246   2.296   2.325
14821W        W83162   8.858  25.118  12.835
14822W        W83163  23.540  39.017  14.989
14823W        W83164  22.504  43.856   4.742
14824W        W83165   7.806  37.975   2.825
14825W        W83166   7.356  11.297   2.210
14826W        W83167  40.815  34.905  12.354
14827W        W83168  36.050  35.965   1.881
14828W        W83169   0.362  36.039   1.931
14829W        W83170  10.844  28.527  11.877
14830W        W83171   3.418   3.829   1.261
14831W        W83172  22.547  42.975  14.458
14832W        W83173   0.486  21.048   9.955
14833W        W83174  34.492  43.439  12.458
14834W        W83175  38.474  44.356   1.896
14835W        W83176   9.209  27.119  11.054
14836W        W83177   3.222  33.529   1.925
14837W        W83178  43.853  15.628  14.846
14838W        W83179  11.162   8.337  14.423
14839W        W83180  14.108  40.412  12.844
14840W        W83181  14.094  32.414   2.259
14841W        W83182  22.635   8.770   2.782
14842W        W83183  17.129  31.486  13.390
14843W        W83184  41.444   8.899   1.856
14844W        W83185  42.346  12.141   2.808
14845W        W83186   8.722  43.474   5.188
14846W        W83187   0.484  28.942   1.751
14847W        W83188   2.247  17.243   1.918
14848W        W83189  24.492   3.336   4.184
14849W        W83190   1.928  12.643   3.789
14850W        W83191   6.823  40.024  11.121
14851W        W83192  10.637   8.740   2.296
14852W        W83193  36.005  20.035  14.496
14853W        W83194  36.465  33.431  13.045
14854W        W83195  16.619   8.789  13.856
14855W        W83196  38.888  31.973   9.931
14856W        W83197  33.469  38.845  14.923
14857W        W83198  18.093  36.062   3.213
14858W        W83199  42.302  43.423   4.811
14859W        W83200  38.984  37.531  14.466
14860W        W83201  29.096  25.541  12.824
14861W        W83202  37.513  38.532   1.718
14862W        W83203   5.328  25.554  11.503
14863W        W83204  36.353   8.324  13.003
14864W        W83205  24.061  30.100  13.452
14865W        W83206   5.387  24.147   4.135
14866W        W83207  37.401   5.724   0.431
14867W        W83208   5.802  22.021  12.071
14868W        W83209  36.489   4.729   0.454
14869W        W83210  38.063   2.236   2.678
14870W        W83211  16.589  19.084   1.336
14871W        W83212   5.838  14.316   2.877
14872W        W83213   1.805  26.595  12.908
14873W        W83214  18.619   6.856   1.842
14874W        W83215  28.013  32.104   1.285
14875W        W83216  38.859  26.574  10.598
14876W        W83217  15.634  14.288  11.023
14877W        W83218  26.157   0.781   0.442
14878W        W83219   4.238   5.260  10.581
14879W        W83220  37.440   8.246  14.415
14880W        W83221  26.135   0.844  14.904
14881W        W83222   1.940   5.706  10.999
14882W        W83223   3.902  33.464   0.435
14883W        W83224  41.011  10.773  12.024
14884W        W83225   1.975  40.046   4.771
14885W        W83226  40.821  13.125   2.862
14886W        W83227   2.845  17.793   1.367
14887W        W83228  40.462  43.344   3.199
14888W        W83229   8.372   6.868  14.872
14889W        W83230  30.920   7.319   1.897
14890W        W83231  41.347  40.939  13.379
14891W        W83232   5.737  11.724  12.843
14892W        W83233   4.310  22.248  10.467
14893W        W83234  28.563  18.739  12.556
14894W        W83235  17.117  37.891  13.419
14895W        W83236  22.019  12.132  10.523
14896W        W83237  44.919   2.312   4.652
14897W        W83238  24.176   3.291  10.528
14898W        W83239  11.855  44.464  11.451
14899W        W83240  27.962  12.122   0.373
14900W        W83241  22.118  23.050  13.029
14901W        W83242  12.640  30.118   1.799
14902W        W83243  10.218  36.845  14.948
14903W        W83244  32.919  44.894   4.294
14904W        W83245  39.500  10.702  13.352
14905W        W83246  11.262  40.851  10.455
14906W        W83247  23.734  30.425  13.875
14907W        W83248  21.674   2.900  14.835
14908W        W83249  16.769  24.200  14.384
14909W        W83250  16.113  30.075   3.306
14910W        W83251  24.652  16.653  12.904
14911W        W83252  25.113  32.531   0.829
14912W        W83253  41.842  18.274  11.019
14913W        W83254  44.814  35.379  13.533
14914W        W83255  31.068  43.859  11.487
14915W        W83256   3.867  14.637  14.983
14916W        W83257  14.748  10.678  11.896
14917W        W83258   8.266  33.050   2.193
14918W        W83259  36.423  40.313  12.343
14919W        W83260  25.600  14.205   1.234
14920W        W83261  12.256  11.229   1.336
14921W        W83262  11.674  12.338   9.968
14922W        W83263  32.453  24.143  12.934
14923W        W83264  28.462  29.014   3.859
14924W        W83265  22.171  40.546  10.513
14925W        W83266  27.014  27.493  13.971
14926W        W83267  31.974  10.239  12.415
14927W        W83268  13.746  32.943  10.627
14928W        W83269  24.139  13.645   2.815
14929W        W83270  21.091   5.859  11.101
14930W        W83271  31.999  22.249  12.468
14931W        W83272  40.526   1.924   4.237
14932W        W83273  44.796   0.395   4.315
14933W        W83274  42.300  20.217  11.874
14934W        W83275  18.160  26.483  14.486
14935W        W83276  29.487   2.725   1.255
14936W        W83277  43.498  32.074  12.984
14937W        W83278  34.120   0.796   3.278
14938W        W83279  44.983  28.946   2.879
14939W        W83280  15.280   3.758  11.083
14940W        W83281  31.591  34.608  10.451
14941W        W83282  36.519  33.408  11.908
14942W        W83283  15.714  29.155  10.160
14943W        W83284  12.215  22.532   1.211
14944W        W83285  39.960  40.449  12.371
14945W        W83286   8.706  18.275  10.435
14946W        W83287  30.514   5.373   2.229
14947W        W83288   7.871  17.782  11.458
14948W        W83289  40.403  20.530  12.414
14949W        W83290  26.492  14.309   0.960
14950W        W83291   7.414  33.440   4.598
14951W        W83292  32.460  35.928   3.299
14952W        W83293  39.836  20.764   0.443
14953W        W83294  28.010  19.666   4.834
14954W        W83295  32.040  26.457   3.660
14955W        W83296   7.724  20.248  14.453
14956W        W83297  40.887  27.941  13.840
14957W        W83298  17.677   0.264  12.068
14958W        W83299  11.835  42.988   4.692
14959W        W83300  27.455  10.831  14.028
14960W        W83301  28.035  18.113   1.405
14961W        W83302  12.158  13.616  12.474
14962W        W83303  27.129   7.812   1.794
14963W        W83304   3.346  31.984  12.556
14964W        W83305  34.454  20.723   3.383
14965W        W83306  37.072  42.320  14.833
14966W        W83307   8.233   9.756  10.931
14967W        W83308   2.226   9.875  13.419
14968W        W83309  10.296   5.197  14.326
14969W        W83310  34.418  35.029   1.354
14970W        W83311   2.312  13.641  14.459
14971W        W83312  29.970  44.969   0.953
14972W        W83313  29.982  20.074   4.824
14973W        W83314   8.855  29.658   4.282
14974W        W83315  40.403  39.845  12.447
14975W        W83316  38.510  44.767   0.372
14976W        W83317  19.153  20.030  13.053
14977W        W83318  40.896  27.100   2.244
14978W        W83319  19.605   8.253  13.813
14979W        W83320  40.481  11.273   1.401
14980W        W83321  19.070  33.055   1.421
14981W        W83322  23.093  17.156   2.892
14982W        W83323  37.469  18.090  10.928
14983W        W83324  44.387  13.745   3.166
14984W        W83325  32.916  15.695   0.951
14985W        W83326  17.069  10.728   2.219
14986W        W83327  10.282  26.100  11.438
14987W        W83328  43.972   6.713   4.670
14988W        W83329  21.048  40.410  11.577
14989W        W83330  19.072   2.468  10.466
14990W        W83331  28.612  22.090   2.289
14991W        W83332  25.108   6.262   3.151
14992W        W83333  21.557  22.124  11.467
14993W        W83334  31.995  24.160  11.895
14994W        W83335  33.573  38.890  14.507
14995W        W83336  40.846  21.178   2.207
14996W        W83337  22.243  31.435   0.381
14997W        W83338  25.652  33.384  12.391
14998W        W83339   1.365  26.502  13.492
14999W        W83340  19.065  39.870   3.754
15000W        W83341  25.068  34.451  10.452
15001W        W83342  35.564  40.328   3.695
15002W        W83343   8.364  10.844   2.730
15003W        W83344  36.490  26.601  10.459
15004W        W83345  38.467  33.473  10.421
15005W        W83346   8.366  16.745   3.191
15006W        W83347  15.083  11.345  13.406
15007W        W83348   7.349  42.813  14.489
15008W        W83349  20.240   6.363   4.283
15009W        W83350  44.953  17.214   2.811
15010W        W83351  27.589  11.227  13.455
15011W        W83352   2.293   1.276   3.845
15012W        W83353  37.866  24.655   3.246
15013W        W83354  38.064  11.224  13.824
15014W        W83355  40.939   6.235  12.392
15015W        W83356  28.166  17.724  10.995
15016W        W83357   4.404  35.477  11.953
15017W        W83358  36.847  18.206   3.302
15018W        W83359   3.327  24.189   4.343
15019W        W83360  15.211  44.915  12.482
15020W        W83361  19.096  23.119   0.762
15021W        W83362  42.508   5.213  10.487
15022W        W83363   8.779  10.341   1.799
15023W        W83364   8.839  36.946  12.519
15024W        W83365  16.806  24.604   0.878
15025W        W83366  10.809  44.961  10.990
15026W        W83367  40.364  42.938   4.599
15027W        W83368  22.018  31.904  12.523
15028W        W83369  42.388   7.833   0.476
15029W        W83370  16.623   9.352  11.871
15030W        W83371  41.375  11.179  10.471
15031W        W83372  20.274  37.526  11.907
15032W        W83373   1.266  13.739  14.478
15033W        W83374  23.524  15.593  13.463
15034W        W83375  19.082  30.106  14.798
15035W        W83376  32.096  17.790   0.402
15036W        W83377   2.914  13.264  14.848
15037W        W83378  36.025  28.952   1.752
15038W        W83379   3.256  32.527  11.585
15039W        W83380  14.636  26.530  11.466
15040W        W83381  12.799  21.754   3.784
15041W        W83382   2.279   1.246   2.338
15042W        W83383  14.668  28.023  10.927
15043W        W83384  36.088  41.472  10.946
15044W        W83385  13.278   4.833   9.941
15045W        W83386   7.221  16.681  14.915
15046W        W83387  29.124  27.142   3.221
15047W        W83388  32.025  21.656  13.880
15048W        W83389  24.151  39.542   0.398
15049W        W83390  25.130  18.768  12.972
15050W        W83391  26.046  33.091   0.470
15051W        W83392  36.869   8.722   1.909
15052W        W83393  12.225  44.849  11.899
15053W        W83394   0.380  37.407   1.862
15054W        W83395  41.884  31.531  11.421
15055W        W83396  24.206  23.600  14.030
15056W        W83397  41.414  12.145   0.925
15057W        W83398  43.515  33.951  12.051
15058W        W83399   0.810  32.626   3.633
15059W        W83400  19.071   1.277  14.831
15060W        W83401  26.066   1.286   4.331
15061W        W83402  41.909   0.974   4.218
15062W        W83403  36.929  34.596  12.496
15063W        W83404  19.183  25.014   1.694
15064W        W83405  25.683  32.578  10.928
15065W        W83406  27.644  12.737  13.495
15066W        W83407  44.287  31.411  14.901
15067W        W83408  32.069  43.271   2.714
15068W        W83409  16.640  11.176   4.690
15069W        W83410  43.827  36.479  13.472
15070W        W83411  19.770  10.723  12.348
15071W        W83412  16.695  21.637   1.723
15072W        W83413  14.259   0.826   2.189
15073W        W83414  10.757  23.545   4.293
15074W        W83415  15.307  42.444   4.612
15075W        W83416  36.976   8.254   0.313
15076W        W83417  26.156  16.631   3.830
15077W        W83418  37.055   6.251  12.396
15078W        W83419  18.264  31.605   3.307
15079W        W83420   5.322  36.529  13.514
15080W        W83421   0.451  18.141   5.640
15081W        W83422  25.515   6.739  11.428
15082W        W83423  29.626  43.920  14.405
15083W        W83424  27.967  32.893   3.761
15084W        W83425  27.101   1.425   1.867
15085W        W83426  24.161  39.886  11.469
15086W        W83427  40.009  42.506   2.238
15087W        W83428  38.848  43.449   2.881
15088W        W83429   2.915  15.242   4.742
15089W        W83430  17.211   8.797   5.148
15090W        W83431  12.667  10.798   0.314
15091W        W83432  11.190  20.212   4.216
15092W        W83433  36.931  22.107  11.419
15093W        W83434  27.041  27.009   1.329
15094W        W83435  43.284  25.203   1.697
15095W        W83436  37.376  17.636  13.054
15096W        W83437  27.617  42.777  14.773
15097W        W83438  26.624  16.318   0.844
15098W        W83439  27.945   5.196   0.781
15099W        W83440  42.285  17.709  11.484
15100W        W83441  21.237  35.094   4.175
15101W        W83442  23.083   8.830  14.394
15102W        W83443  40.878  21.209   2.785
15103W        W83444   5.814  10.233   3.714
15104W        W83445  37.420  40.865  14.321
15105W        W83446   1.326  28.042   3.852
15106W        W83447   5.773  42.470   1.273
15107W        W83448  36.546  33.458  10.544
15108W        W83449  37.420  44.940   4.761
15109W        W83450  12.216  37.359  10.492
15110W        W83451  41.810  42.955   1.378
15111W        W83452  12.125  43.848  12.532
15112W        W83453  35.988  20.043  13.469
15113W        W83454  29.079  15.761   0.782
15114W        W83455  25.708  15.274  13.994
15115W        W83456  25.472  29.630   9.671
15116W        W83457  10.206  13.752  11.422
15117W        W83458  26.689  16.792  14.447
15118W        W83459  25.680  37.476  10.036
15119W        W83460  28.541  12.225   4.796
15120W        W83461  32.416  36.529   0.905
15121W        W83462  23.544  35.573  14.961
15122W        W83463  43.396  39.991   4.678
15123W        W83464  20.544  25.159  14.505
15124W        W83465   8.663  21.155  14.938
15125W        W83466   5.405   4.889   2.259
15126W        W83467  21.599  15.706   0.737
15127W        W83468   2.340  13.243   2.784
15128W        W83469   7.412  38.429  13.003
15129W        W83470  29.549  10.802  11.934
15130W        W83471  22.555  34.512   9.967
15131W        W83472  33.525  41.024  14.496
15132W        W83473  42.839  17.612  13.858
15133W        W83474   1.869  29.499   3.251
15134W        W83475   6.768   5.345   1.396
15135W        W83476  14.716  41.446   3.767
15136W        W83477  26.663  23.528   1.432
15137W        W83478   8.837  25.218  14.411
15138W        W83479   8.293   4.300  13.322
15139W        W83480   5.830   1.914   2.762
15140W        W83481  16.762   7.740  13.384
15141W        W83482  14.230   4.364   1.218
15142W        W83483  16.576  30.575  12.055
15143W        W83484  14.731   6.387  13.519
15144W        W83485  34.412  39.435   2.348
15145W        W83486   2.846  44.826  10.596
15146W        W83487  22.623   1.391  12.998
15147W        W83488  38.004  43.775  13.309
15148W        W83489  40.955  35.061   1.263
15149W        W83490  28.486   8.399  11.563
15150W        W83491  10.672  38.338   0.852
15151W        W83492  28.104  18.664  13.014
15152W        W83493  24.721  32.037  14.778
15153W        W83494  30.414  26.553   1.380
15154W        W83495  12.702   5.811   3.865
15155W        W83496   2.867   1.455   0.935
15156W        W83497  34.039  43.800  13.543
15157W        W83498   3.773  27.164   0.263
15158W        W83499  19.189  25.068   0.891
15159W        W83500   3.943  24.140   1.245
15160W        W83501  34.376  15.732   1.238
15161W        W83502  18.057  36.007   1.218
15162W        W83503  27.107  22.066  14.405
15163W        W83504  13.299  41.318   9.965
15164W        W83505  27.949   9.716  12.072
15165W        W83506  31.584  41.834   5.279
15166W        W83507  17.739  27.554   1.803
15167W        W83508  23.112   1.360   4.229
15168W        W83509  14.620  31.600  12.483
15169W        W83510  36.590   0.393  10.487
15170W        W83511  32.413  38.033   1.781
15171W        W83512  29.515  43.454   0.946
15172W        W83513   3.226  14.723   4.159
15173W        W83514  13.228   7.811  13.452
15174W        W83515  38.547  42.967   5.155
15175W        W83516  38.986  16.619   4.250
15176W        W83517   0.416   4.721   0.389
15177W        W83518  31.499  31.035  11.035
15178W        W83519   6.699  37.421   4.618
15179W        W83520  24.199  36.989  14.763
15180W        W83521  23.229  40.452  13.994
15181W        W83522  34.866   1.335  12.967
15182W        W83523  26.469   9.685  14.012
15183W        W83524  20.261  32.001  12.028
15184W        W83525  19.080  24.150  12.432
15185W        W83526  21.100  23.490   2.243
15186W        W83527  43.466   8.738   2.869
15187W        W83528  27.542  43.875   0.479
15188W        W83529   4.729  21.239   2.858
15189W        W83530   1.893   4.728  14.294
15190W        W83531  21.722  27.196  14.999
15191W        W83532  40.953   2.733   4.785
15192W        W83533  42.366  28.147   1.793
15193W        W83534   4.402  22.665  13.344
15194W        W83535  35.602  28.565  12.501
15195W        W83536   1.895  12.328  13.354
15196W        W83537  20.636  35.381   0.895
15197W        W83538   8.216   6.417  10.887
15198W        W83539  35.493  40.852  11.113
15199W        W83540  43.368   9.737   0.345
15200W        W83541   0.829  43.318   0.782
15201W        W83542  28.016   4.295  12.347
15202W        W83543  19.774  16.168  11.607
15203W        W83544  12.290  38.416  11.922
15204W        W83545  12.828  12.614   3.847
15205W        W83546  41.992  12.752  14.423
15206W        W83547  11.310  43.337   0.461
15207W        W83548  37.466  24.226  12.971
15208W        W83549  16.669  10.685  10.448
15209W        W83550  41.889   4.706   4.665
15210W        W83551  13.220  18.270   5.092
15211W        W83552  38.027  18.113  11.377
15212W        W83553  26.058  24.699   1.698
15213W        W83554  40.918  33.545  13.342
15214W        W83555   4.930  19.751   9.997
15215W        W83556  27.989  22.129   1.385
15216W        W83557  11.140   3.789   1.445
15217W        W83558  43.862  17.161   1.417
15218W        W83559   0.828  42.479  10.500
15219W        W83560   4.274  16.681  12.084
15220W        W83561  36.437  23.610  13.982
15221W        W83562  24.162  20.085   5.295
15222W        W83563   6.403  24.107  13.797
15223W        W83564   9.357   2.857  14.470
15224W        W83565  26.574  23.551  14.460
15225W        W83566  10.207  16.663   4.308
15226W        W83567  42.781  14.332   3.826
15227W        W83568  13.327  31.122   2.741
15228W        W83569  31.440  33.611   1.773
15229W        W83570   2.956  44.834   2.365
15230W        W83571   9.184  26.681  14.031
15231W        W83572  23.086  20.575   4.828
15232W        W83573  44.466  30.012  10.448
15233W        W83574  16.716  38.535  12.876
15234W        W83575   1.281  10.352  11.473
15235W        W83576  22.028  26.160   3.238
15236W        W83577  42.937  28.080  10.913
15237W        W83578  22.201   3.326   1.902
15238W        W83579   4.805   3.905   0.884
15239W        W83580   2.269  28.093  10.617
15240W        W83581  10.811  25.196   1.932
15241W        W83582  43.919  17.654  13.834
15242W        W83583   4.712  36.411   4.198
15243W        W83584   5.311  26.979  14.381
15244W        W83585  19.578  19.749   4.609
15245W        W83586  18.284   3.323  13.917
15246W        W83587  43.860   1.978  13.901
15247W        W83588  44.382  18.100  10.063
15248W        W83589   4.222  37.932   4.295
15249W        W83590   9.185  44.984   4.662
15250W        W83591  39.475   1.905  14.375
15251W        W83592  20.659   3.440  12.407
15252W        W83593  40.875  25.478  12.066
15253W        W83594  21.109   0.271  14.011
15254W        W83595   9.227  12.635  11.470
15255W        W83596  44.346  20.066   5.143
15256W        W83597   5.436   9.264  14.981
15257W        W83598  39.389   4.713  11.086
15258W        W83599   3.355  12.699   4.179
15259W        W83600   7.391  43.788  13.023
15260W        W83601  35.410  10.711  13.329
15261W        W83602  35.950  42.331  10.431
15262W        W83603  39.485   4.350  12.979
15263W        W83604  39.020  32.073  14.993
15264W        W83605  39.827   0.774  13.818
15265W        W83606   8.376  28.554   3.227
15266W        W83607   3.923  10.827   3.840
15267W        W83608  38.340   4.730  14.002
15268W        W83609  34.937   3.862   1.358
15269W        W83610   4.294  24.216   4.647
15270W        W83611  13.617   2.400   0.363
15271W        W83612   1.421  13.677   0.469
15272W        W83613  34.397  19.768  14.786
15273W        W83614   8.897  13.784   3.216
15274W        W83615   7.274  38.356  12.360
15275W        W83616   9.241  21.112   2.703
15276W        W83617   9.826   4.926  12.021
15277W        W83618   7.741   4.900  11.502
15278W        W83619   8.405  19.729  10.587
15279W        W83620   9.710  12.787   3.297
15280W        W83621  18.682  39.500  14.329
15281W        W83622  36.043  40.454  14.868
15282W        W83623  21.551  21.108   4.753
15283W        W83624  27.593  35.436  12.054
15284W        W83625  16.778  44.827  10.925
15285W        W83626  39.938  17.571  13.494
15286W        W83627  39.061  22.744  13.407
15287W        W83628  31.902  22.148   1.880
15288W        W83629  29.000  41.984   1.911
15289W        W83630  28.676   9.176   0.852
15290W        W83631  18.665  16.761  13.821
15291W        W83632  41.293  40.549   1.353
15292W        W83633  38.861  37.505  12.885
15293W        W83634  16.100  10.292   4.270
15294W        W83635  30.507   4.933   1.353
15295W        W83636  31.992  39.367  10.596
15296W        W83637  14.337   6.866  14.435
15297W        W83638  32.993  10.285  10.575
15298W        W83639  25.176  40.013   3.308
15299W        W83640  10.649  32.564  10.949
15300W        W83641  29.594  17.694   4.679
15301W        W83642  43.494  19.222  12.356
15302W        W83643   4.758   4.382   0.401
15303W        W83644  15.247  38.568   0.284
15304W        W83645  31.589  32.975   1.747
15305W        W83646   1.252   6.820   1.229
15306W        W83647  43.820   6.757  12.347
15307W        W83648  23.648   9.330  13.025
15308W        W83649  26.662  37.513  13.870
15309W        W83650  22.213  23.126   2.387
15310W        W83651  41.797  36.037   1.247
15311W        W83652  15.724  26.597   2.870
15312W        W83653  30.936  24.562   2.737
15313W        W83654  11.806  21.144  10.082
15314W        W83655  37.570  23.705   3.803
15315W        W83656   8.324  33.498  10.477
15316W        W83657  33.990   7.223   2.899
15317W        W83658  19.266   1.899  10.473
15318W        W83659  27.684  22.539   0.802
15319W        W83660  36.582   1.378   4.663
15320W        W83661   5.717  34.089  11.052
15321W        W83662  29.073  42.862  12.064
15322W        W83663  33.548  25.098   5.262
15323W        W83664   0.885  40.864  12.367
15324W        W83665   6.229  15.168  12.038
15325W        W83666  36.440  12.214  14.927
15326W        W83667   9.344   1.909   3.187
15327W        W83668  20.701  21.652   3.726
15328W        W83669  12.302  22.044   0.925
15329W        W83670  32.553  24.531   3.803
15330W        W83671  38.512   4.235   3.175
15331W        W83672  32.125  19.046  11.502
15332W        W83673   1.903   6.251  13.004
15333W        W83674  20.028   8.221   4.616
15334W        W83675  34.488  29.146   2.783
15335W        W83676  16.656  26.664   4.654
15336W        W83677  23.726  42.486   2.841
15337W        W83678   7.205  16.633   4.227
15338W        W83679  17.695   4.716   3.228
15339W        W83680  36.077  31.438   1.694
15340W        W83681   3.903   4.800  10.906
15341W        W83682  27.667  30.627  11.963
15342W        W83683   3.344  40.526   2.242
15343W        W83684  25.687  30.507   4.800
15344W        W83685  19.039  34.602  13.328
15345W        W83686  43.324  24.580  12.040
15346W        W83687  42.002   8.329  13.998
15347W        W83688  16.796   3.906   0.467
15348W        W83689  31.078  14.820  12.891
15349W        W83690   9.311  17.080   0.728
15350W        W83691  17.201   4.263  11.386
15351W        W83692  13.809   6.915  12.854
15352W        W83693  33.951  13.211   2.374
15353W        W83694  17.647  17.080  12.996
15354W        W83695  15.671   4.911  14.480
15355W        W83696  30.142  37.037   2.676
15356W        W83697  25.684  31.128  12.974
15357W        W83698   7.820  19.612   1.725
15358W        W83699  38.932  24.683   0.856
15359W        W83700  18.561  18.256  10.423
15360W        W83701  10.192  16.807  13.313
15361W        W83702  43.423  22.518   1.325
15362W        W83703  11.330   3.366  14.936
15363W        W83704   8.892  26.472  10.587
15364W        W83705  30.582  27.121   3.285
15365W        W83706  28.120   7.801  11.598
15366W        W83707  13.188   1.920   4.751
15367W        W83708  40.472   6.860   4.636
15368W        W83709  21.057  17.587  12.028
15369W        W83710  23.183   4.809   4.714
15370W        W83711  40.985   5.720   0.805
15371W        W83712  11.315  38.416  12.400
15372W        W83713  20.737  13.785   4.315
15373W        W83714  11.333  21.098  13.898
15374W        W83715  22.118  13.190  13.542
15375W        W83716   4.235  39.438   1.410
15376W        W83717  31.642   4.734   0.299
15377W        W83718  31.434  13.819   1.275
15378W        W83719  17.759  40.813   2.865
15379W        W83720  34.043  44.491  13.016
15380W        W83721  22.616  28.025  13.892
15381W        W83722  29.441  42.366   4.162
15382W        W83723  31.966  44.867  12.386
15383W        W83724  24.585   1.392   4.607
15384W        W83725  35.390  14.278   0.284
15385W        W83726  40.862  41.341   1.890
15386W        W83727  31.045  27.190   3.662
15387W        W83728  13.221  35.022   4.158
15388W        W83729   6.425  41.518   0.310
15389W        W83730  27.577  16.204  13.472
15390W        W83731   8.735  12.289   5.151
15391W        W83732  18.550  19.594  11.026
15392W        W83733   2.349  31.986   1.281
15393W        W83734  34.103   2.750   2.764
15394W        W83735  36.005  13.322  12.958
15395W        W83736  33.602  16.243  14.026
15396W        W83737  12.748  28.546  14.934
15397W        W83738  10.714  36.019  14.459
15398W        W83739   0.433  10.725   4.643
15399W        W83740  12.647  21.756   4.644
15400W        W83741  34.524  15.283  12.078
15401W        W83742   0.402  40.337  14.300
15402W        W83743  41.487  12.263   4.139
15403W        W83744   0.804  44.898   0.749
15404W        W83745  33.878  12.241   0.772
15405W        W83746   8.215   3.407   2.892
15406W        W83747  21.130  41.818  11.515
15407W        W83748  13.118  42.283   2.255
15408W        W83749  12.759  20.046  11.454
15409W        W83750  31.534  14.328  12.527
15410W        W83751  17.122  22.221   2.410
15411W        W83752  40.889   8.192  11.413
15412W        W83753  16.694  27.947   3.329
15413W        W83754  26.555  16.666  11.924
15414W        W83755  17.721  11.258  14.311
15415W        W83756  22.508  14.591  10.900
15416W        W83757   9.310  30.583  11.124
15417W        W83758   1.773  32.458  13.428
15418W        W83759  29.529  10.789   4.633
15419W        W83760   6.269  20.606   3.231
15420W        W83761  36.584  43.418  13.331
15421W        W83762   7.744  41.446   2.849
15422W        W83763  36.418  12.174  11.907
15423W        W83764  22.642  18.691   4.321
15424W        W83765   6.207  38.440   3.337
15425W        W83766  18.272  14.803   3.691
15426W        W83767  26.109  28.644  10.532
15427W        W83768  43.856  19.697   1.928
15428W        W83769  40.507  12.675   1.340
15429W        W83770   8.301   7.191  13.816
15430W        W83771  37.889  19.048   3.672
15431W        W83772  22.998   5.774  10.409
15432W        W83773  31.590  16.722   0.855
15433W        W83774  27.096  13.778  13.413
15434W        W83775   3.370   5.437   3.242
15435W        W83776  29.516   6.890   3.809
15436W        W83777  11.232   4.766  13.476
15437W        W83778  33.967   4.867   3.235
15438W        W83779  18.194  41.291   2.253
15439W        W83780   1.791  29.636  11.875
15440W        W83781   0.798   3.728   1.317
15441W        W83782   3.437  38.052  14.398
15442W        W83783  41.844  37.931  10.613
15443W        W83784   1.368  34.029  12.432
15444W        W83785  31.922  39.911  12.389
15445W        W83786  13.301  35.555   3.760
15446W        W83787  42.844  19.603   3.237
15447W        W83788  21.564   3.860   3.827
15448W        W83789   3.766  25.036  13.357
15449W        W83790  33.487  38.889   1.286
15450W        W83791  40.937  38.975   4.162
15451W        W83792  37.479   7.670   3.806
15452W        W83793   4.727  36.403   0.431
15453W        W83794  39.894  19.635  10.447
15454W        W83795  43.948   9.256  11.390
15455W        W83796   0.440  32.920   4.737
15456W        W83797  15.812  13.206  10.923
15457W        W83798  32.544  18.562  12.908
15458W        W83799   4.779  16.250  11.010
15459W        W83800   6.705  17.584  11.600
15460W        W83801   5.422  12.326   3.147
15461W        W83802   3.240  24.198   4.682
15462W        W83803  11.186   3.934  10.418
15463W        W83804   3.330  37.360   0.258
15464W        W83805  30.414  44.877   3.855
15465W        W83806   2.401  25.191   1.281
15466W        W83807  11.304   6.375   2.339
15467W        W83808  20.097   9.331  10.589
15468W        W83809   0.890  28.096   4.651
15469W        W83810   8.786  11.363   2.247
15470W        W83811  38.354  28.164  14.502
15471W        W83812  12.145  10.375  10.613
15472W        W83813  23.205   6.331   2.817
15473W        W83814  27.509  41.810  12.450
15474W        W83815   3.846  30.939  10.891
15475W        W83816   5.411   0.300   0.803
15476W        W83817   1.878   4.945  13.413
15477W        W83818  26.585  31.570  11.916
15478W        W83819  13.335   7.343   1.824
15479W        W83820  23.523   9.713   4.349
15480W        W83821  27.187  29.547   4.832
15481W        W83822  28.095  19.674   4.319
15482W        W83823   2.779  32.512   4.226
15483W        W83824  42.915  18.107   1.827
15484W        W83825   4.862  35.955  13.506
15485W        W83826  17.092   4.774  13.057
15486W        W83827  25.535  37.861   0.948
15487W        W83828   1.817  25.074   2.877
15488W        W83829  18.589  24.651   3.857
15489W        W83830  28.015   1.383   3.164
15490W        W83831  37.547  16.312   0.745
15491W        W83832  17.277   1.282  14.475
15492W        W83833  43.300  40.901  10.414
15493W        W83834  44.425  38.465   1.289
15494W        W83835  39.814  15.684  12.556
15495W        W83836  13.297  12.310   1.261
15496W        W83837  44.298  20.677  10.430
15497W        W83838  37.348   1.892  14.896
15498W        W83839  13.778   3.368   3.336
15499W        W83840  20.579  31.059   3.275
15500W        W83841  16.756  23.497   5.144
15501W        W83842  39.958   4.415   4.341
15502W        W83843  37.431  36.538  12.025
15503W        W83844  25.480  16.269   5.690
15504W        W83845  24.514  38.929  10.588
15505W        W83846   2.888   2.772   3.228
15506W        W83847  34.950   6.372   0.874
15507W        W83848  12.116   8.788  14.885
15508W        W83849  13.160   5.898   1.819
15509W        W83850  36.409  43.913  14.831
15510W        W83851  37.528  14.812  12.092
15511W        W83852  42.373  29.085  10.580
15512W        W83853  37.840  26.636  14.454
15513W        W83854  17.233  19.633  10.569
15514W        W83855  41.453   1.836  12.381
15515W        W83856   7.183  13.137  14.777
15516W        W83857  11.294  34.086  14.397
15517W        W83858  11.637   9.721   4.212
15518W        W83859  33.550  39.384  13.318
15519W        W83860  37.959  33.389   0.367
15520W        W83861  39.883  16.261  11.561
15521W        W83862   7.844  39.881  13.449
15522W        W83863  36.009  19.733   2.794
15523W        W83864  10.704  36.520   2.815
15524W        W83865   2.437  28.601   4.793
15525W        W83866  41.538  28.942  13.435
15526W        W83867  40.959  29.986  11.603
15527W        W83868  25.652  18.237   3.802
15528W        W83869  21.623   8.297  13.834
15529W        W83870  39.444  44.295  11.447
15530W        W83871  27.150  19.621   1.244
15531W        W83872  10.716  35.016  12.523
15532W        W83873   7.774   5.794  14.816
15533W        W83874  36.561  26.530  10.058
15534W        W83875   3.847   5.437  13.913
15535W        W83876  22.164  43.355  13.414
15536W        W83877  14.695  29.586   2.684
15537W        W83878   5.859  14.704   0.292
15538W        W83879   5.372  38.451   4.314
15539W        W83880  12.851   3.453  11.602
15540W        W83881   5.922  20.148   2.336
15541W        W83882  13.846  18.733  14.848
15542W        W83883  28.581  35.859   3.223
15543W        W83884  21.069  34.439   2.684
15544W        W83885  27.003  28.455   1.881
15545W        W83886  33.424   5.712   3.762
15546W        W83887  15.212  30.150   4.210
15547W        W83888  39.820  32.017   0.940
15548W        W83889  23.579  17.294   1.706
15549W        W83890  18.733  10.330  10.938
15550W        W83891   9.857  35.936  14.380
15551W        W83892  44.278   6.876  14.855
15552W        W83893  27.028  25.527  11.071
15553W        W83894  27.185  23.100   4.724
15554W        W83895  38.458   2.291   0.866
15555W        W83896   9.154  13.205  12.566
15556W        W83897  18.236  12.688  13.801
15557W        W83898  40.979   6.293   3.274
15558W        W83899  23.684  27.692  12.455
15559W        W83900  24.181  27.183  10.444
15560W        W83901  44.756  33.045  13.385
15561W        W83902  20.266  41.946  14.791
15562W        W83903  21.695  32.517  13.454
15563W        W83904  30.425  17.745   2.384
15564W        W83905  16.190  41.499   1.241
15565W        W83906  33.119  36.351   3.384
15566W        W83907  44.464  30.563   1.859
15567W        W83908  43.405   6.711  14.955
15568W        W83909  17.674  16.188  14.509
15569W        W83910  23.001  11.748  13.429
15570W        W83911  21.626   9.784  12.456
15571W        W83912   6.808  28.538   1.218
15572W        W83913   8.220  28.590   2.322
15573W        W83914  22.606  22.582   3.362
15574W        W83915   4.930  33.914  11.115
15575W        W83916  35.094  38.038  10.558
15576W        W83917  37.041   3.731  14.003
15577W        W83918   1.856  36.874  14.919
15578W        W83919   0.247  31.947   3.656
15579W        W83920   9.890  12.245  10.587
15580W        W83921   8.320  10.741  13.862
15581W        W83922   5.774  35.472   4.308
15582W        W83923  25.044  35.962   1.387
15583W        W83924  40.489  22.114   1.441
15584W        W83925   3.870  32.475  13.935
15585W        W83926  22.500  39.015   4.631
15586W        W83927  33.417  15.667   1.814
15587W        W83928  14.183   3.935  10.645
15588W        W83929  23.555  24.018   1.759
15589W        W83930   0.957  31.068  13.904
15590W        W83931  39.979   1.335  14.956
15591W        W83932  16.273  33.382  14.016
15592W        W83933  10.718  20.763  12.519
15593W        W83934  25.568  16.784   0.409
15594W        W83935  24.074  30.084  14.765
15595W        W83936  13.747  31.553   3.322
15596W        W83937  23.107  22.032  12.457
15597W        W83938   0.472  17.796   2.238
15598W        W83939  37.833  14.254   5.120
15599W        W83940   3.384  34.092  11.573
15600W        W83941  41.301  17.149  14.462
15601W        W83942  18.196  35.025  11.989
15602W        W83943  40.305  21.226   2.397
15603W        W83944   9.223  24.033  13.436
15604W        W83945  21.682  35.990  12.932
15605W        W83946   7.713   5.207  14.513
15606W        W83947  29.165  30.070  14.028
15607W        W83948  19.742  15.592  12.983
15608W        W83949  40.356  11.275   3.746
15609W        W83950  19.759  23.619   2.233
15610W        W83951  24.614  26.515   4.742
15611W        W83952  14.179  33.470  12.934
15612W        W83953  16.733   5.882   0.375
15613W        W83954  31.645  15.119   3.316
15614W        W83955  21.549  40.449   1.845
15615W        W83956  20.117  41.987   1.224
15616W        W83957  27.952  25.516  11.917
15617W        W83958  22.710  43.496  11.481
15618W        W83959  19.260  43.892   3.800
15619W        W83960   7.365   1.837   3.258
15620W        W83961  37.866  19.720  11.522
15621W        W83962   7.674  42.435   1.843
15622W        W83963   5.361  37.383  11.537
15623W        W83964   9.230  39.430   2.328
15624W        W83965   5.843  16.600   0.413
15625W        W83966  29.050  14.214   2.731
15626W        W83967  26.989  18.653  12.478
15627W        W83968   0.286  33.901  11.116
15628W        W83969  10.214  11.752  11.415
15629W        W83970   3.332  37.006   4.280
15630W        W83971   1.326  21.624  10.526
15631W        W83972  24.993  26.657   5.158
15632W        W83973  37.015  37.510  11.114
15633W        W83974  20.051   9.388  11.551
15634W        W83975   0.261  42.388   2.867
15635W        W83976   0.432   0.867  14.993
15636W        W83977  26.977  27.647  14.289
15637W        W83978  28.644  26.968   4.779
15638W        W83979  11.221  43.427  10.485
15639W        W83980   8.172  20.618   3.630
15640W        W83981  43.827  11.190  11.478
15641W        W83982   0.389  44.487  14.361
15642W        W83983  43.277  31.946   4.266
15643W        W83984   4.788  33.895   0.413
15644W        W83985  34.890  11.304   0.828
15645W        W83986   1.328  26.184  10.997
15646W        W83987  42.418  41.794  12.945
15647W        W83988  10.806   0.480  10.629
15648W        W83989  25.130   5.860  14.765
15649W        W83990  23.208  17.287  10.999
15650W        W83991  10.813  21.036   3.283
15651W        W83992   3.911   5.276  13.537
15652W        W83993  43.770  22.530  13.431
15653W        W83994  41.975  14.149   2.197
15654W        W83995  27.635   6.414  11.582
15655W        W83996   5.796  37.555  11.966
15656W        W83997  19.609  20.249   4.814
15657W        W83998  34.083  33.018   4.209
15658W        W83999  37.907  28.479  10.474
15659W        W84000   8.745  39.549   0.765
15660W        W84001   4.325  35.874   4.122
15661W        W84002   0.393   6.852   2.313
15662W        W84003  42.441  24.144  10.440
15663W        W84004  15.293  27.164  13.377
15664W        W84005  23.575   1.341   1.260
15665W        W84006  32.920  42.408   1.383
15666W        W84007   5.919  16.161   2.301
15667W        W84008  13.116  14.715   4.279
15668W        W84009  16.194  18.747   0.369
15669W        W84010  39.501   9.153   3.764
15670W        W84011  28.675  34.406  10.951
15671W        W84012  29.166  37.580  13.438
15672W        W84013  21.185  34.425   1.822
15673W        W84014  34.929  10.199  12.431
15674W        W84015  39.912  35.020   0.812
15675W        W84016   5.883  44.969  12.873
15676W        W84017  26.076   3.729   1.321
15677W        W84018   8.351  40.421  13.890
15678W        W84019  13.663  37.842   5.221
15679W        W84020   6.425  22.583   4.805
15680W        W84021   0.975   9.657   4.299
15681W        W84022   0.470   6.329   1.431
15682W        W84023  14.779  34.948   0.284
15683W        W84024  15.169   4.322  10.601
15684W        W84025   6.408   2.342  11.963
15685W        W84026  15.797  13.307   1.331
15686W        W84027   5.357   7.383   2.386
15687W        W84028  11.836  13.831   4.162
15688W        W84029   4.842  19.615  11.016
15689W        W84030  42.393  39.859  11.014
15690W        W84031  29.980  13.837   0.322
15691W        W84032  31.638   7.877  14.984
15692W        W84033  25.712  41.347  11.995
15693W        W84034  29.562  33.964  11.423
15694W        W84035   8.766  13.198   4.759
15695W        W84036  15.791  37.072  14.029
15696W        W84037  31.489  11.363   2.887
15697W        W84038  16.684  27.162  10.888
15698W        W84039  34.467  15.140  13.476
15699W        W84040   4.769  40.870  12.490
15700W        W84041  32.634  41.028   9.940
15701W        W84042  21.715  37.983   1.704
15702W        W84043  27.053  10.155   0.915
15703W        W84044  32.899  13.258  10.626
15704W        W84045  30.165  18.139  11.506
15705W        W84046  11.129  18.194   2.295
15706W        W84047  13.710  12.362  12.080
15707W        W84048  41.537   8.871   3.800
15708W        W84049  37.853  21.735  12.828
15709W        W84050  28.662  15.222   3.652
15710W        W84051  20.732  33.473  13.452
15711W        W84052  17.233   3.415  10.942
15712W        W84053  20.660  26.072   3.373
15713W        W84054  21.567  36.546  10.471
15714W        W84055  17.277  41.387   3.261
15715W        W84056  22.579   0.445  11.936
15716W        W84057  44.295  16.607  12.345
15717W        W84058  21.066  31.153  13.382
15718W        W84059  40.015  33.875   3.291
15719W        W84060  24.523  28.628  13.500
15720W        W84061  44.404   3.262   2.772
15721W        W84062   5.431   9.361   3.635
15722W        W84063   3.732  16.124   1.839
15723W        W84064   3.787   4.296  13.841
15724W        W84065  28.974  29.489   0.751
15725W        W84066   0.293  17.078   0.318
15726W        W84067  18.652  39.343   0.910
15727W        W84068  21.592  34.980  15.000
15728W        W84069   5.200   3.336  14.956
15729W        W84070  31.468  14.144  11.897
15730W        W84071  32.969  32.015   3.813
15731W        W84072  23.116  19.118   1.811
15732W        W84073   4.854   1.276   2.664
15733W        W84074   5.695  36.559  14.880
15734W        W84075  37.902  44.817   2.700
15735W        W84076  16.141  28.094  13.051
15736W        W84077  21.218  26.026   4.682
15737W        W84078  18.572  14.319  12.823
15738W        W84079   8.191   1.925   4.298
15739W        W84080  19.582   9.751  12.476
15740W        W84081  10.708  35.907   4.639
15741W        W84082  31.553   9.672   4.160
15742W        W84083   8.337  22.059  10.431
15743W        W84084  41.362  13.337  12.462
15744W        W84085  32.422  44.997   3.784
15745W        W84086   4.775  24.101  11.547
15746W        W84087   5.695  25.500   2.356
15747W        W84088  26.471  15.779   4.164
15748W        W84089  20.169  14.315   3.829
15749W        W84090   3.752   2.962  12.929
15750W        W84091  25.019   5.355   4.744
15751W        W84092   0.325  34.402   3.318
15752W        W84093  31.016   8.223  13.853
15753W        W84094  42.009  27.950  10.896
15754W        W84095   9.651  28.977  11.981
15755W        W84096  38.519   4.894  11.107
15756W        W84097  22.251  44.366   1.221
15757W        W84098  16.600  41.481  12.096
15758W        W84099  34.885  25.580   2.775
15759W        W84100  26.002  21.672   4.298
15760W        W84101  21.603  43.444  10.621
15761W        W84102  17.199  31.544   1.210
15762W        W84103  16.739  27.561  11.075
15763W        W84104  29.101  17.801  11.010
15764W        W84105  13.216  21.051   3.780
15765W        W84106  39.918  11.208   0.966
15766W        W84107  19.113  36.049   4.671
15767W        W84108  32.078  44.901   0.350
15768W        W84109  37.437  38.861  13.399
15769W        W84110  40.934  26.976  10.407
15770W        W84111   0.315  17.641  12.949
15771W        W84112  36.565  19.629  11.561
15772W        W84113  44.956  12.784  14.972
15773W        W84114  19.692  10.377  10.012
15774W        W84115  12.245  38.469  12.380
15775W        W84116  21.511  24.994   2.724
15776W        W84117  40.478  22.521  10.518
15777W        W84118  39.470   4.308  12.432
15778W        W84119  28.473  22.597  13.953
15779W        W84120  18.108  27.004   3.832
15780W        W84121  33.585  14.124  12.525
15781W        W84122   4.356  28.463  14.343
15782W        W84123  15.781  37.565  11.102
15783W        W84124  42.440  25.097   1.754
15784W        W84125  16.666  13.160   0.801
15785W        W84126  29.634   0.953   3.675
15786W        W84127  12.708  16.648   1.426
15787W        W84128  18.653   1.743   3.269
15788W        W84129   2.445  19.712   5.094
15789W        W84130  42.899   8.386   3.645
15790W        W84131   2.940  26.542   2.901
15791W        W84132   2.424   3.916   2.674
15792W        W84133  38.498  13.604  12.497
15793W        W84134  28.631   0.439   0.747
15794W        W84135  20.721   5.224  13.006
15795W        W84136   2.249  11.837   1.741
15796W        W84137  32.955  23.628  11.536
15797W        W84138  21.657  39.898   2.696
15798W        W84139  10.664  26.582   2.228
15799W        W84140  19.765  34.500  12.832
15800W        W84141  34.614  13.826   1.282
15801W        W84142  41.444   0.932  14.916
15802W        W84143  17.793  26.168  10.561
15803W        W84144  26.499  13.293  10.913
15804W        W84145  44.843  39.887   4.240
15805W        W84146  23.563  25.066   0.483
15806W        W84147  20.066  36.088  11.974
15807W        W84148  10.646  20.540   1.803
15808W        W84149  39.555   5.437   2.247
15809W        W84150  32.021   4.745  11.910
15810W        W84151  13.290   6.197  13.911
15811W        W84152  34.093   8.875  10.503
15812W        W84153   6.735  32.947  13.487
15813W        W84154  17.742  44.492  13.510
15814W        W84155  30.639   3.800   0.333
15815W        W84156   8.395  11.705   1.347
15816W        W84157  11.196   7.325  10.595
15817W        W84158  36.901  19.738   2.227
15818W        W84159  36.586   0.423  13.383
15819W        W84160  32.398  41.039  11.393
15820W        W84161  26.592  37.915   2.883
15821W        W84162   7.831  36.361  12.831
15822W        W84163  43.883  21.538  14.820
15823W        W84164  18.728   6.870   1.227
15824W        W84165  31.924  30.554   4.651
15825W        W84166  19.132   4.446   3.634
15826W        W84167  26.600  40.480  14.775
15827W        W84168  12.217  42.523   2.307
15828W        W84169  25.606  29.028  11.595
15829W        W84170  12.296  39.898   3.727
15830W        W84171  12.244  34.971  10.953
15831W        W84172  10.723  25.077   1.257
15832W        W84173   2.389  35.900  13.313
15833W        W84174   3.453  22.612  10.971
15834W        W84175  24.205   1.376   0.354
15835W        W84176  23.575  27.502  10.955
15836W        W84177   1.466   8.838  14.351
15837W        W84178  27.683  29.102  14.380
15838W        W84179   5.302  21.585  13.938
15839W        W84180  32.511  35.884  12.965
15840W        W84181   5.720   1.888   2.344
15841W        W84182   5.711  24.084  11.558
15842W        W84183  22.016  35.024   0.819
15843W        W84184  17.304  33.984   3.214
15844W        W84185   3.811  43.778  13.834
15845W        W84186  36.056   7.378   4.647
15846W        W84187  34.097  30.084   2.286
15847W        W84188   8.713  34.521   3.711
15848W        W84189   1.367  13.700   4.158
15849W        W84190  41.325  35.501  12.061
15850W        W84191  22.574  20.756  10.595
15851W        W84192  15.786   8.861   4.342
15852W        W84193  12.825  33.117  12.493
15853W        W84194   4.922  37.975  10.560
15854W        W84195  16.597  35.876  14.449
15855W        W84196  44.368  20.609   4.192
15856W        W84197  38.331   5.931  12.046
15857W        W84198  39.849  21.137  13.833
15858W        W84199  43.896  24.676  13.410
15859W        W84200  11.752  39.954  11.074
15860W        W84201  26.987  13.837   0.822
15861W        W84202   8.337  39.403  12.511
15862W        W84203  43.451  23.985   4.630
15863W        W84204  31.445  17.222  14.849
15864W        W84205  23.573  10.247   0.781
15865W        W84206  26.633  33.912  10.591
15866W        W84207  16.074  39.042  12.874
15867W        W84208   9.342  11.236  14.903
15868W        W84209  35.465   1.827  13.796
15869W        W84210  12.149  14.127   2.812
15870W        W84211  36.403   7.405   1.358
15871W        W84212  25.485  30.138  10.930
15872W        W84213   1.735  26.037   3.361
15873W        W84214  27.556  12.275  11.545
15874W        W84215   2.308  18.765   5.161
15875W        W84216   7.299  38.943   0.843
15876W        W84217  43.446  16.250  13.515
15877W        W84218  11.696   2.399  13.005
15878W        W84219  19.725   3.259  10.525
15879W        W84220  17.662  10.250   3.820
15880W        W84221  10.333  39.016   2.808
15881W        W84222  28.591  20.590  11.862
15882W        W84223  25.177   5.915   3.793
15883W        W84224  14.595  43.510  11.960
15884W        W84225   8.344  29.089   2.723
15885W        W84226  34.553   8.399  14.784
15886W        W84227  29.650   4.405   1.295
15887W        W84228  37.020  33.591   2.767
15888W        W84229  20.137  29.157   3.782
15889W        W84230   3.728   8.375   2.302
15890W        W84231  35.429  35.067   2.367
15891W        W84232  26.550  42.415   0.397
15892W        W84233  40.951   2.870  10.963
15893W        W84234  14.637  27.458  14.986
15894W        W84235  11.796  40.925  13.347
15895W        W84236  12.180   6.341  12.388
15896W        W84237  24.649  12.739   1.245
15897W        W84238  25.994  17.285   4.798
15898W        W84239  41.533  22.135  12.889
15899W        W84240  38.829  13.641   3.325
15900W        W84241  21.165  13.308   3.699
15901W        W84242   6.296  19.150   2.890
15902W        W84243  36.354  43.888  12.000
15903W        W84244  29.078  25.149  13.985
15904W        W84245  20.602  28.444  11.373
15905W        W84246  29.642  23.649   1.751
15906W        W84247  38.353  34.103  11.055
15907W        W84248  39.973   1.387   3.850
15908W        W84249  44.283  14.146  14.914
15909W        W84250  27.669  22.137   1.732
15910W        W84251  37.578  24.085  13.333
15911W        W84252  16.652   3.712  10.900
15912W        W84253  13.750  38.919   3.704
15913W        W84254  26.096   3.816   2.768
15914W        W84255  15.294  41.401   1.890
15915W        W84256  21.707   3.937  13.411
15916W        W84257   1.783  11.714  14.986
15917W        W84258  26.059  39.029  13.410
15918W        W84259  37.933  12.825   0.443
15919W        W84260  29.138  18.770   1.422
15920W        W84261  17.066  31.426   2.862
15921W        W84262  13.729  33.938  13.050
15922W        W84263  28.955   4.751   2.306
15923W        W84264  26.150   8.282  13.398
15924W        W84265  14.149  36.901   4.644
15925W        W84266  12.157  10.335   5.284
15926W        W84267   8.279  36.530   0.869
15927W        W84268  33.895  18.571   2.279
15928W        W84269   3.882   6.863   2.187
15929W        W84270  33.542  38.510   5.234
15930W        W84271  19.754  36.976  11.883
15931W        W84272  18.664  32.905   1.224
15932W        W84273  28.964   6.324   2.197
15933W        W84274  19.612  44.855  13.530
15934W        W84275  12.216  20.228  12.488
15935W        W84276   7.725  12.724   3.680
15936W        W84277   7.390  30.107  13.401
15937W        W84278  18.617  19.126   0.736
15938W        W84279  44.502  23.519   1.409
15939W        W84280  26.963  16.161   2.347
15940W        W84281  18.653  31.519   2.395
15941W        W84282   8.300  42.947  12.428
15942W        W84283  15.595  37.051   4.827
15943W        W84284  34.474  22.519   0.321
15944W        W84285  32.470  40.360  13.981
15945W        W84286  26.122  37.510  10.565
15946W        W84287  17.642  21.188   2.673
15947W        W84288  31.107  35.011  12.488
15948W        W84289  22.248  35.025   3.793
15949W        W84290  36.545   4.895  14.842
15950W        W84291  24.997   5.768  12.841
15951W        W84292  29.980   1.268  12.548
15952W        W84293  35.938  41.028   2.371
15953W        W84294  14.324  25.650  14.771
15954W        W84295   4.328  40.352   2.358
15955W        W84296   0.867  32.128   5.115
15956W        W84297  44.497  42.017  13.320
15957W        W84298  31.137  14.104  11.949
15958W        W84299  43.475   4.287  10.934
15959W        W84300  22.706  19.550  12.956
15960W        W84301  27.189  42.460   1.450
15961W        W84302  10.765  29.636   3.744
15962W        W84303  25.990   2.425  14.762
15963W        W84304  20.702  11.809   1.786
15964W        W84305   9.801  34.880  12.400
15965W        W84306  39.969   1.332   2.211
15966W        W84307  41.489   8.404   0.429
15967W        W84308  32.095  39.061  13.394
15968W        W84309  20.178  41.867  10.449
15969W        W84310  16.208  35.399   9.620
15970W        W84311  25.493  17.782   3.275
15971W        W84312  28.501   5.227   4.772
15972W        W84313  32.115  21.143   5.221
15973W        W84314  23.698  39.453   4.267
15974W        W84315   9.728  38.903   2.341
15975W        W84316  20.078  43.320  12.900
15976W        W84317  31.076   0.890  11.894
15977W        W84318   1.794  36.404  11.409
15978W        W84319  15.631  41.346  11.050
15979W        W84320   0.335  16.755  14.325
15980W        W84321  22.572  19.734   2.858
15981W        W84322  38.899  38.376   4.196
15982W        W84323  25.991   8.742  11.600
15983W        W84324  39.548  10.197   1.274
15984W        W84325  10.298  40.456   1.756
15985W        W84326  15.791  36.943  10.528
15986W        W84327   2.904  12.790  11.416
15987W        W84328  14.733  25.660   3.198
15988W        W84329  21.044  31.043  11.980
15989W        W84330   7.182  31.466  13.439
15990W        W84331  27.978  32.954  12.951
15991W        W84332  22.208  20.139  13.393
15992W        W84333   3.364  25.507   2.874
15993W        W84334  29.104  24.717  13.911
15994W        W84335  41.503  14.795   4.769
15995W        W84336  17.303   3.380   4.166
15996W        W84337   1.288  15.652  11.116
15997W        W84338  33.615  34.053  12.378
15998W        W84339   6.198   1.875  12.848
15999W        W84340   7.263  18.639   1.711
16000W        W84341  20.574  33.061   2.347
16001W        W84342   2.917   0.401  12.897
16002W        W84343  42.842   4.346   3.330
16003W        W84344   6.287  29.016   0.308
16004W        W84345  23.571  38.876  13.049
16005W        W84346   5.241  26.027  11.424
16006W        W84347  40.845  20.198   1.347
16007W        W84348  20.739  11.864   2.663
16008W        W84349  33.395  42.492  13.347
16009W        W84350  44.323  11.219  11.125
16010W        W84351  19.741  34.376   0.792
16011W        W84352   5.207   5.847  13.398
16012W        W84353  14.161  43.905   2.218
16013W        W84354  29.147   8.351   2.895
16014W        W84355  33.515  24.172  12.051
16015W        W84356   1.353  24.543  14.875
16016W        W84357  14.616  30.415  12.373
16017W        W84358  28.496   0.460   4.644
16018W        W84359   6.711  26.038   4.326
16019W        W84360  27.608   6.707  12.420
16020W        W84361   6.387  24.679  11.909
16021W        W84362  32.027  11.719   3.658
16022W        W84363   3.849   2.821   2.292
16023W        W84364  38.518  11.371   0.886
16024W        W84365  14.212  22.056   3.271
16025W        W84366  27.054   8.816   1.282
16026W        W84367   1.285   6.302  13.343
16027W        W84368  14.834  38.029   2.785
16028W        W84369  31.910   9.755   1.727
16029W        W84370  43.876  40.959   0.299
16030W        W84371  27.160   0.898   0.881
16031W        W84372  43.852   6.732  10.507
16032W        W84373  25.507  32.079  10.635
16033W        W84374   4.243  25.694  13.998
16034W        W84375  19.682  37.926  10.476
16035W        W84376  40.539  26.577  13.018
16036W        W84377  17.194  10.173   1.814
16037W        W84378  16.229  23.688  14.927
16038W        W84379   9.324   3.447   1.364
16039W        W84380   5.916  30.529   4.169
16040W        W84381  39.011  33.027   1.696
16041W        W84382  27.026  34.955   3.807
16042W        W84383  34.991   0.476   0.422
16043W        W84384  37.962  19.548   4.601
16044W        W84385  21.513  11.624  13.988
16045W        W84386   6.810  17.678   0.318
16046W        W84387  26.006  17.734   4.838
16047W        W84388  16.736  44.445   4.779
16048W        W84389   8.885  27.051   4.307
16049W        W84390  24.990   7.793   4.277
16050W        W84391  26.132  25.149   5.105
16051W        W84392  10.875  34.500  10.610
16052W        W84393  10.877  11.216   1.256
16053W        W84394  20.623   0.411  10.509
16054W        W84395  14.165   8.330   1.291
16055W        W84396  42.030  28.523  13.543
16056W        W84397  12.335  11.652  14.916
16057W        W84398  10.347  44.947   3.692
16058W        W84399  41.479  40.403  14.372
16059W        W84400  10.742  27.647  14.890
16060W        W84401   9.871  35.596   3.153
16061W        W84402  28.643  38.868   4.145
16062W        W84403  16.267  21.753  14.820
16063W        W84404   8.809  24.220   2.358
16064W        W84405  25.099  31.580  11.504
16065W        W84406  29.661  12.853   1.369
16066W        W84407  21.084  17.751  13.994
16067W        W84408  13.237  16.808   1.289
16068W        W84409  30.560  39.968   3.716
16069W        W84410   4.246  41.349  13.048
16070W        W84411  20.697  35.363   2.400
16071W        W84412  33.078   4.814   4.308
16072W        W84413  40.919   4.804   3.336
16073W        W84414  26.157  38.035  12.900
16074W        W84415  28.548  20.677   2.259
16075W        W84416  27.076  12.148  13.362
16076W        W84417  29.959  36.090   0.446
16077W        W84418  20.234  29.502  13.799
16078W        W84419  21.130  17.765   4.290
16079W        W84420   4.895  25.602   1.889
16080W        W84421  30.107  39.332   3.291
16081W        W84422   5.860  15.223   1.282
16082W        W84423  26.649   8.810  12.026
16083W        W84424  31.977  34.107  11.475
16084W        W84425  19.727  10.809   4.216
16085W        W84426  32.097  27.184  12.466
16086W        W84427   1.439   7.185  14.484
16087W        W84428  40.490   4.291   0.736
16088W        W84429   1.386  35.083  11.904
16089W        W84430   4.776  15.101  11.605
16090W        W84431  27.945   1.412  14.952
16091W        W84432  17.571  38.499   2.239
16092W        W84433  12.798   1.478  10.619
16093W        W84434  39.033   7.782  11.480
16094W        W84435  32.896   1.753  10.605
16095W        W84436   7.271  38.371   1.214
16096W        W84437  24.495   7.183  13.061
16097W        W84438  29.035   8.324   3.817
16098W        W84439  19.677  32.431  13.868
16099W        W84440  37.467  10.305   4.755
16100W        W84441   4.814   2.352  14.801
16101W        W84442  41.463   4.283  12.000
16102W        W84443  11.793  20.046   0.732
16103W        W84444  40.458  37.362   1.775
16104W        W84445   3.253  29.961   1.708
16105W        W84446  30.425  42.010  13.991
16106W        W84447  39.981  12.630   1.828
16107W        W84448  26.207   4.286  14.999
16108W        W84449  30.648  20.564  13.796
16109W        W84450  25.072  26.063  10.942
16110W        W84451  44.448  34.566  10.641
16111W        W84452  12.709  43.358   4.751
16112W        W84453  40.306  21.058   1.869
16113W        W84454  24.136   5.208  11.377
16114W        W84455   7.367  11.370  13.377
16115W        W84456  20.222   4.397  10.987
16116W        W84457  41.039  23.697   2.691
16117W        W84458  34.880  19.053  11.009
16118W        W84459  40.486  21.682   4.615
16119W        W84460  30.038  24.161  11.568
16120W        W84461  39.350  20.603   2.179
16121W        W84462  39.953  40.536  11.418
16122W        W84463   8.771  32.141   4.170
16123W        W84464   5.915  14.802  12.090
16124W        W84465  13.630   0.281  10.956
16125W        W84466   4.857  44.934  11.595
16126W        W84467  25.172  20.273  14.448
16127W        W84468   5.317  23.116   1.388
16128W        W84469  33.974  24.518  10.917
16129W        W84470  41.341  40.935   0.288
16130W        W84471   4.269  21.028   0.304
16131W        W84472  33.120  18.290   2.181
16132W        W84473   8.175  10.812  14.401
16133W        W84474  24.225  27.677   4.134
16134W        W84475  44.766  44.829   2.197
16135W        W84476   8.736  14.115  12.073
16136W        W84477   6.788  17.800  13.833
16137W        W84478  36.513  37.074  12.527
16138W        W84479  20.137  30.030  10.451
16139W        W84480   6.323  43.437  10.552
16140W        W84481  40.434  31.969   0.274
16141W        W84482   9.361  13.181  11.049
16142W        W84483  33.528  34.409   0.941
16143W        W84484  41.937  27.611  13.931
16144W        W84485   0.328  21.156  11.602
16145W        W84486  32.398  33.556  11.042
16146W        W84487   4.748   6.281  10.917
16147W        W84488  33.985  22.232  14.911
16148W        W84489  23.995  23.607  10.551
16149W        W84490  34.917  24.025   3.344
16150W        W84491   2.813  24.160  13.967
16151W        W84492  16.096  25.047   3.767
16152W        W84493  27.526  18.707  14.858
16153W        W84494  39.893  29.014  12.417
16154W        W84495  25.081  39.899   4.227
16155W        W84496  13.176  32.394   3.748
16156W        W84497   1.879   9.295  10.895
16157W        W84498  26.966   1.272   4.115
16158W        W84499  21.198   9.224   3.647
16159W        W84500  31.065  41.466  14.379
16160W        W84501  28.502  39.426   3.199
16161W        W84502  27.498   8.388  12.841
16162W        W84503   2.236  38.544  11.418
16163W        W84504  24.586   7.692  14.489
16164W        W84505  32.397  21.083  10.510
16165W        W84506  32.042  12.352   1.721
16166W        W84507  25.170  40.472  12.031
16167W        W84508  42.344   2.432   1.707
16168W        W84509  15.799  20.221   4.669
16169W        W84510  37.922  32.016  10.939
16170W        W84511  26.045  44.853  14.959
16171W        W84512   9.822   0.494  13.368
16172W        W84513  29.960  20.224   1.233
16173W        W84514   4.901  13.345   1.215
16174W        W84515  23.113  12.688  14.969
16175W        W84516   2.835  18.246   1.402
16176W        W84517   5.877   5.857  10.630
16177W        W84518  33.567  32.132   1.922
16178W        W84519  37.006  40.350  12.999
16179W        W84520  22.691  44.336  12.457
16180W        W84521  27.091  13.345  14.855
16181W        W84522  28.479  25.701   3.694
16182W        W84523  14.681  34.931   3.227
16183W        W84524  26.668  38.325   4.352
16184W        W84525  12.172  31.060  13.045
16185W        W84526  43.993  23.228   3.681
16186W        W84527  39.895   3.363  10.640
16187W        W84528  16.593  32.919   9.992
16188W        W84529  27.105  37.452   1.757
16189W        W84530   5.290   0.449  14.791
16190W        W84531  43.999   6.736   0.813
16191W        W84532   7.723  16.577   0.752
16192W        W84533  40.837   6.729  12.493
16193W        W84534  35.588  13.239   0.883
16194W        W84535   2.440  32.543   1.819
16195W        W84536  28.589  33.553   4.239
16196W        W84537   0.253  44.961   3.781
16197W        W84538  18.731   8.399   3.813
16198W        W84539   9.245  15.699   1.798
16199W        W84540  37.483  35.393   2.228
16200W        W84541   2.288   7.196  10.541
16201W        W84542   5.738  19.210   2.785
16202W        W84543  17.772  34.966  13.310
16203W        W84544  35.405  29.124   4.806
16204W        W84545   3.302   7.700  13.473
16205W        W84546  18.554   0.259  13.471
16206W        W84547  27.031   2.324   1.246
16207W        W84548  35.458   3.800   0.908
16208W        W84549  14.761  34.577  11.919
16209W        W84550  16.236   6.260   2.263
16210W        W84551  23.239  24.136  14.881
16211W        W84552  14.292  13.178  11.423
16212W        W84553   8.223   9.835  13.011
16213W        W84554  18.083   9.158   0.472
16214W        W84555  17.714  21.113   1.874
16215W        W84556   5.782  41.517  12.440
16216W        W84557   8.846  31.537  13.861
16217W        W84558   4.282  17.106   3.148
16218W        W84559  33.919  18.563  11.487
16219W        W84560   6.882  25.081  11.404
16220W        W84561   1.754  33.385   4.807
16221W        W84562  24.532  36.394   0.368
16222W        W84563   4.890  12.360  11.011
16223W        W84564  33.430   8.201  11.415
16224W        W84565  17.608  22.053   1.235
16225W        W84566  33.974  16.657  10.496
16226W        W84567   6.912   4.370  12.926
16227W        W84568  12.824  14.291   5.312
16228W        W84569   0.457  21.240   5.284
16229W        W84570   6.740   6.803  14.789
16230W        W84571  27.657   2.896   3.860
16231W        W84572   0.880  29.941   3.741
16232W        W84573   8.173  24.193  12.555
16233W        W84574  14.794  44.838   1.932
16234W        W84575   4.398  40.866  14.780
16235W        W84576  11.812   0.430  10.645
16236W        W84577   5.812  13.218  11.911
16237W        W84578   7.288  36.417   2.714
16238W        W84579   3.381  12.625   1.231
16239W        W84580  18.054  43.925  12.961
16240W        W84581  39.438  14.657  14.796
16241W        W84582  35.964  14.217   3.801
16242W        W84583  15.795  29.064   2.333
16243W        W84584  19.081  12.758  14.904
16244W        W84585   9.236  14.163   5.273
16245W        W84586  23.735   5.418   3.160
16246W        W84587  18.103  26.590   3.753
16247W        W84588  42.389  19.545  12.462
16248W        W84589   8.258  12.810   4.653
16249W        W84590  25.674  30.633   0.464
16250W        W84591  28.127  37.501  11.980
16251W        W84592  17.701  38.874   0.726
16252W        W84593   9.755  10.288   3.214
16253W        W84594  32.402  14.290  14.762
16254W        W84595  19.629  18.559  12.082
16255W        W84596   9.715   0.970  11.448
16256W        W84597  44.991   4.797   4.166
16257W        W84598   1.903  32.114  12.574
16258W        W84599  21.685   1.864  11.873
16259W        W84600  30.057  21.066   1.917
16260W        W84601  31.516   8.337  10.448
16261W        W84602  38.527  34.591   3.379
16262W        W84603  35.970  14.646  14.773
16263W        W84604  29.072  27.621  12.976
16264W        W84605   9.264  23.025  13.464
16265W        W84606  33.969  15.219  11.073
16266W        W84607  12.754  30.993   0.820
16267W        W84608  13.613  32.618  14.440
16268W        W84609  21.143  39.489   0.952
16269W        W84610   0.345  38.982   0.439
16270W        W84611  10.737  42.393  10.469
16271W        W84612  11.800   1.357   3.663
16272W        W84613  32.931  44.418   0.789
16273W        W84614   6.756  23.216  13.894
16274W        W84615  36.389  43.867   4.165
16275W        W84616   4.440  12.764  11.012
16276W        W84617  17.671  37.056  13.309
16277W        W84618  36.036  30.517   0.313
16278W        W84619  22.631  21.192   3.810
16279W        W84620  34.005  25.521  12.446
16280W        W84621   0.259  44.397  13.533
16281W        W84622  35.499  35.988  14.005
16282W        W84623  40.469  27.135   4.325
16283W        W84624   1.746  10.154  12.907
16284W        W84625  44.930  14.209   2.314
16285W        W84626  22.671   0.794  12.442
16286W        W84627  32.899   5.729  13.508
16287W        W84628   1.261   9.668   1.299
16288W        W84629  41.864  21.099  14.347
16289W        W84630   8.254   9.306   2.875
16290W        W84631  11.177   7.687  12.445
16291W        W84632  30.489   5.235   0.789
16292W        W84633  20.664  34.951   3.182
16293W        W84634  40.892  27.085  11.893
16294W        W84635   6.716   6.319  13.450
16295W        W84636  24.602  22.512   4.603
16296W        W84637  44.403  13.681  11.530
16297W        W84638  43.503  10.747  13.376
16298W        W84639   8.328  40.996  13.446
16299W        W84640  11.179  12.762   5.264
16300W        W84641  44.411  25.975  13.446
16301W        W84642  25.094  37.488  11.517
16302W        W84643   7.355  40.530   5.287
16303W        W84644  17.715  19.536   0.244
16304W        W84645  35.497  40.366  10.512
16305W        W84646  38.893   7.739   1.866
16306W        W84647  22.572  38.841   3.320
16307W        W84648  13.816  20.087  11.865
16308W        W84649   7.715  27.671  11.012
16309W        W84650  40.918  37.888   3.307
16310W        W84651  13.114  12.744   2.297
16311W        W84652  36.904  17.583   4.301
16312W        W84653  31.131  41.021  13.805
16313W        W84654   6.883  20.057   4.140
16314W        W84655  13.698  39.933   4.189
16315W        W84656  23.995  20.131  10.950
16316W        W84657  20.633  17.280   1.444
16317W        W84658   6.681   0.819  14.007
16318W        W84659   9.311  30.023   1.720
16319W        W84660  18.717  18.619  10.461
16320W        W84661  23.151  21.527   4.750
16321W        W84662  11.856   4.205   2.786
16322W        W84663  14.634  43.480  10.606
16323W        W84664  40.352   2.391   4.282
16324W        W84665  25.007  16.567  13.986
16325W        W84666   9.348  14.289   3.263
16326W        W84667   9.723  25.044  13.062
16327W        W84668  20.215  40.310   4.329
16328W        W84669  14.181  17.294   0.417
16329W        W84670  31.484   6.304  11.557
16330W        W84671  40.811  35.871   1.745
16331W        W84672  34.029  43.913  14.014
16332W        W84673   4.838  36.033   3.857
16333W        W84674  33.021  35.513  11.551
16334W        W84675  43.502  36.980   2.397
16335W        W84676  44.958   2.385  12.974
16336W        W84677  28.626  29.141  13.440
16337W        W84678   3.399  10.778   4.691
16338W        W84679  29.623   0.884  12.496
16339W        W84680  26.559   3.229  12.925
16340W        W84681   7.766   6.375  11.116
16341W        W84682  12.622  22.067   4.730
16342W        W84683  16.293  15.305  13.352
16343W        W84684  11.646  23.700  12.965
16344W        W84685   1.305  31.648  11.536
16345W        W84686  41.320  44.452   0.479
16346W        W84687   9.674  10.266   3.752
16347W        W84688  22.232  12.245  11.998
16348W        W84689   3.913  24.693  10.463
16349W        W84690   9.276  36.571  12.344
16350W        W84691   6.728   2.838   3.695
16351W        W84692   0.824  44.819  14.900
16352W        W84693  42.946  15.262  12.976
16353W        W84694  42.429  25.576  12.349
16354W        W84695  27.686  32.046   4.167
16355W        W84696   6.295  20.571  11.926
16356W        W84697  15.632  44.277   2.396
16357W        W84698  37.043  24.025   1.830
16358W        W84699  34.426  43.493  10.542
16359W        W84700  43.801  14.340  12.833
16360W        W84701  43.779   7.838  13.853
16361W        W84702  36.078  20.650  14.457
16362W        W84703  12.718  20.099   1.212
16363W        W84704  13.151   9.238  14.381
16364W        W84705   3.249   5.933  10.513
16365W        W84706   5.777   3.282  12.867
16366W        W84707  44.977  40.362  14.368
16367W        W84708  24.231  25.150   0.727
16368W        W84709  38.464  14.759   0.787
16369W        W84710  32.506  39.037   2.255
16370W        W84711  18.556  42.448   1.374
16371W        W84712  28.616  40.024   2.341
16372W        W84713   6.724  25.013   3.780
16373W        W84714  22.060  20.203  10.404
16374W        W84715  11.358  36.849   0.813
16375W        W84716  13.652  11.773   4.781
16376W        W84717  19.116  36.363   3.265
16377W        W84718  17.143  41.312  11.092
16378W        W84719  14.663  17.175   1.324
16379W        W84720  30.416  33.996   4.780
16380W        W84721  42.948  12.275   3.762
16381W        W84722   0.765  38.486   4.286
16382W        W84723  17.603  34.502  12.951
16383W        W84724  24.150  24.113   1.445
16384W        W84725   2.861  41.463  14.826
16385W        W84726  44.290  20.640  14.960
16386W        W84727   6.908  34.071  12.345
16387W        W84728   5.271   9.225   4.673
16388W        W84729  44.814   1.972   4.829
16389W        W84730  43.416  15.703  13.534
16390W        W84731  35.975   0.846   4.350
16391W        W84732  12.766  15.654   4.817
16392W        W84733  41.324   8.854  14.404
16393W        W84734   4.821  20.642  10.021
16394W        W84735  24.178  18.169   4.821
16395W        W84736  38.003  34.101  14.378
16396W        W84737  34.884  30.134  14.466
16397W        W84738   8.287  23.502  14.899
16398W        W84739  42.778  29.653  13.447
16399W        W84740  20.735  23.186  10.888
16400W        W84741   9.363  37.084  11.373
16401W        W84742  19.676  28.983   1.319
16402W        W84743   2.955  22.572   4.832
16403W        W84744  36.551  10.246  13.392
16404W        W84745  10.236  14.103   2.246
16405W        W84746  43.883   2.799  14.465
16406W        W84747  22.740  14.627  12.975
16407W        W84748  16.567  39.890  11.120
16408W        W84749  34.502  29.093  10.456
16409W        W84750  41.974  25.066   1.410
16410W        W84751  33.494  22.537   3.816
16411W        W84752  30.581  30.097   1.363
16412W        W84753  34.427  35.924  12.345
16413W        W84754  39.893  19.716   2.785
16414W        W84755   7.383  20.729   1.443
16415W        W84756   5.250  20.061   1.818
16416W        W84757  20.767   9.225   4.620
16417W        W84758  41.934   0.426   3.173
16418W        W84759  21.108  17.730  11.393
16419W        W84760   2.808  26.181  13.510
16420W        W84761  44.423  39.930  13.879
16421W        W84762  19.612  17.559  13.356
16422W        W84763  33.900  37.957  14.848
16423W        W84764   7.802  21.733   3.774
16424W        W84765  25.106  21.070   9.925
16425W        W84766  43.920   4.764   2.373
16426W        W84767  41.880  14.132   0.763
16427W        W84768  32.014  15.240  14.472
16428W        W84769  24.052  18.606   2.890
16429W        W84770  38.522  29.621   2.321
16430W        W84771  39.398  37.418  11.568
16431W        W84772  29.503   4.707  14.948
16432W        W84773  33.021   3.352  13.407
16433W        W84774  16.686  14.263   3.210
16434W        W84775  27.119   9.212   3.256
16435W        W84776  26.088  18.115  10.018
16436W        W84777  19.570  27.114   4.635
16437W        W84778  25.492  36.841  10.516
16438W        W84779  39.818  28.042  14.425
16439W        W84780  31.565  13.313  13.858
16440W        W84781  38.430  23.023  13.890
16441W        W84782  14.632   6.348   3.865
16442W        W84783  27.978  34.427   4.617
16443W        W84784  43.481  37.350   0.921
16444W        W84785  27.574   1.422   4.775
16445W        W84786   3.788  15.786  12.558
16446W        W84787  24.664  10.780  10.532
16447W        W84788   1.447   3.897  11.568
16448W        W84789   1.276  28.095  12.381
16449W        W84790   4.233   5.848  12.063
16450W        W84791  20.143   0.885   3.705
16451W        W84792   9.370  25.024  10.462
16452W        W84793  24.539   4.275  14.962
16453W        W84794  22.666  16.147   4.644
16454W        W84795   1.862  32.580   1.413
16455W        W84796  15.179  44.848  14.437
16456W        W84797  31.020  17.190  13.876
16457W        W84798  15.124  17.118   3.259
16458W        W84799  20.195   1.900  10.629
16459W        W84800  41.831  14.118   4.812
16460W        W84801  43.894  25.673  11.558
16461W        W84802  37.849  37.931   2.183
16462W        W84803  30.513  19.558   1.346
16463W        W84804  23.501  20.146   1.728
16464W        W84805  43.902  38.563  14.865
16465W        W84806  16.616  23.202  13.054
16466W        W84807  26.053  37.453   0.468
16467W        W84808  35.947  30.470  13.436
16468W        W84809   7.247  44.379  14.779
16469W        W84810  17.156  39.408  10.612
16470W        W84811  18.060  26.970  14.410
16471W        W84812   6.249  29.666  12.370
16472W        W84813  34.411  25.527   1.774
16473W        W84814  33.997   0.448   3.803
16474W        W84815  23.612   7.386   0.930
16475W        W84816   8.276  41.908  12.347
16476W        W84817   8.826  40.797  10.414
16477W        W84818  24.124  28.983  12.086
16478W        W84819  20.071  31.986   0.320
16479W        W84820   4.698  35.370  13.382
16480W        W84821  19.555  33.081   3.354
16481W        W84822  28.078  42.527   3.222
16482W        W84823  22.555  42.527   4.284
16483W        W84824  22.703   2.448   2.778
16484W        W84825  12.331   0.457   3.770
16485W        W84826  13.796  15.235  12.058
16486W        W84827   0.976  16.790   5.769
16487W        W84828  39.443  36.951   3.184
16488W        W84829  18.240  19.772   2.268
16489W        W84830  16.628  20.711   4.312
16490W        W84831  34.872  41.525   4.328
16491W        W84832  21.686  39.422   2.669
16492W        W84833  32.001  18.205  10.561
16493W        W84834  30.934  29.440   1.817
16494W        W84835  27.527  37.424  12.066
16495W        W84836  36.359   1.765  14.335
16496W        W84837  42.473  41.330  14.003
16497W        W84838  12.817  20.676   0.347
16498W        W84839  14.746  44.827   0.753
16499W        W84840  21.175  21.215  10.908
16500W        W84841  16.636  24.213  10.420
16501W        W84842  11.280  42.778  13.017
16502W        W84843  38.875  25.533  12.836
16503W        W84844  10.725  22.605   4.713
16504W        W84845  39.400  27.168  11.989
16505W        W84846  42.459  33.581   2.194
16506W        W84847  26.549  39.541   4.220
16507W        W84848  13.681  34.586  12.389
16508W        W84849   6.735   0.325   2.858
16509W        W84850  41.379  22.998   1.849
16510W        W84851  37.569  31.407   4.319
16511W        W84852  42.867  12.855   9.953
16512W        W84853  11.834  41.986   3.195
16513W        W84854  18.062  37.562   0.429
16514W        W84855   2.757  29.930   0.866
16515W        W84856  43.783   9.812   1.451
16516W        W84857   7.339   3.450   4.767
16517W        W84858  42.920   0.291   4.656
16518W        W84859  35.390  39.553   2.785
16519W        W84860  11.703  17.211  10.120
16520W        W84861   1.918  20.589  13.467
16521W        W84862   8.668   0.874  12.849
16522W        W84863  16.219  21.054   5.261
16523W        W84864  44.427   5.194  13.019
16524W        W84865  36.935  17.263   0.744
16525W        W84866  25.969  37.985  13.483
16526W        W84867  35.555  10.835  10.615
16527W        W84868   1.921  33.469  12.881
16528W        W84869  32.127  32.916  11.933
16529W        W84870  38.328  22.656  10.480
16530W        W84871   9.201  21.047  11.004
16531W        W84872   2.734  15.749   2.895
16532W        W84873  35.601  20.095  11.393
16533W        W84874  31.402  38.450  13.351
16534W        W84875   2.818   5.906   2.824
16535W        W84876  17.556  39.882  14.860
16536W        W84877  16.114  12.637  11.907
16537W        W84878  11.666  27.573  11.588
16538W        W84879  37.565  20.214   2.182
16539W        W84880  13.110  44.321   4.749
16540W        W84881   5.785  35.970  13.050
16541W        W84882   5.288  10.333   3.251
16542W        W84883  26.661  39.975  11.938
16543W        W84884  15.652  36.053  13.332
16544W        W84885  30.081  44.289   0.887
16545W        W84886   3.447  22.642  10.602
16546W        W84887  38.428  26.576   3.782
16547W        W84888  42.981  41.004  10.970
16548W        W84889  10.142  35.952  12.393
16549W        W84890   6.350  24.227  13.373
16550W        W84891  39.472  17.171  11.081
16551W        W84892  17.123   4.790   9.959
16552W        W84893   6.212   1.753   1.777
16553W        W84894  35.472  37.520  11.104
16554W        W84895   3.267  38.074  11.382
16555W        W84896  40.853  25.029   2.179
16556W        W84897  31.469  27.130   2.800
16557W        W84898  33.875  14.823   4.655
16558W        W84899  25.560  15.180   3.369
16559W        W84900  20.715  24.673   3.159
16560W        W84901  42.459  10.712   0.254
16561W        W84902  20.596  43.442  11.025
16562W        W84903  28.996  12.217  11.467
16563W        W84904  43.831  21.231  10.414
16564W        W84905   3.371  43.323   0.874
16565W        W84906  34.000  28.558  14.352
16566W        W84907  19.596   3.219   1.830
16567W        W84908  42.522   1.969   1.358
16568W        W84909  36.930  32.624  12.991
16569W        W84910  23.683  22.015   3.239
16570W        W84911  28.581  43.438  11.974
16571W        W84912  25.673   4.801   1.438
16572W        W84913  42.315  20.094  13.969
16573W        W84914  40.979  41.309   4.632
16574W        W84915   2.418  24.697   0.766
16575W        W84916  32.999   7.257   0.791
16576W        W84917  23.050  30.562   4.206
16577W        W84918  34.557  34.976   3.381
16578W        W84919  31.954  22.180   3.781
16579W        W84920  44.453   0.775   1.739
16580W        W84921  42.024  14.152   2.744
16581W        W84922  32.535  35.443  11.380
16582W        W84923  27.655  21.516  11.869
16583W        W84924  21.653  13.699   1.401
16584W        W84925  17.235  11.131   4.796
16585W        W84926   7.367  12.734   3.653
16586W        W84927  14.726  34.049   0.321
16587W        W84928  20.699  18.625  13.062
16588W        W84929  37.887  24.074   2.728
16589W        W84930   5.750  32.119  13.470
16590W        W84931   7.291  16.208   3.681
16591W        W84932  17.712  20.708   3.784
16592W        W84933   2.863  37.859   4.238
16593W        W84934  42.024  44.295  10.032
16594W        W84935   0.444  15.223  13.929
16595W        W84936  35.899  10.159  11.093
16596W        W84937  36.884  44.982  13.319
16597W        W84938  30.988  24.645  15.000
16598W        W84939  30.523   8.253  12.459
16599W        W84940  32.923  34.501   3.263
16600W        W84941  37.461   1.394   4.350
16601W        W84942  42.380  35.861  11.869
16602W        W84943   7.232   6.228  13.477
16603W        W84944  32.056  23.596   3.740
16604W        W84945  23.066   4.286  14.016
16605W        W84946  25.080  33.448  11.971
16606W        W84947  39.935  42.946   4.791
16607W        W84948  26.690  27.652   4.790
16608W        W84949  27.021  42.511  14.920
16609W        W84950   3.836  13.326   2.307
16610W        W84951  22.093   8.731   1.919
16611W        W84952  33.059   9.357   1.809
16612W        W84953  42.973   7.818  11.575
16613W        W84954  34.408  37.395   3.868
16614W        W84955  29.516  30.097   0.274
16615W        W84956  42.007   6.279  12.852
16616W        W84957   1.931  38.450   4.747
16617W        W84958  19.107  11.216  14.469
16618W        W84959  37.890  10.174   9.932
16619W        W84960  11.813  34.104   0.740
16620W        W84961  33.624   6.265  13.042
16621W        W84962  29.612  10.796  10.643
16622W        W84963  26.972  19.724  11.910
16623W        W84964  32.554  27.026  11.428
16624W        W84965  15.732  26.956   1.789
16625W        W84966  40.381   5.833  14.972
16626W        W84967  18.562   9.339   1.253
16627W        W84968  15.648   1.331   0.480
16628W        W84969  37.463  42.284  12.902
16629W        W84970  25.519  42.812  13.905
16630W        W84971  32.130   9.714  12.564
16631W        W84972  30.929  11.692   3.676
16632W        W84973   9.152   0.311   0.753
16633W        W84974   0.797  44.922   3.699
16634W        W84975   0.947  37.936   3.379
16635W        W84976  18.268   3.929  13.834
16636W        W84977  28.648   5.732   1.239
16637W        W84978  34.476  17.591  10.455
16638W        W84979  22.723  42.360  12.391
16639W        W84980  22.703   8.889  14.363
16640W        W84981  16.804  15.823  10.541
16641W        W84982  42.383  42.030   3.183
16642W        W84983  40.935  16.688  10.486
16643W        W84984  22.530   5.918  13.459
16644W        W84985  38.372   9.367  13.547
16645W        W84986  44.991  40.503   1.772
16646W        W84987  28.649   8.754  10.537
16647W        W84988  26.682  24.668  13.808
16648W        W84989   8.325  40.937  11.891
16649W        W84990   0.966  34.610  11.027
16650W        W84991  22.161  43.979   2.850
16651W        W84992   8.163   6.893  14.342
16652W        W84993  19.079   6.193   4.716
16653W        W84994  33.914  27.969  11.382
16654W        W84995   8.685  24.026   1.879
16655W        W84996  24.009   6.846   4.221
16656W        W84997  37.531  26.045  11.402
16657W        W84998  26.660  28.460   3.789
16658W        W84999  27.151  17.165   1.424
16659W        W85000  28.648  40.436  12.424
16660W        W85001  20.643  30.035   1.229
16661W        W85002  24.488  37.855  10.527
16662W        W85003   6.730  17.582   1.429
16663W        W85004  43.452  14.124   1.785
16664W        W85005  44.488  44.819  13.442
16665W        W85006  15.580  15.631   0.445
16666W        W85007  32.964  38.922   1.332
16667W        W85008  20.618   4.842  14.002
16668W        W85009  43.976   2.317   1.375
16669W        W85010   3.295   6.809  13.887
16670W        W85011  40.045   6.801   1.748
16671W        W85012  36.990  12.717   0.953
16672W        W85013  10.854  42.948   2.201
16673W        W85014   7.319  11.751  12.923
16674W        W85015  31.111  43.947   3.160
16675W        W85016  33.128  23.645   3.299
16676W        W85017  30.071  34.457   4.313
16677W        W85018  18.211  31.108   2.698
16678W        W85019  38.558  19.174  11.419
16679W        W85020  32.552   9.186  13.906
16680W        W85021  38.070  38.570  13.317
16681W        W85022   3.256  34.418  14.437
16682W        W85023  35.090  28.086  13.426
16683W        W85024  35.102  22.037   0.435
16684W        W85025   1.800  35.004   3.340
16685W        W85026  33.383  22.072   0.402
16686W        W85027  15.119   4.265  14.881
16687W        W85028  13.694  15.769   0.348
16688W        W85029  40.832  32.579  13.336
16689W        W85030  15.104  39.338   4.616
16690W        W85031  43.455  26.955   0.347
16691W        W85032  32.473  33.999  13.449
16692W        W85033  33.610   7.192  13.894
16693W        W85034  24.688   3.407  10.554
16694W        W85035   8.162   5.801  12.399
16695W        W85036  16.704  21.198   4.145
16696W        W85037  29.922   1.431   1.422
16697W        W85038  32.484  25.689   0.315
16698W        W85039  17.082  33.987   2.714
16699W        W85040   0.402  33.510   4.746
16700W        W85041  21.077  24.670  10.484
16701W        W85042   5.301   9.206   1.431
16702W        W85043  12.761  34.917  14.001
16703W        W85044   5.206  32.483  13.887
16704W        W85045  34.914  36.072   2.772
16705W        W85046  25.705   2.807   3.640
16706W        W85047  43.307  32.142   2.238
16707W        W85048  35.932  26.197   2.800
16708W        W85049  25.212  13.151   3.783
16709W        W85050  34.023   2.353  10.492
16710W        W85051  35.027  20.243   1.213
16711W        W85052  33.965  34.601  14.869
16712W        W85053  42.789   5.851  10.999
16713W        W85054  16.137  40.017   1.379
16714W        W85055   0.265  31.437   2.371
16715W        W85056  41.881  18.210  13.319
16716W        W85057  14.257  31.640  11.388
16717W        W85058  16.289  17.681  14.007
16718W        W85059   8.794  23.689  14.866
16719W        W85060  15.155  37.908  15.000
16720W        W85061  27.605  23.546   4.777
16721W        W85062  36.006  22.745   4.317
16722W        W85063   1.310  24.684  13.411
16723W        W85064  21.061  33.419  14.810
16724W        W85065  14.641   9.775  11.388
16725W        W85066  26.512   9.266  13.955
16726W        W85067  23.524   6.235  12.844
16727W        W85068  28.613  12.153  10.478
16728W        W85069   6.354  17.763  14.402
16729W        W85070   4.740  44.451  11.937
16730W        W85071  43.324  16.221  10.893
16731W        W85072  33.435  41.298   4.716
16732W        W85073  25.016  23.545  13.378
16733W        W85074  14.682   9.846  10.438
16734W        W85075   0.894  37.973  14.413
16735W        W85076  37.378   4.866  10.643
16736W        W85077  24.491  15.205   1.256
16737W        W85078   1.418  40.378  14.874
16738W        W85079  21.230  35.081   4.690
16739W        W85080   9.857  21.602  13.334
16740W        W85081  30.469  14.786  13.000
16741W        W85082  20.206  39.051   0.864
16742W        W85083   6.747  28.667  14.785
16743W        W85084  11.777  32.098   0.840
16744W        W85085  22.660  44.930  12.573
16745W        W85086  11.253  29.566  12.018
16746W        W85087   6.224  17.168  12.355
16747W        W85088  28.106   0.960   2.262
16748W        W85089  22.600  21.087   0.358
16749W        W85090  29.028  36.445   4.813
16750W        W85091  23.987  24.678   3.847
16751W        W85092  16.311   7.338  10.893
16752W        W85093   3.911  21.722   1.719
16753W        W85094  35.071  31.560  12.967
16754W        W85095  42.523   4.828   4.615
16755W        W85096  32.959   4.205  14.353
16756W        W85097  26.494  15.248   4.808
16757W        W85098  23.636  12.662  10.408
16758W        W85099  36.365  13.632   1.928
16759W        W85100  37.948  35.100   4.155
16760W        W85101   1.326  31.127  13.005
16761W        W85102  24.552  14.193   4.817
16762W        W85103   8.727  38.835  10.026
16763W        W85104  37.953  25.549  14.305
16764W        W85105  24.590  17.063   4.784
16765W        W85106  10.359  35.986   0.751
16766W        W85107  12.853   9.662   4.638
16767W        W85108  13.290   9.218   3.797
16768W        W85109   5.349   1.315   4.662
16769W        W85110   8.273  15.676  10.509
16770W        W85111  43.467  37.024  12.955
16771W        W85112  44.800  40.041   4.634
16772W        W85113  23.558   5.775  14.802
16773W        W85114  31.098  17.235  10.094
16774W        W85115   7.859  41.509   3.155
16775W        W85116  26.016  42.789   1.396
16776W        W85117   3.282  27.122   0.844
16777W        W85118  34.430  16.744   4.130
16778W        W85119  36.990  39.508  13.951
16779W        W85120  38.470  15.187   1.287
16780W        W85121   6.233   9.206  13.957
16781W        W85122  10.365  29.932   0.733
16782W        W85123   2.852  34.542  14.455
16783W        W85124   3.893  44.773  10.968
16784W        W85125  40.918   7.308  14.334
16785W        W85126  18.088  11.289  12.993
16786W        W85127  19.049   0.253  11.106
16787W        W85128   6.785  15.654  13.916
16788W        W85129  14.188  11.278   3.223
16789W        W85130  23.672   4.879   3.807
16790W        W85131  23.596  28.010   3.210
16791W        W85132  41.028  37.017   1.805
16792W        W85133  22.250  39.473  11.882
16793W        W85134  30.522   1.440  12.001
16794W        W85135  39.506   6.340   4.617
16795W        W85136   4.205  42.320  14.998
16796W        W85137  21.174  24.601  14.382
16797W        W85138  20.657   9.198  14.785
16798W        W85139   9.218  40.984  11.427
16799W        W85140  11.830  15.640   2.314
16800W        W85141  37.470  33.562  10.911
16801W        W85142  42.406   7.338  14.894
16802W        W85143  39.521  11.793  10.588
16803W        W85144  14.236  14.746   4.693
16804W        W85145  40.453   4.905   9.999
16805W        W85146  34.557   0.248  11.534
16806W        W85147  16.149  42.991   2.755
16807W        W85148  34.071  22.543  11.386
16808W        W85149  34.501  30.164  10.509
16809W        W85150  19.049   0.957  13.875
16810W        W85151  33.993  29.546  14.997
16811W        W85152  25.604  27.124  11.044
16812W        W85153  28.934  36.349  11.376
16813W        W85154  21.735   6.289  10.095
16814W        W85155  17.126  42.308  14.023
16815W        W85156  11.806  18.123  11.995
16816W        W85157   1.748  24.192  11.384
16817W        W85158   9.727  35.048   3.665
16818W        W85159  24.146  16.598   0.359
16819W        W85160  34.037   4.384   2.724
16820W        W85161  23.984  22.140   1.238
16821W        W85162  40.372  21.154   3.245
16822W        W85163  17.572   4.246  12.399
16823W        W85164  20.571  39.465   3.153
16824W        W85165  17.789  10.735   2.720
16825W        W85166  43.343   4.879  12.450
16826W        W85167  19.141  12.815  10.925
16827W        W85168  34.590  36.476  13.036
16828W        W85169  15.784  24.181   5.751
16829W        W85170  43.272   2.724   1.211
16830W        W85171   9.352  22.030   0.306
16831W        W85172  27.189   5.409  14.966
16832W        W85173  23.181   8.302   4.807
16833W        W85174  44.283  18.670  10.103
16834W        W85175  23.592  26.172   4.295
16835W        W85176  10.714  21.155   0.475
16836W        W85177  26.528  41.955  12.393
16837W        W85178   7.205  36.419  14.766
16838W        W85179  38.392  23.646   4.219
16839W        W85180  19.747  36.490  12.500
16840W        W85181   7.788   9.306  10.560
16841W        W85182  31.030  39.979  14.364
16842W        W85183  22.197  41.938   0.832
16843W        W85184  12.292  27.587  14.817
16844W        W85185  23.537  27.065  13.447
16845W        W85186   2.859  23.193  10.488
16846W        W85187  44.919  28.003   1.448
16847W        W85188  13.349  13.271  10.997
16848W        W85189  36.943  41.896  14.922
16849W        W85190  43.765   1.789   4.280
16850W        W85191  34.115  20.177   3.230
16851W        W85192  11.236  28.579  14.917
16852W        W85193   3.779  33.874  10.496
16853W        W85194   6.909   8.751  11.423
16854W        W85195   1.947  21.178   2.297
16855W        W85196  22.056  41.503   4.631
16856W        W85197  41.344   1.340  12.012
16857W        W85198  22.698  26.639   4.744
16858W        W85199  26.492  40.869   5.283
16859W        W85200  37.997   8.671  14.977
16860W        W85201   1.411  43.418   2.873
16861W        W85202   6.410  38.034  14.440
16862W        W85203  10.847  16.076   0.865
16863W        W85204  32.057  14.657   1.741
16864W        W85205  20.146  39.833   1.799
16865W        W85206   9.334  39.935   4.650
16866W        W85207  37.440  22.731   4.330
16867W        W85208  44.478   9.710   9.981
16868W        W85209  21.183  28.629   3.305
16869W        W85210   8.206  34.438  14.412
16870W        W85211  43.399  39.431  10.897
16871W        W85212  11.142  39.317  10.047
16872W        W85213  35.434  41.431  10.474
16873W        W85214  27.987  30.138   1.411
16874W        W85215   7.218   2.309  13.328
16875W        W85216  24.678  38.503   3.748
16876W        W85217  38.883  44.791   1.394
16877W        W85218  37.011  27.453   1.858
16878W        W85219  29.022  12.728  11.993
16879W        W85220   7.180  23.669  14.410
16880W        W85221  23.666  29.162   4.193
16881W        W85222  24.167  35.057  10.473
16882W        W85223  18.153  39.427  11.585
16883W        W85224   3.372  27.083  12.397
16884W        W85225  32.540  11.727  10.929
16885W        W85226  25.538   5.202   4.269
16886W        W85227   8.379   4.392   4.758
16887W        W85228  13.723  16.114  11.989
16888W        W85229  18.136   4.290  11.470
16889W        W85230  11.341  22.248  11.062
16890W        W85231  13.652  20.230  11.042
16891W        W85232  33.082   5.309   1.788
16892W        W85233  14.293  33.003   2.806
16893W        W85234   9.368   3.447  12.504
16894W        W85235  14.735  43.891  10.429
16895W        W85236  35.361  40.871   4.135
16896W        W85237  12.167  31.028   3.279
16897W        W85238  26.577  38.882  12.580
16898W        W85239   8.812  12.280   4.248
16899W        W85240  14.708   8.226  12.922
16900W        W85241  31.406  30.007   2.226
16901W        W85242  17.675  41.535  10.600
16902W        W85243  43.352  12.226   3.787
16903W        W85244  40.807  35.603  10.921
16904W        W85245  25.065   0.745   4.732
16905W        W85246  24.076  14.701   2.271
16906W        W85247  19.718  22.099  13.811
16907W        W85248   1.369  20.144   1.792
16908W        W85249  27.460  22.007   3.187
16909W        W85250  43.837  44.376  12.942
16910W        W85251   3.361   7.772  13.863
16911W        W85252   3.743  15.144  11.469
16912W        W85253  39.384   7.680   3.261
16913W        W85254  18.134  24.976   1.751
16914W        W85255  37.859  11.628  13.797
16915W        W85256  40.968  36.502  14.962
16916W        W85257  19.746   6.402  11.942
16917W        W85258  31.432  31.986  12.482
16918W        W85259  31.418  37.401  11.498
16919W        W85260  31.430  33.381  10.638
16920W        W85261   7.260  43.459   1.335
16921W        W85262  14.248  37.567  14.902
16922W        W85263  23.188  27.118   2.273
16923W        W85264  36.568   7.269   0.248
16924W        W85265  19.560  27.561   3.178
16925W        W85266  16.174  13.796   3.205
16926W        W85267  14.611   2.893   2.350
16927W        W85268  20.113  13.782  12.427
16928W        W85269  15.603  24.028   4.641
16929W        W85270  24.199  16.270   9.622
16930W        W85271  38.517  21.201  10.473
16931W        W85272  20.542  30.925  10.920
16932W        W85273   9.296   2.839  12.494
16933W        W85274  37.558   2.287   5.297
16934W        W85275   2.954  39.963  14.295
16935W        W85276  11.136  12.134   9.674
16936W        W85277   0.839   8.659   1.796
16937W        W85278   7.318  19.550   0.284
16938W        W85279   2.814   7.891  13.510
16939W        W85280   9.169  23.587  11.101
16940W        W85281   2.329   4.859   3.156
16941W        W85282  25.659  33.122   0.334
16942W        W85283  25.131  30.602   0.851
16943W        W85284   0.764  23.567  11.597
16944W        W85285  22.550  25.133   2.383
16945W        W85286  13.323   3.896  13.480
16946W        W85287   1.832  25.174   0.879
16947W        W85288  40.031  20.115  14.516
16948W        W85289  26.475  41.401  11.374
16949W        W85290  40.959  44.933   0.894
16950W        W85291  24.549  43.352   3.362
16951W        W85292  44.881   7.415   1.413
16952W        W85293  16.074  16.314  13.003
16953W        W85294  17.600  19.738   4.326
16954W        W85295   8.793  23.063  10.468
16955W        W85296  42.775  43.814  13.370
16956W        W85297   7.725  13.304   2.329
16957W        W85298   0.397  21.536   2.264
16958W        W85299  17.278   3.891   1.865
16959W        W85300  21.719  19.592   2.372
16960W        W85301  12.157  11.788  12.549
16961W        W85302  33.520  10.376  10.585
16962W        W85303  12.787  27.499  10.588
16963W        W85304  39.319  16.199  13.926
16964W        W85305  19.580  34.552  14.492
16965W        W85306  11.197  14.266  14.963
16966W        W85307   5.907  34.455   1.813
16967W        W85308   6.907  38.863   1.885
16968W        W85309  27.551  13.271  12.044
16969W        W85310  26.032  36.497   4.270
16970W        W85311  43.984  23.655   1.902
16971W        W85312  43.346  41.406  12.572
16972W        W85313  36.417  24.198   1.351
16973W        W85314  27.647  27.127   5.749
16974W        W85315  35.589  16.088  11.479
16975W        W85316   8.395  27.675  12.021
16976W        W85317  32.490   8.672  12.408
16977W        W85318  43.276  24.229   3.277
16978W        W85319  12.257  12.677  12.390
16979W        W85320   7.808  25.588  12.054
16980W        W85321  25.164  24.169  13.874
16981W        W85322  11.698  16.105  13.060
16982W        W85323  11.309  29.514   0.245
16983W        W85324  37.487  13.795   1.877
16984W        W85325   9.837   9.169  11.907
16985W        W85326  41.824   1.365  10.932
16986W        W85327  37.832  17.295   4.202
16987W        W85328  16.108   0.442  14.480
16988W        W85329  31.541   9.361  11.422
16989W        W85330  31.014   3.798  11.570
16990W        W85331  34.030   6.735   4.124
16991W        W85332  36.437  24.055  14.485
16992W        W85333  27.179  30.454  12.045
16993W        W85334   3.799  14.688  11.426
16994W        W85335  40.511  29.129   4.296
16995W        W85336  15.628  33.131  14.814
16996W        W85337   9.780  34.080  14.917
16997W        W85338   0.470  32.418   2.889
16998W        W85339  39.039  25.511  12.033
16999W        W85340  23.732  18.166  13.350
17000W        W85341   9.317  43.974   4.203
17001W        W85342  16.581  28.062   2.237
17002W        W85343  28.441   9.210   3.832
17003W        W85344   1.384  11.314  13.885
17004W        W85345  26.473  35.923   2.765
17005W        W85346  24.998  36.894   4.760
17006W        W85347  41.530   1.479  14.878
17007W        W85348  24.173  33.602  11.448
17008W        W85349   3.860   1.976   1.788
17009W        W85350   7.742  11.160   4.727
17010W        W85351  14.764  42.422   0.965
17011W        W85352  37.557  26.646  14.918
17012W        W85353   4.311  10.333  13.326
17013W        W85354  11.713  10.843   2.387
17014W        W85355  12.240   8.286  14.862
17015W        W85356  32.990  38.358   0.268
17016W        W85357   0.372  20.116   1.333
17017W        W85358  11.137  13.346   0.440
17018W        W85359  26.170  25.196  11.507
17019W        W85360   2.253   0.282   3.219
17020W        W85361  25.480  41.881   2.713
17021W        W85362  18.705  26.526  13.491
17022W        W85363  20.155  35.469  11.017
17023W        W85364  20.229   1.857   1.297
17024W        W85365   4.395  28.017   0.896
17025W        W85366  20.076  30.445   0.748
17026W        W85367  11.210   7.782  14.952
17027W        W85368  28.092  21.046   4.831
17028W        W85369  23.573  35.963   3.654
17029W        W85370  17.264   5.928   0.403
17030W        W85371  10.162  27.447   4.838
17031W        W85372  19.077  29.568   0.473
17032W        W85373  23.217  18.052   3.334
17033W        W85374  32.501  11.211  11.098
17034W        W85375  26.561   0.358  11.961
17035W        W85376   1.872   5.828   2.346
17036W        W85377   5.804   6.230  10.948
17037W        W85378  36.377  19.234   2.335
17038W        W85379  10.700   6.880   4.222
17039W        W85380  32.472   4.260  14.495
17040W        W85381  24.564  36.906   0.309
17041W        W85382  28.629   4.905  13.540
17042W        W85383  22.518  17.660   1.299
17043W        W85384   8.352  44.415   2.845
17044W        W85385  25.513  40.960  10.515
17045W        W85386  38.413  18.159   0.785
17046W        W85387  41.479   3.221   4.287
17047W        W85388  21.691  31.995  12.552
17048W        W85389  43.992  17.197  11.485
17049W        W85390   6.341  21.107   4.260
17050W        W85391  44.766   3.436  11.507
17051W        W85392  18.599  41.309  14.910
17052W        W85393  29.964  19.152   4.815
17053W        W85394  32.514  21.114  14.883
17054W        W85395  30.646  19.540  11.940
17055W        W85396  17.793  41.807  11.602
17056W        W85397  32.074  40.445   3.179
17057W        W85398  12.619  29.080   2.241
17058W        W85399  17.627  22.146   0.803
17059W        W85400   4.446  32.139  13.959
17060W        W85401   1.961  28.639   4.624
17061W        W85402  10.232  35.437  13.896
17062W        W85403   6.379  42.778   0.383
17063W        W85404  12.203  18.632  12.864
17064W        W85405  13.804  36.498  14.359
17065W        W85406  32.111  27.968   1.808
17066W        W85407  27.095  30.926  14.404
17067W        W85408  32.409  11.768   3.147
17068W        W85409  21.221  36.573   3.365
17069W        W85410  29.123   3.361  11.120
17070W        W85411   5.413  36.097   4.319
17071W        W85412   0.391  33.399   3.815
17072W        W85413  16.799  15.642   5.300
17073W        W85414  41.479  18.160   2.824
17074W        W85415   5.370   8.825  12.894
17075W        W85416  33.503   8.159  12.537
17076W        W85417  36.075  15.090  14.973
17077W        W85418  31.485  29.602  10.581
17078W        W85419   2.846  17.714  13.985
17079W        W85420   0.836  31.459  14.944
17080W        W85421  14.631  40.973  14.467
17081W        W85422  25.590  32.927   4.678
17082W        W85423  27.524  34.905   1.820
17083W        W85424  37.549   7.832  10.436
17084W        W85425   3.408  42.372  11.471
17085W        W85426  44.500  31.930  12.515
17086W        W85427  39.453  37.991   4.160
17087W        W85428  42.484  37.406  12.986
17088W        W85429   4.383  35.574   1.901
17089W        W85430  30.055  11.130  12.854
17090W        W85431  25.665  34.562   0.445
17091W        W85432   8.685  29.035  14.491
17092W        W85433   0.459  13.258  11.980
17093W        W85434  18.080  38.013  12.544
17094W        W85435   3.219  37.417   3.370
17095W        W85436  40.453  41.497   0.809
17096W        W85437  10.162  15.326   2.361
17097W        W85438  40.819  12.154   4.826
17098W        W85439   3.752  42.485   4.611
17099W        W85440  13.698   3.405  12.958
17100W        W85441  25.182  17.739  14.967
17101W        W85442  28.446   6.797   4.643
17102W        W85443  32.928  22.138  12.934
17103W        W85444  22.672  31.061  12.939
17104W        W85445  19.595  43.505  11.080
17105W        W85446  17.712   8.352   1.767
17106W        W85447  30.561   1.752   0.738
17107W        W85448  26.606  43.289  12.992
17108W        W85449  11.214   9.817   4.177
17109W        W85450   6.402   0.251  11.525
17110W        W85451   5.407  33.583   4.224
17111W        W85452   7.176  35.030   2.309
17112W        W85453  38.825  30.479  13.503
17113W        W85454   6.759  11.349   2.840
17114W        W85455   6.800  17.089   3.636
17115W        W85456   0.877  17.728   4.228
17116W        W85457  27.628  35.931   2.198
17117W        W85458  42.785  10.816  14.342
17118W        W85459   0.918   4.753   3.277
17119W        W85460  22.581   2.321   1.441
17120W        W85461  32.564  26.097  13.537
17121W        W85462   5.730  11.817  12.047
17122W        W85463   1.452  32.981  14.808
17123W        W85464  37.065   7.323   2.712
17124W        W85465  41.793   2.756   1.780
17125W        W85466  24.982  27.689  12.577
17126W        W85467   6.401   3.859   0.402
17127W        W85468  33.538  23.119  11.938
17128W        W85469   3.309  35.068   0.926
17129W        W85470  40.355  23.519  10.074
17130W        W85471  44.971  36.449   0.777
17131W        W85472  27.140  31.528   4.247
17132W        W85473  29.573  39.969   1.875
17133W        W85474  23.619   3.899  12.454
17134W        W85475  31.037   8.729   3.298
17135W        W85476  35.956  29.530  12.955
17136W        W85477   8.332   7.264   2.216
17137W        W85478  16.771  13.656   1.400
17138W        W85479  11.155   4.307  12.341
17139W        W85480  19.594   1.322  10.420
17140W        W85481  17.627   9.768   3.386
17141W        W85482  43.477  29.159  12.020
17142W        W85483  13.336   2.403  13.828
17143W        W85484  19.177  12.797   4.275
17144W        W85485   4.897   2.897   2.254
17145W        W85486  16.676  22.048  10.892
17146W        W85487  31.051  42.805  11.933
17147W        W85488  42.786  40.340  13.546
17148W        W85489  41.882   6.807   3.675
17149W        W85490   0.876  42.788  10.892
17150W        W85491  23.184   6.731  13.484
17151W        W85492  35.083  38.880  12.824
17152W        W85493  30.650  34.983   4.134
17153W        W85494  42.979   7.261  14.858
17154W        W85495  33.090  26.475   4.825
17155W        W85496  13.341  28.476   1.435
17156W        W85497  16.178  36.927  14.899
17157W        W85498  19.616  23.595  11.912
17158W        W85499  10.730  42.404  14.341
17159W        W85500  16.106  12.768  13.368
17160W        W85501  30.634  12.747  12.893
17161W        W85502   6.762  40.507   4.284
17162W        W85503  14.141  11.730  11.865
17163W        W85504  18.205  23.184   3.857
17164W        W85505  13.333  37.868   3.812
17165W        W85506   7.758  21.113  13.997
17166W        W85507  20.114  34.113   1.707
17167W        W85508   6.732  23.008   3.249
17168W        W85509   6.187   7.835   2.816
17169W        W85510  42.981  17.129  10.605
17170W        W85511  21.695  30.546  10.520
17171W        W85512  34.443  31.011   4.185
17172W        W85513  22.016  43.483   3.730
17173W        W85514   6.847  27.028   2.363
17174W        W85515  31.449   9.361  10.948
17175W        W85516   8.250  43.851   2.852
17176W        W85517   0.317  38.929   0.751
17177W        W85518  27.595   3.908   1.829
17178W        W85519  30.917  23.712  14.432
17179W        W85520  39.921  34.459  10.463
17180W        W85521  13.819  28.006   0.951
17181W        W85522  32.576  15.779  13.822
17182W        W85523  40.938  35.083   1.743
17183W        W85524  39.484   5.692   3.850
17184W        W85525   3.932   6.240  14.492
17185W        W85526  33.064  23.178   4.639
17186W        W85527  21.054  16.246  14.440
17187W        W85528   4.815  42.380   1.323
17188W        W85529  12.132  39.348  10.633
17189W        W85530  39.885  14.133  14.920
17190W        W85531  37.979   4.741   0.318
17191W        W85532   8.164  25.614  14.809
17192W        W85533  11.815   4.890   0.422
17193W        W85534  29.497   3.388  11.973
17194W        W85535  38.330   4.847   0.745
17195W        W85536  28.028  12.763   4.641
17196W        W85537  11.308   0.892  14.430
17197W        W85538   0.289   4.784   2.392
17198W        W85539  26.495   4.448   5.154
17199W        W85540  44.400  19.084   4.799
17200W        W85541  39.048  10.789  13.501
17201W        W85542   6.341  36.067   0.441
17202W        W85543  12.632  14.251  13.866
17203W        W85544  27.980   3.223   4.663
17204W        W85545  24.047  34.510  11.485
17205W        W85546  36.089  12.684   3.725
17206W        W85547   5.359  22.006  13.532
17207W        W85548  30.556  22.096  13.943
17208W        W85549  40.536  32.988   1.270
17209W        W85550   5.373  41.819  10.560
17210W        W85551  34.413   9.776  13.372
17211W        W85552   8.183  35.529  14.018
17212W        W85553   3.846  14.304  12.003
17213W        W85554   7.262  44.908  10.472
17214W        W85555  26.096  11.145   0.339
17215W        W85556  19.042  38.046   4.172
17216W        W85557  43.496  31.639   0.405
17217W        W85558  44.484   6.184  13.910
17218W        W85559  26.679  15.771  14.346
17219W        W85560  44.324  29.645   2.737
17220W        W85561  28.030  27.589   9.996
17221W        W85562  15.817  17.281   2.199
17222W        W85563  40.909  44.306   3.199
17223W        W85564  15.706  32.002  10.006
17224W        W85565  23.223  14.691  14.882
17225W        W85566  40.532   9.257   1.839
17226W        W85567  39.355  22.170   4.761
17227W        W85568  33.572  34.555   3.752
17228W        W85569  14.817  12.299  11.516
17229W        W85570  21.589  23.065  12.455
17230W        W85571   9.325  14.697   3.651
17231W        W85572  27.547   5.901  10.613
17232W        W85573  24.648  42.306   2.830
17233W        W85574  43.848  20.606  12.509
17234W        W85575  43.809  23.730   3.638
17235W        W85576   4.750  37.007  11.109
17236W        W85577   6.711   4.251  11.502
17237W        W85578  43.929  43.473   2.414
17238W        W85579   1.242  18.775  12.975
17239W        W85580   1.415  27.565   3.335
17240W        W85581  24.482  39.815  11.963
17241W        W85582   3.221  36.384  11.980
17242W        W85583  37.577  23.065   4.615
17243W        W85584   4.239  25.111   4.347
17244W        W85585  25.077  25.600  10.590
17245W        W85586  32.038  18.128  10.890
17246W        W85587  22.184  21.075  12.908
17247W        W85588  19.608  42.487  12.572
17248W        W85589  21.054  24.686   3.750
17249W        W85590  22.639  36.083  10.942
17250W        W85591  17.206  16.735   1.258
17251W        W85592   5.794  22.054   2.777
17252W        W85593  18.200  44.847  14.759
17253W        W85594  21.255  44.360   1.428
17254W        W85595  21.079   7.863   1.325
17255W        W85596  30.534  36.851   1.842
17256W        W85597  18.668   5.882   3.808
17257W        W85598  44.481  28.931  14.818
17258W        W85599  19.634  30.561  12.423
17259W        W85600  25.672  21.704  14.497
17260W        W85601  15.647   3.854   3.672
17261W        W85602  14.751   7.359  10.983
17262W        W85603   8.235  10.636  11.907
17263W        W85604  18.779  20.669   1.331
17264W        W85605  35.382  44.884   4.137
17265W        W85606  29.926   2.442  11.963
17266W        W85607  17.087   9.376   4.711
17267W        W85608  30.132  35.583  10.505
17268W        W85609  13.257  32.590  14.300
17269W        W85610  20.125  42.503  12.887
17270W        W85611  32.961  12.359  13.009
17271W        W85612  38.887  44.877   4.825
17272W        W85613  25.162  43.903   0.242
17273W        W85614  16.277  24.536  15.000
17274W        W85615   0.283  42.944   2.322
17275W        W85616  34.403   8.400  10.509
17276W        W85617   5.297   9.342  11.399
17277W        W85618  37.340   2.892  14.414
17278W        W85619  12.146   5.381  11.389
17279W        W85620  41.305  23.215   1.215
17280W        W85621  42.481  14.240  10.619
17281W        W85622  35.863  18.659   5.088
17282W        W85623  43.397  41.524  14.504
17283W        W85624  29.007  28.156  12.094
17284W        W85625   7.175  32.557  14.302
17285W        W85626  27.020   5.767   1.412
17286W        W85627  36.588  17.744   2.304
17287W        W85628  39.924  18.136  13.004
17288W        W85629  44.356  18.181   0.888
17289W        W85630  28.680   5.911  13.881
17290W        W85631  31.939  33.398   0.475
17291W        W85632  24.002  20.054   4.286
17292W        W85633  31.977  14.811   0.827
17293W        W85634  15.100   9.751  12.354
17294W        W85635  33.996  36.882   4.781
17295W        W85636  35.410  23.610  11.587
17296W        W85637  20.528  25.142   2.358
17297W        W85638  26.204  14.823   3.777
17298W        W85639  17.636   7.722   4.244
17299W        W85640  23.685  30.165  12.842
17300W        W85641  19.766   1.972   1.301
17301W        W85642  15.138   8.874  11.374
17302W        W85643  16.314  38.386  11.518
17303W        W85644  29.506  20.263  11.996
17304W        W85645  15.730  13.290  11.476
17305W        W85646  31.090  29.173  12.058
17306W        W85647  22.169  33.878   4.781
17307W        W85648   7.788  15.800   0.296
17308W        W85649   8.874   0.905   0.926
17309W        W85650   2.458  42.809  10.912
17310W        W85651  18.573   8.233  12.561
17311W        W85652  39.476  27.500  14.380
17312W        W85653  13.272   6.378  10.415
17313W        W85654   5.259  44.449   2.809
17314W        W85655  17.708  23.226  14.438
17315W        W85656  43.375  33.588  12.014
17316W        W85657  10.725  12.648   0.267
17317W        W85658  19.257  11.225  12.580
17318W        W85659  42.412  22.238   1.228
17319W        W85660  25.676  34.004   0.381
17320W        W85661  37.946  37.010  13.490
17321W        W85662   6.698  40.504  11.511
17322W        W85663  12.185  39.558  13.951
17323W        W85664  29.474  37.504   2.869
17324W        W85665  35.981   3.911  10.453
17325W        W85666  32.988  34.597  10.641
17326W        W85667  28.126  42.518   2.837
17327W        W85668  16.266  31.986   1.295
17328W        W85669  39.833  29.018   3.759
17329W        W85670  12.750  11.185  11.457
17330W        W85671  32.025   0.280  11.431
17331W        W85672  15.741  36.973   2.785
17332W        W85673   6.839  35.081   2.287
17333W        W85674  30.508  38.827   2.823
17334W        W85675  29.431   1.885   2.781
17335W        W85676   6.876  15.118  14.791
17336W        W85677  31.049  38.482   1.801
17337W        W85678   0.873   7.275  12.869
17338W        W85679  17.180  10.274  11.024
17339W        W85680  44.844  23.134   0.454
17340W        W85681  23.120  14.145   1.270
17341W        W85682  44.497  28.988   2.771
17342W        W85683  33.624   5.371  11.951
17343W        W85684   0.267  16.701  10.027
17344W        W85685   3.745  42.021  13.901
17345W        W85686  26.556  39.357  11.947
17346W        W85687  30.589   5.197  12.517
17347W        W85688  36.564   1.441  11.026
17348W        W85689  36.589  21.630   1.257
17349W        W85690  18.754  16.665  11.562
17350W        W85691  36.514  44.847   4.762
17351W        W85692   1.919   7.227   2.181
17352W        W85693   9.740  11.723   2.359
17353W        W85694   8.213  25.075   0.444
17354W        W85695   0.471  14.286  11.057
17355W        W85696  25.665  42.840   0.288
17356W        W85697  22.561  41.903  14.340
17357W        W85698  43.295  20.712  12.973
17358W        W85699  37.420  13.198  14.304
17359W        W85700  38.044   0.398   0.376
17360W        W85701   5.237  39.407  11.429
17361W        W85702  42.990   4.287   9.945
17362W        W85703  30.975  23.505  11.057
17363W        W85704   8.690  34.401  12.071
17364W        W85705  37.948  31.017   0.463
17365W        W85706  11.825   9.854  14.924
17366W        W85707  26.572   3.869   0.946
17367W        W85708   3.285   1.818   0.284
17368W        W85709   5.301  33.392  11.971
17369W        W85710   0.793  29.641   3.857
17370W        W85711   4.872  32.034  10.011
17371W        W85712  21.112  13.602   4.218
17372W        W85713  13.705  29.019   4.763
17373W        W85714  20.663  30.543   0.828
17374W        W85715  24.486  20.583   3.726
17375W        W85716  34.909  30.624   0.456
17376W        W85717  32.458  38.946   3.152
17377W        W85718  21.738  44.897   2.692
17378W        W85719   9.245  35.863  11.997
17379W        W85720  23.669  12.190  10.422
17380W        W85721  33.111  10.161  10.990
17381W        W85722  24.698  12.135   2.231
17382W        W85723   6.913  39.485  11.442
17383W        W85724  43.888  38.413   0.340
17384W        W85725  37.924   2.780   0.728
17385W        W85726  26.611  31.404  10.458
17386W        W85727  12.798  29.479  10.543
17387W        W85728  25.002   2.314  13.911
17388W        W85729  41.450  16.280  12.072
17389W        W85730  44.361  26.617  14.883
17390W        W85731  35.871  27.656   4.668
17391W        W85732   6.313  36.845   0.955
17392W        W85733   8.697  37.454  10.515
17393W        W85734  12.124  12.157  14.465
17394W        W85735  23.005  12.691  12.052
17395W        W85736  31.611  30.444  14.782
17396W        W85737  37.831  41.897  10.920
17397W        W85738   0.452  17.076   9.656
17398W        W85739   0.396  16.697  10.560
17399W        W85740   1.943  38.886  12.091
17400W        W85741  12.836   7.190   2.806
17401W        W85742  24.041  18.723  14.365
17402W        W85743   9.272  43.782   0.391
17403W        W85744  44.403  23.213   0.826
17404W        W85745  38.558  44.277   2.417
17405W        W85746   4.785  36.375  11.494
17406W        W85747  36.007  20.229   2.235
17407W        W85748  43.835  39.839  13.445
17408W        W85749  13.242  29.008  14.514
17409W        W85750  34.568  27.530  12.026
17410W        W85751  25.083  41.434   4.618
17411W        W85752   3.785  39.463   2.791
17412W        W85753  32.113  10.372  11.915
17413W        W85754  11.849   7.794   2.356
17414W        W85755   7.838  26.191  10.428
17415W        W85756   7.271  40.339   1.353
17416W        W85757   9.695  27.481   1.899
17417W        W85758  15.098  13.818   1.437
17418W        W85759   5.850  42.496   4.758
17419W        W85760  24.141  20.681   0.325
17420W        W85761  22.244  14.795  12.094
17421W        W85762  39.886  42.971  10.030
17422W        W85763  26.548  39.928  14.429
17423W        W85764  21.104  24.042   4.816
17424W        W85765   4.434  22.739  14.934
17425W        W85766  33.024  18.147   3.182
17426W        W85767  22.999  25.031   0.944
17427W        W85768  38.988  42.374  14.914
17428W        W85769  30.059  41.928  14.385
17429W        W85770  17.212  19.537  11.978
17430W        W85771  22.239  35.104   2.379
17431W        W85772   1.765  10.188   4.774
17432W        W85773   6.914  41.454   0.857
17433W        W85774  23.041   4.434  14.398
17434W        W85775  19.227   6.305  10.607
17435W        W85776   3.272  22.705   1.417
17436W        W85777  22.158  36.974  14.989
17437W        W85778  25.627   0.783   4.186
17438W        W85779   4.923   8.290   0.728
17439W        W85780  11.657  15.744  12.930
17440W        W85781  13.315  30.600   1.757
17441W        W85782  24.048  41.342  13.483
17442W        W85783  44.265   1.802   0.933
17443W        W85784  25.185  30.435  12.045
17444W        W85785  14.185  37.085  12.453
17445W        W85786  36.055  27.455  13.839
17446W        W85787  27.970   8.377  12.411
17447W        W85788  27.191   5.700   0.842
17448W        W85789  34.504  43.777  11.523
17449W        W85790  35.485  31.492   0.840
17450W        W85791  26.597   7.285   0.402
17451W        W85792  41.826   0.942  13.440
17452W        W85793  41.441  40.522  12.942
17453W        W85794  31.010  42.299   1.250
17454W        W85795  37.064  25.049  10.569
17455W        W85796  38.880  43.465   5.112
17456W        W85797   9.803   4.228   1.273
17457W        W85798  20.685  38.439  11.448
17458W        W85799  12.838  33.960  10.640
17459W        W85800  32.618  26.106  10.537
17460W        W85801   1.891  38.897   1.769
17461W        W85802  37.055  19.268   0.790
17462W        W85803  18.670  25.014  13.336
17463W        W85804  32.909  36.516   0.782
17464W        W85805  30.995   6.364   4.288
17465W        W85806  34.525  37.919   2.757
17466W        W85807  22.580  26.571   3.763
17467W        W85808  43.977   8.248   1.313
17468W        W85809  30.562   9.263   3.168
17469W        W85810  23.074  29.506  14.000
17470W        W85811  42.911  18.648   5.783
17471W        W85812  20.221  19.669   0.285
17472W        W85813  29.635  17.642   1.725
17473W        W85814  42.332   1.393  14.003
17474W        W85815  33.547  36.567   1.424
17475W        W85816  37.071  13.782   1.292
17476W        W85817  21.174  34.383  14.372
17477W        W85818  36.026  38.819   1.316
17478W        W85819  34.974  19.274   3.779
17479W        W85820  21.068  23.615   0.805
17480W        W85821   6.707  15.602   4.741
17481W        W85822  43.421  12.646   3.707
17482W        W85823  34.020  34.040  10.639
17483W        W85824   7.176  17.710   2.301
17484W        W85825  33.889  25.589  14.966
17485W        W85826  30.052  35.397  11.547
17486W        W85827  31.025  23.662  12.055
17487W        W85828   9.727  38.507  14.390
17488W        W85829   6.804  18.555   3.171
17489W        W85830  13.678  21.753  14.406
17490W        W85831  22.659   6.212   0.729
17491W        W85832  44.287  25.091   4.234
17492W        W85833  39.873  32.114  14.882
17493W        W85834   1.474  37.443  14.796
17494W        W85835   3.410  36.426   3.764
17495W        W85836  16.189  11.776  10.929
17496W        W85837  21.066  21.157   1.227
17497W        W85838  23.013  28.514   3.853
17498W        W85839  30.603  24.165   3.364
17499W        W85840  22.595  31.585   2.351
17500W        W85841   8.176  28.077  13.017
17501W        W85842  26.684   7.291  13.827
17502W        W85843  43.493  19.566  14.910
17503W        W85844  39.862   5.343  13.508
17504W        W85845  28.088   0.952  10.035
17505W        W85846   4.802  30.947  14.029
17506W        W85847  27.649  41.979   2.790
17507W        W85848  38.968  15.578   4.204
17508W        W85849  26.039  41.445  13.837
17509W        W85850  16.268   3.809  12.448
17510W        W85851   5.233  17.650   2.768
17511W        W85852  22.036  17.103  13.886
17512W        W85853  21.032  16.752  11.921
17513W        W85854  14.115  21.020  12.824
17514W        W85855  35.938  40.457  11.999
17515W        W85856  23.103  10.142   0.463
17516W        W85857  21.046  43.478  13.485
17517W        W85858   1.249  17.114  13.385
17518W        W85859   8.218  44.793   4.825
17519W        W85860   0.988  40.906   3.754
17520W        W85861  44.798  21.717  10.491
17521W        W85862   5.698   1.328  12.388
17522W        W85863   1.316  36.044   2.766
17523W        W85864  24.220  32.595   4.778
17524W        W85865  21.137  35.532  12.039
17525W        W85866  40.946   2.399  14.977
17526W        W85867  13.196   0.911   2.884
17527W        W85868  18.142  15.785   3.372
17528W        W85869  24.531   4.897   4.180
17529W        W85870  34.558  32.423  13.400
17530W        W85871  33.514  40.886   4.216
17531W        W85872  13.619  39.866   0.886
17532W        W85873  40.499  19.102  13.884
17533W        W85874   8.834  22.636  11.546
17534W        W85875   4.387  31.151  13.058
17535W        W85876  18.179  16.131  11.068
17536W        W85877  39.009  23.567  11.933
17537W        W85878  26.626  12.613  14.869
17538W        W85879  12.239  38.402  11.443
17539W        W85880  13.727   6.889   2.808
17540W        W85881  40.370   5.340   4.170
17541W        W85882  14.667  15.683   1.414
17542W        W85883  40.514  35.404   3.796
17543W        W85884  41.996  32.020   1.786
17544W        W85885  22.549  12.837  14.806
17545W        W85886  20.721   3.907  12.825
17546W        W85887  43.509  33.931  13.810
17547W        W85888  29.432  40.519  14.416
17548W        W85889  31.064  40.504  10.923
17549W        W85890  17.638  30.133   3.331
17550W        W85891  28.560  22.599   1.407
17551W        W85892  39.966  40.346  11.017
17552W        W85893  42.881   8.658   5.205
17553W        W85894   3.365  16.773   3.182
17554W        W85895  33.486  10.634  12.969
17555W        W85896   3.222  20.081   1.862
17556W        W85897  37.385  43.857  11.109
17557W        W85898  24.547  23.723  10.559
17558W        W85899   9.722   3.862   1.727
17559W        W85900  31.143  25.509  13.380
17560W        W85901  24.682  39.498   0.299
17561W        W85902  37.980   5.344  11.424
17562W        W85903  10.215  16.712  10.594
17563W        W85904   9.302  44.943   1.389
17564W        W85905  40.015   5.865  10.478
17565W        W85906   4.773  24.192   4.819
17566W        W85907  25.487   1.854  14.760
17567W        W85908  23.682   7.775   0.788
17568W        W85909  37.895  23.143   2.376
17569W        W85910  40.963   3.339  14.893
17570W        W85911  42.354  30.954  14.010
17571W        W85912  44.480   9.171   3.362
17572W        W85913  39.814  10.828  11.885
17573W        W85914  18.259   5.371  11.027
17574W        W85915  41.991  35.420   3.703
17575W        W85916  42.978   1.262  14.478
17576W        W85917   9.668   4.853  10.611
17577W        W85918  19.075  39.343   0.420
17578W        W85919   3.380  28.147   1.772
17579W        W85920   7.875  22.661   3.175
17580W        W85921  32.552  23.500  14.817
17581W        W85922  39.544  28.651  10.602
17582W        W85923  34.973  20.767  12.074
17583W        W85924  10.825   4.291  12.903
17584W        W85925   7.287   0.761  10.933
17585W        W85926  16.127  42.310   0.421
17586W        W85927   0.807  27.197  11.874
17587W        W85928  37.484  41.347  12.046
17588W        W85929   2.229  22.167  10.045
17589W        W85930  21.157   9.875  14.768
17590W        W85931  23.683  25.217   2.389
17591W        W85932  44.427  18.698   1.402
17592W        W85933   9.249  21.239   3.215
17593W        W85934  13.197   6.865   0.824
17594W        W85935   5.719  22.690  14.514
17595W        W85936  37.473  34.041   4.627
17596W        W85937  34.424  23.089  10.917
17597W        W85938  16.738  16.182  10.970
17598W        W85939  39.885  21.645   2.709
17599W        W85940  32.478  26.077   3.206
17600W        W85941  25.043   0.303   4.207
17601W        W85942  40.813  35.555   2.191
17602W        W85943   9.243  18.580   3.322
17603W        W85944  35.097   9.691  10.438
17604W        W85945  15.264  33.997   3.734
17605W        W85946  26.049  21.230   0.932
17606W        W85947  38.528  18.196  14.839
17607W        W85948  44.284   3.744  11.522
17608W        W85949  19.170   3.236   1.861
17609W        W85950  22.679  24.611  11.009
17610W        W85951  15.624  26.692   1.337
17611W        W85952  35.053  35.053  11.895
17612W        W85953  27.131  37.382  13.059
17613W        W85954  13.633  35.983   1.412
17614W        W85955  30.058   7.901   2.825
17615W        W85956  24.608  29.918  11.998
17616W        W85957  44.370  27.039  10.538
17617W        W85958   3.812  16.734  10.529
17618W        W85959   0.404  30.950  13.486
17619W        W85960  39.977  22.558   3.836
17620W        W85961  42.298  37.471  14.311
17621W        W85962  18.762  16.110   3.740
17622W        W85963  13.601  29.941  11.384
17623W        W85964  33.027   4.881   4.788
17624W        W85965   0.351  12.742  11.012
17625W        W85966   9.722   0.449  13.970
17626W        W85967  11.763  37.373  14.934
17627W        W85968  12.168  44.324   3.680
17628W        W85969  14.171  23.133  11.494
17629W        W85970  35.587   3.712   3.725
17630W        W85971  39.895  21.222   2.897
17631W        W85972  29.016  14.631   0.366
17632W        W85973  19.654   9.679  11.555
17633W        W85974  40.334  31.059  14.385
17634W        W85975  37.026  10.728   4.213
17635W        W85976  20.144  41.333   2.283
17636W        W85977  42.854  30.145  10.922
17637W        W85978  38.936  41.901   4.599
17638W        W85979  14.652  37.537   0.329
17639W        W85980  44.464   6.408  12.340
17640W        W85981  36.455  26.177  13.405
17641W        W85982  26.468  23.152  13.817
17642W        W85983  16.314  13.328  14.918
17643W        W85984  43.849   8.759   0.433
17644W        W85985  11.196  31.624   2.205
17645W        W85986  13.120  11.327  14.315
17646W        W85987  40.499  25.197  13.061
17647W        W85988  42.499   4.855  14.276
17648W        W85989   5.258  14.763   0.305
17649W        W85990  23.065  43.274  10.473
17650W        W85991  24.153  25.469  11.893
17651W        W85992   6.193  41.894   0.383
17652W        W85993  36.455  22.507  11.942
17653W        W85994   3.790  42.999  14.325
17654W        W85995   0.862  10.848   1.772
17655W        W85996  42.989  35.491  12.545
17656W        W85997  32.455   8.370  12.493
17657W        W85998  11.840  42.955  11.001
17658W        W85999  25.674   6.216   5.243
17659W        W86000  31.096  40.043  10.956
17660W        W86001  23.134  38.072  12.498
17661W        W86002  38.027  25.002   3.800
17662W        W86003   9.754   2.724  11.401
17663W        W86004  14.145  21.045   3.700
17664W        W86005   4.316   6.835  11.921
17665W        W86006  21.583  34.475   2.224
17666W        W86007  24.010  30.430  10.421
17667W        W86008  32.944  40.969  10.978
17668W        W86009  42.322  42.979   4.250
17669W        W86010  38.010  29.445   4.664
17670W        W86011  36.425  38.890   1.376
17671W        W86012  12.214   6.355  14.300
17672W        W86013  20.708  13.113   2.699
17673W        W86014  31.424  18.052   0.784
17674W        W86015  43.370  23.719   3.246
17675W        W86016  15.614  35.958   2.884
17676W        W86017  12.269  16.122   0.388
17677W        W86018   8.774   3.939   5.146
17678W        W86019  44.953  17.599   2.246
17679W        W86020  34.590   6.890   2.391
17680W        W86021  21.188  27.958   3.857
17681W        W86022  27.672   2.793  11.951
17682W        W86023   2.789  32.443   2.697
17683W        W86024  24.115  44.300   1.245
17684W        W86025  10.174  15.645   1.837
17685W        W86026  24.061  23.062   1.279
17686W        W86027  36.455  25.663  13.418
17687W        W86028   4.874  33.035   4.288
17688W        W86029   4.834  44.949   0.476
17689W        W86030  11.265  36.946   1.342
17690W        W86031  21.098   8.208  11.464
17691W        W86032   9.387  27.564   3.636
17692W        W86033   7.860  13.728   1.215
17693W        W86034   5.771   2.910   3.368
17694W        W86035   4.748  36.363   0.849
17695W        W86036  19.727  28.600  14.776
17696W        W86037  44.365  22.063  14.364
17697W        W86038  27.966  21.157   1.219
17698W        W86039   0.353  20.576   9.460
17699W        W86040  27.079  20.130   3.268
17700W        W86041  39.871  31.464  11.924
17701W        W86042  15.620  18.710   0.299
17702W        W86043  27.573  40.546   0.933
17703W        W86044  43.782  22.553  12.964
17704W        W86045  15.158  32.489   4.630
17705W        W86046  41.381   1.827   3.819
17706W        W86047  33.599  36.871  12.416
17707W        W86048   7.704  13.606   4.793
17708W        W86049  13.178  10.860  11.033
17709W        W86050   9.372  15.093   1.284
17710W        W86051  39.020  18.071   2.256
17711W        W86052   9.312  29.167   2.838
17712W        W86053  13.251   4.358  13.961
17713W        W86054  39.494  18.226   5.219
17714W        W86055  44.942   8.720  11.989
17715W        W86056  25.137  34.480  11.981
17716W        W86057  44.977  39.497  14.762
17717W        W86058  39.367   8.863  12.534
17718W        W86059  26.519  42.397   0.820
17719W        W86060  33.083  31.010   2.801
17720W        W86061   0.438   2.345   4.730
17721W        W86062  18.229  10.679   1.758
17722W        W86063  27.193  22.070  11.566
17723W        W86064  11.739   5.866  11.936
17724W        W86065  43.922  25.636   3.386
17725W        W86066  43.803   4.746  12.021
17726W        W86067  29.430  34.923   3.696
17727W        W86068  34.896   9.158   2.666
17728W        W86069   2.228  14.267   5.139
17729W        W86070  16.085  21.648   5.101
17730W        W86071   3.377  41.926   1.821
17731W        W86072  31.977   4.449  14.498
17732W        W86073  30.658  26.205  14.441
17733W        W86074  10.652  35.556  14.347
17734W        W86075  16.797  35.013  12.541
17735W        W86076   6.856  42.817   1.341
17736W        W86077  26.689  36.573   2.839
17737W        W86078   0.357  18.080   3.754
17738W        W86079  12.208  28.158  11.510
17739W        W86080  14.169  37.039  14.787
17740W        W86081  41.353  17.695  11.470
17741W        W86082  23.051  26.506  14.317
17742W        W86083  38.398  27.949  12.523
17743W        W86084  44.755  26.620  12.992
17744W        W86085  22.607  22.037  12.067
17745W        W86086   2.792  40.547  11.024
17746W        W86087  18.641  23.171   4.774
17747W        W86088   6.701  25.530  11.047
17748W        W86089  23.668  20.585   2.250
17749W        W86090   1.821  40.003   3.387
17750W        W86091  41.894   5.392   4.284
17751W        W86092  22.129  18.695  10.965
17752W        W86093  38.566  22.053  11.060
17753W        W86094  27.638  36.904  13.319
17754W        W86095  36.014  38.954   5.246
17755W        W86096   8.225   0.946   4.204
17756W        W86097  35.920  44.291   2.782
17757W        W86098  25.148  31.557   4.166
17758W        W86099   0.954   6.271  10.559
17759W        W86100   6.707  36.424  12.050
17760W        W86101   7.279  34.443  11.948
17761W        W86102  19.643  13.181  10.604
17762W        W86103  28.034  15.577   0.463
17763W        W86104   0.257   8.705  14.995
17764W        W86105  11.738   8.385  10.622
17765W        W86106  34.416  29.937  11.997
17766W        W86107  14.750   2.837   1.255
17767W        W86108  10.140  13.616   3.284
17768W        W86109   2.415  42.438  14.893
17769W        W86110  38.383  38.073   2.692
17770W        W86111  31.042   0.889   1.748
17771W        W86112   8.873   9.738  10.463
17772W        W86113  27.450   2.418   3.864
17773W        W86114  21.020  35.901   3.709
17774W        W86115  34.044   1.399   1.705
17775W        W86116  40.839  30.021   2.370
17776W        W86117  21.113  31.425   1.739
17777W        W86118   3.376  12.743   2.195
17778W        W86119  36.389  17.630  10.496
17779W        W86120  17.755  13.795  11.537
17780W        W86121   7.728  28.586   4.338
17781W        W86122  30.493  24.004  12.472
17782W        W86123  19.212  18.725   2.276
17783W        W86124  34.439  41.504  11.104
17784W        W86125  41.857  13.119   3.384
17785W        W86126  17.707  31.620  13.819
17786W        W86127  23.005   1.291  14.835
17787W        W86128  28.035  40.531   4.745
17788W        W86129  38.013  40.467   3.377
17789W        W86130  11.649  27.966   0.951
17790W        W86131   1.381   8.738  13.469
17791W        W86132  19.721   7.416   1.391
17792W        W86133  32.555  44.316  10.455
17793W        W86134  10.676  15.708  11.478
17794W        W86135  40.968  34.883   0.266
17795W        W86136   6.796  38.935   0.303
17796W        W86137   5.702  41.029   2.262
17797W        W86138  27.981  16.165   2.346
17798W        W86139  40.963   1.301  12.397
17799W        W86140   4.268  19.076   2.725
17800W        W86141  28.983  43.017  14.396
17801W        W86142  34.942  30.000   2.836
17802W        W86143  27.468  18.775   0.408
17803W        W86144  14.316   0.784  13.046
17804W        W86145  43.924   0.390   3.209
17805W        W86146   3.834  17.160   9.947
17806W        W86147  14.669   7.895   4.616
17807W        W86148  37.407   4.720   0.870
17808W        W86149  16.138  30.034  10.414
17809W        W86150   0.349  35.372   1.705
17810W        W86151  34.511  14.223   0.367
17811W        W86152  37.861  34.421  12.561
17812W        W86153  25.048  41.457   2.334
17813W        W86154  42.492   7.223   0.413
17814W        W86155  32.059   0.784   2.229
17815W        W86156  23.702  20.267   5.093
17816W        W86157  31.962  14.611  13.372
17817W        W86158  43.802  14.272   2.727
17818W        W86159  42.997  42.465  14.967
17819W        W86160   3.719  15.167   3.803
17820W        W86161  40.423  27.465   0.839
17821W        W86162  24.019  32.552  12.088
17822W        W86163   2.751  20.268  10.119
17823W        W86164  21.540  38.371  14.978
17824W        W86165  38.491  43.769   3.785
17825W        W86166  10.809  40.387   2.773
17826W        W86167  16.296   0.759  12.849
17827W        W86168  29.547  37.051   3.648
17828W        W86169   6.211   3.915   0.887
17829W        W86170  28.473   8.767  13.479
17830W        W86171  21.666   2.723  11.431
17831W        W86172  30.483  38.007  13.903
17832W        W86173  18.624  35.928  11.020
17833W        W86174  30.139  41.367   0.301
17834W        W86175  28.165  16.090  14.938
17835W        W86176  31.645  12.327  10.468
17836W        W86177  20.141  13.784   2.335
17837W        W86178   9.372  15.168   1.838
17838W        W86179  39.526  36.911  12.505
17839W        W86180  42.828  41.297   3.265
17840W        W86181   1.805  31.098  10.429
17841W        W86182  38.375  42.025  14.763
17842W        W86183  29.501  31.508   1.855
17843W        W86184   9.207  30.471  14.295
17844W        W86185  30.596   4.809   0.950
17845W        W86186  22.660  27.585   2.310
17846W        W86187  22.124  20.662   0.292
17847W        W86188  39.336  43.504  10.628
17848W        W86189  22.016  19.220  10.611
17849W        W86190   2.353   6.349  13.869
17850W        W86191  35.012  29.145  14.785
17851W        W86192   9.373  43.474   3.640
17852W        W86193  31.120   2.771  12.419
17853W        W86194  31.455  23.044  13.894
17854W        W86195  17.108  12.158  12.919
17855W        W86196  44.300   8.847   5.131
17856W        W86197  34.019  38.470  13.329
17857W        W86198  28.656  25.142  13.952
17858W        W86199   7.327   2.395  14.833
17859W        W86200  21.657  12.289  11.535
17860W        W86201  44.322  31.628   0.480
17861W        W86202  20.258   3.389  10.465
17862W        W86203  12.836  27.475  12.009
17863W        W86204  31.133   6.891  12.093
17864W        W86205  22.083   7.767   1.801
17865W        W86206  27.486  31.448  11.509
17866W        W86207  14.133  18.136   0.853
17867W        W86208  33.050  18.671   2.823
17868W        W86209  13.137  30.423  11.081
17869W        W86210   7.271  35.411  11.439
17870W        W86211  17.085  39.849  14.301
17871W        W86212  39.483  21.257  13.950
17872W        W86213   7.887  34.544   9.989
17873W        W86214  18.746  12.628   9.987
17874W        W86215  26.630  29.943  13.378
17875W        W86216   9.751   4.393  11.520
17876W        W86217  28.453  19.606   1.352
17877W        W86218  32.141   1.810   0.313
17878W        W86219  29.969   3.863  14.320
17879W        W86220  15.685   0.449   5.305
17880W        W86221  30.504   2.918  12.509
17881W        W86222  38.570   7.279   0.728
17882W        W86223  39.877  43.775   0.316
17883W        W86224  10.157  26.098  12.373
17884W        W86225  24.531  12.622  11.422
17885W        W86226  16.695  15.226   3.367
17886W        W86227   9.885  22.586  12.461
17887W        W86228   4.764  24.703   2.273
17888W        W86229   0.882  35.507   0.351
17889W        W86230  21.527   9.255   2.833
17890W        W86231  26.480  21.650   3.733
17891W        W86232  44.869  25.468   0.839
17892W        W86233  27.677  32.027  14.405
17893W        W86234   0.466  43.502  10.974
17894W        W86235  25.102   2.449  11.439
17895W        W86236  31.565   2.905  12.968
17896W        W86237  23.499  33.478  10.908
17897W        W86238   2.800   4.902  14.353
17898W        W86239  31.514   4.418   1.900
17899W        W86240  27.681  38.070  10.912
17900W        W86241  11.225  33.478   2.752
17901W        W86242  36.041   1.945   1.868
17902W        W86243   6.254  19.677   4.617
17903W        W86244  20.576  44.794  14.277
17904W        W86245  21.672  40.313   4.346
17905W        W86246  14.624  27.145   4.805
17906W        W86247  20.052   5.216  12.052
17907W        W86248  32.914  32.627  14.410
17908W        W86249  21.239  15.717   1.844
17909W        W86250  40.319   5.258  14.854
17910W        W86251  27.145   3.217   1.305
17911W        W86252  12.751  19.668  14.827
17912W        W86253  44.435   3.894  14.463
17913W        W86254  32.629  34.101  12.939
17914W        W86255  12.143  26.581   1.725
17915W        W86256  44.395  25.125   0.445
17916W        W86257  24.715  20.151  12.533
17917W        W86258  28.550  39.877   4.119
17918W        W86259  32.537  29.965   1.332
17919W        W86260  22.690  40.911  12.426
17920W        W86261  30.001  40.894   2.755
17921W        W86262  18.716   7.272   4.756
17922W        W86263  41.858  10.671   0.745
17923W        W86264  35.479  19.724  11.986
17924W        W86265  30.418  19.127   4.116
17925W        W86266   4.900  12.358  14.958
17926W        W86267  11.672  35.561   3.719
17927W        W86268   2.441  23.089   2.896
17928W        W86269   8.402  44.849  10.425
17929W        W86270  40.407   1.303  11.019
17930W        W86271   7.258  15.816   1.270
17931W        W86272  37.997  28.002   0.311
17932W        W86273  14.794  30.416  10.439
17933W        W86274  29.966   3.915   4.291
17934W        W86275  15.744  34.376   5.290
17935W        W86276  41.871  28.101  10.497
17936W        W86277  22.101   5.756  13.996
17937W        W86278  23.204  16.763   0.794
17938W        W86279  26.977  33.453  13.335
17939W        W86280   1.839  40.899  13.921
17940W        W86281  22.996  35.975  13.941
17941W        W86282  44.880  21.100   0.741
17942W        W86283   4.211  44.382  11.467
17943W        W86284  10.243  27.613   3.170
17944W        W86285  19.257   2.362  14.970
17945W        W86286  42.791  40.485  13.939
17946W        W86287  33.904  24.197   1.700
17947W        W86288  38.481   4.823   3.672
17948W        W86289  15.715  10.832   2.330
17949W        W86290  14.206  18.655  14.350
17950W        W86291   9.852  28.128  11.973
17951W        W86292  28.126  36.085  14.416
17952W        W86293   8.399  44.767   4.276
17953W        W86294  30.025  37.580  11.574
17954W        W86295  13.329  33.567   4.308
17955W        W86296  32.472  14.287   0.304
17956W        W86297  40.343  22.577   2.258
17957W        W86298  15.329  26.058   0.802
17958W        W86299  11.856  18.651  12.350
17959W        W86300  21.089  39.319  10.960
17960W        W86301   6.239  23.032  11.116
17961W        W86302  15.737  43.981  13.054
17962W        W86303  22.552   3.277   1.225
17963W        W86304  11.705  36.844  11.450
17964W        W86305  42.385  38.990  12.519
17965W        W86306  10.214  34.999   5.116
17966W        W86307  35.553  34.058  11.046
17967W        W86308  36.346   7.339  12.450
17968W        W86309  42.031  33.006   2.235
17969W        W86310  34.905  35.579   4.792
17970W        W86311  28.085  38.565   1.781
17971W        W86312  21.161  13.238  11.978
17972W        W86313  30.100  20.753   3.359
17973W        W86314  32.891  33.456   0.426
17974W        W86315  38.030   6.236   2.797
17975W        W86316   2.777   8.275  14.020
17976W        W86317  18.053  21.668  13.502
17977W        W86318  22.677  24.614   4.792
17978W        W86319  24.042  22.510   4.314
17979W        W86320  28.119   2.875  12.397
17980W        W86321  12.336  36.410   4.316
17981W        W86322   7.668  29.498  10.067
17982W        W86323  17.781  33.502  14.315
17983W        W86324  16.581  31.135   2.721
17984W        W86325  15.135  43.460   0.871
17985W        W86326  12.187  29.560  11.483
17986W        W86327  32.908  18.202   0.730
17987W        W86328  42.488  44.882  13.346
17988W        W86329   9.851  35.478   1.320
17989W        W86330   7.801  34.057   4.332
17990W        W86331  26.537   1.964   1.449
17991W        W86332   7.321   8.696   2.880
17992W        W86333  40.854  29.105   0.411
17993W        W86334  33.557  18.250  11.887
17994W        W86335  42.987   0.446  13.501
17995W        W86336  21.632  43.927  14.942
17996W        W86337  10.236  29.551   3.213
17997W        W86338  16.150   3.414  12.425
17998W        W86339   2.386  22.741  11.432
17999W        W86340   2.744  36.034  12.967
18000W        W86341   3.445   0.808   0.276
18001W        W86342   2.298  34.042  12.506
18002W        W86343  26.640  13.251  11.967
18003W        W86344  38.333  22.176  14.967
18004W        W86345  12.142  11.624   2.840
18005W        W86346  10.809  17.061   1.731
18006W        W86347   2.404  23.108  14.411
18007W        W86348  13.822  32.473  10.985
18008W        W86349  22.228  33.588  14.325
18009W        W86350  36.940  15.728  12.404
18010W        W86351  23.607   1.335  13.489
18011W        W86352  35.571  38.374   1.787
18012W        W86353   7.743  10.745  13.544
18013W        W86354  42.813  39.996   4.250
18014W        W86355  16.633  29.102  12.350
18015W        W86356  42.781  16.248  14.841
18016W        W86357  35.022  16.108  10.909
18017W        W86358  25.612  19.563  12.989
18018W        W86359  14.243  17.559   3.295
18019W        W86360  20.045  26.482  10.549
18020W        W86361  19.772   6.384   4.338
18021W        W86362   2.874   8.179   0.483
18022W        W86363  18.276  42.326   0.928
18023W        W86364  34.392  29.563  10.466
18024W        W86365  28.654   9.690  12.500
18025W        W86366  41.903  42.341  11.455
18026W        W86367   9.763   9.185  11.061
18027W        W86368  31.403  36.420  10.958
18028W        W86369  22.516   0.886   3.744
18029W        W86370  25.667  42.494   1.219
18030W        W86371  23.657   1.882   3.365
18031W        W86372  31.614   0.472  10.953
18032W        W86373  43.835  36.452  13.832
18033W        W86374  14.231  41.430  13.398
18034W        W86375  42.355  10.784   3.235
18035W        W86376  33.414  40.432  10.633
18036W        W86377  23.000  44.774  14.386
18037W        W86378  38.980  35.011   3.684
18038W        W86379  39.031  39.335  12.905
18039W        W86380  30.524   0.263  10.403
18040W        W86381   1.948  19.116   9.531
18041W        W86382   0.253  17.697  14.779
18042W        W86383  38.366  25.152  13.358
18043W        W86384   9.827  19.084  11.892
18044W        W86385   3.952  28.455  12.885
18045W        W86386  30.626  32.496  12.834
18046W        W86387   3.932  30.559  10.519
18047W        W86388  16.626  23.505   0.453
18048W        W86389  26.495  12.137   3.851
18049W        W86390  44.941   0.494  12.455
18050W        W86391  41.955   9.268  14.322
18051W        W86392   3.814  22.247  13.327
18052W        W86393   6.218   9.349  12.549
18053W        W86394  31.419  28.021  10.629
18054W        W86395  36.493  29.440  14.310
18055W        W86396  23.625  12.614  14.927
18056W        W86397  16.625  35.865   0.385
18057W        W86398  34.873  33.610   0.389
18058W        W86399  14.598  44.418   4.697
18059W        W86400   6.771  17.256   0.759
18060W        W86401  20.562   5.825   0.824
18061W        W86402  37.421  40.925  12.911
18062W        W86403  28.009  17.273  11.474
18063W        W86404  34.529  31.115   1.285
18064W        W86405  36.453  31.508  13.339
18065W        W86406  37.523  36.079   4.192
18066W        W86407   4.889  21.104   2.228
18067W        W86408  29.662   4.933   3.265
18068W        W86409  16.621  15.760  10.931
18069W        W86410   8.809  14.263  11.610
18070W        W86411  19.677  26.638  14.955
18071W        W86412  39.915  38.068   4.626
18072W        W86413   5.230  26.101   0.422
18073W        W86414   0.471  24.622  10.475
18074W        W86415  33.893  15.094  14.806
18075W        W86416  37.382  32.126  14.463
18076W        W86417   5.748  30.053  13.373
18077W        W86418  22.013  29.104   3.760
18078W        W86419  43.992  13.135  12.972
18079W        W86420  36.982  14.198   2.872
18080W        W86421  16.748  14.635   4.684
18081W        W86422  23.042  36.908  13.411
18082W        W86423  14.177  29.117   4.324
18083W        W86424  24.681  30.015  14.022
18084W        W86425  10.706  14.788  11.091
18085W        W86426  41.373   8.866   2.676
18086W        W86427  20.264  38.386  10.452
18087W        W86428  38.845  34.614   4.207
18088W        W86429   0.923  29.648  14.777
18089W        W86430  25.680  18.216   3.240
18090W        W86431   0.977  37.519   1.726
18091W        W86432  36.948  17.147  10.568
18092W        W86433  17.712  33.942  13.470
18093W        W86434  44.439  30.498   3.262
18094W        W86435  19.238   6.219  14.775
18095W        W86436  40.511  29.642   2.898
18096W        W86437  33.602  34.982  13.854
18097W        W86438  15.199  14.180  14.817
18098W        W86439  18.735   4.843  11.887
18099W        W86440   8.294  44.797  13.425
18100W        W86441  21.605  21.189   2.665
18101W        W86442  38.327  18.204   1.342
18102W        W86443   2.821  27.494  13.452
18103W        W86444  35.949  22.194  13.486
18104W        W86445   1.749  16.582  14.382
18105W        W86446  32.109  35.925   2.403
18106W        W86447   8.725  25.052  13.458
18107W        W86448  12.145  43.889   2.268
18108W        W86449  38.556  36.374  14.961
18109W        W86450  37.976  20.713   2.233
18110W        W86451  23.050  38.019   4.204
18111W        W86452  40.539  27.579   4.780
18112W        W86453  42.352  42.845   3.320
18113W        W86454  39.555  12.292  13.839
18114W        W86455  14.751  27.187   2.257
18115W        W86456  21.162  19.682   1.227
18116W        W86457  30.057   2.916   4.185
18117W        W86458   1.789   7.884  10.578
18118W        W86459   1.877  32.508   4.325
18119W        W86460  31.578  11.309  12.997
18120W        W86461  16.781  37.573   3.226
18121W        W86462  42.434   0.427   4.663
18122W        W86463  42.382  16.227   3.229
18123W        W86464   3.952  28.538  10.594
18124W        W86465  16.699   5.312   4.609
18125W        W86466  26.040  22.745  13.942
18126W        W86467  31.462  31.473   3.848
18127W        W86468  30.531  40.854   3.697
18128W        W86469  39.843  28.551  14.025
18129W        W86470  17.075   6.358  10.535
18130W        W86471   1.374  40.905   0.262
18131W        W86472  23.055  16.767  13.854
18132W        W86473   0.767  23.015  14.850
18133W        W86474   3.735   8.682  13.060
18134W        W86475  10.810  19.779  11.128
18135W        W86476  37.010   5.361  13.932
18136W        W86477  35.927   5.416  12.996
18137W        W86478  25.654   3.891  14.349
18138W        W86479  30.515  14.243   3.249
18139W        W86480  34.994  29.094   3.767
18140W        W86481   4.342   8.700  13.045
18141W        W86482  41.507  10.359   2.358
18142W        W86483  27.002  35.390  11.012
18143W        W86484  29.935  35.428  14.932
18144W        W86485  42.289   9.209   1.888
18145W        W86486  42.461  18.169   1.373
18146W        W86487  11.814  11.653  13.450
18147W        W86488  23.543  41.348  14.937
18148W        W86489  11.328  16.807   1.788
18149W        W86490  25.532   3.431  11.018
18150W        W86491   9.349  15.250  12.046
18151W        W86492  12.357   1.291   2.304
18152W        W86493  31.469  19.257   1.306
18153W        W86494  19.635   5.910  11.084
18154W        W86495  30.651   8.175   4.259
18155W        W86496  17.574  20.248  10.583
18156W        W86497  37.838  21.666   3.172
18157W        W86498   3.850  36.022  14.401
18158W        W86499   5.279   4.323   3.190
18159W        W86500  23.705   8.224  12.580
18160W        W86501   8.787  38.526   0.431
18161W        W86502   5.857  43.819   0.417
18162W        W86503   0.905  32.616  10.582
18163W        W86504   2.342  41.362  13.475
18164W        W86505   8.673  22.022  11.108
18165W        W86506  38.483  22.590  13.965
18166W        W86507  30.435  43.892  11.471
18167W        W86508  10.850  19.170  13.420
18168W        W86509  12.769   9.659   2.811
18169W        W86510  43.931  43.985  14.999
18170W        W86511   6.394  23.564  12.993
18171W        W86512  12.152  42.860   0.878
18172W        W86513  29.010   2.833   4.189
18173W        W86514   5.911  36.914  10.889
18174W        W86515  27.447  31.936   4.713
18175W        W86516   3.804  24.484   4.715
18176W        W86517   9.149  18.750   0.774
18177W        W86518  11.160  36.016  12.948
18178W        W86519  34.605   9.694   0.881
18179W        W86520  35.419  19.603   3.839
18180W        W86521  34.968   4.212   2.250
18181W        W86522   8.826  40.445  12.037
18182W        W86523  34.893  21.127   5.218
18183W        W86524  13.742   8.829   0.461
18184W        W86525  11.751  21.216   0.339
18185W        W86526   8.187   9.311   2.340
18186W        W86527   1.352   0.349  14.832
18187W        W86528   3.442  11.788   1.263
18188W        W86529  10.671  14.264   1.886
18189W        W86530  23.002  25.629   0.838
18190W        W86531  37.987  12.662   3.851
18191W        W86532  24.077  37.539   0.335
18192W        W86533   0.297  24.113  13.919
18193W        W86534  23.551   1.365   1.874
18194W        W86535  18.717  12.661   4.642
18195W        W86536  22.167  43.903   0.961
18196W        W86537  31.539  28.654  11.499
18197W        W86538  20.537  21.631  11.438
18198W        W86539  28.108   4.747  10.569
18199W        W86540  40.913  43.434   9.566
18200W        W86541  20.187  19.631  13.496
18201W        W86542   9.806  20.178   0.315
18202W        W86543  38.000  28.117   2.892
18203W        W86544   1.418  26.992  10.554
18204W        W86545  33.918  17.145  12.066
18205W        W86546  37.005  12.302   3.346
18206W        W86547  25.513   9.162  11.899
18207W        W86548  43.865  11.706  12.975
18208W        W86549  39.411  41.433   3.822
18209W        W86550  32.472   9.240   3.289
18210W        W86551   9.225   0.756   4.717
18211W        W86552  14.636  17.691  14.992
18212W        W86553  17.246  29.100   2.388
18213W        W86554  12.681  34.460  11.916
18214W        W86555  11.863  22.179   1.288
18215W        W86556   9.673   5.270   4.663
18216W        W86557  30.152  36.581   1.234
18217W        W86558  39.356  12.329   2.675
18218W        W86559   2.871   7.762   0.311
18219W        W86560  28.996  35.903   4.330
18220W        W86561  10.681  21.646   4.314
18221W        W86562  36.398  37.345  14.892
18222W        W86563  23.188   7.853  11.862
18223W        W86564  25.195  26.514   2.247
18224W        W86565  43.882   2.842  10.495
18225W        W86566  26.594  26.558  10.572
18226W        W86567  27.953  32.966  10.415
18227W        W86568   3.835  11.136   4.634
18228W        W86569  25.473  29.048   5.773
18229W        W86570  41.331  14.804  13.529
18230W        W86571  40.038  32.999  12.925
18231W        W86572  12.356   2.394  10.520
18232W        W86573  19.112  10.236   1.235
18233W        W86574  27.598   9.876  12.058
18234W        W86575  21.104  42.881   2.777
18235W        W86576  28.494   3.398  14.823
18236W        W86577  32.084  30.946  13.975
18237W        W86578  38.938  28.010   5.309
18238W        W86579   0.861  30.060   0.884
18239W        W86580  26.180   4.414  12.419
18240W        W86581  19.281  12.613  12.947
18241W        W86582  30.506  22.587   0.880
18242W        W86583  25.999  16.203  12.366
18243W        W86584  20.722  35.565   3.239
18244W        W86585  34.443  15.607  14.932
18245W        W86586  29.480  19.594  13.040
18246W        W86587  12.164  30.074   0.358
18247W        W86588  17.641  43.299  11.425
18248W        W86589  28.637  15.222  14.951
18249W        W86590  26.494  29.963  14.375
18250W        W86591   1.295   3.433  11.546
18251W        W86592  13.761  44.263  13.349
18252W        W86593  32.097  10.227  13.398
18253W        W86594   6.884   8.717  12.522
18254W        W86595  16.086   4.805   2.231
18255W        W86596  24.496  20.253  14.880
18256W        W86597   3.357   0.351  13.532
18257W        W86598   4.287  33.070  11.420
18258W        W86599  14.767  32.396  14.311
18259W        W86600  28.497  34.938   2.895
18260W        W86601   0.988  28.165  14.381
18261W        W86602  30.623  26.206   2.663
18262W        W86603  20.207  12.748  12.994
18263W        W86604  24.596  43.303   3.657
18264W        W86605  15.596  44.352   1.855
18265W        W86606  29.137  32.620  11.537
18266W        W86607   7.669   8.238  11.602
18267W        W86608  25.561   3.711   0.838
18268W        W86609   4.258  12.205   2.213
18269W        W86610  34.595  19.735  13.401
18270W        W86611  20.173   9.149  10.925
18271W        W86612  43.300  43.967  12.849
18272W        W86613  11.138  42.951   1.736
18273W        W86614   4.256  17.129   0.907
18274W        W86615  26.990  35.866   1.826
18275W        W86616  17.109  22.016  11.046
18276W        W86617   0.383  18.102   3.230
18277W        W86618  44.339  13.711  11.909
18278W        W86619  37.437  36.438   2.753
18279W        W86620  44.366  44.272   4.711
18280W        W86621  26.985  40.372   2.730
18281W        W86622  23.672  11.780   2.209
18282W        W86623  42.880  23.126  12.855
18283W        W86624   6.914  16.711   4.680
18284W        W86625  18.734  11.222   3.337
18285W        W86626  28.576  15.803   3.318
18286W        W86627  33.118  28.491   3.237
18287W        W86628  27.580  30.120  13.933
18288W        W86629  23.996  40.948   2.185
18289W        W86630  27.141  37.002  12.056
18290W        W86631   5.767  22.087   0.265
18291W        W86632  41.466  23.565   2.291
18292W        W86633  31.113  35.025   2.205
18293W        W86634  22.617   6.397  12.009
18294W        W86635  29.604  18.714   1.379
18295W        W86636  20.685  13.650   4.660
18296W        W86637   7.377  42.468   2.855
18297W        W86638  33.455  20.174   0.830
18298W        W86639  34.401  26.004   3.369
18299W        W86640  41.005  39.924   3.804
18300W        W86641   0.866  44.010  12.508
18301W        W86642  43.428  14.690   0.344
18302W        W86643  25.554  19.740  12.004
18303W        W86644   1.259  43.386   1.733
18304W        W86645  19.143  19.050   2.263
18305W        W86646  23.514  23.026  13.028
18306W        W86647  29.437  37.947   0.286
18307W        W86648  11.818  26.466   5.086
18308W        W86649   3.439  25.515  10.546
18309W        W86650   0.850  31.005   2.687
18310W        W86651   9.777  26.617   1.788
18311W        W86652  16.794  28.482   4.792
18312W        W86653  14.272   6.817  13.402
18313W        W86654  21.708   8.271  11.013
18314W        W86655   3.270  16.708  14.279
18315W        W86656   6.739  30.577  12.493
18316W        W86657  27.995  33.025   4.277
18317W        W86658   9.195  34.096   0.471
18318W        W86659  34.116  40.461   1.325
18319W        W86660  35.012  27.059   4.341
18320W        W86661  43.962  26.465   0.854
18321W        W86662  27.633   9.379  14.378
18322W        W86663  15.699  21.658  13.359
18323W        W86664  17.183  39.017  13.359
18324W        W86665  11.858  36.998  10.408
18325W        W86666   3.347  12.165  12.574
18326W        W86667  15.685  41.915   3.835
18327W        W86668  36.380  36.921  10.569
18328W        W86669  20.106  44.968  14.026
18329W        W86670   2.864  44.865  11.454
18330W        W86671  35.053  43.907   0.829
18331W        W86672  27.060  16.306   1.854
18332W        W86673  10.679  29.134   0.852
18333W        W86674  12.312  20.582  11.564
18334W        W86675  12.838  41.293   3.736
18335W        W86676  21.171  24.553   2.845
18336W        W86677  32.945  25.083  13.381
18337W        W86678  20.082  12.261  10.462
18338W        W86679  35.091  36.969  12.576
18339W        W86680  10.834   3.856   3.233
18340W        W86681  14.183   6.702   2.239
18341W        W86682  41.819  20.040  11.472
18342W        W86683  33.976   2.431   0.783
18343W        W86684  34.880  20.149  13.803
18344W        W86685   3.403  34.956  14.989
18345W        W86686  24.175   2.305   4.798
18346W        W86687  29.604  22.525   3.195
18347W        W86688  33.884   5.830   2.418
18348W        W86689  12.661  31.570   2.698
18349W        W86690  29.968  44.442  11.540
18350W        W86691  16.684  18.057   0.843
18351W        W86692  19.679  42.858   4.709
18352W        W86693  29.933  18.188   0.838
18353W        W86694  30.506   9.744  14.939
18354W        W86695  40.306   6.836  13.441
18355W        W86696   3.399  18.727   2.238
18356W        W86697  18.127  32.531  14.395
18357W        W86698  34.537   1.856   2.233
18358W        W86699  35.371  10.753   2.886
18359W        W86700  37.429   0.429   1.412
18360W        W86701  27.040  14.819  11.905
18361W        W86702   4.275  24.117  13.809
18362W        W86703   4.284  22.642   2.791
18363W        W86704  39.381  15.709  14.844
18364W        W86705  20.575  27.551   1.894
18365W        W86706   5.207   8.238  12.483
18366W        W86707  25.581  42.918   1.713
18367W        W86708  44.836  18.641  12.872
18368W        W86709  37.580   6.777  13.369
18369W        W86710  27.174  40.457   4.779
18370W        W86711  35.393  34.060   2.200
18371W        W86712  18.165  44.868   1.906
18372W        W86713   2.844  10.202  11.916
18373W        W86714  24.983  33.531  14.330
18374W        W86715  16.238  41.505  12.545
18375W        W86716   6.237  17.588   1.324
18376W        W86717  37.417  27.522   0.334
18377W        W86718  21.157   0.938  11.595
18378W        W86719  35.451  15.238  13.362
18379W        W86720  27.158  29.075  11.490
18380W        W86721  37.946  20.740   4.833
18381W        W86722  43.479  34.461  12.832
18382W        W86723   4.769  41.412  12.093
18383W        W86724  24.515  11.800  13.906
18384W        W86725   8.703  16.654  14.921
18385W        W86726  24.084  40.486   4.262
18386W        W86727  40.040  41.449  13.818
18387W        W86728   7.390  44.857  14.770
18388W        W86729  36.045  18.721   1.934
18389W        W86730  27.059  19.099   1.785
18390W        W86731  25.602  25.976  10.535
18391W        W86732  30.582  33.598   4.146
18392W        W86733   6.243  20.544  13.351
18393W        W86734  31.977  14.651   3.848
18394W        W86735   4.874  42.488   4.650
18395W        W86736  23.058  22.623   0.831
18396W        W86737   1.397  39.985  13.535
18397W        W86738  38.946  30.615  10.982
18398W        W86739   3.281  22.142  11.117
18399W        W86740  29.108  37.899  14.310
18400W        W86741  26.205   7.735  13.508
18401W        W86742   5.767  42.394   1.883
18402W        W86743  23.187   2.449  13.329
18403W        W86744  38.063  42.936   0.831
18404W        W86745  35.868  44.487  10.544
18405W        W86746  13.312  22.647   1.934
18406W        W86747   3.454  19.094  14.984
18407W        W86748  39.974  29.953   0.914
18408W        W86749  14.181  34.553  10.593
18409W        W86750  13.228  40.527   4.255
18410W        W86751  20.130  35.590   3.695
18411W        W86752  21.095  28.936  12.974
18412W        W86753   6.762  32.436   4.222
18413W        W86754  39.559  30.441   2.672
18414W        W86755  20.610  24.973  11.091
18415W        W86756  13.130  31.936  14.021
18416W        W86757  38.386   9.256   2.317
18417W        W86758  31.547   5.197   2.381
18418W        W86759  12.669  17.778  10.934
18419W        W86760  27.445  32.926   1.403
18420W        W86761  10.225  38.830   2.261
18421W        W86762  14.710  37.017  13.013
18422W        W86763   6.343   3.237   1.893
18423W        W86764  18.786   3.864  13.389
18424W        W86765  34.107  37.558  14.903
18425W        W86766  22.150  12.750  11.049
18426W        W86767  17.761  16.297   0.331
18427W        W86768  16.690   2.860  13.955
18428W        W86769  20.542  33.476   4.745
18429W        W86770  28.630  37.423   1.764
18430W        W86771  10.279   3.932  11.125
18431W        W86772  44.836  17.750   1.312
18432W        W86773  37.881  44.893  13.955
18433W        W86774  19.652  27.571  14.827
18434W        W86775  35.105  12.618   0.345
18435W        W86776   7.240   9.663  14.409
18436W        W86777  10.662  34.576   2.751
18437W        W86778   2.303  25.609  12.045
18438W        W86779  16.813   3.955   0.887
18439W        W86780  29.020  30.065   3.797
18440W        W86781  32.453  24.084   1.283
18441W        W86782  38.041  36.460  12.516
18442W        W86783  27.500  11.369  12.390
18443W        W86784  36.436  28.634   2.822
18444W        W86785  44.834  35.008   3.351
18445W        W86786  33.041  13.797   3.305
18446W        W86787  25.172  35.980   2.371
18447W        W86788  18.707  32.547  10.477
18448W        W86789  42.460   8.670   4.344
18449W        W86790  14.313  22.146  12.385
18450W        W86791  20.110  14.273  14.336
18451W        W86792  27.196  21.262  12.378
18452W        W86793  17.303  40.391   2.367
18453W        W86794  28.624  24.213  10.961
18454W        W86795  43.478  15.232   2.701
18455W        W86796   4.317  15.301   4.702
18456W        W86797  25.023  44.339   3.686
18457W        W86798   9.758  12.181   3.266
18458W        W86799  17.763  22.233   4.766
18459W        W86800  19.718   0.275   1.292
18460W        W86801  26.685  37.960   0.934
18461W        W86802  25.215  15.672  14.939
18462W        W86803  30.087  34.095  12.379
18463W        W86804  27.174  37.074   0.764
18464W        W86805  22.144  12.744   1.889
18465W        W86806  29.165  42.778  12.906
18466W        W86807   3.760  39.812   2.194
18467W        W86808   5.744   4.204  13.355
18468W        W86809  43.838  27.609  13.049
18469W        W86810  43.947  27.564   0.366
18470W        W86811  43.808  12.661   3.816
18471W        W86812   9.823   9.681  10.502
18472W        W86813  22.509  40.042   4.258
18473W        W86814   4.266  43.916  13.791
18474W        W86815   4.368   6.868   3.657
18475W        W86816   2.735  28.994   4.612
18476W        W86817  38.836  28.178  14.973
18477W        W86818  44.007  38.536  11.559
18478W        W86819  34.070  37.876   0.290
18479W        W86820  40.921  30.917   4.769
18480W        W86821   4.437  10.757   0.779
18481W        W86822  42.958  20.201  14.848
18482W        W86823   7.211  19.709   0.897
18483W        W86824  25.540  26.104  13.407
18484W        W86825  35.585  41.312   4.674
18485W        W86826  24.148   7.911   1.316
18486W        W86827  29.591  25.479  11.384
18487W        W86828  33.614  17.798  11.115
18488W        W86829   3.830   1.898   2.419
18489W        W86830   2.728   7.387  14.968
18490W        W86831   4.249  12.286   3.666
18491W        W86832  39.940   6.807  11.526
18492W        W86833  43.989  41.959   0.867
18493W        W86834  20.083  22.044  11.993
18494W        W86835  16.765  22.016   3.862
18495W        W86836  20.084  22.682  13.799
18496W        W86837  25.176  22.693   4.197
18497W        W86838  11.275   2.764  13.481
18498W        W86839  18.208  28.667  12.362
18499W        W86840  27.514  44.367   0.823
18500W        W86841  17.111  41.894   2.353
18501W        W86842  16.164  35.424  13.054
18502W        W86843   2.823   4.439   4.838
18503W        W86844  11.640  34.553  11.448
18504W        W86845  19.158  30.459   3.147
18505W        W86846  26.124  36.574   2.805
18506W        W86847  39.519   3.852   1.352
18507W        W86848  18.606  21.596   1.892
18508W        W86849  26.682  27.507  14.830
18509W        W86850  24.573   0.974   3.151
18510W        W86851  38.523  33.582   4.253
18511W        W86852   6.302  14.798  14.329
18512W        W86853  14.624  12.231  12.053
18513W        W86854  30.148  12.802  12.859
18514W        W86855  13.123  35.476  11.386
18515W        W86856  34.508  33.404   3.735
18516W        W86857   8.820  43.870  14.986
18517W        W86858  37.406   7.309   0.446
18518W        W86859  14.654  19.586   5.267
18519W        W86860  39.507  13.842   1.313
18520W        W86861  44.804   3.390  14.886
18521W        W86862  15.645  35.362  14.989
18522W        W86863  35.382  18.137  10.932
18523W        W86864  25.602  19.203  12.500
18524W        W86865  21.141  25.130   3.321
18525W        W86866   2.767  39.495   0.802
18526W        W86867   0.478   7.317  12.991
18527W        W86868  37.080   7.372  13.365
18528W        W86869   6.777  39.826   0.837
18529W        W86870   6.880  40.521  13.421
18530W        W86871   6.858   4.259  13.368
18531W        W86872  32.476  31.544   2.795
18532W        W86873   9.883   1.825   3.854
18533W        W86874  13.235  24.664  14.006
18534W        W86875  31.131  44.469   2.838
18535W        W86876  18.626  15.134  11.547
18536W        W86877  37.087  44.387  11.477
18537W        W86878   7.735  14.675  12.886
18538W        W86879   1.374   3.836  12.074
18539W        W86880   9.238  15.198   3.173
18540W        W86881  26.503  17.132  10.977
18541W        W86882   5.873  34.065  12.572
18542W        W86883  23.015  16.699  12.927
18543W        W86884   8.345  37.417  13.507
18544W        W86885  39.979  25.681  10.992
18545W        W86886  43.898  36.979   3.248
18546W        W86887  19.132  19.122   2.700
18547W        W86888  37.357  34.487   2.722
18548W        W86889  33.451  23.988   2.409
18549W        W86890  10.741  38.978  13.308
18550W        W86891   1.774  44.910  13.450
18551W        W86892  15.768  42.296  13.843
18552W        W86893   9.267   7.883   2.365
18553W        W86894  14.654  18.732   0.812
18554W        W86895  38.428  26.611  13.937
18555W        W86896  40.916  40.515  10.894
18556W        W86897  38.843  21.616  11.477
18557W        W86898  39.025  11.309  11.037
18558W        W86899  35.565  29.938  12.367
18559W        W86900   5.335  24.093  12.435
18560W        W86901  39.451  25.696   4.277
18561W        W86902   3.873  42.490  13.437
18562W        W86903  27.189   7.307  14.349
18563W        W86904  27.169  11.205   3.161
18564W        W86905  28.963  33.089   3.348
18565W        W86906   4.210  34.061   2.827
18566W        W86907  11.331  17.241  13.889
18567W        W86908  10.332  33.425  12.087
18568W        W86909  28.957  12.123  11.042
18569W        W86910   0.906   2.280  12.422
18570W        W86911  30.520  44.368   3.781
18571W        W86912   1.457   6.194  11.538
18572W        W86913  28.013  18.198   4.604
18573W        W86914  44.869  20.579   5.092
18574W        W86915  27.067  33.039  10.889
18575W        W86916  28.976  35.887   4.668
18576W        W86917  29.981  40.816  14.413
18577W        W86918  11.693  18.221   4.746
18578W        W86919  23.168  25.493  10.479
18579W        W86920  34.112  17.076  10.000
18580W        W86921  11.825  32.634  11.952
18581W        W86922  25.651  41.841   4.769
18582W        W86923   2.280  16.650  12.500
18583W        W86924  12.849  24.499  10.983
18584W        W86925   6.844   2.425   0.347
18585W        W86926   6.910  14.210   3.237
18586W        W86927  13.725  26.482   2.347
18587W        W86928   6.880  31.463   1.817
18588W        W86929  25.011  11.733  11.565
18589W        W86930   4.819  34.450  13.387
18590W        W86931  20.267   4.358  13.845
18591W        W86932   9.655  43.945  14.002
18592W        W86933  44.005  21.027   5.183
18593W        W86934  41.809  23.600   4.599
18594W        W86935  36.546   6.336   2.363
18595W        W86936   9.871  43.349  11.056
18596W        W86937  26.985  22.076  11.939
18597W        W86938  17.757  37.422   0.840
18598W        W86939  42.910  41.841  11.085
18599W        W86940  31.145   3.754  11.029
18600W        W86941  44.317  23.680  14.873
18601W        W86942  24.124   1.900   4.168
18602W        W86943   3.752  23.663   3.737
18603W        W86944  40.960  24.658   4.117
18604W        W86945  12.792  33.920  12.345
18605W        W86946  21.213   3.903  10.632
18606W        W86947   1.842  29.941   0.967
18607W        W86948   7.841  25.516  14.495
18608W        W86949   6.251  33.486   2.274
18609W        W86950   6.232  19.653  13.039
18610W        W86951  28.137  38.454   1.306
18611W        W86952  40.844  12.689  14.481
18612W        W86953  42.433  29.068   4.622
18613W        W86954  31.506  33.437  12.858
18614W        W86955  31.467  39.025  11.556
18615W        W86956   8.881  34.514   2.197
18616W        W86957   3.298  18.615  14.914
18617W        W86958   6.353  30.985  12.504
18618W        W86959  11.702  23.667  11.440
18619W        W86960  38.837   8.379   2.181
18620W        W86961  40.818   2.961  11.883
18621W        W86962   0.754   0.448  10.527
18622W        W86963   3.424  13.808  11.392
18623W        W86964  21.147  21.584  14.891
18624W        W86965  30.447  29.977  14.404
18625W        W86966  24.608  15.227  14.913
18626W        W86967  26.460  39.852  14.940
18627W        W86968  25.133  25.167  10.461
18628W        W86969  30.052   3.788  13.902
18629W        W86970  30.646  17.593  12.857
18630W        W86971  25.078  16.761  13.491
18631W        W86972  29.165  22.251   4.676
18632W        W86973  14.269   8.686  12.885
18633W        W86974  15.727  16.691   9.947
18634W        W86975   5.351  33.475  13.442
18635W        W86976  40.941  17.673   4.349
18636W        W86977  30.444  17.211  14.932
18637W        W86978   1.924  19.695  10.597
18638W        W86979   0.287   7.210   2.186
18639W        W86980  35.602  29.922   0.384
18640W        W86981  34.445   5.428  13.529
18641W        W86982   0.421   6.263  13.526
18642W        W86983  29.621  32.058   0.851
18643W        W86984   1.269  12.646  14.926
18644W        W86985  24.652  37.365  12.947
18645W        W86986  35.042   8.251  14.507
18646W        W86987   1.406   1.295  14.489
18647W        W86988  33.043  31.086  12.503
18648W        W86989  15.287  10.304  13.933
18649W        W86990  35.000   5.692   3.201
18650W        W86991  21.137  15.215  10.535
18651W        W86992   5.815  22.673  13.799
18652W        W86993  36.871   8.861  12.451
18653W        W86994  18.292  28.527   1.222
18654W        W86995   6.216  13.225  13.460
18655W        W86996  44.480   5.868  10.898
18656W        W86997  34.407   9.726   4.302
18657W        W86998  23.038  11.164   0.272
18658W        W86999  32.977  41.509  11.867
18659W        W87000  31.554  17.301   2.307
18660W        W87001   6.292  44.302   1.407
18661W        W87002   4.884  40.397  12.965
18662W        W87003   9.746  34.026   1.269
18663W        W87004  30.063  21.571   4.637
18664W        W87005  39.518  14.239   3.664
18665W        W87006  11.819  28.535  14.515
18666W        W87007  10.724  14.595   0.442
18667W        W87008  13.211  43.460  11.879
18668W        W87009   0.823  38.352  13.339
18669W        W87010  32.397   8.832  14.837
18670W        W87011  22.172  29.019   4.221
18671W        W87012  39.483  13.605   3.687
18672W        W87013  31.490  20.747  12.939
18673W        W87014  14.255  40.868  14.909
18674W        W87015   9.663  40.803   1.371
18675W        W87016   2.360   0.271   0.457
18676W        W87017  17.071   0.978  11.461
18677W        W87018  34.535  34.079   4.738
18678W        W87019   0.287  17.585   4.345
18679W        W87020   0.966  18.271  12.000
18680W        W87021  36.349  32.888   0.964
18681W        W87022   3.348   6.760  14.418
18682W        W87023  30.058  13.128  10.922
18683W        W87024  35.869   4.728  11.902
18684W        W87025  12.704  40.432   2.354
18685W        W87026   5.196  34.947   0.260
18686W        W87027  15.226  29.623   3.848
18687W        W87028  32.634  21.211   2.889
18688W        W87029  10.235  30.029  12.907
18689W        W87030  41.457  37.500   2.668
18690W        W87031  41.493  36.995   1.359
18691W        W87032   5.324  25.627  13.793
18692W        W87033  32.466  14.102  13.822
18693W        W87034   4.913  33.407  14.388
18694W        W87035   1.813  11.833  14.409
18695W        W87036  18.774  35.017   2.718
18696W        W87037  43.385   1.304   2.876
18697W        W87038  17.764   5.748  10.546
18698W        W87039   0.744  36.866   1.895
18699W        W87040  19.081  21.649   1.217
18700W        W87041  42.307  16.318  14.513
18701W        W87042  41.822   8.162  11.403
18702W        W87043   7.317  36.050   0.801
18703W        W87044   0.467   5.317  11.594
18704W        W87045  26.526  16.117   1.401
18705W        W87046  33.119  12.632   2.689
18706W        W87047  35.906   8.668  11.100
18707W        W87048  16.195   0.940   2.222
18708W        W87049  34.119  40.524  13.515
18709W        W87050  23.589   6.325  11.064
18710W        W87051  24.062  28.090  14.938
18711W        W87052  39.881  43.297   5.759
18712W        W87053  13.826  13.162  11.583
18713W        W87054   2.402  11.344  11.547
18714W        W87055  27.664  33.975  11.917
18715W        W87056  22.666  43.279  12.943
18716W        W87057  28.604   5.896  12.507
18717W        W87058  38.479  40.897   0.414
18718W        W87059  33.410  35.385  13.954
18719W        W87060   8.352  29.470   0.318
18720W        W87061   7.281  36.481  14.298
18721W        W87062   2.885  42.378   1.403
18722W        W87063  22.190  33.903  13.056
18723W        W87064  16.752  18.619  11.562
18724W        W87065  38.928  39.877  12.518
18725W        W87066  34.096  43.926   1.758
18726W        W87067  13.290  38.989   4.711
18727W        W87068  18.278  21.535   0.782
18728W        W87069  21.090  30.064   0.326
18729W        W87070  17.108  18.126   5.153
18730W        W87071  38.413  33.095   3.297
18731W        W87072   0.953  44.770   1.211
18732W        W87073  34.871  40.811  14.489
18733W        W87074   0.446  17.602   2.687
18734W        W87075  43.872  25.080   2.274
18735W        W87076   2.338  23.137   4.764
18736W        W87077  36.358   9.788  10.903
18737W        W87078  20.734  35.580   1.881
18738W        W87079  34.464  14.702  11.963
18739W        W87080  12.797  44.338   2.375
18740W        W87081  23.643  11.264   2.746
18741W        W87082  38.465  15.090  13.536
18742W        W87083  16.665  38.069   1.221
18743W        W87084  31.413  19.759  11.506
18744W        W87085  34.429  37.896   0.814
18745W        W87086  16.617  30.471   1.782
18746W        W87087  10.670  36.384   3.863
18747W        W87088  37.450  41.797   3.831
18748W        W87089  16.140  21.152  13.384
18749W        W87090  37.897   7.821  11.993
18750W        W87091  44.798   8.832  10.627
18751W        W87092  26.497   2.454  10.422
18752W        W87093  31.599   2.438  14.401
18753W        W87094  13.169  18.577  10.463
18754W        W87095  36.069  33.561   1.293
18755W        W87096  17.566  10.774  12.066
18756W        W87097  19.720  11.730   2.702
18757W        W87098   3.845  26.700  11.600
18758W        W87099  17.131  27.536   1.433
18759W        W87100   8.875  23.118   3.151
18760W        W87101  26.641  12.305   0.279
18761W        W87102  30.076  17.773   1.270
18762W        W87103  35.995  25.131  14.825
18763W        W87104  30.105   8.286   2.394
18764W        W87105   9.231  39.368   1.308
18765W        W87106  14.805   1.890  12.025
18766W        W87107   2.414  44.396  13.325
18767W        W87108  41.339   5.354  11.923
18768W        W87109  34.452  39.813   3.691
18769W        W87110   8.293   8.310  11.887
18770W        W87111  24.676  40.509  13.947
18771W        W87112  30.441  14.134   0.364
18772W        W87113  37.006  34.925  11.478
18773W        W87114  17.797   0.952  13.460
18774W        W87115   8.815  34.118   1.908
18775W        W87116   5.396  29.046  14.365
18776W        W87117  26.208  43.270   3.674
18777W        W87118  25.077  30.532   3.269
18778W        W87119   3.800  33.886   1.780
18779W        W87120  30.110  40.314  11.998
18780W        W87121  41.907   8.888   2.290
18781W        W87122  23.607  42.503  10.465
18782W        W87123  43.773  36.591   3.301
18783W        W87124   9.777  27.616   4.686
18784W        W87125  28.584  31.614  10.933
18785W        W87126  34.995  15.593   1.933
18786W        W87127  36.536  11.712  12.042
18787W        W87128   4.767  32.585  12.959
18788W        W87129  44.886  21.208   3.352
18789W        W87130   9.345  33.018  13.824
18790W        W87131  11.244   7.177  11.083
18791W        W87132   4.792  24.008  14.302
18792W        W87133   6.883  39.511  10.468
18793W        W87134  35.386   1.862  11.482
18794W        W87135  18.213   7.298  14.997
18795W        W87136   6.330  11.666  10.986
18796W        W87137  40.860  15.657   4.230
18797W        W87138  19.757  34.068   2.737
18798W        W87139  22.610  16.639   4.618
18799W        W87140   7.300  11.828   0.470
18800W        W87141  11.713  10.836   1.409
18801W        W87142   3.301  35.404  14.297
18802W        W87143  23.111  23.987   1.701
18803W        W87144   5.214  23.600  13.367
18804W        W87145  10.321   9.172  12.838
18805W        W87146   2.740  13.758   0.274
18806W        W87147  21.083  41.304   0.890
18807W        W87148  38.986  33.109  10.419
18808W        W87149   5.920  17.253  12.524
18809W        W87150  41.802  35.915  12.424
18810W        W87151  35.023  37.022   3.169
18811W        W87152  39.899   8.310  12.982
18812W        W87153   0.912  16.681  14.395
18813W        W87154  42.029  29.453   1.875
18814W        W87155  23.635  40.898  14.005
18815W        W87156  13.787  41.493  12.063
18816W        W87157  15.781  11.136  12.914
18817W        W87158   5.382  44.760  11.483
18818W        W87159  42.032  36.981  12.982
18819W        W87160  15.267  39.417   5.233
18820W        W87161  35.557  16.608   4.214
18821W        W87162  25.504  38.835  10.556
18822W        W87163  11.838  35.436  12.081
18823W        W87164  41.964  23.016   4.157
18824W        W87165  28.123  23.164   3.221
18825W        W87166  40.047  28.001   4.768
18826W        W87167  26.570  11.168  13.908
18827W        W87168  28.542  36.070  13.409
18828W        W87169  13.266   7.788   0.429
18829W        W87170  28.079  40.045  12.014
18830W        W87171  25.035  39.317  14.829
18831W        W87172   8.224   2.287   4.252
18832W        W87173  24.986  28.175   4.354
18833W        W87174  28.627  29.645   1.865
18834W        W87175  14.320   0.963   1.737
18835W        W87176   9.682  30.433  12.856
18836W        W87177  39.334  37.341   3.733
18837W        W87178  17.302  21.143  12.849
18838W        W87179  12.248  33.545   0.399
18839W        W87180  21.757  33.089  10.936
18840W        W87181  14.203  26.188   3.647
18841W        W87182   5.242  37.063   2.293
18842W        W87183  18.692  20.062  13.443
18843W        W87184  11.702  36.562  12.445
18844W        W87185  19.043  33.586  14.359
18845W        W87186  13.251  23.619  12.514
18846W        W87187  35.950  11.817  10.420
18847W        W87188   6.884  28.076   3.716
18848W        W87189  36.386  41.359  11.898
18849W        W87190  19.735  21.157   2.218
18850W        W87191  12.231  14.722  13.541
18851W        W87192  37.410  26.653  13.359
18852W        W87193  42.852   9.798   1.345
18853W        W87194  20.108  43.278   4.134
18854W        W87195   8.832  36.872   1.895
18855W        W87196  25.632   3.446  13.535
18856W        W87197  41.343  36.929  13.007
18857W        W87198  28.482   1.886  11.035
18858W        W87199   1.811  32.904   1.882
18859W        W87200  18.776  36.024   5.238
18860W        W87201   2.922  39.509  11.002
18861W        W87202  30.577   5.884   2.399
18862W        W87203  28.649  42.791   3.688
18863W        W87204  37.994   2.794   3.730
18864W        W87205  31.005  30.646  13.454
18865W        W87206  10.833  39.041  14.277
18866W        W87207   9.396  38.433   4.291
18867W        W87208  37.505  36.861   3.260
18868W        W87209  36.063  15.279  10.961
18869W        W87210  40.803  28.607  11.550
18870W        W87211  44.412  38.489  13.389
18871W        W87212  42.898  15.329   2.345
18872W        W87213  36.377   9.854   3.258
18873W        W87214  12.706  22.186  14.962
18874W        W87215  33.950   1.318   3.839
18875W        W87216  38.403  29.526   2.759
18876W        W87217  13.213  19.721   0.733
18877W        W87218  40.454  29.081  10.954
18878W        W87219  17.710  41.022  14.851
18879W        W87220  31.590   8.187   2.796
18880W        W87221  23.702  37.422   3.635
18881W        W87222  24.539  22.191  14.494
18882W        W87223  10.202  21.053   3.180
18883W        W87224  27.622   3.402   3.196
18884W        W87225   8.229   6.412   1.841
18885W        W87226   0.771  13.300  13.900
18886W        W87227  32.422  33.594  14.281
18887W        W87228  25.180  12.245   2.861
18888W        W87229  20.055  31.418   3.664
18889W        W87230  30.452  37.374  13.391
18890W        W87231  34.945  43.890   2.898
18891W        W87232  20.132  31.904   3.342
18892W        W87233  42.942   1.956   0.964
18893W        W87234  37.405  13.811  14.293
18894W        W87235   3.774   7.756   3.866
18895W        W87236  36.008  11.818   3.146
18896W        W87237  15.213   2.424   3.182
18897W        W87238  12.285  32.571  12.868
18898W        W87239  40.962  13.740   3.328
18899W        W87240  43.503  18.567  13.857
18900W        W87241   6.387  30.012  11.390
18901W        W87242  29.440   4.775  11.080
18902W        W87243  44.279   7.882  14.815
18903W        W87244  39.475  33.556  14.441
18904W        W87245  29.049   5.392  10.405
18905W        W87246  13.190  28.181   5.218
18906W        W87247  36.000   7.875  11.086
18907W        W87248  13.111  17.641   2.755
18908W        W87249  21.134   3.806   4.744
18909W        W87250  43.340   5.349  12.445
18910W        W87251  32.547  17.238  10.129
18911W        W87252  12.832   4.940   1.450
18912W        W87253  29.043  24.219   4.762
18913W        W87254  21.147  37.348   4.619
18914W        W87255  23.723   3.352   4.799
18915W        W87256  28.437  25.519   2.903
18916W        W87257  26.204   0.250  10.641
18917W        W87258   8.218  15.727  11.431
18918W        W87259  18.558  27.095  14.333
18919W        W87260  41.838  27.527   1.713
18920W        W87261  11.660   3.329   5.282
18921W        W87262  25.499  33.540   4.822
18922W        W87263   6.911   6.313  11.067
18923W        W87264  39.440  22.149  11.599
18924W        W87265  11.253  40.924  12.347
18925W        W87266   2.887   6.814  10.570
18926W        W87267  30.609  10.380  11.057
18927W        W87268  27.489  11.674  13.529
18928W        W87269  23.169  28.517  13.441
18929W        W87270  16.091  18.620  14.021
18930W        W87271   5.391  27.551  14.320
18931W        W87272  20.187   6.863   2.815
18932W        W87273  25.671   6.915   3.706
18933W        W87274  18.550  44.417  14.516
18934W        W87275  21.597  40.831   1.888
18935W        W87276  20.213  17.650  13.021
18936W        W87277  12.792   6.189  11.082
18937W        W87278  40.878  31.589   3.153
18938W        W87279  44.931  40.953  10.468
18939W        W87280  10.854  27.593  10.931
18940W        W87281  33.484  37.877   1.233
18941W        W87282   3.763  12.327  13.541
18942W        W87283  41.365  38.343   3.319
18943W        W87284  17.138  29.056   2.664
18944W        W87285  34.025  24.665   3.177
18945W        W87286  23.210  24.593  10.495
18946W        W87287  42.486  17.298  14.816
18947W        W87288  25.574  27.953  13.052
18948W        W87289  33.584  19.734  13.951
18949W        W87290  32.625  19.266  10.529
18950W        W87291  40.866  44.958   2.375
18951W        W87292  14.311  24.119  12.968
18952W        W87293   4.237  30.556  10.949
18953W        W87294  18.780  11.190  12.567
18954W        W87295   5.340   0.758  10.550
18955W        W87296   7.689  43.911  14.786
18956W        W87297  22.703  13.134  10.891
18957W        W87298  35.896   4.766  12.934
18958W        W87299  22.601  15.784  12.882
18959W        W87300  42.353  15.228   4.126
18960W        W87301   2.365  17.198  13.839
18961W        W87302  40.848  22.644  13.359
18962W        W87303   7.244  10.150  11.900
18963W        W87304  44.274  35.363   4.695
18964W        W87305  19.562   7.186  14.333
18965W        W87306   8.167  22.715  10.888
18966W        W87307  13.245  15.674   1.329
18967W        W87308   8.254  33.027  14.340
18968W        W87309  26.474  34.614  12.512
18969W        W87310   4.442  16.696   3.670
18970W        W87311  20.052   1.391   2.387
18971W        W87312  10.813  22.740  12.489
18972W        W87313  40.848   1.911  14.366
18973W        W87314  18.160  15.659   2.722
18974W        W87315   8.678  18.217  13.928
18975W        W87316  36.007  14.688  12.066
18976W        W87317   1.465  32.106  10.526
18977W        W87318   1.360  35.954  14.417
18978W        W87319  22.102  40.822  12.495
18979W        W87320  28.555  18.063   1.392
18980W        W87321  36.032  22.130  11.063
18981W        W87322  31.938  15.150   2.351
18982W        W87323  40.033  31.016   1.319
18983W        W87324  27.549  35.896  13.916
18984W        W87325   0.832  16.127   3.387
18985W        W87326   1.818  15.226   0.256
18986W        W87327  32.459  23.200  12.021
18987W        W87328  32.006  11.371  14.765
18988W        W87329   2.337   3.941  13.957
18989W        W87330   8.237  21.222  11.444
18990W        W87331   8.199  26.985   2.731
18991W        W87332  33.438  41.019  13.828
18992W        W87333  38.496  21.212  11.032
18993W        W87334  35.472  29.099  14.923
18994W        W87335  19.740  16.641   0.417
18995W        W87336   1.267  29.464   1.840
18996W        W87337  27.189  29.023  13.383
18997W        W87338  10.855  24.588   3.289
18998W        W87339   1.439   7.324   4.237
18999W        W87340  15.295  38.480  11.435
19000W        W87341  40.898  42.432   1.719
19001W        W87342  11.722  16.638  10.892
19002W        W87343   0.804   3.324  12.509
19003W        W87344   5.927  42.777   3.856
19004W        W87345  40.864  31.029  11.943
19005W        W87346  44.308  29.032  12.924
19006W        W87347  30.976   8.188  11.438
19007W        W87348  22.235  28.615   0.895
19008W        W87349  10.371   4.302  12.372
19009W        W87350  35.975  12.813   4.352
19010W        W87351  29.966  36.048  13.502
19011W        W87352  14.142  32.040  12.876
19012W        W87353  11.294   9.224  10.541
19013W        W87354  26.597  30.945   2.362
19014W        W87355  10.320  37.547   0.260
19015W        W87356  39.889  32.997   3.160
19016W        W87357  43.512  38.326   0.842
19017W        W87358  26.012  40.810   0.260
19018W        W87359  32.028   7.798  13.384
19019W        W87360  29.947  38.365   0.781
19020W        W87361  26.515  24.714   4.670
19021W        W87362  11.806  30.431  12.956
19022W        W87363  13.284  12.761   1.319
19023W        W87364   6.710  26.124  14.007
19024W        W87365  25.524  15.329  12.087
19025W        W87366  27.650  39.370   3.276
19026W        W87367  10.776  28.997   1.427
19027W        W87368  37.363  41.854  10.030
19028W        W87369  11.329  26.493   0.473
19029W        W87370  42.977  37.512   2.339
19030W        W87371  26.155  20.576  10.511
19031W        W87372  15.595   3.829  14.931
19032W        W87373  10.807  43.946  11.058
19033W        W87374  23.521  43.364  11.941
19034W        W87375  44.934  20.652   3.735
19035W        W87376  39.353  44.394   2.363
19036W        W87377  28.637  36.424  13.843
19037W        W87378   7.245  35.426   2.332
19038W        W87379  40.444  28.622  13.835
19039W        W87380   0.281   5.252  13.939
19040W        W87381  29.590   9.202  11.441
19041W        W87382  16.317  10.306  12.854
19042W        W87383  43.427  24.995  13.514
19043W        W87384  39.030   0.408  12.429
19044W        W87385  39.376  43.327   0.883
19045W        W87386  11.321  43.289   2.735
19046W        W87387  26.089  37.537   4.603
19047W        W87388  38.509  31.961   0.935
19048W        W87389  14.782  34.975  10.500
19049W        W87390  13.723  19.760   4.622
19050W        W87391  34.427  26.620  12.391
19051W        W87392  16.777   4.325   1.836
19052W        W87393   8.752  26.666   2.893
19053W        W87394  33.399  32.579  13.476
19054W        W87395  23.159  38.879  12.834
19055W        W87396  29.464  44.273  13.404
19056W        W87397  14.194  11.173   0.423
19057W        W87398  32.440  38.922  11.950
19058W        W87399  23.639  44.982   1.257
19059W        W87400   1.428  19.070  11.503
19060W        W87401  34.436  24.666  14.461
19061W        W87402  32.395   4.899   2.193
19062W        W87403  34.563  41.466   4.259
19063W        W87404   9.693   4.718   1.865
19064W        W87405  19.742  17.063   0.314
19065W        W87406  31.563  38.516  12.050
19066W        W87407  19.172  29.533   4.746
19067W        W87408   9.221  22.509   2.352
19068W        W87409  39.858  15.151   4.313
19069W        W87410   8.869  30.946  12.424
19070W        W87411  41.467  41.348   3.743
19071W        W87412  28.040   6.724  10.996
19072W        W87413   9.875  30.521  11.968
19073W        W87414  28.079  14.781   3.790
19074W        W87415  10.377   9.217   4.232
19075W        W87416  12.158   7.347   1.935
19076W        W87417  26.166  24.995  13.926
19077W        W87418  31.454  28.515  11.953
19078W        W87419  40.342  35.543   0.382
19079W        W87420  34.042  40.048   5.287
19080W        W87421  31.903  33.049   4.759
19081W        W87422  42.830  23.549  10.932
19082W        W87423  39.850  20.711  11.462
19083W        W87424  17.666   3.927   3.681
19084W        W87425  14.749  38.910  10.496
19085W        W87426   4.389  15.300   3.749
19086W        W87427   0.318   9.874   2.883
19087W        W87428  37.926  16.718  14.385
19088W        W87429  18.169  17.736   2.238
19089W        W87430   6.356  11.314  14.980
19090W        W87431  21.204  18.253  10.459
19091W        W87432  20.676  34.607  12.075
19092W        W87433   3.736   2.242  10.938
19093W        W87434  18.241   4.843   4.792
19094W        W87435   9.242  21.652   2.723
19095W        W87436  19.052  34.422  11.405
19096W        W87437  20.542  12.314  11.093
19097W        W87438  19.714  38.389  11.910
19098W        W87439   5.246  16.628   3.801
19099W        W87440   2.389  14.286  14.857
19100W        W87441   7.791   1.743  12.452
19101W        W87442   4.286  18.689  14.457
19102W        W87443  36.048  29.549  11.977
19103W        W87444  28.076  35.969  13.352
19104W        W87445  13.662  32.528   2.727
19105W        W87446  39.041  18.193   4.188
19106W        W87447  33.089   3.326   3.750
19107W        W87448  38.440  23.145  11.863
19108W        W87449  36.483  18.128   3.256
19109W        W87450  43.465  29.514   3.219
19110W        W87451  38.059  29.975  10.493
19111W        W87452  28.638  22.667   3.219
19112W        W87453  14.304   0.372   3.330
19113W        W87454  18.084  17.221   1.720
19114W        W87455  34.587  32.487   4.719
19115W        W87456   8.268  44.885   1.732
19116W        W87457  10.377  43.323  13.348
19117W        W87458  19.048  35.476   4.792
19118W        W87459  29.007  24.517  13.424
19119W        W87460  31.055  33.978  10.461
19120W        W87461  26.637  14.672   0.754
19121W        W87462   4.409  14.256  12.027
19122W        W87463  39.041   1.347   4.695
19123W        W87464  13.142  30.056  11.955
19124W        W87465  12.668  17.143   0.913
19125W        W87466  23.501  34.959  12.490
19126W        W87467  39.395   3.752   3.792
19127W        W87468   4.325  42.873   4.645
19128W        W87469   8.832   5.772   3.289
19129W        W87470   1.412  18.189  13.896
19130W        W87471  20.557  14.780   4.172
19131W        W87472   2.864   6.383  10.531
19132W        W87473  26.695   0.360  10.467
19133W        W87474  41.003  10.829  10.408
19134W        W87475  26.586  43.310   3.290
19135W        W87476  29.643  40.016  10.616
19136W        W87477  16.152  17.133  13.909
19137W        W87478  10.728  17.098  12.511
19138W        W87479  10.763  23.574   1.421
19139W        W87480   7.304  14.804  11.574
19140W        W87481  14.810  33.402   1.236
19141W        W87482  14.190  37.916   1.695
19142W        W87483  40.970   9.377   4.698
19143W        W87484   2.795  19.607   1.255
19144W        W87485  37.840  21.214   2.799
19145W        W87486   1.409  27.944   0.429
19146W        W87487  32.544   7.363  14.506
19147W        W87488   2.918   9.153  12.397
19148W        W87489  39.021  16.169   0.964
19149W        W87490  40.991   9.779  14.882
19150W        W87491  37.067  17.303  14.400
19151W        W87492  26.054  32.041  11.060
19152W        W87493  44.830  42.327   1.894
19153W        W87494   6.401  29.022  11.051
19154W        W87495  23.183   9.648  13.530
19155W        W87496  42.419  28.060  10.606
19156W        W87497  10.856  38.471  12.339
19157W        W87498  40.917  33.887   0.360
19158W        W87499   0.442  42.801   0.368
19159W        W87500  31.060  39.555  11.540
19160W        W87501  19.750  24.073  14.293
19161W        W87502  21.127  34.476   4.279
19162W        W87503  22.555  18.604   3.704
19163W        W87504  42.479  30.083  12.370
19164W        W87505  36.941  15.656   0.337
19165W        W87506  10.163  31.635  11.578
19166W        W87507  42.516   0.792  11.865
19167W        W87508  31.455  22.595  12.085
19168W        W87509   1.787  38.517   2.801
19169W        W87510  29.504  22.521  13.317
19170W        W87511   5.840  37.994   4.740
19171W        W87512   6.417  20.064  12.887
19172W        W87513  21.075  44.954   4.137
19173W        W87514  18.113  40.472  13.920
19174W        W87515  18.553  36.969  10.983
19175W        W87516   7.416  43.810   3.757
19176W        W87517  18.575  10.660  11.957
19177W        W87518  23.618  32.972   4.657
19178W        W87519  12.780  13.750   4.778
19179W        W87520  33.561  37.371  10.018
19180W        W87521  21.658  36.003   0.936
19181W        W87522  37.079   7.908  12.997
19182W        W87523  29.139  21.560   3.294
19183W        W87524   9.838  38.983  14.424
19184W        W87525  31.479   8.215   4.304
19185W        W87526   1.471   7.374  14.894
19186W        W87527  10.200  34.059   1.432
19187W        W87528   3.335   8.352  14.817
19188W        W87529  13.694   4.822   1.836
19189W        W87530  30.438  15.797  14.864
19190W        W87531  18.144  31.056   4.686
19191W        W87532  17.648  16.725  10.927
19192W        W87533  19.052  10.656  14.976
19193W        W87534  19.636  32.887   3.652
19194W        W87535  41.363  16.250  13.884
19195W        W87536  40.473  15.774   5.243
19196W        W87537  26.649   1.270   1.924
19197W        W87538   6.268  30.596   0.459
19198W        W87539   3.779  34.491   3.657
19199W        W87540  39.474  17.794   0.817
19200W        W87541  42.318  38.956   1.344
19201W        W87542   1.442  19.155  12.554
19202W        W87543  19.730   8.846   3.738
19203W        W87544  36.484  32.518   0.266
19204W        W87545  22.009   1.327   2.356
19205W        W87546  36.392  18.207   0.288
19206W        W87547  15.313   1.288  12.527
19207W        W87548  38.542  36.914  14.459
19208W        W87549  12.661  22.652   2.381
19209W        W87550  22.683  23.040  12.417
19210W        W87551  44.403  44.443   2.667
19211W        W87552  28.612  41.933   1.319
19212W        W87553  11.744  11.178  11.918
19213W        W87554   8.713  28.066  11.128
19214W        W87555  29.560  16.624   2.222
19215W        W87556  21.688   9.805   1.850
19216W        W87557  19.726  31.079  10.984
19217W        W87558  22.517  44.346   1.401
19218W        W87559  10.761  25.701   1.921
19219W        W87560  26.956   2.341  12.853
19220W        W87561   3.285  37.502  14.442
19221W        W87562  16.710  22.158   0.400
19222W        W87563  11.673  36.386   3.816
19223W        W87564  22.681  23.123  10.999
19224W        W87565  19.542  25.079   1.740
19225W        W87566   8.391  35.475  12.896
19226W        W87567  44.396  37.872  11.118
19227W        W87568  26.059  27.994  10.414
19228W        W87569  39.911  39.433   3.755
19229W        W87570  39.908  37.843   2.699
19230W        W87571  15.175  31.129   3.762
19231W        W87572  37.388   3.458  11.008
19232W        W87573  13.721   4.221   4.284
19233W        W87574   8.262   1.965  12.990
19234W        W87575  29.434  42.859  14.434
19235W        W87576  25.686  35.033  11.125
19236W        W87577   4.715  11.803  14.368
19237W        W87578   9.168  19.220   0.294
19238W        W87579  15.631  10.182  10.626
19239W        W87580  23.012  28.968  11.433
19240W        W87581   0.823  26.014   3.238
19241W        W87582   9.791  23.578   4.180
19242W        W87583  42.817   4.370  11.398
19243W        W87584  28.056  31.483   2.843
19244W        W87585  25.511  24.185   1.872
19245W        W87586   8.753   5.372   0.737
19246W        W87587  18.085   9.283   2.763
19247W        W87588   4.376  30.145  13.861
19248W        W87589  10.747   9.745   4.626
19249W        W87590  11.355   3.857   2.405
19250W        W87591   4.436   2.910   2.265
19251W        W87592  10.794   9.815   3.771
19252W        W87593  30.547  12.145   0.301
19253W        W87594  39.990  19.774  13.912
19254W        W87595   8.254  37.478   0.435
19255W        W87596  30.016   6.801   1.765
19256W        W87597   3.446  14.626  10.463
19257W        W87598  34.873   4.849  13.455
19258W        W87599   5.272  11.150   0.444
19259W        W87600  31.020  42.028  11.002
19260W        W87601  33.451  16.071   3.704
19261W        W87602  22.544  25.657   3.643
19262W        W87603  38.387  40.905   1.752
19263W        W87604  28.668  27.946  12.431
19264W        W87605  20.268  32.521  10.511
19265W        W87606  27.689  41.377  13.959
19266W        W87607   6.279   5.213  12.358
19267W        W87608   2.289  28.077  14.357
19268W        W87609  15.182   9.240  11.993
19269W        W87610  40.854  16.167  14.510
19270W        W87611  16.601  33.945   5.099
19271W        W87612  13.620  22.659   1.345
19272W        W87613  37.367  21.665  14.444
19273W        W87614  32.584  34.924  12.935
19274W        W87615  28.974   3.866   4.765
19275W        W87616  18.057   8.266  13.423
19276W        W87617  19.568  13.317  13.374
19277W        W87618  30.559  43.368  14.430
19278W        W87619  28.531  40.970  13.937
19279W        W87620   0.258  20.656  13.337
19280W        W87621  24.627  27.449   1.299
19281W        W87622  40.390  14.233   2.271
19282W        W87623  26.097   3.253  11.091
19283W        W87624  13.331  26.002   2.662
19284W        W87625  16.729  33.396   3.295
19285W        W87626  14.259  43.769  14.966
19286W        W87627  44.848  24.634   1.319
19287W        W87628  38.501  37.416  11.113
19288W        W87629  24.073   8.240   4.730
19289W        W87630  30.648  40.545  14.978
19290W        W87631   1.385  38.452   4.702
19291W        W87632  15.265  36.957   0.337
19292W        W87633  13.118  35.974   2.665
19293W        W87634  13.171   7.303  11.084
19294W        W87635  21.725  29.515   1.381
19295W        W87636  27.446   9.208  12.845
19296W        W87637  34.545  12.225  14.761
19297W        W87638  24.101  25.178  14.493
19298W        W87639  15.797  33.594   3.833
19299W        W87640  16.185  41.387  13.991
19300W        W87641  34.072  16.088   4.613
19301W        W87642  27.577  37.337   2.403
19302W        W87643  38.868  37.452   1.891
19303W        W87644  24.073  30.536  10.088
19304W        W87645  40.885  38.842  14.874
19305W        W87646  12.735   2.761   4.146
19306W        W87647  24.654  29.965  10.895
19307W        W87648  15.766   9.163  14.337
19308W        W87649  33.946  14.618   4.154
19309W        W87650  26.607  43.465   5.227
19310W        W87651  44.984  24.173   4.188
19311W        W87652  26.109  20.160  10.518
19312W        W87653  19.545  26.169  11.021
19313W        W87654  34.938  22.738   5.250
19314W        W87655  27.689   6.388   0.433
19315W        W87656  20.661  34.023  14.512
19316W        W87657  28.098   6.829   4.314
19317W        W87658  17.626  21.058  11.958
19318W        W87659  24.009  26.050   4.740
19319W        W87660  31.077  32.560  11.059
19320W        W87661   7.390  20.066   3.383
19321W        W87662  24.585  36.449   0.838
19322W        W87663  44.936   9.255   3.361
19323W        W87664  17.202  12.702  13.469
19324W        W87665  39.923  26.136   1.384
19325W        W87666  11.826  24.694   3.173
19326W        W87667  32.899  14.145   0.458
19327W        W87668  40.913  23.046  10.950
19328W        W87669   7.263  10.357   9.956
19329W        W87670  17.151  28.550  14.471
19330W        W87671  32.628  43.841   3.749
19331W        W87672  27.950  30.648   0.824
19332W        W87673  12.323  17.255   0.263
19333W        W87674  12.845  16.762  13.310
19334W        W87675  28.956  43.396  10.939
19335W        W87676  15.152  37.062  12.516
19336W        W87677  39.935   9.750  10.632
19337W        W87678  18.791  34.494   3.864
19338W        W87679   2.433  33.546  13.528
19339W        W87680  11.208  32.043  14.473
19340W        W87681  29.648  35.049  10.608
19341W        W87682  43.349   6.353   4.808
19342W        W87683  14.306  29.630  11.875
19343W        W87684  21.564  42.341  11.913
19344W        W87685   5.273   1.869   4.283
19345W        W87686  15.201  35.936   2.218
19346W        W87687   1.374  13.823  10.616
19347W        W87688  36.583  30.517  13.329
19348W        W87689  12.701  37.457   2.395
19349W        W87690   0.875  21.722   4.303
19350W        W87691  31.150   1.880  14.774
19351W        W87692   0.250  38.920  14.333
19352W        W87693   5.771  15.659  12.400
19353W        W87694  34.916  23.045  14.344
19354W        W87695  18.731   6.266   1.865
19355W        W87696  27.515  40.868   2.786
19356W        W87697  38.475  17.741  14.896
19357W        W87698  15.809  42.411  14.276
19358W        W87699  11.182   4.376   3.667
19359W        W87700   0.278  39.406   0.466
19360W        W87701  13.652   2.396   4.238
19361W        W87702  12.155  12.291  12.044
19362W        W87703  31.053  38.390  11.380
19363W        W87704  21.562  27.962  11.124
19364W        W87705  36.964   5.259  11.982
19365W        W87706  36.987  44.753   0.243
19366W        W87707  16.163  17.681  14.807
19367W        W87708  38.521  13.721   3.224
19368W        W87709  44.306  28.958   3.703
19369W        W87710  25.617  42.792  12.060
19370W        W87711  13.714  19.595  13.842
19371W        W87712  20.609   3.939   1.210
19372W        W87713  16.261  41.846  12.967
19373W        W87714   8.176  13.233  14.940
19374W        W87715  30.552  23.073  14.938
19375W        W87716   4.869  23.538  14.873
19376W        W87717   4.867   6.816   4.779
19377W        W87718  13.181   2.296   0.336
19378W        W87719  22.576  37.360  13.452
19379W        W87720  40.937   9.380  13.032
19380W        W87721  12.316  19.717   0.874
19381W        W87722   7.759  42.467   2.759
19382W        W87723   1.284   1.793   0.962
19383W        W87724  31.956  12.650   4.245
19384W        W87725   4.270  16.684  12.501
19385W        W87726   6.381  40.366  14.021
19386W        W87727  25.575  31.612   2.827
19387W        W87728  29.033  29.639   4.206
19388W        W87729  15.621   5.202  12.077
19389W        W87730   1.292  31.018   4.141
19390W        W87731  31.508  17.158  10.515
19391W        W87732  22.178  22.227   1.399
19392W        W87733   7.833   0.425   1.301
19393W        W87734  34.486  13.174  10.571
19394W        W87735  10.203   7.794  13.053
19395W        W87736  26.050   7.262  13.323
19396W        W87737   7.395  35.103  12.943
19397W        W87738  14.202   8.735   2.689
19398W        W87739   4.918  39.010  11.916
19399W        W87740  41.317  21.559  11.078
19400W        W87741   2.396   3.945   1.416
19401W        W87742   3.874  12.736  14.450
19402W        W87743  10.188  40.346  14.362
19403W        W87744  32.960  17.169   2.408
19404W        W87745  41.404  33.432  13.325
19405W        W87746  15.704  36.479   1.270
19406W        W87747  30.495   5.351   1.354
19407W        W87748  34.516  36.533   1.327
19408W        W87749  28.535   9.323   4.821
19409W        W87750   1.970  36.972   2.391
19410W        W87751  10.865  10.646   1.860
19411W        W87752  31.950   0.885  11.886
19412W        W87753  15.693  27.097  14.279
19413W        W87754  34.927  33.057   1.787
19414W        W87755  44.768   2.765  14.849
19415W        W87756  20.268  14.157  12.407
19416W        W87757  22.172  27.053  11.492
19417W        W87758  24.983  11.132   3.318
19418W        W87759  43.452  25.518  14.495
19419W        W87760  29.940   3.761  13.062
19420W        W87761   4.724  18.167   1.907
19421W        W87762  26.206  40.985  14.839
19422W        W87763   6.849  44.501   1.312
19423W        W87764  25.125  38.340   2.228
19424W        W87765  18.553   7.714   1.261
19425W        W87766   7.805  15.750  10.479
19426W        W87767  23.987  31.004   2.799
19427W        W87768   6.844  41.495  11.579
19428W        W87769   4.798  23.632  12.978
19429W        W87770  16.792  28.541   4.164
19430W        W87771  37.418  42.287  10.120
19431W        W87772  41.971  32.551   2.394
19432W        W87773  37.925  41.886   9.982
19433W        W87774  27.994  16.603  14.398
19434W        W87775  16.262   4.229  12.024
19435W        W87776  10.286   9.244   0.461
19436W        W87777  14.651  42.826   3.335
19437W        W87778   9.313   5.377   3.370
19438W        W87779   4.763   1.799   1.391
19439W        W87780  16.642  15.305   4.770
19440W        W87781  20.245  22.089   2.398
19441W        W87782  43.993   1.943   2.745
19442W        W87783  20.213  20.607   2.368
19443W        W87784  44.298  42.999   4.665
19444W        W87785  38.429  12.773  14.945
19445W        W87786  33.605   6.870   0.730
19446W        W87787  13.105  30.920  13.453
19447W        W87788  40.307  35.438  14.894
19448W        W87789   1.820  39.556  13.485
19449W        W87790  22.507  42.439  14.420
19450W        W87791  38.994  28.112   4.648
19451W        W87792  14.313  26.657   2.341
19452W        W87793  17.616   8.299   4.835
19453W        W87794  29.958  22.080   0.872
19454W        W87795   5.275  29.543   0.859
19455W        W87796  17.664  28.588  11.091
19456W        W87797  34.515  22.008   1.217
19457W        W87798   7.750   9.255  14.988
19458W        W87799  38.065  43.019  13.308
19459W        W87800  15.131   0.807  12.508
19460W        W87801  14.717   3.322   1.274
19461W        W87802  20.067  41.819  10.934
19462W        W87803  31.112  11.762  12.566
19463W        W87804  16.639  19.062   4.172
19464W        W87805  42.932  25.110   4.740
19465W        W87806  23.520  31.936  13.412
19466W        W87807  30.135   7.266  11.110
19467W        W87808  10.164   2.869  14.802
19468W        W87809  10.368  34.981  12.491
19469W        W87810   7.688  43.958   3.730
19470W        W87811   3.259  38.984   0.336
19471W        W87812  23.514  24.150  11.484
19472W        W87813  35.537  18.213  12.370
19473W        W87814   2.817  16.611   1.211
19474W        W87815  14.738   0.382   3.369
19475W        W87816  14.244   9.668   3.756
19476W        W87817  18.738  12.793  12.392
19477W        W87818  21.658   5.364   2.815
19478W        W87819  29.040  29.954   3.234
19479W        W87820   7.813   1.855  14.406
19480W        W87821  13.714   3.224   2.793
19481W        W87822  35.995  35.089  12.033
19482W        W87823  39.388  20.601  10.951
19483W        W87824  15.135  21.619   2.786
19484W        W87825  22.538  17.758   3.360
19485W        W87826  25.015  16.112  14.952
19486W        W87827  11.307   2.272  10.932
19487W        W87828   4.827  15.212  10.433
19488W        W87829  14.308  32.455  13.459
19489W        W87830  25.550  18.624   1.381
19490W        W87831  44.388  42.323   9.949
19491W        W87832  43.957   0.986  14.497
19492W        W87833   3.716   5.385   4.186
19493W        W87834   9.886  22.212   3.800
19494W        W87835  44.480  15.702   3.757
19495W        W87836  27.039  23.690  14.856
19496W        W87837  31.097  22.502  12.946
19497W        W87838  21.214  13.641   2.708
19498W        W87839  23.653  12.263  12.423
19499W        W87840   4.394  43.785   0.934
19500W        W87841  43.379  38.974  11.080
19501W        W87842  39.969  42.285   2.890
19502W        W87843  15.753  18.268  11.000
19503W        W87844  32.413   1.791  13.481
19504W        W87845   6.864  26.496   4.605
19505W        W87846  16.623  14.140   0.310
19506W        W87847  34.905   6.196  13.383
19507W        W87848   4.798  15.809   2.700
19508W        W87849  25.120  11.722   2.358
19509W        W87850  29.013  40.487  10.536
19510W        W87851  27.617  12.269   2.835
19511W        W87852   9.165  33.601   4.646
19512W        W87853  28.005  40.484  11.551
19513W        W87854   6.915  22.122  12.962
19514W        W87855  43.014  13.243   0.321
19515W        W87856   9.341  28.057   4.276
19516W        W87857  33.416  20.654  14.416
19517W        W87858  42.891  23.535  14.794
19518W        W87859  21.511  41.521  13.956
19519W        W87860  44.296  31.477   1.330
19520W        W87861  33.129  11.261   3.241
19521W        W87862  26.682  24.599  11.374
19522W        W87863  44.343  36.000   2.823
19523W        W87864  24.003  43.320   4.154
19524W        W87865  36.928  21.054  14.843
19525W        W87866  20.246  18.060   2.391
19526W        W87867  23.063   7.710   3.840
19527W        W87868  41.341  13.188  12.865
19528W        W87869   8.388  21.235   3.172
19529W        W87870  17.709  41.018   4.301
19530W        W87871   4.719  38.960  10.482
19531W        W87872  21.526  14.725  13.377
19532W        W87873   7.765  12.641   4.199
19533W        W87874  39.476  40.017   1.427
19534W        W87875  14.772   5.794   1.272
19535W        W87876  38.917  39.360  10.572
19536W        W87877   8.702   7.890  10.473
19537W        W87878  41.824  38.026   4.653
19538W        W87879  18.559  25.041  14.790
19539W        W87880  38.904  20.250  11.577
19540W        W87881  13.649  11.840   2.208
19541W        W87882  23.663  29.518   4.268
19542W        W87883  23.021  33.925  13.391
19543W        W87884   0.850  17.582   1.389
19544W        W87885  44.476   1.735   1.716
19545W        W87886   4.433  17.680  13.824
19546W        W87887  21.713   0.488   0.358
19547W        W87888   7.254  34.106  12.421
19548W        W87889  16.318   7.286   4.275
19549W        W87890  16.712   4.933  14.795
19550W        W87891  30.016  27.477   1.795
19551W        W87892  33.901  37.898   2.846
19552W        W87893   2.270  11.729  11.976
19553W        W87894  24.511  37.051  10.494
19554W        W87895  41.993  37.558  13.446
19555W        W87896  18.625  34.924   0.367
19556W        W87897  29.128   6.779  10.467
19557W        W87898  14.745  15.722   3.727
19558W        W87899  42.998  33.967   1.867
19559W        W87900  35.575  37.982  13.335
19560W        W87901   2.829   6.751  13.028
19561W        W87902   7.373  26.517   3.831
19562W        W87903  36.394  11.863   3.200
19563W        W87904  20.695  11.201  10.976
19564W        W87905   7.385   6.355   1.344
19565W        W87906  39.960  16.197   3.734
19566W        W87907  10.839  27.598   1.290
19567W        W87908  33.900   3.428  10.016
19568W        W87909   1.376  11.295   1.878
19569W        W87910  31.459  15.657   1.434
19570W        W87911  26.155  37.480  13.331
19571W        W87912  21.529  29.130  11.385
19572W        W87913  43.483  20.245  14.409
19573W        W87914  10.295  37.031   4.328
19574W        W87915  10.865  15.328  13.489
19575W        W87916   4.214   1.284   0.747
19576W        W87917  35.501  22.590   0.768
19577W        W87918  43.977  13.643   1.893
19578W        W87919  15.172  44.006  12.851
19579W        W87920  29.939  16.623  14.958
19580W        W87921  26.083  22.654   0.462
19581W        W87922  42.518   1.859   2.889
19582W        W87923  39.998  34.599   1.905
19583W        W87924   8.208  18.117   4.313
19584W        W87925  43.812  20.539  13.430
19585W        W87926  21.077   8.201   4.307
19586W        W87927  17.189  23.020  10.924
19587W        W87928  43.909   7.180   1.704
19588W        W87929  18.080  21.656   9.557
19589W        W87930   3.773   3.272   3.361
19590W        W87931   4.249   3.726   0.253
19591W        W87932  10.381  29.096  10.029
19592W        W87933   1.938  17.122   2.716
19593W        W87934  23.997  21.191   5.118
19594W        W87935  39.896  31.945   4.786
19595W        W87936   9.849  30.594   0.864
19596W        W87937  32.499   8.267   0.472
19597W        W87938  21.746  32.998  11.940
19598W        W87939   6.831  37.384  12.500
19599W        W87940  34.373   1.442  14.468
19600W        W87941   3.340  43.878   3.379
19601W        W87942  26.988  29.660  11.114
19602W        W87943   9.687   9.741  13.342
19603W        W87944   0.333   2.722   3.847
19604W        W87945   9.773  27.059  14.330
19605W        W87946  41.001  23.194  13.037
19606W        W87947  16.241  33.093   2.869
19607W        W87948  12.786  25.601   2.743
19608W        W87949  31.111  12.257  12.074
19609W        W87950  22.215   1.343  10.573
19610W        W87951  22.223  36.067  13.973
19611W        W87952  12.686   2.440   4.723
19612W        W87953  19.153  35.464   3.770
19613W        W87954  21.209  41.996   1.816
19614W        W87955  12.760   3.293  13.459
19615W        W87956  17.271  38.946   4.824
19616W        W87957  29.640  28.662   3.370
19617W        W87958  28.582  12.258   1.377
19618W        W87959  25.620  19.119  13.338
19619W        W87960  13.818  11.691  10.923
19620W        W87961  11.813  30.499  14.870
19621W        W87962  23.646  14.204  13.477
19622W        W87963   1.270  29.607   1.234
19623W        W87964   5.298  43.367   3.826
19624W        W87965  19.045  40.493  10.984
19625W        W87966  44.759  23.688  11.892
19626W        W87967  30.048  32.594   1.800
19627W        W87968   4.843  43.017   0.342
19628W        W87969   0.359  19.707  14.301
19629W        W87970  32.054  43.288   4.282
19630W        W87971  23.633   2.407  12.483
19631W        W87972  20.664   9.849  14.373
19632W        W87973  43.788  14.681  14.943
19633W        W87974  18.084   2.390  10.622
19634W        W87975  13.627  40.513   3.343
19635W        W87976  20.207  31.105  13.354
19636W        W87977  15.622  16.768  12.998
19637W        W87978   2.937  32.427   2.304
19638W        W87979  36.379  40.484  12.977
19639W        W87980  21.126  36.593  13.822
19640W        W87981  36.062  23.593  14.492
19641W        W87982  13.195  14.652   1.423
19642W        W87983  44.859  44.787   2.739
19643W        W87984  16.090  19.249   0.411
19644W        W87985   3.938   9.262  13.400
19645W        W87986  43.303  13.255  13.327
19646W        W87987  32.525  42.478   9.569
19647W        W87988  37.469  34.032  10.927
19648W        W87989  20.576   7.711  14.477
19649W        W87990  26.123  10.815  14.818
19650W        W87991  16.690  27.167  11.397
19651W        W87992   9.830  14.798  10.589
19652W        W87993  25.133  12.773   0.405
19653W        W87994  17.665  23.999   3.816
19654W        W87995   2.952  40.910  12.357
19655W        W87996   1.267  28.522   3.702
19656W        W87997  37.582  24.652  11.039
19657W        W87998  42.892  44.865   3.769
19658W        W87999  36.972  14.675   4.300
19659W        W88000   1.399  21.691  11.478
19660W        W88001  41.358   4.221   4.681
19661W        W88002  21.109   4.364  11.868
19662W        W88003  39.547  16.188  10.969
19663W        W88004   4.378  29.571  14.515
19664W        W88005  12.625  24.701   0.778
19665W        W88006  37.403  35.584  10.497
19666W        W88007  31.072  21.121   4.815
19667W        W88008  43.960  10.691  14.963
19668W        W88009  27.192  21.119  13.031
19669W        W88010  43.348  20.761   4.309
19670W        W88011   9.347  18.064   1.427
19671W        W88012  25.534  43.287  13.015
19672W        W88013  33.455  17.586   2.771
19673W        W88014  27.494  10.343   4.673
19674W        W88015  17.075  22.624   1.327
19675W        W88016  26.179  38.069   3.795
19676W        W88017   1.275  38.051  12.966
19677W        W88018  19.667  36.981  12.863
19678W        W88019  15.698  11.320   3.355
19679W        W88020   9.734  30.158   1.738
19680W        W88021  26.179  20.539  12.054
19681W        W88022  34.007  11.199   3.805
19682W        W88023  36.484  24.693   2.745
19683W        W88024  32.431  21.733  12.091
19684W        W88025  33.395  40.023  10.597
19685W        W88026  29.939   8.890   1.744
19686W        W88027  16.798  33.468  13.905
19687W        W88028  15.086  32.931  11.062
19688W        W88029  33.435  27.499  12.548
19689W        W88030  28.944   3.852   3.861
19690W        W88031  18.566  27.638  14.895
19691W        W88032  31.467   5.243   1.931
19692W        W88033  33.959  43.289  11.442
19693W        W88034  16.278  44.942   2.232
19694W        W88035  24.637  21.179   3.363
19695W        W88036  28.021  30.975   4.304
19696W        W88037   3.750  17.686  11.971
19697W        W88038  32.078  21.619  14.458
19698W        W88039   9.736  35.597  10.521
19699W        W88040  24.486  35.431   2.252
19700W        W88041  43.443  11.703   0.836
19701W        W88042  23.493  14.272  14.838
19702W        W88043  35.881  11.339   4.818
19703W        W88044  10.770  30.982   0.735
19704W        W88045  17.801   8.301   1.251
19705W        W88046  42.446   5.763  10.641
19706W        W88047  13.655  43.446  12.066
19707W        W88048  27.488   5.896   0.307
19708W        W88049  23.591  24.981   3.811
19709W        W88050  35.900  43.882  12.882
19710W        W88051  24.161  22.598   0.791
19711W        W88052   6.830  12.652   4.252
19712W        W88053  25.083  18.163   0.820
19713W        W88054  19.693  34.934   3.167
19714W        W88055  41.038  35.050  13.485
19715W        W88056  38.458   7.372  11.045
19716W        W88057  27.099   1.905   2.180
19717W        W88058  26.024  42.312  12.402
19718W        W88059   4.383  10.779   3.197
19719W        W88060  26.987  36.069   2.796
19720W        W88061  27.131  23.200  14.989
19721W        W88062  21.033  18.191   3.284
19722W        W88063  25.083  11.302   4.721
19723W        W88064  35.885  31.989  12.502
19724W        W88065  27.462   2.275  12.908
19725W        W88066  39.484  36.514   3.704
19726W        W88067   4.929   5.812   0.252
19727W        W88068  43.847   3.917  14.871
19728W        W88069  30.522  27.032  13.045
19729W        W88070  34.094   3.301   4.668
19730W        W88071   5.689  18.704  11.892
19731W        W88072  40.802  35.033  13.824
19732W        W88073  40.880  15.783  14.870
19733W        W88074  20.251  11.340   3.771
19734W        W88075  15.807  44.377  11.507
19735W        W88076   2.935   8.162  10.501
19736W        W88077  35.946  13.630  12.424
19737W        W88078  26.497  38.943  14.764
19738W        W88079  25.145  16.700  11.008
19739W        W88080  19.588  21.534  11.998
19740W        W88081  23.171   2.773   2.682
19741W        W88082  37.569  18.661   5.229
19742W        W88083  18.061  41.840   0.254
19743W        W88084  25.672  17.151   4.791
19744W        W88085   1.268  33.998  12.971
19745W        W88086  35.410  44.757  12.498
19746W        W88087  36.518   2.780   0.869
19747W        W88088  29.009  28.533   1.305
19748W        W88089  31.456  42.519  12.504
19749W        W88090   1.335  17.602   2.804
19750W        W88091  42.846  14.134  10.993
19751W        W88092  38.937  21.078   4.140
19752W        W88093   0.938  11.208  10.535
19753W        W88094  38.057  38.047  10.473
19754W        W88095  13.652  37.943   3.660
19755W        W88096  24.188   4.297  10.417
19756W        W88097  21.227  18.692   1.805
19757W        W88098  10.824   3.734  11.016
19758W        W88099   2.469   4.276   4.758
19759W        W88100  31.452   4.358   3.160
19760W        W88101   3.257  12.841  11.978
19761W        W88102   7.789  20.571   0.393
19762W        W88103  32.123  41.955  13.320
19763W        W88104  33.052  16.755  11.503
19764W        W88105  42.917  26.071   3.701
19765W        W88106  11.240   1.758   2.686
19766W        W88107  33.884  12.293  14.298
19767W        W88108  32.125  22.133   4.276
19768W        W88109  34.455   1.477   4.736
19769W        W88110  10.768  14.211  14.291
19770W        W88111  36.959   8.807   0.860
19771W        W88112   3.812  29.482  14.013
19772W        W88113   1.751  32.551  10.413
19773W        W88114  40.304   2.864  14.396
19774W        W88115  26.677  30.129  10.957
19775W        W88116  34.502  24.986  13.487
19776W        W88117   0.925  35.924   2.229
19777W        W88118  24.541  10.735   2.276
19778W        W88119  16.688  15.097  13.315
19779W        W88120  25.584  15.623  12.909
19780W        W88121  40.001   7.185   2.416
19781W        W88122  15.604  24.536   2.246
19782W        W88123  40.924  15.621  13.448
19783W        W88124   5.233  37.846   2.269
19784W        W88125  30.600  31.480   2.316
19785W        W88126  28.116  28.013  14.947
19786W        W88127  35.920  25.003   2.382
19787W        W88128  43.003  16.114   3.210
19788W        W88129  26.020  17.216   4.139
19789W        W88130  39.919   8.195   2.388
19790W        W88131  12.833   3.914   1.295
19791W        W88132  37.832  29.084   0.272
19792W        W88133  43.021   2.351   1.771
19793W        W88134  26.148   0.831  12.422
19794W        W88135   9.312  29.506  11.425
19795W        W88136  13.308  14.227   3.842
19796W        W88137  41.495  29.590  14.319
19797W        W88138  41.865   8.368  13.474
19798W        W88139  27.028   3.880   3.307
19799W        W88140  14.787  37.866   2.412
19800W        W88141  39.902  17.173  11.989
19801W        W88142  41.432  19.691  11.371
19802W        W88143  10.176  31.620   4.245
19803W        W88144  32.618  22.728  13.476
19804W        W88145  29.148  32.094  13.879
19805W        W88146  22.563   0.777   2.336
19806W        W88147  41.990  21.148  10.011
19807W        W88148  19.238   8.322  10.998
19808W        W88149  18.705  11.369  14.895
19809W        W88150  14.826  12.301  13.883
19810W        W88151  37.915  16.776   4.731
19811W        W88152  21.122   3.768   5.237
19812W        W88153  36.935  26.551  14.909
19813W        W88154  27.083  35.417   2.238
19814W        W88155   0.749  22.505  14.950
19815W        W88156  39.875  36.358  11.574
19816W        W88157  33.479   8.345   1.312
19817W        W88158  26.100   2.357   3.668
19818W        W88159   9.191  22.640  13.047
19819W        W88160  11.362  25.663   0.821
19820W        W88161   0.796  36.522  14.828
19821W        W88162  41.469   6.346   0.433
19822W        W88163   9.712   5.193   1.293
19823W        W88164  33.527   4.274  12.541
19824W        W88165  16.696  22.232   1.423
19825W        W88166  33.961  13.141  14.835
19826W        W88167   0.834   6.780   1.712
19827W        W88168  43.390  37.367   1.696
19828W        W88169   8.246  36.367  14.403
19829W        W88170  43.940  33.997   1.895
19830W        W88171  21.139  20.139  14.965
19831W        W88172   9.222  32.543   3.724
19832W        W88173  34.588   9.303  13.801
19833W        W88174  39.997  39.481  11.585
19834W        W88175  33.614  19.197  13.400
19835W        W88176   3.371  39.914   2.892
19836W        W88177  39.400  17.066  14.986
19837W        W88178  22.550  32.547  14.340
19838W        W88179  40.958  33.991   1.376
19839W        W88180  22.669  41.350  13.466
19840W        W88181  28.567   2.437   0.894
19841W        W88182  30.496  28.110  12.344
19842W        W88183   9.872   8.287  14.982
19843W        W88184  13.258  40.307  13.492
19844W        W88185  44.415   0.347  10.533
19845W        W88186   6.427  39.390   0.332
19846W        W88187  34.947  28.947   3.273
19847W        W88188  21.033  38.938   5.212
19848W        W88189   8.886  12.341  12.000
19849W        W88190   1.920  26.519   2.719
19850W        W88191  27.453  31.500   3.753
19851W        W88192   2.895  15.608  11.587
19852W        W88193  19.642  38.903   4.779
19853W        W88194  10.157  19.253   2.276
19854W        W88195  21.044   0.300  12.847
19855W        W88196   1.297  42.417   0.275
19856W        W88197  18.719  33.963  12.476
19857W        W88198  32.926   7.398   3.186
19858W        W88199   8.785  37.527   1.394
19859W        W88200   0.435  35.480  14.453
19860W        W88201   1.802  13.338  10.621
19861W        W88202   0.470  15.251   2.810
19862W        W88203  25.982   5.334  13.456
19863W        W88204  18.634  44.483  11.978
19864W        W88205  37.929  41.519   0.315
19865W        W88206  17.641   4.422   2.734
19866W        W88207  11.273   7.259  11.565
19867W        W88208   8.399  31.034   4.270
19868W        W88209  29.001  26.596   2.212
19869W        W88210  31.527  26.531  13.406
19870W        W88211  34.460  41.851   5.119
19871W        W88212  21.605  41.466   1.766
19872W        W88213  38.041  43.006   0.270
19873W        W88214  33.556  11.127  10.912
19874W        W88215  11.338  23.034  13.012
19875W        W88216  43.498   9.775  10.528
19876W        W88217   0.983  38.048   0.347
19877W        W88218  38.004   6.224   3.213
19878W        W88219  44.754  13.307  14.774
19879W        W88220  21.134   0.315   4.144
19880W        W88221  13.817  30.588  14.824
19881W        W88222  37.523  35.535  11.026
19882W        W88223   1.965  36.480  12.341
19883W        W88224   9.763  39.414  14.904
19884W        W88225  43.406   6.288  14.395
19885W        W88226   3.791  41.035  12.856
19886W        W88227  25.522  38.538   2.375
19887W        W88228   2.262   3.224  10.040
19888W        W88229  41.471  18.567  12.094
19889W        W88230   7.305  15.301   1.861
19890W        W88231   7.308  34.927   4.672
19891W        W88232  10.265  10.325  12.412
19892W        W88233  12.131  43.442  11.082
19893W        W88234  16.736   0.493   3.267
19894W        W88235  30.143  19.664   5.126
19895W        W88236  11.743  18.140  10.068
19896W        W88237  38.467  38.892  13.827
19897W        W88238  43.775   5.207   4.808
19898W        W88239  40.444  44.296   2.887
19899W        W88240  14.275  38.024  14.779
19900W        W88241   5.845  13.148  13.057
19901W        W88242  32.975  40.528  12.870
19902W        W88243  14.282  17.129  14.851
19903W        W88244  16.139  31.535  12.041
19904W        W88245  12.295  27.453  13.373
19905W        W88246   4.368  23.732  14.896
19906W        W88247  12.619  28.644   3.307
19907W        W88248  23.604   6.412  14.863
19908W        W88249  15.105  28.456  13.369
19909W        W88250   2.841   3.886   0.269
19910W        W88251  10.704   7.863   3.377
19911W        W88252  24.181  10.297   4.620
19912W        W88253  13.668   5.864   4.156
19913W        W88254  38.904  15.798  12.467
19914W        W88255  16.799  18.135   2.363
19915W        W88256  14.261  21.568   4.717
19916W        W88257  29.521  22.730   1.893
19917W        W88258  22.674  34.381  12.964
19918W        W88259  22.663  43.018   2.674
19919W        W88260   2.964   1.785  14.014
19920W        W88261   1.819  27.546   1.442
19921W        W88262  30.465  39.927  11.492
19922W        W88263  44.960  23.236  11.998
19923W        W88264  24.697  43.886   2.898
19924W        W88265  24.078  19.745  13.060
19925W        W88266  26.573   2.433  14.939
19926W        W88267   5.193  39.536  11.957
19927W        W88268  38.519  42.878  14.374
19928W        W88269  26.684  15.654  11.584
19929W        W88270  34.087  12.202   1.707
19930W        W88271  24.644  44.484  13.902
19931W        W88272  22.643  24.704   0.252
19932W        W88273  27.060   1.911  10.632
19933W        W88274   9.768  25.111  13.390
19934W        W88275  33.533  16.722  12.001
19935W        W88276  16.735  10.239   4.326
19936W        W88277  37.999  23.097  11.571
19937W        W88278   7.343  12.170  10.621
19938W        W88279   4.874   8.698   1.265
19939W        W88280  12.280  40.526  10.468
19940W        W88281  35.496  12.241   3.262
19941W        W88282  38.048  13.614  11.399
19942W        W88283  17.647  17.723   1.776
19943W        W88284   3.327  38.414   3.322
19944W        W88285  28.449   8.183  10.979
19945W        W88286  42.939   6.721   4.780
19946W        W88287   2.870  40.506  14.400
19947W        W88288   0.956  23.719   2.839
19948W        W88289  12.705  32.954   3.183
19949W        W88290  33.533   1.392   3.650
19950W        W88291  30.417  44.351  10.488
19951W        W88292   3.352  18.233  13.032
19952W        W88293   0.278   9.738   4.260
19953W        W88294  26.652  25.475   1.263
19954W        W88295  22.692  32.492  13.873
19955W        W88296  17.772   0.290  13.003
19956W        W88297  14.795  14.207   0.419
19957W        W88298  20.096   7.674   3.157
19958W        W88299  39.933  14.249  12.014
19959W        W88300  27.994  10.312  13.846
19960W        W88301   1.253  39.060   0.779
19961W        W88302  11.358   6.865  12.955
19962W        W88303  22.102   7.682  14.403
19963W        W88304  27.170  17.113  11.057
19964W        W88305  42.983  13.693  12.418
19965W        W88306  21.076  14.267  14.354
19966W        W88307   2.907  34.424   3.771
19967W        W88308  12.334  26.121   2.239
19968W        W88309  15.708   2.469  11.542
19969W        W88310  10.213  10.844   4.774
19970W        W88311  12.633  14.161   2.375
19971W        W88312  16.092   3.379   2.755
19972W        W88313  15.209  21.131  12.353
19973W        W88314  28.033   7.729  13.820
19974W        W88315  26.135   1.335   3.172
19975W        W88316  31.013  18.150  13.957
19976W        W88317  15.268  41.980   3.200
19977W        W88318   3.235  18.701  13.859
19978W        W88319  27.100   7.868  14.505
19979W        W88320  11.214  35.475   1.262
19980W        W88321  43.425  35.576   2.263
19981W        W88322  35.978  25.193   1.416
19982W        W88323  33.956  40.951  10.557
19983W        W88324  41.421  18.594   2.765
19984W        W88325  41.959   8.277   0.397
19985W        W88326  39.000  26.486   4.343
19986W        W88327  25.971  37.071   1.411
19987W        W88328  18.098  36.472   3.812
19988W        W88329  36.351  19.179   1.242
19989W        W88330   5.258   0.818   1.906
19990W        W88331  40.031   5.827  11.466
19991W        W88332   0.803  25.698  12.438
19992W        W88333  40.918  23.593  13.525
19993W        W88334   7.866  16.649  12.960
19994W        W88335  10.145  33.623   0.822
19995W        W88336  33.096  13.275   4.302
19996W        W88337  12.273  13.630   4.338
19997W        W88338  24.553  38.827   1.447
19998W        W88339  10.164  28.934  10.950
19999W        W88340  24.069   0.861   0.904
20000W        W88341  22.746  40.875   0.951
20001W        W88342  21.633  39.319   1.399
20002W        W88343   8.233  43.902   1.775
20003W        W88344  40.493   0.765  12.975
20004W        W88345  44.458  41.981   5.185
20005W        W88346  15.724  32.906   2.232
20006W        W88347  39.494  26.646   4.644
20007W        W88348   1.243  34.450   3.767
20008W        W88349  38.350   4.896   0.397
20009W        W88350  36.067  41.885  10.464
20010W        W88351  37.080  43.771  14.785
20011W        W88352   6.389   9.890   4.632
20012W        W88353  37.959  21.649  13.541
20013W        W88354  24.513  26.480   5.578
20014W        W88355  33.421   8.249  14.993
20015W        W88356  43.970  12.622  14.395
20016W        W88357   0.353  18.159   4.113
20017W        W88358  41.816  26.533   3.236
20018W        W88359  40.812  42.979  12.016
20019W        W88360  25.111  29.525  14.874
20020W        W88361  12.767  16.201  14.293
20021W        W88362  27.679  24.125   4.339
20022W        W88363   4.407  35.577  13.806
20023W        W88364   0.912  18.753   1.393
20024W        W88365  33.424  34.104  13.912
20025W        W88366   8.245  20.244   0.793
20026W        W88367   9.307  33.459  12.491
20027W        W88368  30.422  21.205  13.322
20028W        W88369   8.715   5.282  13.344
20029W        W88370  34.596  39.430   5.630
20030W        W88371  37.946   3.394  14.397
20031W        W88372   1.739   2.300  11.932
20032W        W88373  44.937  31.558   1.880
20033W        W88374  26.082  20.684   1.367
20034W        W88375  19.235  18.637   1.437
20035W        W88376  26.992  15.764  13.522
20036W        W88377   3.732  20.526   0.272
20037W        W88378  16.188  44.320   2.239
20038W        W88379  22.212   9.868  12.969
20039W        W88380   0.949  28.604  11.603
20040W        W88381  25.684  14.809  14.972
20041W        W88382  30.613  11.702  13.792
20042W        W88383  20.169  14.140   0.407
20043W        W88384  26.681  10.160   4.208
20044W        W88385  42.417  37.955   3.233
20045W        W88386  23.673  43.964   1.261
20046W        W88387   7.247  30.916  13.521
20047W        W88388  15.769  38.470  13.396
20048W        W88389   6.198  31.982   1.358
20049W        W88390  26.196  11.355   1.726
20050W        W88391   5.222  41.310  10.983
20051W        W88392  31.006  37.488   3.252
20052W        W88393  29.633  20.579   1.348
20053W        W88394  17.194  20.752  10.966
20054W        W88395  33.022  27.637   4.310
20055W        W88396  15.105  44.476  14.301
20056W        W88397  44.929  28.026  13.308
20057W        W88398  20.051   8.234   4.235
20058W        W88399  42.900  41.311   1.823
20059W        W88400  37.866  42.935   4.171
20060W        W88401  39.037  16.214  14.407
20061W        W88402  18.130  24.693   2.668
20062W        W88403  12.625   4.760   4.792
20063W        W88404   8.358  44.993  12.886
20064W        W88405  17.774  24.703  11.024
20065W        W88406   1.743  21.082  10.539
20066W        W88407  24.122  17.583  14.398
20067W        W88408  26.058   9.697   4.234
20068W        W88409  43.441  26.037   0.841
20069W        W88410  11.357  34.548   2.816
20070W        W88411  43.949   3.910   0.923
20071W        W88412  12.137  40.311  11.967
20072W        W88413  39.352   4.248  11.437
20073W        W88414   2.828  19.589   2.727
20074W        W88415  19.173  35.491  14.414
20075W        W88416  35.460  26.974  11.548
20076W        W88417  15.225  40.395   2.717
20077W        W88418  27.964  28.946   0.433
20078W        W88419  27.558  16.104   4.758
20079W        W88420   4.732  11.748   0.959
20080W        W88421  44.965  43.437   1.281
20081W        W88422  38.474  31.601   2.778
20082W        W88423  31.989  37.846  12.993
20083W        W88424  15.646  27.154   4.141
20084W        W88425  14.122   3.247  12.366
20085W        W88426  32.138  20.223  12.987
20086W        W88427  36.978  26.636  13.063
20087W        W88428  31.149  44.829   4.188
20088W        W88429   7.808  15.145   3.719
20089W        W88430  39.433  30.985   0.385
20090W        W88431  26.977  19.248   3.170
20091W        W88432  26.128  10.744   0.781
20092W        W88433  26.493  29.619   1.395
20093W        W88434   6.229  18.246   3.753
20094W        W88435  42.805  36.879  13.868
20095W        W88436  26.600   8.319  11.503
20096W        W88437  17.630   6.874  13.012
20097W        W88438  40.034  10.184   2.204
20098W        W88439  14.742  27.589   4.701
20099W        W88440  36.920  11.718   1.726
20100W        W88441   4.448  40.988   2.858
20101W        W88442   1.362  19.700   2.725
20102W        W88443  44.841  42.923  13.429
20103W        W88444  15.086   8.829  10.571
20104W        W88445  26.567  32.978  14.858
20105W        W88446   4.783  22.586  14.991
20106W        W88447  25.472  10.865   1.780
20107W        W88448  12.659  14.204  10.970
20108W        W88449   5.795  10.641  13.362
20109W        W88450  12.293  11.238   4.293
20110W        W88451  36.008  11.175   4.173
20111W        W88452  24.538   9.778   4.600
20112W        W88453   0.435  18.774   0.769
20113W        W88454  35.531  39.397  13.324
20114W        W88455  25.152  32.100  13.542
20115W        W88456  18.284  44.481  12.066
20116W        W88457  38.000   0.455  11.453
20117W        W88458   4.286  41.830  13.483
20118W        W88459   5.352  41.318   0.731
20119W        W88460   2.891  38.894   4.789
20120W        W88461   1.731  44.314   1.405
20121W        W88462  29.069  23.695   1.315
20122W        W88463   6.429  31.950   3.203
20123W        W88464  18.177  14.727  13.956
20124W        W88465  18.684  41.032   1.846
20125W        W88466   2.314  11.195   0.843
20126W        W88467   9.203   4.853  11.927
20127W        W88468   8.271  18.156   2.856
20128W        W88469  44.995  44.447  10.959
20129W        W88470   6.755   5.762   1.285
20130W        W88471  42.025  35.066   1.256
20131W        W88472  29.456  11.639  10.414
20132W        W88473  14.633  34.025  13.342
20133W        W88474  12.359  11.652   9.465
20134W        W88475  36.072  31.516  12.469
20135W        W88476  10.821  34.485  12.368
20136W        W88477  29.069  44.808  11.564
20137W        W88478  29.932  21.100  12.893
20138W        W88479  36.933  10.683   1.788
20139W        W88480  28.527  36.348  13.516
20140W        W88481  32.988  10.348  11.981
20141W        W88482  21.717  14.191  14.773
20142W        W88483  15.210  41.513   0.824
20143W        W88484   6.355  40.933   2.813
20144W        W88485   7.898  22.639   0.394
20145W        W88486  38.847   0.865   3.777
20146W        W88487  41.493  12.745  13.012
20147W        W88488  18.246  42.846  14.439
20148W        W88489  35.423   7.691   4.269
20149W        W88490  25.158  28.539   0.847
20150W        W88491   8.661  16.089   1.371
20151W        W88492   4.934   4.730  13.948
20152W        W88493  42.964  23.566  12.350
20153W        W88494  18.779  34.506  11.495
20154W        W88495  43.501  31.938   3.677
20155W        W88496  24.169   0.328  10.527
20156W        W88497  20.266  11.280  14.925
20157W        W88498  23.642  34.611   3.695
20158W        W88499  20.696  29.089  11.118
20159W        W88500  14.219  21.084   4.165
20160W        W88501  20.213  10.159   4.137
20161W        W88502  32.887  20.571   2.812
20162W        W88503  40.961  15.689  10.639
20163W        W88504  22.038   4.429   4.152
20164W        W88505  27.176  25.025   5.093
20165W        W88506  34.954  23.092  14.935
20166W        W88507  43.919  18.077   2.746
20167W        W88508  44.466   3.314   2.270
20168W        W88509  26.195   6.352   3.794
20169W        W88510  44.770  18.069  12.522
20170W        W88511  14.271  28.570   3.159
20171W        W88512  39.468  36.001   2.371
20172W        W88513  29.531   2.346   1.343
20173W        W88514   4.834  42.025   4.213
20174W        W88515  32.908  30.437  14.923
20175W        W88516  33.548  14.187   1.305
20176W        W88517  44.351  29.121  12.510
20177W        W88518  43.281  41.366  13.408
20178W        W88519   6.317  40.884  11.552
20179W        W88520   8.659  12.696  12.382
20180W        W88521  29.469  37.993  11.988
20181W        W88522   8.718   4.939  13.834
20182W        W88523  27.463  13.702  12.415
20183W        W88524  44.336   6.422   0.425
20184W        W88525  35.014   3.438   4.260
20185W        W88526   9.237  28.981   2.268
20186W        W88527  25.689  38.385  14.970
20187W        W88528   4.801  13.161  13.363
20188W        W88529  35.399  22.601  12.390
20189W        W88530   3.270   5.250   2.263
20190W        W88531   9.851  10.195  13.433
20191W        W88532  15.227  27.682  10.934
20192W        W88533  31.605   9.201   4.693
20193W        W88534   3.861  24.162   2.731
20194W        W88535  43.885  41.879   4.207
20195W        W88536  16.181  44.305  12.373
20196W        W88537  39.046  12.138  12.507
20197W        W88538  29.965  21.737  11.020
20198W        W88539  34.002  35.502  14.339
20199W        W88540  32.924  32.946  10.626
20200W        W88541  42.809  34.014  12.896
20201W        W88542  29.628  31.535  11.102
20202W        W88543  34.573  25.543   2.714
20203W        W88544   4.332  37.428   5.087
20204W        W88545   7.886  18.611  14.991
20205W        W88546  14.111   0.948   0.782
20206W        W88547  40.517  20.253  11.557
20207W        W88548  26.669  12.302  14.956
20208W        W88549  33.566  35.432  11.601
20209W        W88550   0.762  14.787   0.477
20210W        W88551  15.218   6.229   0.842
20211W        W88552  41.903   2.803   4.283
20212W        W88553  25.080  19.249  12.030
20213W        W88554  12.218  44.366   4.228
20214W        W88555  12.275   0.320   4.626
20215W        W88556  18.116  14.656  10.964
20216W        W88557  27.465  25.997   0.936
20217W        W88558  24.598  42.516  13.874
20218W        W88559  20.572  43.920  10.490
20219W        W88560   2.803  19.770  14.928
20220W        W88561  19.541  29.556  14.301
20221W        W88562   7.842  41.000  11.400
20222W        W88563   1.780  14.590  11.014
20223W        W88564  39.916  20.734  11.921
20224W        W88565   2.346  38.007   1.828
20225W        W88566  43.337  40.308   4.691
20226W        W88567  20.205  32.009   4.806
20227W        W88568  39.003  35.893   1.713
20228W        W88569  28.934  42.964   0.272
20229W        W88570   2.935  36.388   2.679
20230W        W88571  35.500  35.089  14.009
20231W        W88572  10.335  28.981  14.496
20232W        W88573   1.734  38.869  14.913
20233W        W88574  32.090  15.205  11.385
20234W        W88575  34.567   4.819   0.452
20235W        W88576  27.962   4.894  14.397
20236W        W88577  15.132  43.350   2.407
20237W        W88578  33.444  24.137   0.735
20238W        W88579  32.583  44.822  13.375
20239W        W88580  34.504  43.983   3.775
20240W        W88581   6.386  12.220   0.857
20241W        W88582  11.662  14.227   5.307
20242W        W88583  30.103  26.999  12.897
20243W        W88584  27.039  39.481  14.031
20244W        W88585  29.110  20.097   2.688
20245W        W88586  36.930   7.877   1.764
20246W        W88587  23.595   0.934   0.853
20247W        W88588  29.645  41.455  14.359
20248W        W88589  11.811  29.606   3.806
20249W        W88590  24.060  27.563  11.886
20250W        W88591   7.772  18.187   3.737
20251W        W88592  14.245  32.528  13.923
20252W        W88593   3.395   8.703  11.065
20253W        W88594  11.338  15.612  14.942
20254W        W88595   9.768  40.436  12.907
20255W        W88596  19.095  25.506  14.800
20256W        W88597  44.809  42.982  11.444
20257W        W88598  41.043   1.390   1.246
20258W        W88599  14.299  20.683   2.275
20259W        W88600  11.199  37.356   3.723
20260W        W88601  26.071  29.970   3.812
20261W        W88602  30.514  33.893   0.777
20262W        W88603  31.500  18.619  10.645
20263W        W88604  16.667   2.265   1.929
20264W        W88605  24.027  29.013  11.440
20265W        W88606  40.457  20.683   0.926
20266W        W88607  39.419  28.128  12.367
20267W        W88608   8.817  32.954   0.793
20268W        W88609  30.641  22.699  10.557
20269W        W88610   8.197   7.835   1.803
20270W        W88611  13.609   1.435  12.872
20271W        W88612  37.029   3.759   1.276
20272W        W88613  37.918  19.261  12.538
20273W        W88614   8.819  12.228  12.441
20274W        W88615  31.938  11.765  10.500
20275W        W88616   8.896  26.689   1.329
20276W        W88617  29.617  15.661  13.023
20277W        W88618  39.479  33.400   1.312
20278W        W88619  19.236  11.641  11.997
20279W        W88620  23.149   5.903   2.878
20280W        W88621  42.007  15.298  12.868
20281W        W88622  30.095  29.503   4.138
20282W        W88623   3.747  18.171   4.743
20283W        W88624   4.863   6.736  13.509
20284W        W88625  22.519   3.831  14.508
20285W        W88626   2.932  44.316  10.607
20286W        W88627  19.598   6.186  12.506
20287W        W88628   2.919  35.372  11.490
20288W        W88629  28.118  39.869   1.787
20289W        W88630   3.315  42.856  14.765
20290W        W88631  37.568  28.577  11.609
20291W        W88632  39.062  23.666  13.034
20292W        W88633   3.436  35.045  12.408
20293W        W88634  36.936  17.082   3.374
20294W        W88635  44.884   5.421  12.358
20295W        W88636  30.097  31.936   0.251
20296W        W88637   4.740  44.886  12.903
20297W        W88638   4.280  30.022  12.852
20298W        W88639  43.861  23.538  11.571
20299W        W88640  26.070  36.894   4.347
20300W        W88641  36.347   8.879  12.555
20301W        W88642  12.623  34.443  13.363
20302W        W88643  35.427  41.471  13.042
20303W        W88644   8.752  17.754  11.988
20304W        W88645  25.018  15.165   4.653
20305W        W88646  10.349  12.744  11.530
20306W        W88647   5.262  23.687  12.447
20307W        W88648  18.673  42.474   4.344
20308W        W88649  31.055  27.975   4.702
20309W        W88650   4.427  14.717   2.759
20310W        W88651  43.305  38.016   3.805
20311W        W88652  39.930  19.578  11.427
20312W        W88653  33.044  41.841   3.153
20313W        W88654  21.664  42.304   2.669
20314W        W88655  21.133  23.542   4.317
20315W        W88656   4.803  11.743   4.303
20316W        W88657  11.264  17.079  11.581
20317W        W88658  22.537  24.180  10.591
20318W        W88659   3.711  24.490   2.670
20319W        W88660  37.043  34.498  14.304
20320W        W88661   1.304  14.797  13.383
20321W        W88662   0.464  26.088   3.290
20322W        W88663  16.587  31.421   0.955
20323W        W88664   4.709  43.431  11.885
20324W        W88665  20.096  43.378   3.804
20325W        W88666  38.459  22.101   1.368
20326W        W88667  36.971  34.471   2.241
20327W        W88668   7.363  40.513   4.255
20328W        W88669  32.034  10.778   2.665
20329W        W88670  27.124  41.482   0.910
20330W        W88671  16.180  32.491   4.276
20331W        W88672  34.412  43.484   1.701
20332W        W88673  30.075  28.602   2.825
20333W        W88674  38.951  36.897  12.001
20334W        W88675  15.705   2.952   4.130
20335W        W88676  13.739   6.909  12.461
20336W        W88677  23.224  22.128   0.244
20337W        W88678  33.986  36.071   0.312
20338W        W88679  30.621  20.178  11.098
20339W        W88680  30.621  32.112  12.076
20340W        W88681   0.310  22.729   4.126
20341W        W88682  21.533   0.900  14.275
20342W        W88683   1.773  10.201   3.707
20343W        W88684  14.714   2.410   0.288
20344W        W88685   9.169  10.195  10.026
20345W        W88686  11.296  42.031   2.205
20346W        W88687  38.004  42.790   3.678
20347W        W88688  44.849  14.603   2.337
20348W        W88689   7.245   7.724   2.868
20349W        W88690   7.326  19.277   1.336
20350W        W88691  19.778  13.736  13.822
20351W        W88692  11.696  13.321  11.493
20352W        W88693  38.557  31.538   0.945
20353W        W88694  36.387   6.409  13.957
20354W        W88695   2.339  21.752   3.271
20355W        W88696  32.623  25.017   0.415
20356W        W88697  13.182  26.972   1.250
20357W        W88698  40.349  14.794  13.506
20358W        W88699   5.221  31.408  12.892
20359W        W88700   3.422   2.414  13.854
20360W        W88701   3.337   9.803  13.851
20361W        W88702  33.574  13.330  11.460
20362W        W88703   7.359  41.828  13.872
20363W        W88704   2.326  34.394  10.583
20364W        W88705   6.687  25.030   3.304
20365W        W88706  24.700   3.760  11.958
20366W        W88707  14.247  16.735  10.493
20367W        W88708  31.535   8.234  11.516
20368W        W88709  29.988  25.104   3.274
20369W        W88710  39.911  11.167   2.348
20370W        W88711  25.047  15.808   3.310
20371W        W88712  27.003  11.628  13.051
20372W        W88713   3.421  40.372  10.541
20373W        W88714   0.268   6.782  14.881
20374W        W88715  36.347  17.647   1.924
20375W        W88716  42.028  26.661  12.380
20376W        W88717  13.752  18.213  13.487
20377W        W88718  23.062  26.534  13.389
20378W        W88719  33.506  31.445  13.836
20379W        W88720  12.746  22.135  12.906
20380W        W88721   7.907   1.360   0.775
20381W        W88722  42.855  15.204   0.785
20382W        W88723   1.905  36.979   2.758
20383W        W88724  10.140  23.142   4.337
20384W        W88725   2.916   1.359   1.368
20385W        W88726  44.375  43.300   0.727
20386W        W88727  24.086   8.660   3.861
20387W        W88728   3.740  42.371   3.836
20388W        W88729  34.576  12.183  11.998
20389W        W88730  10.708  13.619   3.773
20390W        W88731  30.039  34.499   3.754
20391W        W88732  22.586  38.937  11.482
20392W        W88733  40.367  24.691  10.459
20393W        W88734  19.051  18.669  14.835
20394W        W88735  35.000   0.885  14.378
20395W        W88736  28.101   4.791  13.473
20396W        W88737   2.728  22.121   1.440
20397W        W88738  30.138  13.131  14.933
20398W        W88739  23.190  27.584  14.785
20399W        W88740   3.305   8.711  10.413
20400W        W88741   8.369  34.934  13.472
20401W        W88742  30.452  11.770  10.913
20402W        W88743   9.806   5.815   1.814
20403W        W88744  15.260  24.998   2.696
20404W        W88745  18.665  27.082  12.364
20405W        W88746  43.358  28.540   2.388
20406W        W88747  37.555  32.024   2.772
20407W        W88748  34.889  36.052  11.495
20408W        W88749  41.354  35.564  13.808
20409W        W88750  39.848  20.754  13.312
20410W        W88751  20.689   4.329  13.353
20411W        W88752  44.297   5.931   0.845
20412W        W88753  29.075  20.204  11.906
20413W        W88754  13.798  44.426  14.461
20414W        W88755  31.992  25.530  13.805
20415W        W88756  42.895  25.584  14.997
20416W        W88757  30.424  11.315  13.329
20417W        W88758  41.415  26.474  11.509
20418W        W88759  26.544  23.490  11.990
20419W        W88760  26.084  43.275  11.971
20420W        W88761  12.722  31.437  10.468
20421W        W88762   1.294  11.771   2.205
20422W        W88763  36.093  36.098  10.990
20423W        W88764  31.562  34.441   0.320
20424W        W88765  23.534  30.497   3.696
20425W        W88766   0.975   3.843  14.391
20426W        W88767  20.579  33.024  12.453
20427W        W88768  17.683  30.137   4.617
20428W        W88769  35.071  18.135   0.455
20429W        W88770  34.576  27.502   1.332
20430W        W88771  42.882  39.023  13.311
20431W        W88772   8.828  10.258  14.464
20432W        W88773  11.762  16.619   3.163
20433W        W88774  17.662  42.384   3.786
20434W        W88775  13.243  37.395  14.348
20435W        W88776  30.099   8.810  14.992
20436W        W88777   1.780  20.113  11.405
20437W        W88778  16.803   9.845  13.463
20438W        W88779  20.069  44.894   3.832
20439W        W88780   8.181  10.207   3.766
20440W        W88781  41.352  37.072   0.904
20441W        W88782   6.815   0.922   1.870
20442W        W88783  27.487  26.561   0.478
20443W        W88784  43.919  15.627  13.058
20444W        W88785  20.745   4.776   1.334
20445W        W88786  17.155  41.998   1.232
20446W        W88787   4.427  20.629   4.141
20447W        W88788  40.000  14.094   0.892
20448W        W88789   3.309   1.332   0.371
20449W        W88790  20.704   3.420  11.597
20450W        W88791  24.557  40.889  14.966
20451W        W88792  20.524  30.454  12.461
20452W        W88793  21.200  28.458  12.965
20453W        W88794  22.692  38.546   0.317
20454W        W88795  31.045  11.648  14.821
20455W        W88796  36.886  23.040  12.874
20456W        W88797  40.989  21.260  12.091
20457W        W88798  38.059   0.477  12.574
20458W        W88799  22.707  36.420  13.363
20459W        W88800   8.786   3.792  12.829
20460W        W88801   8.772   8.838  11.945
20461W        W88802   5.930  37.010   2.758
20462W        W88803   1.875  33.933   4.196
20463W        W88804  43.980  24.656  11.015
20464W        W88805  43.372   6.699   1.866
20465W        W88806  28.135  34.405   9.937
20466W        W88807  20.064  16.257   0.434
20467W        W88808  40.394  43.896  11.422
20468W        W88809  14.186   5.843   1.249
20469W        W88810  21.048  27.455   0.344
20470W        W88811  37.033  36.385   1.779
20471W        W88812  36.407  31.938   4.296
20472W        W88813  41.828  41.428  11.943
20473W        W88814  41.864  12.283  13.827
20474W        W88815  39.552  17.760  10.625
20475W        W88816  34.084  27.995  13.330
20476W        W88817  26.093   0.816   2.203
20477W        W88818  41.397  28.008   3.814
20478W        W88819  28.148  37.367  14.363
20479W        W88820   7.355  22.533   3.811
20480W        W88821  10.734  18.234   4.817
20481W        W88822  36.394  37.505  13.404
20482W        W88823  39.000  37.069  10.967
20483W        W88824  25.174  39.843  14.909
20484W        W88825  23.156   9.303   0.823
20485W        W88826  16.187  18.750   4.177
20486W        W88827  24.990   5.296  13.529
20487W        W88828  23.233  26.532   2.836
20488W        W88829   0.955   7.894  13.815
20489W        W88830  19.611  40.904  13.501
20490W        W88831   5.900  19.251  13.417
20491W        W88832  31.901  29.995  12.402
20492W        W88833  10.355  32.027  11.498
20493W        W88834  10.667  20.578   0.833
20494W        W88835  18.222  32.558   1.887
20495W        W88836  24.138   0.417   0.268
20496W        W88837   7.275  29.618   0.304
20497W        W88838   5.391  37.915  11.109
20498W        W88839  34.872  33.128  14.327
20499W        W88840  25.160  15.306  12.001
20500W        W88841   9.810  40.807   2.361
20501W        W88842   3.375   0.467   3.839
20502W        W88843   4.256  24.058   4.300
20503W        W88844  20.624  31.406  14.941
20504W        W88845  26.098  40.395  11.592
20505W        W88846   3.403   8.848  11.896
20506W        W88847  30.099   0.455   2.899
20507W        W88848  34.439  32.112   0.765
20508W        W88849  10.218  41.788  14.511
20509W        W88850  29.586   5.733   2.718
20510W        W88851   1.263  30.968  13.499
20511W        W88852  24.036  23.705   4.206
20512W        W88853  10.859  11.786  13.421
20513W        W88854  24.132  17.181  11.032
20514W        W88855  14.671  27.069  13.339
20515W        W88856  40.892   7.696   0.879
20516W        W88857  13.342  24.160  11.427
20517W        W88858  40.025  27.952   2.890
20518W        W88859  38.344  43.285   1.792
20519W        W88860  24.648  26.026  12.844
20520W        W88861  20.597  22.676   2.872
20521W        W88862  14.738  37.050  14.967
20522W        W88863  11.304  39.014  14.384
20523W        W88864  15.296  34.009  14.023
20524W        W88865  40.425  29.143  14.845
20525W        W88866  16.186  31.992  12.559
20526W        W88867  33.554  17.148  14.407
20527W        W88868  35.992  21.172   4.699
20528W        W88869  32.060  32.114   5.100
20529W        W88870  33.883   2.832   2.394
20530W        W88871   0.361   4.856  13.980
20531W        W88872  22.629   5.345  10.531
20532W        W88873  29.136  40.024  11.898
20533W        W88874  36.375  19.274  12.883
20534W        W88875  40.438  18.071  14.795
20535W        W88876   6.422  35.554   1.734
20536W        W88877  22.188  12.765   0.392
20537W        W88878   3.228  22.043  13.333
20538W        W88879  11.717  32.398   4.195
20539W        W88880  15.689  12.724   1.898
20540W        W88881  11.362  28.023   1.451
20541W        W88882  22.693  10.827  14.773
20542W        W88883  16.730  11.724  12.357
20543W        W88884   9.834  10.805  11.568
20544W        W88885   2.374  12.336   3.259
20545W        W88886   2.418  28.035   3.690
20546W        W88887  40.535  31.471  14.022
20547W        W88888  34.104  22.025   3.743
20548W        W88889  15.604   2.858   1.449
20549W        W88890   1.281   5.694   3.792
20550W        W88891  19.598   1.247   2.304
20551W        W88892  28.561  20.105   1.861
20552W        W88893  18.705  26.033  12.455
20553W        W88894  39.421   1.923  12.080
20554W        W88895  43.997  24.637  14.478
20555W        W88896  35.071  36.996   2.263
20556W        W88897  12.276  14.186   1.906
20557W        W88898  22.603   4.209   1.729
20558W        W88899   4.279  27.089  13.442
20559W        W88900   8.246  27.158   2.408
20560W        W88901  15.767  25.577   0.807
20561W        W88902  14.781   7.201  13.972
20562W        W88903  13.305  36.930  12.417
20563W        W88904  44.280  44.410   1.264
20564W        W88905  34.409   6.305  12.417
20565W        W88906  25.484  15.675  12.042
20566W        W88907   7.368  43.983  14.338
20567W        W88908  24.707   8.675   0.858
20568W        W88909  14.639  42.777   1.920
20569W        W88910  18.061   0.977  14.762
20570W        W88911  41.806   0.289  13.312
20571W        W88912  43.384  44.770   2.819
20572W        W88913  19.055  38.385  12.992
20573W        W88914  19.606   8.862  14.968
20574W        W88915  13.677  11.769  11.930
20575W        W88916  15.201  11.199   0.281
20576W        W88917  22.537  26.690  13.048
20577W        W88918  17.262   1.249  12.876
20578W        W88919  18.742   3.432   0.449
20579W        W88920  26.107  21.657   2.288
20580W        W88921  23.547  14.340   4.231
20581W        W88922   5.326  23.229  12.444
20582W        W88923  11.739  34.961  13.501
20583W        W88924  33.419   2.441   0.248
20584W        W88925   1.907  37.053   3.844
20585W        W88926  33.891  40.421   5.086
20586W        W88927  10.373  28.499   2.303
20587W        W88928  27.183  11.133  13.026
20588W        W88929  13.693  36.891   3.869
20589W        W88930  18.116  26.615  10.938
20590W        W88931  19.129   2.306  10.971
20591W        W88932  26.025   5.708   1.333
20592W        W88933   7.303  29.946  13.964
20593W        W88934  39.366  31.418   0.266
20594W        W88935   9.211  42.944   1.344
20595W        W88936  31.608  38.547   0.404
20596W        W88937  34.526  42.359  12.033
20597W        W88938  23.608  36.963   2.878
20598W        W88939  13.261  37.392  14.796
20599W        W88940  13.162  19.077   3.631
20600W        W88941  36.963  44.345  10.979
20601W        W88942  19.096  32.057   2.253
20602W        W88943  13.845  44.324  13.043
20603W        W88944  40.333  38.824  14.881
20604W        W88945  42.815  25.113   2.281
20605W        W88946  44.957  18.694  11.416
20606W        W88947  13.708  30.920  14.884
20607W        W88948  23.188  41.460   2.695
20608W        W88949  22.695  25.573  12.353
20609W        W88950  39.537  19.257  13.874
20610W        W88951   6.313   9.302  13.307
20611W        W88952  27.053  30.108  12.542
20612W        W88953  19.702  32.000   5.247
20613W        W88954  13.202  32.036   0.900
20614W        W88955  15.763  34.045   1.915
20615W        W88956  31.078  13.257  12.940
20616W        W88957  18.748  41.341  10.939
20617W        W88958   0.424  23.213   0.889
20618W        W88959  40.437  41.381  11.066
20619W        W88960  24.502   8.731   3.700
20620W        W88961   2.926  37.839  10.591
20621W        W88962  15.138   2.253  13.507
20622W        W88963  12.637   9.223   3.756
20623W        W88964  23.654  40.889  11.404
20624W        W88965  31.554  24.695   2.407
20625W        W88966  41.997  43.429   0.386
20626W        W88967  20.032   2.794  13.364
20627W        W88968  43.945  20.637   3.842
20628W        W88969  44.971   8.342   1.865
20629W        W88970  30.129   5.744  14.464
20630W        W88971  43.426   3.231  14.916
20631W        W88972  41.875   5.349   2.763
20632W        W88973   4.294  25.658   2.342
20633W        W88974  21.186  29.977   1.390
20634W        W88975  29.668  30.105  14.473
20635W        W88976  42.485   1.386   3.748
20636W        W88977  20.767  10.332   2.323
20637W        W88978  37.347   5.842   4.759
20638W        W88979  14.662  40.431  10.412
20639W        W88980  19.776  26.009  13.882
20640W        W88981   9.871   7.833   1.312
20641W        W88982  41.399  42.792   1.401
20642W        W88983  43.351  19.592   0.739
20643W        W88984  29.128   4.700   2.902
20644W        W88985  17.233  38.370   4.264
20645W        W88986  29.474  43.819  11.056
20646W        W88987  26.616   4.882  14.990
20647W        W88988  44.992   2.302   2.394
20648W        W88989  12.748  40.429  12.083
20649W        W88990  13.837  21.142   1.245
20650W        W88991  31.118  33.428  13.877
20651W        W88992  28.103   6.777   0.423
20652W        W88993  39.352  25.111   1.241
20653W        W88994  20.113   8.201   1.259
20654W        W88995  30.025  14.335   3.642
20655W        W88996  31.409  13.722  13.417
20656W        W88997  14.780  34.541   4.688
20657W        W88998  16.806   2.918  12.382
20658W        W88999  32.492   2.282   2.184
20659W        W89000   4.277  20.576   2.405
20660W        W89001  13.679  13.792   2.664
20661W        W89002  17.773  41.409   0.311
20662W        W89003  19.183  40.929   3.849
20663W        W89004  33.516  32.558   0.477
20664W        W89005  17.785  37.023  13.976
20665W        W89006   4.905   1.797   3.753
20666W        W89007  41.387  18.198  10.930
20667W        W89008  43.885  15.608   3.744
20668W        W89009  14.711  23.053   3.781
20669W        W89010  27.603  17.194   4.715
20670W        W89011  41.373  39.830   2.215
20671W        W89012   1.402   2.948  12.421
20672W        W89013   9.362  44.486  11.100
20673W        W89014   1.918  10.856  10.610
20674W        W89015  26.543  26.205  10.458
20675W        W89016  41.414  37.435   4.673
20676W        W89017  22.116   0.766  12.540
20677W        W89018  16.702  27.164   3.234
20678W        W89019  39.997  11.161  11.497
20679W        W89020  17.138  14.165  13.432
20680W        W89021  19.147  10.781  10.632
20681W        W89022  19.090   9.680   1.394
20682W        W89023  14.826  41.020  13.529
20683W        W89024  12.747   8.377  14.481
20684W        W89025  42.942  31.007   4.344
20685W        W89026  18.146  23.733   2.843
20686W        W89027   0.332   2.875  13.979
20687W        W89028  37.999  26.961   4.626
20688W        W89029  26.561  37.468  14.875
20689W        W89030   9.284  25.508  13.976
20690W        W89031  36.391  20.110  12.362
20691W        W89032  43.464   7.903  12.562
20692W        W89033  34.072  29.664   3.716
20693W        W89034  14.340  17.585  11.526
20694W        W89035  43.398   0.278   3.230
20695W        W89036  35.041  29.472  14.837
20696W        W89037  43.380   8.291  11.501
20697W        W89038   4.438   3.772   3.364
20698W        W89039   2.294  32.597   2.692
20699W        W89040  22.632  29.133  12.543
20700W        W89041  16.654   6.226  14.897
20701W        W89042  11.641  42.503  12.448
20702W        W89043   9.312  36.480   1.352
20703W        W89044   8.193  18.286  10.980
20704W        W89045  24.634  12.666  12.451
20705W        W89046  21.076  35.100  11.408
20706W        W89047  37.449  18.174   3.697
20707W        W89048  34.055   8.359   4.293
20708W        W89049  25.991  44.397   1.362
20709W        W89050  30.444  15.096  12.380
20710W        W89051  43.406   7.794  14.847
20711W        W89052  19.698  42.975   3.287
20712W        W89053  36.902  26.046   1.700
20713W        W89054  37.576  42.905  11.061
20714W        W89055  35.870  15.111   1.312
20715W        W89056  14.712  29.035  10.569
20716W        W89057  44.360  36.919   2.196
20717W        W89058  15.100   4.856   4.672
20718W        W89059  17.124  19.571  11.121
20719W        W89060  15.668  26.598   4.150
20720W        W89061  35.992   5.889  14.873
20721W        W89062  32.029   3.767  12.443
20722W        W89063  18.686  16.105   3.200
20723W        W89064  24.676  25.673  10.414
20724W        W89065  22.584   2.283   0.923
20725W        W89066  20.178   8.785  10.057
20726W        W89067  22.542  19.083  12.977
20727W        W89068  25.480  39.913  13.892
20728W        W89069  33.891  22.018  14.345
20729W        W89070  12.130  24.636   4.275
20730W        W89071  21.082  18.695   0.900
20731W        W89072  37.834  28.501   1.371
20732W        W89073  37.085  33.602  10.957
20733W        W89074   4.931  33.032   2.302
20734W        W89075  20.659   5.365   3.868
20735W        W89076  26.545   1.406   0.370
20736W        W89077   9.341  21.573   4.291
20737W        W89078  17.071  35.005   2.332
20738W        W89079  17.771   6.876  12.518
20739W        W89080   9.821  23.653   2.829
20740W        W89081  17.661  37.410   2.801
20741W        W89082   2.758  27.503   1.287
20742W        W89083  14.669  18.751   0.417
20743W        W89084  13.654  30.057  14.385
20744W        W89085  34.069  31.569  13.995
20745W        W89086   3.457  32.067  14.380
20746W        W89087  28.966  33.112  13.354
20747W        W89088  36.396   8.306   0.270
20748W        W89089   0.933   5.410  13.332
20749W        W89090  11.845  18.240  14.307
20750W        W89091  13.213  27.690  11.077
20751W        W89092   0.406  17.199  14.927
20752W        W89093  21.181  39.006  10.417
20753W        W89094  12.303  43.413   1.908
20754W        W89095  37.904  18.177  12.417
20755W        W89096  36.992  36.020  14.873
20756W        W89097   4.821   9.182   3.720
20757W        W89098  19.559  13.769  13.455
20758W        W89099  22.729  31.020  12.088
20759W        W89100  25.209   4.259   1.761
20760W        W89101  36.359  40.040  12.375
20761W        W89102   1.241  35.110  10.982
20762W        W89103   6.679  35.482  14.774
20763W        W89104  16.091  34.031  14.845
20764W        W89105   0.300   2.325  10.418
20765W        W89106  28.027   2.232   2.400
20766W        W89107   5.323  25.654  12.012
20767W        W89108  13.302  18.709   1.308
20768W        W89109  31.899   8.240   4.779
20769W        W89110  43.944  36.924  11.989
20770W        W89111  41.433  34.369   4.832
20771W        W89112  35.047   3.413   5.240
20772W        W89113  29.537  10.172  14.790
20773W        W89114  34.600   7.267   1.297
20774W        W89115  18.584  12.137  11.017
20775W        W89116  25.104  18.140   3.673
20776W        W89117  15.187  41.510  11.417
20777W        W89118  43.832  35.440  14.875
20778W        W89119   2.344  38.855   1.873
20779W        W89120  32.626  27.138  13.369
20780W        W89121   3.724  38.956  11.880
20781W        W89122  23.013  22.094  14.831
20782W        W89123   4.433  38.879  11.483
20783W        W89124  34.517  40.419  11.568
20784W        W89125   1.392  18.204  13.308
20785W        W89126  28.058  19.643  14.888
20786W        W89127  11.789  32.397  11.597
20787W        W89128  31.107  18.110  13.431
20788W        W89129  44.925  40.467  10.538
20789W        W89130   0.849  16.197  13.416
20790W        W89131  26.074  44.830   2.352
20791W        W89132  12.158  27.115  11.041
20792W        W89133  36.003  38.433  11.457
20793W        W89134   9.864  40.423  12.444
20794W        W89135  43.797  14.140  13.457
20795W        W89136  38.072   8.843   3.756
20796W        W89137  41.461  33.083   0.323
20797W        W89138  23.132  40.037  13.380
20798W        W89139  39.957  28.994   0.280
20799W        W89140  42.920  24.065  10.431
20800W        W89141  13.836  41.303   4.674
20801W        W89142   6.727  37.462  13.364
20802W        W89143  38.427  12.303  10.456
20803W        W89144  24.711  19.538   3.754
20804W        W89145  31.644   0.355   2.264
20805W        W89146  26.071   2.885  11.448
20806W        W89147  20.259  23.626  11.440
20807W        W89148  19.714  24.169  10.979
20808W        W89149  23.717  22.240  11.953
20809W        W89150  18.189  41.885  13.362
20810W        W89151  19.198  11.230  13.454
20811W        W89152  26.096  15.780  12.847
20812W        W89153  10.734   2.382   4.833
20813W        W89154  10.142   0.330  14.374
20814W        W89155  21.161   1.944  14.868
20815W        W89156  41.389  30.477   4.121
20816W        W89157  23.121  21.109   2.401
20817W        W89158   4.282  40.958   2.366
20818W        W89159  36.423  14.310   1.933
20819W        W89160  34.556  28.932   3.800
20820W        W89161  16.647  14.214  13.857
20821W        W89162  20.584   1.849  11.410
20822W        W89163  14.776  12.225  12.497
20823W        W89164  13.706  31.994   4.262
20824W        W89165  17.139  29.945   0.413
20825W        W89166  42.382  43.402  12.025
20826W        W89167   9.786  35.398  14.838
20827W        W89168  32.909  40.953   2.324
20828W        W89169  30.552  25.471   3.729
20829W        W89170   4.376  36.522   0.455
20830W        W89171  36.582   8.231   3.748
20831W        W89172  30.022  33.419   0.335
20832W        W89173  20.732  14.662   1.820
20833W        W89174   9.858  28.981   0.785
20834W        W89175  21.523   1.317   1.244
20835W        W89176  20.541  43.791   2.687
20836W        W89177  41.977  39.838   2.900
20837W        W89178  42.931  18.703  12.944
20838W        W89179   3.710  16.606  10.912
20839W        W89180  25.636  18.614   4.623
20840W        W89181  36.535  16.224   4.350
20841W        W89182   3.417  36.356  12.363
20842W        W89183   0.422   4.392   1.339
20843W        W89184  27.067  25.110  12.407
20844W        W89185  18.596  43.881  11.903
20845W        W89186  32.120  15.678  10.894
20846W        W89187  38.868  12.132   0.434
20847W        W89188  33.874  12.827  10.993
20848W        W89189  27.639   1.287   1.737
20849W        W89190  32.615   7.245   3.856
20850W        W89191  35.563  34.998   0.961
20851W        W89192  13.126  38.461   2.253
20852W        W89193  21.067  44.493  10.609
20853W        W89194  27.586  16.569   1.349
20854W        W89195   3.750  23.683   2.740
20855W        W89196   3.392  25.652  13.961
20856W        W89197   2.411  39.886  12.521
20857W        W89198  10.715  23.595  10.950
20858W        W89199  30.514  30.108  10.578
20859W        W89200  14.178  26.582   1.312
20860W        W89201  21.122  14.787   0.795
20861W        W89202  35.586   8.379   3.862
20862W        W89203  36.554  29.943   3.237
20863W        W89204   7.892   1.238   1.727
20864W        W89205   1.253  30.060  13.834
20865W        W89206  32.610  16.666   1.877
20866W        W89207  17.177  35.450  12.567
20867W        W89208   6.852   9.846  10.962
20868W        W89209  43.848  18.746   4.251
20869W        W89210   8.399   8.246  14.320
20870W        W89211  14.814  24.033   4.741
20871W        W89212  22.126  37.896  13.031
20872W        W89213  22.504  16.743  11.394
20873W        W89214  18.663   5.732   2.182
20874W        W89215  17.566  22.505  12.939
20875W        W89216  29.954  35.563   1.292
20876W        W89217  34.423  39.906  11.056
20877W        W89218   2.269  24.611  14.492
20878W        W89219  30.618  36.538   3.811
20879W        W89220  12.128  13.236  12.574
20880W        W89221  28.473  34.426  12.028
20881W        W89222  23.623  12.817   2.749
20882W        W89223  40.419  37.479   5.294
20883W        W89224  20.076  23.157  10.560
20884W        W89225  18.205  37.424  13.912
20885W        W89226  39.340  20.707  14.974
20886W        W89227  22.008   5.867  12.443
20887W        W89228  43.845   7.227  12.533
20888W        W89229  41.470  35.005  12.408
20889W        W89230  34.936  12.689   1.299
20890W        W89231  15.231  21.630   9.586
20891W        W89232  24.580  30.464  11.033
20892W        W89233  33.883  39.953   0.432
20893W        W89234  37.576  41.474   4.618
20894W        W89235  32.463   3.398  11.076
20895W        W89236  43.781  15.793  13.848
20896W        W89237   7.365  23.080  10.930
20897W        W89238  22.521  10.858   3.155
20898W        W89239   9.652  16.803   1.303
20899W        W89240  23.671  32.434   4.122
20900W        W89241  23.691  17.607  13.396
20901W        W89242  17.092   0.814  11.029
20902W        W89243  22.084  25.626  13.792
20903W        W89244   9.231  36.892  12.094
20904W        W89245  23.219  19.272  12.366
20905W        W89246  32.517  42.459  13.343
20906W        W89247  24.173  27.677   3.846
20907W        W89248   5.920  40.453  13.808
20908W        W89249  19.779  39.951  12.441
20909W        W89250  41.341   3.880  14.471
20910W        W89251   6.358  30.125  10.614
20911W        W89252  15.785  12.673  14.456
20912W        W89253  28.999  41.015  13.802
20913W        W89254  32.529  15.315  12.461
20914W        W89255  23.204  21.751   3.301
20915W        W89256  23.521  38.060   3.350
20916W        W89257   9.197   7.370  12.918
20917W        W89258  36.446  28.598  12.532
20918W        W89259   8.205   0.954  12.486
20919W        W89260  37.438  12.705   4.272
20920W        W89261  14.598  19.172  10.588
20921W        W89262  30.414  34.901   4.668
20922W        W89263  27.460  20.759  11.486
20923W        W89264  38.449  14.279   0.320
20924W        W89265  11.161  26.021  14.497
20925W        W89266  20.593  41.020  14.344
20926W        W89267  23.648  40.465   3.810
20927W        W89268  36.441  34.009  14.488
20928W        W89269  29.581  38.057   4.614
20929W        W89270  24.076  20.222  14.979
20930W        W89271  23.155  39.328   0.466
20931W        W89272   7.844   7.201   0.874
20932W        W89273  11.747  32.110  12.501
20933W        W89274  43.330  44.796   4.640
20934W        W89275   2.248  11.646   0.937
20935W        W89276  39.326  44.824  13.545
20936W        W89277  22.056  38.513  12.915
20937W        W89278  28.973  31.528   4.819
20938W        W89279  28.474  15.155   2.698
20939W        W89280  27.046  18.289  13.380
20940W        W89281  26.669  10.274   2.365
20941W        W89282   4.771  17.165   2.200
20942W        W89283  12.356  36.421  14.959
20943W        W89284   0.409  10.724   0.738
20944W        W89285  40.886  29.519   2.867
20945W        W89286  22.018  11.648   0.727
20946W        W89287  11.287   6.829   0.839
20947W        W89288  42.360  32.456  12.417
20948W        W89289  22.741  32.094   2.216
20949W        W89290  26.082  13.675  10.584
20950W        W89291  32.896  37.073  13.933
20951W        W89292   0.326   9.251   2.677
20952W        W89293  25.567   0.882  10.625
20953W        W89294  36.018  10.641   4.347
20954W        W89295  29.454   0.789   1.443
20955W        W89296  23.209  17.229  14.343
20956W        W89297  44.953  14.670   3.359
20957W        W89298   2.745   0.256   2.219
20958W        W89299  23.688  14.760  13.017
20959W        W89300  43.877   0.786   4.835
20960W        W89301  10.180   4.848   3.146
20961W        W89302  15.746  30.573  11.896
20962W        W89303  36.877  12.699  12.392
20963W        W89304  33.949  28.442  11.109
20964W        W89305  16.599  41.971  14.373
20965W        W89306  14.700  14.764   4.739
20966W        W89307  37.498  41.873   5.212
20967W        W89308  42.944  20.173   3.864
20968W        W89309  12.837  34.940  13.030
20969W        W89310  44.965  15.277  11.462
20970W        W89311  27.510   2.235   0.841
20971W        W89312  31.440  29.158   4.602
20972W        W89313  31.948  33.925   1.802
20973W        W89314   9.884   4.850   3.833
20974W        W89315   6.899  30.104   0.752
20975W        W89316   6.725   8.874   4.700
20976W        W89317  34.033  42.292   1.921
20977W        W89318  18.069  19.105   0.786
20978W        W89319   3.768  18.282   2.339
20979W        W89320  44.905  16.277  14.859
20980W        W89321  10.281  40.500  14.760
20981W        W89322  12.163  16.618   4.636
20982W        W89323  14.642  37.535  14.848
20983W        W89324   7.702  15.319   1.847
20984W        W89325  41.836   2.282   3.653
20985W        W89326  15.174  25.509  10.518
20986W        W89327   6.789  20.642  12.393
20987W        W89328  40.526  42.952   2.672
20988W        W89329  35.524  43.407  14.913
20989W        W89330  32.062   8.301  14.807
20990W        W89331   2.377  24.098   2.350
20991W        W89332  11.295   8.264   3.820
20992W        W89333  41.415  26.139  11.071
20993W        W89334  28.969  28.619  10.606
20994W        W89335  43.442  37.357  12.923
20995W        W89336  20.091  27.618   2.330
20996W        W89337   2.900  15.189   4.150
20997W        W89338  27.132  29.482  14.996
20998W        W89339  16.739  12.249  12.922
20999W        W89340   6.725  35.878  12.395
21000W        W89341  25.708  40.429  14.428
21001W        W89342  17.653  27.132  13.030
21002W        W89343  26.522   1.262   1.306
21003W        W89344  11.833  18.109   0.460
21004W        W89345   8.268  32.530   2.898
21005W        W89346  25.500  24.007  12.567
21006W        W89347   7.235  18.765  10.914
21007W        W89348   8.187  20.761   0.915
21008W        W89349  16.146  27.512   3.745
21009W        W89350   1.295  25.137   0.740
21010W        W89351  24.587  20.668  13.952
21011W        W89352   5.375   4.356   4.734
21012W        W89353  13.809   7.772  12.413
21013W        W89354  13.600  24.202  14.819
21014W        W89355  19.257  34.403  14.468
21015W        W89356  32.460  42.906  10.575
21016W        W89357  30.978  35.592  11.374
21017W        W89358  12.722  18.073  12.085
21018W        W89359   0.253   1.282   4.801
21019W        W89360  10.194  10.244   3.811
21020W        W89361  23.034   7.760   4.120
21021W        W89362   9.673  27.582   3.367
21022W        W89363  17.092  41.890  13.451
21023W        W89364  13.104   9.383  13.945
21024W        W89365  42.007  13.774  11.956
21025W        W89366   7.182  38.925  14.913
21026W        W89367  43.014  42.366   0.267
21027W        W89368  22.128  11.778   1.416
21028W        W89369  33.879  24.704   4.807
21029W        W89370  17.062  26.492  12.461
21030W        W89371  41.504  34.490   4.332
21031W        W89372  24.058  31.453  12.837
21032W        W89373   3.786  37.408  13.532
21033W        W89374  35.013  11.804  12.405
21034W        W89375  41.424  14.236   4.140
21035W        W89376  22.192  12.685   3.689
21036W        W89377  39.427  35.545  12.410
21037W        W89378  21.634   5.831   0.321
21038W        W89379  28.499   3.885  12.837
21039W        W89380  41.367  20.585   0.762
21040W        W89381  44.321  43.016  14.360
21041W        W89382  24.523   5.800   0.326
21042W        W89383  27.053  10.306  11.412
21043W        W89384  21.115  10.842  12.345
21044W        W89385  21.689  32.034   1.323
21045W        W89386  42.364  33.006  13.795
21046W        W89387   9.203  40.879  11.009
21047W        W89388  19.099  36.854  10.545
21048W        W89389  41.969  43.466   3.800
21049W        W89390  13.767  16.762   4.218
21050W        W89391  33.089  34.557   4.194
21051W        W89392  43.881  13.805  13.421
21052W        W89393   5.912  31.960  13.020
21053W        W89394  17.749   9.887  10.529
21054W        W89395  25.598  23.637  11.955
21055W        W89396  38.373   9.776  14.975
21056W        W89397   2.913  36.377  13.462
21057W        W89398  34.525   9.799  14.890
21058W        W89399  13.780  18.291  12.012
21059W        W89400  43.948  31.629  11.971
21060W        W89401  13.675  35.096  13.888
21061W        W89402  20.201  19.153   0.283
21062W        W89403   4.785  28.941  10.488
21063W        W89404  37.031  12.741  10.620
21064W        W89405  34.460   5.338   2.403
21065W        W89406  32.922   4.424   0.381
21066W        W89407  13.106  44.393   2.761
21067W        W89408  36.578  25.609   3.713
21068W        W89409   9.330  41.869  14.879
21069W        W89410  21.628  11.156   2.740
21070W        W89411  19.122  38.873   1.704
21071W        W89412  39.966  23.717  11.497
21072W        W89413  31.048  22.058   4.329
21073W        W89414   5.341  23.197   2.378
21074W        W89415  12.162  15.729  12.832
21075W        W89416  30.007  23.068   0.910
21076W        W89417  21.086   3.947  12.941
21077W        W89418   5.202   1.418  12.051
21078W        W89419  19.051  21.103  10.478
21079W        W89420  27.689   6.376   2.413
21080W        W89421   6.727  15.226   1.777
21081W        W89422  17.572  37.362   4.287
21082W        W89423  12.292  41.880  12.523
21083W        W89424  33.880   6.246  11.452
21084W        W89425  34.544  26.087   1.750
21085W        W89426  32.105  43.914   4.121
21086W        W89427  38.969   6.353  13.328
21087W        W89428  21.023  18.179   4.690
21088W        W89429  25.588  17.601   4.209
21089W        W89430   4.308   4.905   1.733
21090W        W89431  23.122  22.532  13.990
21091W        W89432  40.011  31.117   4.831
21092W        W89433  35.991   4.340   3.269
21093W        W89434   7.905   9.379   1.411
21094W        W89435  12.720  32.924   1.401
21095W        W89436  10.212  31.401   3.868
21096W        W89437  19.072   3.722   1.931
21097W        W89438  43.914  27.003   3.659
21098W        W89439  44.807  44.792   3.234
21099W        W89440   1.971  20.558  12.580
21100W        W89441  22.201  26.696  10.112
21101W        W89442  19.224   5.850   1.326
21102W        W89443  37.009   7.219  13.969
21103W        W89444  17.659  16.633  10.581
21104W        W89445  29.595  37.398   2.218
21105W        W89446  38.921  22.528   4.336
21106W        W89447  39.515  31.484   2.856
21107W        W89448   5.790  22.629  11.981
21108W        W89449  35.070  21.628  14.847
21109W        W89450  28.596  29.531  12.845
21110W        W89451  13.236  16.298   3.258
21111W        W89452  16.264   2.799   4.609
21112W        W89453  37.857  41.320  12.491
21113W        W89454  35.018  37.424   1.863
21114W        W89455  34.100  26.651   1.818
21115W        W89456  24.006  30.109   2.755
21116W        W89457   0.320  27.651   1.802
21117W        W89458  31.101  25.091  12.929
21118W        W89459   0.875  12.701   2.829
21119W        W89460  13.280  18.550  12.042
21120W        W89461  24.057   2.413   3.179
21121W        W89462  14.125  41.430  10.008
21122W        W89463  21.715  33.991   1.827
21123W        W89464  37.337   2.402   0.816
21124W        W89465  24.567  33.483   4.611
21125W        W89466  41.918   7.779  11.005
21126W        W89467   4.790   4.205   5.267
21127W        W89468  11.232  27.530   0.923
21128W        W89469  41.522  39.038  14.862
21129W        W89470   3.844  19.254  11.511
21130W        W89471  42.988   1.395  13.479
21131W        W89472  23.568  42.428  13.374
21132W        W89473   1.301  19.115   1.850
21133W        W89474   4.361   0.264  14.948
21134W        W89475  17.662  14.607   2.381
21135W        W89476  10.142  34.551  10.930
21136W        W89477  30.936   9.238   3.751
21137W        W89478  33.038  14.243  11.872
21138W        W89479   3.776  25.138  14.510
21139W        W89480  34.456  29.064  12.940
21140W        W89481  11.205  18.050   0.787
21141W        W89482  39.997   8.406   1.887
21142W        W89483  43.512   9.271  13.796
21143W        W89484  17.123   9.762  14.001
21144W        W89485  20.552   2.274  10.475
21145W        W89486  36.521   6.224   1.703
21146W        W89487  13.618  33.926   4.186
21147W        W89488   3.345  33.395  12.950
21148W        W89489   8.738   2.379   4.221
21149W        W89490  37.341  31.995  13.908
21150W        W89491  24.219  34.484   4.335
21151W        W89492  36.026   4.846  14.381
21152W        W89493   5.787  17.178  13.503
21153W        W89494  14.687  16.631   3.789
21154W        W89495   6.878   6.740  12.963
21155W        W89496  35.419  41.941   3.819
21156W        W89497  33.479   4.376  13.315
21157W        W89498  43.442  28.033   2.684
21158W        W89499  20.694   6.237  14.460
21159W        W89500   4.402  39.839   0.277
21160W        W89501  23.730  39.912   2.800
21161W        W89502  18.570  28.588  14.773
21162W        W89503  26.610  24.221   2.691
21163W        W89504  15.605  21.662   5.207
21164W        W89505  41.831  29.118   3.646
21165W        W89506   5.267  22.653   3.237
21166W        W89507  43.986  29.079   1.935
21167W        W89508  36.001  16.631   3.648
21168W        W89509  14.736  31.089  12.844
21169W        W89510  29.651   4.723   1.423
21170W        W89511  20.218  42.944  14.833
21171W        W89512  26.136  38.526   1.428
21172W        W89513  40.483   4.738   5.218
21173W        W89514  43.454  20.065  10.027
21174W        W89515  38.005  26.114   4.293
21175W        W89516  41.516  29.012  12.830
21176W        W89517   2.885  42.868   2.307
21177W        W89518  39.514  17.236   1.876
21178W        W89519  21.586   4.729  10.093
21179W        W89520   1.771   7.865  11.495
21180W        W89521  38.486  33.605   0.456
21181W        W89522  22.655   3.756  14.893
21182W        W89523   2.947   5.803   4.639
21183W        W89524   3.368   8.378   1.759
21184W        W89525  39.938   8.305   0.415
21185W        W89526  18.080  37.399   3.217
21186W        W89527  43.973  17.207   1.831
21187W        W89528  38.019  43.413   3.201
21188W        W89529  13.162  33.545   4.823
21189W        W89530   2.796  12.841   1.801
21190W        W89531   4.872  30.924  11.986
21191W        W89532  18.770   6.242   3.301
21192W        W89533  33.457   5.919  13.374
21193W        W89534  43.284  23.121   0.822
21194W        W89535  40.950  15.797   1.444
21195W        W89536  14.237  21.150   2.214
21196W        W89537  16.626  18.174   0.449
21197W        W89538  44.495   1.912  14.807
21198W        W89539  31.446   2.240   0.811
21199W        W89540  33.891  38.340   0.472
21200W        W89541  16.689  17.128  12.402
21201W        W89542  44.473   2.881  12.046
21202W        W89543  37.908  42.846   1.746
21203W        W89544  22.139  21.097  14.811
21204W        W89545  28.551   9.167  13.811
21205W        W89546  41.865  31.973   4.328
21206W        W89547  26.130  38.480  14.815
21207W        W89548  44.302  20.109  14.328
21208W        W89549  13.785  37.434  10.141
21209W        W89550   3.822  13.827   0.404
21210W        W89551  24.644  39.543   4.782
21211W        W89552   5.412  35.557  12.477
21212W        W89553  24.645  26.993  12.968
21213W        W89554  42.018   4.262  14.856
21214W        W89555   0.428  32.430  12.053
21215W        W89556  28.555  33.905  10.418
21216W        W89557  41.015  34.903  13.047
21217W        W89558  29.583  16.251   1.707
21218W        W89559   6.698  27.991  14.446
21219W        W89560  20.130   2.388  12.001
21220W        W89561   2.757  40.303   3.165
21221W        W89562   5.881  21.518   2.373
21222W        W89563  36.016  33.919  14.862
21223W        W89564  28.112  22.125  14.807
21224W        W89565  18.214  20.747   5.627
21225W        W89566  36.844  29.639  10.992
21226W        W89567  37.561  31.935  11.566
21227W        W89568  33.450   3.373   2.752
21228W        W89569  41.814  16.797   0.458
21229W        W89570  38.561  43.012  10.644
21230W        W89571   6.325  15.608  10.116
21231W        W89572   8.791  39.530   3.351
21232W        W89573  43.385  31.907   4.779
21233W        W89574  17.628   9.153  14.416
21234W        W89575   2.939  22.056   1.906
21235W        W89576   7.366  41.811  12.407
21236W        W89577  27.117  15.197  14.497
21237W        W89578  19.106  24.150   2.356
21238W        W89579   8.684  25.006   0.391
21239W        W89580  39.489  43.794   1.774
21240W        W89581  35.370  31.566  10.477
21241W        W89582  43.958  35.962  12.917
21242W        W89583  39.918  43.428  12.480
21243W        W89584  43.835  14.249  14.386
21244W        W89585   9.338   6.342   5.130
21245W        W89586  31.905  13.655  10.493
21246W        W89587  16.265  27.584   1.405
21247W        W89588  14.693  19.231   1.285
21248W        W89589  25.511  13.608  11.553
21249W        W89590  40.920  19.099  13.895
21250W        W89591  43.007  27.538  14.969
21251W        W89592  41.397  35.493  10.570
21252W        W89593  11.290  24.480   4.305
21253W        W89594  23.004   5.892  14.433
21254W        W89595  24.106  15.613   1.403
21255W        W89596  14.145  35.397  11.383
21256W        W89597   8.339  23.654  13.014
21257W        W89598  35.031  40.408  14.018
21258W        W89599  27.666  13.751   1.759
21259W        W89600   5.696  13.682  13.035
21260W        W89601  31.585  19.727   4.620
21261W        W89602  21.242  36.508  14.859
21262W        W89603   0.309   0.827   4.321
21263W        W89604   5.795  24.986  13.841
21264W        W89605  44.826  20.630   0.438
21265W        W89606  41.353   8.665   3.266
21266W        W89607  24.176  38.911   2.862
21267W        W89608  35.512  43.280  14.318
21268W        W89609  15.692  43.303   2.353
21269W        W89610  13.672  43.913  11.985
21270W        W89611  24.561  31.141   0.292
21271W        W89612  27.137  22.529  12.466
21272W        W89613  33.985  32.591  14.475
21273W        W89614   1.468  24.722   3.853
21274W        W89615  23.697  32.502  14.294
21275W        W89616  43.909   0.800  13.002
21276W        W89617  32.008  26.520   5.292
21277W        W89618   7.666   7.391  14.902
21278W        W89619  26.472  13.205  14.941
21279W        W89620  31.436  14.297   3.206
21280W        W89621   6.889   7.372  13.411
21281W        W89622  38.539  16.283  12.839
21282W        W89623  36.456  34.551   1.276
21283W        W89624   6.724  40.433   0.873
21284W        W89625  10.325  37.426   0.876
21285W        W89626   2.465   3.713  12.499
21286W        W89627   8.180   0.415   2.222
21287W        W89628   1.306  35.041   2.724
21288W        W89629  22.245  16.127   3.803
21289W        W89630  41.522   4.223  13.816
21290W        W89631  32.064  31.411  11.876
21291W        W89632  21.146   4.440   2.765
21292W        W89633  32.586   5.843   4.337
21293W        W89634  44.809  44.823   3.663
21294W        W89635  18.233  16.652   2.330
21295W        W89636  32.928  27.159  10.941
21296W        W89637  12.718  36.952   3.211
21297W        W89638  12.785  16.712  10.960
21298W        W89639  34.883  38.010   1.878
21299W        W89640  11.768  40.027   3.283
21300W        W89641  37.940  24.176  11.593
21301W        W89642  30.095   5.393  11.032
21302W        W89643   6.333  28.507  14.997
21303W        W89644  19.640  24.574  14.445
21304W        W89645   5.795  20.711  11.549
21305W        W89646  28.594   4.341  13.951
21306W        W89647  44.880  41.351  10.952
21307W        W89648  32.590   3.392  10.516
21308W        W89649  18.273  10.224  10.574
21309W        W89650  17.153  32.020  11.918
21310W        W89651  29.483  35.445  11.980
21311W        W89652  12.818  37.501   1.384
21312W        W89653   7.743  11.212  12.991
21313W        W89654  11.723   8.175  14.932
21314W        W89655   4.809   9.717  11.531
21315W        W89656   9.310  44.949   0.395
21316W        W89657  38.876  43.415  10.591
21317W        W89658  30.026   1.436  11.987
21318W        W89659   2.850  31.568   0.440
21319W        W89660  10.151   9.206  13.874
21320W        W89661   9.221  34.412  12.515
21321W        W89662  21.110  34.935  10.498
21322W        W89663  41.424  39.527  12.398
21323W        W89664  19.560  11.337   2.823
21324W        W89665  27.654  31.547   2.747
21325W        W89666  20.623  27.167  13.005
21326W        W89667  42.421  40.333   3.187
21327W        W89668  24.060   2.817   0.883
21328W        W89669   4.245  25.977  13.533
21329W        W89670  37.551  15.659  13.325
21330W        W89671  36.967  26.618   3.285
21331W        W89672  18.202  28.655  14.319
21332W        W89673  33.589   3.448   3.341
21333W        W89674   3.245  32.472   2.302
21334W        W89675  11.789  41.375  10.644
21335W        W89676  19.124  19.730   0.318
21336W        W89677  11.198  36.878  13.429
21337W        W89678  11.774  26.502   0.269
21338W        W89679  35.893  17.301  14.879
21339W        W89680  11.675   0.310  14.779
21340W        W89681  26.198  16.180  11.607
21341W        W89682  44.335  35.069   4.207
21342W        W89683   5.364  10.757  11.519
21343W        W89684  38.502  19.156  10.436
21344W        W89685  32.535  35.362  14.323
21345W        W89686  44.963  40.798   3.850
21346W        W89687  41.800   5.900   0.408
21347W        W89688  26.615  13.811  11.871
21348W        W89689   1.894   6.795   2.749
21349W        W89690  18.198  17.798   1.793
21350W        W89691  24.598  13.639  11.574
21351W        W89692   0.441  11.315   4.615
21352W        W89693  39.984  13.784  14.382
21353W        W89694  23.536  40.353  11.441
21354W        W89695  20.585  37.913  13.026
21355W        W89696  19.645  43.766  14.990
21356W        W89697  29.494  27.524   3.809
21357W        W89698  15.096  31.153  14.410
21358W        W89699  30.992  43.816  13.392
21359W        W89700  41.915  34.008  11.526
21360W        W89701  19.282  39.834  12.022
21361W        W89702  22.709  28.595   3.278
21362W        W89703  38.457  41.423   3.387
21363W        W89704  17.230  27.642  14.981
21364W        W89705  18.198   0.365   3.808
21365W        W89706  30.130  33.081  14.872
21366W        W89707   0.386  26.621  14.439
21367W        W89708  13.304  19.277  12.430
21368W        W89709  14.747   9.216  12.933
21369W        W89710  19.228  44.360   0.942
21370W        W89711  14.234  21.565  10.925
21371W        W89712   2.820   6.258   0.735
21372W        W89713  32.622  32.021  11.548
21373W        W89714  20.256   0.414   4.645
21374W        W89715  12.853  37.410  10.088
21375W        W89716  13.761  22.653   4.136
21376W        W89717   8.733  37.992   1.321
21377W        W89718  31.037  37.572  13.477
21378W        W89719  29.970  30.089   4.142
21379W        W89720  30.580   2.898  13.425
21380W        W89721  40.965  19.097   1.853
21381W        W89722   6.390  43.340  14.476
21382W        W89723  31.520  38.891  10.566
21383W        W89724  14.636  27.044   2.675
21384W        W89725  22.068  32.607   1.934
21385W        W89726  30.645  20.051  13.979
21386W        W89727  32.091  36.991  13.960
21387W        W89728   1.384  27.001  11.582
21388W        W89729  21.658  30.911  14.430
21389W        W89730  19.088  14.830   0.415
21390W        W89731  22.030   8.389  13.913
21391W        W89732  42.899  26.208  14.795
21392W        W89733  44.343  44.350   5.316
21393W        W89734  29.620  21.135  14.850
21394W        W89735  44.367   3.281   0.741
21395W        W89736  18.194   8.164   2.666
21396W        W89737  20.078  40.455   3.165
21397W        W89738  36.849  15.768  14.811
21398W        W89739   3.332  41.035  14.301
21399W        W89740  30.058  42.456  14.435
21400W        W89741  19.765  37.494   3.381
21401W        W89742  16.810  13.795   3.243
21402W        W89743  36.931  10.639   1.428
21403W        W89744  35.464   8.687   4.129
21404W        W89745  22.660   3.818  13.987
21405W        W89746  30.162  33.528  13.971
21406W        W89747  27.622  33.590   4.633
21407W        W89748  33.042   0.783   0.340
21408W        W89749  23.042   7.800   4.728
21409W        W89750  34.929  30.948   0.346
21410W        W89751  43.990  13.281   3.687
21411W        W89752  40.927   7.299  10.558
21412W        W89753  26.672  38.934   2.322
21413W        W89754  16.131   9.774  14.289
21414W        W89755  10.747   4.285  14.801
21415W        W89756  27.020  17.071   0.925
21416W        W89757   0.377  19.102   1.425
21417W        W89758  12.834  11.131   4.122
21418W        W89759  40.329  23.719   1.417
21419W        W89760  17.149  25.020   2.695
21420W        W89761  28.063  22.127  13.438
21421W        W89762   0.790  31.499   2.811
21422W        W89763  21.699   5.709  12.080
21423W        W89764  26.586  30.140  11.860
21424W        W89765  27.519  15.657  11.934
21425W        W89766  42.415  16.590  13.886
21426W        W89767  44.868  36.952   1.259
21427W        W89768  39.495  23.569  10.489
21428W        W89769   2.961  32.523  10.947
21429W        W89770  34.001  10.145   1.929
21430W        W89771  20.766  37.068  11.063
21431W        W89772  43.888  44.401  11.956
21432W        W89773   4.275  37.854  11.947
21433W        W89774  42.436   9.202   4.805
21434W        W89775  28.457  42.442   2.862
21435W        W89776  39.457  29.569   1.694
21436W        W89777   8.697  23.628  12.509
21437W        W89778   3.282  39.438   4.647
21438W        W89779  13.336  15.821  14.812
21439W        W89780  30.980   1.429   4.159
21440W        W89781  23.189  15.227  13.061
21441W        W89782   6.246  43.360  12.446
21442W        W89783   3.230  32.104   0.799
21443W        W89784  38.379  37.561  13.938
21444W        W89785  36.430  35.862   0.760
21445W        W89786   4.449  44.784  13.806
21446W        W89787  21.166   8.855  12.845
21447W        W89788  17.706  17.653   2.787
21448W        W89789  38.946   3.938  12.014
21449W        W89790  44.811  40.320   2.292
21450W        W89791   4.757  16.227   1.271
21451W        W89792  24.155  38.043  11.080
21452W        W89793   1.935  28.624  14.513
21453W        W89794  18.643   2.902  10.612
21454W        W89795  26.671  14.280   4.170
21455W        W89796   2.368  20.651  10.417
21456W        W89797  24.176  23.644  12.432
21457W        W89798   6.832  27.615   1.752
21458W        W89799  38.515  12.228   4.818
21459W        W89800  14.125  30.078   2.375
21460W        W89801  14.327  41.876   4.308
21461W        W89802  25.133  20.532  11.607
21462W        W89803  33.949  31.071   3.288
21463W        W89804   6.688  27.067   4.185
21464W        W89805  13.747  30.936   0.468
21465W        W89806  34.929  13.710   4.170
21466W        W89807  18.051  35.869   4.818
21467W        W89808  35.578  35.602  13.849
21468W        W89809   3.448  11.831  11.080
21469W        W89810   1.734  37.966  11.393
21470W        W89811  38.510  23.087  14.383
21471W        W89812  29.581  10.779  13.356
21472W        W89813  24.186  35.571   2.346
21473W        W89814  27.984  35.604   4.703
21474W        W89815   4.788  21.694  14.952
21475W        W89816   9.320  22.129   2.902
21476W        W89817  18.257  14.218   4.768
21477W        W89818  41.510  29.652   0.957
21478W        W89819  42.027   8.846  12.005
21479W        W89820  43.396  17.252   4.811
21480W        W89821  42.487  15.083  14.304
21481W        W89822  26.994  14.273  12.015
21482W        W89823   6.259  43.341   1.326
21483W        W89824  29.557  21.691  12.096
21484W        W89825   8.744   7.185   1.882
21485W        W89826  11.263  21.175   0.928
21486W        W89827  39.525  19.649   0.865
21487W        W89828  40.859   0.465   1.348
21488W        W89829  18.662  41.029  10.478
21489W        W89830  40.498  31.124  11.412
21490W        W89831  27.475  34.394   2.773
21491W        W89832  35.061  24.659  12.349
21492W        W89833   9.859  19.679   2.875
21493W        W89834   0.475  41.861   2.275
21494W        W89835  38.374  30.469   4.739
21495W        W89836  23.020  37.988   0.393
21496W        W89837  32.515  42.462   2.846
21497W        W89838  36.868  27.496  14.436
21498W        W89839  39.905  28.093   0.440
21499W        W89840  18.124   9.292   2.258
21500W        W89841   9.682  23.630  12.022
21501W        W89842  13.764  39.966  14.409
21502W        W89843  33.601  32.430   3.727
21503W        W89844  23.067  11.701  14.940
21504W        W89845   4.411  21.575   0.396
21505W        W89846  28.622  17.201  14.012
21506W        W89847  25.141   6.873   0.389
21507W        W89848  29.936  18.773  12.524
21508W        W89849  31.426  13.238  12.022
21509W        W89850   8.832  40.044  12.009
21510W        W89851  12.318  39.375   3.351
21511W        W89852   7.398  42.831   4.605
21512W        W89853  23.537  31.018  12.082
21513W        W89854  31.527  36.502   3.372
21514W        W89855  25.483  42.028   0.448
21515W        W89856  12.853  38.537   5.303
21516W        W89857   8.291  22.238   4.792
21517W        W89858  13.297  10.646  12.404
21518W        W89859  38.508   2.950   0.726
21519W        W89860   7.245  19.218  14.306
21520W        W89861   0.879  39.348   0.471
21521W        W89862  10.327  25.596  11.024
21522W        W89863  21.168  29.046  14.485
21523W        W89864   1.849   5.855   1.832
21524W        W89865   2.430  38.023   4.287
21525W        W89866  16.074   3.257  14.888
21526W        W89867  35.904   9.812  13.513
21527W        W89868   9.341  32.918   1.364
21528W        W89869   0.847  39.415   0.749
21529W        W89870  25.200  30.034  13.928
21530W        W89871  10.251  14.326  14.279
21531W        W89872  29.654  38.030  10.635
21532W        W89873   8.293  29.446  10.977
21533W        W89874  40.374  29.484  12.878
21534W        W89875  13.134   0.876   3.734
21535W        W89876  17.740   3.365   0.775
21536W        W89877  11.207  14.807   1.773
21537W        W89878  35.107  21.096  12.995
21538W        W89879  32.103  32.556  13.998
21539W        W89880   7.721  30.132   4.273
21540W        W89881  41.823  23.000  14.845
21541W        W89882  36.024   9.156  10.604
21542W        W89883  13.769   7.901  14.813
21543W        W89884   9.703  19.756  12.577
21544W        W89885  33.418  41.801   1.350
21545W        W89886  44.395   7.401  14.513
21546W        W89887  18.100  40.972   0.901
21547W        W89888  35.441   2.880   2.666
21548W        W89889  33.068  29.464   2.799
21549W        W89890  39.047  40.325  13.998
21550W        W89891   8.744   0.402   0.877
21551W        W89892   8.190   8.188   1.923
21552W        W89893  29.928  33.040   3.217
21553W        W89894   1.448  26.055  10.559
21554W        W89895  41.900  10.762   2.846
21555W        W89896  44.759  18.120  10.161
21556W        W89897  27.687  19.557   4.666
21557W        W89898  15.241  31.101   0.425
21558W        W89899  20.242  19.752   4.816
21559W        W89900   3.239  13.345  12.852
21560W        W89901   4.746   2.808  10.982
21561W        W89902  16.118  32.397  14.029
21562W        W89903  29.444  40.953  12.954
21563W        W89904  41.434   3.355   4.609
21564W        W89905   1.294  28.669   0.388
21565W        W89906   5.735  17.744  13.810
21566W        W89907  23.512  16.707   3.820
21567W        W89908  22.206   1.432  12.428
21568W        W89909   9.707  20.693   4.113
21569W        W89910  44.967   3.865   2.414
21570W        W89911  20.187  37.344   0.477
21571W        W89912  10.755  32.522   0.921
21572W        W89913  26.159  12.779  11.498
21573W        W89914   6.212  37.906   4.669
21574W        W89915   4.231  11.779   0.901
21575W        W89916  12.252  35.424  14.476
21576W        W89917   3.325   0.987  10.517
21577W        W89918   4.400   5.714   0.336
21578W        W89919   2.791  39.019  14.905
21579W        W89920  31.134  14.760  14.960
21580W        W89921  28.038  44.485   0.777
21581W        W89922  25.687  41.435  11.502
21582W        W89923  12.190  11.246  12.494
21583W        W89924   5.328  31.974  14.314
21584W        W89925  34.519  16.276  13.794
21585W        W89926  31.479  21.712   4.664
21586W        W89927   5.270  31.564   4.314
21587W        W89928   2.932  35.563   2.820
21588W        W89929  44.002  38.556   3.253
21589W        W89930  16.247   5.879  14.479
21590W        W89931  14.117   5.830  12.948
21591W        W89932   0.330   0.467   3.279
21592W        W89933  22.169  16.634  12.997
21593W        W89934  15.099  44.823   4.229
21594W        W89935  32.011  37.510  10.456
21595W        W89936  38.473  18.641   4.187
21596W        W89937  31.463  15.697  11.573
21597W        W89938  44.760  39.005   1.276
21598W        W89939  39.050  25.514  11.565
21599W        W89940  21.112  22.652   2.189
21600W        W89941  19.103   6.764   2.294
21601W        W89942  26.668  24.674   1.358
21602W        W89943  36.588  35.567  12.408
21603W        W89944  39.392  11.631  14.301
21604W        W89945  21.752  30.149  13.973
21605W        W89946   0.748  41.858   4.656
21606W        W89947   7.791   4.270   4.338
21607W        W89948   3.858   5.371   1.781
21608W        W89949  36.939  34.968   3.215
21609W        W89950  37.042  20.756   4.236
21610W        W89951  14.324   1.751  12.381
21611W        W89952  18.087  28.037  13.439
21612W        W89953   1.843  13.122   3.730
21613W        W89954  11.286  28.510   1.306
21614W        W89955  10.873  21.585  11.956
21615W        W89956  32.137  36.845  14.913
21616W        W89957  22.660  29.645  14.447
21617W        W89958  31.911  31.574  13.341
21618W        W89959  11.367  31.632   0.754
21619W        W89960  37.028  27.987   4.775
21620W        W89961  30.955  39.511  12.488
21621W        W89962  24.647  11.156   1.755
21622W        W89963   2.949  43.953  12.411
21623W        W89964  37.423  36.013  13.018
21624W        W89965   2.344  41.419   3.856
21625W        W89966  15.591  24.677   4.790
21626W        W89967   9.718  29.595   0.839
21627W        W89968   5.286  27.176   4.217
21628W        W89969  20.759  24.999  10.616
21629W        W89970  35.367  14.678  10.543
21630W        W89971  11.291  39.001   2.687
21631W        W89972  10.692   6.339  10.520
21632W        W89973  33.928   0.767  13.055
21633W        W89974  14.339  44.799  13.009
21634W        W89975  29.955  28.447  11.998
21635W        W89976  16.145   6.759  13.839
21636W        W89977  19.130  25.681  11.978
21637W        W89978  43.950  23.229   1.807
21638W        W89979   0.255   3.433  14.024
21639W        W89980   0.963   1.821   4.187
21640W        W89981  23.086  10.645  12.539
21641W        W89982  43.886  36.493  10.979
21642W        W89983   9.313  21.633  13.980
21643W        W89984  33.547   9.652   1.289
21644W        W89985  15.732   6.348   4.821
21645W        W89986  20.111  34.425   1.255
21646W        W89987  24.622  16.680  10.568
21647W        W89988  20.143   1.363  13.940
21648W        W89989  37.069  16.315   1.774
21649W        W89990  21.131  37.472   3.785
21650W        W89991  30.504  44.297   1.695
21651W        W89992   6.734  19.704  14.480
21652W        W89993   5.699   9.709  13.855
21653W        W89994   7.809  40.805  13.330
21654W        W89995  13.626  20.229  11.408
21655W        W89996  24.714  22.746   1.772
21656W        W89997  17.697   5.693   3.686
21657W        W89998  36.964  33.894  14.859
21658W        W89999  40.469  22.644  11.980
21659W        W90000  16.216  18.617  10.616
21660W        W90001   5.420  44.970  12.949
21661W        W90002  26.645   7.869   0.931
21662W        W90003  20.164  30.938  12.897
21663W        W90004  22.741  44.455  10.016
21664W        W90005  15.287  34.546   3.771
21665W        W90006  14.656  18.272  11.082
21666W        W90007   8.776   1.851   1.905
21667W        W90008  20.606  12.326  14.814
21668W        W90009   7.353  36.558   2.280
21669W        W90010  31.488   4.321  14.844
21670W        W90011  11.265  25.560   3.197
21671W        W90012   1.479   0.959   4.225
21672W        W90013   8.682  43.468   3.337
21673W        W90014  16.195  10.671  11.522
21674W        W90015  39.495  40.541   1.228
21675W        W90016  11.248  18.123  10.471
21676W        W90017  26.584  11.220   2.398
21677W        W90018  31.599  41.459   5.711
21678W        W90019  15.802   9.759   9.957
21679W        W90020  20.215  38.039  14.391
21680W        W90021  23.237  34.927  14.392
21681W        W90022  13.723  29.947   0.316
21682W        W90023  23.986  40.365   5.183
21683W        W90024  10.695  30.625   1.440
21684W        W90025  30.560  37.455  10.942
21685W        W90026  40.351  38.862  11.953
21686W        W90027  28.513  16.695   1.408
21687W        W90028   3.297  43.388  11.958
21688W        W90029  33.129   0.254  11.040
21689W        W90030  29.053   7.213  13.915
21690W        W90031  33.618  15.637   0.431
21691W        W90032  43.785  44.448  13.945
21692W        W90033  19.757  14.143  12.562
21693W        W90034   7.688   9.239  13.009
21694W        W90035  27.528  31.517   4.294
21695W        W90036   0.291  28.654  11.043
21696W        W90037  28.460  36.041   4.603
21697W        W90038  18.102   9.796  14.302
21698W        W90039  35.552   2.917  13.932
21699W        W90040   1.889  35.927  12.969
21700W        W90041  18.632   6.724   3.776
21701W        W90042  28.134   9.662  11.545
21702W        W90043  11.133  34.551   3.832
21703W        W90044  20.158  29.948   0.329
21704W        W90045  16.762  25.968  13.411
21705W        W90046  41.393  39.859   3.299
21706W        W90047  36.416   7.178   0.828
21707W        W90048  41.889  32.464   1.777
21708W        W90049  23.674  22.513  13.420
21709W        W90050  22.016  30.450  10.493
21710W        W90051  32.424  37.025   0.896
21711W        W90052  32.520  40.891  13.871
21712W        W90053  24.494  32.007   1.747
21713W        W90054  28.490  12.653  11.550
21714W        W90055  37.384  29.029   1.928
21715W        W90056  11.860  22.702  13.331
21716W        W90057   2.305  44.266  11.582
21717W        W90058   9.841   7.417  12.027
21718W        W90059  19.774  11.331   3.258
21719W        W90060  27.617   7.765   0.869
21720W        W90061  18.790  10.725  10.613
21721W        W90062  11.133  44.306  11.078
21722W        W90063   8.708  21.094  13.894
21723W        W90064  39.991  25.170  10.935
21724W        W90065   8.404  30.566   4.636
21725W        W90066  14.786  33.049   4.350
21726W        W90067   9.210   4.302  13.502
21727W        W90068  34.930   4.261  10.618
21728W        W90069  25.554  19.728   0.942
21729W        W90070  33.932  27.053   4.225
21730W        W90071  34.429  40.502  13.874
21731W        W90072   8.680   5.427   1.335
21732W        W90073  21.168  25.136   4.343
21733W        W90074  12.341   9.307  14.767
21734W        W90075  19.188   3.251   0.948
21735W        W90076  37.464  25.675   2.760
21736W        W90077  33.897  16.147  10.515
21737W        W90078   4.753  38.887   1.332
21738W        W90079  38.077   7.887   4.125
21739W        W90080  16.251  32.073   3.342
21740W        W90081  11.310  24.645  11.376
21741W        W90082  40.410   9.188  13.465
21742W        W90083  33.026  28.983   1.749
21743W        W90084  20.032   6.428   0.268
21744W        W90085  18.147  27.142  14.954
21745W        W90086   6.763  36.398   4.144
21746W        W90087  26.498  42.820   2.357
21747W        W90088  42.792  24.105   4.336
21748W        W90089  44.904  24.523  14.993
21749W        W90090  42.389  13.646  10.947
21750W        W90091   8.742  38.473  13.367
21751W        W90092  24.512  19.233  10.969
21752W        W90093  11.243  41.431   1.284
21753W        W90094   7.755  20.753  11.394
21754W        W90095  38.061   1.243   4.117
21755W        W90096   9.169   5.289  12.363
21756W        W90097  42.825  17.139  12.844
21757W        W90098   5.391  42.317  13.475
21758W        W90099  17.630  13.636  12.849
21759W        W90100  26.037  25.170   1.358
21760W        W90101  34.052   4.799  11.063
21761W        W90102  25.703  38.946   4.710
21762W        W90103  32.593  37.409  14.922
21763W        W90104   0.340   6.287   0.847
21764W        W90105  15.194  23.146   0.778
21765W        W90106  39.959  23.204   0.372
21766W        W90107  32.509  36.542   3.738
21767W        W90108  24.219  34.390   2.185
21768W        W90109  12.677  13.663  14.909
21769W        W90110   8.193  17.684   2.723
21770W        W90111  28.957  21.523   2.268
21771W        W90112  31.423  40.920   4.621
21772W        W90113  40.015  30.139   2.701
21773W        W90114  30.588  41.900  10.548
21774W        W90115   8.218   2.937  13.900
21775W        W90116  29.515   4.411  14.784
21776W        W90117  14.114  44.272  12.869
21777W        W90118  23.498   9.206  11.054
21778W        W90119  34.412  34.917   4.715
21779W        W90120  36.526  42.390  12.059
21780W        W90121  11.241  22.638   2.253
21781W        W90122  10.164  18.736  14.900
21782W        W90123  25.581  40.322   1.791
21783W        W90124  28.128  26.477  10.490
21784W        W90125  25.633  34.568  14.490
21785W        W90126   5.801  18.254  13.524
21786W        W90127  29.972  34.991  12.445
21787W        W90128  19.737  15.704   4.303
21788W        W90129  11.219  38.556   1.293
21789W        W90130   1.237   7.303  13.428
21790W        W90131   9.166  19.279  10.551
21791W        W90132  16.277  22.725  14.905
21792W        W90133  35.954  28.083  11.884
21793W        W90134  30.073  36.519  12.476
21794W        W90135   5.867  34.997   0.342
21795W        W90136  11.217   2.952  11.520
21796W        W90137  10.217   8.783  11.434
21797W        W90138  35.529   0.795   4.686
21798W        W90139   3.883  42.810   1.260
21799W        W90140  41.819  39.464   0.948
21800W        W90141  36.534   9.220  12.863
21801W        W90142  17.631   3.219  13.375
21802W        W90143   5.730  32.393  12.862
21803W        W90144  28.092  29.466   0.327
21804W        W90145  26.171   3.228  10.572
21805W        W90146  18.173  22.194  12.978
21806W        W90147  20.765  30.558   2.663
21807W        W90148  25.004  37.039   2.328
21808W        W90149   6.193  19.048  12.369
21809W        W90150  11.835  35.087   4.156
21810W        W90151   6.692  37.555  12.086
21811W        W90152  36.482  44.351  12.553
21812W        W90153   2.809  36.914  11.922
21813W        W90154   9.191  27.975   1.362
21814W        W90155   0.767   0.807  10.420
21815W        W90156  12.687   0.769   4.654
21816W        W90157  20.161   3.774  10.942
21817W        W90158  18.611  18.760  11.497
21818W        W90159  35.031  22.666  10.638
21819W        W90160  44.296  42.979   4.231
21820W        W90161   4.305   3.882  12.854
21821W        W90162  12.727   3.946   0.778
21822W        W90163  22.055  44.477  13.950
21823W        W90164  29.130  15.306   0.310
21824W        W90165  41.321  21.597   0.804
21825W        W90166  35.376  34.896  11.026
21826W        W90167  32.108  19.123   0.927
21827W        W90168  38.899  11.275  12.386
21828W        W90169  17.792  32.480   5.669
21829W        W90170  29.535  26.497  14.384
21830W        W90171  17.622  36.495   0.482
21831W        W90172  38.408  32.067   4.255
21832W        W90173  29.486  13.133  12.425
21833W        W90174   6.293  15.187  14.811
21834W        W90175  32.927  11.801   4.171
21835W        W90176  35.059  10.755  14.434
21836W        W90177   0.477  10.313   2.690
21837W        W90178  37.830  16.580  10.463
21838W        W90179  26.009  36.853  11.977
21839W        W90180  34.908  16.170  11.580
21840W        W90181  36.969  36.359  10.512
21841W        W90182  25.633  31.073   2.812
21842W        W90183  24.178  25.118  11.425
21843W        W90184  19.622  25.035   1.339
21844W        W90185  19.548   3.932   1.916
21845W        W90186  12.188   6.382  12.869
21846W        W90187   8.266  15.085   0.357
21847W        W90188  34.611  35.104  11.889
21848W        W90189  41.021  44.804   1.920
21849W        W90190  27.039  36.575  13.491
21850W        W90191  11.171  29.107  10.586
21851W        W90192  23.575  21.039   0.914
21852W        W90193  18.155   4.382  12.926
21853W        W90194  26.702   5.911  11.460
21854W        W90195  38.909  23.566  13.535
21855W        W90196  44.491   2.228  14.882
21856W        W90197  28.163  33.467  10.088
21857W        W90198  30.656  29.120  12.958
21858W        W90199   3.932  23.674   4.355
21859W        W90200  39.405  26.526  13.047
21860W        W90201  42.948  16.181   2.305
21861W        W90202  22.055  44.838   0.405
21862W        W90203  37.582  31.504   1.848
21863W        W90204  24.483  23.995   2.873
21864W        W90205  10.690  21.201  14.011
21865W        W90206  14.234  28.120  13.314
21866W        W90207  16.094  37.573  13.367
21867W        W90208  38.450  22.081   4.637
21868W        W90209  23.501   4.439  11.866
21869W        W90210  16.791  22.166  14.508
21870W        W90211  21.111   9.692  12.413
21871W        W90212  34.448  31.989   1.236
21872W        W90213  37.560  21.638   2.848
21873W        W90214  43.387  31.582  13.820
21874W        W90215   0.320   5.761  12.996
21875W        W90216   7.383  40.396   4.674
21876W        W90217   3.745  37.964   3.736
21877W        W90218  32.939  40.339  13.847
21878W        W90219  42.027   8.352   1.744
21879W        W90220  11.266  40.934   2.379
21880W        W90221  20.146  40.836  13.920
21881W        W90222  14.719  13.241   1.855
21882W        W90223  28.124  35.070   0.832
21883W        W90224  15.311  39.438   0.390
21884W        W90225  37.046  37.546  10.528
21885W        W90226  11.668  40.495   4.619
21886W        W90227   6.732  27.998   4.160
21887W        W90228   0.443   6.780  13.388
21888W        W90229  42.490  22.204  12.345
21889W        W90230  28.136  27.627   0.913
21890W        W90231   5.395  11.703   3.767
21891W        W90232  29.142  42.951   3.706
21892W        W90233  34.506  35.432   0.357
21893W        W90234  34.064  28.975  14.874
21894W        W90235   7.382  11.256  11.921
21895W        W90236  23.023  24.656   1.320
21896W        W90237   0.841  28.666  14.960
21897W        W90238   7.767  21.078   5.169
21898W        W90239   8.357  11.367  10.640
21899W        W90240  29.084  13.668   3.745
21900W        W90241   5.699  35.406   1.760
21901W        W90242  16.805  42.915   3.368
21902W        W90243  35.472  40.961   3.171
21903W        W90244  21.589  30.917  10.597
21904W        W90245   6.378  43.808  12.551
21905W        W90246   8.661  41.829   4.599
21906W        W90247  34.943   0.392  10.020
21907W        W90248  18.122   6.806  12.063
21908W        W90249  44.399  16.623   4.128
21909W        W90250  28.501   5.249  12.476
21910W        W90251   0.875   8.790   2.870
21911W        W90252  12.670  12.808  14.484
21912W        W90253   2.927  25.528   0.340
21913W        W90254  39.466  38.355   0.912
21914W        W90255  27.557  32.401  14.810
21915W        W90256  37.350   6.326  10.935
21916W        W90257  18.256   1.305  14.777
21917W        W90258  43.478   7.250   2.730
21918W        W90259  37.953  40.872   0.341
21919W        W90260  34.041  26.657  12.956
21920W        W90261  42.515  21.159  13.493
21921W        W90262   4.383  10.737   4.620
21922W        W90263  16.318  36.472   2.311
21923W        W90264   5.802  25.089  10.537
21924W        W90265   8.750  20.652   4.332
21925W        W90266  37.391   3.903   3.267
21926W        W90267  35.478   5.423  13.798
21927W        W90268  11.841  15.111  14.838
21928W        W90269  36.448  13.677  12.410
21929W        W90270  27.555  39.445  14.030
21930W        W90271  32.089   3.322   4.319
21931W        W90272  40.442   3.793  11.986
21932W        W90273  32.432  27.475  12.995
21933W        W90274  21.646  25.194  11.861
21934W        W90275  36.556  24.677   1.887
21935W        W90276  42.904  39.399  12.918
21936W        W90277   1.844   5.813   3.836
21937W        W90278  20.607  38.906  12.990
21938W        W90279  20.638  29.541   4.177
21939W        W90280  43.016   4.756  13.322
21940W        W90281  11.238   2.342   4.119
21941W        W90282   2.722  42.943   1.210
21942W        W90283  38.449  44.475  12.476
21943W        W90284  21.652   4.333   2.235
21944W        W90285   1.940  21.115  11.497
21945W        W90286  42.816  25.032   0.878
21946W        W90287  40.431   8.251  14.372
21947W        W90288  31.020  25.593   2.381
21948W        W90289  18.547  44.927   1.922
21949W        W90290  24.534   7.741  12.958
21950W        W90291  21.592  43.275   4.795
21951W        W90292  23.054  16.755  12.002
21952W        W90293   4.756  16.135  14.399
21953W        W90294  22.115  22.162  13.946
21954W        W90295  37.579  10.383   1.441
21955W        W90296  36.439  31.506  12.480
21956W        W90297  23.634  30.988   3.231
21957W        W90298  20.639   8.241   4.215
21958W        W90299  33.085  29.999   0.375
21959W        W90300  36.908  14.232  14.795
21960W        W90301  38.964  28.466   4.613
21961W        W90302  15.745  36.011  12.933
21962W        W90303   2.946  30.587  14.311
21963W        W90304  25.493  14.097   3.696
21964W        W90305  42.426  39.904   0.818
21965W        W90306  13.660  22.516   2.737
21966W        W90307   3.833  40.340  12.476
21967W        W90308  27.197   6.309  12.864
21968W        W90309   0.323  33.490   0.889
21969W        W90310   9.729  28.176   2.370
21970W        W90311  38.965  32.931   2.225
21971W        W90312  13.623  37.357   3.728
21972W        W90313  43.425  36.931   4.599
21973W        W90314  27.526  39.462   1.326
21974W        W90315  40.522  16.082  14.797
21975W        W90316  15.124  38.522   0.920
21976W        W90317  40.816  22.733  14.831
21977W        W90318  19.672  21.034   2.731
21978W        W90319  32.083  43.932   2.264
21979W        W90320  10.173  23.213  13.383
21980W        W90321  26.039  31.598   0.767
21981W        W90322   0.442   2.762   0.787
21982W        W90323  11.201   3.376  12.987
21983W        W90324  40.043  10.376  14.323
21984W        W90325  13.287  18.282   1.338
21985W        W90326  21.635  42.325   1.265
21986W        W90327  43.810   1.800  12.971
21987W        W90328   2.434  41.463  12.087
21988W        W90329  30.145  22.105  14.285
21989W        W90330  14.700   9.281  14.404
21990W        W90331  42.986  14.211   0.809
21991W        W90332  15.624  21.727   1.395
21992W        W90333  21.636   0.986  14.017
21993W        W90334  39.461  34.574   3.332
21994W        W90335  41.492   6.380   0.772
21995W        W90336  42.876  29.085  12.522
21996W        W90337  43.852  28.449   2.373
21997W        W90338   8.896  42.945  14.453
21998W        W90339  14.200  18.137   3.239
21999W        W90340  15.708  25.193  11.118
22000W        W90341  44.846  38.534  13.413
22001W        W90342   2.732  38.919   2.327
22002W        W90343  25.686   5.755   3.376
22003W        W90344  34.035   7.736   2.707
22004W        W90345  40.370  43.511  12.347
22005W        W90346  12.783  27.176  12.470
22006W        W90347  21.210  32.121   4.160
22007W        W90348   2.311  23.167  10.415
22008W        W90349   7.793  15.300  12.016
22009W        W90350  12.626  42.020  13.978
22010W        W90351  10.878  27.636  13.379
22011W        W90352  39.361  27.956   0.952
22012W        W90353  13.122   6.822  13.968
22013W        W90354   3.949  20.632  14.412
22014W        W90355  28.451  26.477  10.645
22015W        W90356  38.912  11.339  11.560
22016W        W90357  33.094   8.399  10.958
22017W        W90358  43.764   8.686   4.228
22018W        W90359  38.564  15.739   2.837
22019W        W90360   8.695  32.504  13.955
22020W        W90361  20.162  42.015  11.965
22021W        W90362   6.802   9.222   4.680
22022W        W90363   5.273  13.268   2.838
22023W        W90364  42.331   9.850  14.369
22024W        W90365  18.156  30.059   4.775
22025W        W90366  22.726  40.352  14.882
22026W        W90367   9.289  24.640  14.499
22027W        W90368   9.761  41.993   1.720
22028W        W90369  35.421  32.427  10.446
22029W        W90370   5.367  16.107  10.936
22030W        W90371  34.522  41.023   9.441
22031W        W90372  14.157  26.176  11.999
22032W        W90373  27.101   4.226   3.188
22033W        W90374   9.384  36.084   4.598
22034W        W90375  28.500  25.209  11.902
22035W        W90376   6.748  25.604   1.319
22036W        W90377  18.568  26.468  12.039
22037W        W90378  25.091  15.713  11.522
22038W        W90379   5.194   4.886   2.839
22039W        W90380  11.766  26.690   1.415
22040W        W90381  14.214  14.778  14.809
22041W        W90382  39.862  28.985   4.602
22042W        W90383  32.049  30.126  11.504
22043W        W90384  35.562  42.506   1.856
22044W        W90385  40.434  18.267   2.890
22045W        W90386  28.186  22.661   4.287
22046W        W90387  11.854  32.062  13.495
22047W        W90388  34.976  29.582  10.500
22048W        W90389  24.606  11.790   3.848
22049W        W90390  24.172  35.978  11.966
22050W        W90391  22.105   9.830  14.888
22051W        W90392  41.487  43.439   4.286
22052W        W90393  44.453  36.976   4.796
22053W        W90394  23.055  21.575   4.212
22054W        W90395  10.854  12.777   9.999
22055W        W90396  43.332  17.194  14.490
22056W        W90397  30.500  15.287   2.401
22057W        W90398  36.388  37.502   1.244
22058W        W90399  31.578  23.986  11.450
22059W        W90400   9.362  20.736  12.007
22060W        W90401   4.822  12.258  11.883
22061W        W90402  17.768   7.705  13.504
22062W        W90403  29.583  12.118  11.398
22063W        W90404  17.677   7.408  14.462
22064W        W90405  27.576  25.110   4.298
22065W        W90406  19.703  19.661   1.911
22066W        W90407  41.364  23.045   3.174
22067W        W90408  44.433  42.337   1.877
22068W        W90409  13.151  14.611   4.833
22069W        W90410  20.037  40.821   4.151
22070W        W90411  44.431   9.687  12.928
22071W        W90412  20.716  35.042  10.929
22072W        W90413  18.725  32.966   2.194
22073W        W90414   9.664   4.232  10.548
22074W        W90415   9.767  10.663  11.857
22075W        W90416   7.907   8.388   0.803
22076W        W90417  30.510   3.886   2.698
22077W        W90418  44.840   0.945  10.625
22078W        W90419  19.248  19.198  12.049
22079W        W90420  38.366  36.420  13.348
22080W        W90421   7.714  38.852  12.914
22081W        W90422  28.124   1.941  13.838
22082W        W90423  14.641  25.982  14.475
22083W        W90424   7.754  42.388  14.901
22084W        W90425  34.918  35.491  12.842
22085W        W90426  18.111   3.461   4.241
22086W        W90427  22.504  42.888  10.977
22087W        W90428  30.992   4.869   4.725
22088W        W90429  26.015  41.873  10.950
22089W        W90430  30.439   6.198  12.007
22090W        W90431  17.090  26.654   4.816
22091W        W90432   1.879  31.496   4.236
22092W        W90433  33.381   1.852  10.936
22093W        W90434  34.941  12.311  12.559
22094W        W90435  20.136   3.954   2.863
22095W        W90436   3.344  23.015   4.222
22096W        W90437   6.242  44.903  12.836
22097W        W90438   5.925   9.863   2.812
22098W        W90439  33.416  36.512  14.294
22099W        W90440  10.268  40.917   2.881
22100W        W90441  15.259  32.500  11.080
22101W        W90442  12.624  25.615   4.182
22102W        W90443  20.647  25.523   2.835
22103W        W90444  20.129  44.431   1.906
22104W        W90445  14.655   6.322   1.894
22105W        W90446  14.677  24.585  13.378
22106W        W90447   5.799   6.698   4.159
22107W        W90448   5.898  32.894   1.854
22108W        W90449   5.353   5.407   0.848
22109W        W90450  28.154   9.198   3.768
22110W        W90451   6.866  35.930   1.870
22111W        W90452  34.480  19.192   2.220
22112W        W90453  31.107   8.312   3.381
22113W        W90454   4.807  19.709  12.579
22114W        W90455  33.092   8.298   2.295
22115W        W90456  30.480  10.737  13.872
22116W        W90457  42.893  17.258  13.843
22117W        W90458  17.596  23.215   0.282
22118W        W90459   6.422   2.404   0.815
22119W        W90460  12.637   0.891   3.640
22120W        W90461  18.240  28.641   0.260
22121W        W90462  38.843  29.924   1.293
22122W        W90463  11.797  31.951   5.246
22123W        W90464   0.312  30.643  11.982
22124W        W90465  35.490  32.047   4.212
22125W        W90466  40.000  19.772  14.399
22126W        W90467  13.261  19.189  11.460
22127W        W90468  14.694  38.403  10.552
22128W        W90469   2.328  16.170   4.333
22129W        W90470  44.304  10.800   3.250
22130W        W90471  16.231   3.255  11.510
22131W        W90472  10.237   5.793  10.558
22132W        W90473  43.328   1.930   0.740
22133W        W90474  30.609   5.392  10.638
22134W        W90475   6.707  15.771  10.404
22135W        W90476  23.197  44.764  13.795
22136W        W90477  15.581  12.708  11.107
22137W        W90478  24.557  14.786   2.283
22138W        W90479   3.221  44.475  13.937
22139W        W90480  16.582  10.785   4.316
22140W        W90481  13.109   3.223   1.360
22141W        W90482  24.225  12.201  10.414
22142W        W90483   5.240  42.343  10.461
22143W        W90484   7.779  23.537   3.158
22144W        W90485  41.497   5.692  11.592
22145W        W90486  15.605   9.368  12.543
22146W        W90487  41.406   1.737  13.876
22147W        W90488   3.351  39.366  13.820
22148W        W90489  19.747  38.437   2.792
22149W        W90490  27.154  13.797  11.584
22150W        W90491  38.488  43.364   0.396
22151W        W90492   0.911  16.589   1.836
22152W        W90493  36.991  40.428   3.800
22153W        W90494   0.291  13.679   4.808
22154W        W90495  23.052  31.436   0.423
22155W        W90496   0.476  19.752   1.699
22156W        W90497  39.375  17.141  13.030
22157W        W90498  28.124  39.334  11.506
22158W        W90499  22.178  27.048  13.495
22159W        W90500   5.863  21.088   2.218
22160W        W90501  34.043  43.913  11.553
22161W        W90502   5.798   9.298  11.086
22162W        W90503   1.814  19.660  12.088
22163W        W90504   0.954   0.269   1.919
22164W        W90505  16.194   8.218   0.266
22165W        W90506  16.226  23.129  12.476
22166W        W90507   9.841   9.265   1.274
22167W        W90508  10.138  10.695   3.305
22168W        W90509   3.921   1.258   2.745
22169W        W90510  27.448  33.995   4.684
22170W        W90511  41.001  11.206   2.280
22171W        W90512  14.746  11.687  10.538
22172W        W90513  44.836  27.003  11.916
22173W        W90514  15.270  24.976  12.910
22174W        W90515   0.801  41.961   2.319
22175W        W90516  30.446  21.040   4.700
22176W        W90517  27.010  40.450  10.012
22177W        W90518  11.763   6.774  11.079
22178W        W90519  24.229  15.655  12.448
22179W        W90520  28.963   1.808  11.532
22180W        W90521  15.286  27.449   1.929
22181W        W90522  13.741  20.557  10.567
22182W        W90523  41.856  10.688  14.985
22183W        W90524  22.224   3.910   4.828
22184W        W90525  27.072  26.464  11.902
22185W        W90526  30.082  13.779  12.971
22186W        W90527  14.291  17.268  11.030
22187W        W90528  13.314  44.986  12.521
22188W        W90529   2.275  13.742   1.224
22189W        W90530  35.529   3.221  11.113
22190W        W90531  14.328  12.217   1.446
22191W        W90532  41.400  33.030  12.932
22192W        W90533  24.149  42.363  10.506
22193W        W90534  31.543  42.510  11.423
22194W        W90535  33.102  27.125   3.354
22195W        W90536  39.499  41.536  12.449
22196W        W90537  39.065  31.597  14.398
22197W        W90538  22.139  26.053   0.386
22198W        W90539  37.402  39.851   1.230
22199W        W90540  39.862  13.694  12.409
22200W        W90541  10.215  22.570   1.913
22201W        W90542  26.621  32.615   4.281
22202W        W90543  27.053   5.359  10.641
22203W        W90544  36.010  25.071   2.666
22204W        W90545  36.854  41.789  10.992
22205W        W90546  12.664  23.678  13.052
22206W        W90547  18.272  10.198  11.084
22207W        W90548   8.724  12.117   0.751
22208W        W90549  20.173  16.125  10.551
22209W        W90550  37.551  30.433  14.918
22210W        W90551  25.007  15.799   3.842
22211W        W90552  36.890  15.638   4.723
22212W        W90553  28.156  10.673   3.274
22213W        W90554  26.662   4.277  14.364
22214W        W90555  38.426  34.953   0.436
22215W        W90556  32.944  28.034  11.023
22216W        W90557   0.442  29.576   2.186
22217W        W90558  42.897  33.559   5.321
22218W        W90559  42.836  25.032  12.896
22219W        W90560  29.569  34.588  11.035
22220W        W90561   9.350  43.441   2.283
22221W        W90562  33.980   4.896  11.379
22222W        W90563  27.521  43.948  11.862
22223W        W90564  35.377  16.216  13.038
22224W        W90565  25.091  22.590   3.789
22225W        W90566  42.385  35.459  10.411
22226W        W90567   2.241  36.348  13.871
22227W        W90568  22.094  35.906   2.882
22228W        W90569  16.293  14.166  14.510
22229W        W90570  28.084  15.151  10.623
22230W        W90571  36.947  24.187  13.895
22231W        W90572   8.226  41.991  11.104
22232W        W90573  24.573  39.402   1.915
22233W        W90574  22.539  16.195   1.833
22234W        W90575  37.949   9.784  13.929
22235W        W90576  39.554  40.030  11.574
22236W        W90577  31.109  10.683   1.439
22237W        W90578  31.544   1.836  14.960
22238W        W90579  41.445   2.352   2.844
22239W        W90580  37.925   3.453  12.439
22240W        W90581  39.378  21.097   2.892
22241W        W90582  41.874  43.883   2.382
22242W        W90583  37.831   6.913  14.349
22243W        W90584  17.073   8.313   0.310
22244W        W90585   2.350  32.024   4.189
22245W        W90586  16.092  17.139   2.229
22246W        W90587  42.974  12.295  12.947
22247W        W90588  44.924  13.234   4.601
22248W        W90589  32.559  20.672   2.872
22249W        W90590  16.575  43.960   2.731
22250W        W90591   2.293  18.225   2.280
22251W        W90592  23.572  31.528   3.709
22252W        W90593   2.296   0.919  14.382
22253W        W90594  12.321   2.825   2.672
22254W        W90595   5.792  32.899   4.750
22255W        W90596   6.865  42.288   1.818
22256W        W90597  34.033  18.569  14.992
22257W        W90598  37.879  39.475  10.645
22258W        W90599  38.498   8.857  11.567
22259W        W90600  42.471  34.415  10.429
22260W        W90601  15.821  34.111   2.228
22261W        W90602  23.184  17.800  14.950
22262W        W90603  36.990  12.662   1.278
22263W        W90604  34.577  26.204   4.310
22264W        W90605  14.096   4.766  13.808
22265W        W90606  33.474   7.710  13.807
22266W        W90607  19.074  34.887  13.019
22267W        W90608  26.040  31.903  14.017
22268W        W90609  20.155  33.595  14.294
22269W        W90610  35.921  26.047  14.364
22270W        W90611  12.840  24.714   1.815
22271W        W90612  21.522  16.294  12.539
22272W        W90613  42.795  41.959  14.785
22273W        W90614  42.853  11.862   3.152
22274W        W90615  10.731  24.526  13.348
22275W        W90616   0.258  17.077   3.148
22276W        W90617   8.217   0.377  11.603
22277W        W90618  13.114  14.216   3.289
22278W        W90619  20.685  12.149   0.383
22279W        W90620  32.489  27.503  11.883
22280W        W90621  34.449   6.828   4.314
22281W        W90622  20.633  43.909   2.403
22282W        W90623   4.423   2.751  14.782
22283W        W90624  26.625   0.929  14.496
22284W        W90625  39.349  13.754   0.272
22285W        W90626  27.453  25.519  11.539
22286W        W90627  27.117  33.886   0.307
22287W        W90628  26.953  25.680  12.930
22288W        W90629  25.664  34.556   3.370
22289W        W90630   4.930   2.860  14.974
22290W        W90631  22.712  21.627   3.787
22291W        W90632   0.408   6.729   1.848
22292W        W90633  16.757  29.959   0.281
22293W        W90634  25.086  25.108  11.082
22294W        W90635  34.003  25.019  13.042
22295W        W90636  11.838  42.428   4.601
22296W        W90637  39.424  36.063  14.854
22297W        W90638  29.585  29.613  14.889
22298W        W90639  30.581  23.185   3.845
22299W        W90640   3.898  24.205  13.317
22300W        W90641  11.308  14.224  10.504
22301W        W90642  27.959  10.718   4.811
22302W        W90643   1.828   5.243   0.752
22303W        W90644   9.257  19.278   4.648
22304W        W90645  11.842  12.145  11.538
22305W        W90646  42.873  42.282  10.891
22306W        W90647   8.338  22.532   3.383
22307W        W90648  16.752  23.042  13.443
22308W        W90649  14.759  32.094   2.885
22309W        W90650  28.090   3.269   2.737
22310W        W90651  39.008   2.734  13.311
22311W        W90652   9.694  25.506   1.220
22312W        W90653  41.368  27.674   0.961
22313W        W90654  36.428   1.457  12.560
22314W        W90655   0.494   5.874  11.463
22315W        W90656  40.048  25.985   3.760
22316W        W90657  19.756  29.156  14.867
22317W        W90658  14.156   9.753   3.321
22318W        W90659  13.711  12.777   1.362
22319W        W90660  38.383   6.809  12.020
22320W        W90661   4.363  21.755  11.375
22321W        W90662  16.742  15.673  13.453
22322W        W90663  17.707  44.935   4.622
22323W        W90664  28.657  32.919  10.637
22324W        W90665   8.193  36.431   2.365
22325W        W90666  13.771   4.739  13.472
22326W        W90667  28.526  40.007   1.827
22327W        W90668  34.443  16.672  10.590
22328W        W90669  35.525  13.613  14.794
22329W        W90670  17.088  28.639  12.555
22330W        W90671  29.972  24.032   3.706
22331W        W90672  26.954  29.991  12.076
22332W        W90673  39.551   2.880  12.512
22333W        W90674  14.700  36.074  11.900
22334W        W90675  14.241   7.668   4.605
22335W        W90676  35.866  10.201   1.343
22336W        W90677  25.075  33.078   1.338
22337W        W90678  22.077  38.896   0.420
22338W        W90679  40.322  44.836  12.376
22339W        W90680  39.837   1.331   1.828
22340W        W90681   8.270  43.436  12.073
22341W        W90682  17.619  40.886   3.779
22342W        W90683   6.340  28.643  13.987
22343W        W90684  12.328  13.772  10.627
22344W        W90685  26.957   8.741  12.913
22345W        W90686  21.598  41.424   0.962
22346W        W90687  30.504  37.371   2.320
22347W        W90688  39.542  12.681   1.232
22348W        W90689  41.807  34.075   3.334
22349W        W90690  19.057  16.125  14.472
22350W        W90691  13.328   4.799   0.807
22351W        W90692  28.496  16.128  12.949
22352W        W90693  29.080  22.596  10.416
22353W        W90694  14.720  37.963   0.922
22354W        W90695   9.686  23.662   1.251
22355W        W90696  10.378  20.594   4.689
22356W        W90697  27.644  36.025  11.552
22357W        W90698  22.721  17.777  10.454
22358W        W90699  11.312  19.284   1.409
22359W        W90700   7.798  44.988  13.938
22360W        W90701  13.846  39.853   3.284
22361W        W90702  21.258  24.975  13.027
22362W        W90703  28.471   5.759  14.477
22363W        W90704  13.773  16.200  14.001
22364W        W90705  32.131  32.443  11.991
22365W        W90706  40.312  39.008  11.488
22366W        W90707   4.248   9.876  14.298
22367W        W90708  30.501  15.161  11.871
22368W        W90709  27.048  35.442   3.763
22369W        W90710  14.642   7.733   2.837
22370W        W90711  40.491  37.030  11.388
22371W        W90712  25.048  18.103   4.599
22372W        W90713  32.600  18.584   3.763
22373W        W90714  14.818  16.284   0.262
22374W        W90715   7.195  16.724   2.835
22375W        W90716  19.094   7.906   0.888
22376W        W90717  36.472  27.499  11.098
22377W        W90718   2.311   7.188  11.949
22378W        W90719  19.218   6.427  13.370
22379W        W90720  24.024   7.197  14.818
22380W        W90721  16.640  32.072   3.344
22381W        W90722  27.617   9.794  12.971
22382W        W90723  41.796  39.391  13.475
22383W        W90724  11.863   6.706  13.520
22384W        W90725  15.269  33.556   3.753
22385W        W90726   3.935   7.402  11.482
22386W        W90727  21.567  28.487  12.509
22387W        W90728  42.927  30.578   2.189
22388W        W90729  26.025  10.766   3.755
22389W        W90730  29.489  36.884   1.787
22390W        W90731  28.129   9.852   0.839
22391W        W90732  21.173   0.315  13.456
22392W        W90733  30.085   6.819  14.300
22393W        W90734  39.905   3.349  14.939
22394W        W90735   5.710   6.193   3.240
22395W        W90736  41.466  39.336   2.694
22396W        W90737  20.751  11.282  14.512
22397W        W90738  29.164  42.343   3.839
22398W        W90739  34.443  13.599  11.120
22399W        W90740  33.878  40.970  13.447
22400W        W90741  31.002  11.228  12.468
22401W        W90742  15.269  32.551  10.072
22402W        W90743  26.485   9.721   0.310
22403W        W90744  15.196  26.147   4.757
22404W        W90745  28.077  15.220   2.401
22405W        W90746  27.065  31.442   0.357
22406W        W90747  25.671  22.738  14.308
22407W        W90748  28.025   6.804  10.022
22408W        W90749  28.522  31.967  13.467
22409W        W90750  17.713  42.946   0.965
22410W        W90751   3.390  26.034  11.043
22411W        W90752  34.545   0.958   3.259
22412W        W90753  29.985  41.391  13.898
22413W        W90754  15.184  32.605  14.503
22414W        W90755  35.527  27.180   2.748
22415W        W90756  26.019  10.773  13.500
22416W        W90757  43.967  37.336   1.406
22417W        W90758  10.372   7.675  13.808
22418W        W90759  30.921  42.932   3.796
22419W        W90760  17.210  14.176   4.672
22420W        W90761  42.911  16.748   0.826
22421W        W90762  28.018  40.994   0.378
22422W        W90763  13.704  20.080   4.152
22423W        W90764   3.395  44.769   1.249
22424W        W90765  26.562  17.760  11.955
22425W        W90766  10.315  18.616   5.226
22426W        W90767   3.366   5.851  14.477
22427W        W90768  32.427  43.297   1.857
22428W        W90769  32.597  14.703  11.403
22429W        W90770  28.466  28.552  13.932
22430W        W90771  34.995   0.430   3.680
22431W        W90772  15.699  23.594   4.620
22432W        W90773  39.371   9.873   2.322
22433W        W90774  14.796  32.449  12.972
22434W        W90775   4.791  19.262  13.339
22435W        W90776  41.322  11.848  14.382
22436W        W90777  42.858  16.106   1.870
22437W        W90778  30.485  44.319   0.732
22438W        W90779  23.228  14.598  13.866
22439W        W90780  29.608  37.439   5.218
22440W        W90781  14.793   9.265   3.713
22441W        W90782  20.209  40.518  13.926
22442W        W90783  31.937   6.367   4.190
22443W        W90784   7.343  22.741   1.789
22444W        W90785  43.470  23.097  12.829
22445W        W90786   5.242  14.625  14.469
22446W        W90787  25.051  44.975   1.899
22447W        W90788  17.685  31.637   2.284
22448W        W90789  39.036  19.740  10.561
22449W        W90790  30.099  27.088  13.829
22450W        W90791  39.532  38.867   2.263
22451W        W90792   3.764  18.756  11.963
22452W        W90793  10.707  13.801  13.354
22453W        W90794   3.231   4.756   3.758
22454W        W90795  41.464  11.744  11.860
22455W        W90796  29.608  33.974   3.177
22456W        W90797   4.370  15.735  10.482
22457W        W90798   6.262  40.881   1.844
22458W        W90799  23.067   4.763   2.350
22459W        W90800   2.328  13.776  11.529
22460W        W90801  23.064  21.673  14.506
22461W        W90802  16.098  28.447   4.234
22462W        W90803  22.092  10.713   4.604
22463W        W90804   4.935  44.457  14.973
22464W        W90805  26.465  44.311  13.482
22465W        W90806  38.565  20.206  11.859
22466W        W90807   6.219  40.409  10.539
22467W        W90808  38.863   5.715  13.474
22468W        W90809  25.483   3.319  13.905
22469W        W90810  12.224  11.831  11.076
22470W        W90811  38.571   2.238  13.008
22471W        W90812  24.988  31.004  12.969
22472W        W90813  12.835   0.471   4.761
22473W        W90814  20.271  29.584   2.284
22474W        W90815  31.542  40.848   2.299
22475W        W90816  10.325  24.103   0.887
22476W        W90817  15.703  16.139   0.359
22477W        W90818  28.936   0.872  10.477
22478W        W90819  41.479  33.947   0.440
22479W        W90820  28.040  41.417   2.823
22480W        W90821  14.284  31.419   4.126
22481W        W90822   8.710  24.626  12.905
22482W        W90823  29.024   3.226   3.272
22483W        W90824  34.050  13.314  13.889
22484W        W90825  36.954  12.812   2.860
22485W        W90826   4.290  16.257   2.268
22486W        W90827  15.671  10.297   1.853
22487W        W90828  24.554  17.295  14.759
22488W        W90829  36.532  25.192   1.787
22489W        W90830   2.355  11.310  12.901
22490W        W90831   6.341  12.755   4.331
22491W        W90832  16.315   1.830  11.050
22492W        W90833  42.379  25.013   0.952
22493W        W90834  33.124  24.039  10.612
22494W        W90835   4.318  24.699   3.370
22495W        W90836  23.620  31.616  11.372
22496W        W90837  34.029  29.536  11.129
22497W        W90838   9.273  24.503  11.970
22498W        W90839  21.025  26.668   2.344
22499W        W90840  41.917  22.598   0.925
22500W        W90841  21.645  37.530  12.985
22501W        W90842  17.257  31.405  11.494
22502W        W90843   3.408  35.435  11.049
22503W        W90844  13.664  28.034  13.362
22504W        W90845  16.806  17.665  13.481
22505W        W90846  10.674   4.812  10.609
22506W        W90847  29.930  26.568  10.436
22507W        W90848  23.668  25.067   0.947
22508W        W90849  30.443  19.043   2.205
22509W        W90850   2.385  36.985   2.273
22510W        W90851   5.424  15.717  14.515
22511W        W90852  20.224  31.069  14.806
22512W        W90853   4.428   8.792   3.680
22513W        W90854  14.733  26.043   4.249
22514W        W90855  25.978  20.123  12.390
22515W        W90856  28.160   6.390   0.437
22516W        W90857   4.428  19.626  14.981
22517W        W90858  26.200  17.234  12.903
22518W        W90859  34.006   3.754  13.504
22519W        W90860  10.803  40.799  13.831
22520W        W90861  25.691  22.700  12.918
22521W        W90862   0.268  40.318   2.693
22522W        W90863  34.531  30.928   3.640
22523W        W90864  41.443  17.712   2.737
22524W        W90865  19.201  33.489   4.248
22525W        W90866  20.576   7.701   4.185
22526W        W90867   7.396  12.117  11.980
22527W        W90868  12.285  22.187  10.588
22528W        W90869  39.059  29.120  13.539
22529W        W90870   9.796  29.070   0.401
22530W        W90871  30.509  42.422   4.668
22531W        W90872  26.678  10.651   1.303
22532W        W90873  12.353  16.675   2.863
22533W        W90874  18.058   4.809   1.751
22534W        W90875  17.668  34.067  13.819
22535W        W90876  12.306  18.238   0.319
22536W        W90877  12.612  32.968   1.901
22537W        W90878   4.301  34.461  13.355
22538W        W90879  38.498  10.709  11.440
22539W        W90880  21.045  27.177   3.729
22540W        W90881  36.444  26.678  13.905
22541W        W90882  30.637  42.024   5.315
22542W        W90883  32.476  17.744  13.035
22543W        W90884  42.844  28.074   0.412
22544W        W90885  37.395  25.979   4.791
22545W        W90886  22.216  19.116   2.331
22546W        W90887  38.927  35.024  12.474
22547W        W90888  44.446  26.979  12.932
22548W        W90889  35.504  39.018  14.835
22549W        W90890  32.500  15.822   0.845
22550W        W90891  41.436  22.063   0.331
22551W        W90892  10.810  26.139   2.337
22552W        W90893   6.870   2.386   4.736
22553W        W90894  34.402  20.583  13.440
22554W        W90895  15.170  23.058  14.474
22555W        W90896  21.230  25.975   0.343
22556W        W90897  36.507  34.432  13.955
22557W        W90898  41.810   2.948  13.378
22558W        W90899  36.468  14.723  13.322
22559W        W90900  22.721  25.042  13.929
22560W        W90901  12.816  29.076   3.179
22561W        W90902  27.606   6.301  14.864
22562W        W90903   7.722   8.169   0.425
22563W        W90904  13.243  28.185  11.473
22564W        W90905  12.822  13.623  13.332
22565W        W90906  35.472  28.496  13.489
22566W        W90907   6.915  32.063   3.350
22567W        W90908  12.250  41.024  12.875
22568W        W90909   6.911  36.984  10.424
22569W        W90910   7.689   9.175  10.920
22570W        W90911  29.490   6.279   3.727
22571W        W90912   1.465  20.097   0.382
22572W        W90913  29.930  30.077   0.338
22573W        W90914  33.551  33.553   5.264
22574W        W90915   6.382  32.454  11.511
22575W        W90916  31.108  22.208  14.884
22576W        W90917  32.461  34.387   4.647
22577W        W90918  36.483  40.433  11.897
22578W        W90919  33.565  28.109  12.413
22579W        W90920  22.205  37.939   3.857
22580W        W90921  34.067  40.425   4.759
22581W        W90922  31.949  37.534   4.253
22582W        W90923  39.948  40.513   1.408
22583W        W90924  29.082  26.647  12.892
22584W        W90925  27.672  12.855   0.396
22585W        W90926  31.608  27.563   1.236
22586W        W90927  13.737  42.793  14.435
22587W        W90928  40.505  32.515   4.234
22588W        W90929   0.798   7.695  11.110
22589W        W90930   9.304   8.697   1.361
22590W        W90931   8.254  42.340   2.334
22591W        W90932  17.620  41.338  11.497
22592W        W90933  18.153  19.259   4.812
22593W        W90934  41.800  39.502  14.323
22594W        W90935  35.373  30.631  13.517
22595W        W90936  29.653  27.465   4.642
22596W        W90937  18.631   7.796  13.849
22597W        W90938  24.509  32.142  11.524
22598W        W90939  44.011  33.592  12.435
22599W        W90940   6.401   3.881  10.562
22600W        W90941  42.960  22.115   0.370
22601W        W90942  31.631   6.331  12.007
22602W        W90943   4.862  23.109  14.934
22603W        W90944  11.733   1.312  10.404
22604W        W90945  42.941  28.094  14.364
22605W        W90946  28.060  17.748  13.032
22606W        W90947   7.277  31.961  13.465
22607W        W90948  31.039   2.854   1.292
22608W        W90949  16.612  22.083  14.918
22609W        W90950  33.955  20.544   0.287
22610W        W90951   1.812  26.598  13.531
22611W        W90952   1.748  34.385  11.564
22612W        W90953   0.883  11.207   3.195
22613W        W90954  41.013  41.794  11.574
22614W        W90955  28.929  37.469   2.363
22615W        W90956  24.629  22.085  11.043
22616W        W90957  42.025   9.339   1.793
22617W        W90958   0.830  18.116   3.321
22618W        W90959   9.683  38.886   0.285
22619W        W90960  24.011  18.565   0.341
22620W        W90961  31.926   8.841   9.996
22621W        W90962  18.089  30.559  11.940
22622W        W90963  37.967  17.732  12.899
22623W        W90964  43.777  26.086   2.781
22624W        W90965  33.610  23.560  10.441
22625W        W90966  42.966   1.899   1.856
22626W        W90967  41.435  25.102   2.836
22627W        W90968  27.021  29.560   0.847
22628W        W90969  36.488  36.941   3.260
22629W        W90970  10.327  38.427  11.574
22630W        W90971  35.436  11.772  12.903
22631W        W90972  31.955  21.622   2.840
22632W        W90973  35.514  30.977  11.983
22633W        W90974  21.242  26.561   0.384
22634W        W90975  15.757  38.514  10.078
22635W        W90976  15.200  30.593  13.993
22636W        W90977  31.018   9.332  12.988
22637W        W90978  37.371   7.868  14.463
22638W        W90979   8.842  13.169   0.798
22639W        W90980  36.369   0.920   2.811
22640W        W90981  10.810  21.075   2.256
22641W        W90982  17.748  26.035   0.278
22642W        W90983   3.356  43.841  14.365
22643W        W90984  32.446   4.926  14.867
22644W        W90985  38.385  20.262  12.880
22645W        W90986  36.513  41.803   2.338
22646W        W90987  44.878  12.312  10.436
22647W        W90988   4.310  17.796  11.515
22648W        W90989  16.636  41.921  11.959
22649W        W90990  43.270  30.495   1.285
22650W        W90991  30.001  26.574   1.705
22651W        W90992  26.696   4.944   1.361
22652W        W90993  13.624  38.456  14.407
22653W        W90994  29.575  39.516  10.945
22654W        W90995  34.955   7.741  11.038
22655W        W90996  27.463   6.802  13.386
22656W        W90997   9.205   7.341   0.422
22657W        W90998  38.352   1.341   2.340
22658W        W90999  22.585  38.040  14.892
22659W        W91000  35.452  33.425  11.109
22660W        W91001  15.260   9.284   2.713
22661W        W91002   8.250  11.802  11.891
22662W        W91003  16.246  23.666  14.343
22663W        W91004  36.368  38.403   3.269
22664W        W91005  25.120  25.672  11.381
22665W        W91006  22.168  23.710   2.282
22666W        W91007  41.897  18.171   4.283
22667W        W91008  29.658  38.984  11.108
22668W        W91009  33.621   3.870   4.633
22669W        W91010  16.166  20.676  10.575
22670W        W91011  43.348  15.223   2.298
22671W        W91012  20.224  31.579   4.730
22672W        W91013  20.269   6.240  10.516
22673W        W91014  34.609  34.502  12.940
22674W        W91015   8.317  15.771   4.295
22675W        W91016   4.840  29.957   4.800
22676W        W91017  37.056   6.855   2.233
22677W        W91018   0.755  30.487   0.396
22678W        W91019  10.182   9.266   5.233
22679W        W91020   1.862   8.362   0.917
22680W        W91021  13.284   6.780  14.898
22681W        W91022  29.156  37.838   2.814
22682W        W91023  40.338  16.110   4.192
22683W        W91024  41.874  34.010   1.846
22684W        W91025  36.865  34.561   4.152
22685W        W91026  25.041  27.964  13.831
22686W        W91027  44.408  25.638   1.761
22687W        W91028  23.078  38.071  13.323
22688W        W91029   0.432   7.716   4.763
22689W        W91030  41.383  21.101   3.218
22690W        W91031  32.891  35.591   0.938
22691W        W91032  18.777   9.659  11.514
22692W        W91033  38.488  30.115  10.617
22693W        W91034  32.908   7.679  14.457
22694W        W91035   7.774  14.778   3.690
22695W        W91036  17.655  42.431  14.799
22696W        W91037   9.701  38.074   1.899
22697W        W91038   9.150   3.717  12.896
22698W        W91039   3.346  22.058   0.385
22699W        W91040  12.792  44.945  11.088
22700W        W91041   4.739   3.752   4.675
22701W        W91042  31.898   8.864   4.655
22702W        W91043  31.520  38.409  14.800
22703W        W91044   0.870  26.200  14.822
22704W        W91045  36.455  23.102   3.228
22705W        W91046  43.397   5.800   0.410
22706W        W91047  20.110  17.565   0.414
22707W        W91048   5.871   0.440   4.805
22708W        W91049  28.079  44.411  11.573
22709W        W91050   3.748   8.793  11.565
22710W        W91051  10.313  11.136  13.906
22711W        W91052   0.923  18.550   2.227
22712W        W91053  17.186  11.657   2.881
22713W        W91054  41.847  38.356   0.435
22714W        W91055  34.579  18.638  14.442
22715W        W91056  12.188  31.424   0.351
22716W        W91057  20.047   9.765  12.961
22717W        W91058  29.113  33.555   4.828
22718W        W91059  27.575  35.945   2.684
22719W        W91060   5.921  43.287  10.585
22720W        W91061  22.103  34.055   1.812
22721W        W91062  43.902   4.723   3.720
22722W        W91063  34.087  17.268   3.856
22723W        W91064  29.572  15.764   4.625
22724W        W91065  33.087  43.314   4.771
22725W        W91066  12.195  22.653  14.409
22726W        W91067  19.765  44.008   3.307
22727W        W91068  37.362  15.634   0.467
22728W        W91069   1.918  44.458  14.385
22729W        W91070   6.710  13.800  10.644
22730W        W91071  31.100  34.556  10.411
22731W        W91072  16.660  29.575  12.523
22732W        W91073  32.108  35.963   3.234
22733W        W91074   4.322   2.361  14.323
22734W        W91075  24.483  23.127   2.665
22735W        W91076  41.917  28.961  13.419
22736W        W91077  25.142  36.534   4.153
22737W        W91078  34.411   6.262   1.342
22738W        W91079   9.697  12.737   0.412
22739W        W91080   4.434  40.838   1.822
22740W        W91081  16.738   9.655  10.574
22741W        W91082  10.364  30.993  11.990
22742W        W91083  42.824  25.491  10.565
22743W        W91084  26.088   3.385   3.174
22744W        W91085  23.053  24.538   3.865
22745W        W91086  19.627  17.078  14.351
22746W        W91087   3.877  40.973  10.467
22747W        W91088  32.008  32.123   4.166
22748W        W91089  44.944   7.873  10.933
22749W        W91090  24.206  33.092  10.945
22750W        W91091   8.854  32.429   4.313
22751W        W91092  29.505  10.712   2.839
22752W        W91093   6.264  27.634  14.375
22753W        W91094  35.428  23.605  14.405
22754W        W91095  39.040  34.951   2.363
22755W        W91096   2.349   3.714   1.730
22756W        W91097  11.699   3.373   4.258
22757W        W91098  35.443  14.107  13.791
22758W        W91099  25.530   9.864  14.032
22759W        W91100  42.942  22.097  10.949
22760W        W91101  17.224  35.581   4.157
22761W        W91102  14.725   9.723   1.915
22762W        W91103   2.283  40.030   1.404
22763W        W91104   8.890  39.901  14.826
22764W        W91105  42.447   5.751   3.706
22765W        W91106  12.230  44.277  12.483
22766W        W91107   7.369  34.042  14.773
22767W        W91108  34.972  21.116   1.785
22768W        W91109  33.443  24.202   4.774
22769W        W91110  43.930  41.004   0.933
22770W        W91111  15.681  26.101  14.363
22771W        W91112  34.028   5.727  11.481
22772W        W91113  43.336  28.986   4.765
22773W        W91114   7.179  37.480  12.888
22774W        W91115  33.573   9.154   1.450
22775W        W91116  17.705  16.693   2.321
22776W        W91117  12.286  41.909  10.537
22777W        W91118  36.063  14.799  13.010
22778W        W91119   0.890  18.576  14.936
22779W        W91120  21.257   1.815   9.974
22780W        W91121   3.908  42.839   2.375
22781W        W91122  36.548  10.836   2.410
22782W        W91123  35.529  44.811   1.900
22783W        W91124  26.155  41.405   4.341
22784W        W91125  32.554  24.051   0.762
22785W        W91126  26.481  18.591   3.743
22786W        W91127  39.432  13.127  13.511
22787W        W91128  32.062  11.259  13.507
22788W        W91129  19.241   1.810   0.347
22789W        W91130   6.221  16.799   1.788
22790W        W91131   5.323  36.406   0.481
22791W        W91132  22.995  41.969   0.350
22792W        W91133  15.261  36.092   1.232
22793W        W91134  14.735  18.758  13.820
22794W        W91135  17.778   7.754  12.544
22795W        W91136  16.708  26.093   0.726
22796W        W91137  19.213  19.066  14.896
22797W        W91138   4.902   2.455  13.964
22798W        W91139  37.854  19.242   2.750
22799W        W91140  14.692  28.013   9.967
22800W        W91141  28.967   3.460   5.303
22801W        W91142   5.425  27.627  11.947
22802W        W91143  10.379  10.374   2.340
22803W        W91144  16.694   4.940   0.881
22804W        W91145  42.384  38.515   3.271
22805W        W91146  32.966  14.255   5.268
22806W        W91147  29.471  24.190   4.158
22807W        W91148  41.390  28.071  12.410
22808W        W91149  37.086  35.523   0.748
22809W        W91150  14.735  33.053   1.900
22810W        W91151  26.145   2.945   4.258
22811W        W91152  19.642  28.597  10.450
22812W        W91153  30.529  14.268   2.786
22813W        W91154  35.536  42.357  11.020
22814W        W91155  41.037  42.462  14.006
22815W        W91156   6.261   0.819  13.439
22816W        W91157   5.208  25.644   3.347
22817W        W91158  15.591   1.887  12.395
22818W        W91159  18.240  44.948   2.765
22819W        W91160  36.349   7.333  13.993
22820W        W91161  32.055  39.530  14.423
22821W        W91162  35.089  14.114   1.240
22822W        W91163   2.787   3.269  12.912
22823W        W91164   6.259   9.809   1.410
22824W        W91165   5.260  30.641  13.967
22825W        W91166  16.610  34.495   0.397
22826W        W91167  37.544   3.289  14.893
22827W        W91168   6.348  42.893  11.991
22828W        W91169  33.070  25.649  14.019
22829W        W91170  12.838   7.856   4.688
22830W        W91171  15.681  36.997   0.378
22831W        W91172   5.710  16.115   4.623
22832W        W91173  25.148   1.772   0.834
22833W        W91174   7.381  27.650  13.363
22834W        W91175  26.152  38.927   3.693
22835W        W91176  28.116   8.336  11.883
22836W        W91177  16.735  16.312   4.349
22837W        W91178  29.434   0.423   0.949
22838W        W91179   5.331   0.861  13.407
22839W        W91180   3.946   2.921  10.951
22840W        W91181  16.658  14.716   3.232
22841W        W91182  43.333   9.803  14.802
22842W        W91183  15.587   6.224  10.456
22843W        W91184  15.818  34.421  11.429
22844W        W91185  17.192  43.970   3.322
22845W        W91186   0.348  11.650   2.385
22846W        W91187  22.093   0.387  11.885
22847W        W91188  36.081  19.699   4.655
22848W        W91189  38.853  36.968   0.477
22849W        W91190   5.902  17.203  11.415
22850W        W91191  30.651  16.254  10.570
22851W        W91192  15.733  43.014   0.853
22852W        W91193   9.703   4.866   1.286
22853W        W91194  14.656  31.047   3.146
22854W        W91195  24.629  32.434   0.439
22855W        W91196  43.787  44.463  10.911
22856W        W91197  10.635  43.852   3.370
22857W        W91198  10.655  38.476  10.607
22858W        W91199  14.224   8.744   3.376
22859W        W91200  37.936  10.873   0.918
22860W        W91201  38.422  44.447   4.717
22861W        W91202   0.966   1.428  12.404
22862W        W91203   5.826   9.335  12.927
22863W        W91204  37.570  19.285  11.106
22864W        W91205  31.481   5.336   0.285
22865W        W91206  12.656  38.990  14.973
22866W        W91207  42.862  39.063   0.798
22867W        W91208  15.181   0.808  14.850
22868W        W91209  35.546  17.623   1.220
22869W        W91210  35.863  30.424   1.410
22870W        W91211  39.492   8.385  14.772
22871W        W91212  11.259  26.094   3.857
22872W        W91213  11.253   5.215  10.452
22873W        W91214   0.815  31.504   0.251
22874W        W91215  41.438   0.400  13.380
22875W        W91216  17.740   8.294   3.677
22876W        W91217  16.603  29.103   1.814
22877W        W91218  23.232   6.218  12.842
22878W        W91219   5.840  19.217   1.912
22879W        W91220  15.742   8.197  12.073
22880W        W91221  10.777  29.456  13.930
22881W        W91222  13.122  17.274  11.559
22882W        W91223   6.389  23.047  12.383
22883W        W91224  31.143  17.207   0.821
22884W        W91225  16.275  23.494   3.646
22885W        W91226   6.838  14.589  12.057
22886W        W91227  33.044   8.899   3.857
22887W        W91228  20.176  27.152  10.602
22888W        W91229  20.215  23.996  11.529
22889W        W91230  39.444   6.874  12.073
22890W        W91231  44.902   4.429   1.274
22891W        W91232  11.670  41.845  14.871
22892W        W91233   9.256  12.758   1.400
22893W        W91234  35.560  35.599   3.703
22894W        W91235  26.109  29.478  13.535
22895W        W91236   9.247  13.714   0.921
22896W        W91237   8.750  38.356   3.679
22897W        W91238  38.381  10.170  10.902
22898W        W91239   2.938  15.313   1.741
22899W        W91240  36.571   6.701   3.741
22900W        W91241  35.972  23.142   1.334
22901W        W91242   4.402  16.237   4.696
22902W        W91243  30.443   6.774   1.868
22903W        W91244  39.446  31.022   3.322
22904W        W91245  38.495  32.435  10.979
22905W        W91246   4.398  13.701   4.715
22906W        W91247   2.411  15.778  12.393
22907W        W91248  36.024   8.899  13.045
22908W        W91249  43.459  18.547   9.567
22909W        W91250  24.064   0.979   2.316
22910W        W91251  36.984  13.181  14.443
22911W        W91252  14.243  28.120   4.117
22912W        W91253   0.897  39.396   1.697
22913W        W91254  42.825  24.129  14.786
22914W        W91255  41.311  44.313  11.372
22915W        W91256  23.490   5.438  14.493
22916W        W91257  24.514  37.915  11.481
22917W        W91258  20.090  26.151   3.238
22918W        W91259  35.589   3.391   3.359
22919W        W91260  32.956  29.524  13.794
22920W        W91261  15.132  26.979   2.288
22921W        W91262   2.365  27.968  10.955
22922W        W91263  25.633  18.098   0.755
22923W        W91264  27.171  32.534  13.815
22924W        W91265  15.800  14.272   1.282
22925W        W91266  22.529  26.635  10.943
22926W        W91267  43.879   0.948  11.474
22927W        W91268  30.947  32.526  13.463
22928W        W91269  26.600  35.454   1.439
22929W        W91270  44.764  36.568   4.732
22930W        W91271   3.895  23.631  13.506
22931W        W91272   5.389  32.014  10.449
22932W        W91273   9.187   1.915  10.420
22933W        W91274  31.024   2.303  12.923
22934W        W91275  33.536   0.328  11.598
22935W        W91276   1.336  29.151  11.387
22936W        W91277  33.478  28.657   3.693
22937W        W91278  20.141  39.522  13.873
22938W        W91279  44.950  28.609  11.380
22939W        W91280  21.135   4.353  13.544
22940W        W91281  19.584  29.121   4.605
22941W        W91282  17.193  16.278  14.341
22942W        W91283  33.087  20.079   3.252
22943W        W91284  13.677   5.400   3.829
22944W        W91285  30.995  33.110   1.810
22945W        W91286   4.402  13.843   0.395
22946W        W91287  29.491  14.650  13.367
22947W        W91288   2.728  22.043  10.426
22948W        W91289  24.564  25.138   1.434
22949W        W91290  38.393   5.800  10.896
22950W        W91291   6.678   4.883  13.492
22951W        W91292   3.325  31.077  14.475
22952W        W91293  42.496  23.210   3.277
22953W        W91294  26.043  29.565   5.302
22954W        W91295  25.630  28.458   5.160
22955W        W91296  15.778  24.009   2.664
22956W        W91297  44.991   8.202   3.811
22957W        W91298  19.133  32.441  13.976
22958W        W91299  41.803  35.539   2.903
22959W        W91300   5.399  28.449   3.263
22960W        W91301  42.450  13.127   0.452
22961W        W91302  21.200  11.653   1.881
22962W        W91303   6.197  44.753  11.922
22963W        W91304  32.635  15.174   3.760
22964W        W91305  44.904  20.077  12.541
22965W        W91306   4.418  18.253   3.174
22966W        W91307   3.710   9.301  10.516
22967W        W91308  32.064  14.315  12.826
22968W        W91309  28.462   8.360   0.341
22969W        W91310  31.645  22.655  14.878
22970W        W91311  35.427  28.435   1.892
22971W        W91312   2.872  28.151  10.924
22972W        W91313  39.836  13.113  13.459
22973W        W91314  24.147  10.791  14.889
22974W        W91315  43.276  37.580   4.259
22975W        W91316   0.370  33.969   3.723
22976W        W91317   2.731  42.317   4.753
22977W        W91318  35.046  44.979   1.873
22978W        W91319   3.357  30.145  10.911
22979W        W91320   9.664  24.522  13.373
22980W        W91321  38.368   1.412  11.512
22981W        W91322  18.164   4.436   3.693
22982W        W91323  27.025  44.890   0.950
22983W        W91324  24.179  30.991   4.696
22984W        W91325  32.988   5.795   4.810
22985W        W91326  20.537  35.083  11.992
22986W        W91327  35.962  35.058   4.324
22987W        W91328  17.301  32.946   0.770
22988W        W91329   3.244   9.214  10.422
22989W        W91330  33.924  11.194  12.565
22990W        W91331   0.943  17.283   0.343
22991W        W91332  32.069   7.219   4.632
22992W        W91333  44.796   0.277   2.198
22993W        W91334  23.640  40.821  10.432
22994W        W91335  28.090  29.014   0.740
22995W        W91336  43.271  42.483   2.182
22996W        W91337  33.914  16.228   1.383
22997W        W91338  12.753  38.479   3.370
22998W        W91339  39.367  18.550  14.898
22999W        W91340  31.556  29.524  14.442
23000W        W91341  33.874  30.987  11.430
23001W        W91342  39.518  17.618  13.986
23002W        W91343   0.348  25.644   4.699
23003W        W91344  11.690  12.249   3.219
23004W        W91345  15.604  38.435   0.448
23005W        W91346  41.397   7.223   3.351
23006W        W91347  38.375  17.106  12.975
23007W        W91348   6.849  15.789   2.806
23008W        W91349  43.350  27.511   4.648
23009W        W91350  13.329   0.463  11.402
23010W        W91351  36.537  43.432   0.253
23011W        W91352  38.826  35.020  14.008
23012W        W91353  44.851  41.303   0.450
23013W        W91354  36.843   5.353  14.323
23014W        W91355   3.447  27.076   3.643
23015W        W91356  11.625  20.272  14.507
23016W        W91357  40.854  33.017  12.542
23017W        W91358  31.055  10.788  10.503
23018W        W91359  35.603  31.924  13.059
23019W        W91360  12.337   8.847  11.110
23020W        W91361  15.787  40.895   3.229
23021W        W91362  29.558  18.052  10.585
23022W        W91363   1.910  37.932  13.439
23023W        W91364   4.848  32.910   0.738
23024W        W91365   6.291  25.196  11.976
23025W        W91366  26.485   3.310   1.933
23026W        W91367   9.392  22.172  10.505
23027W        W91368  20.675   8.810  13.845
23028W        W91369  19.614  11.778  14.370
23029W        W91370  11.628  42.345  12.952
23030W        W91371  17.615   1.298   1.849
23031W        W91372   7.242  40.510  13.345
23032W        W91373  16.586  25.078  13.391
23033W        W91374   7.260  30.060  10.497
23034W        W91375   3.863  19.663   0.775
23035W        W91376   6.219  13.124  13.792
23036W        W91377  38.464  36.030  11.097
23037W        W91378  34.933  10.809  14.921
23038W        W91379  11.369  33.981   1.725
23039W        W91380   5.325   4.331  11.495
23040W        W91381   7.296  10.666   4.305
23041W        W91382  28.616  33.494   3.735
23042W        W91383   8.308  23.673  13.356
23043W        W91384  33.531  30.006   4.736
23044W        W91385  30.958  38.430  13.454
23045W        W91386  23.194  25.033  11.409
23046W        W91387   2.292  41.501  11.443
23047W        W91388  13.281  41.360   5.173
23048W        W91389  44.899  10.348   0.346
23049W        W91390   2.951   7.788   2.827
23050W        W91391  31.087  24.650  14.278
23051W        W91392  17.597  31.592   4.838
23052W        W91393  18.740  34.996   4.328
23053W        W91394  26.492  22.506   0.355
23054W        W91395   7.371  27.095   0.258
23055W        W91396  39.942  34.068   2.379
23056W        W91397  10.172  12.769  12.478
23057W        W91398  32.969  18.120   1.373
23058W        W91399  22.016   6.817  14.456
23059W        W91400  17.679   6.350  10.432
23060W        W91401   7.824  26.208  14.019
23061W        W91402  41.351  31.576   1.422
23062W        W91403  25.575   1.841   0.397
23063W        W91404  24.542  20.053   4.205
23064W        W91405   2.328  24.136   4.203
23065W        W91406  11.285  14.820  10.543
23066W        W91407  17.070  17.621   0.943
23067W        W91408  33.907   2.914   3.782
23068W        W91409  43.008  23.094   4.282
23069W        W91410  35.489   5.206   1.736
23070W        W91411  42.332   9.806  10.566
23071W        W91412  41.889  16.235   1.345
23072W        W91413   2.836  38.341   0.349
23073W        W91414  25.643  11.625  12.497
23074W        W91415  30.018  30.606  14.906
23075W        W91416  17.266  35.911  13.471
23076W        W91417  21.547  20.191   0.935
23077W        W91418   6.264  21.157  14.434
23078W        W91419  40.429  26.661   1.845
23079W        W91420  28.534  36.434  12.371
23080W        W91421   6.761   7.828   2.903
23081W        W91422   7.223  31.506   3.704
23082W        W91423  26.628  22.645  13.362
23083W        W91424  14.224  34.963  11.074
23084W        W91425   7.684  31.427  12.492
23085W        W91426  16.303  39.969  14.781
23086W        W91427   4.911  17.071  13.815
23087W        W91428  12.633  39.841  12.085
23088W        W91429  32.601  30.082   4.705
23089W        W91430   6.804  35.526   1.776
23090W        W91431  21.616  33.911   1.278
23091W        W91432  29.662   7.172   0.462
23092W        W91433   9.652  25.979  13.470
23093W        W91434  32.082  16.666  12.384
23094W        W91435  29.631  28.478  11.480
23095W        W91436  27.604  24.168   4.792
23096W        W91437  26.084  35.544  13.510
23097W        W91438   5.244  18.285   0.263
23098W        W91439  34.598  22.620  10.604
23099W        W91440  42.409  29.461   2.781
23100W        W91441  29.496  25.027  10.467
23101W        W91442  44.313  36.538  13.372
23102W        W91443  16.770   2.272  10.441
23103W        W91444  18.273  32.055   3.367
23104W        W91445  21.154  30.469   1.917
23105W        W91446  10.295   4.252  11.977
23106W        W91447  23.088  15.086  11.058
23107W        W91448  29.651  29.509   2.681
23108W        W91449  23.193  35.089   3.732
23109W        W91450  14.703  18.551  12.065
23110W        W91451   1.371  41.943  12.532
23111W        W91452  24.223   6.183  10.892
23112W        W91453  18.694  21.101  12.470
23113W        W91454  36.503  20.560   1.713
23114W        W91455  20.619  25.120   0.819
23115W        W91456   3.292  43.356   1.403
23116W        W91457  29.953  14.102  13.975
23117W        W91458  13.336  28.183   0.387
23118W        W91459  35.056  32.943   0.818
23119W        W91460   1.776  39.877   1.368
23120W        W91461   0.348  29.570   0.432
23121W        W91462   9.331  42.914   0.480
23122W        W91463  37.028  19.723   4.308
23123W        W91464  33.536  11.763   3.805
23124W        W91465  42.953  31.594   1.431
23125W        W91466  41.394  43.850   4.602
23126W        W91467  38.970  21.619   2.769
23127W        W91468  34.925  41.456  11.415
23128W        W91469  38.976  17.202  10.887
23129W        W91470  36.481  42.445   2.373
23130W        W91471  31.410  35.550   3.634
23131W        W91472   5.227  35.482  12.092
23132W        W91473  22.024  20.584   0.798
23133W        W91474   2.869   6.889  11.447
23134W        W91475  39.540  37.009  14.920
23135W        W91476  15.803   8.671   0.947
23136W        W91477  38.873  24.508  13.431
23137W        W91478  12.233  14.169   1.310
23138W        W91479  13.656  14.734   4.303
23139W        W91480   4.701  30.462   0.733
23140W        W91481  37.473  43.474   0.335
23141W        W91482  32.523  38.042   0.410
23142W        W91483  26.523  37.537  11.947
23143W        W91484  25.602  15.142  14.855
23144W        W91485  16.130  24.608   0.922
23145W        W91486  15.222  23.518  11.967
23146W        W91487   8.226  33.907   1.857
23147W        W91488  28.438  38.333   4.692
23148W        W91489  44.497  38.053   2.396
23149W        W91490  40.911  41.396   2.795
23150W        W91491  16.683  12.680  12.967
23151W        W91492  13.791  10.325   2.681
23152W        W91493  25.175  26.632  10.151
23153W        W91494  19.558  16.689  11.081
23154W        W91495  18.668  25.497  11.941
23155W        W91496  31.489  30.054  12.868
23156W        W91497   7.780  22.146   4.689
23157W        W91498  18.076  13.172   0.801
23158W        W91499  31.496  25.063  11.893
23159W        W91500   3.952   4.721  14.832
23160W        W91501  41.839  16.232  14.494
23161W        W91502  36.482  11.307   2.321
23162W        W91503  25.707  10.846  13.917
23163W        W91504   0.767  12.188   4.748
23164W        W91505  26.047  42.412   1.741
23165W        W91506   5.830  27.677   1.720
23166W        W91507   4.854  28.448  12.559
23167W        W91508  13.786  19.556   1.783
23168W        W91509  22.634  34.947  11.077
23169W        W91510  24.130  41.035   0.909
23170W        W91511  15.300  39.891   4.223
23171W        W91512  38.895  37.074  10.496
23172W        W91513  39.836  42.960  14.437
23173W        W91514  25.604  33.611   4.247
23174W        W91515  23.497  33.026  12.083
23175W        W91516  42.490   5.822  11.568
23176W        W91517  17.630  31.563   3.291
23177W        W91518   3.735  39.410   3.338
23178W        W91519  41.840  20.041  14.780
23179W        W91520   1.453  22.253  10.534
23180W        W91521  18.216  26.504  13.879
23181W        W91522  11.749   9.825  13.939
23182W        W91523  33.407  35.054  12.890
23183W        W91524  36.943  22.691  12.424
23184W        W91525  34.911  14.783  11.442
23185W        W91526  24.220  44.885  11.573
23186W        W91527  25.616  21.098   2.286
23187W        W91528  42.885  41.527  10.948
23188W        W91529  38.069  10.185  11.422
23189W        W91530  35.431  16.096   2.754
23190W        W91531  24.175   7.331   3.345
23191W        W91532  32.534  21.557   1.348
23192W        W91533  36.470  24.634  13.866
23193W        W91534  18.285  37.833  10.516
23194W        W91535  12.849  11.838   4.644
23195W        W91536   6.345  23.993  12.825
23196W        W91537   5.401   4.767  10.552
23197W        W91538  38.003  18.161  10.408
23198W        W91539   6.189  18.050   1.834
23199W        W91540  40.025  24.052  12.903
23200W        W91541  25.664  13.184   0.447
23201W        W91542  43.803   9.373  14.952
23202W        W91543  35.579  34.530  14.288
23203W        W91544  36.570  11.703  11.567
23204W        W91545   6.368  42.374   2.392
23205W        W91546  19.152  17.176  10.485
23206W        W91547  12.638  25.587   1.705
23207W        W91548  24.549   6.690   4.263
23208W        W91549  42.397  16.168  12.405
23209W        W91550  38.948   8.810  13.321
23210W        W91551  38.353   3.749   2.301
23211W        W91552  25.016  20.157   5.313
23212W        W91553  17.068  28.034   2.307
23213W        W91554  43.986  17.138   0.773
23214W        W91555   3.870  17.214   4.254
23215W        W91556  32.118  25.071   0.769
23216W        W91557   1.913  36.423  13.919
23217W        W91558  15.113   5.316  10.602
23218W        W91559  25.691  29.545  12.840
23219W        W91560  36.493   3.721  12.949
23220W        W91561  13.699  41.873   0.833
23221W        W91562  15.271  23.693   3.857
23222W        W91563   1.343   1.814   2.231
23223W        W91564  19.236  29.480  13.415
23224W        W91565  20.650  31.519  14.425
23225W        W91566  44.471  15.824   2.284
23226W        W91567   3.852  14.168   1.283
23227W        W91568  30.443   5.931   3.756
23228W        W91569  32.049  15.277   1.724
23229W        W91570  28.490  42.400   0.365
23230W        W91571   3.237  41.831  14.279
23231W        W91572   2.307   6.413   3.824
23232W        W91573   0.328   2.404  11.030
23233W        W91574  18.148   1.349  11.878
23234W        W91575  17.212  14.626   0.336
23235W        W91576   5.719  27.149  14.301
23236W        W91577  13.801  22.189  12.560
23237W        W91578  29.516  12.686   2.721
23238W        W91579  23.051   6.217   1.211
23239W        W91580  20.028  43.489   0.402
23240W        W91581  28.039  25.527   4.661
23241W        W91582  28.090  25.175  10.542
23242W        W91583   1.287  30.005   1.848
23243W        W91584  23.053  21.594   2.701
23244W        W91585  23.020  35.009  13.351
23245W        W91586  43.954  20.593   5.257
23246W        W91587  31.060  15.739  12.062
23247W        W91588   5.376  26.142   1.253
23248W        W91589  27.450  11.703  10.538
23249W        W91590  23.991  37.538   1.407
23250W        W91591   5.929  15.201  12.416
23251W        W91592  17.062   9.704   4.272
23252W        W91593  30.938  32.109   2.750
23253W        W91594  25.488  24.632   1.807
23254W        W91595   2.293   1.258  12.540
23255W        W91596   0.916  23.048   2.691
23256W        W91597   5.881  44.352  14.392
23257W        W91598   5.274  29.126  14.849
23258W        W91599   2.289   0.416  10.968
23259W        W91600  14.713  31.008  14.440
23260W        W91601  31.033  23.201  13.399
23261W        W91602  21.614  23.136  11.993
23262W        W91603   1.933   3.234   2.793
23263W        W91604  13.114  16.638  13.989
23264W        W91605  11.353   4.934  10.488
23265W        W91606   4.220  22.564  10.483
23266W        W91607  17.618  24.494   0.737
23267W        W91608  40.354   5.285  11.077
23268W        W91609  16.790  14.300   3.729
23269W        W91610   0.865   0.412   2.231
23270W        W91611  22.557   3.280  10.993
23271W        W91612  10.715  15.799  12.460
23272W        W91613  22.666  34.873   5.287
23273W        W91614  21.089  17.164   1.433
23274W        W91615  15.664  18.153   2.272
23275W        W91616  39.009  34.115  11.552
23276W        W91617  16.301  33.974   4.628
23277W        W91618  10.271  16.166  13.365
23278W        W91619   0.946  24.609   2.333
23279W        W91620  41.891  44.802  14.869
23280W        W91621  29.522  27.487   3.174
23281W        W91622  10.869  15.761  14.368
23282W        W91623   5.823  19.187  10.565
23283W        W91624   2.955  30.133  14.026
23284W        W91625  42.320  37.958   3.792
23285W        W91626   9.836  18.263  14.963
23286W        W91627  10.338  21.209  13.492
23287W        W91628   1.426  41.954   4.121
23288W        W91629   1.242  27.006   3.780
23289W        W91630   3.224  21.183  11.469
23290W        W91631  40.921  24.535  14.945
23291W        W91632  25.566   5.730   1.818
23292W        W91633  34.467   5.307   4.741
23293W        W91634  31.131  19.279  12.992
23294W        W91635  30.104  28.051   2.883
23295W        W91636  26.507   3.896  14.006
23296W        W91637  24.501  43.806  12.477
23297W        W91638  43.978  11.685   4.814
23298W        W91639   9.227   7.302   2.315
23299W        W91640  33.428  42.934   4.679
23300W        W91641  18.279  17.555  10.452
23301W        W91642  33.582  40.396   2.401
23302W        W91643  14.703  35.890  14.917
23303W        W91644  17.608  21.212   9.503
23304W        W91645  17.626  34.947  11.402
23305W        W91646  10.242  23.503   1.861
23306W        W91647   9.863  43.772  12.941
23307W        W91648  24.529  26.589   9.481
23308W        W91649   7.367  21.141   1.757
23309W        W91650  36.528  38.912   4.129
23310W        W91651  22.049  39.331  12.434
23311W        W91652  35.064  39.420   3.316
23312W        W91653  12.696  10.750   3.213
23313W        W91654  11.295  38.995  14.985
23314W        W91655  41.839  41.949   2.827
23315W        W91656  24.690   5.895  10.465
23316W        W91657  37.901  44.942   3.204
23317W        W91658  26.116  18.779   0.282
23318W        W91659  35.080  35.950  13.503
23319W        W91660  19.650  22.140  14.505
23320W        W91661  35.892  40.007  14.951
23321W        W91662  39.020   5.882   4.703
23322W        W91663  13.316  36.519   0.876
23323W        W91664  18.595  13.226  14.322
23324W        W91665  35.540   4.773   0.376
23325W        W91666  27.070  37.909   3.727
23326W        W91667   7.874  40.515   3.358
23327W        W91668  22.642  15.124   0.907
23328W        W91669  16.577   4.214  12.039
23329W        W91670  24.061   6.919   2.356
23330W        W91671   6.396  22.227  10.498
23331W        W91672  32.621   3.908   2.846
23332W        W91673   4.865  11.315   2.198
23333W        W91674  39.044  14.328   3.359
23334W        W91675   3.321  32.518   0.800
23335W        W91676   9.300  31.560  11.106
23336W        W91677  31.608  43.908  14.501
23337W        W91678   1.305  29.175   3.357
23338W        W91679  28.591  26.467   1.344
23339W        W91680  42.452  19.603  11.061
23340W        W91681   9.282  10.313   3.287
23341W        W91682  10.255   4.431  10.498
23342W        W91683  38.405  17.645  13.451
23343W        W91684  25.205  25.974  14.349
23344W        W91685  17.782  15.677  12.917
23345W        W91686  11.360   0.365   3.270
23346W        W91687  41.442   8.848  14.008
23347W        W91688  17.143  27.483   0.427
23348W        W91689  32.906  35.005   2.811
23349W        W91690  20.527  28.036   1.697
23350W        W91691  14.646  41.317   0.765
23351W        W91692   3.869   3.419  13.919
23352W        W91693  16.643  19.534  10.412
23353W        W91694   1.371  44.400   3.165
23354W        W91695  10.857  25.104   4.277
23355W        W91696  10.717   7.253   2.759
23356W        W91697  42.446  41.887   1.447
23357W        W91698   2.772  12.640  12.933
23358W        W91699  13.348  28.593  13.055
23359W        W91700   0.324  37.920   4.258
23360W        W91701  24.023   1.332   2.722
23361W        W91702  33.569   1.932  13.027
23362W        W91703  21.755  12.620  13.475
23363W        W91704   5.689  32.426  14.849
23364W        W91705  15.598  21.613   2.352
23365W        W91706  26.133  37.455   3.780
23366W        W91707  32.984  29.017   3.663
23367W        W91708  34.023  36.859   0.438
23368W        W91709  34.392  25.199   1.900
23369W        W91710   7.698  43.009   1.754
23370W        W91711  37.493  23.624   1.356
23371W        W91712  24.604  32.498  13.876
23372W        W91713  27.189  10.807  12.398
23373W        W91714   9.696  33.892   0.473
23374W        W91715  43.867  35.864   3.774
23375W        W91716  15.111  20.745   0.326
23376W        W91717  44.929  32.098  11.046
23377W        W91718  29.030  42.415   0.363
23378W        W91719  39.400  36.356   1.906
23379W        W91720   3.847  22.710  14.984
23380W        W91721  32.930  19.284  10.556
23381W        W91722  25.026  22.150   2.419
23382W        W91723  32.909   4.260   1.448
23383W        W91724   3.256  37.578  10.099
23384W        W91725  41.948  20.114   4.760
23385W        W91726  24.089  18.250   0.373
23386W        W91727  42.943  41.922   5.215
23387W        W91728  33.922   6.804  13.361
23388W        W91729  15.670  29.579   4.680
23389W        W91730  15.327  37.950  13.399
23390W        W91731  14.140  39.394  10.914
23391W        W91732   4.360  44.913   0.925
23392W        W91733  35.515  20.712   1.738
23393W        W91734  40.881  15.251  14.479
23394W        W91735  28.631  22.240   3.655
23395W        W91736  32.407  23.003   1.368
23396W        W91737  32.551   1.740  12.948
23397W        W91738  24.986   4.328  13.329
23398W        W91739  12.649   8.328   4.607
23399W        W91740   6.191  20.649  14.781
23400W        W91741   3.713   2.443  13.934
23401W        W91742  21.084  33.974   2.698
23402W        W91743   8.792  32.031  12.091
23403W        W91744   1.353  37.430   1.307
23404W        W91745   0.320  29.439   2.728
23405W        W91746  24.543  25.476  12.906
23406W        W91747  44.782  18.206   3.376
23407W        W91748  43.965  40.441  10.966
23408W        W91749  44.895   0.767   2.689
23409W        W91750  17.305  27.657  11.518
23410W        W91751  38.949  15.644   2.185
23411W        W91752   2.376  16.207   2.876
23412W        W91753  27.963  14.762  14.790
23413W        W91754   1.316  17.618   4.343
23414W        W91755  10.807   7.403  13.395
23415W        W91756   0.357  22.131   0.399
23416W        W91757  27.976  25.691  10.512
23417W        W91758  34.494  12.158   0.812
23418W        W91759  44.325  22.719  10.053
23419W        W91760  23.160  20.193  13.040
23420W        W91761  29.627  37.441   3.729
23421W        W91762   0.958  33.426   3.229
23422W        W91763  17.598   8.668  13.814
23423W        W91764  26.005  34.506   1.718
23424W        W91765  20.076   7.350   5.191
23425W        W91766  29.970  33.620   2.670
23426W        W91767  24.088  35.900   3.295
23427W        W91768   8.670  25.540  12.342
23428W        W91769  27.107   5.307   4.774
23429W        W91770  30.050  32.050  12.081
23430W        W91771  14.788  21.746  14.018
23431W        W91772  24.497  24.138   4.601
23432W        W91773  39.065   5.871  14.285
23433W        W91774  34.417  24.134  14.459
23434W        W91775  22.220   9.210  14.980
23435W        W91776  26.029  33.089  14.509
23436W        W91777  24.133  41.485  14.393
23437W        W91778  23.192  15.702  12.955
23438W        W91779  40.332   7.381  12.341
23439W        W91780   0.452   4.925  13.377
23440W        W91781  33.928   3.861  14.874
23441W        W91782  38.029   7.687  11.042
23442W        W91783  40.824  39.837   4.165
23443W        W91784  17.282  26.151  11.430
23444W        W91785  27.489  36.974  14.945
23445W        W91786  40.919  43.277  13.461
23446W        W91787  23.028  36.076  13.400
23447W        W91788  21.041  23.720   3.803
23448W        W91789  40.316   9.316   4.205
23449W        W91790  21.166  27.580   2.198
23450W        W91791  38.424  24.166   2.899
23451W        W91792   3.924  18.718  13.309
23452W        W91793  20.760  39.511   1.445
23453W        W91794  17.112  25.633   3.215
23454W        W91795  43.943  13.338   0.348
23455W        W91796  20.612   6.745   4.770
23456W        W91797   1.964  11.720   1.778
23457W        W91798  22.205   1.904  12.015
23458W        W91799   6.820   3.945  13.518
23459W        W91800  39.555  38.443   3.354
23460W        W91801   9.888  21.577   4.825
23461W        W91802  23.107  11.325  13.497
23462W        W91803  44.845  20.555  11.071
23463W        W91804  44.899   8.880  11.425
23464W        W91805  14.150  23.138   4.659
23465W        W91806   9.301  19.678   1.757
23466W        W91807  36.865  14.641   0.781
23467W        W91808  41.814  27.621   1.219
23468W        W91809  42.355   4.907   0.462
23469W        W91810  43.863   9.241  13.852
23470W        W91811   1.441  44.341  11.996
23471W        W91812  42.447  23.046  13.359
23472W        W91813  43.934  27.188  14.493
23473W        W91814   1.974   7.189   1.276
23474W        W91815   0.787  40.401  13.512
23475W        W91816  43.435  21.638  12.354
23476W        W91817   3.247  17.181   2.338
23477W        W91818  11.194   1.286   3.636
23478W        W91819  42.339  36.552  14.348
23479W        W91820  12.127  12.746   3.726
23480W        W91821  18.573   2.781  14.510
23481W        W91822   7.671  36.927   1.793
23482W        W91823   8.384  12.639   2.233
23483W        W91824  35.360  12.722   4.233
23484W        W91825  12.279   1.441   4.283
23485W        W91826  26.670  39.338  11.613
23486W        W91827  13.263   6.338  11.384
23487W        W91828  43.515  42.839  11.494
23488W        W91829  26.553  16.647  14.923
23489W        W91830  28.978   1.884  12.923
23490W        W91831   0.342  29.639  11.519
23491W        W91832   6.348  12.750  12.991
23492W        W91833  31.460   6.339   2.272
23493W        W91834   3.759  37.383   0.456
23494W        W91835  20.261  37.452   3.303
23495W        W91836  18.156  36.571  13.455
23496W        W91837  12.640  40.812  11.868
23497W        W91838  27.023  44.900   0.411
23498W        W91839   2.292  10.721  11.407
23499W        W91840   3.869  44.371  13.349
23500W        W91841  17.131  39.890  14.855
23501W        W91842  25.684  21.091   3.202
23502W        W91843   6.280   6.769  14.381
23503W        W91844  28.055  32.588  11.924
23504W        W91845  39.394  16.683   0.896
23505W        W91846  12.315  27.126  11.570
23506W        W91847   2.268  36.950   3.739
23507W        W91848  39.547  44.779   4.319
23508W        W91849  32.118  40.011   9.989
23509W        W91850  28.168  15.606   0.806
23510W        W91851  32.968  19.543   0.409
23511W        W91852  21.744  24.722  10.968
23512W        W91853  39.434  36.409  11.026
23513W        W91854  35.369  36.566   4.667
23514W        W91855  33.541  38.341  11.016
23515W        W91856  19.227  40.312  13.952
23516W        W91857  27.110   2.749  13.470
23517W        W91858   4.331  41.302  12.398
23518W        W91859  27.652  32.898  13.323
23519W        W91860   7.690   3.413  13.377
23520W        W91861   2.879  30.033  10.949
23521W        W91862  38.942   9.852   4.686
23522W        W91863  32.087   2.752  14.438
23523W        W91864  36.045  34.108   1.923
23524W        W91865  14.791  43.982  12.569
23525W        W91866   3.867  14.190   0.339
23526W        W91867  21.193  12.700  13.874
23527W        W91868   7.307   9.861  11.939
23528W        W91869  44.432  16.674   1.704
23529W        W91870  34.561  29.118   3.378
23530W        W91871   2.418  40.360   0.756
23531W        W91872  44.844  12.357  13.866
23532W        W91873  20.550  10.759  14.866
23533W        W91874   4.382  38.006   2.402
23534W        W91875  11.784  18.106  14.872
23535W        W91876  40.413  41.410  12.541
23536W        W91877  24.643  15.664  11.973
23537W        W91878  43.828   2.373  13.947
23538W        W91879   0.281   5.326   4.769
23539W        W91880  15.774  15.644  13.496
23540W        W91881  34.074  35.097  14.467
23541W        W91882  36.049   3.251  12.053
23542W        W91883  21.159   4.856   2.320
23543W        W91884  39.971  25.212  12.473
23544W        W91885   0.944  25.152  13.010
23545W        W91886  13.717  35.572   4.155
23546W        W91887  33.072  31.423   2.202
23547W        W91888  14.767  13.729  12.488
23548W        W91889  27.021  33.406  10.018
23549W        W91890  38.531  27.461   3.360
23550W        W91891   0.442  24.975  14.804
23551W        W91892  23.669  39.361   3.277
23552W        W91893  40.363   9.229   2.345
23553W        W91894  23.984  22.711  11.910
23554W        W91895  29.052   5.305  12.923
23555W        W91896  31.437  17.157   0.444
23556W        W91897   5.822  22.610   3.629
23557W        W91898  41.850  21.088  11.531
23558W        W91899  30.074   4.847   4.718
23559W        W91900   2.268  26.692  13.991
23560W        W91901  37.572  18.247   1.342
23561W        W91902   0.763  20.696   1.419
23562W        W91903  44.916  11.661   3.690
23563W        W91904  14.228  43.480  10.425
23564W        W91905  39.478  22.683  10.114
23565W        W91906  23.095   9.232  10.568
23566W        W91907  12.314  30.067   1.362
23567W        W91908  44.893  10.705   1.922
23568W        W91909  42.285  34.569  11.380
23569W        W91910  11.657  44.974   0.737
23570W        W91911   1.765  13.327  11.969
23571W        W91912  16.571  20.565  11.934
23572W        W91913   9.847  38.428  13.939
23573W        W91914  44.294  39.916   1.220
23574W        W91915   5.843  16.670   3.324
23575W        W91916  38.920  17.697   3.807
23576W        W91917  25.619  27.982   1.774
23577W        W91918   7.186  16.282  13.046
23578W        W91919  26.661  29.666   3.243
23579W        W91920  15.280  16.600  11.467
23580W        W91921  42.894   1.960   3.788
23581W        W91922   9.813  36.049   4.719
23582W        W91923   2.858  21.637   4.256
23583W        W91924  33.430   6.743  14.487
23584W        W91925  22.030  14.813  12.861
23585W        W91926   7.884  27.542   1.400
23586W        W91927  33.127  43.902  12.576
23587W        W91928   7.228   4.383  12.884
23588W        W91929  37.488  20.094  14.997
23589W        W91930  40.855  18.643   1.404
23590W        W91931  34.469   1.889   4.621
23591W        W91932  31.992  41.476   4.731
23592W        W91933   0.312  19.599   4.684
23593W        W91934  23.043  32.019  11.465
23594W        W91935  38.494  15.226   0.963
23595W        W91936  24.513  42.341   1.754
23596W        W91937  14.613   4.433   2.280
23597W        W91938  44.444  37.462  14.977
23598W        W91939  24.721  42.472   2.332
23599W        W91940  23.566  43.931  13.321
23600W        W91941   8.893  39.346   3.776
23601W        W91942  15.266   4.398   2.259
23602W        W91943  40.532  17.695  11.463
23603W        W91944  33.958  43.383   1.898
23604W        W91945  10.872  40.049   2.324
23605W        W91946  14.235  39.991   3.255
23606W        W91947  41.032  39.970  13.405
23607W        W91948  25.098  20.701   1.427
23608W        W91949  43.800  16.797   3.637
23609W        W91950  13.804   9.278   0.293
23610W        W91951  19.703   1.322  13.400
23611W        W91952  38.951  21.540   1.736
23612W        W91953  33.998  35.401  10.892
23613W        W91954  39.844  10.755   4.829
23614W        W91955  37.431   1.779   3.685
23615W        W91956  21.198  44.955  14.815
23616W        W91957   1.238   2.847  11.431
23617W        W91958   5.238  39.944   0.442
23618W        W91959   8.798   5.851  14.973
23619W        W91960  32.974  22.571   2.278
23620W        W91961  29.519  14.312   3.214
23621W        W91962  22.561  22.071  13.963
23622W        W91963  41.515  35.899  12.444
23623W        W91964   0.950   1.957  12.941
23624W        W91965  38.032   0.944  14.016
23625W        W91966  42.825  17.722   3.812
23626W        W91967   5.735  17.132   2.190
23627W        W91968  29.172  19.200   4.171
23628W        W91969  15.793  20.565   5.138
23629W        W91970   9.203  33.930  14.941
23630W        W91971  25.155  11.233   1.332
23631W        W91972   5.297  36.546   3.716
23632W        W91973  14.165  32.958   3.157
23633W        W91974   4.925  29.108   1.333
23634W        W91975  30.152  25.628   0.936
23635W        W91976   3.889  38.551  12.438
23636W        W91977   3.820   0.747  14.937
23637W        W91978  13.250  14.698  12.088
23638W        W91979  20.212  23.532   2.739
23639W        W91980  43.348  38.465  13.390
23640W        W91981  13.823  16.160  11.583
23641W        W91982  34.532  21.605   2.379
23642W        W91983  15.713  30.091  13.874
23643W        W91984  21.662   6.760   0.941
23644W        W91985  30.511  31.520   3.804
23645W        W91986  24.652   1.957   1.795
23646W        W91987  25.117   7.208   2.326
23647W        W91988  37.543  21.226  14.893
23648W        W91989  16.266  10.649   2.886
23649W        W91990  12.654  24.111   2.341
23650W        W91991  41.990  42.332   2.267
23651W        W91992  25.546  34.015   2.691
23652W        W91993  27.627  44.852  14.298
23653W        W91994  40.960  23.731  13.931
23654W        W91995  39.472  17.741   0.308
23655W        W91996   8.659  27.975   2.412
23656W        W91997  23.679  19.062   0.839
23657W        W91998  14.284  22.159  14.438
23658W        W91999  20.637   0.930  13.413
23659W        W92000   5.857  27.650  11.433
23660W        W92001  23.644  36.429  14.958
23661W        W92002  16.197  34.955   2.205
23662W        W92003  31.455  40.864   3.357
23663W        W92004  38.015  31.553   0.851
23664W        W92005  19.096   9.309   3.775
23665W        W92006  20.720  11.640  11.602
23666W        W92007  16.805  17.690   3.332
23667W        W92008  19.071  33.921   4.126
23668W        W92009   0.782  37.885  11.503
23669W        W92010  16.700  34.961  14.837
23670W        W92011  34.383  28.529   0.782
23671W        W92012  28.945  31.451  13.357
23672W        W92013  15.819   0.451  13.317
23673W        W92014  42.448  21.210   1.240
23674W        W92015  17.090  37.375  10.147
23675W        W92016  44.802  26.131   3.754
23676W        W92017  32.440  34.903  13.845
23677W        W92018  35.870   7.750   3.171
23678W        W92019  26.012  28.996   5.265
23679W        W92020  32.130  26.171  12.517
23680W        W92021  35.394  18.239   3.374
23681W        W92022  17.087   7.188   1.413
23682W        W92023  20.208  11.807   2.296
23683W        W92024  12.275   7.228  10.964
23684W        W92025  27.067  21.174  11.921
23685W        W92026  14.690  40.044   4.258
23686W        W92027   6.711   4.360   2.332
23687W        W92028  28.545   9.393  11.406
23688W        W92029  33.380  11.170   4.182
23689W        W92030  42.379  29.059  12.546
23690W        W92031  38.992  20.673  10.609
23691W        W92032  40.522  43.333  11.475
23692W        W92033   5.270  14.740  12.496
23693W        W92034  44.430  29.571   1.356
23694W        W92035  40.413   2.438   2.314
23695W        W92036  12.184  36.417  11.077
23696W        W92037   4.232   0.422  11.030
23697W        W92038  44.773  42.954  13.006
23698W        W92039   3.834  43.355   1.923
23699W        W92040  15.308  18.766   3.154
23700W        W92041  24.995  19.763   0.813
23701W        W92042  31.092  35.048   0.783
23702W        W92043   3.269  19.097   1.326
23703W        W92044  14.771   4.737   0.483
23704W        W92045  24.560  20.694   2.199
23705W        W92046  14.330  41.844  12.009
23706W        W92047  34.486  29.171   1.398
23707W        W92048  41.303  10.672  11.554
23708W        W92049   8.395  24.183   4.830
23709W        W92050  19.624  26.073  13.028
23710W        W92051  27.940  16.569   1.379
23711W        W92052   6.782  37.957   2.189
23712W        W92053  31.016  20.152  14.348
23713W        W92054   2.375  35.547  13.802
23714W        W92055  36.919   7.197   0.339
23715W        W92056  18.121  21.547  14.492
23716W        W92057   8.668  38.951  12.490
23717W        W92058  36.009   8.859  14.777
23718W        W92059  28.493  30.094   0.293
23719W        W92060  25.693  30.140  11.408
23720W        W92061   6.727  18.269  12.933
23721W        W92062   5.361  27.675  12.444
23722W        W92063   7.191  23.657  12.520
23723W        W92064  18.613  17.221   4.224
23724W        W92065  14.745   5.930  10.072
23725W        W92066  30.590  10.797   0.820
23726W        W92067  12.283  26.051   0.279
23727W        W92068  35.409  15.624  12.900
23728W        W92069  42.494  22.547  12.515
23729W        W92070   9.666   5.384   1.704
23730W        W92071   9.732  15.128   2.214
23731W        W92072  28.170  44.452  11.018
23732W        W92073  24.646  33.988   4.235
23733W        W92074  41.887  22.076  12.343
23734W        W92075  12.656  32.564   1.353
23735W        W92076  24.494  23.498  11.124
23736W        W92077  13.131  25.162   1.426
23737W        W92078  39.316  41.360  11.400
23738W        W92079  11.346  13.255   0.946
23739W        W92080  30.450  30.964  10.409
23740W        W92081  32.007  30.939  12.390
23741W        W92082  13.237  33.881   4.196
23742W        W92083  22.568  31.586  12.881
23743W        W92084  27.455  18.601   0.808
23744W        W92085   6.845  35.478  11.534
23745W        W92086  18.610   8.790   0.915
23746W        W92087   3.863  24.045  10.542
23747W        W92088  20.207  19.540  10.001
23748W        W92089  38.887  30.559   5.115
23749W        W92090  43.950  35.557  10.982
23750W        W92091   1.330  28.042   0.861
23751W        W92092  28.476  19.657   0.743
23752W        W92093  12.806  36.949   4.290
23753W        W92094  34.396  38.961  11.995
23754W        W92095  40.920  39.553  12.369
23755W        W92096  31.045  23.699   0.320
23756W        W92097  18.785  44.808  14.029
23757W        W92098  24.092  36.063   2.318
23758W        W92099   6.898   2.353  14.822
23759W        W92100  12.229  18.112  14.785
23760W        W92101   3.873  11.172   3.206
23761W        W92102  12.638  38.455   3.849
23762W        W92103  40.402   9.186   3.217
23763W        W92104   4.263  39.933  13.334
23764W        W92105  22.732   4.816  14.997
23765W        W92106  36.078  39.841  11.093
23766W        W92107  29.055  39.351  14.452
23767W        W92108   4.301  29.970   1.254
23768W        W92109  43.971  29.121   1.444
23769W        W92110  35.526   2.842   0.886
23770W        W92111   5.907  38.564  13.436
23771W        W92112  16.566  39.336  14.897
23772W        W92113  26.989  23.047  14.433
23773W        W92114  20.052  34.897   0.255
23774W        W92115  13.649  15.225  13.473
23775W        W92116  18.713  33.417   2.811
23776W        W92117  41.815  35.433   2.282
23777W        W92118  24.613   7.897   3.833
23778W        W92119   1.773  31.591   0.943
23779W        W92120  38.055   3.335  11.500
23780W        W92121  20.155  40.805   1.734
23781W        W92122   1.476  40.879   4.156
23782W        W92123  19.045   1.962   2.776
23783W        W92124  44.822  26.649   2.277
23784W        W92125  39.021  33.890  14.968
23785W        W92126   1.388   5.255  11.959
23786W        W92127   9.830   2.422  13.347
23787W        W92128  12.856   8.364  14.879
23788W        W92129   0.848  12.716  10.411
23789W        W92130  39.847   4.427  13.063
23790W        W92131   8.722  31.912   1.749
23791W        W92132  12.810  27.017   1.790
23792W        W92133  32.513  11.829   2.857
23793W        W92134  30.653  32.493   2.679
23794W        W92135  24.108  37.950  13.833
23795W        W92136  14.334   1.917   3.194
23796W        W92137  33.525  39.879   0.366
23797W        W92138  25.145  38.022   1.737
23798W        W92139   7.820  43.009  14.357
23799W        W92140   5.428  42.297  14.976
23800W        W92141  43.799  21.712   4.326
23801W        W92142  10.683  38.563   2.674
23802W        W92143  34.421   4.242   2.249
23803W        W92144   2.352  42.939   4.705
23804W        W92145  11.866  32.005  14.000
23805W        W92146  25.616   6.308  14.798
23806W        W92147  26.057  11.698  14.859
23807W        W92148  35.001  25.061  12.903
23808W        W92149  15.214  37.485   3.157
23809W        W92150  26.976  15.675   0.378
23810W        W92151  27.539   5.928  11.989
23811W        W92152  30.496  36.398   4.802
23812W        W92153  17.775  27.469  12.570
23813W        W92154  43.277   9.837   0.745
23814W        W92155  13.349  19.575  10.965
23815W        W92156  18.192  43.335   2.411
23816W        W92157  29.456  14.751   0.437
23817W        W92158  10.853  31.967   3.176
23818W        W92159  12.633  24.047  14.913
23819W        W92160   1.309  18.661   0.895
23820W        W92161  33.012  24.537  10.438
23821W        W92162  27.042  22.649   2.702
23822W        W92163  19.045  21.231  13.498
23823W        W92164  37.883  38.901  14.308
23824W        W92165  37.878  37.454   3.776
23825W        W92166  29.986  43.340  11.893
23826W        W92167  31.119   3.419  11.095
23827W        W92168  40.385  22.582  11.000
23828W        W92169  26.463  34.512  13.873
23829W        W92170  17.123  22.582  11.087
23830W        W92171  22.651  20.580   4.834
23831W        W92172  31.127   7.242   1.326
23832W        W92173  14.195  20.660   3.726
23833W        W92174   3.867  16.792   2.733
23834W        W92175  43.880  30.923   3.309
23835W        W92176  33.491  20.152   4.201
23836W        W92177  25.041  44.769   4.153
23837W        W92178  43.405  16.111   2.248
23838W        W92179   3.836  36.589   3.332
23839W        W92180  44.771   7.845   4.694
23840W        W92181  19.655   0.403  11.612
23841W        W92182  22.673   5.822  12.080
23842W        W92183  38.979  30.944  12.010
23843W        W92184  30.531   8.752   4.263
23844W        W92185   4.718  21.135   4.813
23845W        W92186  14.139   2.871   2.760
23846W        W92187   4.413  12.829   3.364
23847W        W92188  24.524  16.318   3.247
23848W        W92189  24.080  31.640  10.615
23849W        W92190   1.733   9.740  11.981
23850W        W92191  20.607  42.817   3.233
23851W        W92192  33.001  24.981  12.997
23852W        W92193   5.762  24.699  12.066
23853W        W92194  38.868  14.629   3.381
23854W        W92195  21.731  31.648  12.886
23855W        W92196  32.394   1.383   1.371
23856W        W92197  17.149  18.597  14.929
23857W        W92198  13.779  41.492  13.504
23858W        W92199  25.093  36.386   1.829
23859W        W92200  11.801  44.926  14.983
23860W        W92201  34.033  44.784   4.297
23861W        W92202  44.443   4.918   3.778
23862W        W92203  10.177   7.308  12.896
23863W        W92204  34.917   8.385   1.785
23864W        W92205  36.960   8.797  10.943
23865W        W92206  23.546  34.983   0.367
23866W        W92207  29.663  43.958  13.976
23867W        W92208  28.138  27.047   3.734
23868W        W92209  33.514  34.387   4.252
23869W        W92210   2.794  31.930   0.416
23870W        W92211  28.069  17.167  11.938
23871W        W92212  33.076  35.370  11.967
23872W        W92213  17.686  22.670   0.821
23873W        W92214  11.312  20.692   4.763
23874W        W92215  17.674  28.496   1.335
23875W        W92216  25.046  37.039  10.940
23876W        W92217   5.838  31.035  11.064
23877W        W92218  20.132  38.899  12.896
23878W        W92219  35.941  37.361   1.696
23879W        W92220  24.060  19.631   0.733
23880W        W92221   7.291  16.789  13.826
23881W        W92222  31.509  38.974   2.240
23882W        W92223  29.570  15.741  11.993
23883W        W92224  19.208  13.240  13.527
23884W        W92225  24.145  24.489   1.338
23885W        W92226   4.842   4.777   1.764
23886W        W92227  13.262  41.014   3.221
23887W        W92228  11.622  31.101  11.420
23888W        W92229  24.652  20.722   0.796
23889W        W92230  44.846  35.503  12.543
23890W        W92231   2.463  14.725  11.030
23891W        W92232  38.927  17.736  14.769
23892W        W92233  23.537   3.912   3.703
23893W        W92234  41.945  21.512  12.051
23894W        W92235  31.149  30.448   1.382
23895W        W92236  10.165  21.141  10.997
23896W        W92237  25.984  43.801   4.823
23897W        W92238  33.109  38.843  10.092
23898W        W92239   3.409  41.405   1.418
23899W        W92240  27.639  24.167   1.805
23900W        W92241  30.095  35.994  12.011
23901W        W92242  20.581  11.798   2.386
23902W        W92243  12.259  35.456  13.865
23903W        W92244   3.809  42.966   4.263
23904W        W92245  36.533  39.323  12.964
23905W        W92246  22.102   7.787  10.505
23906W        W92247  13.225  36.034   4.159
23907W        W92248  16.676   6.259   1.892
23908W        W92249  14.727   7.761  14.437
23909W        W92250  30.960  44.981   2.832
23910W        W92251  15.239   8.228  14.823
23911W        W92252  33.115  41.854   5.640
23912W        W92253  34.030  26.575   3.729
23913W        W92254  22.655  40.814  14.824
23914W        W92255   6.696  39.417   0.926
23915W        W92256  18.767  28.039  13.345
23916W        W92257   4.352   4.316   3.181
23917W        W92258   5.709  36.910  13.863
23918W        W92259  18.283  16.774   3.161
23919W        W92260  10.755  20.766   0.376
23920W        W92261  10.672  23.199  12.909
23921W        W92262  44.459  44.332   0.932
23922W        W92263   1.839  15.757  13.426
23923W        W92264  42.850  28.677   0.879
23924W        W92265  25.660  25.179  13.540
23925W        W92266  24.023  38.448  13.961
23926W        W92267  12.837  26.555   9.925
23927W        W92268  34.925  19.129   0.831
23928W        W92269  25.968  10.720  11.026
23929W        W92270  24.479  21.716   2.873
23930W        W92271  12.210   6.258  13.976
23931W        W92272  27.527  41.405   3.747
23932W        W92273  21.727  28.088  10.571
23933W        W92274  33.898  38.327  10.944
23934W        W92275  15.744   5.773  14.825
23935W        W92276   7.701  16.588  14.932
23936W        W92277  12.255   4.450  10.584
23937W        W92278  40.920   0.804   3.831
23938W        W92279  16.794  17.764  11.974
23939W        W92280  30.131  10.339   0.937
23940W        W92281  35.561   1.918   3.378
23941W        W92282  44.288  22.644   0.416
23942W        W92283  18.724  33.960   1.828
23943W        W92284  41.821  13.157   0.956
23944W        W92285  39.352  16.603   3.822
23945W        W92286  26.528  25.025  10.057
23946W        W92287  12.222  21.707   0.829
23947W        W92288  18.733  16.717  13.402
23948W        W92289  20.634  29.009  12.455
23949W        W92290  22.168  17.116  12.909
23950W        W92291   3.346  31.904   2.251
23951W        W92292  14.761  11.656  13.420
23952W        W92293  28.169  29.557   0.935
23953W        W92294  29.085   4.786   0.853
23954W        W92295  39.489  16.204   2.335
23955W        W92296  34.397  23.649   0.253
23956W        W92297  35.029  22.060  12.882
23957W        W92298  13.193  35.088  10.930
23958W        W92299  25.551  13.765  12.394
23959W        W92300  26.014  43.345   4.341
23960W        W92301  29.008   1.322   2.265
23961W        W92302   2.774  38.458   1.775
23962W        W92303  43.931   6.354  12.383
23963W        W92304  31.455   9.759   1.720
23964W        W92305   2.721  41.027  11.017
23965W        W92306  36.535  31.018   3.302
23966W        W92307  22.656  20.233   3.749
23967W        W92308  44.301  32.609   1.393
23968W        W92309   4.269  33.049  11.917
23969W        W92310  15.648  19.764   4.781
23970W        W92311   9.690   1.285   4.738
23971W        W92312   8.836   0.872  10.587
23972W        W92313  12.194  18.121  12.089
23973W        W92314  42.510  26.957  11.880
23974W        W92315  32.448  32.490  14.023
23975W        W92316  27.548  12.179  10.624
23976W        W92317   9.149  39.405  14.360
23977W        W92318  44.385  17.556  13.013
23978W        W92319   0.492  19.075  11.047
23979W        W92320  42.909  29.461   4.788
23980W        W92321  24.038  32.585  12.343
23981W        W92322   6.343   8.680   0.894
23982W        W92323  11.234  23.494  12.017
23983W        W92324  27.059  20.053  13.822
23984W        W92325  29.608  17.768   0.841
23985W        W92326  11.775  40.443   0.423
23986W        W92327  12.765   4.804  11.437
23987W        W92328  18.578  26.983   2.409
23988W        W92329  21.758  38.444  13.475
23989W        W92330  18.771  16.254  13.000
23990W        W92331  15.211  18.219  13.988
23991W        W92332   4.936  32.559   0.783
23992W        W92333  12.717  37.543   1.746
23993W        W92334  41.485  31.072   3.325
23994W        W92335   2.846  38.530   3.848
23995W        W92336  33.988  31.055  10.939
23996W        W92337  18.790  21.654   4.144
23997W        W92338   6.777  10.823   4.693
23998W        W92339   6.705  23.056   2.320
23999W        W92340   2.882  26.196   3.639
24000W        W92341  30.071   5.421  11.453
24001W        W92342  13.246  42.517   3.813
24002W        W92343   4.407  22.123  10.964
24003W        W92344   8.221  26.985  14.803
24004W        W92345  35.091  28.082  12.459
24005W        W92346  36.507   3.754   3.283
24006W        W92347   2.388  40.819   1.770
24007W        W92348  44.468  10.689  11.501
24008W        W92349   5.211  26.135  10.577
24009W        W92350  24.196  44.894  13.358
24010W        W92351  15.692  13.163  10.432
24011W        W92352   9.787  25.658  12.389
24012W        W92353  25.594  20.225   4.833
24013W        W92354  12.828  24.077  13.950
24014W        W92355   7.670  13.600   2.370
24015W        W92356   0.282  43.481   4.300
24016W        W92357  16.772  32.394  12.944
24017W        W92358  24.174  21.184   2.363
24018W        W92359  28.136  28.583  10.105
24019W        W92360  41.871  23.620  13.403
24020W        W92361  19.054  34.878   4.257
24021W        W92362  43.872  42.804  11.979
24022W        W92363  28.929  24.045  14.322
24023W        W92364  44.868  24.105   0.467
24024W        W92365  35.082  32.452  11.471
24025W        W92366   1.957  39.028   4.830
24026W        W92367  40.507  28.600  12.045
24027W        W92368   9.297   2.423   3.246
24028W        W92369  40.415   1.284  12.456
24029W        W92370   9.718   4.866  14.373
24030W        W92371  33.883  30.417  10.943
24031W        W92372   1.388  42.304   2.323
24032W        W92373   9.695  41.996  12.517
24033W        W92374   7.895   2.331   2.294
24034W        W92375  17.689   4.941   1.259
24035W        W92376  12.303  10.384  10.911
24036W        W92377   1.413  12.727  12.070
24037W        W92378  11.142  27.026   0.841
24038W        W92379  35.978  11.623  14.999
24039W        W92380  24.205  16.114   1.861
24040W        W92381  39.358   8.718  14.468
24041W        W92382  29.047  34.373   2.217
24042W        W92383  18.240  20.216   4.699
24043W        W92384  12.239  39.472  12.430
24044W        W92385  12.193  10.177   0.452
24045W        W92386  14.627  16.227  12.380
24046W        W92387  27.567  16.780   2.387
24047W        W92388  25.520  40.033  11.378
24048W        W92389  19.274  14.711   4.259
24049W        W92390  28.454  28.140   4.700
24050W        W92391  35.601  27.593  14.436
24051W        W92392  36.878  16.654  10.491
24052W        W92393  31.145  30.130   3.642
24053W        W92394   6.722  32.552  13.033
24054W        W92395  44.289   6.800  10.409
24055W        W92396  44.973  22.701   2.780
24056W        W92397  40.816  11.797  13.799
24057W        W92398  44.945  30.069   1.918
24058W        W92399   4.252  13.684   2.244
24059W        W92400  34.552   9.184  13.342
24060W        W92401  21.110  39.370  12.412
24061W        W92402  10.166  23.040   2.376
24062W        W92403   0.747  33.616   1.706
24063W        W92404  19.212  28.477   3.249
24064W        W92405  36.901  39.862  11.542
24065W        W92406  34.610  30.486  13.454
24066W        W92407  17.713   9.675   1.891
24067W        W92408  26.067  23.629   4.620
24068W        W92409  15.631   5.235  13.915
24069W        W92410  25.707  43.353   0.956
24070W        W92411   4.916  14.256   4.767
24071W        W92412   1.323  22.629   4.762
24072W        W92413  43.917  11.183  13.505
24073W        W92414  19.274  28.004   4.816
24074W        W92415  37.549  44.768   1.240
24075W        W92416  10.822  14.812   0.864
24076W        W92417  39.902   9.319   0.835
24077W        W92418  10.150   2.841   1.902
24078W        W92419  28.974  22.667   3.283
24079W        W92420  34.930  12.142  13.532
24080W        W92421  40.008  11.268   3.789
24081W        W92422  25.971  18.724   5.249
24082W        W92423  25.162  42.912  13.843
24083W        W92424  40.964  30.060  10.523
24084W        W92425  40.358  32.077  11.424
24085W        W92426  41.314  20.545   4.225
24086W        W92427   1.746  40.456   2.783
24087W        W92428  16.222   7.237  14.768
24088W        W92429   3.345  18.728   4.687
24089W        W92430  37.421  37.476   4.304
24090W        W92431   0.803  20.673  13.477
24091W        W92432  10.205  11.637  10.427
24092W        W92433  34.029  10.785  13.794
24093W        W92434  21.081  22.713  11.109
24094W        W92435  25.499  43.990  14.841
24095W        W92436   8.736  26.068  13.440
24096W        W92437  20.259  42.970  13.446
24097W        W92438   4.322   7.691  10.503
24098W        W92439   1.932  22.217  12.899
24099W        W92440  32.472  33.904  11.031
24100W        W92441   4.784  18.129   3.643
24101W        W92442  30.618  12.837  12.569
24102W        W92443  11.774   8.755   2.239
24103W        W92444  30.415   4.809   3.664
24104W        W92445  10.666  43.942  11.543
24105W        W92446  15.593   6.216   0.389
24106W        W92447  37.898  17.291  11.378
24107W        W92448  20.693  27.068   1.890
24108W        W92449   7.406  24.607  10.555
24109W        W92450  38.530  43.324   9.620
24110W        W92451   7.784  38.863  14.858
24111W        W92452  19.155  34.976   4.753
24112W        W92453  21.645  31.964  13.801
24113W        W92454  12.830  11.229  12.920
24114W        W92455  15.097  28.123  12.860
24115W        W92456  35.429  27.188  11.911
24116W        W92457  44.837  33.001   2.792
24117W        W92458  28.460   4.915  14.464
24118W        W92459  34.030  13.637  12.566
24119W        W92460  37.894   3.778  11.989
24120W        W92461  39.867  32.006  10.442
24121W        W92462  24.112  29.131   4.811
24122W        W92463   7.729  12.239   1.741
24123W        W92464  16.127  32.136   9.644
24124W        W92465   2.274  17.717  12.977
24125W        W92466  14.684  25.606   4.822
24126W        W92467  22.102  11.351   2.846
24127W        W92468  30.098  28.651  13.361
24128W        W92469  18.748   0.347  10.074
24129W        W92470   9.752  16.700  10.979
24130W        W92471   7.284  35.000  14.922
24131W        W92472  42.007   4.724   2.323
24132W        W92473  43.789  10.773  11.484
24133W        W92474  17.672  13.790   2.813
24134W        W92475   9.706  25.053   4.265
24135W        W92476  27.682  12.816   0.826
24136W        W92477  43.816  38.908   4.695
24137W        W92478  26.495  33.459   3.700
24138W        W92479   6.730  40.359  12.057
24139W        W92480  33.112  35.468   1.221
24140W        W92481  13.829  31.594   4.248
24141W        W92482  35.416  12.692   4.836
24142W        W92483   7.777   6.416   0.808
24143W        W92484  44.468   9.740  11.487
24144W        W92485   6.399  35.903  10.923
24145W        W92486  36.356  37.933  14.882
24146W        W92487   0.960  24.620   3.359
24147W        W92488  40.432  29.996   1.795
24148W        W92489  43.963  28.116  11.461
24149W        W92490  41.348   2.959   3.167
24150W        W92491  43.278  15.648   1.434
24151W        W92492  43.984  12.136  13.843
24152W        W92493  16.263  34.070   3.838
24153W        W92494  18.707  31.480   3.360
24154W        W92495  24.571  36.970   3.317
24155W        W92496  39.924  28.595  11.954
24156W        W92497  30.055  18.693   2.765
24157W        W92498  14.152   7.720  10.426
24158W        W92499  23.117  11.312  11.019
24159W        W92500  28.109  26.088   4.272
24160W        W92501  18.174  12.269   3.224
24161W        W92502   4.442  23.226  13.382
24162W        W92503  16.671   5.225   0.754
24163W        W92504  43.429   8.776  13.455
24164W        W92505  30.478   4.778   5.235
24165W        W92506  31.433  11.669  12.524
24166W        W92507   0.468  43.419   1.870
24167W        W92508  11.770  39.013   3.711
24168W        W92509  18.581   9.736   1.819
24169W        W92510   9.265   9.699  13.476
24170W        W92511  40.326  16.188  14.497
24171W        W92512   7.667  42.298  11.543
24172W        W92513   3.723  14.137   2.363
24173W        W92514  21.544  16.571   3.826
24174W        W92515  26.498  27.620  14.355
24175W        W92516   7.348  31.985   0.791
24176W        W92517  37.352  44.955  14.454
24177W        W92518  19.628  44.268  12.859
24178W        W92519   5.687  19.116  14.837
24179W        W92520   2.922   8.268   1.365
24180W        W92521  23.185  26.096   4.129
24181W        W92522  21.527  15.661   5.244
24182W        W92523   8.682   1.758   4.816
24183W        W92524  41.401  25.475   4.823
24184W        W92525  25.029  38.936   0.740
24185W        W92526  24.586  38.841   2.296
24186W        W92527  23.095   0.416   2.372
24187W        W92528   6.852   8.872   0.354
24188W        W92529  14.831   6.772   3.190
24189W        W92530  21.202  43.427   2.872
24190W        W92531   1.323  22.608  12.961
24191W        W92532  15.632  31.647   5.642
24192W        W92533  19.218  33.552  10.449
24193W        W92534  44.501   9.741   1.701
24194W        W92535  11.250  21.551   0.788
24195W        W92536  44.937   5.266  12.027
24196W        W92537   8.237  40.015   2.268
24197W        W92538  14.636  44.415  11.035
24198W        W92539  12.827   9.705   1.705
24199W        W92540  42.866   4.929   1.444
24200W        W92541  22.242   8.390   4.150
24201W        W92542  33.125  32.120  13.457
24202W        W92543  36.940  25.003   3.815
24203W        W92544  22.040  16.185  13.869
24204W        W92545  27.542  20.693   0.746
24205W        W92546  29.027   7.319   4.254
24206W        W92547   2.471   9.158   3.260
24207W        W92548  41.455  41.441  11.488
24208W        W92549   0.391   5.420   2.673
24209W        W92550  15.622  27.522   0.288
24210W        W92551  10.141   3.765  14.784
24211W        W92552   7.384  14.780   2.754
24212W        W92553   4.735  27.554  14.377
24213W        W92554   9.813  12.143   0.873
24214W        W92555  36.500  32.497   0.784
24215W        W92556   9.235   0.767  12.485
24216W        W92557   4.757  28.559   3.324
24217W        W92558  44.915  13.219   3.753
24218W        W92559  26.187  17.090  12.405
24219W        W92560  44.276   6.740  13.874
24220W        W92561  42.316  21.058   5.088
24221W        W92562   1.431  21.613   1.893
24222W        W92563   2.349  28.605  11.913
24223W        W92564  11.695  28.127   2.733
24224W        W92565   6.920  44.810   3.701
24225W        W92566  11.665  35.074  10.548
24226W        W92567  36.426   1.304  13.027
24227W        W92568  33.130  35.991  13.330
24228W        W92569   0.421  40.900   1.412
24229W        W92570  31.988   4.420  10.999
24230W        W92571  23.578  43.931  13.841
24231W        W92572  30.489   2.735   4.800
24232W        W92573  17.658  25.128  13.792
24233W        W92574   8.687  42.466   3.278
24234W        W92575  21.652  24.192  11.375
24235W        W92576  19.247  23.577   0.788
24236W        W92577   3.355  23.118   1.825
24237W        W92578  16.578  29.551   2.290
24238W        W92579  33.594  37.492   2.325
24239W        W92580  18.679  23.533   4.207
24240W        W92581  32.995  18.627  11.055
24241W        W92582  42.851  35.937  10.554
24242W        W92583  18.639  35.492   0.729
24243W        W92584  23.496  12.624   2.406
24244W        W92585  23.593  35.373  12.467
24245W        W92586  16.243  32.950   3.230
24246W        W92587   6.740  22.191   0.414
24247W        W92588  38.414  42.486   3.250
24248W        W92589  25.023  22.076  14.395
24249W        W92590   8.886  30.036   1.764
24250W        W92591  29.574  15.746   1.388
24251W        W92592  17.719  37.878  10.947
24252W        W92593  24.069  22.154   0.905
24253W        W92594  29.564   4.753  10.540
24254W        W92595  23.518  25.180   4.762
24255W        W92596  12.717  25.545   0.295
24256W        W92597   3.238  38.021  12.000
24257W        W92598  11.694  38.850  11.568
24258W        W92599  29.626  13.616   0.370
24259W        W92600  12.327  23.085   4.206
24260W        W92601  38.326  16.684  12.491
24261W        W92602  37.498  26.654  10.419
24262W        W92603  44.854  16.798  10.621
24263W        W92604   0.331  22.548  13.392
24264W        W92605  25.681  15.147   2.262
24265W        W92606   0.763  17.780  10.965
24266W        W92607  24.989  28.047   3.278
24267W        W92608  23.555  11.638   4.665
24268W        W92609  36.459  34.070   4.766
24269W        W92610  36.035   6.706  13.323
24270W        W92611   0.829  26.008   2.204
24271W        W92612   3.890   6.224  12.955
24272W        W92613   2.874   2.288  11.595
24273W        W92614  27.503  25.514   0.348
24274W        W92615  13.268  37.488   1.912
24275W        W92616   2.433  23.721  13.456
24276W        W92617  13.808   8.725   1.926
24277W        W92618  21.680  22.223   0.739
24278W        W92619  41.342  44.489  10.626
24279W        W92620  32.056   7.879   0.353
24280W        W92621  34.103  44.969   4.649
24281W        W92622   9.283  40.918   4.292
24282W        W92623  42.897   5.889   0.363
24283W        W92624  21.024   4.766  13.445
24284W        W92625  16.147  27.104   4.657
24285W        W92626  20.537  39.837   0.879
24286W        W92627  24.545  19.229   3.645
24287W        W92628   8.873  25.198   1.214
24288W        W92629  25.011  30.062  10.522
24289W        W92630  13.632  29.446   2.720
24290W        W92631  23.052  19.095   1.221
24291W        W92632  40.018  40.527  14.900
24292W        W92633  16.791  18.700   2.355
24293W        W92634   0.414  20.148  10.137
24294W        W92635  17.683  30.582   4.283
24295W        W92636   8.219  22.013  11.394
24296W        W92637  23.124  15.144  12.078
24297W        W92638  43.011  23.545   2.203
24298W        W92639  22.583  19.251  13.932
24299W        W92640  15.819  13.226   4.798
24300W        W92641  21.051  28.167   2.693
24301W        W92642  26.592   5.296  11.023
24302W        W92643  19.054  35.496   4.151
24303W        W92644  31.632   1.327  11.481
24304W        W92645  17.290  43.446   1.385
24305W        W92646  28.466  12.679  11.925
24306W        W92647  11.799  28.474   4.135
24307W        W92648   5.371  29.662  12.047
24308W        W92649  14.609  21.543  11.884
24309W        W92650  30.114  18.179   4.639
24310W        W92651   2.427  21.551   2.861
24311W        W92652  35.359   9.692  12.386
24312W        W92653  37.957  10.331   3.654
24313W        W92654  32.970   3.915  11.445
24314W        W92655  14.740  15.601   0.433
24315W        W92656  38.839  24.506   2.371
24316W        W92657  27.459   5.198   2.830
24317W        W92658  37.031  32.982   3.720
24318W        W92659  13.760  26.586   3.302
24319W        W92660  17.291   8.867  14.414
24320W        W92661  22.575  39.897   1.326
24321W        W92662  22.587  44.438   4.144
24322W        W92663  25.579  34.417   2.391
24323W        W92664   4.239  39.983   0.732
24324W        W92665  36.406  18.243  10.123
24325W        W92666  30.032  37.088  12.451
24326W        W92667  33.432  16.595  10.428
24327W        W92668  44.314  19.121   2.885
24328W        W92669  39.846  37.434  13.427
24329W        W92670  41.800  20.228   0.824
24330W        W92671  42.791   0.319  10.155
24331W        W92672  33.007  21.679   0.388
24332W        W92673  40.829  44.505  10.431
24333W        W92674  23.629   2.810  14.416
24334W        W92675  38.056  28.071   1.862
24335W        W92676  12.745  36.435   4.805
24336W        W92677  21.187  28.104  11.129
24337W        W92678  29.969   6.217   4.757
24338W        W92679  37.481   7.318  14.922
24339W        W92680   4.919  40.517  12.510
24340W        W92681  13.295  25.608   2.342
24341W        W92682  25.549  35.904   1.712
24342W        W92683  22.140  17.776   2.201
24343W        W92684   9.370   1.820   0.930
24344W        W92685  27.480  26.050   1.326
24345W        W92686  13.709  14.321  14.906
24346W        W92687   9.204  16.591  13.854
24347W        W92688   5.734   1.364  13.325
24348W        W92689  23.113   9.260  14.017
24349W        W92690  15.625  28.990   0.930
24350W        W92691  39.817  28.533  12.570
24351W        W92692  14.643  34.507  10.063
24352W        W92693   5.198  17.789  11.951
24353W        W92694  38.058   6.917  12.895
24354W        W92695  40.315  40.872  10.985
24355W        W92696  27.445  29.039   0.874
24356W        W92697  27.503  19.210  12.456
24357W        W92698  20.087  37.895  12.456
24358W        W92699   6.222   5.929   1.252
24359W        W92700  14.189  21.034   3.265
24360W        W92701   5.259  30.024  14.952
24361W        W92702  17.572   0.413  10.475
24362W        W92703  28.078  42.411  14.831
24363W        W92704  37.990  34.369   4.632
24364W        W92705   8.210  34.094  12.009
24365W        W92706  13.820  27.640  10.432
24366W        W92707   1.297  26.172  13.440
24367W        W92708  37.543  35.919  10.644
24368W        W92709  26.516  26.042   2.816
24369W        W92710  19.061  35.074   1.821
24370W        W92711  23.048   1.843   4.177
24371W        W92712   7.886   0.307   2.353
24372W        W92713  13.634  32.114  12.896
24373W        W92714  41.886  38.860  12.407
24374W        W92715  26.106   5.426   1.382
24375W        W92716   9.319  44.485   3.357
24376W        W92717  18.766  22.562  12.545
24377W        W92718   4.759  32.089   4.211
24378W        W92719  40.509  23.621   0.872
24379W        W92720  14.592  18.216   2.678
24380W        W92721  23.207  40.390  14.279
24381W        W92722  39.010   9.715  13.545
24382W        W92723  15.139  29.158  14.400
24383W        W92724  33.468  27.993  14.889
24384W        W92725  31.510  36.549  14.801
24385W        W92726  22.035  13.341   2.695
24386W        W92727   2.423  16.256   3.271
24387W        W92728  44.759   7.372   1.877
24388W        W92729   3.436  24.230   1.424
24389W        W92730  42.807  10.315  12.858
24390W        W92731  28.170   1.348   3.657
24391W        W92732   6.209  38.992   0.776
24392W        W92733  34.051  35.949   1.396
24393W        W92734   3.855  33.561  14.020
24394W        W92735   1.788  20.531  14.863
24395W        W92736  43.908   0.781   2.394
24396W        W92737  29.035   0.254  10.407
24397W        W92738   4.383  15.327   1.330
24398W        W92739   7.743  42.882  10.049
24399W        W92740  20.197  35.533   4.685
24400W        W92741  26.633  37.889  10.474
24401W        W92742   4.244   6.363  11.516
24402W        W92743   9.391   2.438  12.485
24403W        W92744  14.285  36.591   2.804
24404W        W92745  30.938  30.100  10.618
24405W        W92746   0.892   7.725  13.432
24406W        W92747  12.276  23.594   3.720
24407W        W92748  25.014  31.512  14.029
24408W        W92749  33.575  35.474  11.880
24409W        W92750  21.748  10.264   0.440
24410W        W92751   8.704  29.503   2.388
24411W        W92752  25.681   3.931   3.683
24412W        W92753  34.023   4.738   1.815
24413W        W92754  38.346   2.834  14.870
24414W        W92755  17.143   3.731  14.843
24415W        W92756  35.958  38.334   3.330
24416W        W92757  35.921  42.512   0.768
24417W        W92758  29.601  24.689   2.775
24418W        W92759  36.431  11.682  14.335
24419W        W92760  14.618   8.811   0.301
24420W        W92761  44.983  37.868  10.896
24421W        W92762  42.418  13.197  10.403
24422W        W92763  34.536  36.497   3.154
24423W        W92764  20.218  33.460  11.908
24424W        W92765   7.674   8.742   4.724
24425W        W92766  42.004  43.471   2.718
24426W        W92767  10.234   1.905  12.374
24427W        W92768  25.477  24.224  13.858
24428W        W92769  36.434   6.182  14.371
24429W        W92770  25.476  24.688  13.862
24430W        W92771  33.084   3.785   3.699
24431W        W92772  41.409  12.288  11.478
24432W        W92773  19.156  20.255   1.264
24433W        W92774  17.137  24.188  10.138
24434W        W92775  33.572  33.519  13.041
24435W        W92776  21.699  28.061  12.552
24436W        W92777  21.601  10.865  10.517
24437W        W92778  26.107  16.282  13.417
24438W        W92779   6.906  28.638   1.786
24439W        W92780  19.055  19.724  10.969
24440W        W92781   8.173  18.166  14.947
24441W        W92782  41.939  12.237   0.390
24442W        W92783  36.852  34.016   0.739
24443W        W92784  26.057  44.277  10.551
24444W        W92785  11.854  27.101   1.412
24445W        W92786  44.796   9.393   2.350
24446W        W92787  12.328   2.888  11.551
24447W        W92788  20.569  11.207   2.203
24448W        W92789  28.075  28.437   1.799
24449W        W92790  11.666  39.342  13.510
24450W        W92791  37.025  43.845   4.133
24451W        W92792  14.700  16.690  14.348
24452W        W92793  20.275   8.852  13.058
24453W        W92794  11.323   7.383   0.853
24454W        W92795   3.866   9.801  10.642
24455W        W92796  32.062  42.882   2.351
24456W        W92797  39.814  18.275   3.760
24457W        W92798   0.806  21.210   5.085
24458W        W92799  10.786  43.884   1.302
24459W        W92800  27.513  33.459   2.333
24460W        W92801  16.736  25.470  14.834
24461W        W92802  18.657  36.095   1.412
24462W        W92803  20.133   3.276   2.773
24463W        W92804  37.426  12.824   2.236
24464W        W92805  30.509  40.852   4.786
24465W        W92806  10.190  26.155   0.882
24466W        W92807  41.885   2.373  10.584
24467W        W92808   0.856   7.367   3.195
24468W        W92809  32.053  11.754  14.325
24469W        W92810   6.336   0.382   2.862
24470W        W92811  16.149  19.161  12.426
24471W        W92812   3.260  37.939   1.245
24472W        W92813  36.870  18.696  13.509
24473W        W92814  42.492   7.177   3.247
24474W        W92815   5.230   4.398  13.059
24475W        W92816   1.840  23.065   4.627
24476W        W92817  17.717  30.547   4.821
24477W        W92818  26.011  24.612  14.889
24478W        W92819  23.099  16.795  10.083
24479W        W92820  35.550  12.767  11.124
24480W        W92821  14.240  22.673   1.710
24481W        W92822  27.539  40.965  14.381
24482W        W92823   8.874  32.609  11.479
24483W        W92824  32.509   2.733   0.774
24484W        W92825  22.219  18.745  10.583
24485W        W92826  33.979   4.443   0.821
24486W        W92827  36.546  14.181   4.289
24487W        W92828  13.676  29.030  11.893
24488W        W92829  42.931  34.101   0.884
24489W        W92830  34.410   4.403  11.536
24490W        W92831  27.950  26.979  14.004
24491W        W92832  31.598  10.198   1.761
24492W        W92833   6.707   5.274  14.291
24493W        W92834  43.014  40.833  13.433
24494W        W92835  42.414   3.836  14.450
24495W        W92836  17.229  22.113  11.862
24496W        W92837  24.666  25.987   3.805
24497W        W92838   3.238  31.445  13.341
24498W        W92839  35.563  23.139   1.833
24499W        W92840   1.252  15.288   2.232
24500W        W92841  38.407  10.636   1.254
24501W        W92842  41.790  41.875  14.450
24502W        W92843  33.880  38.946   4.722
24503W        W92844   6.351   2.399  14.783
24504W        W92845  34.989  15.199   3.819
24505W        W92846  13.152   4.808  11.924
24506W        W92847  11.313   2.894  13.798
24507W        W92848  17.162  34.916  14.421
24508W        W92849  14.766   9.729   4.776
24509W        W92850  39.512  32.050   2.379
24510W        W92851   9.814  28.931   2.706
24511W        W92852  18.683  37.876   2.722
24512W        W92853  16.088   2.261   0.476
24513W        W92854   9.314  15.607   4.709
24514W        W92855  34.918  42.897  12.563
24515W        W92856  13.682   0.323  12.426
24516W        W92857  34.037  37.353  10.513
24517W        W92858  19.232   6.283   1.265
24518W        W92859   2.885  44.380  10.994
24519W        W92860  31.031  19.758   1.878
24520W        W92861   4.930  16.746  10.939
24521W        W92862   0.417   7.398   2.667
24522W        W92863  21.523  26.697   2.334
24523W        W92864   6.923   3.927  11.384
24524W        W92865   9.296  41.488  11.596
24525W        W92866  27.573  19.203   4.218
24526W        W92867  33.471  21.026  11.055
24527W        W92868  33.980  37.340   1.251
24528W        W92869   5.715  35.537  13.535
24529W        W92870  19.605  36.585   1.801
24530W        W92871  12.750  28.012   3.194
24531W        W92872  13.710  25.576   2.204
24532W        W92873  36.990  20.723  14.447
24533W        W92874  29.049  22.168   3.658
24534W        W92875  28.056  34.949   4.261
24535W        W92876  18.768  30.084   4.278
24536W        W92877  27.547  29.958  11.070
24537W        W92878  39.390   4.940   0.262
24538W        W92879  33.882  10.289   0.248
24539W        W92880   5.407  10.766   4.780
24540W        W92881  24.633   3.328  12.955
24541W        W92882  39.912  32.412  14.986
24542W        W92883   0.460   6.767   4.185
24543W        W92884  20.758   3.861   4.221
24544W        W92885  40.476  13.716   0.334
24545W        W92886  13.153  29.076  10.141
24546W        W92887  11.154  42.471   1.290
24547W        W92888  39.440  32.024  14.468
24548W        W92889  16.642  42.991  11.982
24549W        W92890  17.728  27.196  14.443
24550W        W92891  13.157   3.795  14.318
24551W        W92892   3.860   2.294   0.824
24552W        W92893  24.214  42.397   2.217
24553W        W92894  28.538  28.654  11.008
24554W        W92895   7.831  44.317   5.171
24555W        W92896   7.359  19.122   3.822
24556W        W92897  37.388  43.447   4.260
24557W        W92898  33.114  29.553  12.992
24558W        W92899   3.874   7.864   4.281
24559W        W92900   6.786  12.646  12.982
24560W        W92901  22.589   1.838   4.699
24561W        W92902   1.809  23.203  13.887
24562W        W92903  32.953  26.471   9.962
24563W        W92904  22.579  19.770  14.929
24564W        W92905  36.025  33.588   1.872
24565W        W92906   5.403  18.076  12.395
24566W        W92907   9.681  20.590   3.718
24567W        W92908  26.983  11.704   2.755
24568W        W92909   8.314  32.119   4.694
24569W        W92910   2.904  28.104  13.327
24570W        W92911   4.388  14.106   0.448
24571W        W92912  28.991  26.652  14.784
24572W        W92913  21.678  30.164  12.577
24573W        W92914   6.693  18.091  12.579
24574W        W92915  11.152  32.136  11.091
24575W        W92916   1.404  10.739  11.387
24576W        W92917  17.701  37.062  12.991
24577W        W92918  41.433  43.379  11.022
24578W        W92919  32.032  37.852  11.886
24579W        W92920   3.745  36.354   4.685
24580W        W92921  44.010  44.402  13.424
24581W        W92922  27.691  20.580   1.340
24582W        W92923   5.205  32.899   3.722
24583W        W92924  26.609  20.145   4.242
24584W        W92925  29.467  16.736  14.767
24585W        W92926  17.295  12.655   3.184
24586W        W92927  15.292  40.007   5.283
24587W        W92928  43.767  32.536   1.845
24588W        W92929  15.598   0.268   0.290
24589W        W92930   3.336  40.949  14.988
24590W        W92931  13.788  12.731   3.322
24591W        W92932  35.908  26.058   4.185
24592W        W92933  31.420  34.864  12.872
24593W        W92934   4.416  25.574   4.783
24594W        W92935  30.122  32.895   3.863
24595W        W92936  13.674  32.051   3.382
24596W        W92937   4.892  23.202   2.278
24597W        W92938   0.764  16.570   5.299
24598W        W92939  42.986  28.081   5.320
24599W        W92940  25.703  10.195  13.917
24600W        W92941  15.740  25.642  13.809
24601W        W92942  30.966  42.361   4.597
24602W        W92943  41.979  41.916  11.050
24603W        W92944  28.126  11.324   0.275
24604W        W92945  34.977  40.452   1.213
24605W        W92946  13.198   0.312   0.928
24606W        W92947   7.247  11.174  14.475
24607W        W92948  13.151  12.177  13.393
24608W        W92949   9.268  23.089  14.300
24609W        W92950  26.533  17.192   2.310
24610W        W92951  28.551  23.039  12.847
24611W        W92952  27.643  37.010  14.346
24612W        W92953  36.389  36.561  13.395
24613W        W92954  18.740  34.954   4.804
24614W        W92955  16.687  11.723  11.377
24615W        W92956  11.635  12.756  11.477
24616W        W92957  11.291   4.233  12.057
24617W        W92958  16.675   4.329  10.479
24618W        W92959  32.920  24.633  13.433
24619W        W92960  38.969   1.740  14.819
24620W        W92961  29.054   2.257   4.785
24621W        W92962  25.484   2.793  13.803
24622W        W92963  20.108  37.047  12.393
24623W        W92964  36.471  23.622  13.039
24624W        W92965  24.006  33.021   1.405
24625W        W92966  35.376  18.681  13.892
24626W        W92967  40.330   4.828   0.419
24627W        W92968  23.497  40.389  11.025
24628W        W92969  23.990   7.260   5.133
24629W        W92970   2.742  23.645  14.901
24630W        W92971  21.718   1.297   1.700
24631W        W92972  41.382  12.686  10.526
24632W        W92973  36.989  20.712   2.754
24633W        W92974   1.751  33.417   4.122
24634W        W92975  41.506  12.820  14.909
24635W        W92976  35.440  11.867  13.529
24636W        W92977   2.251  15.194  10.582
24637W        W92978  21.692  21.639  14.484
24638W        W92979  22.547   6.831   3.866
24639W        W92980  11.130  21.554   2.666
24640W        W92981  40.489   6.370   5.260
24641W        W92982  25.179  14.694  11.119
24642W        W92983  33.998  16.250   0.470
24643W        W92984  38.039  21.194   0.295
24644W        W92985   1.857  16.759   1.449
24645W        W92986  17.713  30.447   3.697
24646W        W92987  25.174  16.246  12.367
24647W        W92988   6.724  30.034   2.245
24648W        W92989  33.530   2.832  10.644
24649W        W92990  43.300  25.542  12.019
24650W        W92991  40.363  32.061   2.885
24651W        W92992  44.768  14.202  12.474
24652W        W92993  27.586   0.805   0.896
24653W        W92994  30.987   9.183   0.907
24654W        W92995  28.624  44.010  10.997
24655W        W92996   2.305  23.684   0.859
24656W        W92997   0.468  10.143   4.227
24657W        W92998   0.752  21.584  12.835
24658W        W92999  18.657   4.283  13.954
24659W        W93000  40.367  30.115   3.863
24660W        W93001  11.185   8.763  11.545
24661W        W93002   5.276  25.543  14.311
24662W        W93003  44.963  38.921   0.247
24663W        W93004   3.244  12.694  14.873
24664W        W93005  24.158  22.999   2.769
24665W        W93006   5.913  11.780  13.520
24666W        W93007  13.325  42.477   1.905
24667W        W93008  12.755  10.271   1.410
24668W        W93009  10.811   6.273   2.712
24669W        W93010   5.884  28.624  12.900
24670W        W93011  16.181   7.186   1.446
24671W        W93012  11.733  28.595  12.973
24672W        W93013   2.460   7.746  11.994
24673W        W93014   9.739  44.276   2.853
24674W        W93015  40.503  34.017   4.661
24675W        W93016  25.027  20.144  11.016
24676W        W93017  19.284  18.608  13.441
24677W        W93018  41.969  29.148   3.240
24678W        W93019  42.007  17.099  12.566
24679W        W93020  36.438  17.150   0.891
24680W        W93021  15.275  15.759   1.247
24681W        W93022  23.683  38.412   3.289
24682W        W93023   3.332  34.381   0.402
24683W        W93024  18.292  39.492  10.892
24684W        W93025  39.338  35.596  11.438
24685W        W93026  37.878  30.438   5.265
24686W        W93027   9.170  38.563  11.073
24687W        W93028  30.031  10.860   1.351
24688W        W93029   8.844   2.226  13.334
24689W        W93030  11.274  31.065  11.892
24690W        W93031  17.613  37.364   3.190
24691W        W93032  21.558  44.326  10.446
24692W        W93033  21.084  20.550  10.427
24693W        W93034   4.915  17.635   2.203
24694W        W93035   2.273  15.589  14.433
24695W        W93036  35.413   7.206  11.590
24696W        W93037  33.885  20.613   4.815
24697W        W93038  15.678  41.829  12.878
24698W        W93039  17.260  38.331  14.504
24699W        W93040  37.392  16.094  14.761
24700W        W93041  34.872  40.338  14.860
24701W        W93042   5.385  43.469  10.644
24702W        W93043  30.093  23.143  13.024
24703W        W93044  25.644  35.386   4.310
24704W        W93045  40.457  25.025   4.171
24705W        W93046  32.449   5.825   2.703
24706W        W93047  43.337  42.022   3.228
24707W        W93048  15.178   4.350  13.322
24708W        W93049  25.175   8.696   0.745
24709W        W93050  41.367  18.717  11.102
24710W        W93051  32.076  31.552  10.624
24711W        W93052  30.464  38.984   0.744
24712W        W93053  28.971  32.140   0.380
24713W        W93054   8.710   7.359   4.191
24714W        W93055  22.564  34.533  13.483
24715W        W93056  13.244  41.412  11.899
24716W        W93057   4.220  26.041   1.840
24717W        W93058  22.016  11.150  14.990
24718W        W93059  23.111  33.111   1.830
24719W        W93060  30.980  11.231   0.887
24720W        W93061  41.293   9.211  14.510
24721W        W93062  13.762  39.980   3.695
24722W        W93063  43.482   0.456  13.878
24723W        W93064  11.347   8.672  10.447
24724W        W93065  21.708  31.582   0.480
24725W        W93066  20.257  20.538   1.694
24726W        W93067   1.314   5.387   0.866
24727W        W93068   6.788  39.366   4.790
24728W        W93069  15.162  16.807  10.974
24729W        W93070  10.707  20.079  13.813
24730W        W93071   3.793  18.170   3.737
24731W        W93072  13.785   2.875   4.324
24732W        W93073  20.078  32.497   3.263
24733W        W93074  38.822   8.873   5.247
24734W        W93075  26.677  32.137   0.805
24735W        W93076  22.175  27.623  10.602
24736W        W93077   4.339   8.206  14.478
24737W        W93078   9.836   6.317  14.782
24738W        W93079  12.650  32.418   4.132
24739W        W93080   3.276  43.872   1.402
24740W        W93081  40.313  31.435  11.552
24741W        W93082  13.151   8.879   1.389
24742W        W93083  26.655  37.534  11.427
24743W        W93084  42.343  29.590   3.193
24744W        W93085  44.353   8.818   1.722
24745W        W93086  10.293  24.545  12.927
24746W        W93087  10.802  28.660   1.304
24747W        W93088   8.665  16.803   4.704
24748W        W93089  21.028  28.618  11.894
24749W        W93090  26.698  30.492   4.778
24750W        W93091  11.682  23.523  10.140
24751W        W93092  42.984   7.179  14.318
24752W        W93093  18.189  11.275  13.990
24753W        W93094   4.836  42.363   0.875
24754W        W93095  34.454  36.938   1.252
24755W        W93096  29.028   4.826  13.801
24756W        W93097  13.790  11.763  14.869
24757W        W93098  40.917  15.105   4.278
24758W        W93099  38.396  20.597  14.771
24759W        W93100  26.974   3.368   0.942
24760W        W93101  42.796  26.006  11.008
24761W        W93102  29.063  37.854   3.203
24762W        W93103   3.951  39.041   3.160
24763W        W93104  14.279   2.818   1.286
24764W        W93105   8.805  32.969  11.960
24765W        W93106  34.450  29.503   1.706
24766W        W93107  30.143  25.197  12.365
24767W        W93108  21.551  19.279  11.924
24768W        W93109  27.024   1.788   4.720
24769W        W93110  29.631  34.007  13.868
24770W        W93111  18.693  33.534   3.790
24771W        W93112   9.836  13.192  11.975
24772W        W93113  41.012  18.173  10.988
24773W        W93114  20.223   8.731   3.354
24774W        W93115  18.648  40.322   4.118
24775W        W93116  28.543   4.357  11.416
24776W        W93117   9.803  36.072   0.312
24777W        W93118  23.205  23.161   4.602
24778W        W93119   4.295   5.894   3.180
24779W        W93120   6.237  20.695   1.409
24780W        W93121  41.360  39.398  10.411
24781W        W93122   3.923   6.878   0.761
24782W        W93123  30.431  37.019  12.027
24783W        W93124  25.038  27.597  12.999
24784W        W93125  29.146   9.326  14.879
24785W        W93126  43.357  44.945  12.950
24786W        W93127  23.713  14.330   4.746
24787W        W93128  35.021  19.054   2.855
24788W        W93129   3.856   0.319   1.217
24789W        W93130  20.089  24.623  14.965
24790W        W93131   2.827   4.284   0.326
24791W        W93132   9.835  37.044  13.470
24792W        W93133  18.585  28.560   0.388
24793W        W93134   3.748  37.048   4.312
24794W        W93135  40.892  44.280   4.637
24795W        W93136  23.542   1.338   4.191
24796W        W93137  36.467  33.996   0.923
24797W        W93138  44.791   0.894  13.035
24798W        W93139  40.051  31.617   2.355
24799W        W93140  42.955  33.615  13.427
24800W        W93141  19.715  43.330  14.871
24801W        W93142  42.312  29.082  13.823
24802W        W93143   2.944  11.625   0.747
24803W        W93144  15.312   5.882   3.669
24804W        W93145  39.404  16.714  10.485
24805W        W93146  11.160  22.093   1.445
24806W        W93147   3.270  19.274   9.948
24807W        W93148   5.904  15.322   3.296
24808W        W93149  25.543  25.102  11.026
24809W        W93150  20.706  27.506   0.877
24810W        W93151  24.495  26.157   5.113
24811W        W93152  19.656  25.601   2.248
24812W        W93153  34.593  25.080  11.506
24813W        W93154  39.030  37.488  10.625
24814W        W93155  30.055  26.958   2.856
24815W        W93156  23.036  28.601   4.680
24816W        W93157  29.047  30.526  12.424
24817W        W93158  28.607   8.341  12.548
24818W        W93159  28.151  19.261   2.788
24819W        W93160  14.781  37.926   5.616
24820W        W93161  24.486  35.519  10.896
24821W        W93162  42.922  44.284  12.564
24822W        W93163  39.945  21.567  10.630
24823W        W93164   6.376  19.067   3.806
24824W        W93165  26.642   3.867  11.578
24825W        W93166  32.896  40.997  14.864
24826W        W93167  12.262  12.726  11.066
24827W        W93168  20.606   0.291   3.842
24828W        W93169  39.414   7.187   0.779
24829W        W93170  38.985   5.315   1.400
24830W        W93171   4.846  21.648  14.485
24831W        W93172  38.839  36.512   2.278
24832W        W93173  13.666  25.064  11.964
24833W        W93174  36.510  44.468  11.465
24834W        W93175  42.962  25.070  13.321
24835W        W93176   1.314  43.513  12.483
24836W        W93177  43.313  25.687  12.348
24837W        W93178  13.205  39.855   1.380
24838W        W93179  41.307  20.565   1.223
24839W        W93180  32.556  19.268  14.432
24840W        W93181  20.731   1.900  13.905
24841W        W93182  18.069  44.823   3.344
24842W        W93183  14.602   9.725  14.893
24843W        W93184   2.844  23.512  12.573
24844W        W93185  12.335   3.373  11.047
24845W        W93186  24.520  21.024  14.446
24846W        W93187  15.250   9.818  13.475
24847W        W93188   0.367  36.921   4.298
24848W        W93189   1.952  43.352   1.766
24849W        W93190  26.642  14.252  14.867
24850W        W93191   4.291   4.770   3.662
24851W        W93192  30.089  17.298  12.446
24852W        W93193  21.219  34.945  13.934
24853W        W93194  44.352   4.767   5.242
24854W        W93195  18.111  15.732  13.872
24855W        W93196  13.302  19.085  12.952
24856W        W93197  33.911   2.388  13.988
24857W        W93198  10.296  33.497   4.153
24858W        W93199  21.651  31.562  13.886
24859W        W93200  41.799  37.847  13.852
24860W        W93201  21.671  29.623   2.323
24861W        W93202  11.246   4.737   2.851
24862W        W93203  43.940  35.408   1.373
24863W        W93204  25.659  22.072   0.377
24864W        W93205  15.304  44.778   2.192
24865W        W93206   6.733  30.085   4.344
24866W        W93207   0.986  13.244  12.397
24867W        W93208   4.341  11.732   4.120
24868W        W93209  26.059   8.253   0.884
24869W        W93210  25.567  15.805   0.752
24870W        W93211  33.947  17.602  10.892
24871W        W93212   9.719  23.578   4.836
24872W        W93213   1.336  18.144   1.796
24873W        W93214   6.679  17.082   1.854
24874W        W93215  11.208  11.273  13.047
24875W        W93216  29.014  27.067  13.023
24876W        W93217  34.486   0.893  13.496
24877W        W93218  10.780   2.909   2.864
24878W        W93219  30.129  34.994  10.644
24879W        W93220  42.831  36.432   3.357
24880W        W93221  31.919   9.159   4.640
24881W        W93222   4.288  11.763   3.186
24882W        W93223   3.820  23.509   1.783
24883W        W93224   8.779   9.194   3.309
24884W        W93225  43.890  10.712   3.158
24885W        W93226   1.904  38.838   2.231
24886W        W93227  23.707   2.434  11.869
24887W        W93228   4.767  17.768  11.536
24888W        W93229  30.649  23.495   1.786
24889W        W93230  28.634  39.338   0.845
24890W        W93231  16.165  22.145   0.934
24891W        W93232  32.948  35.988   3.350
24892W        W93233  37.914  44.473  14.014
24893W        W93234  23.017   5.863  13.360
24894W        W93235   2.268  16.244   1.846
24895W        W93236   8.756  26.689   0.847
24896W        W93237  39.464  10.252   3.187
24897W        W93238  41.417  19.101   1.809
24898W        W93239  14.126  19.670  12.958
24899W        W93240  20.533  18.189   3.321
24900W        W93241   6.184  44.499   2.342
24901W        W93242  26.580  34.112   3.303
24902W        W93243  11.692  19.167   2.860
24903W        W93244  11.201  13.111  14.380
24904W        W93245  33.928  21.606  11.448
24905W        W93246  30.658   9.394   1.241
24906W        W93247  33.002  10.155   0.322
24907W        W93248  37.893  16.168  11.924
24908W        W93249  27.611  29.511  12.917
24909W        W93250   2.373  14.265   4.186
24910W        W93251  21.540  13.169   2.859
24911W        W93252  28.633  15.148  13.451
24912W        W93253  29.430  24.176  13.546
24913W        W93254  16.587   6.725   0.281
24914W        W93255  13.109   8.229  12.996
24915W        W93256  10.301  31.904   0.930
24916W        W93257  14.220  14.607   5.121
24917W        W93258  38.016  33.963  12.452
24918W        W93259   4.698  12.773   5.208
24919W        W93260  16.220   6.328   0.424
24920W        W93261  31.128   3.317  14.927
24921W        W93262  20.241  12.749  14.499
24922W        W93263   8.366  14.809   3.304
24923W        W93264  37.932   8.875   0.351
24924W        W93265  13.266   4.283  14.421
24925W        W93266  10.715   3.888   4.166
24926W        W93267  41.853  26.467  13.971
24927W        W93268  10.654  28.138  14.847
24928W        W93269   8.366  20.734   0.306
24929W        W93270  34.541  35.035   3.777
24930W        W93271   6.421  25.016   3.670
24931W        W93272   4.267   1.905  14.487
24932W        W93273  30.015  13.601   0.772
24933W        W93274   1.827  29.542   3.652
24934W        W93275  28.445  35.500  12.531
24935W        W93276  40.454   7.737   2.674
24936W        W93277  41.373  27.141  12.345
24937W        W93278  29.014  27.006   2.851
24938W        W93279  28.933  37.546  12.565
24939W        W93280   8.887  16.706  10.992
24940W        W93281  28.528   4.918   0.795
24941W        W93282  16.747  30.541   1.413
24942W        W93283  17.182  25.052   4.782
24943W        W93284  28.140   5.411   2.862
24944W        W93285  28.610  34.907   2.307
24945W        W93286  10.316  34.000   4.206
24946W        W93287  42.929  40.532   3.327
24947W        W93288   2.245  10.749   2.735
24948W        W93289  21.649  40.365  11.388
24949W        W93290  31.453  21.111  11.097
24950W        W93291   9.678   6.891   1.305
24951W        W93292  40.867  32.936  10.427
24952W        W93293  26.505  28.554   2.673
24953W        W93294  41.355  37.445  11.460
24954W        W93295  14.678  16.112  13.441
24955W        W93296  31.082  18.716  13.817
24956W        W93297  18.779  31.143  13.544
24957W        W93298  28.617  20.664   3.338
24958W        W93299   4.392  35.445   3.635
24959W        W93300  41.421  22.167  11.474
24960W        W93301  43.515  44.954  13.870
24961W        W93302  33.933  22.009  13.906
24962W        W93303  13.808  38.539  14.901
24963W        W93304  16.269  33.580   1.225
24964W        W93305   9.218  37.579  10.944
24965W        W93306  13.728  37.949   9.564
24966W        W93307  44.494  43.912   1.833
24967W        W93308  39.841  31.059   0.451
24968W        W93309  30.478   2.405  13.467
24969W        W93310  36.901  21.148  11.025
24970W        W93311  42.908   1.863  14.431
24971W        W93312  12.807  23.159  10.908
24972W        W93313  21.189  23.109   1.372
24973W        W93314   5.805  42.471  10.956
24974W        W93315  22.643  30.040  11.464
24975W        W93316  24.690  44.502  13.434
24976W        W93317   5.315  27.967   3.242
24977W        W93318  10.252  36.351   2.672
24978W        W93319  12.240   3.232   4.288
24979W        W93320  14.658  22.744   0.803
24980W        W93321  20.623   3.286  13.364
24981W        W93322   6.199  17.735  13.910
24982W        W93323  42.519  43.391  13.900
24983W        W93324  27.665  11.751   4.739
24984W        W93325  14.638  20.068  13.545
24985W        W93326   6.713   5.406  12.529
24986W        W93327  34.598  25.553  14.933
24987W        W93328  21.722  14.675   3.853
24988W        W93329   5.206  33.900  10.536
24989W        W93330  42.873  42.895   0.733
24990W        W93331  16.151  43.295  12.051
24991W        W93332  11.782   7.307  10.017
24992W        W93333  24.045  14.650  14.311
24993W        W93334  10.660  15.175   0.831
24994W        W93335   0.895  36.351   2.793
24995W        W93336  40.881  43.994   1.427
24996W        W93337  22.098  24.675  13.415
24997W        W93338  33.535  16.313  11.908
24998W        W93339  19.181  42.415  14.971
24999W        W93340  16.632  31.409  14.901
25000W        W93341  17.098  33.039  14.289
25001W        W93342  23.175  16.801   5.686
25002W        W93343   5.218  23.655  13.965
25003W        W93344  18.246   1.889  11.896
25004W        W93345  41.013  33.535   1.217
25005W        W93346  14.669  37.080  14.488
25006W        W93347  36.843  31.647  12.860
25007W        W93348  34.023   1.412  14.430
25008W        W93349   7.348  38.507   4.326
25009W        W93350  39.530  18.121  13.430
25010W        W93351  35.371  38.827  13.321
25011W        W93352  31.966  33.061  14.399
25012W        W93353  28.955   3.725  14.896
25013W        W93354  42.830   7.729   3.811
25014W        W93355   8.783  36.097  13.980
25015W        W93356  15.700   9.812  10.982
25016W        W93357  37.035  34.417   0.419
25017W        W93358  14.137  42.010  14.976
25018W        W93359  19.709  23.201  10.603
25019W        W93360   8.728   6.783  14.786
25020W        W93361  20.586   0.447  13.409
25021W        W93362  42.027  27.082  13.941
25022W        W93363  44.372  15.206  12.523
25023W        W93364  25.175   9.229   3.865
25024W        W93365   4.375   8.384  12.522
25025W        W93366  11.369  17.679   4.784
25026W        W93367   3.866  28.018   1.789
25027W        W93368  33.042  24.110  11.925
25028W        W93369  37.342  17.275   2.787
25029W        W93370  24.043  18.658   9.927
25030W        W93371  30.590  28.631  11.416
25031W        W93372  40.385   0.840  12.386
25032W        W93373  20.618  29.169  11.922
25033W        W93374  27.568  44.378  12.405
25034W        W93375  40.959  13.267   3.150
25035W        W93376  43.511  19.533  11.963
25036W        W93377  29.488  37.560  10.441
25037W        W93378  11.849  33.055  13.836
25038W        W93379  21.198  42.413  14.454
25039W        W93380  42.508  35.484  14.334
25040W        W93381  41.488   8.252   4.745
25041W        W93382  23.722   3.405   0.407
25042W        W93383  28.517  34.550   3.842
25043W        W93384  21.539  23.094   3.839
25044W        W93385  33.059  20.071  11.585
25045W        W93386   6.905  27.633  13.822
25046W        W93387  29.530  43.430   3.149
25047W        W93388  41.933   0.929   5.164
25048W        W93389  24.508  31.018  11.603
25049W        W93390  11.726  30.601   5.150
25050W        W93391   2.358  17.304   3.211
25051W        W93392   6.903  15.290  13.011
25052W        W93393   4.390  37.393   2.397
25053W        W93394  17.645  27.980   0.869
25054W        W93395  25.032  38.943   2.366
25055W        W93396  40.881  32.056  11.463
25056W        W93397  36.553   1.311   2.372
25057W        W93398  43.359   1.880  14.476
25058W        W93399  19.536  43.277   1.382
25059W        W93400  13.168  15.240   2.890
25060W        W93401   6.295  24.053  12.566
25061W        W93402  26.473  26.127   4.168
25062W        W93403  42.882  34.972  11.115
25063W        W93404  43.475  18.672  12.539
25064W        W93405  24.714   7.726   0.477
25065W        W93406  10.749  36.411  14.361
25066W        W93407  44.495  33.591   3.178
25067W        W93408  16.748   6.808  13.353
25068W        W93409  38.398   5.359   0.433
25069W        W93410   9.318  19.745   4.336
25070W        W93411  28.665  29.034   1.861
25071W        W93412  20.221  41.469   2.713
25072W        W93413  19.099  21.151  14.364
25073W        W93414  37.886   2.842   4.136
25074W        W93415  16.767  39.510   4.705
25075W        W93416  44.456  18.545   1.799
25076W        W93417  32.524  33.074   1.898
25077W        W93418   1.794  43.350  11.021
25078W        W93419  16.693  34.445   1.735
25079W        W93420  29.527  12.320   3.238
25080W        W93421  20.694  12.733   4.173
25081W        W93422  21.625   7.272   0.840
25082W        W93423  32.988  40.838  11.483
25083W        W93424  27.549  35.861  14.416
25084W        W93425  29.072  28.949  13.543
25085W        W93426  43.918  32.046   3.342
25086W        W93427  41.902  19.187  13.997
25087W        W93428  10.667  44.786   3.280
25088W        W93429  39.854  22.210  13.795
25089W        W93430  42.848  22.661   2.182
25090W        W93431  22.719  11.275  11.373
25091W        W93432  37.422   9.348   1.329
25092W        W93433  10.744  10.202  10.005
25093W        W93434  36.497   4.892  13.346
25094W        W93435  30.639  28.473  12.878
25095W        W93436  26.671  29.027   1.781
25096W        W93437  25.181  33.490  10.919
25097W        W93438  22.008   1.297   3.715
25098W        W93439  25.626  33.065   3.353
25099W        W93440  31.642  20.219  11.915
25100W        W93441  11.757  15.275  11.463
25101W        W93442  26.608   8.233   1.286
25102W        W93443  15.810  35.996  11.387
25103W        W93444  16.733  20.706   4.812
25104W        W93445  30.918   6.328  14.343
25105W        W93446  32.424   4.834   0.809
25106W        W93447  40.036  23.570  11.989
25107W        W93448  41.795  40.935  11.040
25108W        W93449  37.557  27.020   2.297
25109W        W93450  35.466  32.117   4.682
25110W        W93451  31.621  26.162  10.617
25111W        W93452  39.851  27.535   3.231
25112W        W93453  35.037  43.810   4.778
25113W        W93454  40.392  33.483   1.292
25114W        W93455  17.282  36.492  14.505
25115W        W93456  14.810  26.110   1.926
25116W        W93457   2.783   5.804  12.855
25117W        W93458  16.756  11.237   2.383
25118W        W93459  25.130  14.109   2.313
25119W        W93460  43.895   2.843  13.850
25120W        W93461  36.427  12.644   9.974
25121W        W93462  35.940  28.020   0.379
25122W        W93463   2.831  23.120  14.873
25123W        W93464  33.038  16.695  11.857
25124W        W93465  39.475  34.940  13.871
25125W        W93466  26.027  14.833  10.426
25126W        W93467  35.946  30.537   3.314
25127W        W93468  37.369  30.947   3.729
25128W        W93469   6.253  42.004  12.382
25129W        W93470  26.016   2.727   3.718
25130W        W93471  39.391  29.553   4.294
25131W        W93472  25.031   3.236   3.381
25132W        W93473  10.159   6.354   3.240
25133W        W93474  28.973  34.529  13.062
25134W        W93475   3.297  39.859   3.792
25135W        W93476  32.496  42.329  12.883
25136W        W93477  33.423  22.683  11.002
25137W        W93478  33.936  24.208  13.007
25138W        W93479  18.617  41.414  10.463
25139W        W93480  11.354  17.786   2.226
25140W        W93481  25.204  23.703   3.831
25141W        W93482  35.947  22.049   2.663
25142W        W93483  38.554  15.686  14.356
25143W        W93484  30.043  38.045  12.536
25144W        W93485  33.997   0.843   1.860
25145W        W93486  42.294  25.213  11.381
25146W        W93487   7.324  23.225  11.458
25147W        W93488   4.380  15.586  11.024
25148W        W93489   0.332  14.210  11.478
25149W        W93490   7.349  41.336   1.337
25150W        W93491  28.169  35.498  14.334
25151W        W93492  22.683  12.322  14.440
25152W        W93493   1.433  11.276   3.804
25153W        W93494  27.094  33.519   3.236
25154W        W93495   5.339   4.231  12.424
25155W        W93496  15.733  21.065   3.363
25156W        W93497  22.638  14.693   3.853
25157W        W93498   4.767  36.540  13.308
25158W        W93499  40.920   2.790  12.523
25159W        W93500  12.856  10.226   0.728
25160W        W93501   8.246  37.968  12.471
25161W        W93502  37.903  22.627  10.602
25162W        W93503  33.445  24.695  13.332
25163W        W93504  13.667   3.893  14.885
25164W        W93505  44.846  19.735   3.294
25165W        W93506   7.194  29.521  14.354
25166W        W93507  41.040  43.981   4.293
25167W        W93508   8.282  44.786   0.843
25168W        W93509  29.918  34.485  10.451
25169W        W93510  17.292   8.841  11.881
25170W        W93511   4.871  25.161   4.189
25171W        W93512  32.604  24.214  14.892
25172W        W93513   8.249  28.095  13.400
25173W        W93514  42.994  13.172   1.878
25174W        W93515  12.820  14.761   4.284
25175W        W93516   7.717  11.135  11.514
25176W        W93517  37.852  26.119   0.836
25177W        W93518   0.984  21.179   1.857
25178W        W93519  37.554  39.463  12.966
25179W        W93520  10.791   5.293   0.427
25180W        W93521   4.393   5.719   4.314
25181W        W93522  14.183   6.354  14.330
25182W        W93523  16.316  15.308  12.887
25183W        W93524   7.259  32.572  11.910
25184W        W93525  32.534  39.343  12.483
25185W        W93526   0.934  17.131   1.713
25186W        W93527  31.640  42.989  10.640
25187W        W93528  18.186   9.241   4.611
25188W        W93529  17.766   6.308  12.529
25189W        W93530   7.272  32.019  13.831
25190W        W93531  35.864  13.686  10.506
25191W        W93532   2.445  42.844  11.898
25192W        W93533  23.158  20.687   2.306
25193W        W93534  31.961  25.610  13.391
25194W        W93535   5.360  21.232   4.177
25195W        W93536   8.787  21.213  10.419
25196W        W93537  17.185   0.752   4.161
25197W        W93538  17.249   0.395   4.775
25198W        W93539  40.011  37.083   2.792
25199W        W93540  43.901   3.339   1.253
25200W        W93541  30.035  35.561   3.644
25201W        W93542  34.415   1.797   0.420
25202W        W93543  25.204   3.929   4.293
25203W        W93544  32.901  20.587  11.383
25204W        W93545  36.927   8.690  13.490
25205W        W93546  19.254  25.581   0.411
25206W        W93547  26.117  25.028  10.490
25207W        W93548  34.413  22.043   4.819
25208W        W93549  43.474  28.002   2.395
25209W        W93550  20.197  43.329  14.023
25210W        W93551  34.911  41.354   1.752
25211W        W93552  30.560  43.975  10.951
25212W        W93553  41.989  16.281   2.307
25213W        W93554  28.097  26.613  12.491
25214W        W93555   5.754  22.089  11.463
25215W        W93556  28.172  37.947  11.926
25216W        W93557  12.786  10.779   2.778
25217W        W93558  25.103  24.209   4.734
25218W        W93559  26.115  27.131   2.381
25219W        W93560  20.756  36.527   2.375
25220W        W93561  37.358  32.099  14.907
25221W        W93562  36.934   1.740   3.326
25222W        W93563  26.534   1.873  10.468
25223W        W93564   0.340  29.147  12.440
25224W        W93565  19.117  15.156  10.573
25225W        W93566   4.234   9.706   0.964
25226W        W93567  15.650   0.455  11.557
25227W        W93568  13.155  21.598  13.536
25228W        W93569  20.206   6.288   3.757
25229W        W93570  22.107  32.623  10.641
25230W        W93571  26.993   9.156  13.035
25231W        W93572  32.522  28.990  12.462
25232W        W93573  34.043  15.801   5.218
25233W        W93574   4.428   9.782  12.944
25234W        W93575  13.134  37.043  12.976
25235W        W93576  20.220  43.774   1.384
25236W        W93577  29.668  21.620  14.493
25237W        W93578  17.570   1.870  12.371
25238W        W93579  27.459   3.867   2.706
25239W        W93580   0.791   7.812   0.408
25240W        W93581  29.073  37.940  11.086
25241W        W93582  27.949  35.044   2.416
25242W        W93583  25.706  33.042  13.332
25243W        W93584  27.151  32.477   0.751
25244W        W93585  10.279  24.674  10.422
25245W        W93586  31.962   0.406   2.693
25246W        W93587   9.314  22.668   4.213
25247W        W93588   6.790  42.285  10.990
25248W        W93589  44.400  29.050   1.273
25249W        W93590  23.603  35.903  12.395
25250W        W93591  15.753   6.420   3.247
25251W        W93592  11.766  15.311   3.371
25252W        W93593  34.417  25.082   2.762
25253W        W93594  27.090  12.297   3.370
25254W        W93595  35.931  37.055   0.890
25255W        W93596  40.012   2.457  12.009
25256W        W93597  27.150  17.572   1.889
25257W        W93598   4.446  20.757   1.280
25258W        W93599  14.200  16.740   4.731
25259W        W93600  13.264  10.188  10.087
25260W        W93601  34.988  31.932   5.304
25261W        W93602  29.666  25.052  14.922
25262W        W93603  26.522  14.622   3.830
25263W        W93604  12.252  35.974   1.217
25264W        W93605   8.891  23.733   3.834
25265W        W93606  12.788  10.140  12.343
25266W        W93607  20.135  34.476   3.831
25267W        W93608  29.563  33.605  10.949
25268W        W93609  10.320  36.584   3.272
25269W        W93610  11.277   0.768   3.297
25270W        W93611  27.951  12.738  14.500
25271W        W93612  28.609  20.637  14.296
25272W        W93613  31.928   5.266   0.823
25273W        W93614  10.294   7.839   4.628
25274W        W93615  10.160  39.433   0.479
25275W        W93616  43.792  18.764  14.276
25276W        W93617  38.835   1.466   0.859
25277W        W93618  23.176  19.636   1.249
25278W        W93619   3.948  36.022  14.964
25279W        W93620  43.863  44.807   0.426
25280W        W93621  43.458  37.373  14.463
25281W        W93622   1.859  42.463   1.312
25282W        W93623  31.437  35.567   2.194
25283W        W93624  23.044  35.369   0.754
25284W        W93625  42.484  41.975  13.815
25285W        W93626   4.743  10.724  10.500
25286W        W93627  14.780  23.232   1.435
25287W        W93628  25.709   9.661  11.060
25288W        W93629  33.107   8.797  13.508
25289W        W93630   7.888  16.209   3.259
25290W        W93631   6.866  28.511   3.234
25291W        W93632  34.110  26.011  14.439
25292W        W93633   6.825   9.705  13.002
25293W        W93634  11.868  35.545   0.838
25294W        W93635  40.887  10.299  12.419
25295W        W93636   5.850  29.110  11.557
25296W        W93637  33.560  39.899   3.809
25297W        W93638  31.424  36.543  13.519
25298W        W93639  24.695  30.981   4.303
25299W        W93640   0.291   8.205  13.891
25300W        W93641  40.831  31.996   3.378
25301W        W93642  33.454  36.500   0.302
25302W        W93643  30.588  33.964  10.941
25303W        W93644  19.217   3.758   4.220
25304W        W93645  17.215  35.926  13.798
25305W        W93646  14.214  29.043   3.327
25306W        W93647  10.767  27.643   2.783
25307W        W93648  23.006  41.889  13.003
25308W        W93649  15.312  21.520  14.976
25309W        W93650  23.676  32.031   1.748
25310W        W93651   2.787  20.129   3.843
25311W        W93652  31.975   9.342   0.790
25312W        W93653  27.132  38.954  11.036
25313W        W93654  21.650   3.285  14.835
25314W        W93655  26.097   4.931   1.848
25315W        W93656  42.358   1.366  11.384
25316W        W93657  28.543  10.751   2.672
25317W        W93658   7.787  21.519   4.330
25318W        W93659  28.649  40.499   9.977
25319W        W93660  14.601   5.400   0.915
25320W        W93661   8.663  10.774  10.426
25321W        W93662   2.768   5.779   3.654
25322W        W93663   1.833  10.722  14.791
25323W        W93664   1.403  12.173   1.316
25324W        W93665  10.273  38.466  13.940
25325W        W93666  41.844   3.226   2.381
25326W        W93667   7.333  32.084   1.695
25327W        W93668   1.850  43.350   3.840
25328W        W93669  13.336  25.202  14.011
25329W        W93670  35.476  38.361  13.532
25330W        W93671  10.707  40.370  11.998
25331W        W93672  10.846  13.700  14.307
25332W        W93673  23.613  44.299  11.035
25333W        W93674   6.256  36.427   0.811
25334W        W93675  24.702   0.935  12.444
25335W        W93676  40.916   4.848   3.866
25336W        W93677  39.824  13.695   3.212
25337W        W93678  10.186  14.775   4.655
25338W        W93679   6.827  43.273  10.934
25339W        W93680  20.740   8.820  13.456
25340W        W93681  24.060  30.566   3.644
25341W        W93682  27.167  21.545  14.277
25342W        W93683   4.842  22.662  13.913
25343W        W93684   4.397   0.925  13.951
25344W        W93685   0.926  29.969   0.317
25345W        W93686  13.764   9.273   4.147
25346W        W93687   4.256  26.037   1.406
25347W        W93688  19.658  28.489   3.176
25348W        W93689  44.370  11.264   3.234
25349W        W93690   9.380  32.468  11.968
25350W        W93691   1.238  22.120   4.270
25351W        W93692  37.362  38.896   1.426
25352W        W93693  31.998   1.264   1.856
25353W        W93694  11.357  29.976  10.579
25354W        W93695  38.973  21.234  10.568
25355W        W93696  32.485   5.228   3.336
25356W        W93697  12.328   2.410  11.430
25357W        W93698   7.765  44.259  12.877
25358W        W93699   4.398   4.450   4.718
25359W        W93700   5.340  32.949  14.929
25360W        W93701  23.574  13.782  14.877
25361W        W93702   7.242  12.677   1.744
25362W        W93703  32.478   7.322  12.033
25363W        W93704  20.594  36.079  11.451
25364W        W93705   7.884  25.009  13.023
25365W        W93706  31.544  25.615  14.512
25366W        W93707  32.027   5.725   2.321
25367W        W93708  10.809  28.550   4.209
25368W        W93709  39.830  42.003   5.716
25369W        W93710  33.479  43.859   2.336
25370W        W93711   0.439  28.110  11.429
25371W        W93712  22.506  29.920  12.040
25372W        W93713   1.330  15.619   0.312
25373W        W93714  34.930  13.645   3.258
25374W        W93715  37.844  30.636  11.468
25375W        W93716  10.736   9.874  11.563
25376W        W93717  18.670  32.579  13.863
25377W        W93718  29.569  34.561   4.124
25378W        W93719  23.111  21.213  13.350
25379W        W93720  18.589  38.510  13.026
25380W        W93721   6.412  28.961  13.896
25381W        W93722  42.963  30.521  14.992
25382W        W93723  33.999   2.874   4.767
25383W        W93724  26.084  12.848  14.762
25384W        W93725  24.084   4.907   4.131
25385W        W93726   8.213  37.547  14.379
25386W        W93727  24.650   7.744   4.608
25387W        W93728  12.232   7.373  13.369
25388W        W93729  31.954  15.598  13.852
25389W        W93730  31.066  18.638  11.553
25390W        W93731  23.650  26.608  10.426
25391W        W93732  44.492  44.380  14.891
25392W        W93733  29.160  41.959  12.054
25393W        W93734  34.905  27.082  12.964
25394W        W93735  17.297  37.918  11.506
25395W        W93736  36.889  23.239  14.327
25396W        W93737  28.471  19.192  13.841
25397W        W93738   5.401  34.477   1.438
25398W        W93739  42.968  14.593  11.391
25399W        W93740  27.561  16.143   2.674
25400W        W93741  31.435   4.902   3.699
25401W        W93742   7.854   4.868   2.246
25402W        W93743  41.019   9.806  11.005
25403W        W93744   4.428  24.229   3.301
25404W        W93745  24.584  18.199  10.986
25405W        W93746  31.001  36.361   4.663
25406W        W93747  35.542  29.032   0.258
25407W        W93748  44.844   1.970  11.023
25408W        W93749  42.451  41.523   2.754
25409W        W93750  13.236   4.410  10.908
25410W        W93751  22.606   4.427   1.237
25411W        W93752  32.953   2.733  12.447
25412W        W93753  34.056   3.433  12.056
25413W        W93754  11.687  31.547   0.326
25414W        W93755  32.984  42.346  12.949
25415W        W93756  32.610  14.187  11.896
25416W        W93757  16.608  37.857   2.258
25417W        W93758  29.940   0.266  10.605
25418W        W93759  22.096  14.157  14.979
25419W        W93760  25.512  33.389  10.964
25420W        W93761   5.807  17.745   4.690
25421W        W93762  11.185  43.878  12.091
25422W        W93763   1.956  35.933  14.926
25423W        W93764   7.191  37.376   3.645
25424W        W93765  39.385  23.617   3.161
25425W        W93766   8.860  32.566  14.296
25426W        W93767  28.495   9.844   3.821
25427W        W93768   5.254  41.985  14.511
25428W        W93769  44.818  39.000   0.926
25429W        W93770  24.066  12.297  13.469
25430W        W93771  10.653  19.199   1.765
25431W        W93772   5.817  10.650   0.457
25432W        W93773  12.703  28.503  10.535
25433W        W93774  33.018   7.777   1.232
25434W        W93775  18.771  16.719   2.358
25435W        W93776  24.977   6.696  11.446
25436W        W93777  38.335   8.768  12.877
25437W        W93778  40.888   3.249  10.611
25438W        W93779  24.050  11.294  10.982
25439W        W93780  21.102   7.203   1.824
25440W        W93781  29.944   5.284  12.006
25441W        W93782   9.776   4.745   4.290
25442W        W93783  29.967  23.507  13.864
25443W        W93784   9.156  41.858  12.847
25444W        W93785  35.377  11.271  14.981
25445W        W93786  30.162  35.526   3.353
25446W        W93787  24.125  12.189   4.266
25447W        W93788  28.027   4.845   2.288
25448W        W93789  14.118  34.102   3.175
25449W        W93790  44.944  33.004  11.935
25450W        W93791  18.070  28.574   4.262
25451W        W93792  29.053  23.994  11.406
25452W        W93793  22.667  25.186  11.085
25453W        W93794   8.249  16.126  10.485
25454W        W93795  43.378  41.798  11.451
25455W        W93796  30.567   7.812  11.608
25456W        W93797  42.850  17.168   3.744
25457W        W93798  28.106  25.674  12.861
25458W        W93799  38.383   5.401  13.038
25459W        W93800   2.857   4.352   1.356
25460W        W93801  36.542   6.880   1.256
25461W        W93802  12.767  37.961  14.306
25462W        W93803  33.014   6.409   0.940
25463W        W93804  27.143  28.024  10.160
25464W        W93805  12.802  44.370   0.297
25465W        W93806   7.751  37.891  10.470
25466W        W93807  42.031  28.506  13.002
25467W        W93808  30.989   1.775  12.575
25468W        W93809   1.824   6.230   3.787
25469W        W93810   2.458   4.264  12.039
25470W        W93811  26.556  31.982   3.275
25471W        W93812  11.645  23.019  10.624
25472W        W93813  27.539  31.428  11.097
25473W        W93814  23.024  34.937  10.938
25474W        W93815  21.099  33.922   2.376
25475W        W93816   4.807  30.147   0.918
25476W        W93817  26.953   4.834  13.501
25477W        W93818  41.484  30.545   1.850
25478W        W93819  14.804   2.802  11.997
25479W        W93820  35.084  40.998  10.911
25480W        W93821  14.204  12.239   3.242
25481W        W93822   9.645  26.589  12.469
25482W        W93823  35.085   6.327  12.042
25483W        W93824  40.991  44.006  11.108
25484W        W93825   7.699   5.261  12.511
25485W        W93826  42.951  21.168   4.289
25486W        W93827  32.135  35.919  11.436
25487W        W93828  40.399   4.204   4.329
25488W        W93829   7.238  26.506   5.122
25489W        W93830  11.140  13.133   3.866
25490W        W93831  40.906  34.053  11.078
25491W        W93832  23.663  35.450  12.051
25492W        W93833   3.276  36.996   1.933
25493W        W93834  22.144   0.973  14.841
25494W        W93835  29.487  24.661   3.255
25495W        W93836  28.043  30.515   3.702
25496W        W93837  12.620  29.161   0.798
25497W        W93838  32.455   3.398  11.423
25498W        W93839   2.757  37.567  14.965
25499W        W93840  31.451  13.108   2.829
25500W        W93841  15.803  24.017   3.157
25501W        W93842  44.849  11.223   0.829
25502W        W93843  19.139   1.290  12.062
25503W        W93844  13.211  13.116   0.369
25504W        W93845  37.580  29.441   1.798
25505W        W93846  38.896  36.526   4.319
25506W        W93847  16.239  18.097   1.718
25507W        W93848   8.255  10.186  12.485
25508W        W93849  26.644  17.272   4.129
25509W        W93850   9.869  33.058  11.933
25510W        W93851  40.833  25.561   2.334
25511W        W93852  11.205  40.422   2.385
25512W        W93853  13.230  11.189   5.147
25513W        W93854   5.284  15.795  10.538
25514W        W93855  26.700  38.329  14.397
25515W        W93856  12.358  22.021   0.410
25516W        W93857  44.779  16.630   1.783
25517W        W93858  34.487   2.936  14.010
25518W        W93859   3.797  15.656  12.979
25519W        W93860   6.242   6.677   0.390
25520W        W93861  44.927  33.912   2.252
25521W        W93862  26.970  11.749  14.442
25522W        W93863   8.775  14.242   3.772
25523W        W93864  27.137  27.987  14.956
25524W        W93865  24.155   6.227   2.363
25525W        W93866  26.128  41.855  14.769
25526W        W93867  26.983   9.741  13.962
25527W        W93868  18.747   2.313   4.208
25528W        W93869  15.605   1.825   4.330
25529W        W93870  36.946   3.386   3.175
25530W        W93871  44.479  14.292  11.927
25531W        W93872  15.798  11.331  10.994
25532W        W93873  42.964   9.309   2.834
25533W        W93874  28.631   8.780  11.606
25534W        W93875  31.432  33.962   2.312
25535W        W93876  42.980  29.465   0.469
25536W        W93877  35.867   6.859   4.829
25537W        W93878  43.322  41.003   0.364
25538W        W93879  31.027  25.024  11.408
25539W        W93880  43.773  28.621   4.603
25540W        W93881  19.205  12.823   2.853
25541W        W93882  28.030  35.359   0.813
25542W        W93883   9.690  34.589  13.317
25543W        W93884   2.228  40.974   2.721
25544W        W93885   8.868  33.493   0.741
25545W        W93886  21.661  22.069  11.891
25546W        W93887  33.112  21.092  14.504
25547W        W93888  22.710  16.729   3.170
25548W        W93889  23.570  26.618   2.759
25549W        W93890  27.546  28.151   5.672
25550W        W93891  18.714  30.917  11.906
25551W        W93892  28.469  41.924   2.333
25552W        W93893  14.180  16.583  14.389
25553W        W93894  30.529  33.037  11.376
25554W        W93895   9.778  41.898  14.006
25555W        W93896   1.291  38.541   0.898
25556W        W93897  23.134  42.877   0.760
25557W        W93898  23.183   4.740  13.465
25558W        W93899  11.302  33.501  10.923
25559W        W93900  40.355  43.362   3.801
25560W        W93901  41.798   8.251   1.313
25561W        W93902  15.612  28.549   0.420
25562W        W93903  11.165  34.460   1.325
25563W        W93904  10.277  34.984   0.923
25564W        W93905  27.156  37.973   3.149
25565W        W93906  32.047  13.211  10.922
25566W        W93907  40.469   7.172  10.148
25567W        W93908   9.234  39.909   2.404
25568W        W93909  40.467   4.244  10.496
25569W        W93910  19.143   8.713  11.487
25570W        W93911  12.737  26.030  10.432
25571W        W93912  26.103   9.208   4.663
25572W        W93913  27.074  42.955   2.390
25573W        W93914  34.953  22.684   2.371
25574W        W93915  25.470   8.853  13.425
25575W        W93916  34.117  18.656  12.876
25576W        W93917  12.207  15.243   1.876
25577W        W93918   2.264  15.721  14.912
25578W        W93919  20.153  41.447   0.818
25579W        W93920   0.426  18.712  13.464
25580W        W93921  28.067  31.025   0.438
25581W        W93922   7.412   6.394  13.970
25582W        W93923  36.066  23.723   3.284
25583W        W93924  11.648  40.999   2.212
25584W        W93925  42.032  10.255  10.607
25585W        W93926   2.901  37.021  10.931
25586W        W93927   1.413  41.032  14.774
25587W        W93928  12.309   7.332  13.885
25588W        W93929   3.289   1.893  12.491
25589W        W93930  31.603  28.011   0.312
25590W        W93931  42.909   8.353   3.160
25591W        W93932   6.718  21.187  12.034
25592W        W93933  21.144  20.728   2.367
25593W        W93934   2.258  17.187   0.794
25594W        W93935  42.442   7.681  10.594
25595W        W93936  31.512   2.903   2.191
25596W        W93937  10.308  42.318   5.205
25597W        W93938   0.330  16.180  10.576
25598W        W93939  33.469  19.192   0.772
25599W        W93940   1.432  44.326   0.379
25600W        W93941  12.834  10.215   0.401
25601W        W93942  44.496  41.930  14.513
25602W        W93943  18.765  31.493  13.042
25603W        W93944   0.863  40.916   2.765
25604W        W93945   9.348  21.186   4.280
25605W        W93946  28.114  44.863   4.128
25606W        W93947   7.383   2.234  11.508
25607W        W93948  20.064  39.353   0.927
25608W        W93949  16.704  25.684   0.768
25609W        W93950  27.625  32.971   2.898
25610W        W93951   5.863  21.517   3.808
25611W        W93952  13.719  11.214  11.978
25612W        W93953  27.959  35.588   3.742
25613W        W93954  11.791  13.692  11.477
25614W        W93955  32.923  39.532   3.863
25615W        W93956  11.279  40.032  14.989
25616W        W93957  34.563  40.920   5.132
25617W        W93958  13.189   8.780  12.995
25618W        W93959  29.129   9.800   3.364
25619W        W93960  40.359  24.681  12.863
25620W        W93961  28.463  40.041   3.266
25621W        W93962  12.681  15.250   3.293
25622W        W93963  19.608  36.065   4.174
25623W        W93964   6.375  27.642   1.436
25624W        W93965  18.277  25.636  10.490
25625W        W93966  18.061  25.053   2.767
25626W        W93967  41.425  36.024  14.391
25627W        W93968  30.504  38.074  12.895
25628W        W93969  31.989  33.447  11.416
25629W        W93970  40.963  30.536  10.517
25630W        W93971   5.755  11.334  12.385
25631W        W93972   3.788  44.793  11.960
25632W        W93973  11.689  35.887   3.352
25633W        W93974  43.383  35.057   3.679
25634W        W93975  43.424  38.509   3.313
25635W        W93976  11.361  30.628   0.303
25636W        W93977  44.386   8.224  11.612
25637W        W93978   5.846   3.879  12.872
25638W        W93979  26.458   7.688   0.448
25639W        W93980   3.811  33.998   4.165
25640W        W93981  34.438  31.037  10.935
25641W        W93982  37.836  24.710   4.838
25642W        W93983  36.866  32.466   3.818
25643W        W93984   9.273  20.697  14.993
25644W        W93985  31.131  30.138  13.817
25645W        W93986  17.577  14.302  13.879
25646W        W93987  28.450  21.180  12.017
25647W        W93988  30.606  39.972  13.029
25648W        W93989   4.356   8.233   3.227
25649W        W93990  34.549  11.272  12.469
25650W        W93991   3.420  22.683  11.397
25651W        W93992  21.190  27.503  12.504
25652W        W93993  15.095  13.609  11.923
25653W        W93994  12.224  37.514  14.870
25654W        W93995  22.538  29.644  13.548
25655W        W93996  13.194  20.047   1.300
25656W        W93997  29.424  24.656  12.839
25657W        W93998  38.879  27.056  12.573
25658W        W93999  31.449  27.977   0.809
25659W        W94000   3.438  43.793  11.402
25660W        W94001  33.883  44.877  13.045
25661W        W94002  32.470  19.275  11.896
25662W        W94003   7.311   2.407   0.343
25663W        W94004  15.178  29.629  11.120
25664W        W94005   8.296  29.539   4.281
25665W        W94006   5.274  36.861   0.967
25666W        W94007   5.197  44.390  14.403
25667W        W94008   3.839  11.674   2.736
25668W        W94009  33.604  31.539   0.807
25669W        W94010  36.379   8.841   4.837
25670W        W94011  16.089  34.506  13.491
25671W        W94012  11.235  24.482  10.895
25672W        W94013  32.596  24.129  13.509
25673W        W94014   7.207   2.311   3.783
25674W        W94015  17.070  18.192  10.441
25675W        W94016  41.384  21.261   2.364
25676W        W94017   9.650   7.826  13.405
25677W        W94018   4.833  30.418   4.691
25678W        W94019   9.806  30.073  14.897
25679W        W94020  43.983  26.133  10.411
25680W        W94021  38.907   3.371   2.203
25681W        W94022  25.214  31.128   2.823
25682W        W94023  30.111  31.972  14.968
25683W        W94024  11.761  22.525   1.343
25684W        W94025  40.432  14.731  13.903
25685W        W94026   0.469  30.043   3.659
25686W        W94027  26.179  22.644   0.815
25687W        W94028  31.126  30.425   0.855
25688W        W94029  31.916  37.946  13.975
25689W        W94030  30.572  24.707   1.798
25690W        W94031   9.291   9.871  14.938
25691W        W94032  17.297  15.630  13.451
25692W        W94033  25.546  42.799  10.136
25693W        W94034   8.280   9.355   0.417
25694W        W94035   5.718  12.305  13.935
25695W        W94036  37.449  16.100  14.431
25696W        W94037  21.076  27.959  14.420
25697W        W94038  24.211   5.289   1.889
25698W        W94039  40.046   0.983  10.573
25699W        W94040  41.945   3.367  10.585
25700W        W94041  19.553  10.192   2.803
25701W        W94042  31.486  28.635   4.152
25702W        W94043  42.466  39.862   0.351
25703W        W94044  12.690  27.496  14.911
25704W        W94045   3.829  23.001  12.444
25705W        W94046  10.210  17.254   0.761
25706W        W94047   7.341  17.652  11.558
25707W        W94048   4.711  36.515  14.853
25708W        W94049  14.262  37.832  12.890
25709W        W94050  33.058  43.801   2.296
25710W        W94051  41.811  17.229  11.586
25711W        W94052  40.464  14.768   3.709
25712W        W94053  28.960  31.472  14.840
25713W        W94054   9.826  19.685   1.221
25714W        W94055  40.475   5.843  11.097
25715W        W94056  38.069  23.644  12.832
25716W        W94057   3.920  44.936   0.438
25717W        W94058  33.064  25.565   0.778
25718W        W94059  39.021  30.098  14.981
25719W        W94060  41.876   4.288  11.507
25720W        W94061  30.468  18.787   2.787
25721W        W94062   0.479  16.237   3.377
25722W        W94063  44.292  40.941  10.964
25723W        W94064  27.025  12.304   2.290
25724W        W94065  41.291  39.546  13.398
25725W        W94066  21.574  39.553  11.553
25726W        W94067  44.303   8.714  11.882
25727W        W94068  16.618  23.086  10.902
25728W        W94069  30.044   7.210   3.186
25729W        W94070  26.651   4.398  11.998
25730W        W94071  10.355  31.088   3.212
25731W        W94072  30.154  40.396  10.895
25732W        W94073  25.193  24.508   3.216
25733W        W94074  34.871   3.408   3.254
25734W        W94075  11.229  41.815   3.731
25735W        W94076  17.263  19.550   3.366
25736W        W94077   6.688  33.070   4.331
25737W        W94078  18.194  19.741  12.944
25738W        W94079  38.548  41.013   2.696
25739W        W94080  11.866  36.396  12.086
25740W        W94081  35.388  44.415  14.291
25741W        W94082   5.336   0.474  10.416
25742W        W94083  35.007  18.577  10.610
25743W        W94084   1.444  19.196  11.944
25744W        W94085  11.709  39.893  10.006
25745W        W94086  27.121  21.530   4.192
25746W        W94087  27.533  30.964  11.589
25747W        W94088  25.613  41.336   1.264
25748W        W94089   5.279  15.285   1.325
25749W        W94090   9.654   3.729   3.273
25750W        W94091  44.897  33.461  14.377
25751W        W94092  17.272  34.509  13.012
25752W        W94093  32.398  32.508  12.070
25753W        W94094  19.079   0.909  10.635
25754W        W94095  10.202  18.556   2.294
25755W        W94096  39.377  32.034  13.472
25756W        W94097  32.123  27.164  12.903
25757W        W94098   5.230  21.186  10.937
25758W        W94099  44.988  14.321  13.433
25759W        W94100  11.290   7.388  13.487
25760W        W94101   7.827  30.506  13.499
25761W        W94102  18.140  33.424  10.576
25762W        W94103  41.385  24.701  13.991
25763W        W94104  22.718  11.811   4.783
25764W        W94105  10.676  11.859  12.863
25765W        W94106  37.475  26.958   4.758
25766W        W94107   0.276   0.450   1.425
25767W        W94108  30.591  28.583   3.231
25768W        W94109  14.631   9.856  10.985
25769W        W94110   8.288  22.216   2.734
25770W        W94111  29.019   6.268  11.097
25771W        W94112  33.918  40.888   0.320
25772W        W94113  16.733   4.890   1.401
25773W        W94114  18.657  11.287  12.827
25774W        W94115   6.739  36.424   1.379
25775W        W94116  20.232  35.049  13.408
25776W        W94117  40.966  27.547  11.874
25777W        W94118  19.617  38.416  12.976
25778W        W94119  38.927  16.650  10.631
25779W        W94120  39.542   1.466   4.643
25780W        W94121  26.172  13.213  11.959
25781W        W94122   0.869  40.001  14.847
25782W        W94123  38.561  40.893  14.999
25783W        W94124   5.294  26.973   0.803
25784W        W94125   9.391  38.827  14.394
25785W        W94126  38.333  39.826  12.418
25786W        W94127   6.397  17.136  10.505
25787W        W94128  35.890  30.562   3.771
25788W        W94129  15.722  23.707   0.268
25789W        W94130  32.908   0.451  11.471
25790W        W94131   6.861  25.149  14.760
25791W        W94132   3.740   5.345  11.003
25792W        W94133  43.372  30.549   0.286
25793W        W94134  39.438  44.884   3.697
25794W        W94135  15.170  12.831   4.692
25795W        W94136  31.115  25.112  14.903
25796W        W94137  19.695  31.052  12.541
25797W        W94138  18.626  38.556   0.263
25798W        W94139  17.190  38.505  13.817
25799W        W94140  22.208  19.562  12.864
25800W        W94141  38.500  19.560  12.341
25801W        W94142   6.405  13.225   2.887
25802W        W94143  28.592  26.582  12.556
25803W        W94144  39.974   3.444   1.924
25804W        W94145  30.476  21.173  14.461
25805W        W94146  25.204  28.085   0.382
25806W        W94147  37.507  10.823   0.347
25807W        W94148   1.755  14.770  12.031
25808W        W94149  38.458   8.886   2.309
25809W        W94150  35.403  30.638   4.302
25810W        W94151  35.894   4.346   0.474
25811W        W94152  11.362  39.434  13.817
25812W        W94153  19.619  38.542  14.913
25813W        W94154  30.095  25.008  10.548
25814W        W94155  17.152  23.026   1.907
25815W        W94156   1.738  31.900   0.800
25816W        W94157  11.751  10.366  10.149
25817W        W94158  42.794  14.810   2.705
25818W        W94159  35.552  18.643   0.346
25819W        W94160  14.768  17.758   3.813
25820W        W94161   2.331  28.158   3.189
25821W        W94162  24.710  17.259   3.690
25822W        W94163  28.151  33.382   4.269
25823W        W94164  30.126  16.633   0.882
25824W        W94165   8.660  10.273  11.021
25825W        W94166  20.080  13.843  14.455
25826W        W94167  16.152  15.771  13.845
25827W        W94168  27.683  12.813   3.824
25828W        W94169  22.149   9.393   1.392
25829W        W94170  25.001  34.014  13.992
25830W        W94171  27.104  24.593   3.205
25831W        W94172  10.755  33.389  14.350
25832W        W94173   4.725  24.041   0.286
25833W        W94174   4.345  24.071   3.781
25834W        W94175  42.364  25.613  10.895
25835W        W94176  43.818  18.278  13.813
25836W        W94177  18.784  31.042  10.538
25837W        W94178   5.756  40.378   3.790
25838W        W94179   0.479  37.478  12.392
25839W        W94180  33.432  34.574   3.346
25840W        W94181  42.999  32.949  14.784
25841W        W94182  16.573  22.564  11.549
25842W        W94183  41.032  40.909   1.217
25843W        W94184  16.170  26.169  14.475
25844W        W94185   9.699  36.422   4.181
25845W        W94186   3.811  30.466  11.447
25846W        W94187   8.321  39.874  12.014
25847W        W94188  31.992  12.686  10.632
25848W        W94189  26.670   2.421   5.149
25849W        W94190  34.924  40.385   2.864
25850W        W94191  12.118   3.950  13.916
25851W        W94192  20.144   5.236  14.472
25852W        W94193   6.419   9.838  10.521
25853W        W94194  43.429  26.106   1.389
25854W        W94195  42.452  12.198   0.277
25855W        W94196  12.336  26.552  10.096
25856W        W94197  20.591   2.779   2.677
25857W        W94198   2.402  23.110  12.404
25858W        W94199  24.125   7.406   1.339
25859W        W94200   9.862  37.352  12.868
25860W        W94201  32.548  30.539  11.516
25861W        W94202  26.669  28.545  13.442
25862W        W94203  41.337  18.576   4.164
25863W        W94204  23.693  19.119  10.519
25864W        W94205  19.224  31.075  12.941
25865W        W94206  23.997  30.473  14.474
25866W        W94207  20.676  16.680  12.424
25867W        W94208   2.900  12.276   4.775
25868W        W94209   0.913  40.514  11.589
25869W        W94210  16.781  20.176   1.272
25870W        W94211  29.103  35.084   4.647
25871W        W94212  27.192  25.685  10.445
25872W        W94213  19.712  39.020  11.431
25873W        W94214  21.657  43.515   1.733
25874W        W94215   3.285  32.986   2.768
25875W        W94216  29.174  20.260  11.518
25876W        W94217  18.788  31.100  12.371
25877W        W94218  27.638  30.100  12.006
25878W        W94219  36.949  25.106  13.052
25879W        W94220  34.964  31.085   2.259
25880W        W94221  10.728  40.845   3.229
25881W        W94222  40.308  15.587   2.766
25882W        W94223  31.408  44.884   3.253
25883W        W94224  14.272  35.895  11.957
25884W        W94225   2.928   9.311   1.337
25885W        W94226  34.076  17.672   1.871
25886W        W94227  35.421  24.568  10.908
25887W        W94228  22.609   7.733  13.798
25888W        W94229  19.749  33.388  12.485
25889W        W94230  40.918  34.533   4.764
25890W        W94231   7.368   4.723   3.840
25891W        W94232  17.679  11.341  13.890
25892W        W94233   5.195  41.009   0.394
25893W        W94234  18.662  30.107  13.855
25894W        W94235   2.767  20.046   2.884
25895W        W94236   7.374   1.817   2.269
25896W        W94237   2.964  39.866  14.905
25897W        W94238  44.979  33.984  10.546
25898W        W94239  42.826  34.382   1.348
25899W        W94240  25.027   7.901   1.314
25900W        W94241  37.060  37.085  10.449
25901W        W94242  11.175  34.414   4.185
25902W        W94243  28.971  11.862  12.828
25903W        W94244  42.850   6.271   4.825
25904W        W94245   3.862   1.900   4.710
25905W        W94246  23.725  15.095   3.313
25906W        W94247  40.432  31.425   3.230
25907W        W94248  28.554   2.274   4.230
25908W        W94249  21.589  23.987  13.912
25909W        W94250  24.594  21.157   4.235
25910W        W94251  36.865  16.578  12.000
25911W        W94252  11.714  29.046   0.770
25912W        W94253  30.482  10.247   4.134
25913W        W94254  15.810   3.387  12.565
25914W        W94255  43.932  11.295   0.358
25915W        W94256  42.464  21.215  14.880
25916W        W94257  31.443  24.640   1.251
25917W        W94258  41.892   0.981   1.394
25918W        W94259  19.147  22.188   1.737
25919W        W94260   4.731  37.541   3.270
25920W        W94261  33.979  36.507  12.046
25921W        W94262  14.755  23.196   1.745
25922W        W94263  16.681  41.352   4.142
25923W        W94264   3.226  42.929   0.875
25924W        W94265  20.273  15.192   1.387
25925W        W94266  37.375  22.137  14.031
25926W        W94267  19.556   3.833  11.031
25927W        W94268   5.768  18.216  14.871
25928W        W94269  17.117  18.176   1.355
25929W        W94270   8.734  41.394   0.322
25930W        W94271  16.093  26.611  12.344
25931W        W94272  32.122  29.964   1.255
25932W        W94273  26.073  30.530   4.218
25933W        W94274  32.444  33.885   1.211
25934W        W94275   9.317  28.945  10.570
25935W        W94276  12.692  19.777   2.233
25936W        W94277  40.493  35.464  13.979
25937W        W94278  26.108  11.223  13.796
25938W        W94279  39.929  44.479   1.748
25939W        W94280  38.873  39.537  11.421
25940W        W94281   7.763   6.258   0.409
25941W        W94282  22.177  26.076   4.613
25942W        W94283  19.049  14.229  11.486
25943W        W94284  27.477  43.406   3.868
25944W        W94285   1.298   4.699  11.040
25945W        W94286  29.926  15.735  10.467
25946W        W94287  29.007  20.598  10.605
25947W        W94288  17.219   5.431  10.481
25948W        W94289  26.012  24.651  10.549
25949W        W94290  31.579  39.444   5.321
25950W        W94291  16.789  16.706  10.554
25951W        W94292  25.539  11.262   2.688
25952W        W94293  32.082  41.384  13.872
25953W        W94294   8.354  41.324   2.747
25954W        W94295   2.962  28.498  11.053
25955W        W94296  11.292  43.398  11.472
25956W        W94297  37.880  15.789   9.962
25957W        W94298  31.120  34.946  11.092
25958W        W94299  24.518  41.897   0.460
25959W        W94300  38.949  42.460   1.927
25960W        W94301   1.908  34.407   2.883
25961W        W94302  10.354  11.761  12.484
25962W        W94303  43.495  34.056   3.818
25963W        W94304  24.612  32.135   0.251
25964W        W94305  38.871  32.539  14.006
25965W        W94306  41.463  38.000   2.777
25966W        W94307  34.504  37.883   4.601
25967W        W94308  25.506  13.317  10.525
25968W        W94309  15.174  28.520   4.649
25969W        W94310   6.220  23.088   4.816
25970W        W94311  30.532  34.396  12.079
25971W        W94312  32.596   6.717   0.347
25972W        W94313  37.566  10.200  13.823
25973W        W94314  33.983  30.575   0.319
25974W        W94315  38.070   6.254   2.293
25975W        W94316  19.535  31.641   3.827
25976W        W94317   1.396  23.022  10.643
25977W        W94318  32.974  25.703   0.258
25978W        W94319  17.661  36.069  11.894
25979W        W94320  25.597  35.015   4.308
25980W        W94321   7.853   2.888   4.234
25981W        W94322  21.600   7.199   4.275
25982W        W94323  30.526  24.534  12.441
25983W        W94324  17.262  20.212   3.146
25984W        W94325  37.409  38.981   1.755
25985W        W94326  15.184   1.825  14.896
25986W        W94327  20.739  33.576   0.379
25987W        W94328  21.533  27.028   4.286
25988W        W94329  15.785  24.118  12.874
25989W        W94330  26.569  35.919  11.862
25990W        W94331  44.756  31.109   1.713
25991W        W94332  38.050  39.863   0.954
25992W        W94333  43.015   4.283  13.434
25993W        W94334  15.185  29.131   3.781
25994W        W94335  41.951  23.571  14.442
25995W        W94336   5.880  29.490   3.342
25996W        W94337  34.885  41.898   0.778
25997W        W94338  11.642  18.211   3.213
25998W        W94339  15.625  40.396   5.227
25999W        W94340  18.592  11.135   3.708
26000W        W94341  24.497   1.799  13.541
26001W        W94342  17.281  15.674   1.904
26002W        W94343  11.242  25.576   4.768
26003W        W94344   4.898  24.636   0.912
26004W        W94345  42.522  29.961   4.725
26005W        W94346  24.530  44.363   4.195
26006W        W94347  21.208  20.267  11.022
26007W        W94348  21.068  12.822   4.709
26008W        W94349   9.272  36.497   4.810
26009W        W94350  34.893  21.030  11.515
26010W        W94351  33.005   1.954  14.493
26011W        W94352  12.813  26.635   3.713
26012W        W94353  33.600  23.033  10.561
26013W        W94354  29.969  11.364   2.903
26014W        W94355  22.694  21.681  12.919
26015W        W94356  17.572  44.820   1.391
26016W        W94357  40.004   2.307   0.903
26017W        W94358   1.322   7.900  13.988
26018W        W94359  25.076   5.690  10.408
26019W        W94360   4.259  27.986  14.349
26020W        W94361   3.808   8.872   1.702
26021W        W94362  21.748   0.966  10.446
26022W        W94363  30.533  37.487  14.972
26023W        W94364  12.658   0.827   2.279
26024W        W94365  44.501  38.900   4.653
26025W        W94366  22.201  23.678  14.029
26026W        W94367  25.990  32.552  10.511
26027W        W94368  23.550   6.708  13.979
26028W        W94369  11.645  41.820   0.316
26029W        W94370  36.047  24.140   4.686
26030W        W94371  41.346  35.065   2.706
26031W        W94372  22.685  25.651  14.925
26032W        W94373  29.018  17.755  11.449
26033W        W94374  39.325  29.587  10.984
26034W        W94375   6.217  23.010   3.632
26035W        W94376  32.097  26.960   1.420
26036W        W94377  42.920  16.224  13.528
26037W        W94378  37.412  13.189  10.428
26038W        W94379  23.703  22.742   4.791
26039W        W94380  26.540  23.132  10.554
26040W        W94381  32.431  18.605   4.681
26041W        W94382  25.963  13.283  11.038
26042W        W94383  18.125  37.018   1.735
26043W        W94384   9.179   6.352  12.934
26044W        W94385  39.922  38.948   4.770
26045W        W94386  28.083  36.980  10.933
26046W        W94387  12.263  23.238  10.998
26047W        W94388  17.287  11.353   0.751
26048W        W94389  35.082  16.316   0.476
26049W        W94390  12.362   9.171   1.338
26050W        W94391  12.759  35.896   0.336
26051W        W94392  43.385  36.067   4.811
26052W        W94393  17.568  10.206  13.809
26053W        W94394  39.366  12.779   0.956
26054W        W94395  22.066  10.377   0.436
26055W        W94396   4.369  44.762   2.819
26056W        W94397  28.473  25.128  14.895
26057W        W94398   9.184  35.955  14.487
26058W        W94399  44.449  18.280  12.564
26059W        W94400   5.791  37.009   4.798
26060W        W94401  11.231  16.140  10.907
26061W        W94402  19.556  43.413  14.381
26062W        W94403  19.732  38.834  12.848
26063W        W94404  28.961   9.387  10.414
26064W        W94405  38.928  44.400  14.963
26065W        W94406  21.555  22.581  13.497
26066W        W94407  30.037  42.030   1.908
26067W        W94408  41.985  20.764   0.359
26068W        W94409  34.009  42.998  14.004
26069W        W94410  36.561  21.198  14.345
26070W        W94411  36.000  29.082   3.219
26071W        W94412  25.996  11.771   4.302
26072W        W94413  32.477  31.083  12.468
26073W        W94414  36.859  43.015   0.922
26074W        W94415   5.298  36.578   4.682
26075W        W94416   6.741  43.416  11.477
26076W        W94417  21.165  31.101  14.003
26077W        W94418   5.860  11.260  11.452
26078W        W94419  42.502   8.697   0.861
26079W        W94420  33.530  23.602  14.903
26080W        W94421  32.043  22.686  13.899
26081W        W94422   9.392  42.495  11.897
26082W        W94423  39.892  36.515  13.862
26083W        W94424   0.751  37.526   0.263
26084W        W94425  23.553   1.859  12.836
26085W        W94426  13.169   5.834  12.556
26086W        W94427  44.267  28.531  10.407
26087W        W94428   6.700  19.041  12.578
26088W        W94429   3.751  18.093   1.329
26089W        W94430  14.256  38.410   0.960
26090W        W94431  20.557  11.827  10.941
26091W        W94432  39.968  16.687   3.175
26092W        W94433  41.408  37.438  14.772
26093W        W94434  31.524  42.292   2.317
26094W        W94435  12.265  10.141   4.612
26095W        W94436  36.443   2.424   4.785
26096W        W94437  43.881   4.275  13.984
26097W        W94438  42.781  12.215  10.433
26098W        W94439  10.834  18.632  12.354
26099W        W94440   4.699   9.204   2.847
26100W        W94441   4.762  10.151  11.460
26101W        W94442  25.044  29.531  14.491
26102W        W94443  32.124  34.893   2.709
26103W        W94444  20.175   8.654  14.375
26104W        W94445  28.615  12.642  12.825
26105W        W94446  42.798  34.405  11.074
26106W        W94447  28.550  36.447  11.514
26107W        W94448  24.523  39.029  13.822
26108W        W94449  25.043  36.891  14.771
26109W        W94450  34.119  42.316   5.570
26110W        W94451  27.485  37.017   1.312
26111W        W94452  42.468   6.355  13.818
26112W        W94453  44.002  25.550  12.875
26113W        W94454   6.915  36.502   2.327
26114W        W94455  19.086  10.184   0.782
26115W        W94456  19.544  28.005   0.420
26116W        W94457  10.143  31.969  12.509
26117W        W94458  35.909   0.795   4.673
26118W        W94459  27.116   1.883   1.698
26119W        W94460  36.544  39.919  13.006
26120W        W94461  20.544  22.573   1.928
26121W        W94462  35.425   9.341   4.729
26122W        W94463   6.226  31.401  14.396
26123W        W94464  14.204   4.297  12.932
26124W        W94465  42.346  36.026   0.418
26125W        W94466  20.187  18.732   3.764
26126W        W94467  10.138  37.534   4.136
26127W        W94468  23.505   3.384   0.782
26128W        W94469  27.590  12.750  14.871
26129W        W94470   3.228  35.385   2.683
26130W        W94471  39.433  11.262   1.290
26131W        W94472  11.787  40.838   2.679
26132W        W94473   3.894  25.064  11.013
26133W        W94474  34.612  11.132  10.985
26134W        W94475  27.625  26.017   4.783
26135W        W94476   6.763  10.774   3.162
26136W        W94477  13.687   1.854   0.433
26137W        W94478   1.865  30.552   4.663
26138W        W94479  27.445  15.751   4.190
26139W        W94480  26.034  19.564   3.173
26140W        W94481   8.703  32.540   4.814
26141W        W94482  41.934  35.426  13.865
26142W        W94483   2.815  28.508  14.919
26143W        W94484   1.319  25.497  12.542
26144W        W94485  12.641   1.835   4.699
26145W        W94486   0.402  23.552  14.994
26146W        W94487   6.689  29.999   2.885
26147W        W94488  34.472  14.234  12.825
26148W        W94489  19.260  38.533   2.298
26149W        W94490  12.700  22.716  12.404
26150W        W94491  17.172  32.505   5.263
26151W        W94492  24.101  35.590  12.983
26152W        W94493   8.875  17.760  10.447
26153W        W94494  17.236  40.441  11.610
26154W        W94495  13.325  20.089  13.986
26155W        W94496  43.773  43.352  12.069
26156W        W94497  13.730  37.516  11.095
26157W        W94498   9.789  21.740  14.407
26158W        W94499  16.749  35.028  13.366
26159W        W94500  11.338  33.587  11.904
26160W        W94501   6.690  12.166  10.494
26161W        W94502   3.735  37.952   1.825
26162W        W94503  24.102  25.970   3.861
26163W        W94504   0.260   2.826  10.470
26164W        W94505  13.115  33.529  11.916
26165W        W94506  24.055  42.408  11.585
26166W        W94507  24.580  15.646  14.988
26167W        W94508  22.121  35.427   0.959
26168W        W94509  14.294  27.998  14.456
26169W        W94510  10.738  28.083   9.962
26170W        W94511   8.399  25.193  11.110
26171W        W94512   5.306  11.675   0.773
26172W        W94513  40.882  21.750   3.219
26173W        W94514  12.224  38.031   2.853
26174W        W94515   8.656  26.512   0.400
26175W        W94516  35.500   1.311   0.461
26176W        W94517  15.188   6.786  13.976
26177W        W94518   9.809  33.085  13.341
26178W        W94519  30.597  33.056   3.738
26179W        W94520  18.236  29.445  12.021
26180W        W94521  32.928   2.293   1.747
26181W        W94522  11.865  41.802   4.814
26182W        W94523  37.496  17.748   4.260
26183W        W94524   0.852  23.506   3.751
26184W        W94525   9.227  15.137  12.926
26185W        W94526  16.150  16.670  10.999
26186W        W94527   3.417  18.689   9.647
26187W        W94528   6.216   5.394  14.893
26188W        W94529  42.320  12.261   3.385
26189W        W94530  18.764  43.842   3.722
26190W        W94531  43.789  11.335  14.849
26191W        W94532  18.213   0.267   3.322
26192W        W94533  42.370  20.153   5.314
26193W        W94534  17.216  30.952   2.886
26194W        W94535  14.099   9.325   4.280
26195W        W94536  37.543  18.783   3.819
26196W        W94537  15.157  18.183   2.830
26197W        W94538  39.997  26.610   1.324
26198W        W94539  34.962  28.054   5.305
26199W        W94540  22.123  16.182  11.497
26200W        W94541  35.975  33.043  11.087
26201W        W94542  22.655  32.977   2.377
26202W        W94543  40.462   4.803  14.348
26203W        W94544  17.261  17.587  13.521
26204W        W94545  25.628  31.958  12.512
26205W        W94546  16.606  12.843   0.741
26206W        W94547  38.527  31.624  12.490
26207W        W94548  44.347  22.533  12.004
26208W        W94549  24.559   3.753   2.299
26209W        W94550   7.192  31.497   1.886
26210W        W94551  21.642  41.312  10.564
26211W        W94552   0.305  38.450  11.609
26212W        W94553  26.683  39.870   0.757
26213W        W94554  10.239  28.089   0.772
26214W        W94555  26.630  42.497  13.348
26215W        W94556  22.745  39.353   3.252
26216W        W94557  32.491  29.090   2.298
26217W        W94558  23.584   2.412  13.894
26218W        W94559  42.926  26.101   0.884
26219W        W94560   0.929  29.660   1.255
26220W        W94561  24.220   3.454   1.278
26221W        W94562  18.252  19.739   1.299
26222W        W94563  44.283   5.873   2.745
26223W        W94564  26.587  32.934   1.915
26224W        W94565  35.558   4.721  10.943
26225W        W94566   8.791   4.210   4.328
26226W        W94567  24.200  28.116  13.536
26227W        W94568  31.647  26.670   4.612
26228W        W94569  30.920  18.780  12.464
26229W        W94570  34.900  42.858   2.291
26230W        W94571  23.732  30.973   1.770
26231W        W94572  33.399  43.885   4.309
26232W        W94573   6.292  25.713  10.629
26233W        W94574  10.824  30.427  14.888
26234W        W94575   9.168  44.505  14.980
26235W        W94576  17.723  21.536  11.503
26236W        W94577   4.318  13.201  11.071
26237W        W94578  13.621  22.548   1.735
26238W        W94579  12.638  26.009   3.645
26239W        W94580  38.933  37.548   2.256
26240W        W94581  13.735  44.469  11.415
26241W        W94582   0.394  28.533  13.393
26242W        W94583   8.217  43.471   4.740
26243W        W94584   9.807   2.471  11.128
26244W        W94585   4.900   1.395   1.733
26245W        W94586  11.774  20.753  14.330
26246W        W94587   8.859  29.993   3.157
26247W        W94588  40.305  40.384   0.891
26248W        W94589   8.306  37.515   3.836
26249W        W94590  27.447  16.729  10.530
26250W        W94591  20.750   0.328  14.477
26251W        W94592  21.570  34.934  13.991
26252W        W94593  11.349   8.234  11.469
26253W        W94594   0.318   4.356  10.623
26254W        W94595   8.350  32.017   2.254
26255W        W94596  35.037  39.413   5.264
26256W        W94597  42.298   5.356  14.516
26257W        W94598   4.735   4.808   1.312
26258W        W94599   1.914  28.539   1.795
26259W        W94600  34.912  30.060   0.949
26260W        W94601  10.342  18.555   0.876
26261W        W94602   9.393  44.380  10.048
26262W        W94603  38.009  36.046  10.089
26263W        W94604   1.402  34.986   3.822
26264W        W94605  40.459  14.670   3.380
26265W        W94606   4.897  41.384   3.330
26266W        W94607   3.766  15.713  10.047
26267W        W94608  27.166  36.510  10.924
26268W        W94609  30.942  41.329   3.294
26269W        W94610  24.126  25.521   0.865
26270W        W94611  17.188  32.559  12.000
26271W        W94612   4.792  11.784  13.418
26272W        W94613  28.584  14.207  14.389
26273W        W94614  20.579  19.536   4.679
26274W        W94615  25.115  42.425   0.443
26275W        W94616  12.311   0.781  12.339
26276W        W94617  39.059   6.187   5.262
26277W        W94618  33.562  12.770   1.794
26278W        W94619   3.837  10.796  13.311
26279W        W94620  33.079   8.759  11.571
26280W        W94621  23.643   5.800  14.411
26281W        W94622  43.491  18.583  11.989
26282W        W94623  23.607  26.098   3.269
26283W        W94624  32.918  34.567   2.287
26284W        W94625  11.242  14.769  13.326
26285W        W94626  30.608  38.514  14.516
26286W        W94627  19.635  14.644  11.531
26287W        W94628  25.206  30.519   4.759
26288W        W94629  12.265  13.212   3.332
26289W        W94630  23.122  11.739  13.916
26290W        W94631  24.584  20.628  14.775
26291W        W94632  28.503  44.413  14.808
26292W        W94633  37.349  27.590  11.546
26293W        W94634  21.583  19.773  12.441
26294W        W94635  42.024  22.189  11.927
26295W        W94636  14.319  30.496   2.373
26296W        W94637  27.483  36.999   4.274
26297W        W94638  39.982  44.816  14.451
26298W        W94639   7.234   2.791  12.359
26299W        W94640  36.499  19.535  12.933
26300W        W94641   0.479   3.382   3.802
26301W        W94642  20.524  20.654   3.214
26302W        W94643   1.933  15.778   3.339
26303W        W94644  42.986  16.683  14.791
26304W        W94645  24.720  34.394   3.179
26305W        W94646   8.353  30.621  10.982
26306W        W94647  34.508  15.643  12.351
26307W        W94648   0.464  28.082  10.482
26308W        W94649  12.313  11.277   0.898
26309W        W94650   5.772   9.212   2.663
26310W        W94651  35.922   7.714   3.714
26311W        W94652  16.750  30.112   4.154
26312W        W94653   3.887  36.406  13.493
26313W        W94654  18.163  16.128   2.713
26314W        W94655  30.068   5.815   0.367
26315W        W94656  44.273  26.972  13.384
26316W        W94657  28.042  11.175   4.783
26317W        W94658   6.360   8.761  10.086
26318W        W94659   5.910  14.288  11.014
26319W        W94660   7.825  10.222  10.999
26320W        W94661  28.444  44.982   3.667
26321W        W94662  26.136  44.840  13.323
26322W        W94663  36.950  33.904  11.560
26323W        W94664  29.945  35.021  14.942
26324W        W94665  44.443  21.236   9.606
26325W        W94666  24.107   8.830  13.532
26326W        W94667  44.922  32.587  11.391
26327W        W94668  36.409  10.172  11.377
26328W        W94669  23.003  34.973   3.318
26329W        W94670   9.677  43.998   3.249
26330W        W94671  42.324  40.379   3.695
26331W        W94672  43.817  20.637  14.498
26332W        W94673  11.636  39.527   0.794
26333W        W94674  22.671  30.451   1.438
26334W        W94675   4.712  15.220  14.840
26335W        W94676  16.581  19.118  12.418
26336W        W94677   8.314  41.366   1.837
26337W        W94678  31.490   0.770   4.307
26338W        W94679  44.462  28.677  12.341
26339W        W94680   4.448  38.460  14.775
26340W        W94681  32.572  23.512  12.040
26341W        W94682  27.678  24.025  12.987
26342W        W94683  16.774  20.691  13.423
26343W        W94684  11.643  27.059   2.284
26344W        W94685  36.503  35.026  12.851
26345W        W94686  14.121  20.636   0.896
26346W        W94687   5.288  18.192  10.541
26347W        W94688   8.379   2.831   4.220
26348W        W94689  16.727   8.319  12.981
26349W        W94690  10.675  32.407  14.358
26350W        W94691  23.715  32.592   3.680
26351W        W94692  25.980  17.782  14.908
26352W        W94693  27.126  24.654  10.895
26353W        W94694   2.316  19.733  14.019
26354W        W94695  27.075   2.432  11.907
26355W        W94696  43.897  29.961  13.509
26356W        W94697  19.661   8.846  14.305
26357W        W94698  39.341  33.094   3.212
26358W        W94699  25.690  40.047  10.643
26359W        W94700   2.354  21.564   1.845
26360W        W94701  22.223  28.655  12.869
26361W        W94702  41.901  40.354   2.685
26362W        W94703   0.358  14.799   3.219
26363W        W94704  15.740   0.303   0.800
26364W        W94705  31.047  35.382   2.251
26365W        W94706  27.056  38.837   4.331
26366W        W94707  41.324  10.838  13.466
26367W        W94708   3.457  40.357  11.492
26368W        W94709   6.377  29.656   2.899
26369W        W94710  38.456  37.388  12.981
26370W        W94711  14.718   5.256   0.478
26371W        W94712  33.462  44.400  14.807
26372W        W94713   8.347  15.128  13.802
26373W        W94714   9.152  15.804  11.372
26374W        W94715  25.534  17.224   9.982
26375W        W94716  27.517  25.970   2.207
26376W        W94717   9.722  21.663  12.528
26377W        W94718  32.420  22.171  13.469
26378W        W94719  37.990  21.232   1.300
26379W        W94720  44.941   6.320  13.409
26380W        W94721  33.913  43.840   3.716
26381W        W94722  30.532   1.309   1.364
26382W        W94723  39.041  11.129   3.843
26383W        W94724   4.876  14.811  10.514
26384W        W94725  21.724  38.010  13.020
26385W        W94726  26.071  35.865  11.468
26386W        W94727  27.512   5.716  12.847
26387W        W94728  15.598  17.783  12.577
26388W        W94729  20.125   6.714  14.929
26389W        W94730  27.130  38.345   0.431
26390W        W94731   2.323  34.094  10.508
26391W        W94732  33.917  26.637   4.818
26392W        W94733  19.736  33.958   3.649
26393W        W94734  25.614  25.208  12.343
26394W        W94735   8.686  35.083  14.394
26395W        W94736  23.598  39.556  13.909
26396W        W94737   4.324  35.024   2.414
26397W        W94738  27.553  28.496   1.722
26398W        W94739  27.664  32.136   3.219
26399W        W94740  35.401  42.943   4.716
26400W        W94741  17.228  33.088   1.927
26401W        W94742  10.224   3.431   5.203
26402W        W94743  14.105  23.670   4.764
26403W        W94744  13.838  33.555  14.819
26404W        W94745  26.012  34.923   1.741
26405W        W94746  22.602   6.781  10.484
26406W        W94747  23.720  32.141  12.852
26407W        W94748   6.690  31.432   4.809
26408W        W94749  36.900  25.682  13.973
26409W        W94750   3.342  36.542   2.831
26410W        W94751  18.728  19.587   3.305
26411W        W94752  24.138  16.675  14.293
26412W        W94753   6.307  29.120  11.920
26413W        W94754  16.113  30.011  14.289
26414W        W94755  17.673  28.940  11.461
26415W        W94756  25.628  42.392   0.852
26416W        W94757   5.396  17.588   1.214
26417W        W94758  25.491  28.173  10.929
26418W        W94759  32.482  19.175   2.246
26419W        W94760  36.985  17.130   2.322
26420W        W94761  36.933   4.747  14.449
26421W        W94762  19.662  44.364   0.898
26422W        W94763  33.994  38.357   2.263
26423W        W94764  38.347  22.636  14.484
26424W        W94765   9.160  18.112  11.553
26425W        W94766  17.176  35.966  12.488
26426W        W94767  34.438  13.606   3.822
26427W        W94768  22.088  10.271  12.486
26428W        W94769  12.840  11.153   5.238
26429W        W94770  19.048  35.577   0.866
26430W        W94771   2.465  15.690   5.146
26431W        W94772  19.052   3.862  13.976
26432W        W94773   1.466  24.031   1.359
26433W        W94774  13.233   3.757  10.546
26434W        W94775  33.995  35.935  10.580
26435W        W94776  44.864  14.803  13.815
26436W        W94777  41.383   2.963   4.763
26437W        W94778  24.177  19.047  13.328
26438W        W94779  27.970   2.400   3.827
26439W        W94780  32.120  19.614   2.803
26440W        W94781  21.112  36.959   0.816
26441W        W94782   4.413  26.153  10.985
26442W        W94783  41.537  24.016  13.809
26443W        W94784  34.864  21.667   0.805
26444W        W94785   0.958  43.451   1.239
26445W        W94786  26.529  21.082  13.329
26446W        W94787  25.089  14.739  11.890
26447W        W94788   6.214  44.305  13.947
26448W        W94789  12.312   5.291  12.442
26449W        W94790  42.946  25.659  12.943
26450W        W94791   8.842  30.968   1.723
26451W        W94792  32.049  43.330   1.863
26452W        W94793  31.562   7.229  12.365
26453W        W94794  29.070  39.905   0.248
26454W        W94795  41.937  14.329   4.208
26455W        W94796  13.255  17.266  10.516
26456W        W94797  23.042  11.170   0.876
26457W        W94798  12.210   2.450   0.311
26458W        W94799  27.575  14.721  11.968
26459W        W94800  41.795  28.633  11.438
26460W        W94801  35.449  31.522  13.033
26461W        W94802  13.178  26.628   2.788
26462W        W94803  38.879  28.166   3.180
26463W        W94804   3.260   1.330   2.668
26464W        W94805  43.855  15.170  10.634
26465W        W94806   9.200   9.674   2.893
26466W        W94807   4.239  27.497  11.586
26467W        W94808  24.176  33.914   3.715
26468W        W94809  19.565  12.252  14.879
26469W        W94810  29.646  37.971   1.914
26470W        W94811   2.338   3.304   3.870
26471W        W94812  21.577  25.080   1.695
26472W        W94813  36.446   1.775  12.086
26473W        W94814   5.216   5.789  10.573
26474W        W94815   9.292  35.913  10.894
26475W        W94816  34.554  37.536  12.966
26476W        W94817  26.692  10.737  10.576
26477W        W94818  25.150   6.722  10.971
26478W        W94819   8.168  20.606  13.843
26479W        W94820  36.046  20.580   3.156
26480W        W94821  40.897  12.358   0.377
26481W        W94822   1.290  22.996   2.243
26482W        W94823  19.221  34.401   2.673
26483W        W94824  32.969  12.764  14.929
26484W        W94825  12.771   2.342  14.375
26485W        W94826  44.758  13.772  12.934
26486W        W94827  32.625  13.689   2.216
26487W        W94828  31.117  12.327   1.758
26488W        W94829  34.532  24.567  12.530
26489W        W94830   6.875  42.334  14.783
26490W        W94831  12.152  38.919   0.256
26491W        W94832  23.058  43.819  10.920
26492W        W94833   0.458  15.115   4.248
26493W        W94834  35.022   1.337  10.461
26494W        W94835  43.911  39.855  10.453
26495W        W94836   9.224  36.929  14.373
26496W        W94837  25.134  29.130  14.384
26497W        W94838  13.206  25.695  13.048
26498W        W94839  24.501  42.890  13.989
26499W        W94840   3.738  19.157  13.960
26500W        W94841  15.094   8.229  13.470
26501W        W94842  20.685  36.385   1.265
26502W        W94843  14.798   0.837  10.928
26503W        W94844  12.669   3.880  14.983
26504W        W94845  37.489  35.395   3.847
26505W        W94846  22.659   3.725   0.830
26506W        W94847  39.490  27.578   0.738
26507W        W94848   3.365   4.212   3.202
26508W        W94849  43.888  29.551  13.898
26509W        W94850  24.148  12.277   1.247
26510W        W94851   2.324  19.647   3.835
26511W        W94852   2.355  12.726  14.900
26512W        W94853   6.290  14.281  10.069
26513W        W94854  43.301  39.043   3.648
26514W        W94855  28.539  28.631  14.999
26515W        W94856   5.435  38.571  12.494
26516W        W94857  26.170  40.037   4.307
26517W        W94858  32.473  24.009  11.394
26518W        W94859  34.477  17.776   4.778
26519W        W94860  40.877  24.009   3.720
26520W        W94861  35.487   6.371   2.363
26521W        W94862  21.600  19.127  12.859
26522W        W94863  29.453  14.672  14.510
26523W        W94864  43.308  21.670  11.951
26524W        W94865  35.603  19.721   4.705
26525W        W94866  31.007   9.872   4.816
26526W        W94867  25.171  42.861   1.309
26527W        W94868   0.977  43.487  14.353
26528W        W94869   1.891  30.096   1.823
26529W        W94870  16.130   5.714  13.966
26530W        W94871  44.842  37.019  10.455
26531W        W94872   0.876  24.057   4.299
26532W        W94873  29.566   8.176  14.314
26533W        W94874  36.975  25.597   3.275
26534W        W94875  41.307  34.430   2.404
26535W        W94876  29.500  35.974  14.442
26536W        W94877  20.185   3.899  14.812
26537W        W94878  23.561  32.069   4.328
26538W        W94879  31.515  20.254  11.512
26539W        W94880  17.129   2.373   3.249
26540W        W94881  18.065  32.446   0.401
26541W        W94882  27.074  26.127   5.634
26542W        W94883  10.780  18.736  14.999
26543W        W94884  20.079  14.296   0.916
26544W        W94885   0.845   2.892   4.338
26545W        W94886  11.229   9.680  11.429
26546W        W94887  20.271  19.627   3.282
26547W        W94888   1.297   6.389   4.599
26548W        W94889   3.253   9.214   2.777
26549W        W94890  25.480  24.189  11.526
26550W        W94891  19.052  38.996  12.550
26551W        W94892   7.684  28.663   3.364
26552W        W94893   0.294   8.333  12.371
26553W        W94894  37.342  28.073  14.350
26554W        W94895  18.287  17.063   3.156
26555W        W94896  24.538  13.697   0.729
26556W        W94897  36.559  33.909   2.759
26557W        W94898  39.935  29.515   1.901
26558W        W94899   9.794   7.678  13.792
26559W        W94900  39.484  20.570  13.969
26560W        W94901  21.050   4.763   3.175
26561W        W94902  20.680  28.458  12.492
26562W        W94903   5.706  26.174   0.409
26563W        W94904  28.116  12.203  11.985
26564W        W94905  31.947  21.256  14.471
26565W        W94906  23.123  16.169  14.305
26566W        W94907  29.997  13.163   0.850
26567W        W94908   7.838  20.575  13.382
26568W        W94909   2.442  42.937   2.669
26569W        W94910  41.481  22.008   1.269
26570W        W94911  30.623  42.476   3.684
26571W        W94912  37.548   9.189   4.788
26572W        W94913  38.397  23.643  12.040
26573W        W94914  11.784  40.432   2.682
26574W        W94915   8.787  37.379   4.668
26575W        W94916  21.695  13.789   0.851
26576W        W94917  37.439  31.462  14.782
26577W        W94918   9.273  17.790   0.456
26578W        W94919   8.165  17.121  13.451
26579W        W94920   4.826  14.241   3.843
26580W        W94921  13.733  21.145   2.179
26581W        W94922  21.068  40.011  13.930
26582W        W94923   7.697  35.050   3.799
26583W        W94924   6.361  42.447  14.759
26584W        W94925  25.696  41.019   3.866
26585W        W94926  16.719   0.492  14.904
26586W        W94927  14.116  13.116   0.423
26587W        W94928  15.589  18.745   4.630
26588W        W94929   8.837   0.941   0.362
26589W        W94930  26.154  44.349  11.508
26590W        W94931  10.143   2.880   3.255
26591W        W94932  44.481   8.337   1.384
26592W        W94933  15.677  22.155   1.396
26593W        W94934  39.915  35.897  11.119
26594W        W94935  15.111  40.813   5.215
26595W        W94936   4.291  30.053   4.246
26596W        W94937  23.490   0.406  13.471
26597W        W94938  29.552   9.691  11.421
26598W        W94939  15.307  26.550  14.462
26599W        W94940  44.882  36.503   0.366
26600W        W94941  11.779  42.498  14.949
26601W        W94942  23.025  41.893   1.921
26602W        W94943  20.744  10.256  12.938
26603W        W94944  15.207  29.537  12.904
26604W        W94945  31.946  31.607   2.834
26605W        W94946  14.102   8.169  13.813
26606W        W94947  15.706  23.147   4.710
26607W        W94948  18.686  41.000  12.397
26608W        W94949  14.809  24.550   1.851
26609W        W94950  19.171  13.762   3.753
26610W        W94951  39.354  44.278   4.346
26611W        W94952  36.352  12.752   1.838
26612W        W94953  41.886  14.165  13.463
26613W        W94954  14.244  21.070   0.324
26614W        W94955  20.114  28.945   0.396
26615W        W94956  17.799  29.171   4.782
26616W        W94957  42.283  25.068   4.166
26617W        W94958  32.472  20.539   4.274
26618W        W94959  19.237   2.903   0.803
26619W        W94960  29.615  29.920   1.391
26620W        W94961  43.277  42.415   2.751
26621W        W94962  24.064  11.320  14.422
26622W        W94963  34.100  16.190   4.251
26623W        W94964   2.903  27.112   1.764
26624W        W94965  31.451  21.715  14.948
26625W        W94966  12.216  10.753  13.417
26626W        W94967  24.511  31.038   1.318
26627W        W94968   0.300  17.215  12.028
26628W        W94969  12.657   8.716   0.792
26629W        W94970  43.943  42.872   0.287
26630W        W94971  28.136  42.955   1.869
26631W        W94972  26.134  37.385  14.789
26632W        W94973  15.733  18.587   3.153
26633W        W94974  44.342  29.561  12.956
26634W        W94975  37.895   5.773  11.946
26635W        W94976  26.109  30.458  11.019
26636W        W94977  37.948  15.671  14.031
26637W        W94978  25.650   7.360  11.435
26638W        W94979  23.142   6.296  14.468
26639W        W94980  18.565   1.899   4.760
26640W        W94981  11.772  20.208   4.615
26641W        W94982  14.617  40.387   4.787
26642W        W94983  32.471  42.333  10.418
26643W        W94984  31.552  36.561   1.816
26644W        W94985  12.335   4.779   1.699
26645W        W94986  14.816  13.611   1.808
26646W        W94987  11.794  25.207   1.285
26647W        W94988  13.187  43.415   4.117
26648W        W94989   8.839  21.627  12.369
26649W        W94990  32.494  42.787   0.925
26650W        W94991  12.260  44.904   1.868
26651W        W94992  13.207  22.136  12.344
26652W        W94993  42.780  29.562   5.288
26653W        W94994   9.732  40.308   3.385
26654W        W94995  10.658  32.970   0.836
26655W        W94996   3.890  15.588  14.868
26656W        W94997  41.037  21.102  14.848
26657W        W94998  38.026   0.751  12.935
26658W        W94999  33.096  36.548   2.887
26659W        W95000  41.298  41.009   2.875
26660W        W95001  21.210  26.124  13.909
26661W        W95002   7.357  10.299   0.409
26662W        W95003  11.197  20.573  10.887
26663W        W95004  28.017  27.969   4.800
26664W        W95005   3.766  13.205  13.318
26665W        W95006  18.208  38.512  12.998
26666W        W95007  37.477  15.251  12.966
26667W        W95008  14.276  40.868   4.683
26668W        W95009  40.962  17.184  11.422
26669W        W95010  15.091   8.835   0.430
26670W        W95011   3.285  42.855   1.855
26671W        W95012  25.045  18.150  13.324
26672W        W95013   6.247  28.083   0.910
26673W        W95014   7.814  28.996   3.382
26674W        W95015  14.318  30.416   3.309
26675W        W95016  34.606  17.229  12.355
26676W        W95017  43.426  44.455  11.389
26677W        W95018  27.188  18.680   3.637
26678W        W95019  21.699  12.208   3.783
26679W        W95020  43.381   6.202  13.428
26680W        W95021  23.067   4.919  14.343
26681W        W95022  20.233  26.102  10.905
26682W        W95023  19.619  43.900  13.946
26683W        W95024  27.074   7.355  13.855
26684W        W95025  40.385  43.454  11.089
26685W        W95026  22.053  28.511  14.029
26686W        W95027   9.771  23.076  12.077
26687W        W95028  27.013  38.829  14.932
26688W        W95029  22.572  36.470  14.367
26689W        W95030  38.332   1.295  12.564
26690W        W95031  23.016  23.210  14.775
26691W        W95032  23.593  37.919   2.809
26692W        W95033  30.972  38.874   1.409
26693W        W95034  14.329  31.119   3.804
26694W        W95035   5.744  12.254   2.210
26695W        W95036   8.264  17.278  10.472
26696W        W95037  13.706  22.609  14.774
26697W        W95038  12.775  18.651  11.420
26698W        W95039  16.674  14.286  14.387
26699W        W95040  40.999  40.391   2.214
26700W        W95041   8.207  40.524   1.352
26701W        W95042  17.676  12.746   2.859
26702W        W95043   3.791  24.530   4.194
26703W        W95044  33.479  29.449  12.093
26704W        W95045  27.551  40.024  11.537
26705W        W95046   2.260  39.979   4.127
26706W        W95047  29.973  38.959   4.834
26707W        W95048  37.995   5.845  10.600
26708W        W95049  15.193  35.519   0.368
26709W        W95050  18.214  28.043  14.298
26710W        W95051  21.183  38.417   0.346
26711W        W95052  14.122   3.403   1.771
26712W        W95053   0.861  15.649   2.871
26713W        W95054  35.978   0.882   1.804
26714W        W95055  38.521  18.133  12.854
26715W        W95056  40.328  17.666  13.495
26716W        W95057   5.806   0.422  11.373
26717W        W95058  11.190  13.682   3.279
26718W        W95059  24.721  16.296  14.279
26719W        W95060  23.577   6.761  11.412
26720W        W95061  16.777  38.026   4.728
26721W        W95062   6.270  18.074   4.208
26722W        W95063  28.942  19.775  14.361
26723W        W95064  34.984  41.522  10.086
26724W        W95065  43.417  41.400   1.296
26725W        W95066  26.087   4.890   2.741
26726W        W95067   2.245  31.616   0.862
26727W        W95068   9.824   6.736   3.189
26728W        W95069   9.209   2.335   3.741
26729W        W95070  12.631  17.256   0.416
26730W        W95071  33.959  18.238   1.423
26731W        W95072  13.116  13.195  13.312
26732W        W95073   8.238  18.617   2.387
26733W        W95074  11.350  26.147  14.987
26734W        W95075  10.878  30.582  14.484
26735W        W95076  18.660  39.386   1.290
26736W        W95077  20.156  28.538  12.028
26737W        W95078  18.274  11.145   4.164
26738W        W95079  31.143   7.210  14.914
26739W        W95080  29.157  29.451  11.004
26740W        W95081   6.765  37.377   2.214
26741W        W95082   6.749  26.518   0.837
26742W        W95083   0.403  36.370  11.526
26743W        W95084   9.881  37.946   4.160
26744W        W95085  17.282  44.413  14.857
26745W        W95086  40.052  28.610   4.792
26746W        W95087  19.559  42.985  12.398
26747W        W95088  15.774   7.715   5.181
26748W        W95089  22.594   9.251   9.970
26749W        W95090  43.979  39.343   2.838
26750W        W95091  13.105  32.053  11.551
26751W        W95092   3.355  13.276  11.555
26752W        W95093   1.370   0.338   2.206
26753W        W95094  18.146   0.859   2.196
26754W        W95095  19.748  14.612  13.796
26755W        W95096  42.976  14.802   3.175
26756W        W95097  15.316  35.045   0.893
26757W        W95098  27.076  28.961   2.853
26758W        W95099  12.141   6.424   0.934
26759W        W95100  19.144   4.766  14.821
26760W        W95101  42.514  37.359  10.120
26761W        W95102  10.157  42.950  12.947
26762W        W95103  32.108  11.139  11.456
26763W        W95104  29.954  10.635   3.703
26764W        W95105  10.814  23.014  14.389
26765W        W95106  18.590  40.457   2.757
26766W        W95107   3.277  22.535  14.436
26767W        W95108   0.480  27.685  14.967
26768W        W95109   0.400  31.529  13.815
26769W        W95110  19.121  30.513   2.409
26770W        W95111  17.097  25.140   0.456
26771W        W95112  42.983  23.124  12.389
26772W        W95113   0.810  28.184   4.223
26773W        W95114  20.740  18.697   3.716
26774W        W95115  38.417  36.983  10.553
26775W        W95116  13.289  11.704  14.861
26776W        W95117   7.890  24.675   2.726
26777W        W95118  30.530  34.092  14.974
26778W        W95119  17.796   2.952  14.327
26779W        W95120  28.106  29.585   2.671
26780W        W95121   0.946  14.751   1.438
26781W        W95122  30.954  40.473  12.467
26782W        W95123   2.309  39.057  11.058
26783W        W95124  31.496  14.707  14.764
26784W        W95125  10.780   3.215   2.205
26785W        W95126  42.002  33.927   2.864
26786W        W95127   4.917  13.608   0.466
26787W        W95128  34.104  24.689  12.876
26788W        W95129  26.034  26.115   2.715
26789W        W95130  42.527   5.833   2.809
26790W        W95131  37.074  42.811   1.750
26791W        W95132   8.822  22.088   2.262
26792W        W95133  12.831  26.699   3.234
26793W        W95134  25.196  17.574  13.958
26794W        W95135  16.592   2.874   4.632
26795W        W95136  10.371  25.483  12.068
26796W        W95137  31.021  14.120   4.780
26797W        W95138  29.980   8.800   4.330
26798W        W95139   1.419  11.859  11.079
26799W        W95140  23.701  32.609  12.954
26800W        W95141  33.392  34.429   0.437
26801W        W95142   4.736  17.287  14.414
26802W        W95143  36.074  14.664  11.502
26803W        W95144  17.723   1.445   4.734
26804W        W95145  44.306  39.357  13.426
26805W        W95146   0.756  22.202  10.888
26806W        W95147  26.983  22.506  10.460
26807W        W95148  24.579  25.576   1.268
26808W        W95149  17.801  25.101   4.792
26809W        W95150  15.823   1.738   4.761
26810W        W95151   2.389  22.559   1.320
26811W        W95152  31.954  24.000  14.783
26812W        W95153   7.870   6.397   3.838
26813W        W95154   3.327  24.678   2.188
26814W        W95155  42.846  32.403   4.723
26815W        W95156  35.518  27.641   1.708
26816W        W95157  25.586  27.616   4.644
26817W        W95158   0.254  25.061  10.455
26818W        W95159  42.338  39.353  13.481
26819W        W95160   0.896  43.398   0.265
26820W        W95161  11.794  43.885   4.679
26821W        W95162  22.218   9.842   3.683
26822W        W95163  29.667  18.727   5.187
26823W        W95164  23.215   7.249  13.390
26824W        W95165   1.289  26.125  11.602
26825W        W95166  42.848   6.707   1.451
26826W        W95167  10.643   2.866  10.941
26827W        W95168  26.628  36.458   0.251
26828W        W95169   1.870   4.806  14.982
26829W        W95170   5.210  17.779   2.257
26830W        W95171  40.492  44.488   3.377
26831W        W95172   8.318  16.204  12.941
26832W        W95173  21.241  39.340   4.314
26833W        W95174  41.300  16.727  14.982
26834W        W95175  13.833  28.467  12.015
26835W        W95176  34.001  28.111  13.912
26836W        W95177  44.352  21.111   2.305
26837W        W95178   9.681   9.165   2.304
26838W        W95179  40.390  29.665   4.799
26839W        W95180  26.008   2.471  12.566
26840W        W95181   0.943  18.560   0.309
26841W        W95182  39.022  30.439  14.889
26842W        W95183  41.875   5.791  10.904
26843W        W95184  34.035  33.614  12.522
26844W        W95185  20.620  27.995   3.697
26845W        W95186  36.393  21.082   2.787
26846W        W95187  36.909   4.777   1.861
26847W        W95188  25.545  41.828   3.765
26848W        W95189  39.957  24.187   2.349
26849W        W95190  31.106  42.779  14.472
26850W        W95191  25.113   8.686   3.241
26851W        W95192  16.197  35.407   3.759
26852W        W95193  21.635   2.922  11.931
26853W        W95194   6.692  41.893   2.226
26854W        W95195  38.349  20.204   2.882
26855W        W95196  35.004   5.773   2.723
26856W        W95197   9.199  21.054   0.469
26857W        W95198  32.928  42.324  13.380
26858W        W95199  15.191  23.492  14.992
26859W        W95200  21.217  34.472  14.945
26860W        W95201  29.541   4.913   0.951
26861W        W95202  23.644  40.331  12.348
26862W        W95203  35.494  32.460   0.463
26863W        W95204   7.218  26.604  12.080
26864W        W95205  25.069  23.647   0.950
26865W        W95206  39.040  34.119   9.951
26866W        W95207  42.874  16.262   4.777
26867W        W95208  21.259  28.150   2.225
26868W        W95209  12.856   7.873  14.921
26869W        W95210  44.353  21.163  14.424
26870W        W95211  37.380  44.011   1.714
26871W        W95212  13.187   5.398  12.381
26872W        W95213   4.890   7.725  12.934
26873W        W95214  12.786  37.413  11.610
26874W        W95215   8.235  15.241   1.794
26875W        W95216  11.280  21.724  13.309
26876W        W95217  20.717  43.931  14.498
26877W        W95218  44.490  18.080   0.464
26878W        W95219  39.843  42.877  14.827
26879W        W95220  35.063  19.681   3.631
26880W        W95221  22.096  36.461  11.562
26881W        W95222  40.474  26.043   3.669
26882W        W95223  37.542   5.203  13.996
26883W        W95224  31.994  26.983  11.104
26884W        W95225  42.952  44.911   2.383
26885W        W95226  21.146  16.784  14.004
26886W        W95227  19.769  32.963   1.375
26887W        W95228   6.914   9.175   0.457
26888W        W95229  40.351  19.055   3.303
26889W        W95230   4.720  18.685   1.367
26890W        W95231  27.561  41.885  11.973
26891W        W95232  24.052  43.270   0.907
26892W        W95233   2.276   9.237  10.916
26893W        W95234  35.927   8.354  11.538
26894W        W95235  14.316   0.350  12.842
26895W        W95236  23.551  36.503   3.646
26896W        W95237  38.353  44.873  10.920
26897W        W95238  24.622   9.257   1.872
26898W        W95239   1.863  39.484  12.456
26899W        W95240  14.766  43.778  13.852
26900W        W95241   8.822  32.067   4.758
26901W        W95242   3.437  36.492   1.355
26902W        W95243   4.867  39.367  14.953
26903W        W95244   0.823   0.366   2.893
26904W        W95245  28.561  35.861  14.415
26905W        W95246  38.986  39.918   3.691
26906W        W95247  15.177  32.066   4.600
26907W        W95248  16.145  43.938   2.257
26908W        W95249  18.589  22.999  12.392
26909W        W95250  26.127  15.608  10.569
26910W        W95251  17.724  19.610   0.918
26911W        W95252   5.725  27.569   4.282
26912W        W95253  18.571  35.916  14.806
26913W        W95254   1.826  15.641  11.443
26914W        W95255  16.641  21.211  14.880
26915W        W95256   2.831  36.011   1.423
26916W        W95257  37.549  29.933   1.739
26917W        W95258  43.280  27.023  13.966
26918W        W95259  31.929  34.562   0.821
26919W        W95260  31.573  30.640  12.444
26920W        W95261  11.654   1.857   4.685
26921W        W95262  33.603  44.764  10.902
26922W        W95263   7.771   6.865   2.773
26923W        W95264  14.644  23.510   5.294
26924W        W95265  43.322  15.690   3.318
26925W        W95266   5.437  16.099   4.168
26926W        W95267  10.870  40.808   0.298
26927W        W95268  24.115  39.490   0.881
26928W        W95269  14.796   7.322  10.629
26929W        W95270  41.861  32.080   0.444
26930W        W95271  41.347  17.172  12.023
26931W        W95272  23.165  16.108   3.236
26932W        W95273  21.558  21.058   3.320
26933W        W95274  33.449  20.660  13.999
26934W        W95275  33.933  27.672  11.595
26935W        W95276  32.435  43.464  11.537
26936W        W95277  34.869  36.014  11.074
26937W        W95278  10.293   8.234   2.731
26938W        W95279  36.526  21.575  11.464
26939W        W95280  19.087   7.261   0.783
26940W        W95281   4.790   1.777  14.843
26941W        W95282  10.876   6.729   0.361
26942W        W95283  35.373  19.677  14.463
26943W        W95284  24.026  25.608  10.602
26944W        W95285  24.202  17.783   2.853
26945W        W95286  43.496  44.388  14.899
26946W        W95287   1.240  44.777   2.891
26947W        W95288  40.311  37.358   4.623
26948W        W95289  28.089  13.332  14.886
26949W        W95290  32.005  32.628  14.410
26950W        W95291  26.151  41.386   1.237
26951W        W95292  39.383  24.039  13.013
26952W        W95293  39.968  42.824   3.359
26953W        W95294  37.511  14.187  14.428
26954W        W95295  31.442  21.098  10.132
26955W        W95296  17.565  38.939   3.698
26956W        W95297  21.210  41.361  11.579
26957W        W95298   2.877   9.708  14.994
26958W        W95299  22.592  25.164  11.916
26959W        W95300  39.408  14.678  13.842
26960W        W95301  27.095  38.874  10.537
26961W        W95302  28.668  14.307   1.727
26962W        W95303  14.133  15.324   3.355
26963W        W95304  37.856  30.529   3.692
26964W        W95305   5.320  38.558  11.558
26965W        W95306  29.992  23.617   4.699
26966W        W95307  34.552  31.422   3.630
26967W        W95308  29.153  38.541   0.739
26968W        W95309  28.057  17.258  12.418
26969W        W95310  24.518  42.384   3.371
26970W        W95311  10.328  40.414  13.888
26971W        W95312  21.056  30.546  14.393
26972W        W95313  32.582   9.218  14.938
26973W        W95314   4.899   6.392   4.139
26974W        W95315   8.196  38.519   2.252
26975W        W95316   1.241  35.499  14.441
26976W        W95317   1.293  34.550   4.311
26977W        W95318  13.203  11.624  13.401
26978W        W95319  41.445  24.221   3.686
26979W        W95320  29.648  34.394   3.226
26980W        W95321   8.701  32.046   1.252
26981W        W95322  30.589   0.456   1.344
26982W        W95323  32.950  16.158  13.372
26983W        W95324   7.899  14.725   4.319
26984W        W95325  10.376   7.255   1.781
26985W        W95326  20.034  15.102   0.269
26986W        W95327  13.746   9.357   1.848
26987W        W95328  39.001  18.155   3.228
26988W        W95329  11.214  37.869   1.347
26989W        W95330   7.332  33.548   2.406
26990W        W95331  23.026  24.133  13.397
26991W        W95332  27.472   7.864  14.810
26992W        W95333  40.313  18.566  12.071
26993W        W95334  37.387  42.322  14.957
26994W        W95335   4.891  26.655   4.675
26995W        W95336  34.988   8.245  14.899
26996W        W95337  36.555  38.488   2.362
26997W        W95338  21.535  26.624  12.033
26998W        W95339  31.124  16.570  12.505
26999W        W95340  42.516  14.101  13.911
27000W        W95341  23.193  40.424   2.305
27001W        W95342  36.500  10.285   2.353
27002W        W95343  11.273  42.483   3.324
27003W        W95344  28.067  33.044   1.901
27004W        W95345  38.028  35.108  11.530
27005W        W95346  21.511  25.154  14.328
27006W        W95347  13.135   5.329  11.983
27007W        W95348  14.121   8.898  12.465
27008W        W95349  29.087  29.494  14.490
27009W        W95350  12.286  19.597  14.935
27010W        W95351  21.525  13.828  11.127
27011W        W95352  44.929  44.820   1.341
27012W        W95353  10.658  21.082   4.233
27013W        W95354   7.772  18.765   3.629
27014W        W95355  44.757  37.894  13.971
27015W        W95356   4.286   1.878  13.810
27016W        W95357  33.907  14.682   1.291
27017W        W95358  11.232   4.388  13.921
27018W        W95359  32.963  44.973  10.461
27019W        W95360  40.319  17.235   1.241
27020W        W95361  20.209  10.365  10.913
27021W        W95362   1.947  33.065  10.529
27022W        W95363  41.327   5.249   3.330
27023W        W95364   3.910  10.270  11.117
27024W        W95365  28.101   3.248   5.084
27025W        W95366   6.387  33.899  14.387
27026W        W95367  29.641  33.932   4.740
27027W        W95368  22.522  37.893  10.615
27028W        W95369  26.982  27.133   4.229
27029W        W95370  37.856  42.023   5.158
27030W        W95371  11.343   5.755   0.886
27031W        W95372  21.263   4.407   0.445
27032W        W95373   2.800  16.694   0.726
27033W        W95374  19.682  38.945   2.399
27034W        W95375  20.068  11.154  11.000
27035W        W95376  30.557   3.754  13.858
27036W        W95377  15.678   6.213  12.452
27037W        W95378  26.509   3.901   4.688
27038W        W95379  38.504  21.648  13.920
27039W        W95380  21.160   3.784   3.199
27040W        W95381  25.174  37.416   4.195
27041W        W95382  40.467  36.537  14.458
27042W        W95383   3.812  30.068   2.694
27043W        W95384  37.484  10.834   1.911
27044W        W95385  36.454  16.153  13.850
27045W        W95386  13.121   9.878   2.417
27046W        W95387  33.051  37.434  11.459
27047W        W95388   6.224  36.986   2.713
27048W        W95389  40.469  44.008  13.062
27049W        W95390   4.771  12.773   3.276
27050W        W95391  17.235  11.332  13.954
27051W        W95392  10.767  17.154   4.803
27052W        W95393  43.764  12.214   0.313
27053W        W95394   1.344  15.724   1.313
27054W        W95395  33.395  39.873   1.919
27055W        W95396  23.546  39.883  12.905
27056W        W95397   0.309  15.689   1.771
27057W        W95398  20.081   1.732   0.280
27058W        W95399  21.580  25.552  13.870
27059W        W95400  13.817  39.953   2.214
27060W        W95401  25.569   2.875   0.737
27061W        W95402  12.620   1.966   1.766
27062W        W95403  38.454   4.788   2.328
27063W        W95404  19.110  31.488  13.046
27064W        W95405  31.069  16.621  13.482
27065W        W95406   2.375  19.047  10.627
27066W        W95407  17.251   3.910  11.572
27067W        W95408  14.687  14.335  14.462
27068W        W95409  37.525  35.589  14.439
27069W        W95410  32.113  28.935  11.952
27070W        W95411   4.411   0.270   4.745
27071W        W95412  21.737   4.423   2.713
27072W        W95413  44.422  19.206   0.382
27073W        W95414  23.997  22.021   2.331
27074W        W95415  28.635  14.176   3.155
27075W        W95416  20.591  11.274   1.746
27076W        W95417  17.244  40.339  14.282
27077W        W95418  38.495  11.719  14.886
27078W        W95419  13.294  32.618   2.862
27079W        W95420  39.335   9.254   1.759
27080W        W95421  16.225  29.670   4.337
27081W        W95422  29.571  11.155   1.788
27082W        W95423  37.479   5.200  11.473
27083W        W95424  31.042  36.403  13.345
27084W        W95425  44.873  16.647  12.902
27085W        W95426  44.351   1.888  10.506
27086W        W95427  15.122  18.084   4.221
27087W        W95428  40.806   0.431  14.810
27088W        W95429   5.800  41.831   4.294
27089W        W95430   0.978   3.324  14.846
27090W        W95431   7.854  10.190   4.782
27091W        W95432  32.461  40.543   4.719
27092W        W95433  38.841   8.328   3.215
27093W        W95434  44.943   9.170   4.628
27094W        W95435  16.698   4.323  12.570
27095W        W95436  24.119  38.445  14.411
27096W        W95437  10.378  18.291  14.316
27097W        W95438  19.282  23.074   1.257
27098W        W95439  15.188  15.816   3.179
27099W        W95440  37.878  27.654  14.362
27100W        W95441  32.468  42.369   4.820
27101W        W95442  35.903   2.411  10.951
27102W        W95443  33.883  27.068  13.046
27103W        W95444   7.834  15.108   3.171
27104W        W95445  44.792   6.409  11.964
27105W        W95446  25.713  12.214  10.628
27106W        W95447  19.264   1.346  11.443
27107W        W95448   9.786  16.782   2.325
27108W        W95449  37.919  10.668  10.622
27109W        W95450  33.018  31.030   2.183
27110W        W95451   2.233   5.397  14.448
27111W        W95452  33.023  35.362   4.730
27112W        W95453  43.830  43.835   3.709
27113W        W95454  31.985   4.773  11.508
27114W        W95455  15.794   8.699  11.584
27115W        W95456  29.454  18.759   0.742
27116W        W95457   3.230  34.011  12.013
27117W        W95458  38.894  40.428  10.908
27118W        W95459  18.711  43.933   1.319
27119W        W95460   0.795   0.335  13.005
27120W        W95461   1.429  39.875  14.027
27121W        W95462   0.826  24.147  13.446
27122W        W95463  42.303  19.286   1.733
27123W        W95464  22.645  20.664   0.784
27124W        W95465  24.511  14.104  11.075
27125W        W95466  32.547  26.176   3.866
27126W        W95467  40.047  12.802  13.887
27127W        W95468   2.437  44.825   4.673
27128W        W95469  34.413  30.630   1.341
27129W        W95470  19.191  33.577  12.014
27130W        W95471  13.666  19.046  14.865
27131W        W95472   7.408   8.216  13.863
27132W        W95473  20.182  41.902   0.307
27133W        W95474   6.916   8.291  13.390
27134W        W95475  18.152  32.477  11.382
27135W        W95476  31.137  44.406  11.408
27136W        W95477  24.186   8.402  12.035
27137W        W95478   9.342  22.146  11.428
27138W        W95479  33.625  21.186  11.580
27139W        W95480   3.928  27.994   4.747
27140W        W95481  43.388  20.627  12.473
27141W        W95482  39.861  26.650  11.452
27142W        W95483  32.591  12.287  12.943
27143W        W95484  12.200  20.199  13.398
27144W        W95485   7.864  12.823  14.451
27145W        W95486  44.417  14.744  10.523
27146W        W95487  16.760  16.702  13.994
27147W        W95488   0.920  16.642   3.736
27148W        W95489   1.280  23.719   4.283
27149W        W95490  24.135  40.407   2.852
27150W        W95491  21.575  10.277  12.402
27151W        W95492   3.425  12.755   3.211
27152W        W95493  21.047   6.281   0.336
27153W        W95494  22.074  33.967  14.030
27154W        W95495  18.686   5.429  10.467
27155W        W95496  26.646  43.483  14.277
27156W        W95497   5.435  38.896  13.315
27157W        W95498  14.642  32.456  11.612
27158W        W95499   7.268  18.710   0.911
27159W        W95500  12.257  40.920  11.517
27160W        W95501  26.162  38.960   4.277
27161W        W95502  16.199   6.370  12.395
27162W        W95503  42.914  43.361   2.724
27163W        W95504  37.958  27.135   2.834
27164W        W95505  44.847  22.092   2.756
27165W        W95506   3.890  17.772   1.297
27166W        W95507  11.816  10.243   1.884
27167W        W95508  34.896  13.755  12.573
27168W        W95509   8.271  36.000  13.004
27169W        W95510  38.443  42.441  10.910
27170W        W95511  19.086  20.694   0.938
27171W        W95512  11.689  19.615  14.415
27172W        W95513  28.452   3.933  12.458
27173W        W95514  25.655  44.847   3.634
27174W        W95515  42.437  21.178   0.857
27175W        W95516  34.970  21.748  13.540
27176W        W95517  20.729  16.123  13.061
27177W        W95518  41.487   8.393  13.455
27178W        W95519   8.796  41.388  13.983
27179W        W95520  33.622  30.602   4.616
27180W        W95521  12.728  33.083  14.916
27181W        W95522  27.996   7.867   5.301
27182W        W95523  17.069  13.750  12.404
27183W        W95524  41.034  42.516  13.056
27184W        W95525  36.011  34.599  11.943
27185W        W95526  36.354  30.986  13.461
27186W        W95527  15.783   2.297   1.773
27187W        W95528  17.672   5.271   0.845
27188W        W95529   5.393  35.885  13.048
27189W        W95530  30.605  11.681  12.378
27190W        W95531  39.850  13.784   2.303
27191W        W95532  28.592  16.255   2.408
27192W        W95533  27.493  24.652   2.683
27193W        W95534  18.565   8.783  14.762
27194W        W95535  43.769  37.009  12.406
27195W        W95536  10.141  32.403   1.445
27196W        W95537  17.606  13.701  14.378
27197W        W95538   2.262   6.248   5.277
27198W        W95539   7.699  16.683  14.385
27199W        W95540   3.744  21.135   0.875
27200W        W95541  33.014   0.375  14.357
27201W        W95542  16.781  12.803   4.273
27202W        W95543  23.644  41.019   4.759
27203W        W95544  29.533   1.799   4.248
27204W        W95545   9.262  29.501  13.013
27205W        W95546  25.153   8.340   3.807
27206W        W95547  35.053  42.441   2.671
27207W        W95548  11.246  44.881   3.332
27208W        W95549  11.678   7.736   4.832
27209W        W95550  18.627  16.773  14.503
27210W        W95551  14.096  12.792   3.734
27211W        W95552   5.915  29.039  12.938
27212W        W95553  21.234  22.145   5.201
27213W        W95554  16.172  38.845  11.534
27214W        W95555   1.928   7.787   4.597
27215W        W95556   3.834  32.439   2.688
27216W        W95557  39.825  22.623  13.509
27217W        W95558  36.441  14.679   1.814
27218W        W95559  43.275  12.673   2.739
27219W        W95560  21.017  29.919  14.891
27220W        W95561  18.572  13.632  11.937
27221W        W95562  13.615   9.286   4.814
27222W        W95563   0.394  30.941  14.965
27223W        W95564  39.037  42.837  13.929
27224W        W95565   1.970  39.383  12.952
27225W        W95566  36.446  32.986   1.333
27226W        W95567  23.734  10.756   3.864
27227W        W95568  34.913  41.944  14.798
27228W        W95569  41.814  18.740   2.397
27229W        W95570  22.732  34.479   0.274
27230W        W95571   8.288  35.932   3.278
27231W        W95572  22.506   5.776  14.377
27232W        W95573  28.061  13.195  13.499
27233W        W95574   3.405  44.922   2.761
27234W        W95575  27.565  17.763  12.000
27235W        W95576  37.926  18.181  13.800
27236W        W95577  37.927  27.950   3.792
27237W        W95578  21.049  20.658  11.449
27238W        W95579  36.430  36.475   1.771
27239W        W95580  23.705   9.382  10.574
27240W        W95581  34.572  44.767  14.026
27241W        W95582   6.270   9.822   3.698
27242W        W95583  35.929  34.106  13.325
27243W        W95584  36.398   8.318  14.879
27244W        W95585  38.459  33.392  14.970
27245W        W95586  25.978  10.837  11.591
27246W        W95587  27.473  40.497  10.975
27247W        W95588  43.437   7.873   1.694
27248W        W95589   8.260  19.625   2.701
27249W        W95590  37.441  22.035   4.307
27250W        W95591  37.886  44.874   2.224
27251W        W95592   7.811  12.166  14.852
27252W        W95593  40.321  26.054  14.429
27253W        W95594  44.328  42.338  14.486
27254W        W95595  41.431  19.164   2.414
27255W        W95596  11.640  43.297  11.612
27256W        W95597   5.923  27.683  14.921
27257W        W95598   5.217  23.017   0.739
27258W        W95599  32.457  41.434  10.064
27259W        W95600   8.710  21.688   4.775
27260W        W95601  30.570  30.950   0.401
27261W        W95602   7.768  28.185  11.907
27262W        W95603  23.617  43.277   2.248
27263W        W95604  20.028  42.364   4.210
27264W        W95605  25.472  10.701  13.363
27265W        W95606  24.537  30.046   0.861
27266W        W95607   7.215  10.320   3.761
27267W        W95608  44.769  29.444  10.472
27268W        W95609  35.036  31.550   0.276
27269W        W95610  44.958  35.979   0.325
27270W        W95611   9.330  17.208  13.388
27271W        W95612  15.092  44.426  13.519
27272W        W95613  10.162  35.460  10.465
27273W        W95614  25.996  24.667  12.029
27274W        W95615  39.995  26.998  11.992
27275W        W95616  18.641  22.179   5.128
27276W        W95617  21.122  15.753   2.884
27277W        W95618  20.093   4.396  12.384
27278W        W95619  21.190   8.786  11.424
27279W        W95620  28.006  24.688  14.906
27280W        W95621  18.114  21.021  11.382
27281W        W95622   3.277   5.731  12.076
27282W        W95623  30.596   0.757  10.482
27283W        W95624  28.663  22.557   1.753
27284W        W95625   4.728  38.520  11.400
27285W        W95626  17.062  43.823  11.115
27286W        W95627  16.224  10.676  14.395
27287W        W95628   2.862  30.913   0.441
27288W        W95629   9.730  25.016   3.231
27289W        W95630   3.262   0.401  10.542
27290W        W95631  34.073  36.464   0.372
27291W        W95632  12.820  28.542  14.347
27292W        W95633  39.487   6.271   4.267
27293W        W95634  37.570  16.128  11.494
27294W        W95635  34.548   1.458   0.376
27295W        W95636  34.028  15.155  12.974
27296W        W95637  17.240  21.192  11.979
27297W        W95638  19.766   3.311  12.503
27298W        W95639  42.349  31.436  11.065
27299W        W95640   0.850  40.549   2.759
27300W        W95641  10.255  12.218  14.404
27301W        W95642  20.654  24.511   4.679
27302W        W95643  30.555   5.427  11.981
27303W        W95644  23.648  23.041  11.901
27304W        W95645  22.021  13.769  10.599
27305W        W95646  20.696  33.615  11.014
27306W        W95647  28.618  21.741   4.282
27307W        W95648  35.440   8.235  13.810
27308W        W95649  19.197   7.285  11.094
27309W        W95650  21.576   1.947   4.354
27310W        W95651  36.588  34.373   4.713
27311W        W95652  17.632  39.829   4.803
27312W        W95653  43.315  13.223   0.837
27313W        W95654  20.201  23.498  10.127
27314W        W95655  23.720  15.753   3.354
27315W        W95656   9.758   0.775  10.900
27316W        W95657   3.789  42.499  11.382
27317W        W95658   6.382  25.976   1.225
27318W        W95659  39.056   7.741   4.290
27319W        W95660  30.137  38.525  13.413
27320W        W95661   1.887   8.365   3.254
27321W        W95662  44.801  34.465  11.503
27322W        W95663  28.009  26.042  14.422
27323W        W95664  37.412  13.691  10.488
27324W        W95665  26.095  12.724  13.947
27325W        W95666  18.233   2.357  13.026
27326W        W95667   8.881   8.779   2.833
27327W        W95668  14.790  14.306   4.783
27328W        W95669  23.662  26.025  11.860
27329W        W95670  20.709  15.648   3.301
27330W        W95671  35.952  16.689  13.448
27331W        W95672   0.746  37.461  10.588
27332W        W95673  25.974  21.657   1.285
27333W        W95674  33.079   0.327   3.661
27334W        W95675   0.398   7.720   0.323
27335W        W95676  15.317  33.059   5.180
27336W        W95677  36.523  15.725  10.538
27337W        W95678   8.339  34.920  12.835
27338W        W95679  40.924  15.681  11.107
27339W        W95680  28.449  39.368  14.456
27340W        W95681  17.741  38.386  12.054
27341W        W95682  16.628  37.017   3.766
27342W        W95683  35.364  38.423   0.910
27343W        W95684  16.132   9.242   4.166
27344W        W95685  30.489   6.734   1.223
27345W        W95686  38.939  17.611   9.937
27346W        W95687  37.020  24.722  12.542
27347W        W95688  24.712  33.448   0.301
27348W        W95689  28.141   3.434   3.263
27349W        W95690  18.658  24.195  13.331
27350W        W95691  14.340  24.230  11.442
27351W        W95692  41.041   0.304   2.753
27352W        W95693   4.860   3.266  12.580
27353W        W95694   6.184  34.997   3.186
27354W        W95695  31.118  23.504   1.818
27355W        W95696   4.272  23.984  11.447
27356W        W95697  37.954  41.390  14.964
27357W        W95698  29.648   3.272  14.401
27358W        W95699   8.686  35.452  12.856
27359W        W95700  30.027  12.845   3.844
27360W        W95701  10.871  13.265   4.214
27361W        W95702  12.786   6.398  14.350
27362W        W95703  37.359  35.457  11.528
27363W        W95704  40.046   6.721  10.415
27364W        W95705   6.884  37.838   0.753
27365W        W95706  37.874  26.155   3.342
27366W        W95707  19.171   9.803   2.694
27367W        W95708  12.837   3.954  10.629
27368W        W95709   8.747  29.937   3.731
27369W        W95710   9.362  44.003  13.364
27370W        W95711  40.433  38.371   0.309
27371W        W95712  20.645   5.856  14.297
27372W        W95713  35.389   0.945  13.027
27373W        W95714   1.349  24.221  12.394
27374W        W95715  22.743  20.753   1.854
27375W        W95716  18.130  40.924   4.825
27376W        W95717  28.056  29.937   4.214
27377W        W95718  41.866  27.150   3.749
27378W        W95719  10.670  16.710   3.192
27379W        W95720   9.210  21.744  14.942
27380W        W95721   2.860  10.221  10.543
27381W        W95722  18.745  28.608  11.414
27382W        W95723  29.930  25.642  10.889
27383W        W95724  14.311  24.177   3.630
27384W        W95725  41.378  30.630   3.224
27385W        W95726  10.639  34.103  10.982
27386W        W95727   6.350  14.325  11.932
27387W        W95728  28.588  24.620   4.336
27388W        W95729   0.491  30.649  14.846
27389W        W95730  19.147   2.249   4.135
27390W        W95731  38.882  30.013   0.402
27391W        W95732  37.974  19.698   3.162
27392W        W95733   7.842  24.657  11.042
27393W        W95734   9.226  19.746  14.444
27394W        W95735  28.639  27.448   3.673
27395W        W95736   2.435  22.702  13.312
27396W        W95737   9.846  30.497  10.617
27397W        W95738   9.206   8.165   0.392
27398W        W95739  26.030  36.087  14.412
27399W        W95740   8.816   0.857   2.203
27400W        W95741   2.308  28.968  11.544
27401W        W95742  22.735  26.062   0.753
27402W        W95743  21.222  17.133  12.994
27403W        W95744  23.667   2.825   3.776
27404W        W95745   8.337  40.054   3.729
27405W        W95746   7.182  30.087  12.076
27406W        W95747   7.343  27.017   3.224
27407W        W95748  43.810  12.636   0.790
27408W        W95749  27.945  44.890   3.255
27409W        W95750   4.231  42.905   1.249
27410W        W95751   2.834  16.784   3.664
27411W        W95752  38.327  25.102   3.714
27412W        W95753  30.573  28.046  12.032
27413W        W95754   4.290  12.752  12.080
27414W        W95755   2.270  42.404   3.296
27415W        W95756  26.062   2.802   1.695
27416W        W95757  26.510   7.249  14.763
27417W        W95758  29.495  11.194  10.427
27418W        W95759  16.172  37.912  13.802
27419W        W95760  36.904  42.518  13.485
27420W        W95761  15.112  30.123  14.305
27421W        W95762  28.091  29.553   1.393
27422W        W95763  27.010  30.001   0.871
27423W        W95764  37.517  41.952  11.064
27424W        W95765  24.140  44.293   3.682
27425W        W95766  35.583   6.873  10.973
27426W        W95767  31.597   8.287   0.860
27427W        W95768  14.277  11.183  11.934
27428W        W95769   1.289  15.166  12.869
27429W        W95770  29.083  27.087   3.852
27430W        W95771   1.287  23.025  14.489
27431W        W95772  32.562  21.558   3.216
27432W        W95773  31.521  40.016  12.546
27433W        W95774  12.160  40.906   3.162
27434W        W95775   7.266   2.283  10.905
27435W        W95776  43.946  21.537   2.805
27436W        W95777   7.878   3.842   2.287
27437W        W95778  19.566  24.531   2.221
27438W        W95779  18.587  28.935   3.319
27439W        W95780  18.787   0.361  14.282
27440W        W95781  39.362   1.764  12.512
27441W        W95782  20.679  43.768  12.013
27442W        W95783  42.855  12.855   1.412
27443W        W95784  12.752  22.553   1.300
27444W        W95785  32.463  40.388  12.934
27445W        W95786  34.424  17.292   1.228
27446W        W95787  30.528  13.832  13.452
27447W        W95788  40.887  36.373   2.803
27448W        W95789  29.934  27.589  12.491
27449W        W95790  10.287  25.006   0.916
27450W        W95791  42.508  16.164   3.821
27451W        W95792  29.158  11.864  11.118
27452W        W95793  26.192  18.126   4.280
27453W        W95794  19.157  38.367   4.812
27454W        W95795  17.197  12.341   1.894
27455W        W95796  19.118  10.695  14.451
27456W        W95797  41.883  37.536   5.242
27457W        W95798  39.373  15.260  13.905
27458W        W95799  30.124  12.807   4.245
27459W        W95800  42.786  11.775  10.478
27460W        W95801  40.981  29.070  11.927
27461W        W95802   8.851  42.521   1.721
27462W        W95803  11.195  42.323  14.345
27463W        W95804  11.171  28.462  12.943
27464W        W95805  37.920   3.396   2.898
27465W        W95806  16.129  21.181   0.929
27466W        W95807  26.202  41.355  11.075
27467W        W95808   7.888  23.240  14.914
27468W        W95809  41.473   7.834   0.414
27469W        W95810  26.703  15.189  11.012
27470W        W95811  23.647  11.630  13.488
27471W        W95812  17.132  11.634  13.484
27472W        W95813  22.106   5.890   4.779
27473W        W95814   7.910  42.282   4.671
27474W        W95815   8.832  24.676  10.615
27475W        W95816  15.232  24.516   2.903
27476W        W95817   3.806  36.085  11.062
27477W        W95818  13.796  30.949  12.389
27478W        W95819  29.533  23.555   1.340
27479W        W95820  27.534   8.361  12.419
27480W        W95821  22.607  35.576   1.389
27481W        W95822  36.385   7.264   3.800
27482W        W95823  23.678  22.616   2.822
27483W        W95824  12.351  24.547  12.524
27484W        W95825  42.324  44.886   4.165
27485W        W95826  24.000   0.337  10.935
27486W        W95827  12.827  37.449   3.816
27487W        W95828  38.007  27.009  13.499
27488W        W95829   6.904  31.899  12.541
27489W        W95830  21.118  42.327   0.355
27490W        W95831  29.665   7.675   0.477
27491W        W95832  33.524  11.685   4.285
27492W        W95833  25.200  37.435  10.918
27493W        W95834  17.302  23.610   3.669
27494W        W95835  25.595  17.558  14.822
27495W        W95836  29.101  39.333   0.874
27496W        W95837  40.941  17.168   4.159
27497W        W95838  34.375   7.413  12.879
27498W        W95839   9.777  37.456  13.504
27499W        W95840  32.520  28.989   5.233
27500W        W95841  17.759  18.710   0.804
27501W        W95842  13.146  31.935  14.964
27502W        W95843   7.408  17.150   2.710
27503W        W95844  10.304  23.666   3.193
27504W        W95845  34.868  42.423  13.995
27505W        W95846  24.690  12.293   4.717
27506W        W95847  11.840  35.961   1.308
27507W        W95848  37.851  26.207  13.845
27508W        W95849  31.114  24.151  12.876
27509W        W95850  14.768  22.606  12.012
27510W        W95851   3.365   1.736   1.812
27511W        W95852  35.080  18.287  13.917
27512W        W95853   8.274  18.244  14.497
27513W        W95854  13.182  40.838   2.384
27514W        W95855  35.454  41.941   3.279
27515W        W95856  41.893  11.310   0.812
27516W        W95857   4.274  25.568  12.506
27517W        W95858  36.589  29.541   3.645
27518W        W95859  14.126  39.875   4.120
27519W        W95860  39.551   8.894  13.379
27520W        W95861   2.796  17.244  10.159
27521W        W95862   3.885  28.085  11.065
27522W        W95863  31.473  17.137  14.333
27523W        W95864   6.698  41.005   2.852
27524W        W95865  25.639  32.636  13.851
27525W        W95866   5.743   0.870  14.410
27526W        W95867   7.225   4.387   4.656
27527W        W95868   6.905  15.715  14.764
27528W        W95869   6.319  31.498   3.741
27529W        W95870  42.912  30.954  14.995
27530W        W95871  33.588  10.201   1.765
27531W        W95872  41.030  42.027   9.671
27532W        W95873   7.863  44.994  12.455
27533W        W95874  19.076   5.394   4.782
27534W        W95875  44.280  32.562   0.966
27535W        W95876  27.060   4.738  10.407
27536W        W95877  13.760  29.144  14.971
27537W        W95878  11.705   8.709  10.977
27538W        W95879  39.926  13.683  12.922
27539W        W95880   3.273  33.569  13.520
27540W        W95881  37.446   0.774   0.785
27541W        W95882  43.893  25.094  12.950
27542W        W95883  15.272  39.502  13.490
27543W        W95884   8.301  31.567   2.851
27544W        W95885  39.949  22.213  13.408
27545W        W95886  25.653  32.595   0.473
27546W        W95887  25.989   3.797   4.678
27547W        W95888  42.407  31.546  10.498
27548W        W95889  21.260  10.349  11.469
27549W        W95890  29.983  29.118  12.006
27550W        W95891  26.166  23.237   1.449
27551W        W95892   8.736   7.281   2.225
27552W        W95893   6.314  26.545  10.081
27553W        W95894  25.054  42.896   5.313
27554W        W95895   1.349  23.518   1.827
27555W        W95896  33.388  15.797   3.351
27556W        W95897   4.213  29.572  11.455
27557W        W95898  24.643  27.164   4.822
27558W        W95899  31.904  26.116  11.007
27559W        W95900  30.500  22.126  12.482
27560W        W95901  18.789   6.922  13.936
27561W        W95902  38.071  27.489  11.008
27562W        W95903  42.779   9.333   0.762
27563W        W95904  37.544   0.376   0.922
27564W        W95905  40.838  26.065   1.810
27565W        W95906   5.818   9.362   1.715
27566W        W95907  13.603  38.547  11.473
27567W        W95908  26.063  19.550  11.863
27568W        W95909   1.797  16.603   5.585
27569W        W95910   9.864   7.308  13.843
27570W        W95911  13.226  34.090  10.414
27571W        W95912  36.870  21.111   3.661
27572W        W95913  24.211  35.949  14.385
27573W        W95914  34.514   7.707  12.886
27574W        W95915  34.436  40.482   1.766
27575W        W95916   2.752  16.310   2.365
27576W        W95917  42.793  21.663  10.919
27577W        W95918  17.130  39.841   2.896
27578W        W95919  22.060  29.617  10.486
27579W        W95920   2.415  20.219  13.000
27580W        W95921  26.594  16.638   3.264
27581W        W95922  21.065   9.364  13.487
27582W        W95923  38.510  41.375  14.017
27583W        W95924  13.238  40.009   4.271
27584W        W95925  33.397  13.206  12.502
27585W        W95926  20.270  41.385   4.322
27586W        W95927  44.505  28.052   2.680
27587W        W95928  32.062   3.891  10.565
27588W        W95929  28.128  35.596   1.368
27589W        W95930  30.941   8.894   4.259
27590W        W95931   5.797   4.281   4.235
27591W        W95932  37.479  22.534  11.578
27592W        W95933  28.051  26.517   1.933
27593W        W95934  27.595  11.349   1.263
27594W        W95935  42.919  18.050  13.899
27595W        W95936  24.099   7.219   2.416
27596W        W95937  23.541  34.384  11.013
27597W        W95938   1.895  16.743  11.515
27598W        W95939  22.572  29.500  11.601
27599W        W95940  38.557  23.507  10.582
27600W        W95941   5.890  15.737  14.805
27601W        W95942  23.989  38.396  11.526
27602W        W95943  11.727  22.013  13.462
27603W        W95944  12.753  30.079  13.846
27604W        W95945  33.917  18.261   4.327
27605W        W95946   7.864  40.475  12.840
27606W        W95947  36.585  31.619   2.665
27607W        W95948   1.414  33.481   0.928
27608W        W95949   3.356   8.804   4.617
27609W        W95950  36.368   0.869   0.460
27610W        W95951  24.112  29.013  14.970
27611W        W95952  29.129  31.958  12.398
27612W        W95953   2.756   1.793  10.617
27613W        W95954   2.357   8.671  12.477
27614W        W95955  19.180  39.452  12.517
27615W        W95956  22.690  32.468  11.458
27616W        W95957  44.907  36.018  12.027
27617W        W95958   5.297  23.597   2.885
27618W        W95959  43.787  39.912   3.668
27619W        W95960   0.964  41.867   4.146
27620W        W95961  36.942  17.718  14.925
27621W        W95962  14.772  19.645   4.807
27622W        W95963   4.296  16.695   2.755
27623W        W95964  34.471   8.208  11.112
27624W        W95965   2.438   9.869   4.242
27625W        W95966  30.037  34.902   4.640
27626W        W95967  29.068  28.995  10.604
27627W        W95968  21.185  16.107   3.773
27628W        W95969  32.624  30.036  13.844
27629W        W95970  25.593  16.634   3.316
27630W        W95971   5.269  18.604   2.399
27631W        W95972  17.143   3.396   5.128
27632W        W95973   9.650   5.732   4.192
27633W        W95974   8.674   7.747  14.882
27634W        W95975  11.815  17.580   3.204
27635W        W95976  12.211   0.484   0.734
27636W        W95977  20.120  33.878  14.315
27637W        W95978   3.908  42.286  11.991
27638W        W95979  10.688  12.770  14.336
27639W        W95980   9.354  34.032  13.863
27640W        W95981   3.246  40.353   0.873
27641W        W95982  42.015   0.892   4.620
27642W        W95983  21.233  44.403   2.832
27643W        W95984  29.029  27.012  11.879
27644W        W95985  27.588  25.486   2.768
27645W        W95986  33.923  12.852   0.478
27646W        W95987  40.307  21.059   9.957
27647W        W95988  35.415   4.841   3.669
27648W        W95989   2.868   9.206   4.161
27649W        W95990  20.620  19.537  12.467
27650W        W95991  31.430  10.203   2.203
27651W        W95992  32.061  35.982   1.872
27652W        W95993   8.702  34.471  10.134
27653W        W95994  26.557   1.958  13.546
27654W        W95995   1.949  37.509   0.779
27655W        W95996  35.011  36.866   0.300
27656W        W95997  40.932  32.480  14.468
27657W        W95998  22.562  21.543  11.978
27658W        W95999  43.491  16.147   0.796
27659W        W96000   4.416  32.961   3.809
27660W        W96001  26.564   1.969  13.857
27661W        W96002  39.512  44.368   1.402
27662W        W96003   6.732  37.402  14.409
27663W        W96004  23.224  14.834  14.352
27664W        W96005   2.901   8.328   0.901
27665W        W96006   4.849  13.267  12.038
27666W        W96007   6.801   8.347   1.323
27667W        W96008  19.748  12.137  13.827
27668W        W96009  19.626  11.680  10.543
27669W        W96010   2.842  38.448   2.824
27670W        W96011  37.074  31.141   4.693
27671W        W96012   7.256   7.671  12.507
27672W        W96013  37.869   0.773   3.342
27673W        W96014  31.648  40.923  10.904
27674W        W96015  43.957  34.930   2.775
27675W        W96016  41.044   6.870  13.525
27676W        W96017  10.768  26.668  10.468
27677W        W96018  33.073  38.025   0.762
27678W        W96019  11.802  42.428  12.064
27679W        W96020  39.479  31.984  11.858
27680W        W96021  32.500  19.626   4.276
27681W        W96022  10.313   1.967   1.798
27682W        W96023  41.345  14.251  10.574
27683W        W96024   0.881   1.915  12.377
27684W        W96025  43.474  20.678   0.878
27685W        W96026  37.933  17.561   3.777
27686W        W96027   4.338  27.656  11.987
27687W        W96028  21.184   9.868  10.459
27688W        W96029  22.063  18.666  14.850
27689W        W96030  35.495  15.267  14.493
27690W        W96031  35.982   2.863   0.469
27691W        W96032  17.709  37.475   1.317
27692W        W96033  19.150  28.126  14.508
27693W        W96034  11.675   9.280   3.162
27694W        W96035   6.328  44.461  12.507
27695W        W96036   4.784  27.497   4.234
27696W        W96037  39.947  35.997  11.552
27697W        W96038  13.307   0.253  11.076
27698W        W96039  20.124   6.844   3.258
27699W        W96040  12.255  44.925   0.806
27700W        W96041  33.430  18.751  11.987
27701W        W96042  16.787  11.233   0.450
27702W        W96043  15.306  25.704  14.807
27703W        W96044  20.056  10.746  14.315
27704W        W96045  22.171  43.513  12.911
27705W        W96046  11.321  20.235  14.799
27706W        W96047  28.594  25.554   1.361
27707W        W96048  24.038   6.278  12.349
27708W        W96049  34.934   9.303  13.313
27709W        W96050   4.237   4.800  12.916
27710W        W96051  14.196  19.555   4.178
27711W        W96052  17.262  30.077   1.427
27712W        W96053  23.492  14.163  12.980
27713W        W96054  35.080  21.074  12.512
27714W        W96055  20.273  27.571   2.793
27715W        W96056  17.778  22.143   0.440
27716W        W96057  38.332  44.446   0.747
27717W        W96058   4.222  28.044  12.378
27718W        W96059  37.056  26.184   3.736
27719W        W96060   3.374  15.205  14.396
27720W        W96061   3.820  16.770  10.128
27721W        W96062  20.031  44.889   1.709
27722W        W96063  26.001  19.134   4.733
27723W        W96064   3.899  10.831  12.998
27724W        W96065  20.269  22.129  10.405
27725W        W96066   5.203  13.176  13.823
27726W        W96067  30.610  17.085   1.881
27727W        W96068   7.190  43.324   1.930
27728W        W96069  24.067  29.668   5.135
27729W        W96070   0.362  26.047   4.152
27730W        W96071  15.594  20.680  10.600
27731W        W96072   7.889  41.325  12.355
27732W        W96073  11.243  26.117  10.931
27733W        W96074   6.308  41.507  12.405
27734W        W96075  39.533   4.217  14.350
27735W        W96076  12.640   2.304  10.499
27736W        W96077  13.119  15.735  14.007
27737W        W96078   3.281  24.641   3.164
27738W        W96079  34.396   7.804   4.302
27739W        W96080  27.518  25.068  13.997
27740W        W96081  32.091  12.753   1.920
27741W        W96082   2.734  34.415  14.986
27742W        W96083  22.714   9.199   0.797
27743W        W96084  34.490  43.456  11.562
27744W        W96085  44.881  12.136  13.409
27745W        W96086  33.625  28.513   0.913
27746W        W96087  24.641  40.544  14.393
27747W        W96088  43.514  19.654  11.093
27748W        W96089  15.724  21.100   0.393
27749W        W96090  22.051  31.008   2.828
27750W        W96091  31.962  10.249   4.333
27751W        W96092  24.046   2.436   0.915
27752W        W96093  18.765  27.597  13.857
27753W        W96094  43.370  24.012  10.572
27754W        W96095  34.010  44.320  12.418
27755W        W96096   3.346   6.918   1.307
27756W        W96097  39.816  38.453   4.220
27757W        W96098  10.868  10.163   3.700
27758W        W96099  28.956  39.061   2.291
27759W        W96100  34.606   0.250  14.890
27760W        W96101  30.503  26.974   2.394
27761W        W96102  30.504  15.302   1.337
27762W        W96103  26.685  11.212   3.230
27763W        W96104  13.228  36.897   0.372
27764W        W96105   6.683  11.628   1.889
27765W        W96106  20.640  39.984  11.044
27766W        W96107  38.905  44.888  14.810
27767W        W96108  12.637  39.979   0.317
27768W        W96109  28.941  14.752  10.965
27769W        W96110  28.482  38.948  10.550
27770W        W96111  41.825  20.623  11.573
27771W        W96112   5.407  23.586  11.433
27772W        W96113  39.827  23.010  10.945
27773W        W96114  26.147  19.730   2.375
27774W        W96115  34.423  35.468  10.501
27775W        W96116   4.288  42.928  10.608
27776W        W96117  13.220   9.789  11.969
27777W        W96118  13.683   5.815   0.343
27778W        W96119  39.318  22.503  14.359
27779W        W96120  41.859  31.546  13.846
27780W        W96121  26.581  12.323   2.813
27781W        W96122  33.111  12.825   3.670
27782W        W96123  26.009  25.991  12.518
27783W        W96124  30.653   0.798  11.107
27784W        W96125  42.390  20.152   4.711
27785W        W96126  39.015  28.610   3.858
27786W        W96127  42.414  22.661   1.429
27787W        W96128  14.263   8.861  13.322
27788W        W96129   1.343  38.531   2.366
27789W        W96130  34.913   7.725  12.065
27790W        W96131  23.179  43.301   0.857
27791W        W96132   3.316  34.388  14.778
27792W        W96133   2.313  17.295   0.445
27793W        W96134  30.991   8.391  13.396
27794W        W96135   4.700  20.625  10.490
27795W        W96136  16.194  28.524  12.520
27796W        W96137  38.044  19.617   0.325
27797W        W96138  35.442  29.475   0.901
27798W        W96139  36.432  22.575   4.733
27799W        W96140  24.170  25.486   2.299
27800W        W96141  23.149  18.103  10.476
27801W        W96142  35.370  13.193   1.375
27802W        W96143  26.692  26.514  10.139
27803W        W96144  27.083  15.114   2.836
27804W        W96145  35.999  24.609  11.095
27805W        W96146   6.864  30.143  13.472
27806W        W96147  34.876  12.661  12.544
27807W        W96148   7.682   0.826   0.769
27808W        W96149  17.079  26.553   1.883
27809W        W96150  30.129   9.740   2.693
27810W        W96151  41.796  36.894   0.818
27811W        W96152  11.364  23.640  13.343
27812W        W96153  24.210  22.162  13.918
27813W        W96154   4.845   3.238   1.924
27814W        W96155  17.794  34.098   0.483
27815W        W96156  37.521  13.751   3.374
27816W        W96157   0.329  28.014   0.466
27817W        W96158  18.268   1.478  12.881
27818W        W96159   6.288   4.264  10.920
27819W        W96160  16.747  13.646  12.923
27820W        W96161  44.432  37.510   4.827
27821W        W96162   1.843  37.372  13.391
27822W        W96163  19.267  20.559  14.914
27823W        W96164  18.186  13.295  13.378
27824W        W96165   7.301  23.070   0.937
27825W        W96166  31.101   2.905  13.308
27826W        W96167   5.794  42.816   4.615
27827W        W96168  23.603   3.806  11.472
27828W        W96169  25.191  38.849   1.844
27829W        W96170   8.241  15.677  12.022
27830W        W96171  10.358  28.473   1.930
27831W        W96172  13.279  25.707   3.731
27832W        W96173  19.221  23.206  13.381
27833W        W96174  42.298   1.853  13.898
27834W        W96175  27.630  26.612  10.989
27835W        W96176  33.950  21.651  12.074
27836W        W96177  24.664  34.445   1.780
27837W        W96178  39.412  30.413   1.337
27838W        W96179  39.852  38.924  11.100
27839W        W96180  43.504  40.345  11.906
27840W        W96181  26.140  18.142   2.715
27841W        W96182   9.702  25.057   0.268
27842W        W96183  18.216  21.213  11.986
27843W        W96184  10.253  13.799  13.942
27844W        W96185  40.346   6.233   0.256
27845W        W96186  39.836   7.877  14.025
27846W        W96187   3.312  25.525   0.810
27847W        W96188   2.927   2.403  12.493
27848W        W96189  26.191  41.010   1.330
27849W        W96190  22.049  38.381  11.040
27850W        W96191  40.996  35.604   3.283
27851W        W96192  11.672  41.350   0.404
27852W        W96193  26.657  40.918  12.551
27853W        W96194  30.127  32.121  12.489
27854W        W96195  26.546  44.309  13.958
27855W        W96196  20.673  37.857   0.321
27856W        W96197  25.534  36.857  12.469
27857W        W96198  40.496  18.550  14.861
27858W        W96199  28.590  28.991   2.322
27859W        W96200  13.166  18.665  13.034
27860W        W96201  39.401  19.705  13.437
27861W        W96202  11.621  20.708   2.213
27862W        W96203  33.031  41.346   2.394
27863W        W96204  40.847  34.510  14.386
27864W        W96205  18.128  34.919   1.331
27865W        W96206  25.488  21.213   4.168
27866W        W96207  39.461   5.882   2.337
27867W        W96208  14.167  15.104   2.375
27868W        W96209  21.572   2.858   3.694
27869W        W96210   9.267  33.975  14.451
27870W        W96211  20.071   3.341  14.462
27871W        W96212  40.836   6.368   2.729
27872W        W96213  37.439   8.706  13.517
27873W        W96214  19.098  30.463   0.318
27874W        W96215  38.410   4.322  13.848
27875W        W96216   3.827   6.240  10.052
27876W        W96217  34.903  38.074  11.891
27877W        W96218  13.713  30.563   3.371
27878W        W96219  39.523  39.490  12.357
27879W        W96220  26.545  21.729  11.038
27880W        W96221  37.416  44.851  11.937
27881W        W96222  10.728  29.433  12.854
27882W        W96223  43.823  36.957   1.744
27883W        W96224  16.142  13.831  14.434
27884W        W96225  30.430  16.799  11.981
27885W        W96226  15.139  26.152   2.265
27886W        W96227   9.308  26.120   0.408
27887W        W96228  16.091  38.372  13.389
27888W        W96229  11.758  29.975   1.764
27889W        W96230  10.216  10.710   0.832
27890W        W96231  27.025  19.188  13.526
27891W        W96232  21.746  31.957  13.464
27892W        W96233   9.249  22.189   3.232
27893W        W96234  10.349  24.036   2.868
27894W        W96235  17.634  40.385   1.801
27895W        W96236   3.452   3.424  10.611
27896W        W96237  31.404  26.538   5.188
27897W        W96238  32.019  35.005  12.040
27898W        W96239  40.900   1.293   3.147
27899W        W96240  30.143  30.063   0.824
27900W        W96241  16.775  43.414   2.801
27901W        W96242  20.113   2.937  13.953
27902W        W96243  42.342  31.501   3.208
27903W        W96244  39.505  11.843   4.250
27904W        W96245  31.570  20.039  11.013
27905W        W96246  15.723  11.161  11.961
27906W        W96247  28.182  19.612   3.750
27907W        W96248  26.083   4.397   3.254
27908W        W96249  26.625  17.231   2.829
27909W        W96250  38.034  16.083   3.184
27910W        W96251  25.548   3.776   3.208
27911W        W96252  10.256  32.495  12.352
27912W        W96253   7.839   2.751   3.678
27913W        W96254  37.360  10.649  12.852
27914W        W96255  20.155  40.908   4.637
27915W        W96256  15.723   9.244  13.523
27916W        W96257   0.877  16.599   4.215
27917W        W96258  11.218  40.339  10.627
27918W        W96259  40.920  19.767   1.274
27919W        W96260  44.841  21.606   9.547
27920W        W96261  35.930  39.961   0.736
27921W        W96262  43.867  28.950  10.554
27922W        W96263  24.623   4.256   1.395
27923W        W96264   5.849  16.617   2.386
27924W        W96265   4.329  19.658  12.369
27925W        W96266  43.489  31.509  12.890
27926W        W96267  25.211  38.512  11.940
27927W        W96268  30.055  17.292  14.495
27928W        W96269  44.337  36.870   3.833
27929W        W96270   3.832  20.528  12.570
27930W        W96271  10.212  10.808  12.909
27931W        W96272  16.594  21.590  10.149
27932W        W96273  14.188  23.520   3.639
27933W        W96274   3.945  38.463   0.762
27934W        W96275   4.326  18.635  13.870
27935W        W96276  17.684   2.373  13.370
27936W        W96277  32.957  36.073  14.020
27937W        W96278  10.289  15.799  13.447
27938W        W96279  16.644   4.236   4.344
27939W        W96280  36.099  12.657  14.767
27940W        W96281  29.498   3.713   1.858
27941W        W96282   1.474  37.893  12.068
27942W        W96283  34.590   4.367  10.939
27943W        W96284   2.469   7.789   3.254
27944W        W96285  31.445  30.515   4.599
27945W        W96286   8.268   3.711   4.778
27946W        W96287  23.001   1.971  12.542
27947W        W96288  43.859  33.039   2.705
27948W        W96289  20.103   4.255   3.805
27949W        W96290  31.533  11.312   1.697
27950W        W96291  40.019  24.719  12.000
27951W        W96292  19.691  44.010   4.736
27952W        W96293  22.500  36.956   1.860
27953W        W96294   0.454  15.613   2.214
27954W        W96295   4.397  41.792  10.595
27955W        W96296  41.537  33.472  12.974
27956W        W96297   3.250  34.402  10.526
27957W        W96298  18.711  32.084   2.731
27958W        W96299  16.208  24.032   3.751
27959W        W96300  30.941   3.848  13.011
27960W        W96301  25.709   3.745   2.256
27961W        W96302  39.423  41.328   1.370
27962W        W96303  22.238   2.929   3.802
27963W        W96304  27.677  26.590   0.804
27964W        W96305  29.522  11.633  13.515
27965W        W96306  10.380  44.453   0.466
27966W        W96307   2.435  25.015  11.947
27967W        W96308  43.917  35.927  14.916
27968W        W96309  40.497  33.472   3.791
27969W        W96310  26.505  36.083  11.079
27970W        W96311   9.178  28.579   3.785
27971W        W96312  27.569  22.162   4.619
27972W        W96313  30.961  23.999  10.160
27973W        W96314  31.033  26.460  13.861
27974W        W96315  44.400   5.325   1.222
27975W        W96316  22.590  25.163  14.392
27976W        W96317  20.138  24.975  10.904
27977W        W96318   7.774  24.515  11.859
27978W        W96319  41.024   1.917  10.418
27979W        W96320  18.638  28.067   1.321
27980W        W96321  33.975   2.402  11.408
27981W        W96322  30.493  40.526   1.282
27982W        W96323  42.336  23.236   0.310
27983W        W96324   2.925  29.631  14.461
27984W        W96325  11.792   0.921   1.874
27985W        W96326  26.195  28.595  14.938
27986W        W96327  28.568  31.102   1.879
27987W        W96328  32.394  17.747   2.368
27988W        W96329  18.113   8.371  14.769
27989W        W96330  27.664   0.259  13.323
27990W        W96331  38.398  15.767   0.765
27991W        W96332   0.935  25.500  12.000
27992W        W96333   0.748  24.628  11.099
27993W        W96334  29.448  42.332  14.032
27994W        W96335  16.256  19.758   4.608
27995W        W96336  34.557  34.599   0.927
27996W        W96337  20.706  25.652   3.147
27997W        W96338  44.968   0.297  14.864
27998W        W96339  26.181  32.925  12.924
27999W        W96340  21.137  42.315  11.396
28000W        W96341  14.192  26.959  13.973
28001W        W96342   9.732  29.072  12.917
28002W        W96343   6.748   2.471  13.918
28003W        W96344  43.365  33.112   2.335
28004W        W96345   0.893  44.865  11.472
28005W        W96346  33.074  39.059  13.542
28006W        W96347  15.163  40.409  11.975
28007W        W96348  25.979   0.268   0.404
28008W        W96349  21.726   7.398  10.620
28009W        W96350  25.175  28.069   0.904
28010W        W96351  16.667  34.993   9.671
28011W        W96352  16.795  29.967   4.633
28012W        W96353  25.591  14.230   2.401
28013W        W96354   6.806  24.524  14.374
28014W        W96355  15.174   2.874  11.978
28015W        W96356   3.837   0.973  13.820
28016W        W96357  30.152   6.795   0.442
28017W        W96358  35.469  35.565   4.177
28018W        W96359  28.564  32.423   4.280
28019W        W96360  19.698   8.312  12.381
28020W        W96361   1.909  12.292   0.907
28021W        W96362  12.658  36.029   1.298
28022W        W96363  12.773  11.784   1.377
28023W        W96364  27.583  27.142  14.930
28024W        W96365   8.835  11.248  11.901
28025W        W96366  40.971  29.481  12.009
28026W        W96367   5.429   2.296  11.879
28027W        W96368  15.240  44.758  12.909
28028W        W96369   2.928   3.900   4.277
28029W        W96370  40.482  29.431   3.659
28030W        W96371  25.129   7.360  12.828
28031W        W96372  32.483  41.393   0.900
28032W        W96373  24.988  37.059   0.749
28033W        W96374  37.438  38.074   3.224
28034W        W96375  43.996  30.923   2.216
28035W        W96376  22.056  31.907   0.456
28036W        W96377  40.916   2.230   2.215
28037W        W96378  36.530  19.597  12.547
28038W        W96379  20.760   7.350   3.326
28039W        W96380  33.902  22.515   4.676
28040W        W96381  32.925  44.770   3.756
28041W        W96382  28.617   0.356  10.967
28042W        W96383  43.333   1.956   2.308
28043W        W96384  38.475  18.764  11.478
28044W        W96385   5.315   2.412  12.951
28045W        W96386  12.241  15.727   3.739
28046W        W96387   9.780   3.236  14.815
28047W        W96388  21.527  36.005   2.810
28048W        W96389  24.688   5.291  13.838
28049W        W96390  14.687  44.467  10.078
28050W        W96391  40.851  25.577  11.420
28051W        W96392  10.651  17.218  10.971
28052W        W96393   0.292  24.204   0.846
28053W        W96394   7.846  23.026   2.830
28054W        W96395   6.310  22.203   2.781
28055W        W96396   5.929  40.371  14.796
28056W        W96397  15.205  10.713  13.438
28057W        W96398  34.883  25.105   0.265
28058W        W96399  40.367  40.324  13.324
28059W        W96400  11.641   3.925   1.395
28060W        W96401  18.626  39.941  12.031
28061W        W96402  38.349  16.254  13.829
28062W        W96403  22.997  15.768  10.955
28063W        W96404  10.217   8.671   4.785
28064W        W96405  38.348  15.092   3.675
28065W        W96406   6.799  40.548  10.988
28066W        W96407  37.032  31.531  12.092
28067W        W96408  15.251  21.528   1.420
28068W        W96409  41.851  33.531  10.998
28069W        W96410   2.307   2.326  13.548
28070W        W96411   1.859  35.512  10.457
28071W        W96412  14.769  44.940  14.885
28072W        W96413  32.517  27.677   3.204
28073W        W96414   2.857  35.431  13.978
28074W        W96415  12.188  14.724   3.748
28075W        W96416  31.062  44.287  11.938
28076W        W96417  22.740  22.694  12.939
28077W        W96418   9.658  41.959  11.869
28078W        W96419  20.550  15.116   2.867
28079W        W96420  33.994   0.887  13.896
28080W        W96421  38.827  19.749  11.009
28081W        W96422  39.990  41.009   4.802
28082W        W96423  33.081  43.371   0.480
28083W        W96424  13.120  24.698   2.390
28084W        W96425  34.595  29.088   4.281
28085W        W96426   4.423  41.032   0.289
28086W        W96427   3.327  31.471   1.297
28087W        W96428   3.866   7.887  14.409
28088W        W96429  34.502  34.577   3.691
28089W        W96430  22.714  28.585  11.582
28090W        W96431   8.854  13.796  11.517
28091W        W96432  42.785  35.924   1.434
28092W        W96433  14.745  38.434   2.794
28093W        W96434  11.706  25.070   3.837
28094W        W96435   1.442  41.892   0.388
28095W        W96436  30.092  23.109  13.368
28096W        W96437  23.103   2.330   3.799
28097W        W96438  16.125  34.409   2.671
28098W        W96439   9.719  31.131   4.776
28099W        W96440   0.819  13.241   3.747
28100W        W96441  42.846  11.633  12.527
28101W        W96442   2.324  10.167  10.445
28102W        W96443  11.187  41.382   2.759
28103W        W96444  37.563  42.414   2.268
28104W        W96445  11.307  20.650   3.860
28105W        W96446  25.072  28.057  12.367
28106W        W96447  33.088  39.946  13.976
28107W        W96448  30.071  38.513  12.064
28108W        W96449  11.224   3.893   4.761
28109W        W96450  15.264  23.682   1.338
28110W        W96451  16.136   1.370  11.895
28111W        W96452   0.868  31.966   2.708
28112W        W96453  15.648  12.297  14.873
28113W        W96454  28.066  17.699   1.374
28114W        W96455  13.644  30.141   1.702
28115W        W96456  33.005  39.323  13.441
28116W        W96457  27.564  23.111  14.359
28117W        W96458  41.923   7.328  14.912
28118W        W96459   2.332  13.224  11.517
28119W        W96460  23.518  11.247  10.894
28120W        W96461   0.827  33.892  13.523
28121W        W96462  18.727  26.528  11.030
28122W        W96463  21.187  32.061  11.921
28123W        W96464  28.118   2.356   1.736
28124W        W96465  31.928  39.408  12.876
28125W        W96466   6.339  26.662  12.880
28126W        W96467  41.443  20.044  13.533
28127W        W96468  26.078  29.021  13.838
28128W        W96469  42.459  29.993  14.934
28129W        W96470   7.368  13.280   0.871
28130W        W96471   4.728   9.380  13.334
28131W        W96472   8.299   2.810   3.234
28132W        W96473  39.841  26.628  12.547
28133W        W96474  27.156  30.132   2.845
28134W        W96475  26.668   3.862   1.422
28135W        W96476  26.635  42.323   1.757
28136W        W96477  24.723  19.140  12.907
28137W        W96478  42.944  25.580   0.429
28138W        W96479  31.089  15.278   3.803
28139W        W96480   1.755  27.588   0.823
28140W        W96481  15.151  15.738   3.644
28141W        W96482  22.144  32.131  14.407
28142W        W96483  41.301  29.667  10.588
28143W        W96484  18.251  23.506   1.895
28144W        W96485  35.358   6.229  10.430
28145W        W96486  36.035   5.382   2.272
28146W        W96487  13.210  28.480  11.909
28147W        W96488  31.933  41.818  11.913
28148W        W96489  11.231  11.651  13.330
28149W        W96490  16.123   3.224  11.943
28150W        W96491   0.886  31.473   4.229
28151W        W96492  16.194   3.819   3.182
28152W        W96493   8.886   6.856   2.385
28153W        W96494   7.235  40.958   3.360
28154W        W96495  20.709   8.723   2.318
28155W        W96496   4.322  35.989  13.990
28156W        W96497  12.735   3.807  14.299
28157W        W96498   3.828  17.577   4.676
28158W        W96499  32.068  18.108  13.343
28159W        W96500  28.654  34.592   1.709
28160W        W96501  38.454  37.975   3.149
28161W        W96502  30.956  44.376  10.150
28162W        W96503  39.059   5.926  13.970
28163W        W96504   6.209  27.604   2.683
28164W        W96505  11.136  41.879  12.919
28165W        W96506  35.871  10.712   2.785
28166W        W96507  33.456  21.157  11.927
28167W        W96508   2.447  43.840  13.417
28168W        W96509  39.329  15.641  12.956
28169W        W96510  21.140  38.562  12.944
28170W        W96511  22.628   3.876   1.210
28171W        W96512  12.833  23.622  14.771
28172W        W96513  18.070   5.717  13.442
28173W        W96514  15.215  42.310   3.378
28174W        W96515  26.143   6.864  14.498
28175W        W96516  42.368   4.796   3.150
28176W        W96517  12.727   7.821  14.479
28177W        W96518   8.272  38.827   2.898
28178W        W96519  41.459  26.014   4.234
28179W        W96520  19.727  27.456  13.375
28180W        W96521  28.502  12.712   2.290
28181W        W96522  32.091  32.478   0.822
28182W        W96523  19.207   4.789   2.178
28183W        W96524  39.878  10.203   1.930
28184W        W96525  21.643  15.655   1.271
28185W        W96526  26.182  16.074   4.160
28186W        W96527  39.058  41.463  12.830
28187W        W96528  22.160  39.553   1.278
28188W        W96529   3.287  19.120  11.483
28189W        W96530  20.202   9.771   2.750
28190W        W96531  40.907   7.335  14.779
28191W        W96532   5.861  12.322   3.264
28192W        W96533  34.429  34.450   2.261
28193W        W96534  31.897  24.557   2.714
28194W        W96535  35.013  36.429   1.359
28195W        W96536  37.066  35.594  14.511
28196W        W96537  20.685  30.413  13.343
28197W        W96538  24.670  41.888  10.976
28198W        W96539  40.539  32.444   2.806
28199W        W96540  19.098   9.388  11.883
28200W        W96541  19.713  31.125  13.504
28201W        W96542   7.352  32.067  12.476
28202W        W96543   8.841  32.618  10.970
28203W        W96544  26.590  14.599   1.327
28204W        W96545  16.664  32.109  13.922
28205W        W96546  24.590  41.022  14.434
28206W        W96547  10.269  12.648   5.301
28207W        W96548  16.586  30.916   3.857
28208W        W96549   8.784   1.443   1.912
28209W        W96550  39.945  21.029   4.733
28210W        W96551   5.828  18.554   1.717
28211W        W96552  17.711  13.200   3.804
28212W        W96553  28.522   0.266  13.488
28213W        W96554  20.182   0.901  14.905
28214W        W96555  43.429  34.938   2.245
28215W        W96556  24.591  24.979  12.026
28216W        W96557  14.703  32.576   1.380
28217W        W96558   5.854  21.097  11.056
28218W        W96559  35.557  44.873  10.503
28219W        W96560  42.873  17.097  11.498
28220W        W96561   3.830  38.990   0.350
28221W        W96562   9.199   1.367   2.362
28222W        W96563  18.546  29.944  12.505
28223W        W96564  39.322   8.900   0.251
28224W        W96565  23.046  43.839  11.473
28225W        W96566  44.281  41.377  11.491
28226W        W96567  36.422  33.458  11.076
28227W        W96568  11.780  41.980  13.377
28228W        W96569  44.811  25.710   2.869
28229W        W96570  41.293  44.765   0.306
28230W        W96571  18.789  25.061   4.597
28231W        W96572   1.469  44.394  14.925
28232W        W96573  22.565  16.209   0.315
28233W        W96574  43.802  10.772  13.949
28234W        W96575   9.224  39.939  13.519
28235W        W96576  24.555  33.131  13.948
28236W        W96577  29.426  32.078  13.421
28237W        W96578   7.241  29.103   0.479
28238W        W96579  41.849   1.822   3.312
28239W        W96580  40.949  23.989   4.818
28240W        W96581  43.870  33.608  14.454
28241W        W96582  38.891  15.131   3.845
28242W        W96583  42.849  42.341  13.320
28243W        W96584  13.214   1.475  14.339
28244W        W96585  26.679  13.265   1.896
28245W        W96586   3.388  33.424  11.424
28246W        W96587  40.035  19.565   0.924
28247W        W96588  44.974  10.276  14.839
28248W        W96589  29.431  23.542  13.479
28249W        W96590  21.089  15.723  14.441
28250W        W96591  44.479  41.386  12.494
28251W        W96592  34.473  23.189   0.783
28252W        W96593  16.084  35.012   4.691
28253W        W96594  33.571   7.801   3.815
28254W        W96595  36.021  31.537  12.858
28255W        W96596  42.351  20.058  13.320
28256W        W96597  32.949  34.407  12.414
28257W        W96598  42.377  24.621   3.163
28258W        W96599   1.885  12.613   1.788
28259W        W96600  14.223  22.715  13.821
28260W        W96601   3.430  18.789  10.987
28261W        W96602  31.460  12.346  13.002
28262W        W96603  15.596  42.020   2.706
28263W        W96604  40.369  14.766  14.818
28264W        W96605  37.506  23.113   1.885
28265W        W96606  38.430  25.557   2.412
28266W        W96607  33.582  30.025  12.859
28267W        W96608   6.802  36.029  11.003
28268W        W96609  36.005  11.666   2.288
28269W        W96610  14.256  12.784  14.996
28270W        W96611   5.331  18.616   4.825
28271W        W96612   3.943  27.109   2.360
28272W        W96613  44.851   7.177  12.578
28273W        W96614   8.399   5.786   2.410
28274W        W96615   3.904  27.026   4.339
28275W        W96616  15.329  21.067  14.868
28276W        W96617   2.304  30.461   1.411
28277W        W96618   2.792   9.870   1.811
28278W        W96619  41.873  26.514  12.895
28279W        W96620  14.749   4.884   2.780
28280W        W96621  38.849   4.374   4.712
28281W        W96622  27.638  12.122  13.526
28282W        W96623   9.682   9.850  12.438
28283W        W96624  29.983  40.372   3.833
28284W        W96625  26.538  12.698   0.798
28285W        W96626  31.482   2.292  14.863
28286W        W96627  28.490  36.518   4.660
28287W        W96628  42.315  19.182   5.210
28288W        W96629  30.645  35.438   2.273
28289W        W96630   3.322  41.997   4.251
28290W        W96631  28.117  29.965  11.118
28291W        W96632  19.045  16.199   3.223
28292W        W96633  11.339  32.102   3.317
28293W        W96634  29.504  19.711   9.969
28294W        W96635  33.434  24.062   4.324
28295W        W96636  11.701  24.578  10.939
28296W        W96637  43.984  22.039  11.944
28297W        W96638  37.476  13.165   4.762
28298W        W96639  22.692  31.047   3.709
28299W        W96640  42.419  17.633  12.492
28300W        W96641  31.612  25.679  11.570
28301W        W96642  16.721  16.740  11.373
28302W        W96643  38.554  17.110  13.368
28303W        W96644  43.929   1.758   4.695
28304W        W96645   8.659  42.960   0.737
28305W        W96646  44.801  19.560  11.913
28306W        W96647   8.326   5.424  11.947
28307W        W96648   6.785  22.172  11.525
28308W        W96649   7.881  43.829  10.620
28309W        W96650   2.246  13.694  11.034
28310W        W96651  19.712   0.898   2.708
28311W        W96652  36.489   7.814   4.661
28312W        W96653  12.735  17.249  14.505
28313W        W96654  16.633  35.378  14.016
28314W        W96655  17.117  29.453  14.489
28315W        W96656  22.548  40.470   2.213
28316W        W96657  17.555   5.794  11.429
28317W        W96658  36.355   4.890   5.275
28318W        W96659   4.755  20.127  10.614
28319W        W96660  42.304   2.376  12.467
28320W        W96661  19.614  40.053   3.154
28321W        W96662  18.716  41.914   3.727
28322W        W96663   4.271  40.885   4.711
28323W        W96664  16.283  25.693   3.298
28324W        W96665  43.789  24.193  11.549
28325W        W96666  29.618  33.962  13.547
28326W        W96667  12.157   2.308  13.921
28327W        W96668   3.902  12.353  12.371
28328W        W96669  27.004  29.083  14.897
28329W        W96670  23.564  13.691   0.799
28330W        W96671  24.604  36.415   4.780
28331W        W96672  11.722  12.344   0.866
28332W        W96673   7.896  23.602   1.848
28333W        W96674  14.270  19.676   3.250
28334W        W96675  31.912  22.546   1.378
28335W        W96676  16.809   1.430  10.922
28336W        W96677  39.856  43.428   2.342
28337W        W96678   5.366  10.144   9.932
28338W        W96679   9.853  40.543   3.759
28339W        W96680  33.417   8.666   4.316
28340W        W96681  23.214  22.052  13.015
28341W        W96682  38.032  28.617  14.981
28342W        W96683  30.574  36.070   1.332
28343W        W96684  28.048  34.371   4.165
28344W        W96685  33.517  44.262   0.900
28345W        W96686  43.309  26.534  14.921
28346W        W96687  38.532  26.681  12.075
28347W        W96688   2.777  28.567   2.321
28348W        W96689  10.152  17.757  10.489
28349W        W96690  30.538  20.205  14.825
28350W        W96691   7.904  21.025  10.981
28351W        W96692  19.567  10.297  14.896
28352W        W96693  12.332  28.051  11.110
28353W        W96694  40.051  12.173  11.967
28354W        W96695  10.266  16.316   3.787
28355W        W96696  23.658  32.545   1.279
28356W        W96697   5.917  34.410   3.260
28357W        W96698  41.972  26.503   2.823
28358W        W96699   1.874   4.222   0.305
28359W        W96700  40.460  35.456   0.785
28360W        W96701  28.114   3.898  14.885
28361W        W96702   6.741   1.935  10.614
28362W        W96703  18.629   1.303   0.815
28363W        W96704  12.726  30.636   1.375
28364W        W96705  18.564  20.561  12.448
28365W        W96706  35.026  29.122   0.300
28366W        W96707  19.274  24.015  11.885
28367W        W96708  39.824  38.495  11.116
28368W        W96709  42.786  20.638   0.451
28369W        W96710  32.917   2.916   3.838
28370W        W96711  26.037  26.966  14.433
28371W        W96712  11.223  11.252   2.312
28372W        W96713  43.388  20.577  11.401
28373W        W96714   1.299  14.831   0.864
28374W        W96715  32.473  35.360   1.932
28375W        W96716   6.323  27.538  14.874
28376W        W96717   3.783  39.349   3.652
28377W        W96718  35.024   0.295  11.039
28378W        W96719  16.142  26.116  14.806
28379W        W96720  15.641  28.132  11.065
28380W        W96721  13.333  13.828   3.868
28381W        W96722  28.144  33.971   4.820
28382W        W96723  12.298  34.578   0.483
28383W        W96724  39.004  41.989  12.022
28384W        W96725   2.802  12.831   4.315
28385W        W96726  30.981  22.079   0.833
28386W        W96727  19.679  17.637   3.226
28387W        W96728   0.804  39.953   1.917
28388W        W96729   6.202  27.464  10.902
28389W        W96730  38.030  40.500  13.971
28390W        W96731  11.658  31.467   1.212
28391W        W96732  38.382   6.894  12.845
28392W        W96733  11.736  38.944  13.844
28393W        W96734  15.115  14.821   2.767
28394W        W96735  29.947   8.705  10.928
28395W        W96736  35.472  42.009   0.312
28396W        W96737   0.799  23.087  11.502
28397W        W96738  12.341   1.294   2.837
28398W        W96739  18.257   0.973  13.428
28399W        W96740  13.755  42.002   1.217
28400W        W96741   1.936  16.240   5.142
28401W        W96742  36.959   7.727  10.964
28402W        W96743  18.120  37.568  10.900
28403W        W96744  26.607  28.548  14.461
28404W        W96745  28.989  21.743  11.938
28405W        W96746  14.217  13.840   3.326
28406W        W96747  26.951   5.292  14.356
28407W        W96748  27.953  30.523  12.825
28408W        W96749  11.318  39.545   1.784
28409W        W96750  41.390  33.130   3.310
28410W        W96751  37.457  26.000  14.764
28411W        W96752  28.497  11.205  10.495
28412W        W96753  18.658  27.619   2.406
28413W        W96754  43.304  26.008  10.967
28414W        W96755  17.561  25.159   3.694
28415W        W96756   4.864  23.185   1.913
28416W        W96757  34.532  35.412  11.944
28417W        W96758  28.507  40.024  11.403
28418W        W96759  35.021  18.762  14.332
28419W        W96760  16.793   2.959   2.245
28420W        W96761   0.421   1.950  13.423
28421W        W96762  40.819  38.022  13.840
28422W        W96763  34.037   4.242  14.472
28423W        W96764  18.290  34.965   3.867
28424W        W96765  42.455  33.906   1.257
28425W        W96766   2.469   6.776   3.213
28426W        W96767   4.904   6.865  14.805
28427W        W96768  27.536  17.245  13.495
28428W        W96769  41.439  10.872   4.818
28429W        W96770  24.994  10.158   9.965
28430W        W96771  15.297  39.021  12.963
28431W        W96772  29.032  31.142   1.717
28432W        W96773  42.892  12.218   4.636
28433W        W96774  26.496  16.096   3.727
28434W        W96775  10.308  27.072   3.774
28435W        W96776  34.903  11.168  13.854
28436W        W96777  40.925  39.856  10.954
28437W        W96778  34.070  15.692   1.341
28438W        W96779  29.973  10.875   2.666
28439W        W96780  20.054  26.603   1.771
28440W        W96781  11.241  31.608  11.433
28441W        W96782  12.280   2.285   4.223
28442W        W96783  10.236  21.692   0.895
28443W        W96784  24.173  17.270  12.554
28444W        W96785  42.447   8.656  14.973
28445W        W96786  12.614  31.945  11.570
28446W        W96787  38.388  13.147   3.332
28447W        W96788  10.684   0.909   2.269
28448W        W96789   8.843  27.025   0.766
28449W        W96790  11.766  28.164   4.292
28450W        W96791  28.143   9.364   4.218
28451W        W96792  23.603  39.959  11.927
28452W        W96793  14.677  13.133  11.014
28453W        W96794  15.308   8.364   4.715
28454W        W96795  11.820  12.211  12.887
28455W        W96796  33.085  13.214   3.677
28456W        W96797   9.177  15.737  10.447
28457W        W96798  13.743  39.530  11.574
28458W        W96799   5.911  30.118  14.480
28459W        W96800   7.697  40.017   3.829
28460W        W96801  33.388  40.864  14.875
28461W        W96802  15.652  10.835   4.271
28462W        W96803  18.725  16.776  10.628
28463W        W96804  11.356  32.935  13.540
28464W        W96805   2.797  13.739  13.957
28465W        W96806  35.897  28.474  14.444
28466W        W96807  23.582  32.015  14.462
28467W        W96808  40.407  35.560  13.346
28468W        W96809   2.387  15.251   3.699
28469W        W96810   8.789  44.409  13.821
28470W        W96811  18.083  29.454   3.172
28471W        W96812   7.193  16.273   1.432
28472W        W96813   8.805   4.319  10.501
28473W        W96814  31.054  43.847   1.762
28474W        W96815  26.956   0.379   3.734
28475W        W96816  27.513  42.013  13.436
28476W        W96817   7.777  41.811   1.762
28477W        W96818   4.827  34.938  11.073
28478W        W96819   9.651  40.835   2.727
28479W        W96820  40.986   8.661  10.639
28480W        W96821  23.986  16.260  12.443
28481W        W96822   2.903  14.215   4.832
28482W        W96823  16.807  10.382   1.712
28483W        W96824  10.696  42.447   3.651
28484W        W96825  27.043   2.343   3.738
28485W        W96826   8.218  24.027   3.202
28486W        W96827  17.746  27.974   2.215
28487W        W96828  43.270  23.517  13.852
28488W        W96829  32.432  16.653   3.217
28489W        W96830  44.773  25.166  12.477
28490W        W96831  32.603  29.484  13.459
28491W        W96832  33.570  22.634   4.151
28492W        W96833  30.465  30.981  12.343
28493W        W96834   6.819  26.574  11.915
28494W        W96835   7.307  40.900  10.965
28495W        W96836  29.117   5.692   0.802
28496W        W96837  20.585   8.759   1.380
28497W        W96838  38.546  13.213  10.985
28498W        W96839  24.164  17.281   1.212
28499W        W96840  31.471  16.270   2.807
28500W        W96841  33.474  18.296   2.778
28501W        W96842   7.365  11.728   3.227
28502W        W96843  22.999   5.392   1.791
28503W        W96844  30.441  25.712   0.761
28504W        W96845  15.209  36.552  11.489
28505W        W96846  44.337   2.940  10.457
28506W        W96847  25.652  23.584  12.924
28507W        W96848  17.068   5.214  13.324
28508W        W96849  38.971  30.589   2.759
28509W        W96850   5.325  33.434   1.438
28510W        W96851  27.572  19.769  12.376
28511W        W96852   3.802  17.078  11.530
28512W        W96853  43.478  14.720   1.401
28513W        W96854  12.723  23.086   1.707
28514W        W96855  39.357  28.460  14.280
28515W        W96856  40.865  10.326   0.442
28516W        W96857  41.495  16.663  12.417
28517W        W96858   9.316  30.485   4.350
28518W        W96859  10.355  22.075  13.937
28519W        W96860  13.298  15.116   2.197
28520W        W96861  15.783   1.976  11.008
28521W        W96862   7.359  10.735   3.267
28522W        W96863  23.169  22.583   4.606
28523W        W96864  43.392  18.668   3.200
28524W        W96865  23.533  39.543   2.220
28525W        W96866  42.799  30.497  12.512
28526W        W96867  12.695   8.237   2.815
28527W        W96868   3.316  13.660  12.017
28528W        W96869  19.766   5.292   2.674
28529W        W96870   5.292  42.955  13.987
28530W        W96871  26.553  43.475   1.438
28531W        W96872   0.869  33.608   2.343
28532W        W96873  31.963  44.385   1.333
28533W        W96874  29.057  31.091   2.231
28534W        W96875   1.973  31.055  11.488
28535W        W96876  37.036   3.769   4.253
28536W        W96877  18.587  16.706   4.628
28537W        W96878  11.127  26.609   1.779
28538W        W96879  36.532  24.127  12.348
28539W        W96880  33.882   3.800  11.930
28540W        W96881  31.101  13.636   4.706
28541W        W96882  26.145   9.150  14.903
28542W        W96883  31.935  15.136  14.000
28543W        W96884  11.728  15.641  10.613
28544W        W96885   1.298  15.595   3.202
28545W        W96886  40.454   7.774  14.894
28546W        W96887  24.654  40.402   3.680
28547W        W96888   6.751  44.760  11.093
28548W        W96889  12.340  40.923   2.408
28549W        W96890  18.285  44.499   4.128
28550W        W96891  14.291  37.986   3.295
28551W        W96892  43.994  21.055  13.323
28552W        W96893  10.180  34.446   1.907
28553W        W96894  14.691  37.363   0.869
28554W        W96895  28.964  34.439   4.734
28555W        W96896  32.593  29.435   0.351
28556W        W96897  40.049   0.390   2.255
28557W        W96898  10.813  18.708   4.833
28558W        W96899   8.766   1.820   2.765
28559W        W96900   9.826   2.277  12.030
28560W        W96901  27.184  18.110   4.261
28561W        W96902  10.336  44.011   1.707
28562W        W96903  39.385  22.668   4.705
28563W        W96904  10.833  41.363   3.325
28564W        W96905  26.968  30.978   0.345
28565W        W96906  32.491  14.255   4.767
28566W        W96907  19.265  20.241  13.458
28567W        W96908   9.371  27.145   1.213
28568W        W96909  41.307  44.331  11.005
28569W        W96910   4.410  20.160   2.262
28570W        W96911  33.587  24.568  11.883
28571W        W96912  26.584  39.928  13.439
28572W        W96913  34.878   2.739   1.859
28573W        W96914  27.454  41.956  10.633
28574W        W96915  41.400  15.819  11.954
28575W        W96916  29.478  28.123  13.513
28576W        W96917  11.698  26.502   4.180
28577W        W96918  19.220   7.805   1.866
28578W        W96919  25.008  29.430   2.241
28579W        W96920  37.439  25.573   5.290
28580W        W96921  39.976  40.842  13.840
28581W        W96922  43.769   7.812  13.061
28582W        W96923  39.056  44.389  12.363
28583W        W96924  24.725  38.383  12.842
28584W        W96925   7.708  21.046   4.733
28585W        W96926  11.774  33.561   2.857
28586W        W96927  14.124  36.951   3.307
28587W        W96928  28.531  29.448   3.298
28588W        W96929  20.111   3.933   0.838
28589W        W96930   4.747  14.298   0.838
28590W        W96931   0.346  31.609  11.057
28591W        W96932   7.727  24.686   3.837
28592W        W96933  41.451  37.356  10.437
28593W        W96934  44.851  27.619  14.805
28594W        W96935  11.322  41.005  13.954
28595W        W96936   3.938  16.193   2.395
28596W        W96937   9.726  30.553  14.312
28597W        W96938  14.278   9.656   4.608
28598W        W96939  40.007  25.693   0.775
28599W        W96940  16.583  37.022  12.862
28600W        W96941  44.010  16.143  10.549
28601W        W96942  41.031  29.015  14.957
28602W        W96943  14.337  39.035  13.385
28603W        W96944  24.167  31.496   4.195
28604W        W96945   0.430   9.863   4.696
28605W        W96946  28.965  18.730  13.808
28606W        W96947   0.276  21.110  11.068
28607W        W96948  19.619  21.602  13.498
28608W        W96949  42.379   8.790  10.534
28609W        W96950  25.985   7.283  13.807
28610W        W96951  29.439  40.525  13.534
28611W        W96952  25.480  40.537   2.208
28612W        W96953  20.047  13.633   4.231
28613W        W96954   2.376  24.670   3.785
28614W        W96955   9.250   4.251   4.145
28615W        W96956  35.582  29.142  13.919
28616W        W96957   1.315  10.671   3.658
28617W        W96958  35.944   0.484   3.201
28618W        W96959   6.236  14.324  10.602
28619W        W96960  30.910  16.253  11.437
28620W        W96961  29.491  24.723  11.952
28621W        W96962  17.294  37.860   3.264
28622W        W96963   5.733  31.115   2.786
28623W        W96964  18.687  41.457  12.850
28624W        W96965   8.231  22.052   4.273
28625W        W96966  12.677  17.603   4.742
28626W        W96967  34.590  14.807   4.626
28627W        W96968   3.257  13.157  13.449
28628W        W96969   9.849  20.539   2.707
28629W        W96970   2.721  31.908   1.304
28630W        W96971  16.095  26.519  10.889
28631W        W96972  15.617  21.124  10.434
28632W        W96973  32.073  22.707   3.317
28633W        W96974   0.822  10.701  11.387
28634W        W96975  43.338  15.652   4.146
28635W        W96976  36.848  41.865  13.494
28636W        W96977  18.775  18.622  14.402
28637W        W96978  10.241  38.849   4.650
28638W        W96979  31.538  26.664  12.956
28639W        W96980  36.886  23.108  11.546
28640W        W96981  25.102   3.892   0.936
28641W        W96982   8.702  11.214  14.902
28642W        W96983  30.548  17.769   4.837
28643W        W96984  36.561  16.618  14.785
28644W        W96985  30.524  25.972  14.846
28645W        W96986   7.744  23.706  13.830
28646W        W96987   3.823  27.062  11.499
28647W        W96988  40.321  14.302  12.481
28648W        W96989  42.317  10.218  14.942
28649W        W96990  13.735  37.516  12.846
28650W        W96991  37.420  34.965  14.982
28651W        W96992  19.233   4.839   2.781
28652W        W96993   6.304  31.463  11.062
28653W        W96994  29.158   8.224  12.368
28654W        W96995   0.313  10.313  12.383
28655W        W96996   1.963  26.024  12.900
28656W        W96997   9.710  11.289  11.019
28657W        W96998  39.065  18.122  13.933
28658W        W96999  39.906  34.539  13.040
28659W        W97000  15.791  38.014  11.399
28660W        W97001  40.974  39.405   4.817
28661W        W97002  15.582  12.194   3.814
28662W        W97003  40.469  26.556  14.307
28663W        W97004   9.863  32.991   3.386
28664W        W97005  37.935   6.246  11.595
28665W        W97006   4.763  16.281  13.804
28666W        W97007   3.727  36.050   1.803
28667W        W97008  16.281  27.584  14.848
28668W        W97009  10.635  42.345  11.474
28669W        W97010   1.296  10.291   0.342
28670W        W97011  24.045  36.523  13.440
28671W        W97012  23.012  12.845   0.376
28672W        W97013  12.787   4.735   2.369
28673W        W97014  33.120  12.339   1.785
28674W        W97015  14.606  29.048   3.331
28675W        W97016  36.093  22.518   1.402
28676W        W97017  11.368  11.829   3.708
28677W        W97018  31.491  20.688   1.892
28678W        W97019   4.741  36.363  12.969
28679W        W97020  20.553   6.905  12.428
28680W        W97021   5.837   9.815   2.394
28681W        W97022  15.636  27.547   3.702
28682W        W97023  19.717  15.222  11.372
28683W        W97024  19.064  20.742   3.746
28684W        W97025  29.606  34.468  13.494
28685W        W97026   0.405  11.127   0.827
28686W        W97027   7.827  28.130  12.989
28687W        W97028  41.499  41.305  13.937
28688W        W97029   9.878  32.607   4.716
28689W        W97030  10.290  20.688  12.450
28690W        W97031  25.014  30.148  11.021
28691W        W97032  14.698  12.122   3.299
28692W        W97033  36.982  30.919  14.788
28693W        W97034  22.578   5.377  12.047
28694W        W97035  16.808  20.717   0.441
28695W        W97036  38.542  18.713   4.651
28696W        W97037   2.828  13.247   4.238
28697W        W97038   9.212  11.856   1.719
28698W        W97039   1.399   9.227  13.389
28699W        W97040   8.740  28.058  14.827
28700W        W97041   6.219  11.626   3.369
28701W        W97042  15.327  27.995   1.844
28702W        W97043   9.203  18.617   1.747
28703W        W97044  28.562  33.479   4.780
28704W        W97045   2.400  43.785   0.796
28705W        W97046   0.396  36.411   0.402
28706W        W97047  40.427  43.300   0.372
28707W        W97048  22.204   8.226   3.168
28708W        W97049   6.338  28.093   3.185
28709W        W97050  39.376  16.660  13.547
28710W        W97051   9.861  29.544   1.840
28711W        W97052  33.450  11.244   1.849
28712W        W97053  29.027  11.733   1.445
28713W        W97054  30.125  44.303  13.995
28714W        W97055  22.696  12.267   0.404
28715W        W97056  41.849  40.324   1.763
28716W        W97057  25.689  42.341   0.372
28717W        W97058  18.547  13.144  11.472
28718W        W97059  16.260  44.984   2.762
28719W        W97060  10.752  13.346   2.665
28720W        W97061   0.310  19.216   0.964
28721W        W97062   4.700  23.628   2.731
28722W        W97063  22.744  30.085  10.438
28723W        W97064  38.329   3.271   2.354
28724W        W97065  33.479  19.214   4.764
28725W        W97066  38.951   4.943   4.291
28726W        W97067  10.368  25.487   4.210
28727W        W97068  23.599   7.380  11.531
28728W        W97069  16.752  41.326  11.465
28729W        W97070  34.554  21.605   2.881
28730W        W97071  23.996  16.707   1.892
28731W        W97072  25.100  16.172   3.228
28732W        W97073  42.902  42.390   2.813
28733W        W97074  28.515  10.736   4.271
28734W        W97075  38.340   2.457   1.905
28735W        W97076   4.701  23.068   3.720
28736W        W97077  35.009  20.618   0.368
28737W        W97078  13.301  19.692  10.421
28738W        W97079  35.039  29.136  10.514
28739W        W97080  21.606  19.706  10.905
28740W        W97081  35.487   7.704   2.875
28741W        W97082  38.936  14.199   1.909
28742W        W97083  43.971  17.758  10.069
28743W        W97084  36.555  12.745   0.815
28744W        W97085  39.029   4.815   3.336
28745W        W97086  33.114   0.962  11.481
28746W        W97087  39.354  30.037   3.224
28747W        W97088  35.469  12.691   0.821
28748W        W97089  34.093  26.059   2.849
28749W        W97090  26.671  42.003   0.951
28750W        W97091  24.140   8.320   1.258
28751W        W97092  44.395  23.662   1.802
28752W        W97093   7.670  29.635  12.967
28753W        W97094  26.631  36.075  10.478
28754W        W97095  31.597  36.469  12.025
28755W        W97096   3.446   0.862  14.279
28756W        W97097  34.525   8.739   3.261
28757W        W97098  29.499  44.266   2.779
28758W        W97099  38.892  30.924  14.326
28759W        W97100  28.493   0.953  11.432
28760W        W97101  29.461  21.054  14.440
28761W        W97102  44.862  16.638   4.752
28762W        W97103  37.496  30.425  12.043
28763W        W97104   0.357  28.178   1.850
28764W        W97105  13.304   0.841   3.157
28765W        W97106   4.442  37.404  11.427
28766W        W97107  27.492   7.301   2.699
28767W        W97108  10.797  32.422  13.922
28768W        W97109   9.319  37.462  13.484
28769W        W97110   2.959   2.944  13.838
28770W        W97111  31.145  31.491   2.793
28771W        W97112  44.290  23.702   4.257
28772W        W97113  17.074  15.156   2.807
28773W        W97114   5.906   6.195   3.823
28774W        W97115  26.148  43.300  11.515
28775W        W97116  33.945  36.945   4.343
28776W        W97117  36.041   3.241   2.346
28777W        W97118  41.534  23.706   2.808
28778W        W97119   8.857  44.482  11.525
28779W        W97120  16.648   3.404   4.763
28780W        W97121  22.060  39.436  14.309
28781W        W97122   3.266  44.438  10.552
28782W        W97123  16.725   7.761  11.861
28783W        W97124  17.269  32.998  12.986
28784W        W97125  13.738   4.434  13.946
28785W        W97126  12.657   9.835   2.347
28786W        W97127  11.298   8.809   3.794
28787W        W97128   2.792  43.954   0.424
28788W        W97129  24.100  27.019   4.647
28789W        W97130   9.759   5.854   2.848
28790W        W97131  40.466  14.594   2.308
28791W        W97132  38.498  32.513   0.954
28792W        W97133  14.774   9.818  14.443
28793W        W97134  34.380  32.464  11.415
28794W        W97135  40.021  36.091  12.522
28795W        W97136   0.379  24.051   0.481
28796W        W97137   4.880   5.221  10.555
28797W        W97138   3.738  42.519  11.081
28798W        W97139   6.194  17.231   2.388
28799W        W97140   6.381   6.339   2.319
28800W        W97141  34.969   8.384  12.988
28801W        W97142   8.198   7.354  10.615
28802W        W97143   6.342  32.554   3.308
28803W        W97144  15.198  35.914  13.312
28804W        W97145  24.152  25.535  11.022
28805W        W97146   9.664  37.932  12.485
28806W        W97147  23.069  25.033   3.747
28807W        W97148  12.299  32.964   1.239
28808W        W97149  29.107  10.819  14.498
28809W        W97150  30.641   6.882  13.449
28810W        W97151  21.540  32.516  13.981
28811W        W97152  18.691  36.084   4.266
28812W        W97153   3.283   7.362   2.713
28813W        W97154  16.654  23.524  14.790
28814W        W97155   5.889  24.605   1.700
28815W        W97156  12.690   7.862   0.382
28816W        W97157  19.760  13.170  14.305
28817W        W97158  23.570  24.710   2.313
28818W        W97159  38.481   9.648  13.381
28819W        W97160   1.958  16.301   1.792
28820W        W97161  42.791  28.015  12.055
28821W        W97162  39.440   4.795   2.293
28822W        W97163  42.790  39.364  14.410
28823W        W97164  44.362  10.142   2.232
28824W        W97165  25.067   2.836  13.823
28825W        W97166  17.728   6.701   3.865
28826W        W97167   1.778  41.987  10.478
28827W        W97168  38.015  36.436  14.401
28828W        W97169  32.027  18.141  10.135
28829W        W97170  41.827  30.129   0.455
28830W        W97171  36.527  29.936   0.442
28831W        W97172  25.685  42.782   4.703
28832W        W97173  25.606  15.266  14.433
28833W        W97174  14.673   6.869   2.338
28834W        W97175  27.556  36.026  13.538
28835W        W97176  12.852   4.728   0.802
28836W        W97177  34.571  14.759   4.292
28837W        W97178   0.325  41.358  12.986
28838W        W97179   4.838  26.181  10.921
28839W        W97180  30.946  21.755   3.667
28840W        W97181  33.887  13.763   1.267
28841W        W97182   5.312  39.490  14.435
28842W        W97183  42.522   1.421   2.859
28843W        W97184   8.295  33.575   0.449
28844W        W97185  39.443  27.548  10.512
28845W        W97186  21.181  38.852   4.345
28846W        W97187  18.610  22.052  13.008
28847W        W97188  36.358   8.886   2.828
28848W        W97189   8.886  38.951   0.379
28849W        W97190  11.206   0.859   2.214
28850W        W97191  26.688  38.838  13.923
28851W        W97192  39.513  15.766  13.874
28852W        W97193  12.209   8.203  10.997
28853W        W97194  31.541  43.373   3.702
28854W        W97195  23.071  24.699   2.248
28855W        W97196  12.119  29.655   0.962
28856W        W97197  41.028  39.401  12.927
28857W        W97198  29.464  14.131  11.375
28858W        W97199  23.195  20.724  13.856
28859W        W97200  43.924  38.442   1.856
28860W        W97201  30.591  28.082   1.212
28861W        W97202  13.345  13.668   1.333
28862W        W97203   3.754  22.099   3.219
28863W        W97204  40.440  36.352   0.951
28864W        W97205   0.349  37.487  13.406
28865W        W97206  12.134  14.820  14.278
28866W        W97207   4.726  15.165  10.924
28867W        W97208  17.270  33.431  12.524
28868W        W97209  33.591  35.456  12.351
28869W        W97210  25.000  13.311  14.438
28870W        W97211  31.521  33.085  14.436
28871W        W97212   2.241  31.515  14.378
28872W        W97213  14.660  15.183  11.429
28873W        W97214  43.895  22.677  10.922
28874W        W97215  30.043  24.145  13.868
28875W        W97216  44.957   5.759   3.205
28876W        W97217  12.341  27.456   2.296
28877W        W97218  39.411  10.785   2.260
28878W        W97219   0.981  20.633  10.569
28879W        W97220  17.170   8.822   3.179
28880W        W97221  37.002  10.762   2.390
28881W        W97222  36.849  42.305   4.597
28882W        W97223  18.783   9.230  11.604
28883W        W97224  43.003   9.750   4.205
28884W        W97225  26.148   9.197   0.806
28885W        W97226  32.002  44.754   1.797
28886W        W97227  34.422  13.699  13.392
28887W        W97228   1.773   8.297  11.978
28888W        W97229   5.720  24.221   4.742
28889W        W97230  11.308  24.068   0.293
28890W        W97231  44.265  44.293  10.964
28891W        W97232  10.645  12.304   2.846
28892W        W97233  28.074  16.307  14.023
28893W        W97234  23.218  27.486   1.353
28894W        W97235  23.140  17.084   2.243
28895W        W97236  16.263   6.829   4.708
28896W        W97237  24.145  34.063   1.416
28897W        W97238  33.492  33.609   0.439
28898W        W97239  30.527   0.839   1.263
28899W        W97240  44.478   9.315   4.776
28900W        W97241  21.205  13.144  11.517
28901W        W97242  25.171  27.052   0.937
28902W        W97243  35.400   8.247  14.876
28903W        W97244  31.951  17.224  12.989
28904W        W97245  26.609  26.012   9.966
28905W        W97246  16.205  26.655   2.833
28906W        W97247  22.674  20.650  11.883
28907W        W97248  17.770   6.711   4.311
28908W        W97249  41.318   6.382  12.011
28909W        W97250  41.519  24.689  12.458
28910W        W97251   5.324  14.180   1.383
28911W        W97252   9.774  17.600   2.303
28912W        W97253  34.047  37.840   4.725
28913W        W97254  22.516  42.904  13.977
28914W        W97255   5.851   2.811  12.987
28915W        W97256   5.320  19.778  13.970
28916W        W97257  11.774  35.889   0.750
28917W        W97258  35.057  28.141  11.549
28918W        W97259  44.335   1.413   2.855
28919W        W97260  44.403   5.421   1.790
28920W        W97261  16.108  37.932   1.418
28921W        W97262  29.470  29.949  10.506
28922W        W97263  15.155  38.962   3.226
28923W        W97264  20.643  39.398  13.385
28924W        W97265  31.953  18.289  13.923
28925W        W97266  36.578  41.907   0.775
28926W        W97267  16.075  43.515   2.810
28927W        W97268  15.193  43.447   3.806
28928W        W97269  38.411  28.996  11.963
28929W        W97270   1.243  36.590   2.278
28930W        W97271  40.396  15.684   1.373
28931W        W97272  16.588  43.832   1.228
28932W        W97273   0.850  38.895  14.834
28933W        W97274   9.848  17.271  14.777
28934W        W97275  29.464   4.855   5.106
28935W        W97276  38.019  28.024  13.417
28936W        W97277  17.091  21.126   3.198
28937W        W97278  23.496   2.930  11.462
28938W        W97279   7.874  28.969  10.448
28939W        W97280   9.792  28.129   0.289
28940W        W97281   8.187  42.418   3.681
28941W        W97282   0.909  40.019  12.833
28942W        W97283  15.092   1.805  10.895
28943W        W97284  21.526  34.984   2.230
28944W        W97285  29.928  19.230  14.961
28945W        W97286   3.429  26.057   2.388
28946W        W97287  19.558  38.070  12.943
28947W        W97288  24.576  29.530   0.289
28948W        W97289  27.082  28.150  10.465
28949W        W97290  17.715  30.915   3.248
28950W        W97291  37.580  37.448   1.397
28951W        W97292  17.061  21.136   4.738
28952W        W97293  22.251   1.483  13.916
28953W        W97294   7.403  33.059  12.886
28954W        W97295  21.207  32.137   4.667
28955W        W97296  26.668   8.351   3.292
28956W        W97297  38.018  44.295   1.406
28957W        W97298  34.575  11.283   1.875
28958W        W97299  42.316  10.327   3.647
28959W        W97300   0.829   9.225  10.994
28960W        W97301  15.148  24.157   0.408
28961W        W97302  43.487  29.622   2.830
28962W        W97303  23.997  28.469  12.466
28963W        W97304  42.453  15.170   0.855
28964W        W97305   5.321  33.050  11.574
28965W        W97306  26.478   5.340   4.323
28966W        W97307  24.026   5.422  13.310
28967W        W97308   0.367   9.710  12.898
28968W        W97309  10.727  40.549  13.030
28969W        W97310  17.794  43.357  13.530
28970W        W97311  36.847  17.225   1.283
28971W        W97312  30.088   3.315  13.455
28972W        W97313  33.107   2.312   0.332
28973W        W97314   9.319   1.270  11.111
28974W        W97315  40.543  16.235   0.302
28975W        W97316  26.149  33.588  13.363
28976W        W97317  32.516  18.211   0.824
28977W        W97318   8.785  23.181  12.949
28978W        W97319  38.835   0.416  10.100
28979W        W97320  18.710  35.382   3.765
28980W        W97321  12.841  12.303  11.612
28981W        W97322  20.707  20.585  12.442
28982W        W97323  32.053  36.030  12.370
28983W        W97324   7.841  16.588   1.918
28984W        W97325  16.229  26.146   3.227
28985W        W97326  31.975   1.398  12.021
28986W        W97327  34.032   2.416   2.817
28987W        W97328  39.372  11.189  12.043
28988W        W97329  31.605   2.405   0.404
28989W        W97330  10.696   4.733  12.047
28990W        W97331   5.279  40.509   1.786
28991W        W97332  22.160  39.838   4.253
28992W        W97333  20.180  11.663   0.283
28993W        W97334  43.295  32.441  12.444
28994W        W97335   3.453  14.202  12.879
28995W        W97336  18.289  15.103   1.361
28996W        W97337  16.722  30.959   3.225
28997W        W97338  37.371  42.880  14.302
28998W        W97339  17.690   5.415   1.902
28999W        W97340  17.168  17.698   4.640
29000W        W97341  37.881  15.237  10.476
29001W        W97342  22.561  22.634  14.344
29002W        W97343  40.931   1.844   1.216
29003W        W97344  43.977  18.166   5.302
29004W        W97345   5.736  39.428  11.997
29005W        W97346  38.966  32.451   0.953
29006W        W97347  44.763  14.641  10.608
29007W        W97348  13.180  37.472   0.738
29008W        W97349   8.182   9.271   4.232
29009W        W97350  22.070  20.572   3.347
29010W        W97351  20.617  36.016  12.347
29011W        W97352   0.987  15.285  10.564
29012W        W97353   3.459  37.902   4.291
29013W        W97354  21.044   2.341  11.465
29014W        W97355   5.902  20.567   4.249
29015W        W97356  20.665  18.151   3.633
29016W        W97357  32.421  13.669   4.795
29017W        W97358  29.474  25.653   2.368
29018W        W97359   7.708  39.944   4.688
29019W        W97360  22.678  31.922  10.532
29020W        W97361  25.468   9.365   0.249
29021W        W97362  31.552  31.441  10.619
29022W        W97363  10.212  43.771  13.881
29023W        W97364  28.937  18.219   3.859
29024W        W97365  31.525  44.490  12.934
29025W        W97366  15.161  38.336  11.037
29026W        W97367  10.382   3.796   1.342
29027W        W97368  13.701  33.927  12.039
29028W        W97369   2.345   7.893  14.315
29029W        W97370   1.431  37.374  13.987
29030W        W97371  31.112  38.359   1.373
29031W        W97372  43.972   3.790   2.252
29032W        W97373   1.273  36.429   4.831
29033W        W97374  14.328  25.673   0.892
29034W        W97375  31.014   5.774  11.439
29035W        W97376  31.057  10.829   4.621
29036W        W97377  34.571  20.049  12.011
29037W        W97378  35.550  31.971   5.306
29038W        W97379  13.680   5.697   3.846
29039W        W97380  38.018  21.053  10.982
29040W        W97381   7.231  23.636   2.677
29041W        W97382   8.223  44.435  11.406
29042W        W97383  28.529  25.012  11.459
29043W        W97384  18.137   0.886  10.470
29044W        W97385  41.359  25.208   3.681
29045W        W97386  32.047  28.936   0.734
29046W        W97387  31.151  14.223  10.568
29047W        W97388   6.878  41.537   0.341
29048W        W97389  25.025  38.850  14.024
29049W        W97390  34.546   0.811   2.403
29050W        W97391  19.568  39.821   2.756
29051W        W97392  16.566  21.108  10.105
29052W        W97393   0.971  11.794  13.014
29053W        W97394  15.627  22.715   1.388
29054W        W97395  39.439   0.385   1.810
29055W        W97396  15.172  20.670   3.682
29056W        W97397  26.203  18.596   4.781
29057W        W97398  18.664  41.498   2.673
29058W        W97399  40.328  34.417  13.490
29059W        W97400   7.902   7.803  14.284
29060W        W97401  32.982  20.040   4.756
29061W        W97402  10.685   3.956  13.886
29062W        W97403  21.609  32.947  14.967
29063W        W97404  19.699  24.514   0.905
29064W        W97405  21.221  23.734  14.290
29065W        W97406  20.621  27.966  11.520
29066W        W97407  43.962  38.832   2.243
29067W        W97408   1.352  38.370  11.912
29068W        W97409   8.835   6.813  12.962
29069W        W97410  14.635  22.612  13.524
29070W        W97411  27.043  30.640   2.689
29071W        W97412  42.812  42.414   1.810
29072W        W97413  30.455  10.857   1.834
29073W        W97414   0.425  43.395   3.687
29074W        W97415  39.548  15.260   0.415
29075W        W97416   9.826  19.700  14.891
29076W        W97417  23.676  14.238  11.006
29077W        W97418  34.007  14.302  14.911
29078W        W97419  23.642  13.132   2.282
29079W        W97420  30.598  35.375   2.836
29080W        W97421  32.981   1.252   0.809
29081W        W97422  21.256  41.874  13.460
29082W        W97423   1.381  30.598   2.689
29083W        W97424  30.994  10.160  12.406
29084W        W97425  30.065   2.306  14.814
29085W        W97426  21.103  35.070  11.996
29086W        W97427  24.720   2.368  10.459
29087W        W97428  29.449  21.118   2.835
29088W        W97429  12.127  12.628   2.355
29089W        W97430  19.740  12.327  13.367
29090W        W97431  38.562   0.343   3.672
29091W        W97432  42.444  21.030  12.892
29092W        W97433  22.709  44.380  14.460
29093W        W97434   2.937  18.122   0.776
29094W        W97435   1.434  38.066  10.987
29095W        W97436  15.775  24.677  10.607
29096W        W97437  37.390  40.986   0.856
29097W        W97438   0.468   8.232  10.563
29098W        W97439  28.007  15.719   2.201
29099W        W97440  33.446   7.881   5.177
29100W        W97441   7.304   8.812   3.855
29101W        W97442  42.499  29.586   4.263
29102W        W97443  30.144   6.255  13.328
29103W        W97444   7.829  22.069  14.301
29104W        W97445   9.263  44.970  12.838
29105W        W97446  20.071  41.946   4.124
29106W        W97447  24.513  32.455  11.587
29107W        W97448  21.743  18.679  13.041
29108W        W97449   8.230  19.200  12.017
29109W        W97450  17.102  15.802  12.548
29110W        W97451   4.269  12.137   0.768
29111W        W97452  41.923  30.521  10.137
29112W        W97453  33.127  37.501   3.770
29113W        W97454  23.632  33.957  13.331
29114W        W97455   3.297  34.899  13.501
29115W        W97456  13.280  18.257  11.475
29116W        W97457  28.555  19.258   1.433
29117W        W97458   8.665   6.760   2.827
29118W        W97459  34.885  20.173  10.559
29119W        W97460  29.026  34.559  12.551
29120W        W97461   8.826  33.430   1.396
29121W        W97462  14.733  26.581   1.370
29122W        W97463  12.245  28.556   2.342
29123W        W97464  29.532  28.125  12.342
29124W        W97465   1.419  32.598   0.822
29125W        W97466  18.115   6.741  14.865
29126W        W97467  28.123  27.521  14.966
29127W        W97468  23.641  14.253   3.849
29128W        W97469   1.895  16.291  11.458
29129W        W97470  38.022  22.597   0.383
29130W        W97471   8.294   3.424  11.034
29131W        W97472   1.287  10.280  12.494
29132W        W97473  37.004   9.841   3.770
29133W        W97474  33.521  13.134   3.171
29134W        W97475  37.966  14.290   1.738
29135W        W97476  10.726  35.045   4.825
29136W        W97477   6.230  17.199   0.273
29137W        W97478  30.971  10.148   3.699
29138W        W97479  18.140  31.645   1.264
29139W        W97480  32.514  39.957  11.860
29140W        W97481  12.229  36.097  10.537
29141W        W97482  37.535   4.407  12.491
29142W        W97483  35.022  11.689  11.377
29143W        W97484  33.562  12.233  14.900
29144W        W97485  40.531  34.590   5.160
29145W        W97486  42.964  32.938   2.765
29146W        W97487   5.427  39.920   4.305
29147W        W97488  32.477  27.586   0.363
29148W        W97489   2.831  24.628   2.759
29149W        W97490  14.823  18.175  12.001
29150W        W97491  35.107  21.755   2.340
29151W        W97492   6.812  40.971  12.972
29152W        W97493  36.955   7.201   1.829
29153W        W97494  27.102   9.279   0.894
29154W        W97495  44.483  26.641   4.782
29155W        W97496   9.320  17.218   1.892
29156W        W97497  37.848   2.804   1.335
29157W        W97498  13.840  33.394  12.527
29158W        W97499  43.396  19.200  14.417
29159W        W97500  33.941  19.764   1.925
29160W        W97501  16.636  26.672  11.040
29161W        W97502   9.201  22.019   0.739
29162W        W97503  29.476  24.076   0.326
29163W        W97504  17.142  13.789   2.196
29164W        W97505  35.576  23.185   4.243
29165W        W97506  17.715  44.005   3.795
29166W        W97507  39.846  43.849   5.208
29167W        W97508  33.511  27.621  11.463
29168W        W97509  37.061  34.919  14.506
29169W        W97510  22.738  33.038   1.228
29170W        W97511  38.845   6.339  12.040
29171W        W97512  44.981  11.252  11.517
29172W        W97513  20.078  21.575  10.591
29173W        W97514   4.935  37.511   0.322
29174W        W97515  27.678   3.741  11.001
29175W        W97516  25.991  13.336   1.775
29176W        W97517  41.828  30.074   3.799
29177W        W97518  14.733  11.786  14.841
29178W        W97519   2.312  42.906  14.445
29179W        W97520  24.051  11.747   4.343
29180W        W97521   8.367  14.259   3.155
29181W        W97522   8.353  16.275   3.371
29182W        W97523  38.340  33.130  12.922
29183W        W97524  33.108   0.951   2.743
29184W        W97525  28.111   9.320  12.063
29185W        W97526  31.414  35.363   0.909
29186W        W97527  26.124  24.025  11.463
29187W        W97528  37.916  16.748  13.431
29188W        W97529  19.641  11.201   0.406
29189W        W97530  28.057   9.301   0.433
29190W        W97531  21.216  28.029   3.286
29191W        W97532  24.010  11.319   3.312
29192W        W97533  35.405  24.120  12.838
29193W        W97534  17.274   3.425  13.016
29194W        W97535   0.769  32.901  14.479
29195W        W97536  37.569   9.836  14.861
29196W        W97537   9.259  37.964   0.284
29197W        W97538  35.036   1.382   4.760
29198W        W97539  14.705  23.596   3.737
29199W        W97540   2.857  12.306  13.930
29200W        W97541  22.207  16.102  12.351
29201W        W97542  21.079  14.307  11.861
29202W        W97543  39.502  36.879  10.994
29203W        W97544  27.690  42.326  14.804
29204W        W97545  25.009   0.984  14.415
29205W        W97546  31.024  44.482  10.903
29206W        W97547  18.548   1.928  13.336
29207W        W97548  16.189   0.913  11.475
29208W        W97549  41.483  35.592   1.886
29209W        W97550  44.890  14.279   4.650
29210W        W97551   1.354  27.564   4.321
29211W        W97552   9.320  22.048  11.883
29212W        W97553  33.587  24.083   2.687
29213W        W97554  37.031  29.023  12.976
29214W        W97555   6.218  15.323   2.311
29215W        W97556  19.650  25.203   2.364
29216W        W97557  20.069  13.815  11.389
29217W        W97558  23.003  27.101  13.928
29218W        W97559  43.305  10.176   3.702
29219W        W97560  31.502  34.898  14.844
29220W        W97561  36.533   9.287   4.320
29221W        W97562  30.461  15.718  11.932
29222W        W97563  30.017  20.529  11.421
29223W        W97564   5.810  44.346   2.681
29224W        W97565  31.008  17.748  13.794
29225W        W97566  28.438   2.873  11.491
29226W        W97567   7.376  31.635   0.768
29227W        W97568   4.267  24.637   1.910
29228W        W97569  27.131   9.738   4.249
29229W        W97570  35.394  27.477  10.600
29230W        W97571  11.179  17.703  11.951
29231W        W97572   7.222  23.100   4.327
29232W        W97573  28.030  14.270   3.317
29233W        W97574  27.103  38.564   3.716
29234W        W97575  29.077  33.586   2.295
29235W        W97576  22.122   2.252   3.355
29236W        W97577  24.513   0.976   3.770
29237W        W97578  36.064  21.607   2.404
29238W        W97579   2.877   7.679   4.606
29239W        W97580  10.646   4.837  13.947
29240W        W97581  35.859  17.557  14.477
29241W        W97582   5.848  23.234  11.588
29242W        W97583  27.626  13.212  10.493
29243W        W97584  15.156  15.679   0.471
29244W        W97585  44.786  33.118  14.985
29245W        W97586  10.275  14.666  12.992
29246W        W97587   7.717  31.494  13.044
29247W        W97588  23.510  40.489   2.369
29248W        W97589  35.107   3.742   0.340
29249W        W97590   4.903  42.796   9.976
29250W        W97591  44.450  40.303  13.406
29251W        W97592  35.478  36.858   3.670
29252W        W97593  16.099   0.935  13.923
29253W        W97594   0.256  31.004   2.370
29254W        W97595  24.000  29.999   2.187
29255W        W97596  25.658  33.916   1.822
29256W        W97597  20.051  38.551  13.006
29257W        W97598  41.296  23.079  11.435
29258W        W97599  34.488  31.075   3.169
29259W        W97600  40.831  15.274  14.847
29260W        W97601   5.420  28.655   0.380
29261W        W97602  39.517  16.739  14.955
29262W        W97603  27.601  33.906  10.625
29263W        W97604  35.013  18.102   2.857
29264W        W97605   1.266   8.898   4.301
29265W        W97606  37.496  25.214   2.309
29266W        W97607  22.026  39.035   0.904
29267W        W97608  37.365  19.263  12.055
29268W        W97609  24.626   4.797  14.399
29269W        W97610  31.535  16.206  14.469
29270W        W97611   9.207  29.137   1.300
29271W        W97612  13.111   8.665   4.233
29272W        W97613  20.759  38.402  10.511
29273W        W97614  32.428  31.944   1.712
29274W        W97615   9.151  30.950   3.280
29275W        W97616   3.756   2.340  12.407
29276W        W97617  42.966   9.708  11.399
29277W        W97618  23.159  15.262   3.366
29278W        W97619  40.802  28.932  13.886
29279W        W97620  28.106   2.356   2.783
29280W        W97621  19.566  40.929   1.765
29281W        W97622  34.403  27.173   3.867
29282W        W97623  22.522  36.855   4.346
29283W        W97624  23.985  37.843  14.353
29284W        W97625  30.602   0.886  14.341
29285W        W97626  12.842  23.637   1.906
29286W        W97627   4.410  34.024   3.809
29287W        W97628  34.111  41.887  13.439
29288W        W97629  13.191  41.356   0.419
29289W        W97630  17.249  12.816   3.652
29290W        W97631  20.269  29.631   4.705
29291W        W97632  42.298   2.783   4.727
29292W        W97633  40.459  16.684   2.271
29293W        W97634  19.175  22.586  11.417
29294W        W97635   5.200  25.597   0.965
29295W        W97636   1.854  36.361  13.023
29296W        W97637  44.273  33.009   0.417
29297W        W97638  10.353  34.929  13.487
29298W        W97639  37.514  31.461  14.365
29299W        W97640  28.494  38.485  13.994
29300W        W97641  12.247   6.907   3.267
29301W        W97642  26.521  20.654   2.333
29302W        W97643  23.233   0.268   1.914
29303W        W97644  34.923  37.867  11.547
29304W        W97645  22.588  10.665  12.052
29305W        W97646  28.939  17.584  13.472
29306W        W97647  24.205  21.257  14.871
29307W        W97648   6.760  11.692   2.178
29308W        W97649  16.296  28.180  12.367
29309W        W97650  42.904   2.395  11.449
29310W        W97651   0.970  23.593   2.272
29311W        W97652  22.101   0.955  11.994
29312W        W97653  11.196   7.201  14.383
29313W        W97654  10.750  15.231   1.880
29314W        W97655  37.006  21.740   2.232
29315W        W97656  24.161  43.325   2.849
29316W        W97657  21.630  43.920  11.993
29317W        W97658  23.203  10.764   0.860
29318W        W97659  17.085  44.754  11.862
29319W        W97660  39.501   3.936  13.929
29320W        W97661  24.523  16.311   4.671
29321W        W97662  43.816  24.155  11.999
29322W        W97663  19.645  11.847  12.403
29323W        W97664   5.822   5.427   2.205
29324W        W97665  24.031  25.007   0.251
29325W        W97666  31.014   8.838  11.127
29326W        W97667  26.091   8.246   2.306
29327W        W97668  23.114  22.136   3.378
29328W        W97669  17.161  18.252   4.630
29329W        W97670  24.609  10.704   4.724
29330W        W97671  25.038  21.123   2.287
29331W        W97672  34.489  36.491  10.934
29332W        W97673  24.049   0.954  10.080
29333W        W97674  23.234   8.849   1.410
29334W        W97675  18.697  25.535  11.083
29335W        W97676  21.056  26.607  13.018
29336W        W97677  13.289  32.556  13.852
29337W        W97678  25.551  14.674   1.831
29338W        W97679  15.632  31.477  13.535
29339W        W97680  14.207   0.295   0.424
29340W        W97681  17.784  15.191   1.778
29341W        W97682  44.998   3.843   3.208
29342W        W97683  40.989   2.339  10.492
29343W        W97684  30.012  37.507  12.408
29344W        W97685  42.801  11.797   2.207
29345W        W97686  41.798  40.528   3.783
29346W        W97687   0.823   5.354  13.946
29347W        W97688  35.532   8.759  13.514
29348W        W97689  44.862  11.287  10.419
29349W        W97690  16.699  35.978  12.059
29350W        W97691  30.650  11.304  14.482
29351W        W97692  41.867  34.009  13.351
29352W        W97693  44.934  19.680  11.458
29353W        W97694   0.262  42.364  13.876
29354W        W97695  10.330  44.421   4.703
29355W        W97696   4.224  36.556  13.499
29356W        W97697  29.987   0.807   2.746
29357W        W97698  11.849   0.443   4.296
29358W        W97699   7.874   2.847  11.392
29359W        W97700  16.282  26.680  10.094
29360W        W97701   9.725   1.860  11.104
29361W        W97702  10.663  32.981  11.003
29362W        W97703  13.755  21.031  12.370
29363W        W97704  34.962  39.856   1.917
29364W        W97705  15.722  31.049  11.943
29365W        W97706  32.430  36.937  13.008
29366W        W97707   3.839   5.415   1.281
29367W        W97708  43.809  37.568   2.333
29368W        W97709  30.149  25.633   4.661
29369W        W97710  10.836  34.872  13.352
29370W        W97711  36.491  33.072  14.836
29371W        W97712  20.032  24.066   5.166
29372W        W97713  12.828  37.438  13.442
29373W        W97714  41.406  37.962   4.257
29374W        W97715  30.004  31.621   3.734
29375W        W97716  32.075  38.522   1.906
29376W        W97717  10.788  33.025   2.320
29377W        W97718  19.088  19.590  11.373
29378W        W97719  30.008  22.098  12.362
29379W        W97720  27.158  11.193  14.387
29380W        W97721   1.913  26.534  11.574
29381W        W97722  21.747  39.830   3.834
29382W        W97723  11.276   5.378  13.895
29383W        W97724  44.418  21.178   3.264
29384W        W97725  31.105  12.228  14.017
29385W        W97726  15.269   5.245   2.401
29386W        W97727   0.970  36.978  14.792
29387W        W97728  18.241   1.286  14.286
29388W        W97729  11.304   2.770   0.319
29389W        W97730  11.236  27.169   2.207
29390W        W97731  23.555  28.155   0.818
29391W        W97732  30.916  12.626  11.032
29392W        W97733  44.421   2.299   1.305
29393W        W97734  41.994  20.716   2.860
29394W        W97735  35.473  44.496   0.398
29395W        W97736  35.032  38.555  11.422
29396W        W97737   6.402  15.709   3.224
29397W        W97738  15.751  19.668  11.460
29398W        W97739  40.996  26.622   0.853
29399W        W97740   7.179  32.502   1.869
29400W        W97741  28.094  26.588   2.862
29401W        W97742   6.732  20.526   0.380
29402W        W97743  35.875  29.985  12.559
29403W        W97744  44.963   0.450  10.621
29404W        W97745  30.026  37.370   0.430
29405W        W97746  12.287  27.640  10.955
29406W        W97747  24.038  29.472   0.270
29407W        W97748  20.755  22.037  12.397
29408W        W97749  44.910  14.667  12.051
29409W        W97750  23.202  15.629   2.685
29410W        W97751  44.995  23.670   3.836
29411W        W97752  12.649  42.835  10.624
29412W        W97753  21.591  13.134   4.790
29413W        W97754  43.279  32.596   4.326
29414W        W97755   4.318   8.854  11.902
29415W        W97756  42.969  16.290  11.568
29416W        W97757  31.478   3.952  12.411
29417W        W97758  38.831   7.887  10.542
29418W        W97759  20.126  16.107  13.872
29419W        W97760   2.745  27.119   0.328
29420W        W97761   0.381  32.010   3.348
29421W        W97762  13.203   7.702   2.752
29422W        W97763  18.629  26.475   4.640
29423W        W97764  39.510  32.439  12.372
29424W        W97765  36.486  13.194  15.000
29425W        W97766  33.918   9.170  10.418
29426W        W97767  21.695   1.346   4.721
29427W        W97768  12.693  14.763   3.767
29428W        W97769  41.829  36.930   4.654
29429W        W97770  23.137   6.188  11.519
29430W        W97771  26.185   3.408   1.906
29431W        W97772  29.106   6.922  14.355
29432W        W97773   9.708  20.732   0.865
29433W        W97774   0.792  15.092   0.899
29434W        W97775  13.292  11.251   3.159
29435W        W97776  10.803  29.094   3.800
29436W        W97777   4.773  44.445   2.178
29437W        W97778  19.767   5.364   2.293
29438W        W97779  26.637  27.150  11.596
29439W        W97780  19.674  33.384  10.589
29440W        W97781  18.254  44.964  14.335
29441W        W97782  10.377   7.189   4.802
29442W        W97783  16.257  25.625  12.085
29443W        W97784  26.151  23.503  12.550
29444W        W97785  21.039  21.682  10.426
29445W        W97786  34.536  30.150   1.880
29446W        W97787  42.386  15.742  14.511
29447W        W97788  12.722   6.228   1.403
29448W        W97789   5.788   1.874  12.578
29449W        W97790   9.164  14.738  12.367
29450W        W97791  20.202  40.362   2.369
29451W        W97792  30.549   1.334   3.153
29452W        W97793  38.074  35.465  10.452
29453W        W97794  24.176  15.119  11.546
29454W        W97795   7.243  33.405  13.484
29455W        W97796  33.504  37.506  12.531
29456W        W97797   2.805  10.753   2.855
29457W        W97798  14.590  26.469  14.393
29458W        W97799   9.740  10.233   2.216
29459W        W97800  37.900   4.441  11.570
29460W        W97801  11.778  44.341   1.308
29461W        W97802  34.909  30.941  13.334
29462W        W97803  37.449  25.213  10.923
29463W        W97804  24.163  30.937  14.437
29464W        W97805   3.801  10.152   2.340
29465W        W97806  33.943  44.010   0.471
29466W        W97807   2.962  15.639   1.383
29467W        W97808  27.623  29.456   1.891
29468W        W97809  42.344  22.143   3.833
29469W        W97810  43.274  41.024   3.339
29470W        W97811  32.952  43.274   0.882
29471W        W97812  44.968  15.690  13.463
29472W        W97813  44.375  33.414  14.415
29473W        W97814  42.329  36.466  14.915
29474W        W97815  19.282  31.147   1.358
29475W        W97816  37.441  44.840   3.241
29476W        W97817  24.593  44.793   2.360
29477W        W97818  24.025  32.490   1.930
29478W        W97819   9.765  16.243  10.947
29479W        W97820  44.352  24.685   0.812
29480W        W97821   9.836   1.927  12.963
29481W        W97822  44.303  19.111   2.316
29482W        W97823  36.846  33.545  12.090
29483W        W97824  12.692  40.049  14.001
29484W        W97825   5.311   0.267   1.447
29485W        W97826   4.797  14.773  14.282
29486W        W97827  27.179  10.365   5.128
29487W        W97828  43.467  22.066  12.862
29488W        W97829   2.409  21.602  13.905
29489W        W97830  24.580  16.692   4.228
29490W        W97831  27.198  34.885  12.503
29491W        W97832   4.904  36.876  10.125
29492W        W97833  20.696  35.912  13.509
29493W        W97834  32.631  11.638  12.420
29494W        W97835  27.560  17.272  10.949
29495W        W97836  29.504  25.987   2.374
29496W        W97837  14.309  26.620   3.672
29497W        W97838  16.112  23.516   0.733
29498W        W97839  24.691  15.268   4.645
29499W        W97840  29.936  31.456  14.011
29500W        W97841  22.690  21.147  13.971
29501W        W97842  27.573  30.552   1.718
29502W        W97843   5.772  23.087   3.864
29503W        W97844   6.290   6.192   0.262
29504W        W97845   0.463  31.082   1.421
29505W        W97846  33.482  10.787  14.966
29506W        W97847  24.100  28.024  10.611
29507W        W97848  30.076   5.228   3.171
29508W        W97849  15.232   9.381  11.057
29509W        W97850  18.140  32.474  11.944
29510W        W97851  28.958  44.337  10.455
29511W        W97852  24.712  19.582   4.295
29512W        W97853  39.348  44.359   3.345
29513W        W97854  29.668  27.628   1.336
29514W        W97855  17.722  15.731   2.837
29515W        W97856  30.011  24.573   1.370
29516W        W97857   3.770  35.371  11.076
29517W        W97858  33.447  23.543   5.198
29518W        W97859  14.328  28.182   1.877
29519W        W97860  28.681  17.233   2.775
29520W        W97861   4.269  39.339  14.409
29521W        W97862  31.565  33.547  11.489
29522W        W97863  17.061  41.837  14.500
29523W        W97864  21.634  15.785  10.463
29524W        W97865  15.170  10.734  12.960
29525W        W97866  16.097  36.365   0.848
29526W        W97867  28.024  23.150   0.437
29527W        W97868  32.978  25.147  12.082
29528W        W97869  11.148  17.596   4.328
29529W        W97870  35.059  30.582   0.962
29530W        W97871   0.483   5.766   0.726
29531W        W97872  24.722  24.005   1.871
29532W        W97873  10.832  29.444   4.808
29533W        W97874   4.811   9.292   0.474
29534W        W97875  41.392  12.757   2.678
29535W        W97876  28.670  23.098   2.315
29536W        W97877  42.907   7.275   2.848
29537W        W97878   8.301   7.182  11.486
29538W        W97879  25.137  20.582   2.334
29539W        W97880  40.314  11.359   3.324
29540W        W97881   7.809  19.609   3.708
29541W        W97882   7.692  20.041  11.106
29542W        W97883  37.413  41.804   3.297
29543W        W97884   9.696  29.584  14.836
29544W        W97885  42.833  19.738  13.829
29545W        W97886  19.648  40.963   4.151
29546W        W97887  23.507  35.044  12.995
29547W        W97888   3.275  17.088  10.154
29548W        W97889  14.229   2.750   0.873
29549W        W97890  24.506  29.631  13.798
29550W        W97891  14.267  10.728   0.755
29551W        W97892   0.304   9.315  11.051
29552W        W97893  27.986  17.100   2.856
29553W        W97894  33.068  33.083   0.302
29554W        W97895  38.048   9.258  12.487
29555W        W97896  18.778  27.105  11.544
29556W        W97897  34.595   5.712   1.869
29557W        W97898  18.698  37.420   2.397
29558W        W97899   4.261  27.666   0.412
29559W        W97900  34.475   5.809   0.932
29560W        W97901   6.375   7.174  14.324
29561W        W97902   9.268  31.969   3.251
29562W        W97903  22.613  32.950  13.383
29563W        W97904   2.342  12.194  13.814
29564W        W97905  36.520  19.220  12.553
29565W        W97906   7.699  20.620  13.924
29566W        W97907  36.496  32.129   1.225
29567W        W97908   6.809  15.286  11.548
29568W        W97909  13.628  20.577  12.846
29569W        W97910  12.688  35.508   0.804
29570W        W97911  12.659  25.496  13.453
29571W        W97912  10.229   2.823  13.486
29572W        W97913  37.875   3.298   4.674
29573W        W97914  32.528  33.070  11.607
29574W        W97915  19.100  21.194   3.855
29575W        W97916  22.085  44.461  11.908
29576W        W97917   2.743  41.360  13.531
29577W        W97918  41.415  41.458   1.405
29578W        W97919  27.127  24.720  13.510
29579W        W97920  40.915  37.536  12.355
29580W        W97921   2.394   1.765  13.357
29581W        W97922   2.457  19.757  11.994
29582W        W97923  41.532  41.816   3.166
29583W        W97924  31.503  32.522  14.477
29584W        W97925  17.774  19.717  14.803
29585W        W97926  30.100  42.445  11.600
29586W        W97927  35.019  21.513  11.123
29587W        W97928  12.267   4.825  10.623
29588W        W97929  27.495  24.114  14.284
29589W        W97930  17.126  17.064  13.434
29590W        W97931  10.179  40.497   0.961
29591W        W97932   7.817  24.678   0.923
29592W        W97933  25.503  44.955   1.254
29593W        W97934   4.360  18.603   1.275
29594W        W97935  43.314  20.580  14.881
29595W        W97936  23.069  12.780  11.413
29596W        W97937  17.629  23.678  11.974
29597W        W97938  33.077  17.286  13.944
29598W        W97939  23.723  13.240   4.640
29599W        W97940  23.667   9.332   0.732
29600W        W97941  20.641  40.799  10.490
29601W        W97942  36.480   6.321  12.449
29602W        W97943  42.301  32.440   4.232
29603W        W97944  21.567  43.359  11.090
29604W        W97945   2.925  19.147  10.580
29605W        W97946   1.364   0.832   2.369
29606W        W97947  12.302   3.322   0.923
29607W        W97948  43.912  10.380   2.902
29608W        W97949  39.536  10.159  10.615
29609W        W97950  21.666  30.123  12.846
29610W        W97951  29.592  34.442  14.918
29611W        W97952  14.674  24.700  14.918
29612W        W97953  31.132  31.462  13.501
29613W        W97954   0.330  26.121  11.011
29614W        W97955  18.180  15.255  10.615
29615W        W97956   9.183  10.233  11.938
29616W        W97957  28.628  39.508   1.351
29617W        W97958  22.501  38.000  12.057
29618W        W97959  11.258  27.579   4.288
29619W        W97960  33.434  15.160   0.926
29620W        W97961  43.327  31.602  11.535
29621W        W97962  10.305  11.260   2.354
29622W        W97963   8.216   8.400   2.178
29623W        W97964  17.689  20.071   2.259
29624W        W97965  19.674  17.289   3.652
29625W        W97966  29.534  34.944  10.035
29626W        W97967  18.715  33.960   5.582
29627W        W97968  39.343  29.135   0.819
29628W        W97969  38.969  20.539  13.016
29629W        W97970  44.485  17.196  10.418
29630W        W97971   9.835  24.187  10.966
29631W        W97972  10.807  31.576  14.848
29632W        W97973  31.637   0.415  14.807
29633W        W97974   1.266  18.573  10.408
29634W        W97975  13.324   2.742   3.806
29635W        W97976  40.448  37.863   2.311
29636W        W97977   1.408  42.470   3.284
29637W        W97978  27.044   6.196  11.983
29638W        W97979  40.389  27.175   4.742
29639W        W97980  18.190   3.325  14.314
29640W        W97981  40.527  29.949   0.943
29641W        W97982  15.327  33.088   3.322
29642W        W97983  17.644  16.595   1.354
29643W        W97984  15.253  32.475  12.903
29644W        W97985  12.285  36.078  13.407
29645W        W97986   1.806  12.300   2.194
29646W        W97987  13.815  41.036   2.373
29647W        W97988  22.139  14.828   3.642
29648W        W97989  28.569  25.016  14.439
29649W        W97990  27.446  13.790   3.644
29650W        W97991  37.399  17.063  10.530
29651W        W97992  13.617  34.051  14.438
29652W        W97993  41.878  13.758   4.138
29653W        W97994  31.538   0.768   3.658
29654W        W97995   7.220  20.099   0.752
29655W        W97996   2.274  28.066   5.303
29656W        W97997  26.188  19.777   2.711
29657W        W97998  40.322  28.941   1.713
29658W        W97999  32.009  36.574  11.079
29659W        W98000  39.052  20.666   1.354
29660W        W98001  16.575  40.877  12.863
29661W        W98002  38.557   9.844  11.584
29662W        W98003  25.652  11.258   1.242
29663W        W98004  37.414  33.037   2.397
29664W        W98005  21.046  16.082   4.187
29665W        W98006  11.836  32.457   3.716
29666W        W98007  30.043  21.675  13.872
29667W        W98008   3.409  35.016   1.791
29668W        W98009  12.736  27.964  14.359
29669W        W98010  30.910  17.162  12.579
29670W        W98011  20.748   8.172  14.462
29671W        W98012  35.971  38.917   0.728
29672W        W98013   6.316  19.538   1.736
29673W        W98014  18.099  42.336   2.815
29674W        W98015  24.620  26.686   3.200
29675W        W98016  39.853  39.385  13.025
29676W        W98017  31.150   8.402   3.823
29677W        W98018  25.583  22.549  10.955
29678W        W98019  26.462  31.452   3.653
29679W        W98020   0.960  43.011   0.912
29680W        W98021  25.195  32.623  11.930
29681W        W98022   2.255  39.551  12.371
29682W        W98023  10.772  39.001   3.191
29683W        W98024  40.813  44.318   1.728
29684W        W98025   6.367  29.656   3.283
29685W        W98026  37.009   8.676   2.828
29686W        W98027  27.100  12.268  14.806
29687W        W98028  40.933  32.561  14.823
29688W        W98029  10.777  12.802  13.494
29689W        W98030  39.945  10.828   2.817
29690W        W98031  40.054  23.603   0.297
29691W        W98032  32.092   6.225  11.993
29692W        W98033  31.647  24.541  14.818
29693W        W98034  44.899  36.094   3.347
29694W        W98035   8.177  27.603   2.882
29695W        W98036  36.084   2.878  13.451
29696W        W98037  16.274  10.326   2.889
29697W        W98038  20.669  28.579   4.658
29698W        W98039   4.394  15.182  14.004
29699W        W98040  15.708  10.849  14.387
29700W        W98041  34.374  24.544   2.733
29701W        W98042   1.458  16.719   9.631
29702W        W98043   1.757  26.149  14.875
29703W        W98044   7.838  29.063  14.471
29704W        W98045   4.447  35.383   4.294
29705W        W98046  44.008  20.642  14.020
29706W        W98047  29.645   6.223  12.966
29707W        W98048   2.287  30.622  10.085
29708W        W98049  28.446  35.589  13.040
29709W        W98050  16.157   5.695  12.089
29710W        W98051  38.350  37.846  12.406
29711W        W98052  34.424  13.336  12.979
29712W        W98053   6.317  43.786  13.049
29713W        W98054  16.639  37.927  13.537
29714W        W98055  28.023  31.624   4.675
29715W        W98056  39.400  28.182  11.564
29716W        W98057  42.855  40.462   5.096
29717W        W98058  23.082  14.657  12.528
29718W        W98059  35.077  38.417  10.483
29719W        W98060  14.637  43.515   3.808
29720W        W98061  25.964  20.184   0.732
29721W        W98062  12.120  38.839   3.186
29722W        W98063  23.077  31.603  10.586
29723W        W98064   0.248   9.162   3.650
29724W        W98065  12.214   7.798   1.409
29725W        W98066  41.294  15.157  13.001
29726W        W98067  12.242  30.641   2.184
29727W        W98068  17.741  21.563   2.768
29728W        W98069  23.216  38.824   2.706
29729W        W98070  24.137  24.050  13.794
29730W        W98071   4.389  36.961   2.206
29731W        W98072  25.639  19.093   5.684
29732W        W98073  33.455  11.653  14.969
29733W        W98074   4.285  42.828  10.039
29734W        W98075  35.066  30.643   3.826
29735W        W98076   6.920   7.815   4.697
29736W        W98077  16.758  21.601   4.756
29737W        W98078   7.292   9.359  14.889
29738W        W98079  39.428  42.433   3.847
29739W        W98080   1.267  42.419   4.649
29740W        W98081  42.907  21.071   5.290
29741W        W98082   6.202   5.831  10.132
29742W        W98083  42.515  17.240  13.792
29743W        W98084  35.042  20.762   1.329
29744W        W98085  20.640  32.581  13.019
29745W        W98086  24.663  12.132   3.714
29746W        W98087  22.579  21.123  11.605
29747W        W98088  29.590  40.949  14.450
29748W        W98089  37.389  34.893   2.802
29749W        W98090  27.503  10.218   2.205
29750W        W98091   2.936  17.287  13.459
29751W        W98092  15.612  24.165  14.315
29752W        W98093  10.679  23.164  14.953
29753W        W98094  27.161  28.176   1.758
29754W        W98095  13.156  39.461   3.837
29755W        W98096   2.301  30.452  14.802
29756W        W98097  39.926  10.790   1.776
29757W        W98098  22.599  15.660   5.165
29758W        W98099  13.258  43.495   3.231
29759W        W98100  27.034  11.626   4.687
29760W        W98101  44.984  27.497  12.993
29761W        W98102  25.136  35.471  12.896
29762W        W98103  36.515   9.882  11.406
29763W        W98104  10.827  19.614  12.020
29764W        W98105  32.962  12.815  11.984
29765W        W98106  25.012   3.441   2.814
29766W        W98107   9.171  18.586   1.346
29767W        W98108  34.992  18.255   4.201
29768W        W98109   3.450  38.436  12.345
29769W        W98110   4.318   6.242   3.235
29770W        W98111   1.343  32.593   4.218
29771W        W98112  30.135  18.052   1.212
29772W        W98113  29.610   3.440   1.759
29773W        W98114  30.912  13.339  14.941
29774W        W98115   5.288  13.758   0.802
29775W        W98116  10.238  40.380  12.853
29776W        W98117  15.587   1.847  10.546
29777W        W98118   1.964  23.650   1.330
29778W        W98119  43.330   4.283  14.808
29779W        W98120  17.221  33.983   0.906
29780W        W98121   8.660  28.011  14.433
29781W        W98122  28.940  43.785   4.164
29782W        W98123  24.521  17.596  14.022
29783W        W98124  25.618  41.313  13.500
29784W        W98125   2.227  43.792   1.333
29785W        W98126  25.626  44.774  13.332
29786W        W98127  30.036   0.981   3.230
29787W        W98128  29.103  25.534  12.520
29788W        W98129   0.331  35.857  10.507
29789W        W98130  28.163  28.965   1.752
29790W        W98131  41.873  20.044  12.529
29791W        W98132  41.417  11.156   0.838
29792W        W98133  17.090  40.348   1.444
29793W        W98134  27.075  21.104   3.747
29794W        W98135   6.902  43.457  14.322
29795W        W98136  32.537   1.277  12.022
29796W        W98137   0.476  34.966  10.524
29797W        W98138  31.531  34.464   3.279
29798W        W98139   2.949  23.604   3.748
29799W        W98140  25.058   5.834  12.465
29800W        W98141  40.453  22.553  14.858
29801W        W98142  33.050  28.123  12.577
29802W        W98143  36.951  42.907  10.897
29803W        W98144   2.307  23.575   4.699
29804W        W98145   4.763  19.229   0.760
29805W        W98146  35.985  15.794  14.500
29806W        W98147   7.259  37.343   2.815
29807W        W98148  43.505  28.603  11.862
29808W        W98149   6.738   7.300   2.329
29809W        W98150  41.329  27.095  12.034
29810W        W98151  18.185  19.157  14.436
29811W        W98152  23.991  41.842   1.244
29812W        W98153  16.623  27.567  11.928
29813W        W98154  18.704   1.465   1.891
29814W        W98155  34.499  27.085  13.538
29815W        W98156  16.100  14.779   1.747
29816W        W98157  33.607  30.009  14.495
29817W        W98158  43.821  37.034   1.432
29818W        W98159   6.256  11.160   4.219
29819W        W98160  22.728  15.592  14.332
29820W        W98161  43.847  24.584   4.187
29821W        W98162  27.128   7.887  14.942
29822W        W98163  36.484  16.662   3.851
29823W        W98164  26.468  36.883   3.327
29824W        W98165  30.575  43.000  14.304
29825W        W98166  11.833  37.374  14.003
29826W        W98167  33.484  38.414   1.268
29827W        W98168  35.950  20.623   0.894
29828W        W98169   2.373  10.199   3.318
29829W        W98170  28.168  12.739   0.874
29830W        W98171  24.614  12.688  12.846
29831W        W98172  30.466  23.587   2.762
29832W        W98173  28.138  38.361   9.954
29833W        W98174  19.143   6.281   1.823
29834W        W98175  28.958  39.349  10.445
29835W        W98176  42.838  42.300   2.235
29836W        W98177  17.092  19.551   0.482
29837W        W98178  12.242  34.034  13.538
29838W        W98179  26.045  10.777   2.745
29839W        W98180  19.595   5.710   1.902
29840W        W98181  32.635  23.674   2.729
29841W        W98182  30.480  40.962  14.428
29842W        W98183  12.828  16.239  13.923
29843W        W98184  15.225  35.507  12.079
29844W        W98185   7.733  41.311  10.630
29845W        W98186  33.584   3.251   0.920
29846W        W98187   4.817  36.362   1.294
29847W        W98188  18.766  27.447  11.608
29848W        W98189  18.184  27.529  12.906
29849W        W98190   2.899  11.798  13.836
29850W        W98191  20.765  19.698   1.342
29851W        W98192  17.720  26.602  12.465
29852W        W98193  28.938  24.550  12.349
29853W        W98194   6.887  42.336   2.283
29854W        W98195   8.313  17.618   3.648
29855W        W98196  41.007  42.961   9.957
29856W        W98197   5.858  12.236   0.737
29857W        W98198  36.042  15.720  11.551
29858W        W98199  15.116   8.162  10.457
29859W        W98200  21.599  16.150  13.051
29860W        W98201   3.802   6.917  12.090
29861W        W98202  31.080   4.709   0.736
29862W        W98203  24.625  17.119  11.873
29863W        W98204   0.776  43.818   3.705
29864W        W98205  25.098  40.432  14.789
29865W        W98206  44.937  21.085   2.278
29866W        W98207  43.832  12.146  14.463
29867W        W98208  34.503  15.739  12.977
29868W        W98209  29.581   1.801  10.416
29869W        W98210  36.574  23.540   2.722
29870W        W98211  31.970   1.908   0.743
29871W        W98212   0.814  15.615  11.428
29872W        W98213  28.600  12.780   3.257
29873W        W98214  23.719  34.610  11.511
29874W        W98215   3.730   0.290  14.511
29875W        W98216  26.004  41.792  10.549
29876W        W98217  36.998  22.501   0.948
29877W        W98218  15.738  40.904  13.906
29878W        W98219  32.036  43.989   1.893
29879W        W98220  35.996   6.242   4.683
29880W        W98221   9.846   8.214  13.379
29881W        W98222  15.577   8.272  14.514
29882W        W98223  22.132  29.951   0.346
29883W        W98224  39.373  42.462   5.119
29884W        W98225  31.010   0.896  13.492
29885W        W98226  13.242  43.299   2.202
29886W        W98227  13.775  42.802   0.333
29887W        W98228  39.809  12.650  11.916
29888W        W98229  42.861  18.573   3.769
29889W        W98230  19.070  35.555  14.890
29890W        W98231  31.547  44.956  14.982
29891W        W98232  26.042  28.022   2.262
29892W        W98233   2.342  27.449  14.495
29893W        W98234  35.527  38.476  13.991
29894W        W98235  33.880  36.460  14.913
29895W        W98236  43.453   3.759  11.057
29896W        W98237  10.661   8.355   1.823
29897W        W98238  19.123  37.044   2.796
29898W        W98239  15.324   1.474   3.299
29899W        W98240   4.922  36.529   3.765
29900W        W98241  26.012  29.081  11.488
29901W        W98242  36.434   3.230  13.921
29902W        W98243  25.982  14.296  13.816
29903W        W98244  31.419  14.151   1.443
29904W        W98245  39.011  42.465   5.208
29905W        W98246   4.303  36.498  12.865
29906W        W98247  34.447   6.706  14.441
29907W        W98248  25.085  11.854   2.719
29908W        W98249  31.909  35.496   0.392
29909W        W98250  30.056   5.275  10.454
29910W        W98251  29.474   0.932   5.228
29911W        W98252  21.757  42.361  12.992
29912W        W98253  29.138  41.447   3.362
29913W        W98254   2.880  16.169  10.469
29914W        W98255  26.666  29.533   2.246
29915W        W98256  18.580  42.297  10.625
29916W        W98257  38.875  15.242   4.598
29917W        W98258  13.759  31.616  12.440
29918W        W98259   3.953  36.084   5.189
29919W        W98260   9.343  38.433  14.324
29920W        W98261  19.738  36.904   0.852
29921W        W98262  43.441   6.295  14.956
29922W        W98263  34.503  15.182  11.017
29923W        W98264  43.318  11.361   1.228
29924W        W98265  37.019  17.725  13.049
29925W        W98266  36.490  13.788  13.001
29926W        W98267  29.997  43.829   1.427
29927W        W98268  16.311  18.749  12.456
29928W        W98269  17.720  43.344  10.482
29929W        W98270  41.995  39.423  14.894
29930W        W98271  35.455   6.191  11.578
29931W        W98272  35.918  42.029  11.934
29932W        W98273  40.896   8.248  13.536
29933W        W98274  15.243   3.743  12.538
29934W        W98275  13.133  28.091  12.013
29935W        W98276  43.998   8.309   3.205
29936W        W98277  15.204  44.768  13.427
29937W        W98278  36.886  27.185  14.999
29938W        W98279  19.110  19.644   4.775
29939W        W98280  13.257  10.179   3.230
29940W        W98281  27.113  33.405  10.600
29941W        W98282   8.849  39.330   4.220
29942W        W98283  39.930  28.954  10.903
29943W        W98284  30.060  30.926   3.697
29944W        W98285  29.653  38.915  14.941
29945W        W98286  21.025  27.165  12.846
29946W        W98287  35.092   6.365  12.981
29947W        W98288  32.101   7.179  12.859
29948W        W98289  27.460  40.333  11.444
29949W        W98290   5.413  28.626  12.879
29950W        W98291  34.968  19.674   0.799
29951W        W98292  32.088  25.683   4.283
29952W        W98293  21.215  16.184   1.789
29953W        W98294  27.104  36.456   0.369
29954W        W98295  42.466  29.431   3.743
29955W        W98296  20.161   6.276   2.813
29956W        W98297  35.580  38.504   2.398
29957W        W98298  29.603  44.286   1.881
29958W        W98299   1.895  30.496   1.394
29959W        W98300  35.932  23.051   4.149
29960W        W98301  29.513  10.140   2.790
29961W        W98302  23.071  28.579   2.274
29962W        W98303  43.783   3.426   1.871
29963W        W98304  14.654  30.485   0.464
29964W        W98305  24.982  35.963   3.241
29965W        W98306  36.472  27.573  11.416
29966W        W98307   1.413  14.617  14.484
29967W        W98308  40.823   2.901   1.815
29968W        W98309  13.188  11.365  10.965
29969W        W98310  41.984   5.762   1.268
29970W        W98311   8.212   2.300   0.335
29971W        W98312  41.413  13.785  14.973
29972W        W98313  19.065  35.857  11.010
29973W        W98314  44.442  25.491   4.618
29974W        W98315  30.589  28.969  10.989
29975W        W98316  40.966   9.643  12.957
29976W        W98317   8.363  19.188   1.435
29977W        W98318  22.619  16.742  11.864
29978W        W98319   3.325  20.524  11.033
29979W        W98320  42.501  29.075   1.917
29980W        W98321   5.757  38.499   2.824
29981W        W98322  28.472   2.895  10.965
29982W        W98323  21.062  19.736  11.981
29983W        W98324  18.553   4.906   2.865
29984W        W98325  33.449  22.631  11.984
29985W        W98326  28.962   6.247   2.888
29986W        W98327  42.460  35.504  11.951
29987W        W98328  44.265  21.579  12.543
29988W        W98329  33.534  12.698  12.897
29989W        W98330  34.413  11.698  13.317
29990W        W98331  18.601  29.535  10.433
29991W        W98332  42.514  21.685   1.804
29992W        W98333   7.840  35.472   0.941
29993W        W98334   2.948  29.560  11.002
29994W        W98335  34.522  17.703  11.574
29995W        W98336  17.085  30.507   4.340
29996W        W98337   5.435  14.139  13.050
29997W        W98338  37.083  31.474  10.626
29998W        W98339  44.933  42.941  12.416
29999W        W98340  36.416  41.450   0.393
30000W        W98341  44.405  42.024   4.301
30001W        W98342  26.481   6.771   1.709
30002W        W98343   0.340  16.154   1.745
30003W        W98344  14.142   1.902  13.398
30004W        W98345  38.968  17.212   5.091
30005W        W98346  12.276  32.424  10.491
30006W        W98347  16.266   5.196  11.878
30007W        W98348  26.998  31.572  13.430
30008W        W98349  27.147  42.324   1.890
30009W        W98350  23.107  33.413  12.979
30010W        W98351  21.062   8.401  13.940
30011W        W98352  20.583  24.175   1.781
30012W        W98353  43.861  38.495   2.278
30013W        W98354  28.006   9.771  13.968
30014W        W98355  39.968  10.828  13.413
30015W        W98356   7.682  20.621  12.457
30016W        W98357  38.854  23.510   4.668
30017W        W98358  38.870  30.586  11.517
30018W        W98359   9.324  17.750  13.969
30019W        W98360  32.936  18.171  14.357
30020W        W98361   4.219  22.074  13.887
30021W        W98362   2.793  21.230   3.173
30022W        W98363  28.458  22.038   4.672
30023W        W98364  14.795   3.428   2.323
30024W        W98365   0.335   0.903  13.973
30025W        W98366  31.622  21.146  10.441
30026W        W98367   0.251  29.113  14.913
30027W        W98368   1.907  13.601  12.899
30028W        W98369  43.401  44.934  12.556
30029W        W98370  26.966  17.678  13.421
30030W        W98371  35.006  23.134  12.364
30031W        W98372  15.623  33.883   0.471
30032W        W98373   0.277  12.139  12.466
30033W        W98374  33.522  35.072   2.763
30034W        W98375  16.196  43.951   1.720
30035W        W98376  17.682  19.576  13.931
30036W        W98377   3.921  11.816   1.223
30037W        W98378   5.433  35.956  10.961
30038W        W98379  39.536  22.658  11.913
30039W        W98380  39.351  10.727   4.327
30040W        W98381  15.675  33.921   2.774
30041W        W98382   5.853  44.005  14.478
30042W        W98383  20.596   5.220   4.829
30043W        W98384  33.495  20.579   3.861
30044W        W98385  38.383  26.612   2.373
30045W        W98386  43.451   4.447   4.133
30046W        W98387  26.657  15.583   2.259
30047W        W98388  19.093  16.176  11.108
30048W        W98389  36.966  23.059  11.057
30049W        W98390  29.973  30.082   3.283
30050W        W98391  37.366  28.522   4.654
30051W        W98392  21.260  34.459  11.016
30052W        W98393  18.208  35.900   0.865
30053W        W98394  34.548  13.688  14.945
30054W        W98395  33.996  29.582   4.167
30055W        W98396  41.515  43.889  14.878
30056W        W98397   7.320  29.087  13.019
30057W        W98398  14.834   7.251   3.860
30058W        W98399   2.425  12.716  12.929
30059W        W98400  16.169  27.188   2.311
30060W        W98401   4.282  25.209  13.419
30061W        W98402  25.963  36.428  14.802
30062W        W98403  27.104   1.351  14.946
30063W        W98404   9.852   5.762  14.837
30064W        W98405  18.725   5.328   0.733
30065W        W98406  32.113  24.527  13.874
30066W        W98407  29.918  27.454  12.002
30067W        W98408  30.496   9.305  14.932
30068W        W98409  13.728  15.211   1.436
30069W        W98410  40.374  12.201   0.360
30070W        W98411  17.203  25.617   0.764
30071W        W98412  26.095  30.129  14.489
30072W        W98413  36.578   4.374   2.406
30073W        W98414  39.044  19.057  14.802
30074W        W98415   9.836  43.801   2.374
30075W        W98416  21.181  44.365   2.377
30076W        W98417  12.214  37.839  14.788
30077W        W98418  41.858  18.248  14.495
30078W        W98419   6.734  41.969  13.869
30079W        W98420  33.984   9.153  12.391
30080W        W98421  25.618  25.563   1.935
30081W        W98422  27.461   8.678   0.844
30082W        W98423  29.165   8.351   1.287
30083W        W98424  40.883   7.715   0.446
30084W        W98425  12.710  30.090  12.039
30085W        W98426   5.718  31.091  11.393
30086W        W98427  11.147  38.022   0.456
30087W        W98428  43.872   4.370  12.072
30088W        W98429  10.739  33.113  12.916
30089W        W98430  41.787  31.477  11.984
30090W        W98431   3.247  20.056  13.023
30091W        W98432  21.191  24.008  12.943
30092W        W98433  32.004  30.571   3.630
30093W        W98434  43.780   2.825   3.866
30094W        W98435  38.952  30.162   2.332
30095W        W98436  20.210   9.255  11.907
30096W        W98437  40.973  42.318   3.701
30097W        W98438  44.775   3.439   2.797
30098W        W98439  23.696  37.860   4.654
30099W        W98440  32.624  20.222  13.504
30100W        W98441  23.131  43.367  13.472
30101W        W98442  35.906  10.203   2.758
30102W        W98443  38.937  20.769  13.317
30103W        W98444  37.430  23.698  13.479
30104W        W98445  22.080  15.098   1.356
30105W        W98446  27.593  41.858   0.429
30106W        W98447  42.775  13.752  12.944
30107W        W98448  11.812  19.131  10.595
30108W        W98449  11.163  37.524   1.404
30109W        W98450   1.754  14.260  12.874
30110W        W98451  42.780  27.539   3.362
30111W        W98452   7.179  29.527  11.419
30112W        W98453   7.376  30.648   0.735
30113W        W98454   0.824  32.898   4.176
30114W        W98455  20.540  38.367   3.258
30115W        W98456  36.852   1.459   3.327
30116W        W98457  21.702  37.994   0.425
30117W        W98458  11.696   2.261   2.884
30118W        W98459  31.003  29.114   0.425
30119W        W98460   2.468   5.807   0.762
30120W        W98461   3.344  26.699  11.879
30121W        W98462  26.998  22.075   0.429
30122W        W98463  23.533  10.783   2.883
30123W        W98464  32.550   5.373  14.372
30124W        W98465  25.591  20.620  10.531
30125W        W98466  38.515  43.849  10.410
30126W        W98467  39.518  21.712   4.682
30127W        W98468  41.521  12.257  10.420
30128W        W98469  25.640   8.702  11.444
30129W        W98470   3.710   4.329  11.936
30130W        W98471   6.211  29.918   2.285
30131W        W98472  12.344  19.051  14.011
30132W        W98473  15.119  42.515  10.922
30133W        W98474  37.467  31.072  12.561
30134W        W98475   1.871  19.263  11.977
30135W        W98476  33.420   7.812  12.836
30136W        W98477  41.339  43.820  10.492
30137W        W98478  38.485  44.391   3.287
30138W        W98479  18.764  21.108   0.370
30139W        W98480  33.936   5.863  11.100
30140W        W98481  36.962  10.365  13.384
30141W        W98482   4.772  44.847  11.007
30142W        W98483  13.669  29.129  11.123
30143W        W98484  14.195  14.675   3.154
30144W        W98485  22.656  21.649   4.649
30145W        W98486   4.904  12.350   2.893
30146W        W98487  31.589   0.404   3.186
30147W        W98488  25.673  33.028  11.056
30148W        W98489  11.810   5.293  14.433
30149W        W98490  36.045  11.700  12.438
30150W        W98491  44.929  25.168   0.870
30151W        W98492  44.432   6.844  14.387
30152W        W98493  27.948   2.368   0.939
30153W        W98494  15.770  12.678  11.536
30154W        W98495  18.171  35.468   3.217
30155W        W98496  34.508  32.936  11.892
30156W        W98497  34.971  16.672   3.340
30157W        W98498   2.313  41.020   3.869
30158W        W98499  26.197  28.450   2.799
30159W        W98500  22.625  22.112  11.510
30160W        W98501  40.047  12.193  12.842
30161W        W98502  36.850  32.423   2.730
30162W        W98503  10.677   4.442   4.128
30163W        W98504   3.876  39.965   1.780
30164W        W98505  19.269  21.656   3.654
30165W        W98506   1.284  40.530  11.021
30166W        W98507  17.679  34.007   9.470
30167W        W98508  38.933  29.523   3.784
30168W        W98509  40.961  37.442  10.608
30169W        W98510   6.231   0.485   3.298
30170W        W98511  23.717  29.555  12.027
30171W        W98512  14.220  42.509  10.608
30172W        W98513  43.787  24.107   2.255
30173W        W98514  37.484  17.660   1.344
30174W        W98515   9.806  15.190   0.383
30175W        W98516   9.884  44.789  13.971
30176W        W98517   5.239  39.339   0.362
30177W        W98518  40.469  23.621   2.336
30178W        W98519  20.530   2.362  12.053
30179W        W98520  24.659  42.915   2.231
30180W        W98521  25.185  35.361  11.600
30181W        W98522  30.076  35.573   4.147
30182W        W98523  38.339   0.931   1.722
30183W        W98524   9.669  40.896   3.336
30184W        W98525  19.057   8.699   1.836
30185W        W98526  12.679  15.733   2.293
30186W        W98527  30.025   8.237   3.361
30187W        W98528  32.530   9.282   4.703
30188W        W98529   2.249  30.973   0.305
30189W        W98530  31.149  12.699  12.445
30190W        W98531  18.591   6.868  12.075
30191W        W98532  20.686   5.291   3.240
30192W        W98533  13.762  12.655  12.500
30193W        W98534   3.281  17.593   0.473
30194W        W98535  30.558   1.393   4.189
30195W        W98536   8.345  43.869   2.405
30196W        W98537  11.215  11.659   4.208
30197W        W98538  44.419  44.958   3.753
30198W        W98539  28.570  15.202   4.299
30199W        W98540  26.701  34.020   1.322
30200W        W98541  21.100  40.951   1.752
30201W        W98542  20.029  17.594   1.376
30202W        W98543  23.144  27.104   1.836
30203W        W98544  27.195  32.103   3.674
30204W        W98545  22.502  22.696   1.932
30205W        W98546  27.115  35.907  12.952
30206W        W98547  31.987  44.882   1.416
30207W        W98548  36.578  36.991   3.795
30208W        W98549  35.102  11.802   4.178
30209W        W98550   0.924  13.325   4.768
30210W        W98551  19.112  36.088  12.837
30211W        W98552  22.006  42.982   0.833
30212W        W98553   7.689  31.073   1.731
30213W        W98554  13.703  35.934  10.605
30214W        W98555  10.805  22.515  13.965
30215W        W98556   6.278  21.726   2.798
30216W        W98557  13.305  17.129   5.090
30217W        W98558  28.186  37.998  13.307
30218W        W98559  21.045  23.081  12.954
30219W        W98560   2.305  33.431   3.296
30220W        W98561  24.604  29.443   3.368
30221W        W98562  21.055  27.146   4.776
30222W        W98563  34.495  18.606  11.882
30223W        W98564  39.321  11.323  10.550
30224W        W98565  17.085  19.708  12.350
30225W        W98566  35.045   7.750   3.286
30226W        W98567  30.111  14.100  12.506
30227W        W98568  37.499  34.520  13.369
30228W        W98569  15.745  11.277   1.698
30229W        W98570  42.832  35.905  14.515
30230W        W98571   5.320  31.058   2.702
30231W        W98572  17.083  29.595   3.269
30232W        W98573  27.614  25.096   2.324
30233W        W98574  12.732   4.423   2.763
30234W        W98575  42.525  20.746   4.643
30235W        W98576  34.412  14.100  14.939
30236W        W98577  34.572  36.453  13.534
30237W        W98578  22.024  29.467  11.415
30238W        W98579  41.370  21.220   3.640
30239W        W98580  35.985  16.731  10.579
30240W        W98581  16.589  10.821  11.395
30241W        W98582  21.751  15.084   1.848
30242W        W98583  40.362   1.951   4.764
30243W        W98584  42.488  24.203   1.313
30244W        W98585  44.274  39.448   0.445
30245W        W98586  12.156  36.561  12.055
30246W        W98587   7.173  38.859   2.263
30247W        W98588  18.632  24.030  11.594
30248W        W98589  24.178   1.475   3.842
30249W        W98590  10.332  34.951  11.450
30250W        W98591   0.494   1.358  14.355
30251W        W98592  16.710   7.759   0.444
30252W        W98593  34.066  39.551  11.959
30253W        W98594  15.729  22.514   3.227
30254W        W98595  27.094  10.742  10.556
30255W        W98596   6.813   4.366  13.854
30256W        W98597  37.458   0.427  12.977
30257W        W98598  24.077  23.557   5.146
30258W        W98599   8.738   6.833   4.194
30259W        W98600  18.187  17.716   3.632
30260W        W98601  10.745  17.699  13.455
30261W        W98602   0.951  38.362   1.376
30262W        W98603  26.686  19.538  14.403
30263W        W98604  10.787  37.501   3.724
30264W        W98605  21.722  33.502  12.546
30265W        W98606  39.908  30.937   3.288
30266W        W98607  23.497  17.689  12.449
30267W        W98608  33.031  30.015   4.643
30268W        W98609  43.492  43.332   3.281
30269W        W98610  12.118   9.882  14.329
30270W        W98611  13.318  15.783  10.519
30271W        W98612   2.965  21.604   3.682
30272W        W98613  36.030  25.075  10.888
30273W        W98614  29.047  13.168  14.345
30274W        W98615  23.040  22.542   4.256
30275W        W98616  40.956  22.706   2.715
30276W        W98617  36.893  28.082   0.476
30277W        W98618  35.363   6.371   1.400
30278W        W98619  28.631   4.306   4.169
30279W        W98620  36.388  38.550   3.654
30280W        W98621  17.157  15.217  11.101
30281W        W98622   5.933   1.962  14.013
30282W        W98623   1.946  24.021  14.392
30283W        W98624  25.521  34.112   3.290
30284W        W98625  10.236  41.316   2.803
30285W        W98626  10.749  26.599  11.861
30286W        W98627  15.809   8.669  10.920
30287W        W98628  37.497   0.402  12.373
30288W        W98629   7.819   6.184  10.461
30289W        W98630  10.207  39.436   4.308
30290W        W98631  31.550  25.540  13.808
30291W        W98632  43.956   8.271  14.484
30292W        W98633   9.322  10.272   3.635
30293W        W98634  35.369  42.003  13.860
30294W        W98635   2.739  26.158   1.771
30295W        W98636  26.615  21.698  11.521
30296W        W98637  26.641  10.290  14.891
30297W        W98638  34.906  27.675   4.651
30298W        W98639  33.466  30.504   0.767
30299W        W98640   2.324  35.968  11.888
30300W        W98641  36.018   0.467   4.195
30301W        W98642  23.613  32.428   2.822
30302W        W98643  17.597  15.199  12.346
30303W        W98644  30.641  22.708  12.850
30304W        W98645  36.421  13.720  13.900
30305W        W98646  11.163  25.618   2.782
30306W        W98647  19.684  42.031  10.914
30307W        W98648  39.379  39.831  10.019
30308W        W98649  16.317   1.263  11.468
30309W        W98650  10.771  24.206  13.816
30310W        W98651  34.098  20.523  10.625
30311W        W98652  24.146  28.947   0.384
30312W        W98653  44.444  43.789  12.827
30313W        W98654   3.230  27.083  11.082
30314W        W98655   2.293  21.142  14.443
30315W        W98656  42.341  29.970   3.679
30316W        W98657  16.632  27.641  14.473
30317W        W98658   5.236  43.388  10.940
30318W        W98659  33.503  16.111   3.240
30319W        W98660  28.121  37.080   3.199
30320W        W98661  14.748  11.262   9.939
30321W        W98662  27.496  38.493   2.735
30322W        W98663  12.647  40.451   4.751
30323W        W98664  26.563  19.623   1.842
30324W        W98665  11.774  43.438   4.603
30325W        W98666  14.154   4.925   2.786
30326W        W98667   0.853   5.866  14.869
30327W        W98668   4.778  44.807   1.712
30328W        W98669  32.431  10.807   2.741
30329W        W98670  27.576   3.808  13.060
30330W        W98671   1.305  25.563  10.957
30331W        W98672  32.607   9.732   2.703
30332W        W98673  36.066  19.763  11.992
30333W        W98674  13.245  26.475   4.170
30334W        W98675  37.042   0.357   3.735
30335W        W98676  18.571  14.609   1.740
30336W        W98677   7.283  23.532  12.978
30337W        W98678  16.124  34.882   0.298
30338W        W98679  17.103  26.188  12.421
30339W        W98680  10.234  38.932   0.823
30340W        W98681  28.632  24.226   1.796
30341W        W98682  11.655   7.817   3.197
30342W        W98683  44.953  28.007   4.684
30343W        W98684  39.818  40.329   4.179
30344W        W98685  23.198  34.541   3.228
30345W        W98686  24.710  19.097   4.265
30346W        W98687  34.929  29.517   1.325
30347W        W98688  44.464  29.041   4.669
30348W        W98689  34.564   9.225  11.873
30349W        W98690  25.113  28.989  13.545
30350W        W98691   4.813  33.576  13.938
30351W        W98692   5.301  26.511  11.072
30352W        W98693  21.069  39.047   1.779
30353W        W98694  37.489  24.098   0.745
30354W        W98695  44.856  37.405  14.287
30355W        W98696   0.794  35.976  10.091
30356W        W98697   0.778   9.705  13.362
30357W        W98698  17.062  36.542   2.233
30358W        W98699  36.374   8.350   4.771
30359W        W98700   0.746  25.117  12.549
30360W        W98701   5.740   6.865   0.918
30361W        W98702   3.422  25.105  10.546
30362W        W98703  29.580  42.940  10.964
30363W        W98704  38.898  43.957   9.947
30364W        W98705  11.703  18.289   2.370
30365W        W98706   9.370  10.864   5.296
30366W        W98707  13.276  29.632  14.835
30367W        W98708  30.040  43.373  13.830
30368W        W98709  27.562  28.166   1.352
30369W        W98710  30.129  28.951   1.763
30370W        W98711  26.507  28.163   3.237
30371W        W98712  32.957   6.899  14.001
30372W        W98713   9.370  44.470  11.423
30373W        W98714   7.213  34.023  13.379
30374W        W98715  29.959  24.034  11.007
30375W        W98716   5.704  11.353   1.350
30376W        W98717  27.988   3.891   2.691
30377W        W98718  25.592  29.038   1.916
30378W        W98719  26.067  44.455  10.903
30379W        W98720  33.103  41.880  14.984
30380W        W98721   9.168   6.779   2.189
30381W        W98722  30.079   8.287   4.351
30382W        W98723   2.836   0.890  10.903
30383W        W98724  43.507  24.083  13.309
30384W        W98725  34.441  13.204   1.427
30385W        W98726   8.310  13.222  10.548
30386W        W98727  33.538  10.864   0.465
30387W        W98728  32.973   7.299  12.549
30388W        W98729  43.343  29.128  12.488
30389W        W98730  22.111  23.141   1.440
30390W        W98731  10.840  26.603   1.720
30391W        W98732  31.949  42.942  13.987
30392W        W98733  15.669  25.042   0.426
30393W        W98734  24.174  30.999  10.480
30394W        W98735  10.262  17.692  14.985
30395W        W98736  37.528  28.576   4.322
30396W        W98737  24.682  18.668   1.920
30397W        W98738  17.284  18.140   2.288
30398W        W98739  23.734  36.574   1.426
30399W        W98740  14.234   6.771   3.213
30400W        W98741  41.993   5.881   2.211
30401W        W98742  25.478  43.986  10.555
30402W        W98743  23.655  42.885  13.914
30403W        W98744  37.492  16.767   3.378
30404W        W98745  42.302  20.553   5.171
30405W        W98746  31.086   7.176  13.314
30406W        W98747   0.923  12.337   1.339
30407W        W98748   0.918  40.334  12.845
30408W        W98749  11.784  38.424   3.172
30409W        W98750  41.321   7.399   2.261
30410W        W98751   6.250  34.035   2.714
30411W        W98752  31.904  41.893  11.473
30412W        W98753  32.519  25.163   1.897
30413W        W98754  12.336  12.328   1.272
30414W        W98755  32.602  19.665  14.473
30415W        W98756  28.558  29.059  12.963
30416W        W98757  33.126  16.642  12.960
30417W        W98758   8.885  40.046   0.913
30418W        W98759  22.526  43.773  11.596
30419W        W98760  39.370  13.743  12.455
30420W        W98761  17.706  18.787   0.386
30421W        W98762  28.063  30.021  13.875
30422W        W98763  34.521  11.225  10.491
30423W        W98764   4.245  37.543   0.405
30424W        W98765  33.935  37.915   3.787
30425W        W98766  29.130  20.102   2.321
30426W        W98767   6.681  23.091  11.040
30427W        W98768  16.165   1.413   4.637
30428W        W98769   9.193  21.240   4.765
30429W        W98770  36.587   5.223  13.446
30430W        W98771  23.533  12.853   3.667
30431W        W98772   3.827  41.462   5.153
30432W        W98773  39.917   8.700   3.175
30433W        W98774  10.283  12.850  14.775
30434W        W98775   5.800  17.792   2.732
30435W        W98776  10.188  17.676  12.433
30436W        W98777   8.759  19.059  14.464
30437W        W98778  41.427  11.753   0.959
30438W        W98779  42.024  40.430  10.628
30439W        W98780  41.532  19.149  11.868
30440W        W98781   8.391   4.445  13.931
30441W        W98782  34.394  42.379   4.667
30442W        W98783  28.525   2.468  14.277
30443W        W98784   1.810  13.315   5.317
30444W        W98785   8.327  22.562   2.183
30445W        W98786  20.768  40.863   0.745
30446W        W98787  21.727   1.972  13.855
30447W        W98788  37.997  15.728   3.363
30448W        W98789  29.996  30.588   4.697
30449W        W98790   2.912  25.038  12.399
30450W        W98791   7.349   2.419  10.516
30451W        W98792  31.532   9.738  14.513
30452W        W98793  33.909  31.013   2.872
30453W        W98794  23.521  42.468  11.562
30454W        W98795  19.538  18.678   4.205
30455W        W98796  22.090  25.081   1.932
30456W        W98797   8.303  28.536   0.943
30457W        W98798  23.222  26.140   1.359
30458W        W98799  23.679  32.448  12.080
30459W        W98800  18.591  44.791  11.909
30460W        W98801  18.710  11.645  12.352
30461W        W98802   1.310  23.142   0.843
30462W        W98803   6.745  44.454  10.546
30463W        W98804   8.701  13.641   2.209
30464W        W98805  31.570  10.328  13.527
30465W        W98806  36.506  29.475  13.929
30466W        W98807  30.501  12.238  10.620
30467W        W98808  43.447  17.209   2.882
30468W        W98809   4.225  44.342  10.119
30469W        W98810  37.529  40.382   2.739
30470W        W98811  13.172  20.564  11.050
30471W        W98812   3.955  41.439   0.818
30472W        W98813  10.809  38.820  14.861
30473W        W98814   8.896  10.838   2.228
30474W        W98815  28.132  38.534   4.683
30475W        W98816  43.270   3.880  13.802
30476W        W98817  33.486   0.451  13.358
30477W        W98818  20.636  36.056   1.838
30478W        W98819   4.363  26.625   2.794
30479W        W98820   1.309  26.655  12.345
30480W        W98821  23.053  40.825  12.895
30481W        W98822  25.098  22.548   1.727
30482W        W98823   4.910  39.914   3.339
30483W        W98824  40.415  13.256  13.951
30484W        W98825   5.339  37.981  10.429
30485W        W98826  36.479  21.064  11.947
30486W        W98827  31.531  35.532  12.501
30487W        W98828  19.281   2.376  12.877
30488W        W98829  30.447   1.295  14.921
30489W        W98830   5.204  32.540  11.974
30490W        W98831  40.994   1.973   0.453
30491W        W98832  41.490  39.951  10.427
30492W        W98833  20.030  32.545  11.904
30493W        W98834   3.732   6.361   4.744
30494W        W98835  23.603  42.987   3.739
30495W        W98836   0.922  24.204  10.150
30496W        W98837   3.284  40.517  11.968
30497W        W98838   8.790  13.285   4.159
30498W        W98839  17.229  12.805  11.964
30499W        W98840   0.287  23.241   2.399
30500W        W98841  12.640  38.528  12.084
30501W        W98842  31.898  35.016   2.299
30502W        W98843   0.318  20.667   4.793
30503W        W98844  41.406   7.329  11.915
30504W        W98845  11.176  35.439  11.956
30505W        W98846  20.580  28.023  11.923
30506W        W98847   5.786   9.817  12.428
30507W        W98848   6.840  30.637  11.562
30508W        W98849  42.784  37.995   3.631
30509W        W98850  16.297  25.501   4.222
30510W        W98851  31.914  17.720  11.922
30511W        W98852   4.843   1.791  12.574
30512W        W98853  28.117  40.031   2.890
30513W        W98854  12.315  34.441   1.715
30514W        W98855  22.647  39.556   1.711
30515W        W98856  19.651   9.302  10.553
30516W        W98857  38.902   6.201   4.277
30517W        W98858  38.031  34.572  12.918
30518W        W98859  37.537  11.810   5.205
30519W        W98860   5.203   1.279   2.245
30520W        W98861  20.694  36.008  14.464
30521W        W98862  23.663  20.215   3.231
30522W        W98863   0.890  24.685   1.853
30523W        W98864  44.874   2.820  12.500
30524W        W98865  35.364  12.126  12.825
30525W        W98866  15.818  14.806  10.632
30526W        W98867  34.394   2.800   1.297
30527W        W98868   9.184  41.876  11.409
30528W        W98869  37.862  16.196  13.379
30529W        W98870  10.865  30.951  10.955
30530W        W98871  26.049  23.011  13.836
30531W        W98872  11.371  34.434   0.286
30532W        W98873  18.582  38.367  14.853
30533W        W98874   3.773  44.920  14.897
30534W        W98875  28.622   9.293   1.262
30535W        W98876  35.440  21.638  11.035
30536W        W98877  18.186  20.616   1.214
30537W        W98878  16.760  30.033  12.565
30538W        W98879  33.412   1.901  13.308
30539W        W98880  23.717  31.405  10.950
30540W        W98881  32.530  28.136   1.394
30541W        W98882  24.584  30.499  13.811
30542W        W98883  35.490  23.501   3.193
30543W        W98884  14.224  21.232  10.514
30544W        W98885  34.028  29.983  11.095
30545W        W98886  33.974  39.871  14.286
30546W        W98887  11.282  26.468  13.846
30547W        W98888   2.369  43.424   2.844
30548W        W98889  44.797   9.862  13.030
30549W        W98890  28.538  15.807  14.874
30550W        W98891  25.109  11.706   0.757
30551W        W98892  22.514  10.279  10.457
30552W        W98893   3.357  40.049   4.273
30553W        W98894  30.649  26.460   3.260
30554W        W98895   1.769  43.822  10.576
30555W        W98896  41.993  33.901  11.050
30556W        W98897  32.106  44.979   2.788
30557W        W98898  43.920  20.170   1.226
30558W        W98899  38.937  43.974  14.422
30559W        W98900  25.079  16.209  13.833
30560W        W98901  38.962  23.085   3.365
30561W        W98902  23.579  44.811  14.497
30562W        W98903   7.284  24.187  12.385
30563W        W98904  12.686  10.209  14.895
30564W        W98905  42.927   5.725  13.341
30565W        W98906   8.842  10.357   4.748
30566W        W98907  28.632  44.867   4.756
30567W        W98908  29.446  10.316  12.008
30568W        W98909  21.706   6.268   0.295
30569W        W98910   9.385  33.046   2.250
30570W        W98911  31.979  21.202  12.015
30571W        W98912  34.054  38.547   1.294
30572W        W98913  21.585  14.100  14.512
30573W        W98914   6.722  17.802   1.872
30574W        W98915   1.926   6.878   1.242
30575W        W98916   2.936  15.156  12.004
30576W        W98917  37.927   0.919   2.887
30577W        W98918  44.908  15.141  14.423
30578W        W98919  19.182  17.626   3.369
30579W        W98920  11.687  31.007  10.540
30580W        W98921   7.827   7.847  10.889
30581W        W98922  26.000  30.917   4.135
30582W        W98923  15.107  10.700   2.328
30583W        W98924  32.565  19.687   0.927
30584W        W98925  21.229  20.061   1.222
30585W        W98926  17.200  18.268   3.677
30586W        W98927  30.554   0.954  11.492
30587W        W98928  30.578  13.650  13.800
30588W        W98929   0.803  33.076   1.349
30589W        W98930  27.515  39.506  13.420
30590W        W98931   3.234  19.779  14.498
30591W        W98932  11.128  44.991  13.375
30592W        W98933   5.772  18.587  14.295
30593W        W98934  23.151  37.524   2.417
30594W        W98935   8.343   8.768  14.364
30595W        W98936  16.228  29.012   3.810
30596W        W98937  15.806   7.272   0.459
30597W        W98938  15.782  43.381   1.776
30598W        W98939   5.396   9.887   4.633
30599W        W98940   3.836  39.933   0.780
30600W        W98941  40.831  38.936  13.904
30601W        W98942   7.325  37.522   0.316
30602W        W98943  43.303  42.506  13.476
30603W        W98944  15.220  10.285   1.441
30604W        W98945  15.210  19.722   2.772
30605W        W98946  43.790  14.166   0.288
30606W        W98947   2.745  37.906   2.388
30607W        W98948  38.028  36.534  10.954
30608W        W98949  33.886   9.767   3.641
30609W        W98950  10.303   3.865  13.969
30610W        W98951   1.907  33.463   3.372
30611W        W98952  42.393  26.610   0.912
30612W        W98953  43.466  42.328  12.979
30613W        W98954  16.709  40.976   1.293
30614W        W98955  36.854   2.879  14.872
30615W        W98956  32.899  23.641   2.368
30616W        W98957  24.986  39.323   2.235
30617W        W98958  35.040  24.021  14.299
30618W        W98959  25.522  22.716   2.216
30619W        W98960  11.850   3.323  11.123
30620W        W98961  21.596   2.920  11.060
30621W        W98962  20.272  42.981  10.149
30622W        W98963  39.018  22.093  10.991
30623W        W98964  11.268  16.163   2.813
30624W        W98965  29.070  32.581  14.390
30625W        W98966  22.698  34.930  14.802
30626W        W98967   9.873  36.927   3.774
30627W        W98968  23.033   2.471   2.318
30628W        W98969  17.564  28.458   0.266
30629W        W98970   7.689  37.534   0.890
30630W        W98971   1.304  25.170   2.252
30631W        W98972  19.586  37.978  14.423
30632W        W98973  22.651  19.222   0.908
30633W        W98974   5.829   2.873   2.206
30634W        W98975   7.763  39.431   2.338
30635W        W98976  23.560  11.360  14.914
30636W        W98977   2.833   4.846  14.921
30637W        W98978  33.082  24.545   2.873
30638W        W98979  21.718  22.098  13.339
30639W        W98980  24.500  22.216   0.419
30640W        W98981  31.451  15.770   4.646
30641W        W98982   5.933  15.278   1.728
30642W        W98983  39.883   1.949   4.749
30643W        W98984   3.773   8.719  13.331
30644W        W98985  22.143   8.264   3.785
30645W        W98986  18.590  42.876  13.935
30646W        W98987  34.989  44.874  13.348
30647W        W98988  30.910  36.555   2.409
30648W        W98989  31.072  32.985  14.030
30649W        W98990  36.935   3.411  11.091
30650W        W98991  40.331  14.798   4.791
30651W        W98992  30.080   8.792   3.745
30652W        W98993  40.527  29.065   0.464
30653W        W98994  16.754  34.481  13.323
30654W        W98995   0.904  39.541  11.008
30655W        W98996  12.833  16.607  11.960
30656W        W98997  13.340   0.451  14.293
30657W        W98998  18.629  11.346   2.853
30658W        W98999   8.813  41.000  14.869
30659W        W99000  38.472  11.846   0.831
30660W        W99001   3.765  27.549   2.259
30661W        W99002  22.560  35.106   4.215
30662W        W99003  24.049  34.110   0.395
30663W        W99004  16.713  44.348   3.321
30664W        W99005   3.388  28.131  10.557
30665W        W99006  38.505  25.098  11.478
30666W        W99007   0.936  40.421  11.075
30667W        W99008  43.425  42.922   4.749
30668W        W99009  34.578  32.935   3.756
30669W        W99010   8.366   9.173  12.466
30670W        W99011   3.900   1.840  14.513
30671W        W99012  30.635  34.964  12.947
30672W        W99013  35.498  26.058   2.887
30673W        W99014  42.509   9.276  12.079
30674W        W99015  14.116  14.814  11.598
30675W        W99016  36.400  13.133   2.378
30676W        W99017  34.041   9.235   3.637
30677W        W99018  34.545  15.302  14.377
30678W        W99019  25.561  20.719   1.253
30679W        W99020  11.305  27.524   3.828
30680W        W99021  12.332  40.988  12.474
30681W        W99022  23.199  16.084   9.630
30682W        W99023   6.415  36.093  14.406
30683W        W99024  21.018  21.523   3.831
30684W        W99025  24.082  24.673  10.550
30685W        W99026  36.488  27.552   1.890
30686W        W99027  26.074  26.460  10.962
30687W        W99028  23.691  33.018  11.499
30688W        W99029  35.457  30.636   0.939
30689W        W99030  23.505  37.026   0.417
30690W        W99031  43.321  24.493   4.721
30691W        W99032  38.930  24.591  12.040
30692W        W99033   2.829  19.241   5.139
30693W        W99034  19.536  36.463  13.044
30694W        W99035  10.752  43.851  14.415
30695W        W99036  37.490  43.907   2.692
30696W        W99037  12.330  14.308  11.079
30697W        W99038  20.182  28.971   2.666
30698W        W99039  17.078  40.822   4.802
30699W        W99040  12.629  28.008   2.351
30700W        W99041  19.254  28.645  11.459
30701W        W99042   8.673   6.271   0.857
30702W        W99043   4.826  38.384   1.287
30703W        W99044   0.360   3.407   4.607
30704W        W99045  25.651   4.773   4.788
30705W        W99046  12.665  29.499   2.215
30706W        W99047  30.943  15.123   0.351
30707W        W99048   3.903   3.845   4.636
30708W        W99049  37.009  41.295   1.725
30709W        W99050   2.361  14.598   2.226
30710W        W99051  14.108  16.173  13.796
30711W        W99052  26.479   9.654   1.429
30712W        W99053  29.503   7.191   4.834
30713W        W99054   1.862  21.251   1.694
30714W        W99055  39.536   1.294  10.436
30715W        W99056  31.113   0.355  14.885
30716W        W99057   2.359  36.942  12.823
30717W        W99058  25.020   9.294   5.221
30718W        W99059  34.987   3.725   3.831
30719W        W99060  39.886  43.380   9.500
30720W        W99061  22.244  35.371   1.444
30721W        W99062  28.953   2.273   0.347
30722W        W99063   7.910  20.751   1.714
30723W        W99064  19.768   4.934   2.405
30724W        W99065  43.418  38.926  10.087
30725W        W99066  10.253  28.628  14.491
30726W        W99067  13.825  15.676   1.436
30727W        W99068  16.296  31.570  10.554
30728W        W99069  13.635  30.596   4.814
30729W        W99070   0.333  21.042   1.266
30730W        W99071  25.034  42.793  13.444
30731W        W99072  14.175  10.789  13.538
30732W        W99073  26.046  25.123   0.818
30733W        W99074  40.972  21.559   4.255
30734W        W99075   3.931  42.326  12.853
30735W        W99076  10.314  42.425  13.861
30736W        W99077  10.309  17.246   1.420
30737W        W99078  24.148  23.216  13.334
30738W        W99079  32.064   1.739   2.278
30739W        W99080  35.936   5.862  10.988
30740W        W99081  15.216  37.005   4.354
30741W        W99082  27.951  23.702   3.777
30742W        W99083  21.560  13.244  12.546
30743W        W99084  29.991   7.275  13.316
30744W        W99085  42.015   9.260   4.147
30745W        W99086  43.985   3.280   0.766
30746W        W99087  24.125   6.715  12.386
30747W        W99088  28.549  43.964   1.932
30748W        W99089   0.847  33.566   5.111
30749W        W99090   3.858  28.960  11.974
30750W        W99091  29.067  16.579  11.901
30751W        W99092  19.169  10.314  11.110
30752W        W99093  17.291  26.995  11.569
30753W        W99094  11.823  25.032  13.808
30754W        W99095  42.800  28.976   0.434
30755W        W99096  31.487  39.315  13.900
30756W        W99097  22.514   5.852   2.800
30757W        W99098  27.455  28.488   2.705
30758W        W99099  37.931  13.830  13.946
30759W        W99100  43.883  40.041   3.154
30760W        W99101  39.856  36.354   2.341
30761W        W99102  25.993  11.148  11.590
30762W        W99103  38.990  12.214  10.581
30763W        W99104  39.517   3.776   4.755
30764W        W99105  37.972  23.545  12.488
30765W        W99106  27.083  28.478   3.214
30766W        W99107  32.975   6.753   1.240
30767W        W99108  38.540   9.652  13.042
30768W        W99109  37.371  28.159   4.788
30769W        W99110  16.229  21.062  11.994
30770W        W99111  33.403  10.751  13.545
30771W        W99112  36.016  40.848   1.358
30772W        W99113  19.261  25.488  13.861
30773W        W99114  27.138  23.663  11.501
30774W        W99115  25.031  19.131  10.967
30775W        W99116   7.250  23.012   1.906
30776W        W99117  20.753   8.293  13.345
30777W        W99118  23.643  23.521  13.019
30778W        W99119  32.024  23.621  12.350
30779W        W99120  32.574  44.922  10.988
30780W        W99121   8.296  18.685   3.375
30781W        W99122  20.599  16.168   0.790
30782W        W99123  10.855  10.685   1.387
30783W        W99124  39.965  30.089  13.020
30784W        W99125  18.056  34.951  14.998
30785W        W99126  43.827  37.859  12.053
30786W        W99127  18.252  20.185  10.922
30787W        W99128   0.894  23.559  11.963
30788W        W99129   3.714   1.893  13.809
30789W        W99130  10.653  39.809   2.856
30790W        W99131  38.539  17.109   1.900
30791W        W99132  29.028  10.191  12.042
30792W        W99133   5.756  12.750   1.792
30793W        W99134  40.467   6.428  12.979
30794W        W99135  41.021  19.153   1.362
30795W        W99136   2.855  27.071   3.689
30796W        W99137  42.397  12.631   2.698
30797W        W99138  14.730  29.531  12.469
30798W        W99139  36.378  34.431  14.392
30799W        W99140  14.676  34.487   3.842
30800W        W99141   5.812  35.036  12.565
30801W        W99142  42.379  10.641  10.451
30802W        W99143   8.830   1.746  12.999
30803W        W99144  33.511  29.105  14.843
30804W        W99145  44.985  16.685   4.328
30805W        W99146  19.180  19.051  10.998
30806W        W99147   2.410   7.742   3.815
30807W        W99148  10.279  31.406   3.327
30808W        W99149  21.513   2.946  12.545
30809W        W99150  42.417  36.971  12.497
30810W        W99151  31.635  10.262  10.901
30811W        W99152  41.364   8.782  10.939
30812W        W99153  14.316  41.796  10.498
30813W        W99154  19.199  24.152  14.361
30814W        W99155   5.225  12.317   4.651
30815W        W99156  20.582   4.340  10.974
30816W        W99157  24.678  29.086   1.247
30817W        W99158   6.215  22.561  10.998
30818W        W99159  44.863  31.985   4.599
30819W        W99160  34.382  25.679   2.388
30820W        W99161  32.021   8.230   3.661
30821W        W99162  17.296  21.711   3.227
30822W        W99163  22.074  18.703   5.744
30823W        W99164   0.805  14.656  11.588
30824W        W99165  16.243   1.968   1.917
30825W        W99166   0.276   3.274   4.226
30826W        W99167  35.488  39.957  11.009
30827W        W99168  12.343  10.159  11.459
30828W        W99169  19.736  35.529  12.990
30829W        W99170   7.374   6.824   0.441
30830W        W99171  44.794  40.813  13.872
30831W        W99172  19.777  44.384  15.000
30832W        W99173  36.042   5.403   0.375
30833W        W99174  39.018  42.510   4.811
30834W        W99175  35.086   8.397   3.694
30835W        W99176  37.991  21.565   4.316
30836W        W99177   7.746  28.555  11.573
30837W        W99178  19.662  24.609  10.560
30838W        W99179  40.989   9.167  11.602
30839W        W99180  11.311  41.814   2.750
30840W        W99181   2.263  19.182   9.581
30841W        W99182   3.302  23.646   1.298
30842W        W99183  15.218  12.205   1.268
30843W        W99184  39.537  21.029   1.228
30844W        W99185  20.102  18.737  13.360
30845W        W99186   0.976  32.482   2.696
30846W        W99187  34.492  43.769   0.743
30847W        W99188  21.540  44.398  13.381
30848W        W99189  44.427   9.253   0.378
30849W        W99190  32.037   3.747  10.967
30850W        W99191   9.335  27.579   1.737
30851W        W99192   4.258  43.005   2.341
30852W        W99193  28.501  20.757   4.117
30853W        W99194  38.376  29.131  12.908
30854W        W99195  21.663  20.088  11.493
30855W        W99196  21.635  32.996   1.339
30856W        W99197  21.665  15.089   1.420
30857W        W99198  12.207  14.754  13.889
30858W        W99199   1.795   6.730  14.321
30859W        W99200  14.702   6.873   0.464
30860W        W99201  28.608  10.632   1.706
30861W        W99202  18.713  10.335  13.008
30862W        W99203  30.946  33.474   1.296
30863W        W99204  32.576  11.857   1.767
30864W        W99205  28.973  43.340   3.755
30865W        W99206  37.433  39.847  12.048
30866W        W99207  38.376  28.951  13.430
30867W        W99208   8.724   4.832  14.834
30868W        W99209  24.010  10.670   3.224
30869W        W99210  11.209   4.383  10.524
30870W        W99211  19.062   4.298  12.981
30871W        W99212  26.142  31.101   2.745
30872W        W99213  33.454  10.244   4.249
30873W        W99214   3.325   7.293  10.052
30874W        W99215  17.746  36.508   2.732
30875W        W99216   4.256  15.309   0.432
30876W        W99217  35.483  21.633  13.990
30877W        W99218   8.378  44.263   4.735
30878W        W99219  17.180  38.951   1.777
30879W        W99220   0.756  25.105   1.285
30880W        W99221  44.889   6.692  13.823
30881W        W99222   9.698   9.658   0.827
30882W        W99223  34.052  33.007   0.388
30883W        W99224   2.817  35.559  11.033
30884W        W99225  43.004  42.444   4.260
30885W        W99226  35.380  42.520   3.677
30886W        W99227  30.109  44.387   1.850
30887W        W99228  10.274  27.488  12.980
30888W        W99229  31.145  31.929  11.974
30889W        W99230   7.180   6.353   2.189
30890W        W99231  39.425  11.781  11.912
30891W        W99232  35.493  17.207  11.887
30892W        W99233  12.647  21.067   0.370
30893W        W99234  32.394  28.102   4.204
30894W        W99235  22.744   0.900  11.966
30895W        W99236  34.469  13.278   3.857
30896W        W99237   8.210  20.565   2.247
30897W        W99238  27.589  24.513  13.313
30898W        W99239  11.142   9.219   0.383
30899W        W99240  29.103  43.958   3.804
30900W        W99241  42.398  32.937  10.998
30901W        W99242  17.105  39.505  12.058
30902W        W99243  13.609  42.470   0.775
30903W        W99244  28.631  35.397   2.837
30904W        W99245  18.720   1.295   3.357
30905W        W99246  33.518  40.993  13.032
30906W        W99247  25.549  32.901  11.504
30907W        W99248  43.862   8.804  13.368
30908W        W99249  32.012  36.064   0.390
30909W        W99250  12.754  43.447  13.324
30910W        W99251  30.496  18.744   0.379
30911W        W99252   0.750  34.909  14.459
30912W        W99253  10.369  14.235   4.240
30913W        W99254  39.487   4.921   3.686
30914W        W99255   1.274  20.652  14.808
30915W        W99256   6.688   1.962  11.495
30916W        W99257  34.977  38.066  12.877
30917W        W99258   1.336  15.216  10.612
30918W        W99259  24.214   1.886  14.771
30919W        W99260  44.964  35.925   1.367
30920W        W99261  41.798  33.001   0.279
30921W        W99262   5.695  40.463   2.735
30922W        W99263  41.017  11.364  13.043
30923W        W99264  43.273  25.040   0.921
30924W        W99265  14.767  16.796   0.428
30925W        W99266  30.451  10.313  14.381
30926W        W99267  41.336  16.624  11.483
30927W        W99268   3.372  11.803   5.129
30928W        W99269  12.184  31.940   1.300
30929W        W99270  39.357  12.142  14.460
30930W        W99271  29.492   6.852   3.179
30931W        W99272  38.347   7.792   1.904
30932W        W99273  11.357   9.226   4.131
30933W        W99274  23.662  12.223  13.903
30934W        W99275  44.423  31.046  12.424
30935W        W99276  30.476   0.317   1.869
30936W        W99277  30.934  17.125  12.088
30937W        W99278  39.003   0.805  12.010
30938W        W99279  31.532  39.348  12.070
30939W        W99280  19.048   2.746  10.571
30940W        W99281   8.715   0.770  13.983
30941W        W99282  36.349  29.482   4.704
30942W        W99283  31.049  35.483  11.882
30943W        W99284  20.622  13.111  13.022
30944W        W99285  30.489  13.808  14.497
30945W        W99286  16.254  32.981  13.996
30946W        W99287  22.738  38.837   1.392
30947W        W99288  44.981  29.040   0.950
30948W        W99289  36.581  28.017   3.243
30949W        W99290  36.481  10.648  14.876
30950W        W99291  10.145  13.143   2.237
30951W        W99292  16.693   1.830  12.991
30952W        W99293   2.345   6.857  13.904
30953W        W99294  19.235  27.096   0.876
30954W        W99295  27.546  18.629  12.024
30955W        W99296  14.826  30.937  11.008
30956W        W99297   9.325   5.707   1.394
30957W        W99298  39.455  23.061   4.614
30958W        W99299  17.673  35.435  10.954
30959W        W99300  32.412   4.729   9.923
30960W        W99301  13.628  44.297  12.533
30961W        W99302  22.199  23.696   4.294
30962W        W99303  31.965   3.419  12.983
30963W        W99304  34.480  29.060   0.341
30964W        W99305  25.069  10.829   0.779
30965W        W99306  15.745  16.665   1.265
30966W        W99307  19.598  25.646   4.296
30967W        W99308   3.452  37.987  10.451
30968W        W99309  42.477  14.328  13.037
30969W        W99310  18.735   7.237  10.010
30970W        W99311  33.998  29.596  10.584
30971W        W99312   6.769  41.514   3.672
30972W        W99313  17.637  41.010   1.210
30973W        W99314  11.708  44.828  12.824
30974W        W99315  20.759  15.674   4.714
30975W        W99316  12.362  40.001  10.947
30976W        W99317   9.865   1.825  13.854
30977W        W99318   1.741  37.083  13.345
30978W        W99319  15.633  30.124   1.351
30979W        W99320  12.258   4.294  11.386
30980W        W99321  37.040   0.889  14.946
30981W        W99322  18.226  36.529   2.742
30982W        W99323  27.009  42.013   3.185
30983W        W99324  21.145   4.293   1.263
30984W        W99325   4.707  13.603   3.380
30985W        W99326  25.498  15.596   4.686
30986W        W99327  28.614  19.265  14.274
30987W        W99328  36.553  42.482   1.320
30988W        W99329   4.355  21.520   3.305
30989W        W99330  34.883  33.951  14.398
30990W        W99331  17.212   7.279  14.998
30991W        W99332  23.015  31.147   3.860
30992W        W99333  18.140   1.277   1.874
30993W        W99334   6.701   8.686   2.686
30994W        W99335  27.653  35.408   0.414
30995W        W99336  42.463  21.622  10.568
30996W        W99337  30.625  34.510  11.569
30997W        W99338  16.158  28.930  11.949
30998W        W99339  16.590  11.354   1.883
30999W        W99340  30.446   9.241   0.937
31000W        W99341  15.791  34.943  10.430
31001W        W99342  29.174  16.276   1.712
31002W        W99343  40.466   0.297   4.315
31003W        W99344   2.800  43.804  10.970
31004W        W99345  18.556  31.980   1.281
31005W        W99346   8.696  23.140   4.816
31006W        W99347  29.004  28.147   3.209
31007W        W99348  23.635  44.800  11.912
31008W        W99349  44.859  34.896   0.913
31009W        W99350  19.056  21.668   5.581
31010W        W99351  24.646  35.403   1.416
31011W        W99352   5.292  19.234  12.023
31012W        W99353  40.526  41.961   1.856
31013W        W99354   4.874  10.877   3.256
31014W        W99355  24.667  15.232   4.328
31015W        W99356  11.665  25.039  14.986
31016W        W99357  32.579  22.159   2.186
31017W        W99358  44.839  36.086  13.025
31018W        W99359  42.878  42.391  11.955
31019W        W99360  41.418  37.428   4.132
31020W        W99361  28.622  14.812   0.340
31021W        W99362  27.995   5.313  12.860
31022W        W99363   3.430  18.279  12.479
31023W        W99364   3.824   3.767  12.007
31024W        W99365   9.247   7.364  10.582
31025W        W99366  44.311  40.482  12.541
31026W        W99367  34.940  24.620  14.512
31027W        W99368  38.827  20.526   3.789
31028W        W99369  14.670   3.426  13.371
31029W        W99370  36.024  43.773  13.842
31030W        W99371  36.429  26.537   2.670
31031W        W99372  41.933  12.747   2.793
31032W        W99373   1.778  31.032  14.509
31033W        W99374  12.704  37.470  11.113
31034W        W99375  34.484  15.176   0.470
31035W        W99376  36.497  35.904  12.386
31036W        W99377   3.788  29.482   2.312
31037W        W99378  21.609  44.304   1.867
31038W        W99379  23.997   6.422   4.153
31039W        W99380  34.509  22.091   4.340
31040W        W99381  29.995  36.421   4.813
31041W        W99382  17.169   8.721   2.343
31042W        W99383  18.593  32.042   4.284
31043W        W99384   9.784   5.777  14.397
31044W        W99385  21.219  34.972   1.423
31045W        W99386  41.038  44.433  13.961
31046W        W99387  38.045   9.787   1.761
31047W        W99388   5.838   4.326   1.394
31048W        W99389  29.071  23.648   1.741
31049W        W99390  12.684  12.126  13.403
31050W        W99391   3.871   9.870  14.992
31051W        W99392  43.393  18.248  11.951
31052W        W99393  38.464  44.391  10.626
31053W        W99394  40.020  10.752   3.698
31054W        W99395   4.817  24.975  10.610
31055W        W99396  34.984  10.786  12.906
31056W        W99397  24.194  19.723  10.969
31057W        W99398  20.726   5.795   3.177
31058W        W99399   4.223  30.023   4.754
31059W        W99400  43.462  13.156  10.890
31060W        W99401   5.832   7.841  10.530
31061W        W99402  39.000  33.073  13.009
31062W        W99403  27.022  20.135   4.608
31063W        W99404  15.703  29.451   1.782
31064W        W99405  19.587  42.994  12.916
31065W        W99406  19.608   3.373  14.991
31066W        W99407  12.229  41.911  13.991
31067W        W99408  36.910  32.131   0.286
31068W        W99409  31.542  26.038  12.463
31069W        W99410  44.950   2.736   1.892
31070W        W99411  11.166  24.103  11.006
31071W        W99412  16.126  23.531  10.626
31072W        W99413  33.427  31.443  11.987
31073W        W99414  25.993  34.512   1.334
31074W        W99415  27.140   2.967  10.539
31075W        W99416  42.282  25.160   1.243
31076W        W99417  17.658  42.486  12.495
31077W        W99418   0.881  26.648  12.535
31078W        W99419  28.081  18.182  12.074
31079W        W99420  22.193   2.329  12.925
31080W        W99421  35.978  21.207   2.747
31081W        W99422   6.270   5.282   3.729
31082W        W99423  18.060  31.438   1.856
31083W        W99424   9.734  25.025  14.961
31084W        W99425  27.075  40.852  13.914
31085W        W99426  24.672  11.277  12.396
31086W        W99427  43.003  34.047   2.900
31087W        W99428  18.193  28.100  14.004
31088W        W99429  23.039  44.452   4.644
31089W        W99430  30.464  36.559   0.298
31090W        W99431  18.566  24.665   3.386
31091W        W99432  43.016  33.044  14.278
31092W        W99433  35.479  43.970   4.697
31093W        W99434   2.227  15.795   0.467
31094W        W99435  44.308  21.584   9.955
31095W        W99436  28.606  14.298  13.469
31096W        W99437  29.549   2.332   0.842
31097W        W99438  19.152  42.353  10.911
31098W        W99439  28.091  29.963   2.728
31099W        W99440  15.735   4.849  12.045
31100W        W99441  17.658  24.484  13.891
31101W        W99442  20.231  11.770   4.820
31102W        W99443  33.538  35.472  12.972
31103W        W99444  10.368  42.429   4.631
31104W        W99445  19.208  42.520  13.942
31105W        W99446  24.659   5.235  11.926
31106W        W99447   4.718   6.255  13.984
31107W        W99448  16.119  26.568   0.961
31108W        W99449   9.219  13.254   1.768
31109W        W99450  22.116  18.073   3.284
31110W        W99451  20.580  29.506  14.301
31111W        W99452  37.546  13.122  13.826
31112W        W99453   6.885   8.316  12.446
31113W        W99454  32.608  33.016  13.841
31114W        W99455  24.152   7.185  13.393
31115W        W99456   9.813   9.735   9.474
31116W        W99457   2.401  15.682  11.569
31117W        W99458  31.957  29.585   1.338
31118W        W99459  26.467  29.589  14.945
31119W        W99460  33.884   0.440  14.391
31120W        W99461   9.268  17.645   1.370
31121W        W99462  23.049  28.947   3.676
31122W        W99463  36.542  11.163  10.997
31123W        W99464  26.487  24.201  10.409
31124W        W99465  12.301  40.387   1.345
31125W        W99466  18.233   1.940  13.450
31126W        W99467  20.634  13.662  13.480
31127W        W99468  15.113  19.725   3.290
31128W        W99469  36.038  31.106   0.731
31129W        W99470  42.418   7.238   4.732
31130W        W99471  41.511  42.350   1.768
31131W        W99472  25.034   7.908  14.865
31132W        W99473   8.309   3.360  10.513
31133W        W99474   1.813   7.359   4.774
31134W        W99475  39.917   8.289   3.732
31135W        W99476  21.149  24.703  13.346
31136W        W99477  40.957  28.581   4.221
31137W        W99478  23.513  16.241   3.379
31138W        W99479  22.592  21.630   0.883
31139W        W99480  31.642  43.891   3.367
31140W        W99481   0.917   3.800   4.145
31141W        W99482  18.788  27.967   0.463
31142W        W99483  37.338   7.383  11.055
31143W        W99484  15.775  38.907   3.343
31144W        W99485   9.309  11.748   4.117
31145W        W99486  22.017  16.757  10.977
31146W        W99487  17.651  25.613   0.785
31147W        W99488   5.244  26.550  13.540
31148W        W99489   1.343  19.685  13.957
31149W        W99490  18.687  31.591  14.374
31150W        W99491   6.207   4.212   0.337
31151W        W99492  37.408  16.651   1.793
31152W        W99493  33.539   2.959  13.475
31153W        W99494  19.277  25.145   3.656
31154W        W99495  21.642  15.660   2.745
31155W        W99496  42.318  18.169  12.088
31156W        W99497  11.657  23.572  13.369
31157W        W99498  30.433   1.877  12.063
31158W        W99499  35.402  24.672  14.802
31159W        W99500   8.753  15.703  11.923
31160W        W99501   3.429  17.110   1.886
31161W        W99502  23.653  37.852  13.326
31162W        W99503   0.397  24.170   4.237
31163W        W99504   1.783  21.031  11.999
31164W        W99505   4.280  21.168  13.933
31165W        W99506  29.097  15.670   3.362
31166W        W99507  33.500  38.370  12.364
31167W        W99508  10.138  35.590   3.172
31168W        W99509  14.629  23.021  10.637
31169W        W99510   4.295  24.480   4.665
31170W        W99511   4.315  11.204   1.827
31171W        W99512   8.252   5.413   2.693
31172W        W99513  34.894  12.699   4.239
31173W        W99514   4.294  34.529  10.608
31174W        W99515  10.876  14.288   2.806
31175W        W99516  40.906   6.200   4.199
31176W        W99517  11.736  24.508   3.770
31177W        W99518  15.674  31.644   9.516
31178W        W99519  34.914  19.277   4.134
31179W        W99520  34.570  21.704  14.277
31180W        W99521  12.349  22.548  12.924
31181W        W99522  37.562  11.739   3.221
31182W        W99523  38.373  40.036  14.867
31183W        W99524   9.800  26.071  13.007
31184W        W99525  27.639  18.274  10.953
31185W        W99526  26.666  44.808  10.633
31186W        W99527   6.829  14.283   1.234
31187W        W99528   5.881  33.415  10.418
31188W        W99529  18.634  27.057   2.859
31189W        W99530  10.305   6.793   0.868
31190W        W99531  36.930  34.892  11.970
31191W        W99532   6.734  41.477   1.279
31192W        W99533  34.379  26.611   0.447
31193W        W99534   9.178  34.059  12.417
31194W        W99535  19.749  26.575  13.045
31195W        W99536   0.773  14.614  14.453
31196W        W99537  10.756  13.819   1.363
31197W        W99538  41.449  37.899  11.453
31198W        W99539  10.316   2.228  14.032
31199W        W99540  41.912   2.862  14.010
31200W        W99541  42.019  24.506  13.014
31201W        W99542  43.766  23.604  13.953
31202W        W99543  39.024  13.226  14.013
31203W        W99544  37.514   1.399  12.862
31204W        W99545  32.493  27.553   1.732
31205W        W99546  16.647  31.923   0.358
31206W        W99547  40.908   9.690   4.216
31207W        W99548  12.660  16.777  11.412
31208W        W99549  11.707  23.645   3.660
31209W        W99550  18.138  13.747  11.862
31210W        W99551   5.888  39.934  12.005
31211W        W99552  27.490  43.321  14.835
31212W        W99553  19.539  15.634  11.545
31213W        W99554  13.674  31.076  11.509
31214W        W99555  12.789  24.096  11.380
31215W        W99556  22.204   5.294   2.300
31216W        W99557  37.550  15.150  11.388
31217W        W99558  23.192  21.536   2.259
31218W        W99559  24.576  14.319   2.867
31219W        W99560  23.231   1.940   4.744
31220W        W99561  37.574  15.617   0.871
31221W        W99562  30.986   2.934   0.288
31222W        W99563  13.776   3.786   2.248
31223W        W99564   1.434  26.199   3.282
31224W        W99565  29.118  41.297   0.306
31225W        W99566   8.781  31.593   2.704
31226W        W99567  22.045  26.042  11.561
31227W        W99568   8.768  26.647  12.847
31228W        W99569  44.794  36.447  13.325
31229W        W99570   2.426   0.277   1.889
31230W        W99571  32.902  25.662   3.189
31231W        W99572  34.033   7.171  10.412
31232W        W99573  18.643   5.197  14.313
31233W        W99574   8.885  35.888   1.820
31234W        W99575  30.128  21.584  11.931
31235W        W99576  34.878  18.282  10.040
31236W        W99577  28.943   0.772  12.070
31237W        W99578   9.821   1.796   3.255
31238W        W99579   6.761  31.932  10.576
31239W        W99580   1.273  34.600  12.906
31240W        W99581   2.829  30.422  11.876
31241W        W99582  18.635  37.946   4.158
31242W        W99583  28.974  20.581  13.853
31243W        W99584  14.674  35.358   2.858
31244W        W99585  12.811  34.879   0.768
31245W        W99586   3.285  20.645   2.316
31246W        W99587  31.904  35.359   1.746
31247W        W99588  25.596  34.397  13.493
31248W        W99589   1.432  22.037   2.255
31249W        W99590  20.660  29.526  11.044
31250W        W99591  44.278  28.147   3.723
31251W        W99592  15.245  16.221   4.256
31252W        W99593   8.234  30.090   0.958
31253W        W99594   8.363  19.565  11.613
31254W        W99595  26.546   6.394   4.835
31255W        W99596  20.099  22.567   4.755
31256W        W99597  36.401  26.003   2.663
31257W        W99598  32.070   0.973  13.512
31258W        W99599  10.633  16.583  11.003
31259W        W99600  30.021  25.538   1.239
31260W        W99601  21.018  41.813   2.267
31261W        W99602  17.110  41.410   1.307
31262W        W99603  44.421  11.739   0.785
31263W        W99604  28.985   2.810  14.945
31264W        W99605  19.579  33.091   4.273
31265W        W99606  30.528  14.142   3.854
31266W        W99607   8.801   5.919   1.295
31267W        W99608  43.019  10.858  11.560
31268W        W99609  18.243  34.559   1.292
31269W        W99610  17.209  22.687   3.348
31270W        W99611   2.251  34.901  12.055
31271W        W99612   5.917  43.353  10.936
31272W        W99613  19.571  15.318   1.360
31273W        W99614  32.443   7.272   0.733
31274W        W99615  12.689   0.884   0.282
31275W        W99616  16.771  14.767  14.404
31276W        W99617  29.049  32.949   2.685
31277W        W99618  41.816  43.903  14.873
31278W        W99619  13.770   7.196   3.703
31279W        W99620  21.238  33.580  11.064
31280W        W99621   0.377  27.523   1.345
31281W        W99622  17.118  15.221  10.079
31282W        W99623   4.827  44.461   5.220
31283W        W99624  39.865  24.514  13.493
31284W        W99625  38.417  22.104   3.798
31285W        W99626  13.783  33.017   0.944
31286W        W99627  15.107   8.764  14.461
31287W        W99628  26.059  42.782  11.610
31288W        W99629  12.777  22.198  13.838
31289W        W99630  15.150  28.089   2.795
31290W        W99631  12.640  15.113  11.004
31291W        W99632  17.754  13.248   1.210
31292W        W99633   0.417  39.384  14.401
31293W        W99634   9.311   7.387  14.467
31294W        W99635  33.906  40.879  12.452
31295W        W99636  34.594  14.814   3.698
31296W        W99637  32.998  24.204   4.308
31297W        W99638  14.648  17.744   1.906
31298W        W99639  25.135  17.742   1.847
31299W        W99640  28.105  36.422  14.917
31300W        W99641  43.280  12.653   0.295
31301W        W99642  36.984  21.192   0.897
31302W        W99643  16.111  10.773   4.288
31303W        W99644  12.354   7.737  10.611
31304W        W99645  36.582  17.274   1.731
31305W        W99646  34.068   9.661  10.528
31306W        W99647  17.099   7.856  12.843
31307W        W99648   6.849  43.311   4.624
31308W        W99649  43.003   4.406   0.466
31309W        W99650  41.028  26.469   4.138
31310W        W99651  10.739  23.216  11.912
31311W        W99652  38.354  41.789  14.504
31312W        W99653  38.481  38.341  13.888
31313W        W99654  41.040  41.315   2.311
31314W        W99655  11.820  39.031   5.158
31315W        W99656  30.956  17.603   3.189
31316W        W99657   1.427  19.099  10.618
31317W        W99658  42.425  31.129  14.489
31318W        W99659  10.142  19.633   1.298
31319W        W99660   5.198  31.959  11.941
31320W        W99661  30.623   3.937  11.598
31321W        W99662  29.058  38.864  11.992
31322W        W99663  30.926  36.487   1.743
31323W        W99664  12.850   1.314   0.268
31324W        W99665  30.934   3.893   0.955
31325W        W99666  37.845  26.479   5.174
31326W        W99667  23.565  40.881  12.446
31327W        W99668  16.762  34.075  14.833
31328W        W99669  35.901  40.438   0.809
31329W        W99670  23.126  18.634   4.263
31330W        W99671   4.238  40.405   3.773
31331W        W99672   6.793  44.809  10.589
31332W        W99673  19.043  14.121  14.787
31333W        W99674  28.544  18.613  14.925
31334W        W99675  18.131  28.103   3.213
31335W        W99676  16.157  31.917   3.676
31336W        W99677   5.876  30.562  12.000
31337W        W99678  15.202  28.130   2.259
31338W        W99679  44.896   7.840   0.791
31339W        W99680  35.003  40.476   3.789
31340W        W99681  29.479  12.347   0.248
31341W        W99682  40.894  41.920   3.693
31342W        W99683  17.134   4.379  12.877
31343W        W99684  43.477  44.889  13.318
31344W        W99685  33.586  11.725  12.966
31345W        W99686  23.205  22.075   1.833
31346W        W99687  20.661  40.308  11.482
31347W        W99688  29.144  38.946  14.908
31348W        W99689  19.776  28.027   0.959
31349W        W99690  42.775  41.492   1.247
31350W        W99691  20.679  35.924   3.776
31351W        W99692  21.096  17.576  13.042
31352W        W99693  12.641  28.168   4.281
31353W        W99694   5.822  36.851  12.374
31354W        W99695  13.607  19.637  10.609
31355W        W99696  12.637  22.231  11.608
31356W        W99697   2.797  34.382  12.902
31357W        W99698  16.248  27.685   4.344
31358W        W99699   5.728  11.861  11.381
31359W        W99700  37.983   7.309   3.273
31360W        W99701  30.095  16.313   0.436
31361W        W99702  40.317  18.268  14.016
31362W        W99703  44.926  21.552  13.487
31363W        W99704  43.872  32.922   2.293
31364W        W99705  25.183  15.739  10.958
31365W        W99706  15.321  22.161   5.240
31366W        W99707  16.780  32.606   1.752
31367W        W99708  43.888  40.379  11.899
31368W        W99709  10.370   5.393   0.874
31369W        W99710   5.856  19.628  11.906
31370W        W99711   8.698   0.390  13.811
31371W        W99712  25.573   0.462  11.601
31372W        W99713  16.580  25.199   1.898
31373W        W99714  16.121   5.718   4.136
31374W        W99715  12.183   8.208  13.934
31375W        W99716  16.197  21.675   2.364
31376W        W99717   6.220  34.468  10.629
31377W        W99718  18.134  28.485   1.697
31378W        W99719  40.438  17.687   4.757
31379W        W99720   9.394  31.976   4.713
31380W        W99721  36.965  21.581   4.267
31381W        W99722  38.379  19.695   0.410
31382W        W99723  38.926  31.431   0.386
31383W        W99724  15.806  41.487  10.042
31384W        W99725  21.149  11.853   1.282
31385W        W99726   3.808  26.012  11.090
31386W        W99727  39.907  27.184  13.425
31387W        W99728  21.592  10.298  10.485
31388W        W99729  36.985  29.073   0.318
31389W        W99730  16.713  20.202   0.391
31390W        W99731   1.354  28.463  14.439
31391W        W99732  30.154  43.470  12.913
31392W        W99733  29.434   2.740  14.932
31393W        W99734  14.816   1.357   3.160
31394W        W99735  40.937  26.510  14.877
31395W        W99736  14.306  21.635  14.002
31396W        W99737  30.095  20.628   3.845
31397W        W99738  16.092  14.730   2.733
31398W        W99739   7.237  26.459  12.415
31399W        W99740  13.250   7.666   4.620
31400W        W99741  38.958  26.616  12.925
31401W        W99742  34.867  22.064   2.388
31402W        W99743   5.364  40.843  12.559
31403W        W99744  44.387  33.583  12.892
31404W        W99745  27.134  25.053  13.438
31405W        W99746  29.936  24.021  10.584
31406W        W99747  19.671  23.115  12.925
31407W        W99748  15.312   9.281  12.343
31408W        W99749  14.789  17.251  10.436
31409W        W99750  39.375  37.843  11.869
31410W        W99751  25.160  32.000   3.760
31411W        W99752  19.191   6.397  14.495
31412W        W99753  37.521  20.082  12.386
31413W        W99754   2.957  35.490   2.305
31414W        W99755  17.668   7.743   3.656
31415W        W99756  31.077  30.645  14.503
31416W        W99757  25.016  19.669   4.295
31417W        W99758   8.238  41.499   3.672
31418W        W99759  25.516  12.791   1.312
31419W        W99760  11.642  14.173  11.963
31420W        W99761  40.849  39.370  11.049
31421W        W99762   8.211   4.437  11.598
31422W        W99763  16.650  35.471   4.269
31423W        W99764  15.327   1.280  10.438
31424W        W99765   3.299   2.294  10.622
31425W        W99766  31.990  12.136   3.188
31426W        W99767  13.832  21.716  11.610
31427W        W99768  26.700  29.436   9.984
31428W        W99769  23.616   7.398  13.546
31429W        W99770  27.969  12.831   2.812
31430W        W99771  22.527  18.194  12.895
31431W        W99772  17.651  42.911  14.312
31432W        W99773  21.638  14.145  13.498
31433W        W99774  39.016  42.423   4.289
31434W        W99775  42.980  28.024  11.372
31435W        W99776  11.203  26.615  11.883
31436W        W99777  44.970  18.151   0.375
31437W        W99778  31.430  30.085  11.427
31438W        W99779   9.865  20.231  14.830
31439W        W99780  41.795   7.186   1.723
31440W        W99781  28.489  27.637  10.972
31441W        W99782   6.754  16.651   0.740
31442W        W99783  17.650  23.012  13.884
31443W        W99784   9.702  30.451   3.739
31444W        W99785  30.566  17.629   0.399
31445W        W99786  24.099  13.613  10.625
31446W        W99787  42.522   8.177  13.418
31447W        W99788   4.315  14.632  14.843
31448W        W99789  31.898   2.439   2.179
31449W        W99790  14.820  19.075  11.436
31450W        W99791  26.551  39.046  12.061
31451W        W99792  21.103  43.410   0.802
31452W        W99793  36.515  40.390  14.933
31453W        W99794  40.033  31.998  12.982
31454W        W99795  12.245  27.561   4.122
31455W        W99796   7.229   3.390  14.903
31456W        W99797  18.167  25.033  13.404
31457W        W99798  42.985  42.923  12.423
31458W        W99799  35.515  43.473   4.336
31459W        W99800  19.608  37.496   3.854
31460W        W99801  18.597  40.393  10.090
31461W        W99802  19.116   2.386   0.940
31462W        W99803  21.085  33.885   0.815
31463W        W99804   3.366  12.797   0.825
31464W        W99805   9.843  32.061  13.913
31465W        W99806  15.151  23.058  13.352
31466W        W99807  44.865   6.724  11.421
31467W        W99808  12.337  17.591   2.711
31468W        W99809  27.510  31.607   4.632
31469W        W99810  18.655  34.887  13.966
31470W        W99811  10.785  25.658   1.360
31471W        W99812  28.676  40.341  12.964
31472W        W99813   0.964  38.467   3.280
31473W        W99814  22.631  42.803  13.044
31474W        W99815   5.750  44.287   4.808
31475W        W99816  30.995  32.965  11.560
31476W        W99817   3.859  40.498  11.409
31477W        W99818  44.333   6.841  10.982
31478W        W99819  19.733  12.644  12.015
31479W        W99820  16.214  22.236  11.609
31480W        W99821  23.638  17.143  13.532
31481W        W99822  33.523  38.324  13.875
31482W        W99823  36.000   4.272  13.528
31483W        W99824  24.188   9.654  11.014
31484W        W99825  21.611  17.261   3.265
31485W        W99826  18.556  29.075  10.138
31486W        W99827  40.407  29.592  14.425
31487W        W99828  35.379  25.097   0.887
31488W        W99829   7.728  31.046   0.785
31489W        W99830  11.309  14.770   3.175
31490W        W99831  12.280  31.964  11.937
31491W        W99832  14.203  24.531  14.882
31492W        W99833  32.433  38.338  12.027
31493W        W99834   0.448  10.314  14.893
31494W        W99835  37.554   1.853   4.220
31495W        W99836  10.740   8.288   4.219
31496W        W99837  34.915  41.864  11.002
31497W        W99838  26.511  38.515  11.510
31498W        W99839  41.820  41.313   1.851
31499W        W99840  14.168  38.903  13.821
31500W        W99841   7.278  12.123  13.425
31501W        W99842  36.528  42.902  13.029
31502W        W99843  14.105  37.493   3.798
31503W        W99844  43.513   4.393   0.348
31504W        W99845  21.211  28.054  10.535
31505W        W99846  40.000  26.552   3.377
31506W        W99847  29.984  30.075   1.853
31507W        W99848  10.375  32.465   2.346
31508W        W99849   5.785  28.015  13.529
31509W        W99850  17.700   1.929  11.003
31510W        W99851  32.393  21.572  11.075
31511W        W99852   2.329  10.272   3.688
31512W        W99853  20.058  34.909   0.943
31513W        W99854  35.557  19.126  10.526
31514W        W99855  10.370   4.847  13.998
31515W        W99856  28.477  27.543   1.330
31516W        W99857  28.656  10.147   4.783
31517W        W99858  37.425  35.395   2.846
31518W        W99859  35.546  20.161  14.778
31519W        W99860   9.808  35.566   4.173
31520W        W99861  26.143   5.789   2.678
31521W        W99862   4.307   3.715  10.635
31522W        W99863   0.479  31.630   0.741
31523W        W99864   1.480  37.011  13.828
31524W        W99865  26.649   0.482  11.395
31525W        W99866  13.701  15.798  14.936
31526W        W99867  21.703   7.369  14.287
31527W        W99868  23.735  29.492  12.340
31528W        W99869  22.537  36.401   0.892
31529W        W99870  40.926  43.957  14.983
31530W        W99871  15.594   9.258   1.225
31531W        W99872  28.970   2.284  13.328
31532W        W99873   9.759  14.825  12.962
31533W        W99874  14.196   0.977  11.439
31534W        W99875   3.280  39.051   5.277
31535W        W99876  32.041  10.740   2.209
31536W        W99877  31.600  37.871  10.915
31537W        W99878  12.650   9.357  11.608
31538W        W99879  41.989  44.415  10.457
31539W        W99880  43.403  44.468   0.883
31540W        W99881  29.659  13.630   2.416
31541W        W99882  24.181   6.419  13.876
31542W        W99883  41.534  15.264   4.310
31543W        W99884   6.681  32.980  12.527
31544W        W99885   5.267   5.842  12.375
31545W        W99886  28.128  33.383   1.297
31546W        W99887  41.910  16.599  14.910
31547W        W99888  43.938  27.971  10.999
31548W        W99889   9.792  17.672   4.763
31549W        W99890  40.439  36.920  14.383
31550W        W99891  21.223  39.935   1.713
31551W        W99892  28.026  25.089   5.146
31552W        W99893  22.023  23.645  12.066
31553W        W99894  33.099   2.265  12.412
31554W        W99895  13.782  23.493   2.708
31555W        W99896  23.143  22.570  13.517
31556W        W99897  17.743  30.509   0.788
31557W        W99898  25.469   3.902  14.963
31558W        W99899  29.003  17.670  12.460
31559W        W99900  24.145  21.102   3.670
31560W        W99901  34.604  39.844   0.277
31561W        W99902  12.188  33.484   3.810
31562W        W99903   5.203  42.439   1.782
31563W        W99904  19.192  14.266   4.754
31564W        W99905   8.785  24.987  10.530
31565W        W99906  36.545  39.393   3.169
31566W        W99907  29.945  18.104  14.483
31567W        W99908  32.971  23.639   3.706
31568W        W99909  12.304  27.099  14.775
31569W        W99910  35.388  36.396  13.322
31570W        W99911  25.663   8.399  11.080
31571W        W99912  13.804  28.610   2.388
31572W        W99913  38.859  29.157  11.933
31573W        W99914   8.719   0.291   0.256
31574W        W99915  29.452   7.862   2.818
31575W        W99916  10.874  37.074   2.844
31576W        W99917  19.055  28.673   4.625
31577W        W99918  12.269  15.724   1.213
31578W        W99919   0.921  24.037  12.358
31579W        W99920  12.678   2.271  11.542
31580W        W99921  17.763  20.133   0.728
31581W        W99922  35.458  10.169  13.063
31582W        W99923  34.381  12.142   1.395
31583W        W99924  36.504  39.846  11.972
31584W        W99925  42.281  20.600   0.405
31585W        W99926   0.824  14.742  12.966
31586W        W99927  37.835  15.290  13.398
31587W        W99928  16.264   4.850  13.042
31588W        W99929  43.781  32.413   4.156
31589W        W99930   9.167   1.407   1.229
31590W        W99931  30.639  19.113   1.886
31591W        W99932  13.140   3.852   0.354
31592W        W99933  27.632  37.541   4.684
31593W        W99934   3.274  18.226   3.350
31594W        W99935  23.664  18.111  14.489
31595W        W99936  16.643  11.134   1.363
31596W        W99937  40.477  42.363  14.974
31597W        W99938  23.517  22.083   3.833
31598W        W99939  14.616  36.487   1.215
31599W        W99940   9.380  39.894   0.390
31600W        W99941  19.767  36.556   3.805
31601W        W99942  34.526  41.319   0.289
31602W        W99943  30.163   2.853   3.322
31603W        W99944  22.512   8.780   0.372
31604W        W99945   8.217   7.725  11.998
31605W        W99946  39.002  17.635  13.354
31606W        W99947  37.442  39.842   4.832
31607W        W99948  14.097  39.815   1.773
31608W        W99949   1.814   1.859  12.939
31609W        W99950  14.640   7.856   3.704
31610W        W99951   5.891  28.676  14.929
31611W        W99952  43.856  26.204  12.008
31612W        W99953  27.572  28.067  12.027
31613W        W99954  12.716  25.067   4.337
31614W        W99955  16.119  11.743   4.694
31615W        W99956  25.510  33.486   3.179
31616W        W99957  30.914  19.102   0.259
31617W        W99958  33.598  44.774  13.855
31618W        W99959  27.987  24.676  11.044
31619W        W99960  18.159  13.155   2.368
31620W        W99961   9.770  19.127  12.543
31621W        W99962  12.783  33.940   4.657
31622W        W99963  40.320  28.019   4.806
31623W        W99964  25.090  25.093  12.928
31624W        W99965   8.208  43.412  13.312
31625W        W99966   8.309  24.021   0.950
31626W        W99967  41.476   1.927  12.844
31627W        W99968  14.188  33.466  14.940
31628W        W99969  33.026  20.195  14.826
31629W        W99970  15.663  32.141   4.291
31630W        W99971  34.989   7.187   1.800
31631W        W99972  27.169   7.808  12.047
31632W        W99973  12.747  21.215   2.788
31633W        W99974  30.115   7.205  13.993
31634W        W99975  14.676  17.795  12.864
31635W        W99976   7.790   3.268  12.408
31636W        W99977  39.939  41.814   2.670
31637W        W99978  13.639  42.289   1.299
31638W        W99979  13.627  36.546   2.243
31639W        W99980  32.978   5.422  12.386
31640W        W99981  23.504  19.260  11.121
31641W        W99982  26.148   4.752   0.963
31642W        W99983  11.797  40.388   2.381
31643W        W99984  16.676  40.899  12.386
31644W        W99985  38.533  44.311  14.339
31645W        W99986  32.989  15.708   4.618
31646W        W99987  15.606   1.300  14.458
31647W        W99988   9.739  10.267  13.051
31648W        W99989  12.821  13.664  12.952
31649W        W99990  13.720  41.311   5.226
31650W        W99991  34.083  37.547   2.203
31651W        W99992  25.202   8.731   3.795
31652W        W99993   0.982   2.811  12.382
31653W        W99994  42.299  42.905   1.369
31654W        W99995  33.074   1.278  14.353
31655W        W99996  19.551  44.854   0.771
31656W        W99997  22.149  15.693  10.427
31657W        W99998  39.560  35.556  10.589
31658W        W99999  20.240   4.717  14.936
31659W        W    0  18.232  40.889   2.808
31660W        W    1  26.090  20.165  11.895
31661W        W    2  38.073   6.812   0.352
31662W        W    3  18.132  43.338  10.617
31663W        W    4  34.425  10.265  12.994
31664W        W    5   9.698   1.355  14.994
31665W        W    6  43.373  19.142  11.479
31666W        W    7  41.879  12.259  14.474
31667W        W    8  11.246  31.075   2.394
31668W        W    9  38.830  40.997  14.310
31669W        W   10  25.499  34.958   3.775
31670W        W   11  29.119  37.456   3.724
31671W        W   12  25.026  18.136   2.796
31672W        W   13  22.668  40.375   5.288
31673W        W   14  23.617  36.095   0.883
31674W        W   15   9.716   2.381   2.180
31675W        W   16  27.142  22.220  10.628
31676W        W   17  22.705  40.810  13.961
31677W        W   18  12.631  23.532   1.215
31678W        W   19   1.953  16.680   2.791
31679W        W   20  12.342  12.126   3.276
31680W        W   21  17.264  23.713  12.355
31681W        W   22  32.000  21.613  13.382
31682W        W   23  24.998   4.861   3.641
31683W        W   24  17.127  43.507  11.427
31684W        W   25   4.705  24.634  13.443
31685W        W   26  38.480   5.926   2.355
31686W        W   27  41.900   3.821  13.482
31687W        W   28  27.177  32.419   3.295
31688W        W   29  17.618  10.327  12.009
31689W        W   30  11.144   1.798  13.844
31690W        W   31   5.307   3.294  12.942
31691W        W   32  44.414  31.095   2.739
31692W        W   33  14.751  19.090   4.162
31693W        W   34  44.961  30.464   2.821
31694W        W   35  24.585  41.390  11.086
31695W        W   36  33.880  19.076  13.803
31696W        W   37  20.085  27.563   0.919
31697W        W   38  34.411   8.864  12.403
31698W        W   39  23.053   5.384  12.458
31699W        W   40  13.191  13.784   2.296
31700W        W   41  23.128  43.778  14.016
31701W        W   42  36.589  24.027  14.899
31702W        W   43  22.503  12.738  12.564
31703W        W   44  41.803  15.319  11.007
31704W        W   45  12.690   6.335   3.779
31705W        W   46   7.671  22.173  13.818
31706W        W   47  19.731  28.534   3.835
31707W        W   48  33.587  20.182  11.590
31708W        W   49  20.636  11.637   3.822
31709W        W   50  40.804  12.619  13.878
31710W        W   51  21.638  41.018  11.469
31711W        W   52  32.934   5.784  13.792
31712W        W   53  27.955  30.992   5.256
31713W        W   54   2.377   4.231  11.017
31714W        W   55  41.981  25.085  12.088
31715W        W   56  20.753  41.375   0.339
31716W        W   57  34.918  43.931   2.248
31717W        W   58  20.178  41.402   0.427
31718W        W   59  35.935  19.199   0.950
31719W        W   60  37.016  19.183   2.665
31720W        W   61   8.887  42.326  11.512
31721W        W   62   7.346   8.164   4.838
31722W        W   63   4.930  40.341  11.040
31723W        W   64  38.069  38.948   1.820
31724W        W   65   9.834  37.489   1.407
31725W        W   66  44.327  24.643   3.194
31726W        W   67  20.654  10.694  13.016
31727W        W   68  44.767  33.452   3.861
31728W        W   69  31.624  38.430   3.241
31729W        W   70  37.016   2.780   1.732
31730W        W   71  39.946  40.917   1.421
31731W        W   72  16.763  34.481   3.313
31732W        W   73  10.309  14.779  14.921
31733W        W   74  40.347  16.664   2.763
31734W        W   75   4.301  41.361  11.443
31735W        W   76  13.771  13.332   1.706
31736W        W   77   5.808  41.400   1.249
31737W        W   78  12.175  24.040   3.169
31738W        W   79   5.220  43.795  10.923
31739W        W   80  35.855  41.914   0.803
31740W        W   81  25.546  25.055  12.095
31741W        W   82  33.930   8.809   3.278
31742W        W   83   9.774   1.804  14.828
31743W        W   84  10.654  23.540  13.948
31744W        W   85  35.422  14.258  11.478
31745W        W   86  23.697  37.548   0.366
31746W        W   87  42.419  34.043  14.003
31747W        W   88  17.673  38.860  10.609
31748W        W   89   9.740  23.687   3.199
31749W        W   90  33.479  23.666   2.301
31750W        W   91  36.365  24.573  13.314
31751W        W   92  31.626  39.441   2.811
31752W        W   93  21.150  43.864   4.650
31753W        W   94  41.949  39.414  12.037
31754W        W   95  38.944   3.952  14.274
31755W        W   96  18.764  38.844   1.756
31756W        W   97  13.722   5.397  14.843
31757W        W   98  16.101  32.986  12.559
31758W        W   99  17.107  32.107  13.333
31759W        W  100  36.005  43.501  14.300
31760W        W  101  15.605  29.110   3.818
31761W        W  102  23.215  33.971   2.827
31762W        W  103  22.159  12.341  13.877
31763W        W  104   3.216  31.946   4.746
31764W        W  105  11.751  36.896  13.034
31765W        W  106  32.456  21.588  14.502
31766W        W  107  29.602  23.239   1.919
31767W        W  108   1.295  35.919  10.446
31768W        W  109  42.519  33.014   4.704
31769W        W  110  12.656  33.913   3.831
31770W        W  111   8.176   4.338   2.240
31771W        W  112  40.981  11.847   1.446
31772W        W  113  36.475   0.388  14.285
31773W        W  114  12.301  11.781   1.218
31774W        W  115  44.371  24.154  14.818
31775W        W  116  10.662  43.867   4.283
31776W        W  117  43.773  24.497  10.508
31777W        W  118  22.101  41.857   3.821
31778W        W  119   6.248  14.177   3.240
31779W        W  120  43.281  13.110  11.983
31780W        W  121  19.535   7.894  13.990
31781W        W  122   4.242  29.618   1.863
31782W        W  123  14.151   7.730   2.212
31783W        W  124  37.486   1.902  10.608
31784W        W  125   7.687  15.731  14.847
31785W        W  126   9.345  24.172   0.265
31786W        W  127  22.574  27.961  11.090
31787W        W  128  25.053   9.688   2.271
31788W        W  129  20.260   6.735  10.492
31789W        W  130   7.369  16.767  12.441
31790W        W  131  27.603  40.485   4.786
31791W        W  132  12.335   6.201   3.255
31792W        W  133  13.133   6.920  14.350
31793W        W  134  39.402   1.355  11.487
31794W        W  135  27.579  19.189  11.972
31795W        W  136  26.956  17.699   4.689
31796W        W  137  30.461   5.884   4.759
31797W        W  138  44.340  41.425  12.031
31798W        W  139  22.011  24.684   2.763
31799W        W  140  41.297  16.228   3.342
31800W        W  141  19.679   5.294   3.263
31801W        W  142  19.141   4.284  12.506
31802W        W  143  41.469  16.664  10.534
31803W        W  144  44.279  40.469   3.377
31804W        W  145   6.347  22.239  12.477
31805W        W  146  41.987   7.345  10.416
31806W        W  147  20.193   9.392   3.853
31807W        W  148  21.160   4.277  14.448
31808W        W  149   3.914  36.021   0.312
31809W        W  150  26.071  25.600  13.979
31810W        W  151  37.447  14.698   4.782
31811W        W  152  34.396   1.261  12.424
31812W        W  153  31.916  40.509  12.349
31813W        W  154  26.068  28.590  10.134
31814W        W  155  26.680  41.814   2.320
31815W        W  156  17.203  41.810  10.428
31816W        W  157  30.980  17.114  12.979
31817W        W  158  37.395   8.742  11.120
31818W        W  159  44.421  34.612   4.267
31819W        W  160  11.622   0.879   5.112
31820W        W  161  18.616  42.821   0.324
31821W        W  162  40.421  29.054   1.439
31822W        W  163  24.010  24.167  13.313
31823W        W  164  41.862  37.358   3.328
31824W        W  165  20.657  35.432   0.315
31825W        W  166   2.377  25.062   1.906
31826W        W  167  19.602  36.982   1.840
31827W        W  168  37.492   5.824  13.482
31828W        W  169   1.403  11.312  13.524
31829W        W  170   3.281   7.337   4.710
31830W        W  171  35.855  32.950  12.094
31831W        W  172   7.246   9.212   4.822
31832W        W  173  17.271   8.289   2.306
31833W        W  174  36.850  22.733  14.367
31834W        W  175  38.404  21.588  13.374
31835W        W  176   0.429  16.590   2.326
31836W        W  177  37.955   3.266  13.512
31837W        W  178  34.379  42.410   2.360
31838W        W  179  19.087  18.079   2.831
31839W        W  180  15.745  39.058   0.941
31840W        W  181  43.972   8.258   0.330
31841W        W  182  25.208  22.668  13.471
31842W        W  183  21.559   8.784  11.979
31843W        W  184  38.878   5.264   3.863
31844W        W  185   3.922  39.539  10.957
31845W        W  186   6.384  22.652   2.743
31846W        W  187  15.199  23.016  13.897
31847W        W  188  35.894   5.325   4.634
31848W        W  189  32.986  20.547  13.390
31849W        W  190  28.965  32.067  13.436
31850W        W  191  32.924  22.117  12.554
31851W        W  192  17.245  29.513   1.395
31852W        W  193  26.069  42.946  14.299
31853W        W  194  14.192  15.124   2.761
31854W        W  195  17.719  27.089  11.084
31855W        W  196  24.143  30.920   4.254
31856W        W  197  34.873  44.841   1.431
31857W        W  198  40.799  20.191   3.709
31858W        W  199   5.692  21.569  14.958
31859W        W  200  40.312  21.242  14.499
31860W        W  201  42.786  29.006  11.600
31861W        W  202  13.283   3.443  11.586
31862W        W  203   2.366  30.111   2.224
31863W        W  204  20.614  40.409  14.404
31864W        W  205  35.564  19.639   1.246
31865W        W  206   2.267  21.220  13.408
31866W        W  207  34.014   9.332   1.231
31867W        W  208  44.394  18.735  12.095
31868W        W  209  40.426   0.983  11.447
31869W        W  210  22.701  39.897  10.984
31870W        W  211  15.799  28.005   4.695
31871W        W  212  27.531  21.514   4.717
31872W        W  213   0.419  21.630   1.384
31873W        W  214   0.822  21.561   2.180
31874W        W  215  27.683  27.173  13.508
31875W        W  216  34.965   4.772   4.704
31876W        W  217  17.797  23.004  10.641
31877W        W  218  32.943  15.259  14.863
31878W        W  219  11.276  44.282   3.328
31879W        W  220   6.878  12.275   1.404
31880W        W  221  14.146   7.270   3.183
31881W        W  222  41.316  44.876   1.350
31882W        W  223  28.122   3.402  12.402
31883W        W  224  15.182  10.165  11.424
31884W        W  225  24.539  20.101   0.444
31885W        W  226  41.400  16.704  14.413
31886W        W  227  14.157  43.997   4.159
31887W        W  228   9.290  10.682  12.065
31888W        W  229  16.754  41.798  13.902
31889W        W  230  16.261  27.681  12.027
31890W        W  231  16.812  41.298   3.170
31891W        W  232  18.640   0.296   1.776
31892W        W  233  11.662   7.755  10.970
31893W        W  234  44.375  15.136  14.988
31894W        W  235  38.352  39.513  13.384
31895W        W  236  30.918  31.503   3.685
31896W        W  237  29.126  28.972   3.293
31897W        W  238  21.176  13.608  14.792
31898W        W  239  28.010  40.867   4.622
31899W        W  240   4.703  10.168   1.338
31900W        W  241  27.951  37.851  14.322
31901W        W  242   7.331   0.841   5.267
31902W        W  243  25.683   4.842  12.360
31903W        W  244  18.670  28.591  12.449
31904W        W  245  14.282   3.719  13.841
31905W        W  246  24.685  35.879  13.060
31906W        W  247  23.495   4.348  13.363
31907W        W  248   9.311  24.073   2.790
31908W        W  249  34.506  28.636  12.835
31909W        W  250  15.678  21.257  12.911
31910W        W  251   7.787  27.175   3.284
31911W        W  252  43.859  30.472   0.888
31912W        W  253  38.372   3.875  13.990
31913W        W  254  13.156  26.190   2.310
31914W        W  255   6.339  14.762   4.739
31915W        W  256  21.581   5.765   4.632
31916W        W  257  36.060  15.802  12.362
31917W        W  258  14.171  41.832  11.390
31918W        W  259  24.481  37.895  14.315
31919W        W  260  14.693   3.451  13.976
31920W        W  261  43.939  21.173   1.407
31921W        W  262  29.142  32.959  11.510
31922W        W  263  29.039  39.517   0.243
31923W        W  264  25.218  10.842   1.280
31924W        W  265  42.986  39.368   4.330
31925W        W  266   9.814  32.494  12.055
31926W        W  267   5.913  33.570   2.873
31927W        W  268  14.234  15.715  10.132
31928W        W  269  14.337  39.912   2.676
31929W        W  270  26.018  39.904   3.153
31930W        W  271  11.180  13.713  12.924
31931W        W  272  22.235  43.825  12.970
31932W        W  273  28.175  16.633   9.945
31933W        W  274   0.488  44.488  14.022
31934W        W  275  16.194  33.573  11.425
31935W        W  276   2.776  20.657  13.969
31936W        W  277  10.146  23.629  11.558
31937W        W  278  10.685  26.968   1.325
31938W        W  279  20.167  36.058  12.854
31939W        W  280  30.928  25.080   3.649
31940W        W  281  34.919  27.563   2.303
31941W        W  282  43.426  40.505   1.272
31942W        W  283  44.968  44.841  12.340
31943W        W  284   8.714  22.033  11.907
31944W        W  285  43.910  19.739   3.331
31945W        W  286  20.754  10.203   1.774
31946W        W  287  15.775  34.392  14.443
31947W        W  288  34.910  28.076   1.244
31948W        W  289  32.068  38.881  12.525
31949W        W  290  12.779   9.811  11.475
31950W        W  291  31.112   9.300   4.784
31951W        W  292   0.757   4.927  11.572
31952W        W  293  15.783  13.812   0.372
31953W        W  294  38.354   6.427  14.886
31954W        W  295   7.789  44.947   1.757
31955W        W  296   7.908   8.843  10.008
31956W        W  297  17.562   0.745  14.302
31957W        W  298  22.720  10.647   2.334
31958W        W  299  21.054   1.793   0.782
31959W        W  300  24.193   2.779  13.012
31960W        W  301  43.422  38.455  13.880
31961W        W  302  29.554  41.295   3.775
31962W        W  303  20.539  25.036   2.800
31963W        W  304   3.863  44.443  11.104
31964W        W  305  35.434  39.552  10.515
31965W        W  306  37.925  29.158   9.922
31966W        W  307  39.515  16.195   4.285
31967W        W  308   3.325  25.014  11.871
31968W        W  309   2.253   2.236   0.381
31969W        W  310  35.399  28.602   2.888
31970W        W  311  15.157  18.140  12.997
31971W        W  312   0.425  10.770  11.102
31972W        W  313   4.823  31.461   2.318
31973W        W  314  22.112  42.843   2.317
31974W        W  315  30.018  19.769  12.371
31975W        W  316  22.190   9.691  10.530
31976W        W  317  19.170  38.423   3.306
31977W        W  318   2.783  24.118  10.520
31978W        W  319   2.397  10.719  14.903
31979W        W  320   1.394   4.919   4.197
31980W        W  321  25.497   3.220   5.094
31981W        W  322  36.012  17.775   3.187
31982W        W  323  18.733  15.217   3.822
31983W        W  324  13.698  32.538  11.497
31984W        W  325  14.113  26.555  13.909
31985W        W  326  17.173   7.800   1.439
31986W        W  327  22.137  16.733   5.668
31987W        W  328  41.964  41.909  13.034
31988W        W  329  36.881  24.688   3.363
31989W        W  330  22.602  20.535  13.427
31990W        W  331  17.657  16.675   2.894
31991W        W  332  32.486  21.163  13.534
31992W        W  333  40.998  32.062  10.564
31993W        W  334   6.344  30.018   3.157
31994W        W  335  16.292  42.414  12.055
31995W        W  336   9.724  21.087  13.799
31996W        W  337  14.187   0.475  10.530
31997W        W  338  19.650   2.284   1.829
31998W        W  339  25.586  12.337  12.031
31999W        W  340   4.394  17.069  14.997
32000W        W  341  40.834   2.401   0.435
32001W        W  342  23.109  26.029  10.587
32002W        W  343   2.297   7.840   1.351
32003W        W  344  22.233   7.713   0.811
32004W        W  345  11.843   7.377  12.470
32005W        W  346  32.411  29.519   4.823
32006W        W  347   2.735  29.947  14.357
32007W        W  348   0.809  31.922  14.968
32008W        W  349  18.159  34.464   2.292
32009W        W  350   5.425  12.619   3.358
32010W        W  351  27.972  40.804   2.300
32011W        W  352   8.883   1.343  11.046
32012W        W  353  41.820   5.199  12.054
32013W        W  354  38.883  40.978   3.688
32014W        W  355  20.614   6.421  10.906
32015W        W  356  20.764  20.763  13.465
32016W        W  357   9.843  26.071  10.572
32017W        W  358  20.100  33.005  10.942
32018W        W  359  29.650  35.101  12.540
32019W        W  360  11.803   0.297   2.877
32020W        W  361   1.267  29.616  13.975
32021W        W  362  24.687   7.334   0.437
32022W        W  363   2.383  30.111   4.167
32023W        W  364  41.797  13.841  11.517
32024W        W  365  25.006   8.189   2.717
32025W        W  366  31.998  25.557   3.354
32026W        W  367  17.095  21.181  11.535
32027W        W  368  25.596  24.031  12.929
32028W        W  369  39.389  12.269   3.634
32029W        W  370  37.022  21.748  12.362
32030W        W  371   0.379  11.669   1.751
32031W        W  372  27.075   1.781   2.880
32032W        W  373  39.430  41.482  12.919
32033W        W  374  11.179  31.019   4.809
32034W        W  375   3.915  18.275   0.293
32035W        W  376  43.470  26.512  11.540
32036W        W  377  35.097  39.487  12.371
32037W        W  378  44.369  22.995  12.481
32038W        W  379  22.523  25.671   0.906
32039W        W  380   5.856  24.014   2.251
32040W        W  381   0.278  20.268   2.366
32041W        W  382  29.459  10.217   4.832
32042W        W  383  39.003  38.991  14.872
32043W        W  384  17.641   5.384   0.439
32044W        W  385  39.012  19.104   3.192
32045W        W  386  35.862  31.501   1.255
32046W        W  387   3.295  37.508  11.040
32047W        W  388  17.619  22.025  12.479
32048W        W  389   2.338  26.591   2.761
32049W        W  390  28.609  36.562  11.978
32050W        W  391  29.431  38.002  12.956
32051W        W  392  28.667  17.685  13.994
32052W        W  393  20.629  43.961   3.824
32053W        W  394  15.090  16.668  13.423
32054W        W  395  40.844   0.868   1.438
32055W        W  396  24.124  26.064   4.137
32056W        W  397  32.392   2.433   4.125
32057W        W  398  36.563  39.323   0.349
32058W        W  399  43.317  37.473   3.228
32059W        W  400   8.773  24.010   3.337
32060W        W  401  39.833  13.769   2.759
32061W        W  402  18.058   7.814   2.193
32062W        W  403  17.791  12.264  12.876
32063W        W  404  22.082  21.069  13.321
32064W        W  405  24.038   2.376   4.209
32065W        W  406  20.169   6.405   0.799
32066W        W  407   1.733  39.980   2.245
32067W        W  408  22.542  28.155   1.766
32068W        W  409  11.300  20.562  13.009
32069W        W  410  35.033  43.002   0.944
32070W        W  411  24.114  29.547   2.859
32071W        W  412  37.574  30.016  13.477
32072W        W  413   3.758  17.227  12.496
32073W        W  414  23.699   5.335   2.786
32074W        W  415  36.579  21.088   1.413
32075W        W  416  26.085  42.407   0.726
32076W        W  417  35.427  32.501   4.757
32077W        W  418  34.487  25.520  12.538
32078W        W  419  10.648  41.443  11.448
32079W        W  420  13.214  31.545   4.132
32080W        W  421  30.064  16.605  11.030
32081W        W  422  43.516  40.993  12.537
32082W        W  423  21.164  24.711   1.782
32083W        W  424   2.731  23.058  13.899
32084W        W  425  31.536   1.397  13.501
32085W        W  426  23.587  39.003   0.406
32086W        W  427  29.474  12.760  10.535
32087W        W  428  11.808  41.016  11.881
32088W        W  429  33.926  24.159  10.958
32089W        W  430  34.499   4.914  14.312
32090W        W  431  24.205   7.777  14.868
32091W        W  432  38.482  41.328  12.395
32092W        W  433   6.918  15.315  13.385
32093W        W  434   7.279   5.370   1.288
32094W        W  435  10.761  34.048  10.447
32095W        W  436  34.584   2.351   1.776
32096W        W  437   2.837  35.079   1.850
32097W        W  438  40.017  39.900   5.180
32098W        W  439  21.610  27.075  10.522
32099W        W  440   6.237  24.064   2.400
32100W        W  441  29.554  20.575   2.236
32101W        W  442  29.424  37.831  14.351
32102W        W  443  36.961  29.122   1.919
32103W        W  444  27.069  40.459   1.269
32104W        W  445   7.708  42.323   1.370
32105W        W  446  32.019   7.886  12.376
32106W        W  447  43.451  13.635  13.338
32107W        W  448   5.196  10.174  10.444
32108W        W  449  12.148  38.053   0.867
32109W        W  450   4.757  40.306   4.764
32110W        W  451  39.894  21.085   3.324
32111W        W  452  31.906  28.004  14.451
32112W        W  453  40.834   8.717   0.835
32113W        W  454   8.232   3.772   2.707
32114W        W  455  37.963  21.128   3.334
32115W        W  456  21.263  36.870  12.847
32116W        W  457  44.337   3.425  12.422
32117W        W  458  18.219  31.554  11.008
32118W        W  459  14.767  44.304   1.752
32119W        W  460  42.026   7.373  13.054
32120W        W  461  39.040  39.360   2.897
32121W        W  462  40.895  28.672   0.434
32122W        W  463  30.504  17.648  13.846
32123W        W  464  15.226   0.485  12.074
32124W        W  465  16.285  19.214  14.964
32125W        W  466   7.280  37.832  14.495
32126W        W  467  25.610  29.644   1.848
32127W        W  468   3.408   4.718  13.469
32128W        W  469  14.240  19.118  12.464
32129W        W  470  29.073   9.817   0.394
32130W        W  471  26.528  22.571  12.090
32131W        W  472   8.352   6.779   4.313
32132W        W  473  36.530  34.529   0.867
32133W        W  474   2.345  12.680   0.938
32134W        W  475   8.299   3.845  10.593
32135W        W  476  23.225  32.496  13.883
32136W        W  477  20.074  21.636  13.461
32137W        W  478  12.709  14.097   0.927
32138W        W  479  27.950  44.864   3.664
32139W        W  480   4.301   1.411  13.452
32140W        W  481  13.349  29.979   3.190
32141W        W  482  44.809  33.445  13.409
32142W        W  483  38.025   0.841   0.870
32143W        W  484  36.952  43.919  10.998
32144W        W  485  10.755  10.708   0.259
32145W        W  486  26.199  26.083   2.398
32146W        W  487  28.589  30.991   3.233
32147W        W  488   6.307  27.185   3.737
32148W        W  489  34.495  34.079  12.895
32149W        W  490  44.905  11.350   0.410
32150W        W  491  23.187  29.149  13.033
32151W        W  492   0.353  18.147   0.868
32152W        W  493  25.065  43.870   4.763
32153W        W  494   5.339  29.522   2.770
32154W        W  495  36.888  27.628   2.709
32155W        W  496  39.929   8.843   1.775
32156W        W  497  31.468  11.715  11.988
32157W        W  498  38.880  13.649   4.320
32158W        W  499  12.733  29.006   3.805
32159W        W  500  35.956  39.033   3.149
32160W        W  501  41.379  37.879  12.509
32161W        W  502  11.225  27.960   3.226
32162W        W  503  17.149  34.518   5.269
32163W        W  504   4.771  15.610   3.331
32164W        W  505   5.286  10.381   2.382
32165W        W  506  32.022  12.742  14.427
32166W        W  507  36.970   5.394   2.263
32167W        W  508  40.329   1.277  14.882
32168W        W  509  15.667  20.155   2.240
32169W        W  510  27.006   4.710   3.784
32170W        W  511  44.327  43.476  14.510
32171W        W  512  25.578   1.394  14.796
32172W        W  513   5.239   1.385  10.489
32173W        W  514  29.648  32.489  10.645
32174W        W  515   2.959   8.315   1.891
32175W        W  516  42.944  37.860   0.288
32176W        W  517  18.628  25.704   2.867
32177W        W  518  42.969  36.533   4.611
32178W        W  519   1.396   1.460   2.206
32179W        W  520  17.251   0.854  10.627
32180W        W  521  44.006   5.890  14.328
32181W        W  522  39.816   4.874  14.455
32182W        W  523   9.349   9.860  11.383
32183W        W  524  26.654  16.280   4.794
32184W        W  525   3.274  31.635  14.505
32185W        W  526  34.117  39.889  13.937
32186W        W  527  37.915  34.031  13.444
32187W        W  528   1.848  36.073   2.259
32188W        W  529  14.826  13.667  10.954
32189W        W  530  21.588  39.041  12.905
32190W        W  531  37.475  39.345   1.739
32191W        W  532  40.467  16.775   4.790
32192W        W  533  22.229  42.967  14.018
32193W        W  534  36.515  23.101  14.487
32194W        W  535  37.402  16.581  13.504
32195W        W  536  36.952  28.491   1.366
32196W        W  537  30.996   4.427  10.605
32197W        W  538  30.595  27.957  14.763
32198W        W  539  19.285  28.510  10.523
32199W        W  540  44.849  41.976  11.043
32200W        W  541  34.499  36.586   0.468
32201W        W  542  25.027  13.691   4.610
32202W        W  543   3.931  17.187   4.717
32203W        W  544  10.181   0.321   9.978
32204W        W  545  30.653  15.677   2.785
32205W        W  546  41.991  13.685   4.687
32206W        W  547  31.080  18.781  13.420
32207W        W  548  10.210  30.496   5.201
32208W        W  549  17.104  32.894   4.129
32209W        W  550  40.382  11.725  12.981
32210W        W  551   7.318  10.247  14.923
32211W        W  552   4.207  33.048   2.848
32212W        W  553  13.709  42.935  13.812
32213W        W  554   2.453   8.672  11.969
32214W        W  555  14.599  35.554   1.381
32215W        W  556  18.105  44.280  13.367
32216W        W  557  32.141  20.765  13.329
32217W        W  558  33.393  10.195   3.329
32218W        W  559   4.440   4.942  12.065
32219W        W  560  10.327  26.513  12.572
32220W        W  561  10.287  17.606  12.083
32221W        W  562   5.742  29.448  14.789
32222W        W  563  26.673  33.033   4.183
32223W        W  564  44.433  24.984   2.297
32224W        W  565   6.755  16.787  14.837
32225W        W  566  22.687  27.581   2.765
32226W        W  567   6.809  11.792  14.870
32227W        W  568  25.085  33.891  13.005
32228W        W  569   0.476  36.367   2.295
32229W        W  570  24.541  21.137  13.826
32230W        W  571  11.737  12.299   2.854
32231W        W  572  23.644  37.539  13.865
32232W        W  573   7.295   1.872  14.320
32233W        W  574  29.006  35.911  14.426
32234W        W  575  44.271  23.988   2.704
32235W        W  576   6.859  23.495  13.387
32236W        W  577  44.279  30.417  13.406
32237W        W  578  42.416  14.725   1.870
32238W        W  579  43.279   6.875   0.439
32239W        W  580  29.032  18.062   3.234
32240W        W  581  30.930   8.679   2.194
32241W        W  582  16.202   5.919  12.437
32242W        W  583  17.587   7.395   4.321
32243W        W  584   4.888  44.803   4.193
32244W        W  585  27.028  10.233  13.319
32245W        W  586  32.615   9.209  11.593
32246W        W  587   9.654  10.383  14.829
32247W        W  588   0.423  44.944   1.369
32248W        W  589  27.569  14.179  11.529
32249W        W  590   4.431  26.200   2.900
32250W        W  591  10.831  17.108  14.319
32251W        W  592  15.306   5.363   0.752
32252W        W  593   6.792   3.818   4.241
32253W        W  594  33.959  43.878   2.217
32254W        W  595   4.732  31.579   1.426
32255W        W  596   4.249  37.409  10.593
32256W        W  597   2.837  20.093   4.786
32257W        W  598  34.968  14.835  11.952
32258W        W  599  26.700  13.266  13.477
32259W        W  600  42.516  10.863   2.307
32260W        W  601  31.907  29.456   2.704
32261W        W  602   1.952  41.379   1.826
32262W        W  603  18.620   4.706   3.700
32263W        W  604  37.844  28.448  14.301
32264W        W  605  33.532   7.260   1.298
32265W        W  606   7.287  15.211  14.289
32266W        W  607  13.221  21.145  13.420
32267W        W  608  26.168  26.652   4.202
32268W        W  609  28.681  28.010  10.123
32269W        W  610  35.852  18.148  14.289
32270W        W  611  36.911  34.100   1.869
32271W        W  612  39.011  33.024  13.912
32272W        W  613   2.766   0.831   2.776
32273W        W  614  33.441   3.434  12.052
32274W        W  615   6.300   9.314  14.978
32275W        W  616  29.065  25.662   4.666
32276W        W  617   8.272  34.524   4.269
32277W        W  618  20.164  34.936   1.234
32278W        W  619   4.789   4.821  13.339
32279W        W  620   3.380  33.513   5.225
32280W        W  621  14.724  21.086  12.991
32281W        W  622  37.388  36.496   4.338
32282W        W  623  37.864   6.870   2.694
32283W        W  624  17.071  11.738   0.329
32284W        W  625  17.074  39.432   1.432
32285W        W  626  41.027   2.388  12.542
32286W        W  627  24.215  38.335   3.186
32287W        W  628  27.674  33.457   1.242
32288W        W  629  25.154  32.554   3.639
32289W        W  630   9.869  13.117  14.958
32290W        W  631  33.110   9.673  11.433
32291W        W  632  34.565  31.939   0.342
32292W        W  633  20.118  32.540   4.688
32293W        W  634  37.572  27.131  14.987
32294W        W  635  44.465  16.099   0.755
32295W        W  636  22.143  41.841  13.401
32296W        W  637  36.089   6.683   2.200
32297W        W  638   7.290   0.880  14.506
32298W        W  639  38.855  12.648  11.393
32299W        W  640  18.112   0.879  11.860
32300W        W  641  10.202  29.436   5.083
32301W        W  642   4.369  23.726  14.387
32302W        W  643  16.075  32.131  14.842
32303W        W  644  24.987   1.756   2.254
32304W        W  645  27.495  39.376   4.761
32305W        W  646  22.672  24.560   2.260
32306W        W  647  42.861  21.109   4.777
32307W        W  648  16.223  11.842  14.389
32308W        W  649   6.740  25.658   3.647
32309W        W  650  35.417  13.792   0.355
32310W        W  651  18.734   8.362   1.921
32311W        W  652   8.868  19.139  13.912
32312W        W  653  16.761  33.100  12.953
32313W        W  654  10.202  15.739   0.860
32314W        W  655   7.869   0.981   1.878
32315W        W  656  16.234  42.968  10.972
32316W        W  657  38.890  28.135  13.468
32317W        W  658   5.716  29.468   2.291
32318W        W  659  30.912   8.370  14.449
32319W        W  660  35.038  20.766   0.913
32320W        W  661  44.794  28.609  12.507
32321W        W  662   9.151  22.644  12.373
32322W        W  663  31.449  44.504  14.481
32323W        W  664  19.738  30.102   3.233
32324W        W  665  23.006  11.769  11.526
32325W        W  666  21.523  39.821  11.102
32326W        W  667   5.269   9.807   4.280
32327W        W  668  23.656  39.039   3.726
32328W        W  669  37.468  41.493   2.242
32329W        W  670   5.758  28.662   0.275
32330W        W  671  33.084  38.427  13.030
32331W        W  672  41.302  11.657   0.408
32332W        W  673  23.047  31.459  11.480
32333W        W  674  18.768  29.058  12.373
32334W        W  675  38.027   1.375   2.713
32335W        W  676  30.927  34.079   3.335
32336W        W  677   6.291  21.711   0.801
32337W        W  678   9.674  34.973   0.484
32338W        W  679  26.135  19.272   0.440
32339W        W  680   3.435  10.856  14.983
32340W        W  681  10.200   4.872  11.864
32341W        W  682  15.313  11.842   1.303
32342W        W  683  30.002   5.873  14.867
32343W        W  684  30.468   1.341  14.401
32344W        W  685  32.073  27.138   3.731
32345W        W  686  22.634  32.443   4.128
32346W        W  687  30.438  14.724   1.375
32347W        W  688  34.893  10.297   4.123
32348W        W  689  29.640  28.998  10.573
32349W        W  690  18.642  12.250   0.942
32350W        W  691  13.132  12.314   4.153
32351W        W  692   6.285   8.250  13.004
32352W        W  693  43.947  24.685  13.808
32353W        W  694  42.826  38.401  14.887
32354W        W  695  39.008  21.530   3.722
32355W        W  696   3.247   9.692   3.247
32356W        W  697  32.610  10.139   1.774
32357W        W  698   2.731  25.623   0.766
32358W        W  699  22.089  15.697  13.973
32359W        W  700  10.210  43.337  11.980
32360W        W  701   6.321  25.172  12.910
32361W        W  702   6.343  37.897  14.855
32362W        W  703  30.591  38.846  11.487
32363W        W  704  30.431  32.625   3.813
32364W        W  705  41.536  31.426  13.833
32365W        W  706   0.920  14.265   2.220
32366W        W  707   4.828  26.197   1.743
32367W        W  708  14.612  28.005  10.610
32368W        W  709  10.303  14.249   1.835
32369W        W  710  19.205  14.315  13.822
32370W        W  711  42.493   4.768   3.691
32371W        W  712   5.853  15.624   3.166
32372W        W  713  37.020  21.097  12.413
32373W        W  714  35.931  21.185  13.030
32374W        W  715   8.358  10.275  10.465
32375W        W  716  15.224  34.479   5.596
32376W        W  717   7.854   4.869  10.997
32377W        W  718  32.075  20.236   1.293
32378W        W  719  14.736  40.498  12.515
32379W        W  720  32.623  20.666   3.328
32380W        W  721  38.824  39.422   2.354
32381W        W  722   7.890  14.145   4.742
32382W        W  723  29.502  22.639  11.402
32383W        W  724   7.796  44.942  14.330
32384W        W  725  19.269   6.367  11.956
32385W        W  726  40.853  31.072   2.307
32386W        W  727   3.256  43.940   4.753
32387W        W  728  13.712  43.948   1.262
32388W        W  729  36.944  15.771   4.336
32389W        W  730  12.345  39.868  12.994
32390W        W  731  28.461  43.849   3.798
32391W        W  732  31.445  24.123  14.936
32392W        W  733  34.968  38.501   4.140
32393W        W  734   6.403   4.737   4.750
32394W        W  735  41.998  37.964  12.963
32395W        W  736  26.558  23.649  14.773
32396W        W  737  35.033  36.894  11.982
32397W        W  738   3.408  19.663   2.701
32398W        W  739   9.377   3.801  10.632
32399W        W  740  14.121  15.786   0.390
32400W        W  741  32.053  13.133  13.797
32401W        W  742  33.581   1.273  12.449
32402W        W  743  33.903  19.158  11.881
32403W        W  744  20.084  12.346   1.764
32404W        W  745  26.540  30.452  12.359
32405W        W  746  34.056  44.825  10.951
32406W        W  747  18.223  12.830   0.928
32407W        W  748  43.393  39.559   0.433
32408W        W  749  44.770   4.415   2.210
32409W        W  750  33.018  29.931   2.247
32410W        W  751  11.249  19.545  10.476
32411W        W  752   8.361  25.624   1.897
32412W        W  753  43.471  31.473   3.258
32413W        W  754  39.538  44.330   5.129
32414W        W  755  41.991  18.284   0.480
32415W        W  756  35.360  12.129   1.294
32416W        W  757  14.271   7.722   3.191
32417W        W  758  29.957  26.491   4.752
32418W        W  759  18.758  24.198  14.306
32419W        W  760   3.758  13.161   4.715
32420W        W  761  32.595  17.153  13.873
32421W        W  762  40.884   9.296   2.244
32422W        W  763  37.832  28.987   4.665
32423W        W  764   4.794  20.658   2.255
32424W        W  765  22.529  29.022   3.676
32425W        W  766  30.115  30.079  10.907
32426W        W  767  39.038  15.123   4.254
32427W        W  768   3.280  36.868  10.959
32428W        W  769  23.031   6.302  10.571
32429W        W  770  36.874  20.240   2.804
32430W        W  771  32.535  32.046   0.300
32431W        W  772   4.832  35.873  10.526
32432W        W  773  43.299  36.039  13.855
32433W        W  774   2.450  10.852   0.472
32434W        W  775  43.391  27.942   1.699
32435W        W  776  18.151  28.096  12.346
32436W        W  777  21.201  30.472  11.091
32437W        W  778  16.102  34.527   9.567
32438W        W  779   4.724  13.250   0.779
32439W        W  780  41.413  30.983  10.517
32440W        W  781  19.680  38.994  14.434
32441W        W  782  24.644  44.273   2.794
32442W        W  783  16.258  24.990  14.373
32443W        W  784  10.645  43.464   2.666
32444W        W  785  12.742  17.298  10.912
32445W        W  786  30.050  17.716   4.661
32446W        W  787  29.088   4.307  13.953
32447W        W  788  32.960   9.713  12.844
32448W        W  789  28.487   3.446  14.324
32449W        W  790   0.385  42.831   2.808
32450W        W  791  28.972   3.715   3.316
32451W        W  792   1.329  26.067   4.677
32452W        W  793   0.798   4.753   4.723
32453W        W  794  43.924  11.134   2.821
32454W        W  795  19.170  22.179   0.810
32455W        W  796   5.419   4.825  11.111
32456W        W  797  16.775  44.958   3.359
32457W        W  798   9.671  42.850   3.212
32458W        W  799   7.832  37.882   3.736
32459W        W  800   4.933  20.682   4.705
32460W        W  801   0.805   5.814   3.756
32461W        W  802   9.329  22.638   0.426
32462W        W  803   4.212  36.468  14.428
32463W        W  804   4.414  15.615  14.343
32464W        W  805   0.331  18.616   4.603
32465W        W  806  15.318  11.695   4.258
32466W        W  807  41.967  22.573   3.770
32467W        W  808  15.304  25.157   3.291
32468W        W  809  11.141  15.784   3.738
32469W        W  810  19.692  20.671  14.763
32470W        W  811   7.195  15.722   1.694
32471W        W  812  43.884  44.856  12.829
32472W        W  813   0.380  22.528  10.892
32473W        W  814   8.792  15.199   3.800
32474W        W  815   6.211  33.526   1.837
32475W        W  816  10.779  17.612   2.753
32476W        W  817  24.551  43.009   9.946
32477W        W  818   8.845  23.086   1.265
32478W        W  819  37.891  15.120  13.976
32479W        W  820  42.471  38.559   0.303
32480W        W  821  43.766  34.613  11.478
32481W        W  822  19.722  34.990  14.770
32482W        W  823  41.804  38.013   0.956
32483W        W  824  27.089  35.590  14.992
32484W        W  825  33.514  36.469   1.776
32485W        W  826  18.279  32.003  10.509
32486W        W  827  17.274  33.506  11.977
32487W        W  828  17.143  17.120  14.908
32488W        W  829  21.553  26.626  12.401
32489W        W  830  28.676  16.687   4.223
32490W        W  831  13.638  23.011  13.452
32491W        W  832  17.702  24.094  13.524
32492W        W  833   6.836   2.423  13.049
32493W        W  834  26.147  32.131  13.490
32494W        W  835  11.272  30.015   3.306
32495W        W  836  40.317  15.182  12.513
32496W        W  837  17.075  29.635  10.453
32497W        W  838  31.148  24.564  11.110
32498W        W  839  17.595  27.105   3.857
32499W        W  840  27.071  36.525  13.043
32500W        W  841   0.883  13.737  12.918
32501W        W  842  17.195  25.016  11.575
32502W        W  843   3.326  44.369  11.508
32503W        W  844  21.169  14.776  11.609
32504W        W  845  22.079   6.898  12.960
32505W        W  846  43.852  20.541   0.281
32506W        W  847   6.336  29.633  12.909
32507W        W  848   7.218  44.897   0.956
32508W        W  849  11.294  33.460  14.466
32509W        W  850  39.930  20.143  12.892
32510W        W  851  14.200  13.631   1.799
32511W        W  852  26.555  20.686   0.749
32512W        W  853   5.360  29.513   4.335
32513W        W  854  29.163  12.784  12.521
32514W        W  855  20.650   8.233   4.701
32515W        W  856  21.516  32.885   3.228
32516W        W  857  27.461  14.096   2.817
32517W        W  858  44.963  15.222  10.978
32518W        W  859   5.323  24.547   1.258
32519W        W  860  35.926  36.948   4.791
32520W        W  861  30.915   2.377   3.332
32521W        W  862  29.094  14.807  14.984
32522W        W  863  39.850  15.674   0.853
32523W        W  864  31.415  16.612  12.953
32524W        W  865   5.367  28.081  11.555
32525W        W  866  19.664   2.785   2.344
32526W        W  867  24.077   9.667  11.993
32527W        W  868  35.984  18.729   4.724
32528W        W  869  32.959  11.142   0.469
32529W        W  870  17.689  30.987   4.211
32530W        W  871   7.688   1.820   3.293
32531W        W  872  33.971   1.400  13.519
32532W        W  873  20.675  22.226  14.396
32533W        W  874  10.762  40.850  13.441
32534W        W  875  17.704   2.270  14.309
32535W        W  876  42.806  29.958  12.848
32536W        W  877   0.331  24.569   1.401
32537W        W  878   7.234  24.707  12.974
32538W        W  879  36.365  35.493   2.723
32539W        W  880  31.618  27.139   4.630
32540W        W  881  33.444  25.503   3.238
32541W        W  882  40.469  31.028   0.245
32542W        W  883   8.205   1.385  11.107
32543W        W  884  34.896  17.106  12.570
32544W        W  885  41.802   9.824   1.228
32545W        W  886  26.557  23.223   3.207
32546W        W  887  36.939  37.874  11.983
32547W        W  888   4.804  36.005   1.803
32548W        W  889  41.022   0.787  11.957
32549W        W  890  33.614  12.657  11.991
32550W        W  891  15.180  19.581  11.017
32551W        W  892  18.728  16.659   2.794
32552W        W  893  26.970  21.549  11.433
32553W        W  894  16.260  29.528  11.406
32554W        W  895  27.506  29.583   2.808
32555W        W  896  10.874  41.450  12.045
32556W        W  897  26.956  36.905   3.808
32557W        W  898  14.657  34.116   3.367
32558W        W  899  15.715  34.891   4.660
32559W        W  900  40.813  30.081  11.975
32560W        W  901  36.360  29.136  12.926
32561W        W  902  26.984  16.571   3.219
32562W        W  903  15.158  31.964  13.451
32563W        W  904  39.057  10.195   0.334
32564W        W  905  30.563  16.303   2.290
32565W        W  906  37.508  30.439  14.346
32566W        W  907  23.196   6.781   4.836
32567W        W  908  43.331  22.658   4.131
32568W        W  909  12.849  13.723  11.407
32569W        W  910  26.484   4.935  13.411
32570W        W  911  26.573  19.756   9.924
32571W        W  912  30.524  14.668  14.785
32572W        W  913  35.962  33.966  11.564
32573W        W  914   4.302  34.047   1.308
32574W        W  915  21.262  36.074  11.381
32575W        W  916  26.018  39.008  12.062
32576W        W  917   0.784  25.652  10.910
32577W        W  918  16.700  14.794   0.735
32578W        W  919  44.504  12.746  10.892
32579W        W  920  20.233  38.520   1.882
32580W        W  921  34.975  35.546  14.876
32581W        W  922   6.768   0.389   1.903
32582W        W  923  14.287   8.337   3.675
32583W        W  924  37.945  26.480  11.981
32584W        W  925  23.522  35.025   1.849
32585W        W  926  32.552  15.103  13.443
32586W        W  927  28.457  32.064  12.096
32587W        W  928  39.550  16.263  14.360
32588W        W  929  40.989  22.566   4.336
32589W        W  930  40.007  15.329   0.250
32590W        W  931  43.949   4.935  10.573
32591W        W  932  39.459  44.901   1.787
32592W        W  933  24.115   7.844   4.736
32593W        W  934  43.011  35.039   1.433
32594W        W  935  44.885  43.400  11.978
32595W        W  936  10.272  24.983  14.978
32596W        W  937  38.403   5.764  11.452
32597W        W  938  43.356   4.432   0.768
32598W        W  939  33.620  24.058   0.451
32599W        W  940  13.156  41.405  14.286
32600W        W  941  11.734  12.299  13.369
32601W        W  942  13.232   3.773   4.170
32602W        W  943  24.137  14.599   3.356
32603W        W  944  15.581  39.904   4.317
32604W        W  945  44.884  15.789  12.494
32605W        W  946  20.645  25.580   3.854
32606W        W  947   6.181  20.134  11.126
32607W        W  948   6.368  21.533  14.972
32608W        W  949   1.965  35.074  14.414
32609W        W  950  34.424  24.099  11.901
32610W        W  951  42.930  25.071  13.880
32611W        W  952  18.783  19.555   2.243
32612W        W  953   7.878  18.713   0.391
32613W        W  954   4.396  33.877  12.436
32614W        W  955  28.094  21.748  11.091
32615W        W  956   2.830   4.367  13.342
32616W        W  957   3.851  14.655   2.318
32617W        W  958  24.511   0.338   1.703
32618W        W  959  20.586   4.928   2.841
32619W        W  960  21.744   5.206   0.769
32620W        W  961   0.492  17.203   0.808
32621W        W  962  28.989  34.052  14.774
32622W        W  963   3.330  26.564   2.275
32623W        W  964  26.192   9.276   3.218
32624W        W  965  37.834   4.347  13.059
32625W        W  966   8.162   0.355  13.948
32626W        W  967  35.604  27.675   4.676
32627W        W  968  26.558  31.107  12.063
32628W        W  969  34.593   0.305   3.171
32629W        W  970  18.566  30.955   3.383
32630W        W  971  33.984  40.879   1.797
32631W        W  972  14.176  10.852  12.481
32632W        W  973   2.257  22.206   1.789
32633W        W  974  17.606  34.107   4.283
32634W        W  975  41.015   8.224  12.388
32635W        W  976  36.549   5.807  14.430
32636W        W  977  25.640   7.405  11.957
32637W        W  978  39.947  34.897  14.961
32638W        W  979   5.364  18.140  14.797
32639W        W  980   3.387  17.623   2.332
32640W        W  981  32.080  25.624   0.263
32641W        W  982  42.318  16.648  11.372
32642W        W  983  12.122   7.702  14.426
32643W        W  984  38.952   5.277   2.684
32644W        W  985  33.597  22.248   1.441
32645W        W  986   0.845  37.516   5.132
32646W        W  987  43.461  14.734  13.852
32647W        W  988  27.026  22.502  13.519
32648W        W  989  33.408  41.825  12.549
32649W        W  990  11.758  43.021   2.312
32650W        W  991  16.293  17.113   4.828
32651W        W  992   3.328  12.307   2.685
32652W        W  993  18.084   6.844   4.276
32653W        W  994  12.150   8.780   1.402
32654W        W  995  29.577  43.275   1.878
32655W        W  996  28.600   0.839   2.277
32656W        W  997   0.889   2.320  13.526
32657W        W  998  24.611   6.376  13.529
32658W        W  999  27.048  25.493  12.013
32659W        W 1000   3.890  10.167   3.827
32660W        W 1001  19.085  28.543   2.833
32661W        W 1002  32.969  42.297   1.923
32662W        W 1003  41.899  18.711   3.781
32663W        W 1004  32.892  15.783   0.277
32664W        W 1005  12.312  44.759  10.897
32665W        W 1006  36.497  11.661   2.667
32666W        W 1007   2.870  38.361  13.537
32667W        W 1008  39.435  39.048  13.405
32668W        W 1009  30.018  41.937  10.633
32669W        W 1010  26.563  38.368  13.328
32670W        W 1011  13.192  36.388   4.633
32671W        W 1012  19.203  27.182  14.002
32672W        W 1013  10.316  18.563  12.421
32673W        W 1014   2.843  35.016  11.494
32674W        W 1015  42.917  23.633  10.109
32675W        W 1016  13.224   9.217   0.436
32676W        W 1017  29.544  23.075   3.357
32677W        W 1018  24.673  39.480  12.906
32678W        W 1019  21.044  18.219  13.868
32679W        W 1020  19.714  14.707  14.364
32680W        W 1021  40.330   6.324   2.774
32681W        W 1022  25.665  26.515  14.949
32682W        W 1023   1.746  28.092  14.372
32683W        W 1024  42.939  40.426   1.785
32684W        W 1025  20.720  21.725  12.858
32685W        W 1026  19.664   4.403  10.528
32686W        W 1027  21.136  35.409   0.254
32687W        W 1028   3.296   5.333  13.804
32688W        W 1029  38.016   9.884  12.882
32689W        W 1030  26.201  16.073   0.421
32690W        W 1031  35.387  12.130   3.690
32691W        W 1032   8.664  28.595   0.828
32692W        W 1033  36.501  15.099  14.961
32693W        W 1034  43.442  25.648   1.350
32694W        W 1035  34.974  40.941  13.795
32695W        W 1036  39.953  20.036   4.621
32696W        W 1037   7.878  19.198   3.663
32697W        W 1038   9.668   0.806  13.804
32698W        W 1039  13.816  19.272  10.583
32699W        W 1040  19.083  37.348   1.350
32700W        W 1041  30.429  42.941  12.541
32701W        W 1042  24.089  20.175   0.447
32702W        W 1043  16.249   2.759  10.915
32703W        W 1044  19.174  31.633   4.189
32704W        W 1045   1.737  23.655   2.284
32705W        W 1046  42.286  37.538   0.463
32706W        W 1047  37.952  11.836  14.891
32707W        W 1048  38.964  21.626  12.565
32708W        W 1049  19.273  21.716  13.523
32709W        W 1050  36.867  29.599   2.183
32710W        W 1051  23.500  44.411  14.378
32711W        W 1052  44.920  19.270  14.780
32712W        W 1053  44.501   7.273   0.381
32713W        W 1054  36.935   5.827   1.784
32714W        W 1055  20.108  40.304  10.963
32715W        W 1056  16.705  34.538  10.493
32716W        W 1057   2.262  41.340  12.944
32717W        W 1058  23.039   9.357  14.760
32718W        W 1059  25.595   4.858   5.173
32719W        W 1060  28.626  35.072  12.364
32720W        W 1061  41.460  11.192   4.811
32721W        W 1062   2.890  40.447   0.805
32722W        W 1063  24.530  40.385   2.684
32723W        W 1064   7.396  41.982  14.902
32724W        W 1065  34.947  26.135  14.355
32725W        W 1066   5.298  31.422   3.828
32726W        W 1067  16.771  19.749   0.351
32727W        W 1068  31.096  44.394  12.423
32728W        W 1069   7.861  18.275   2.288
32729W        W 1070  31.600  26.637   3.672
32730W        W 1071  11.730  17.218   1.749
32731W        W 1072  41.467  15.773  10.644
32732W        W 1073   5.366  30.626  14.357
32733W        W 1074   4.321  40.048   2.730
32734W        W 1075  12.655  32.540  13.329
32735W        W 1076  15.125  37.537   1.825
32736W        W 1077  18.701  41.392   3.724
32737W        W 1078  18.576  26.031   0.759
32738W        W 1079   9.332   9.341   4.745
32739W        W 1080  35.964   7.839   2.338
32740W        W 1081  30.499   5.356  13.367
32741W        W 1082  32.903  15.196  10.562
32742W        W 1083  15.201  41.431  14.847
32743W        W 1084  10.753   8.405  12.493
32744W        W 1085  38.530  38.948   0.965
32745W        W 1086  30.452  34.082  14.515
32746W        W 1087  17.223   9.719   0.778
32747W        W 1088  21.654  18.790  11.869
32748W        W 1089  32.467  37.895  10.613
32749W        W 1090  11.243  44.380   1.872
32750W        W 1091   1.738   7.817  13.874
32751W        W 1092  34.369  29.088   1.912
32752W        W 1093  39.038  44.987   3.838
32753W        W 1094  26.664  39.450  12.385
32754W        W 1095  44.479   8.881  11.095
32755W        W 1096  25.980  34.406  13.534
32756W        W 1097  40.438  38.497  14.910
32757W        W 1098  10.372   3.440  13.802
32758W        W 1099  14.329  29.454   1.748
32759W        W 1100  34.940  24.644   0.884
32760W        W 1101  28.148  12.788  11.598
32761W        W 1102  17.754  11.183   0.407
32762W        W 1103  18.733   8.382  12.897
32763W        W 1104   1.424  43.791   0.841
32764W        W 1105   2.263  29.502  14.414
32765W        W 1106  14.210  33.501  10.461
32766W        W 1107  26.108  24.669  13.312
32767W        W 1108  10.303  23.653  14.799
32768W        W 1109  27.511  42.460   3.182
32769W        W 1110  32.579  16.181  10.479
32770W        W 1111  16.621  19.161  12.835
32771W        W 1112   4.862  19.659   4.688
32772W        W 1113  23.629   6.344  12.571
32773W        W 1114  36.067  16.629   0.251
32774W        W 1115  14.270   9.762   0.855
32775W        W 1116   8.883   4.332  11.458
32776W        W 1117  24.096   2.737  10.487
32777W        W 1118   8.784  13.692  12.835
32778W        W 1119  12.195  26.542  10.967
32779W        W 1120  37.506  12.183  13.323
32780W        W 1121   3.768  24.171  14.013
32781W        W 1122  20.588  40.319   2.803
32782W        W 1123  30.454  43.363  11.091
32783W        W 1124  15.751  40.324  12.480
32784W        W 1125  42.379  12.856   3.786
32785W        W 1126  12.116  28.020   4.176
32786W        W 1127  16.128  28.440  11.410
32787W        W 1128   8.847   2.744   0.814
32788W        W 1129  11.334  32.457   4.282
32789W        W 1130  40.506  11.161  11.552
32790W        W 1131   2.908  32.113   0.810
32791W        W 1132  18.714  14.814   3.862
32792W        W 1133   0.459  22.686  12.978
32793W        W 1134  18.587  37.364  11.115
32794W        W 1135  35.584  43.981   0.941
32795W        W 1136  11.188  32.563  11.508
32796W        W 1137  33.463  13.680   2.779
32797W        W 1138  17.264  31.152   1.755
32798W        W 1139  20.540   5.861  10.903
32799W        W 1140   2.381  41.982   3.270
32800W        W 1141  11.795  15.582  13.393
32801W        W 1142  36.996   5.845  13.995
32802W        W 1143  15.702  32.007  13.910
32803W        W 1144  26.112  12.791  11.920
32804W        W 1145   0.872  31.065   3.285
32805W        W 1146  36.479  14.766   2.259
32806W        W 1147  12.204  15.632  13.794
32807W        W 1148  30.602  32.480   0.897
32808W        W 1149  36.459  16.258   1.745
32809W        W 1150  17.718  13.318   0.308
32810W        W 1151  35.879  33.517   2.752
32811W        W 1152  14.719  36.556  12.438
32812W        W 1153  23.152   3.935   2.207
32813W        W 1154  12.664  27.945  10.560
32814W        W 1155  26.597  19.261  13.013
32815W        W 1156  10.198  35.994   3.339
32816W        W 1157  31.518  36.034   3.257
32817W        W 1158  40.436  37.426  14.386
32818W        W 1159   1.886   5.365  10.409
32819W        W 1160  32.890  30.522   2.901
32820W        W 1161  30.920  44.272  13.849
32821W        W 1162  43.381  21.688  13.933
32822W        W 1163  18.735   9.342  10.888
32823W        W 1164  34.897   4.368   4.617
32824W        W 1165  32.048   1.444  11.515
32825W        W 1166   5.198  14.685   2.779
32826W        W 1167   8.810  28.181   0.934
32827W        W 1168  28.159  34.926  10.035
32828W        W 1169  44.780  34.117   4.779
32829W        W 1170   0.469  39.904   2.300
32830W        W 1171  15.794  43.844  14.356
32831W        W 1172  22.610   5.831   1.881
32832W        W 1173   2.903  43.796  13.975
32833W        W 1174  20.582  38.004   3.787
32834W        W 1175  16.770  19.085  13.464
32835W        W 1176  22.543  27.512  13.355
32836W        W 1177  25.613  26.673   1.722
32837W        W 1178   6.826  14.700  10.574
32838W        W 1179  10.732  29.572  12.042
32839W        W 1180  32.599  27.064  10.609
32840W        W 1181  40.818  17.146   3.218
32841W        W 1182  24.703  27.991  14.006
32842W        W 1183  34.875  37.031   0.858
32843W        W 1184  43.425  14.161   3.765
32844W        W 1185  27.597  39.480  14.876
32845W        W 1186  14.689  12.774  10.610
32846W        W 1187  40.374  38.570   4.793
32847W        W 1188  22.154  31.520  10.483
32848W        W 1189   4.413  37.909  12.542
32849W        W 1190   2.405  35.998   5.223
32850W        W 1191   1.430   1.282   4.334
32851W        W 1192   8.743  29.502  11.035
32852W        W 1193  16.169  22.624  12.959
32853W        W 1194  32.533  35.089  13.393
32854W        W 1195  28.465   8.785   1.338
32855W        W 1196  41.908  27.676  12.053
32856W        W 1197  19.206  30.151   2.662
32857W        W 1198  43.872  17.201   2.870
32858W        W 1199  34.517  39.987   9.970
32859W        W 1200  25.664  18.252   1.210
32860W        W 1201   0.325  23.162   2.845
32861W        W 1202  27.099  43.900   4.642
32862W        W 1203  37.366  36.898   4.600
32863W        W 1204   8.793  35.438   2.811
32864W        W 1205  20.638  14.774   1.338
32865W        W 1206  27.457   8.402   3.755
32866W        W 1207  37.419  22.555   4.800
32867W        W 1208  42.465  25.060  13.352
32868W        W 1209   9.335  37.956   3.660
32869W        W 1210  36.040  43.771  12.020
32870W        W 1211  16.628  19.741   3.746
32871W        W 1212   9.693   0.950  12.478
32872W        W 1213  44.470   0.881  13.466
32873W        W 1214  24.093   8.298  13.794
32874W        W 1215  33.943  40.982  11.049
32875W        W 1216  37.033  37.864   2.352
32876W        W 1217   3.750   7.266   1.924
32877W        W 1218  27.977  21.727   3.803
32878W        W 1219  24.636   0.400  10.635
32879W        W 1220  11.661  40.336  12.874
32880W        W 1221  13.233   5.799   0.386
32881W        W 1222  33.500  27.110  12.404
32882W        W 1223  10.832  12.276   3.705
32883W        W 1224  30.627  37.369   1.229
32884W        W 1225  17.630  28.665   3.827
32885W        W 1226  30.570  38.915   1.831
32886W        W 1227   8.780   1.975   0.392
32887W        W 1228   7.180  14.108  10.957
32888W        W 1229   1.731  19.668   2.389
32889W        W 1230  41.340  28.444   2.207
32890W        W 1231  42.978  32.009  11.917
32891W        W 1232  37.019  26.009   0.358
32892W        W 1233  24.722  41.435  12.533
32893W        W 1234  26.556  34.558   3.777
32894W        W 1235  25.615  27.486  12.954
32895W        W 1236  24.510  18.722  14.981
32896W        W 1237  19.694  43.292  11.902
32897W        W 1238  11.632   6.419   0.929
32898W        W 1239  27.953  19.620  11.508
32899W        W 1240  10.298  29.533   0.461
32900W        W 1241  40.880  15.581   2.191
32901W        W 1242   1.256  24.160  13.416
32902W        W 1243   2.737   7.890  14.003
32903W        W 1244  37.078   9.800   2.225
32904W        W 1245  27.107  35.856  14.019
32905W        W 1246  24.722  21.051   3.658
32906W        W 1247  22.199  19.116   0.480
32907W        W 1248   2.823   1.806   4.658
32908W        W 1249  18.263   4.429  13.350
32909W        W 1250  19.604  38.996  13.975
32910W        W 1251  25.110  21.633  14.808
32911W        W 1252   7.377  34.489   1.384
32912W        W 1253  22.572  38.423   1.406
32913W        W 1254  36.992  15.802  13.398
32914W        W 1255  38.892  36.431   1.439
32915W        W 1256   2.229  19.566   2.342
32916W        W 1257   9.748  43.351   1.847
32917W        W 1258   4.767   3.460  10.441
32918W        W 1259   6.306  37.473   0.370
32919W        W 1260  41.941   9.231   4.707
32920W        W 1261   9.249  10.327   2.285
32921W        W 1262  22.998   1.753  14.895
32922W        W 1263  23.052  18.596   5.570
32923W        W 1264  24.067  34.453  14.274
32924W        W 1265  30.554  15.816   0.950
32925W        W 1266  12.131  19.231   3.361
32926W        W 1267  13.818  38.860  11.423
32927W        W 1268  13.195  34.551   1.448
32928W        W 1269   2.324  36.352   2.777
32929W        W 1270  38.067  34.873  14.388
32930W        W 1271  20.632   1.888  13.016
32931W        W 1272  12.705   5.806   2.786
32932W        W 1273  43.289  21.241   4.637
32933W        W 1274  32.542  44.409  13.892
32934W        W 1275  41.343  40.470   4.815
32935W        W 1276   3.406  38.404   0.330
32936W        W 1277   4.867  17.669  14.436
32937W        W 1278  19.658   6.266   2.413
32938W        W 1279  27.455   4.359  10.936
32939W        W 1280  40.430  18.574  12.452
32940W        W 1281  32.938   4.879   3.825
32941W        W 1282   1.757  11.257   4.207
32942W        W 1283  27.095  27.122  14.910
32943W        W 1284   5.843  23.713  14.911
32944W        W 1285  29.961  20.065   0.326
32945W        W 1286   3.934   3.864   2.287
32946W        W 1287  31.987  22.594  12.390
32947W        W 1288  18.678  40.448   1.385
32948W        W 1289   9.710  15.274   3.762
32949W        W 1290  22.095  25.027   4.744
32950W        W 1291   7.760  37.460  12.824
32951W        W 1292  11.725  14.299  12.509
32952W        W 1293  26.013  24.974  12.981
32953W        W 1294   8.322  22.022  13.842
32954W        W 1295  22.107  30.648  14.384
32955W        W 1296  12.342  35.478  13.396
32956W        W 1297  17.100  32.489  12.827
32957W        W 1298  21.086  35.520   0.804
32958W        W 1299  20.711  10.833  12.058
32959W        W 1300   9.201  16.166   4.277
32960W        W 1301  29.667  41.390   1.328
32961W        W 1302  12.323   3.748  14.795
32962W        W 1303  41.043   7.242  12.429
32963W        W 1304  17.265   3.901  12.352
32964W        W 1305  27.655   2.789  13.475
32965W        W 1306  39.886  38.359   3.297
32966W        W 1307  29.023   3.399  12.378
32967W        W 1308  38.837  14.338   0.830
32968W        W 1309  41.395   4.854  11.875
32969W        W 1310   2.736  28.136   3.148
32970W        W 1311  15.204   9.172  14.397
32971W        W 1312  10.159  31.103   2.408
32972W        W 1313  28.086  44.825  13.927
32973W        W 1314  30.001  40.860   1.839
32974W        W 1315  12.746  38.952   1.410
32975W        W 1316  13.138  37.382  13.002
32976W        W 1317   0.282  35.974   4.732
32977W        W 1318  17.225  44.313   1.255
32978W        W 1319  25.962  31.640  11.890
32979W        W 1320   7.195  28.154   1.257
32980W        W 1321  13.245   4.238  14.958
32981W        W 1322   2.403  36.963   2.882
32982W        W 1323  35.915   0.891  11.429
32983W        W 1324  33.534  25.047   4.240
32984W        W 1325  35.371   2.256  13.971
32985W        W 1326  15.663  28.588  14.377
32986W        W 1327  21.524  44.950   0.793
32987W        W 1328  14.121  29.956  12.447
32988W        W 1329  37.381  12.188  12.962
32989W        W 1330  26.137  32.624  12.958
32990W        W 1331  12.767   6.266  13.815
32991W        W 1332  25.195   9.197  11.437
32992W        W 1333  40.466   9.343  13.945
32993W        W 1334  28.493  19.082   4.666
32994W        W 1335  34.989  16.761  10.950
32995W        W 1336  30.127   8.732   0.726
32996W        W 1337  42.895  23.171   0.456
32997W        W 1338  29.113  31.422  13.870
32998W        W 1339  32.026   2.241  12.059
32999W        W 1340  15.796  21.019  11.085
33000W        W 1341  28.638   7.773   2.408
33001W        W 1342  32.043  30.962   1.753
33002W        W 1343  29.948  24.493  13.884
33003W        W 1344  20.187  42.860   1.877
33004W        W 1345  10.200  18.148  12.927
33005W        W 1346   6.921  27.085  14.980
33006W        W 1347  14.185  18.686  13.895
33007W        W 1348  14.723  44.370   3.305
33008W        W 1349  20.732  31.967   4.704
33009W        W 1350  10.689  33.540  12.440
33010W        W 1351   9.263  37.869   1.272
33011W        W 1352  29.141  43.409  13.879
33012W        W 1353  35.894  25.984  14.840
33013W        W 1354  33.480   9.788  13.949
33014W        W 1355  38.345  44.776   2.203
33015W        W 1356  30.043  39.051  13.876
33016W        W 1357  35.429  13.665   2.874
33017W        W 1358   0.864  10.789   3.735
33018W        W 1359   6.728  38.930  12.065
33019W        W 1360  34.605  35.927  10.629
33020W        W 1361  44.375  32.570  11.111
33021W        W 1362  29.645   7.796  11.053
33022W        W 1363  24.502  16.113  10.473
33023W        W 1364  43.003  26.509  11.386
33024W        W 1365  35.405  43.877   0.374
33025W        W 1366  14.216  41.796   3.382
33026W        W 1367   1.881  30.154   1.356
33027W        W 1368  44.946  12.272   1.769
33028W        W 1369  10.723  37.346  14.399
33029W        W 1370  26.579  28.086  11.966
33030W        W 1371  31.629  14.809  10.913
33031W        W 1372   2.954  37.340  10.982
33032W        W 1373  24.159  19.270  12.042
33033W        W 1374  34.381  10.172  14.962
33034W        W 1375   7.755  33.925  14.855
33035W        W 1376  20.712  28.666   1.230
33036W        W 1377  11.673  21.662  14.824
33037W        W 1378  24.683  10.696  12.041
33038W        W 1379  43.821  38.530   3.670
33039W        W 1380  41.874  28.090  11.497
33040W        W 1381   6.921  20.164  13.056
33041W        W 1382  21.529  39.831  10.632
33042W        W 1383   2.724  40.941   0.431
33043W        W 1384  17.576   7.244   4.723
33044W        W 1385  12.220  34.954  13.430
33045W        W 1386  38.977   0.309   0.809
33046W        W 1387   6.825   9.876  14.931
33047W        W 1388  44.942  41.798  13.916
33048W        W 1389  34.920   0.849   1.816
33049W        W 1390  35.496  17.233  11.371
33050W        W 1391   2.238  26.125  12.339
33051W        W 1392  38.346  32.401   0.478
33052W        W 1393  35.975   2.376   2.872
33053W        W 1394  22.154  17.248   5.231
33054W        W 1395   1.343  44.781   3.346
33055W        W 1396  40.834  41.022   4.686
33056W        W 1397  36.066  36.997   2.841
33057W        W 1398  36.550  20.146  14.279
33058W        W 1399  43.440   4.942  12.855
33059W        W 1400  27.100  16.306   1.367
33060W        W 1401  32.039  32.952  13.374
33061W        W 1402  42.915  22.181  12.847
33062W        W 1403  15.788  34.464  10.008
33063W        W 1404  23.232  39.896   1.394
33064W        W 1405  20.231  16.145   2.751
33065W        W 1406  25.062  12.152   0.868
33066W        W 1407  14.143   0.967  12.377
33067W        W 1408  10.751  38.882  12.426
33068W        W 1409  21.681  33.579  14.831
33069W        W 1410  26.600  22.504   1.337
33070W        W 1411  40.020  36.524  12.049
33071W        W 1412   2.430   1.398   1.701
33072W        W 1413  10.165   9.735   5.762
33073W        W 1414   2.868  26.577  11.083
33074W        W 1415  43.916   4.408  11.555
33075W        W 1416  38.375  32.516  11.510
33076W        W 1417  33.551  29.033  11.107
33077W        W 1418   0.965  15.311  13.420
33078W        W 1419  17.230  42.847   0.738
33079W        W 1420   8.406  14.173  14.338
33080W        W 1421  25.020  40.530   1.336
33081W        W 1422  21.631  22.577   3.385
33082W        W 1423  32.889  32.127   0.825
33083W        W 1424  12.713   9.831  13.405
33084W        W 1425  22.153  38.500   2.280
33085W        W 1426   0.987   9.887  11.093
33086W        W 1427  13.716  28.165   4.671
33087W        W 1428   9.275  30.097  10.524
33088W        W 1429  44.320  34.529   2.767
33089W        W 1430  25.173  39.849  11.535
33090W        W 1431  38.406  35.022  13.313
33091W        W 1432  27.502  40.396  13.370
33092W        W 1433  14.813  40.906  12.480
33093W        W 1434  16.566   7.685  10.593
33094W        W 1435  39.967  37.067  13.527
33095W        W 1436  29.934   4.233  11.411
33096W        W 1437   1.761   0.941   1.232
33097W        W 1438  31.124   7.392  11.030
33098W        W 1439  24.213   1.888  13.935
33099W        W 1440  30.510  37.559   0.250
33100W        W 1441  18.246  15.749   4.327
33101W        W 1442  30.614   7.288   3.855
33102W        W 1443  35.885  36.044  13.374
33103W        W 1444  37.911  10.358   1.390
33104W        W 1445  22.552   3.881   3.278
33105W        W 1446  15.629  35.977   1.276
33106W        W 1447  37.498  20.709   4.143
33107W        W 1448  15.215  22.543   2.218
33108W        W 1449  31.604  42.433  14.446
33109W        W 1450   7.317  24.712   3.826
33110W        W 1451  35.971  24.983  14.294
33111W        W 1452  32.603  35.491  12.854
33112W        W 1453  42.884  28.497   1.239
33113W        W 1454  43.458  21.226   1.819
33114W        W 1455  15.724   5.206   1.365
33115W        W 1456  27.085   8.661   0.854
33116W        W 1457  15.762  29.153  13.328
33117W        W 1458  24.083  23.671   3.346
33118W        W 1459  42.915  18.184  12.511
33119W        W 1460  24.613  35.932   3.302
33120W        W 1461  24.681  17.655   3.253
33121W        W 1462  35.929  17.715  11.923
33122W        W 1463  34.427  25.967   2.817
33123W        W 1464  27.164  12.354   2.839
33124W        W 1465  21.087  16.075  11.045
33125W        W 1466   9.701  42.778  11.487
33126W        W 1467  42.964  16.116  13.844
33127W        W 1468  40.502  42.881   1.809
33128W        W 1469  23.614  36.032  14.867
33129W        W 1470  15.321  16.086  10.573
33130W        W 1471  14.757   6.722  11.570
33131W        W 1472   6.373  34.608  14.019
33132W        W 1473  34.433  12.655   3.733
33133W        W 1474  39.332  37.459   4.668
33134W        W 1475   6.210   0.849  11.944
33135W        W 1476  41.350  25.646   1.884
33136W        W 1477  19.771  14.192   2.335
33137W        W 1478  40.939  27.531   3.301
33138W        W 1479  18.276  10.369   4.803
33139W        W 1480  36.093   3.812  11.861
33140W        W 1481  43.480   5.779   4.172
33141W        W 1482  29.441  33.613  11.505
33142W        W 1483   6.679  19.059  11.904
33143W        W 1484  38.916  13.710  11.458
33144W        W 1485  20.223   3.451  12.051
33145W        W 1486  26.630  42.026   2.834
33146W        W 1487  33.608  30.142  14.820
33147W        W 1488  23.232  14.262  11.098
33148W        W 1489  15.695  27.493   1.913
33149W        W 1490   9.666  35.060   3.158
33150W        W 1491  39.907  27.156   3.656
33151W        W 1492  32.100  25.599  11.921
33152W        W 1493  29.054  36.372  14.306
33153W        W 1494  21.581  24.116  14.878
33154W        W 1495  31.594   1.926   1.432
33155W        W 1496  29.971  44.993   4.703
33156W        W 1497   8.240  42.464   1.893
33157W        W 1498   9.819  37.413  14.403
33158W        W 1499  14.335  19.673  11.040
33159W        W 1500   7.798  11.326   0.848
33160W        W 1501  20.750  33.983  12.371
33161W        W 1502  16.186  18.125  13.025
33162W        W 1503  36.387  34.974  11.925
33163W        W 1504  13.745  28.502  14.391
33164W        W 1505  40.489  21.041   5.303
33165W        W 1506   2.358  43.476   0.801
33166W        W 1507  27.664  29.522  12.466
33167W        W 1508  11.325   6.344  14.302
33168W        W 1509   1.732  32.420   4.760
33169W        W 1510  15.594  19.533  12.376
33170W        W 1511  32.900  42.315   4.227
33171W        W 1512   4.319  38.546  11.930
33172W        W 1513  33.982  32.560   0.875
33173W        W 1514  28.961   9.728  10.471
33174W        W 1515  31.927  34.951  13.374
33175W        W 1516  43.439  44.445   4.281
33176W        W 1517  23.000  28.016   4.257
33177W        W 1518   9.776  24.650   1.217
33178W        W 1519   0.782  39.394  13.931
33179W        W 1520  23.237   9.831   4.627
33180W        W 1521  13.797   1.965  12.462
33181W        W 1522  35.588   8.239  10.473
33182W        W 1523  35.017   2.869   1.300
33183W        W 1524  13.691  44.492   3.162
33184W        W 1525  22.531  23.174   3.853
33185W        W 1526   5.928  38.064  14.484
33186W        W 1527   2.880  30.564   4.217
33187W        W 1528  39.010  42.893  12.483
33188W        W 1529   2.255  43.354  13.439
33189W        W 1530   0.344  12.641  12.924
33190W        W 1531  41.936  18.769   0.282
33191W        W 1532  31.544   4.219  11.408
33192W        W 1533  10.661  44.260  14.276
33193W        W 1534   9.201  31.487   2.181
33194W        W 1535  26.539  32.967  10.948
33195W        W 1536   1.274  34.086   2.706
33196W        W 1537   0.248  12.615   4.801
33197W        W 1538  13.652  37.549   2.755
33198W        W 1539  16.192  40.052   3.796
33199W        W 1540  28.157  31.126  12.084
33200W        W 1541  44.883   8.376  11.003
33201W        W 1542  24.600   4.208   3.753
33202W        W 1543  24.693  38.423  10.482
33203W        W 1544   7.333  40.369  11.868
33204W        W 1545  18.576   5.407  12.362
33205W        W 1546  18.098  24.659   4.756
33206W        W 1547  12.834   0.371   0.279
33207W        W 1548  28.499  37.062  12.372
33208W        W 1549  21.579  40.504   0.263
33209W        W 1550  14.801  16.122  14.996
33210W        W 1551  17.175  10.170  13.059
33211W        W 1552  36.078  32.096  11.608
33212W        W 1553  18.103  24.152  12.550
33213W        W 1554  25.156   8.679  10.537
33214W        W 1555  37.936   7.770  13.027
33215W        W 1556  26.016  34.044  13.040
33216W        W 1557  25.203  29.622   5.168
33217W        W 1558  28.500  37.533   0.362
33218W        W 1559   0.346  31.460   0.360
33219W        W 1560  27.033   0.799   2.756
33220W        W 1561  19.093  20.242   0.884
33221W        W 1562  38.052  15.314   0.366
33222W        W 1563  19.137  21.026  14.786
33223W        W 1564  10.372  10.179   0.369
33224W        W 1565   4.412  26.105   4.170
33225W        W 1566  22.021   8.867  13.319
33226W        W 1567  40.358  23.720   3.200
33227W        W 1568   6.906  12.149  12.484
33228W        W 1569  41.436  10.319  13.364
33229W        W 1570  36.022  27.057   4.231
33230W        W 1571  11.787   9.389  11.372
33231W        W 1572  17.082   9.836   3.189
33232W        W 1573   6.269  40.362  14.507
33233W        W 1574   9.822  44.841  11.919
33234W        W 1575  23.999  27.507   1.848
33235W        W 1576  24.607  41.990   3.784
33236W        W 1577   2.322  13.328  10.480
33237W        W 1578  20.704  38.365  14.888
33238W        W 1579  30.495  18.282  12.528
33239W        W 1580  41.914  38.832   2.748
33240W        W 1581  31.521   9.356  11.879
33241W        W 1582   1.440  32.035  10.080
33242W        W 1583   7.903   3.747   3.254
33243W        W 1584  28.530  41.394  14.939
33244W        W 1585  25.712   2.420  13.046
33245W        W 1586  28.441  25.621  11.406
33246W        W 1587  42.308  16.688  11.044
33247W        W 1588   1.476  37.500   2.259
33248W        W 1589  40.892  14.113  14.317
33249W        W 1590  12.199   6.348  11.954
33250W        W 1591  33.395  16.626   3.198
33251W        W 1592  43.895  22.594   2.834
33252W        W 1593   5.198  11.219  13.980
33253W        W 1594  37.520   8.694   3.161
33254W        W 1595  36.524   2.370   1.226
33255W        W 1596  28.537  21.722  14.016
33256W        W 1597   7.398   6.857  10.428
33257W        W 1598  15.091  30.072  12.547
33258W        W 1599  19.160  20.668  14.491
33259W        W 1600  11.696  22.094   3.852
33260W        W 1601   3.752   4.825  13.393
33261W        W 1602  21.205  27.491   1.906
33262W        W 1603  15.688  31.120  13.988
33263W        W 1604   5.329  41.834  12.465
33264W        W 1605  32.534   0.247  10.603
33265W        W 1606   6.894  41.875  10.972
33266W        W 1607  19.111  25.117  13.378
33267W        W 1608  36.489  28.452   3.167
33268W        W 1609  35.956  17.285   4.629
33269W        W 1610  21.589   2.725   3.207
33270W        W 1611   2.785  16.809   4.742
33271W        W 1612  12.728  25.639   3.636
33272W        W 1613   9.151  17.673  12.035
33273W        W 1614  42.882  16.220   1.425
33274W        W 1615  25.175  26.997  10.533
33275W        W 1616  32.063  25.531   3.722
33276W        W 1617  44.824  43.944  14.498
33277W        W 1618  36.530  10.671   1.392
33278W        W 1619  28.085   1.744  10.947
33279W        W 1620  15.823   3.736  11.865
33280W        W 1621  25.055  23.148   4.763
33281W        W 1622  43.942  15.680  10.150
33282W        W 1623  34.416  39.453  12.504
33283W        W 1624  19.607  40.528   2.760
33284W        W 1625  33.471  26.643  11.567
33285W        W 1626   7.329  19.650  10.487
33286W        W 1627  28.062  41.026   2.805
33287W        W 1628  22.047  26.556   1.773
33288W        W 1629  26.014   5.351  11.043
33289W        W 1630  12.273   4.216  14.477
33290W        W 1631   8.788  31.152  14.294
33291W        W 1632  30.922  14.262  12.949
33292W        W 1633  22.190  26.618  11.518
33293W        W 1634  27.954  34.866   1.366
33294W        W 1635  20.613  27.950  14.429
33295W        W 1636  19.220  37.995  10.980
33296W        W 1637   2.825  18.552   4.670
33297W        W 1638  37.511   0.447  13.925
33298W        W 1639   5.876  26.023   1.285
33299W        W 1640   1.746  23.151  14.407
33300W        W 1641  38.417  42.287   4.342
33301W        W 1642   0.747  44.305   2.179
33302W        W 1643  20.249  14.162   4.242
33303W        W 1644  41.812  23.172   1.892
33304W        W 1645   4.273   8.741  14.392
33305W        W 1646  37.363   9.151   0.790
33306W        W 1647   8.746  13.155   5.101
33307W        W 1648   3.734   2.347  14.960
33308W        W 1649   4.818  13.213  11.046
33309W        W 1650  22.660  35.550   4.195
33310W        W 1651  38.429  21.260   3.844
33311W        W 1652   8.849  37.050  10.937
33312W        W 1653   4.833  24.045  10.942
33313W        W 1654  24.519  44.438   0.248
33314W        W 1655   3.287  32.142   4.257
33315W        W 1656  19.165  13.291  11.507
33316W        W 1657  23.722  41.421  13.374
33317W        W 1658  31.122  36.032   2.736
33318W        W 1659  33.082  13.256   2.699
33319W        W 1660  20.196  43.377   2.277
33320W        W 1661   2.283  35.897   3.350
33321W        W 1662  12.264  20.687  12.498
33322W        W 1663   5.928  30.648   1.280
33323W        W 1664  42.808  24.611   2.305
33324W        W 1665  41.356  32.009   1.300
33325W        W 1666  15.641   5.207  11.609
33326W        W 1667  44.007  17.648   4.333
33327W        W 1668  28.963  26.026  14.377
33328W        W 1669  28.520  27.626   1.824
33329W        W 1670   2.959  37.942   1.236
33330W        W 1671  44.958   5.300   0.965
33331W        W 1672  31.475  28.666   2.382
33332W        W 1673  13.309  11.298  13.476
33333W        W 1674  42.497  12.703   1.895
33334W        W 1675  21.098  29.574   5.214
33335W        W 1676  41.876  32.934  11.037
33336W        W 1677  36.895  20.099  11.993
33337W        W 1678  16.709  39.378  13.808
33338W        W 1679   3.870  17.284  14.306
33339W        W 1680  14.167  38.536  10.586
33340W        W 1681  19.534  29.029  12.897
33341W        W 1682  27.448  37.940   2.769
33342W        W 1683  12.169  16.108  14.419
33343W        W 1684  16.576  20.632  12.846
33344W        W 1685  42.359   0.450  10.593
33345W        W 1686  10.250  38.385   4.277
33346W        W 1687  33.112  34.523  11.925
33347W        W 1688  20.637   0.920  14.966
33348W        W 1689  12.120  39.876   0.935
33349W        W 1690   6.735  18.096  14.004
33350W        W 1691  23.637  14.140  10.485
33351W        W 1692   7.182  15.255   3.773
33352W        W 1693  37.830  32.495  11.395
33353W        W 1694  41.509  41.953   4.713
33354W        W 1695  31.543   1.364   1.444
33355W        W 1696  43.290   6.859  10.506
33356W        W 1697  16.181   0.843   4.297
33357W        W 1698   6.399   9.645  14.320
33358W        W 1699  38.501  42.344  14.811
33359W        W 1700  30.452   8.847  13.535
33360W        W 1701  32.453  15.581   4.680
33361W        W 1702   3.937  37.566  10.432
33362W        W 1703  44.410  43.012   2.735
33363W        W 1704  21.539  17.094   3.649
33364W        W 1705   2.412   9.247   4.815
33365W        W 1706  27.494  31.933   0.289
33366W        W 1707  24.188   7.705   0.925
33367W        W 1708  27.548   7.728   3.208
33368W        W 1709  10.345  18.705   2.858
33369W        W 1710   3.893  12.707   2.798
33370W        W 1711  29.963   0.838  14.446
33371W        W 1712  20.629  35.074   4.249
33372W        W 1713  17.177  19.603   0.892
33373W        W 1714  36.070  13.318  13.532
33374W        W 1715   7.859  25.100   1.812
33375W        W 1716  22.015   6.245   4.738
33376W        W 1717   1.794  26.174  13.835
33377W        W 1718   9.250  38.903  11.554
33378W        W 1719   2.416  27.618  10.962
33379W        W 1720  37.415   4.919   4.666
33380W        W 1721  14.183   2.806  11.032
33381W        W 1722  42.410  33.474  12.435
33382W        W 1723  18.767  38.549  11.057
33383W        W 1724  37.039   4.831   1.260
33384W        W 1725  15.806  33.601   4.639
33385W        W 1726  18.754  37.337   2.817
33386W        W 1727  13.275  17.611   0.814
33387W        W 1728  19.243  38.839   1.286
33388W        W 1729  25.086  36.349  14.791
33389W        W 1730  40.040  25.703   2.340
33390W        W 1731  10.688  43.337  13.396
33391W        W 1732  36.848  10.723  10.900
33392W        W 1733  12.187  31.493   2.278
33393W        W 1734  23.234  42.413  12.378
33394W        W 1735  38.331  36.581  12.505
33395W        W 1736  40.426  16.654   1.336
33396W        W 1737  21.212  34.011  13.353
33397W        W 1738  23.550  29.157   3.654
33398W        W 1739  15.723  30.986  12.911
33399W        W 1740   9.333  21.633  11.912
33400W        W 1741  44.327  31.002   2.358
33401W        W 1742  39.951   9.651   3.773
33402W        W 1743  30.434  20.756  11.890
33403W        W 1744  24.021  17.788  10.543
33404W        W 1745  36.955  34.441   0.910
33405W        W 1746  44.004  37.394  12.940
33406W        W 1747  20.242  35.555   2.714
33407W        W 1748  41.493  24.665   4.616
33408W        W 1749  23.566  19.650  14.879
33409W        W 1750  31.129   5.881  13.433
33410W        W 1751  34.974  33.884   1.387
33411W        W 1752  13.279  20.574  12.057
33412W        W 1753   7.294  12.759   2.823
33413W        W 1754  15.713  35.381  13.370
33414W        W 1755  10.204  44.315   3.197
33415W        W 1756  10.307  42.807   3.644
33416W        W 1757  31.130   7.903  13.321
33417W        W 1758  24.663  26.164  14.397
33418W        W 1759  28.132  19.110   1.308
33419W        W 1760  11.368   6.850   2.412
33420W        W 1761  11.751  28.529  11.563
33421W        W 1762  22.114  13.643   4.332
33422W        W 1763  23.153  33.465   1.804
33423W        W 1764   5.717  28.653  13.376
33424W        W 1765  33.517   3.925  12.473
33425W        W 1766  17.187  18.780  12.510
33426W        W 1767  30.470  13.219  14.832
33427W        W 1768  29.555  25.078   4.254
33428W        W 1769   0.389  28.170  13.821
33429W        W 1770  29.624   1.766  13.052
33430W        W 1771   5.335  10.709   3.712
33431W        W 1772   5.337  22.236   1.313
33432W        W 1773  22.558  13.611   4.263
33433W        W 1774  31.961  10.669  10.893
33434W        W 1775  41.373  36.081   1.324
33435W        W 1776  10.682  23.053   0.405
33436W        W 1777  44.965  17.774   4.330
33437W        W 1778  37.479  35.485   0.265
33438W        W 1779  23.001  39.906   4.157
33439W        W 1780   4.875  15.730   0.820
33440W        W 1781  16.810   1.346   4.699
33441W        W 1782   7.407  19.139  10.984
33442W        W 1783   2.847  14.221   3.196
33443W        W 1784  35.572  26.101   3.155
33444W        W 1785  22.209   2.964  13.309
33445W        W 1786  11.257  33.071  11.953
33446W        W 1787  16.679   6.227  11.556
33447W        W 1788  13.691  27.177   0.384
33448W        W 1789   1.423  19.168  13.343
33449W        W 1790  24.654  26.703   2.185
33450W        W 1791   0.802   0.490   4.790
33451W        W 1792  37.385  21.184   2.351
33452W        W 1793  13.247  14.278   4.745
33453W        W 1794  11.666  31.936  12.958
33454W        W 1795   9.351  34.564   4.597
33455W        W 1796  39.474   2.782  13.043
33456W        W 1797  19.621  22.506  11.446
33457W        W 1798   8.272  34.565  10.571
33458W        W 1799  20.251  15.133  11.083
33459W        W 1800  23.043  16.136   5.166
33460W        W 1801  37.856   3.844  13.062
33461W        W 1802  39.868  33.507   1.849
33462W        W 1803  31.939  13.604  12.991
33463W        W 1804  10.343  17.238   5.277
33464W        W 1805   7.416  18.785   4.300
33465W        W 1806  37.052  34.944   2.788
33466W        W 1807  13.277  40.499  14.476
33467W        W 1808  25.100   4.247  11.094
33468W        W 1809  16.618  14.806  11.963
33469W        W 1810   7.278  36.847  11.488
33470W        W 1811  26.978  34.068  12.432
33471W        W 1812  35.595  40.901  11.494
33472W        W 1813  14.731  21.165   3.166
33473W        W 1814   1.924  17.077  13.335
33474W        W 1815  15.257   8.335   0.951
33475W        W 1816  14.717  40.970   4.736
33476W        W 1817   0.290  41.441   0.378
33477W        W 1818  18.757  38.333   1.714
33478W        W 1819  22.673  21.526   1.228
33479W        W 1820   5.435  43.306   1.858
33480W        W 1821  36.859   6.725   1.921
33481W        W 1822  13.771  12.852   2.733
33482W        W 1823  27.081  39.836  12.465
33483W        W 1824  40.815  40.351   0.918
33484W        W 1825   4.928  43.837  12.922
33485W        W 1826  22.171  34.531   2.363
33486W        W 1827  39.909   8.303   3.282
33487W        W 1828  21.608  33.106   2.675
33488W        W 1829  44.444  33.493   2.774
33489W        W 1830   9.297  34.918  12.961
33490W        W 1831  43.785   4.218   3.147
33491W        W 1832   3.241  19.559  10.952
33492W        W 1833  38.024  22.746  10.153
33493W        W 1834  39.013  36.911  11.479
33494W        W 1835  24.493  33.624   0.910
33495W        W 1836  41.521  19.566   0.364
33496W        W 1837  43.908  24.491  11.437
33497W        W 1838  19.041  30.945   3.152
33498W        W 1839   4.344  19.276  11.895
33499W        W 1840  34.042  26.095   2.233
33500W        W 1841  38.836  32.566  14.853
33501W        W 1842  20.140   3.439   1.265
33502W        W 1843   7.324   5.868  11.038
33503W        W 1844  34.931   9.826  11.563
33504W        W 1845   8.655  18.725   1.922
33505W        W 1846  22.013  36.541   0.809
33506W        W 1847  36.079  31.914   3.231
33507W        W 1848   6.267   4.762   5.291
33508W        W 1849   5.776  38.407   1.706
33509W        W 1850  16.695  40.988  14.020
33510W        W 1851   1.779  18.068  12.340
33511W        W 1852   1.804  20.057  10.590
33512W        W 1853  13.712   2.860  12.431
33513W        W 1854  44.324  39.029   1.318
33514W        W 1855   3.223   1.266  13.046
33515W        W 1856   7.249  32.526  13.997
33516W        W 1857  33.880  42.314  12.433
33517W        W 1858  40.808  27.054   1.329
33518W        W 1859  16.242   7.277  11.545
33519W        W 1860  16.609  14.834   4.153
33520W        W 1861  43.336  22.124  14.791
33521W        W 1862  14.120  23.510   1.769
33522W        W 1863   8.854  12.165   3.732
33523W        W 1864  32.536  18.237   4.165
33524W        W 1865  34.531  24.191   0.796
33525W        W 1866  34.552  41.974  14.906
33526W        W 1867   0.743  18.217  12.453
33527W        W 1868   8.176  35.935   1.723
33528W        W 1869  43.835  39.483  12.340
33529W        W 1870  30.655  25.651   5.291
33530W        W 1871  44.791  17.689   2.734
33531W        W 1872   0.426  34.903   4.770
33532W        W 1873  19.093  38.505  14.495
33533W        W 1874   6.770  18.782  11.455
33534W        W 1875   7.872  40.548   2.252
33535W        W 1876  27.509  21.026  10.408
33536W        W 1877  26.524  19.569   4.341
33537W        W 1878   3.452  43.500  10.420
33538W        W 1879  18.690  17.108  14.330
33539W        W 1880   3.439  35.370   4.696
33540W        W 1881  30.050   1.438  11.440
33541W        W 1882   7.770  21.227  10.148
33542W        W 1883   5.917  13.289  14.302
33543W        W 1884   2.723   6.226  11.883
33544W        W 1885  14.794  34.371   2.352
33545W        W 1886   0.430  33.586  12.937
33546W        W 1887  30.481  29.487   0.322
33547W        W 1888   8.883   3.879   3.686
33548W        W 1889  28.136  14.156  13.524
33549W        W 1890   9.652  43.973  11.548
33550W        W 1891   3.293  30.416  12.043
33551W        W 1892  30.658   8.829  10.451
33552W        W 1893  18.137  13.660   2.181
33553W        W 1894  22.589   1.970   3.376
33554W        W 1895  27.195   9.679   1.227
33555W        W 1896  40.906  17.649  13.974
33556W        W 1897  32.480  14.323   3.713
33557W        W 1898  11.827   8.260  14.333
33558W        W 1899   8.712   7.820   3.304
33559W        W 1900  32.091   7.801  12.051
33560W        W 1901   6.743  31.471  11.407
33561W        W 1902  34.914  29.456  10.935
33562W        W 1903   6.427  13.781  12.468
33563W        W 1904  35.952  24.015  12.075
33564W        W 1905  12.300  37.408   1.384
33565W        W 1906   5.380  38.393  11.928
33566W        W 1907   8.724  33.574  11.599
33567W        W 1908   1.407  27.166   3.327
33568W        W 1909  19.203  23.081  13.854
33569W        W 1910  22.231  35.854  14.832
33570W        W 1911  27.139  41.446  13.497
33571W        W 1912  18.099   8.160   3.701
33572W        W 1913   4.431   1.349  12.022
33573W        W 1914  16.634  18.752  14.878
33574W        W 1915  32.998  12.322   0.349
33575W        W 1916  27.151  29.985  13.894
33576W        W 1917  12.696  15.118  10.440
33577W        W 1918  34.462  28.055  10.899
33578W        W 1919  20.665  34.577  12.551
33579W        W 1920  24.193  44.451   4.743
33580W        W 1921  14.789  25.016   0.463
33581W        W 1922  12.324  25.037   4.683
33582W        W 1923   1.398  34.596  13.997
33583W        W 1924  26.527   2.881  11.557
33584W        W 1925  21.086  22.047   1.848
33585W        W 1926  23.671  34.567  13.475
33586W        W 1927  16.257  15.714  12.339
33587W        W 1928  19.538  25.652   3.666
33588W        W 1929  26.133  23.197   3.161
33589W        W 1930  30.551  39.052  14.450
33590W        W 1931  42.802  13.764   0.835
33591W        W 1932  12.255  44.921  10.614
33592W        W 1933  18.653  25.509  13.905
33593W        W 1934  39.315  40.954   3.372
33594W        W 1935  26.954  28.042  11.073
33595W        W 1936  30.977   5.403   1.713
33596W        W 1937   1.438  17.203   4.669
33597W        W 1938  19.616   8.881   2.867
33598W        W 1939  28.566  34.028  13.868
33599W        W 1940  26.084  28.579   3.164
33600W        W 1941  29.116  41.373  14.947
33601W        W 1942  34.876  37.888   4.250
33602W        W 1943  40.868  21.119  10.437
33603W        W 1944  41.893  40.907  13.012
33604W        W 1945   8.740  22.742   2.737
33605W        W 1946  11.646  26.663  10.549
33606W        W 1947  15.766  17.685  13.505
33607W        W 1948  41.534  36.967  14.858
33608W        W 1949   4.358  16.711   4.784
33609W        W 1950  23.509  37.393  12.983
33610W        W 1951  44.460   2.923  14.013
33611W        W 1952  31.956   4.384   0.793
33612W        W 1953  22.665  22.621  10.110
33613W        W 1954  16.572  27.949  11.441
33614W        W 1955  29.991  39.507   1.377
33615W        W 1956  13.145  43.952  12.450
33616W        W 1957  29.475   5.223  12.389
33617W        W 1958   3.845  11.293   4.283
33618W        W 1959   9.718  16.672  10.619
33619W        W 1960  44.856  37.426   3.384
33620W        W 1961  17.698  40.983  14.328
33621W        W 1962  39.026  36.036  10.521
33622W        W 1963  40.392  13.119  10.505
33623W        W 1964  16.217  30.651   2.361
33624W        W 1965   8.711  31.435   4.738
33625W        W 1966  17.101   1.914   2.668
33626W        W 1967  19.275  23.139   2.698
33627W        W 1968   2.314  33.065   0.955
33628W        W 1969  44.836   6.701  10.403
33629W        W 1970  29.463  27.172  11.588
33630W        W 1971  13.237  35.466   1.762
33631W        W 1972  34.985  40.814   1.726
33632W        W 1973  14.651   4.749  10.412
33633W        W 1974  31.458  13.182  10.430
33634W        W 1975  27.498   4.895  11.518
33635W        W 1976  40.524   1.436  12.884
33636W        W 1977  31.495  13.802  10.985
33637W        W 1978  34.540  23.722  14.805
33638W        W 1979  22.048  27.026  14.016
33639W        W 1980   3.395  43.486  14.865
33640W        W 1981   6.755  16.109  12.421
33641W        W 1982  20.631  26.203   2.319
33642W        W 1983  28.070   2.417  13.981
33643W        W 1984  16.215  33.906   1.274
33644W        W 1985  13.828  40.503   1.282
33645W        W 1986  34.411  34.061   0.408
33646W        W 1987  21.562   5.359  12.894
33647W        W 1988  18.628  43.987  11.008
33648W        W 1989  12.775  10.753   1.310
33649W        W 1990  42.013   2.437   4.627
33650W        W 1991  14.650  21.549  10.448
33651W        W 1992  24.648  10.150   3.214
33652W        W 1993  28.442  26.684   0.336
33653W        W 1994  26.177  30.425  14.409
33654W        W 1995  35.092  22.105   4.809
33655W        W 1996  16.229  25.616  14.509
33656W        W 1997  11.319  34.951   1.730
33657W        W 1998  37.833  12.632  12.377
33658W        W 1999  40.496  38.053  10.892
33659W        W 2000   3.735   5.909  10.475
33660W        W 2001  31.139  16.261   3.845
33661W        W 2002  15.128  14.710   0.802
33662W        W 2003  30.569  24.135   2.369
33663W        W 2004  28.474   7.280  14.387
33664W        W 2005  13.299  16.284  12.367
33665W        W 2006  15.733  33.410  14.888
33666W        W 2007  26.635  23.663   4.753
33667W        W 2008  33.424  28.570  14.028
33668W        W 2009   4.791   1.352  12.060
33669W        W 2010  28.570  36.936  13.962
33670W        W 2011  15.774  22.160   3.287
33671W        W 2012   6.729   6.205   2.288
33672W        W 2013  12.159  43.346  13.814
33673W        W 2014  36.470   6.872  13.519
33674W        W 2015  34.435  21.055   0.246
33675W        W 2016  38.388  25.145  11.087
33676W        W 2017   2.918   4.357  11.008
33677W        W 2018  41.819  14.278   3.827
33678W        W 2019  21.578  31.539   4.611
33679W        W 2020  19.062   4.762  11.958
33680W        W 2021  44.410  22.114  11.129
33681W        W 2022   5.818  31.644   0.866
33682W        W 2023  15.097  40.837   0.775
33683W        W 2024  36.093   5.337  14.353
33684W        W 2025  35.000  29.645  12.009
33685W        W 2026  27.009  39.910  14.487
33686W        W 2027  22.700  20.045  12.498
33687W        W 2028  22.075  18.093  13.793
33688W        W 2029  27.551  11.846  14.989
33689W        W 2030  31.582  37.348   3.840
33690W        W 2031   7.247  24.087   2.346
33691W        W 2032   9.810  32.063  10.977
33692W        W 2033  14.755  35.854  11.592
33693W        W 2034  16.076  26.626   5.169
33694W        W 2035   2.457  31.417  12.563
33695W        W 2036  37.059  36.395   0.246
33696W        W 2037  40.991  38.911  13.548
33697W        W 2038   4.210  24.163  14.798
33698W        W 2039  19.259  15.197   1.232
33699W        W 2040  12.278  29.656   1.285
33700W        W 2041  34.960  24.024   0.263
33701W        W 2042  25.990  35.989   1.906
33702W        W 2043  29.042  14.096   4.704
33703W        W 2044  37.376  27.964  11.399
33704W        W 2045  10.244  14.684   3.852
33705W        W 2046  12.756  41.340   2.746
33706W        W 2047  42.446   2.353  11.991
33707W        W 2048  22.048  20.213   0.882
33708W        W 2049  34.951  31.057   3.868
33709W        W 2050  26.604  16.671  11.029
33710W        W 2051   6.214  30.097   2.878
33711W        W 2052   6.842   0.957  12.560
33712W        W 2053  15.190  37.006   4.684
33713W        W 2054  15.289  24.507  11.958
33714W        W 2055  42.358  36.415   3.687
33715W        W 2056   0.351  41.825  12.028
33716W        W 2057  33.541  13.664  12.439
33717W        W 2058  29.593  36.485  14.405
33718W        W 2059   0.912  33.416   2.724
33719W        W 2060  41.437  37.867   3.189
33720W        W 2061  41.801  44.376   1.846
33721W        W 2062   0.753  15.325   4.282
33722W        W 2063  28.628  32.888  11.856
33723W        W 2064  14.593  14.236  14.762
33724W        W 2065  32.113  27.159   2.706
33725W        W 2066  34.482  10.789   0.383
33726W        W 2067  29.141  35.371  14.506
33727W        W 2068  31.953  22.239   1.428
33728W        W 2069  41.312   3.938   3.194
33729W        W 2070  13.739  26.159  13.420
33730W        W 2071   7.759  40.411  14.912
33731W        W 2072  22.088   3.377  14.828
33732W        W 2073  43.887  25.045   3.335
33733W        W 2074   9.161  42.918  12.986
33734W        W 2075  40.544   5.872   0.353
33735W        W 2076  41.791  42.948   3.644
33736W        W 2077  15.311  33.086  14.899
33737W        W 2078   2.789  11.816  14.845
33738W        W 2079   4.812   1.849   0.889
33739W        W 2080  10.148  16.285   3.302
33740W        W 2081  25.588   4.421   2.775
33741W        W 2082  16.672  17.557  11.483
33742W        W 2083  29.074   0.888  14.811
33743W        W 2084  23.668  36.049   2.271
33744W        W 2085  35.026   3.430  14.381
33745W        W 2086  37.009   4.770   0.855
33746W        W 2087  44.410   5.834   5.081
33747W        W 2088  23.685   9.392   4.317
33748W        W 2089  26.671  20.639  11.951
33749W        W 2090  35.562   0.374  14.948
33750W        W 2091  10.370  13.122   1.333
33751W        W 2092   9.819  33.533   2.743
33752W        W 2093  39.908  41.925  13.464
33753W        W 2094  32.420  26.699  10.589
33754W        W 2095  43.958  27.464   1.883
33755W        W 2096  41.323  32.111  10.955
33756W        W 2097  13.132  38.832  11.967
33757W        W 2098  15.304   9.762   0.393
33758W        W 2099  12.290  27.623   4.659
33759W        W 2100   2.963  38.044  14.997
33760W        W 2101  41.801  18.687  12.385
33761W        W 2102  39.987  17.636   2.830
33762W        W 2103  15.125  30.645  13.376
33763W        W 2104   5.705  10.246   0.768
33764W        W 2105  10.747   7.268  14.945
33765W        W 2106  14.821   3.837   4.195
33766W        W 2107  11.661  32.527  10.957
33767W        W 2108  23.494  18.099  13.798
33768W        W 2109  25.118   0.305  14.289
33769W        W 2110  13.226  15.083   3.643
33770W        W 2111  10.852   5.697  11.123
33771W        W 2112  38.443  43.325   4.157
33772W        W 2113  13.288  34.439  13.968
33773W        W 2114  28.163  27.993  10.618
33774W        W 2115  13.722  23.235  14.005
33775W        W 2116  10.280  35.055   3.182
33776W        W 2117  21.551  25.490  12.461
33777W        W 2118  40.809  31.545  12.925
33778W        W 2119  12.632  31.446  14.489
33779W        W 2120  27.578  34.440  13.510
33780W        W 2121  24.563  15.706   9.925
33781W        W 2122   2.779  23.663  13.992
33782W        W 2123  29.998  20.133  12.371
33783W        W 2124  33.552  32.484  12.483
33784W        W 2125  32.597  29.980   3.851
33785W        W 2126   6.769  41.421   2.201
33786W        W 2127  40.472   4.853  14.958
33787W        W 2128   1.762  35.939   2.832
33788W        W 2129  13.128  29.157   3.382
33789W        W 2130  39.994  19.277  11.956
33790W        W 2131  35.875  15.302  10.568
33791W        W 2132  29.941  32.928  11.876
33792W        W 2133  36.507   1.861  13.384
33793W        W 2134   8.353  41.292  14.502
33794W        W 2135  31.586   7.749   1.881
33795W        W 2136  43.011   1.893  14.919
33796W        W 2137  16.740  23.998  10.026
33797W        W 2138  38.339   6.395   0.305
33798W        W 2139  22.567   8.336   0.273
33799W        W 2140   3.403  11.683   0.274
33800W        W 2141  21.058  10.279   4.321
33801W        W 2142   2.835  24.696  12.551
33802W        W 2143  35.511  40.530  12.037
33803W        W 2144  23.078  19.056   2.685
33804W        W 2145  39.371  11.272   4.312
33805W        W 2146  28.592  10.360   4.130
33806W        W 2147  27.602  21.651  13.399
33807W        W 2148  32.072  42.030   4.337
33808W        W 2149  25.111  10.637  13.473
33809W        W 2150   3.831  39.526  14.390
33810W        W 2151  37.051  15.124   4.174
33811W        W 2152  29.624  30.452  11.021
33812W        W 2153   4.316  35.562  12.858
33813W        W 2154  18.551   7.364   5.177
33814W        W 2155  39.043  41.313   4.633
33815W        W 2156  25.063   8.881  12.868
33816W        W 2157  40.925   1.458  11.940
33817W        W 2158   1.776   7.236  11.862
33818W        W 2159   6.411  33.039   4.736
33819W        W 2160  23.511  42.346   0.749
33820W        W 2161  10.878  16.077   3.857
33821W        W 2162   4.843   5.807   1.373
33822W        W 2163   7.270   7.862   1.417
33823W        W 2164   4.307  36.994  12.401
33824W        W 2165  38.436  30.994   4.646
33825W        W 2166  12.199  38.869  11.577
33826W        W 2167  24.218  18.638   0.937
33827W        W 2168  35.578   5.294   0.440
33828W        W 2169  21.576  20.156  14.807
33829W        W 2170   1.753  38.056   0.829
33830W        W 2171  44.473  22.608  14.810
33831W        W 2172  34.492  20.129  12.411
33832W        W 2173   5.430   6.744  13.318
33833W        W 2174  42.338  44.755  12.829
33834W        W 2175  23.726  25.483  12.446
33835W        W 2176   4.849  42.383  10.614
33836W        W 2177  23.581   0.785  10.942
33837W        W 2178  11.724  25.497   4.649
33838W        W 2179  23.492  31.065  11.578
33839W        W 2180  26.653   2.856   2.414
33840W        W 2181   2.780  16.684  14.288
33841W        W 2182  41.463  28.130  14.018
33842W        W 2183  29.531  32.000   4.196
33843W        W 2184  15.785  38.324   1.820
33844W        W 2185   5.236  30.534  10.614
33845W        W 2186  39.436   6.363  11.426
33846W        W 2187  20.721   5.407   1.779
33847W        W 2188  14.789  24.719   2.302
33848W        W 2189   2.809   5.424   2.837
33849W        W 2190  15.658   4.740  10.944
33850W        W 2191   6.262  42.449   1.330
33851W        W 2192   3.758  13.762   2.894
33852W        W 2193  14.304  22.103   3.729
33853W        W 2194  38.944   3.290   3.369
33854W        W 2195  27.469  23.663   2.230
33855W        W 2196   1.467  13.691  13.945
33856W        W 2197   9.201   0.800  13.421
33857W        W 2198  34.935  27.094  12.577
33858W        W 2199  22.606  23.710   1.414
33859W        W 2200  31.130   9.806  12.018
33860W        W 2201  22.250  36.860   4.120
33861W        W 2202   7.204  39.451   4.329
33862W        W 2203  38.075  41.340  14.026
33863W        W 2204  20.112  10.654  13.911
33864W        W 2205  35.913  16.174  11.925
33865W        W 2206  13.260  27.507  12.559
33866W        W 2207  24.633  13.778  10.573
33867W        W 2208   7.231  15.163  12.928
33868W        W 2209  28.153  11.234  10.503
33869W        W 2210  19.718  28.146  10.946
33870W        W 2211  16.758   3.728   3.194
33871W        W 2212  31.621  14.134   4.650
33872W        W 2213  28.161  17.304   5.169
33873W        W 2214  16.691  30.594  10.986
33874W        W 2215   0.841  24.681  14.762
33875W        W 2216  35.000   1.240   3.382
33876W        W 2217  33.531  10.288  14.962
33877W        W 2218   4.771   4.386   9.929
33878W        W 2219  29.963  36.585  10.535
33879W        W 2220  39.373  28.450   4.314
33880W        W 2221  17.277  32.102  13.033
33881W        W 2222  38.555  26.693  11.608
33882W        W 2223  20.067  42.344   0.923
33883W        W 2224   3.455   6.239  14.874
33884W        W 2225  32.399   9.882   0.836
33885W        W 2226  13.164   0.825  10.120
33886W        W 2227  30.588  33.983   1.224
33887W        W 2228  37.841  36.958   4.136
33888W        W 2229  18.122  20.730  14.825
33889W        W 2230  34.117  14.200  13.326
33890W        W 2231  40.048  11.228  12.509
33891W        W 2232   0.301   9.356  13.960
33892W        W 2233  44.294  40.352   0.460
33893W        W 2234   3.329   3.833   4.680
33894W        W 2235  36.558  18.232  11.899
33895W        W 2236  35.087   4.221  12.465
33896W        W 2237   7.895  23.093  14.330
33897W        W 2238  37.444  43.876   3.340
33898W        W 2239  25.556  21.179   0.246
33899W        W 2240   4.208  41.043   3.201
33900W        W 2241  24.149  35.969  10.426
33901W        W 2242  42.309  37.871  14.402
33902W        W 2243  15.607  20.607   1.766
33903W        W 2244  36.500  31.436   2.240
33904W        W 2245  22.194  13.203   1.909
33905W        W 2246  37.946  19.270  10.533
33906W        W 2247  27.196  29.128   2.379
33907W        W 2248  36.397  13.705  14.865
33908W        W 2249   3.336  36.571  14.947
33909W        W 2250   6.229  33.551   1.247
33910W        W 2251  25.154  31.563  14.419
33911W        W 2252  18.788  36.414  13.802
33912W        W 2253   8.863  19.546   0.250
33913W        W 2254  24.607  41.925  13.022
33914W        W 2255  36.893  40.923   0.934
33915W        W 2256   3.883  26.174   1.899
33916W        W 2257   5.817   0.282  12.352
33917W        W 2258  30.571   2.819   1.852
33918W        W 2259  15.112   2.795  11.609
33919W        W 2260   4.844  18.587  12.449
33920W        W 2261  39.337   8.770   1.725
33921W        W 2262  26.095  42.824   2.400
33922W        W 2263  10.678  30.444  12.929
33923W        W 2264  26.692  39.969  10.614
33924W        W 2265  27.039  20.600   2.186
33925W        W 2266  12.749  11.854   0.394
33926W        W 2267  21.164  25.098  11.044
33927W        W 2268   8.663  42.280  14.029
33928W        W 2269  35.473  11.251  13.375
33929W        W 2270  32.599  20.669   4.622
33930W        W 2271  13.246  11.185   0.392
33931W        W 2272   2.422  41.386  14.798
33932W        W 2273  31.011   9.245  14.292
33933W        W 2274  29.073  27.468  13.884
33934W        W 2275   6.327  13.199  11.543
33935W        W 2276  13.699   0.924  13.922
33936W        W 2277   0.363  43.823  14.790
33937W        W 2278  35.025  26.968  11.864
33938W        W 2279   2.915  39.878  11.611
33939W        W 2280  41.418   3.238   3.240
33940W        W 2281  42.497  32.497  14.363
33941W        W 2282  10.188  22.231  10.927
33942W        W 2283  40.866  17.065  11.888
33943W        W 2284  33.615  23.643  11.120
33944W        W 2285   0.293  18.617   4.245
33945W        W 2286  25.633  39.347  12.828
33946W        W 2287  38.984   8.194  11.467
33947W        W 2288  16.206  16.309   3.813
33948W        W 2289  36.422   5.792   3.753
33949W        W 2290  22.046   5.922  14.361
33950W        W 2291   3.721  40.361   3.643
33951W        W 2292   9.782  11.349   4.292
33952W        W 2293   2.363   5.219   4.677
33953W        W 2294  17.206  29.452   1.704
33954W        W 2295  22.020  38.443   2.866
33955W        W 2296  14.614   9.317   1.394
33956W        W 2297  34.949  23.237   3.678
33957W        W 2298  42.386  29.095  12.869
33958W        W 2299   4.221   0.359   2.706
33959W        W 2300  20.109   8.811   0.394
33960W        W 2301   6.418  27.614   3.791
33961W        W 2302  44.427  33.882  14.338
33962W        W 2303  40.473  13.803   0.912
33963W        W 2304  20.576   7.303   0.805
33964W        W 2305   2.887  20.685  13.344
33965W        W 2306  42.779   3.924   3.280
33966W        W 2307   7.225  28.487  14.506
33967W        W 2308  29.131  38.040  11.567
33968W        W 2309  35.472  12.127   2.708
33969W        W 2310  33.446   4.394   1.731
33970W        W 2311  36.482  12.123  10.403
33971W        W 2312  31.466  22.533   4.753
33972W        W 2313   8.286  12.225   4.768
33973W        W 2314  15.106  14.722  12.087
33974W        W 2315  25.041  18.655  14.788
33975W        W 2316  34.606  29.553  11.863
33976W        W 2317   5.693  27.995  12.837
33977W        W 2318   9.162   3.865   2.390
33978W        W 2319  34.491  27.452   2.382
33979W        W 2320   2.286   9.658  10.997
33980W        W 2321  15.816   4.926   1.441
33981W        W 2322  34.431   1.752   0.809
33982W        W 2323  27.064   4.785  12.043
33983W        W 2324  33.545  10.192  13.364
33984W        W 2325   7.336  42.832   0.482
33985W        W 2326  17.607  33.038   3.319
33986W        W 2327  31.432  29.507  12.496
33987W        W 2328  39.822  35.521  13.841
33988W        W 2329  23.011   9.730  14.903
33989W        W 2330  23.996  31.607  11.470
33990W        W 2331  41.467  37.346   5.216
33991W        W 2332  26.591  28.954  14.303
33992W        W 2333  38.951  30.447  12.882
33993W        W 2334  17.687  17.750  10.542
33994W        W 2335  42.954  11.722  12.048
33995W        W 2336  30.974   1.426   1.378
33996W        W 2337  19.052  16.224  12.926
33997W        W 2338  33.485  16.683  11.116
33998W        W 2339  40.366   0.277  10.504
33999W        W 2340  44.329  30.519  11.489
34000W        W 2341  16.757  36.521   4.123
34001W        W 2342  37.555  22.161  11.383
34002W        W 2343  35.567  28.510   4.797
34003W        W 2344  33.038  18.673   1.874
34004W        W 2345   8.796  22.120   0.277
34005W        W 2346  15.634  29.625  14.886
34006W        W 2347  21.668   3.396  12.090
34007W        W 2348  27.473  32.896   2.200
34008W        W 2349  24.717   9.175   3.834
34009W        W 2350  16.685   0.771   4.154
34010W        W 2351   8.333  14.335  14.776
34011W        W 2352  26.158   5.711  13.513
34012W        W 2353  24.582  38.051   0.952
34013W        W 2354   3.952   3.930  13.059
34014W        W 2355  19.162  11.678  10.506
34015W        W 2356  34.118  36.383   3.338
34016W        W 2357   5.374  22.012  13.887
34017W        W 2358  17.270  19.076  11.445
34018W        W 2359  10.283   8.217  10.543
34019W        W 2360  11.319  27.051  11.092
34020W        W 2361  44.274  31.999  11.945
34021W        W 2362  44.442  20.669   0.924
34022W        W 2363  27.180  16.082   4.183
34023W        W 2364  16.786  12.227   1.399
34024W        W 2365  27.027  16.712   1.222
34025W        W 2366  11.665  34.079   3.742
34026W        W 2367  19.620  23.139   1.302
34027W        W 2368  43.296   5.271   4.166
34028W        W 2369  10.706  43.368   0.776
34029W        W 2370  28.986   8.890  10.929
34030W        W 2371  32.104  29.087  14.925
34031W        W 2372  36.495  37.020  10.898
34032W        W 2373  15.111  21.596   2.328
34033W        W 2374  19.117  12.288  12.967
34034W        W 2375  18.725  30.418   1.794
34035W        W 2376  43.285  42.804   3.269
34036W        W 2377   1.321   1.427  11.474
34037W        W 2378  44.305   9.260  11.612
34038W        W 2379   1.407  14.158  10.915
34039W        W 2380   2.758  43.273  13.957
34040W        W 2381  15.227   9.703   3.299
34041W        W 2382  40.840   7.893  14.759
34042W        W 2383   9.168  22.108  12.450
34043W        W 2384  32.474  13.243   3.358
34044W        W 2385  41.021  17.569   1.823
34045W        W 2386  35.043  17.087   0.967
34046W        W 2387  31.098  41.410  14.798
34047W        W 2388   2.873  26.484  10.587
34048W        W 2389  19.723  16.760  12.572
34049W        W 2390   0.927  32.985   0.949
34050W        W 2391  36.526  30.929  10.953
34051W        W 2392  37.035   7.742  13.947
34052W        W 2393  21.688   5.861   0.807
34053W        W 2394  44.309   9.296  10.910
34054W        W 2395   8.828   1.310   4.182
34055W        W 2396   1.262  29.464  10.483
34056W        W 2397  17.282  25.183   5.173
34057W        W 2398  38.406  20.263   1.859
34058W        W 2399  37.435  10.633  11.403
34059W        W 2400  42.793  12.210   2.180
34060W        W 2401  41.366  40.990  11.500
34061W        W 2402  21.598  17.257  11.069
34062W        W 2403  21.583   9.235   1.822
34063W        W 2404   9.189  15.721   3.712
34064W        W 2405  29.639   2.298  14.483
34065W        W 2406  44.981  29.428   2.870
34066W        W 2407  16.752  38.986  11.416
34067W        W 2408  17.654  14.730  13.463
34068W        W 2409  16.271  19.598  12.940
34069W        W 2410  35.069   2.430   2.416
34070W        W 2411  13.324   8.338  13.337
34071W        W 2412  17.089  20.759  10.003
34072W        W 2413  25.029  41.924   1.447
34073W        W 2414  20.573  16.801   3.820
34074W        W 2415  15.115  15.140  12.864
34075W        W 2416   9.311  44.403   2.708
34076W        W 2417  39.019  13.139  11.955
34077W        W 2418  33.607   9.376   4.598
34078W        W 2419   9.718  27.156  13.838
34079W        W 2420  43.335  31.092   4.127
34080W        W 2421  34.566  38.404  11.037
34081W        W 2422  12.615  22.576   0.350
34082W        W 2423  31.021  42.832  13.421
34083W        W 2424   6.257   8.788  13.500
34084W        W 2425  16.762  38.557   1.740
34085W        W 2426  19.646  15.622  12.574
34086W        W 2427  34.997  14.178  12.010
34087W        W 2428  27.575  13.283  13.437
34088W        W 2429   5.913  11.260   3.380
34089W        W 2430   1.918  41.537  12.058
34090W        W 2431  10.678  34.935  12.838
34091W        W 2432  10.183  27.656  10.526
34092W        W 2433  27.596  15.590   1.852
34093W        W 2434   3.365  33.587   0.858
34094W        W 2435  30.913  40.830   3.732
34095W        W 2436   1.339  25.073  13.523
34096W        W 2437  13.759  26.160   2.395
34097W        W 2438  25.685   7.689  10.905
34098W        W 2439  20.598  13.341   3.186
34099W        W 2440  10.163  30.100   4.259
34100W        W 2441  14.328  22.651   2.325
34101W        W 2442  16.665  26.151   2.219
34102W        W 2443   3.286  19.622  13.028
34103W        W 2444  34.542  35.036  10.492
34104W        W 2445  20.540  16.646  13.885
34105W        W 2446  30.952  28.619  14.288
34106W        W 2447   4.911  41.538  14.433
34107W        W 2448   4.815  36.363  10.494
34108W        W 2449  44.393  44.788  13.875
34109W        W 2450   1.316   9.813   3.662
34110W        W 2451  19.605   9.737  13.481
34111W        W 2452  16.751  37.024  11.975
34112W        W 2453  18.719  16.146   2.228
34113W        W 2454  23.225   9.703  14.388
34114W        W 2455  29.448  27.131  10.608
34115W        W 2456  39.028  20.240  12.498
34116W        W 2457  29.471  21.084  12.374
34117W        W 2458  16.715  30.132   1.377
34118W        W 2459   8.794  39.354  10.974
34119W        W 2460  24.509   2.933   1.335
34120W        W 2461  22.657   0.972  13.948
34121W        W 2462  27.547  13.146   0.363
34122W        W 2463  28.477   2.343  14.923
34123W        W 2464  40.982  13.148  14.961
34124W        W 2465  37.421  14.676  10.939
34125W        W 2466  32.022  31.511   4.767
34126W        W 2467  11.678  23.230   1.371
34127W        W 2468  24.993   9.301   1.213
34128W        W 2469  34.560   6.379  14.991
34129W        W 2470  42.419   6.195  12.024
34130W        W 2471  35.472   5.735  13.953
34131W        W 2472  18.759   9.800   4.311
34132W        W 2473  31.413  29.503  11.079
34133W        W 2474  19.170  13.722   4.236
34134W        W 2475  25.590  20.648  11.465
34135W        W 2476   5.865  38.908   3.783
34136W        W 2477  15.760  18.698   1.246
34137W        W 2478   2.395  20.663   2.776
34138W        W 2479  34.117  26.190   4.601
34139W        W 2480  22.233  25.613  12.988
34140W        W 2481  38.393  34.470  12.901
34141W        W 2482  32.464  39.823   3.368
34142W        W 2483  38.995  32.568   1.754
34143W        W 2484   6.222   3.409  10.063
34144W        W 2485   2.731   4.887   4.129
34145W        W 2486  39.493   4.941  10.412
34146W        W 2487   6.760   1.772  12.911
34147W        W 2488   9.731  21.083  10.979
34148W        W 2489  40.476  25.114  11.408
34149W        W 2490  11.722  44.406   4.220
34150W        W 2491  13.138  25.021   0.773
34151W        W 2492  37.988  31.482   4.243
34152W        W 2493  19.661  15.289  10.468
34153W        W 2494   5.287  17.792  11.395
34154W        W 2495  38.571  17.144  10.555
34155W        W 2496  19.283  31.953  12.524
34156W        W 2497  17.116  14.701   1.838
34157W        W 2498  11.786   2.960   4.614
34158W        W 2499  42.845  25.709  12.452
34159W        W 2500  30.564   0.296   3.715
34160W        W 2501  23.079   2.829  12.983
34161W        W 2502  21.727  44.794  14.862
34162W        W 2503  32.579   3.764  10.486
34163W        W 2504  10.771  24.651   1.373
34164W        W 2505  25.182  36.486  10.483
34165W        W 2506  16.809  32.394  10.444
34166W        W 2507  35.969  40.971  14.939
34167W        W 2508  44.840  38.830  12.916
34168W        W 2509   1.422  17.736   3.189
34169W        W 2510  40.549  43.972  12.485
34170W        W 2511   1.339  11.843  12.825
34171W        W 2512   3.443  30.025  11.430
34172W        W 2513  21.677  17.650   2.297
34173W        W 2514  19.674  26.521  11.936
34174W        W 2515   3.396   2.847   4.603
34175W        W 2516  35.534  22.630  11.518
34176W        W 2517  39.332   5.745  10.526
34177W        W 2518  21.170  34.545  13.541
34178W        W 2519  38.567  37.908  11.559
34179W        W 2520   5.209   2.899   3.777
34180W        W 2521   9.180  24.031   3.665
34181W        W 2522   4.913  18.158   0.450
34182W        W 2523  15.277  14.721   4.765
34183W        W 2524  17.745  43.393  11.907
34184W        W 2525  22.137  44.264  10.564
34185W        W 2526   6.890  41.506   4.676
34186W        W 2527  23.577  18.600   0.333
34187W        W 2528   3.797   5.887  13.850
34188W        W 2529   5.924  44.769  10.497
34189W        W 2530   6.741  32.980  10.491
34190W        W 2531  38.481   6.910   2.373
34191W        W 2532  31.914   5.918   0.846
34192W        W 2533  34.907   1.320   3.855
34193W        W 2534  26.659  33.510  12.092
34194W        W 2535   7.872  35.537  11.389
34195W        W 2536  10.794  11.220   2.720
34196W        W 2537  19.580  12.332   2.324
34197W        W 2538   4.411  39.016   2.836
34198W        W 2539  20.611   4.880   0.953
34199W        W 2540  43.955  24.993   2.696
34200W        W 2541   4.242  17.135   0.402
34201W        W 2542   4.910  22.204   2.187
34202W        W 2543  31.016  29.531   5.313
34203W        W 2544  44.341  17.591  14.294
34204W        W 2545  22.641  32.065  14.999
34205W        W 2546  25.545  42.886  10.411
34206W        W 2547  30.983  23.134  10.614
34207W        W 2548  37.081  16.308   4.293
34208W        W 2549  33.961  44.351   4.142
34209W        W 2550   7.826  23.012   2.186
34210W        W 2551  31.594  24.672   4.178
34211W        W 2552   9.775  24.021  11.969
34212W        W 2553  40.845  28.581  13.454
34213W        W 2554  16.614   9.747   4.605
34214W        W 2555  36.529  39.496  11.545
34215W        W 2556  15.775  38.357  14.925
34216W        W 2557  28.674  28.646  12.087
34217W        W 2558   0.357  35.574  10.634
34218W        W 2559   4.720   3.359   3.823
34219W        W 2560  18.241  15.610   1.799
34220W        W 2561  42.886   0.292  14.984
34221W        W 2562  37.532  19.104   1.834
34222W        W 2563  36.988  10.299   0.746
34223W        W 2564  30.474   0.795   2.392
34224W        W 2565  10.139  15.160  14.817
34225W        W 2566  14.160  18.745   1.731
34226W        W 2567  43.795  12.203   2.668
34227W        W 2568   4.244   5.210   0.291
34228W        W 2569  28.551  14.619  13.876
34229W        W 2570  24.518  29.642  11.929
34230W        W 2571  38.536  11.295   2.732
34231W        W 2572  22.140  32.609  14.014
34232W        W 2573  26.476   2.889  12.545
34233W        W 2574  42.403  25.973   2.314
34234W        W 2575  13.337  25.577  13.852
34235W        W 2576  38.377  14.322   3.731
34236W        W 2577  15.800  24.177  13.835
34237W        W 2578  15.777   2.404  12.524
34238W        W 2579  11.740  29.110   5.214
34239W        W 2580  15.210   2.399   2.679
34240W        W 2581  13.705  17.258   3.659
34241W        W 2582  16.194  22.092   9.939
34242W        W 2583  42.924  33.104  14.000
34243W        W 2584  11.337  35.864   3.209
34244W        W 2585  29.496  11.254  12.017
34245W        W 2586  41.434   3.246  13.969
34246W        W 2587  19.570  41.862   3.653
34247W        W 2588  34.508  23.068  14.775
34248W        W 2589  12.240  27.963  13.846
34249W        W 2590  34.451  35.030  11.452
34250W        W 2591  18.136  28.063  10.959
34251W        W 2592  39.436  19.769  10.545
34252W        W 2593  17.230  41.485   1.836
34253W        W 2594  18.140  10.323   2.755
34254W        W 2595  44.905  37.435   4.731
34255W        W 2596  20.058  39.000  13.424
34256W        W 2597  37.869  38.927   2.687
34257W        W 2598   4.913   3.423   2.720
34258W        W 2599  33.053   8.893  12.461
34259W        W 2600  22.648  39.843  13.896
34260W        W 2601  34.579   7.724  14.802
34261W        W 2602  35.095  20.644  14.912
34262W        W 2603  38.908  32.628   1.321
34263W        W 2604   0.838  15.118   1.339
34264W        W 2605  43.880  14.139   5.167
34265W        W 2606  39.400  23.195   0.836
34266W        W 2607  32.923  22.626   1.841
34267W        W 2608  30.541  42.322   3.289
34268W        W 2609  37.492  37.913   4.629
34269W        W 2610  34.038  17.118   2.305
34270W        W 2611  11.838  35.576   4.258
34271W        W 2612   1.941  40.801   1.765
34272W        W 2613  39.930  23.667  10.966
34273W        W 2614  41.992  24.981  10.462
34274W        W 2615  35.581   3.252  14.338
34275W        W 2616  15.678  23.693   3.735
34276W        W 2617  24.181  18.208   5.181
34277W        W 2618  20.039  14.327  13.360
34278W        W 2619   9.280  24.198  12.502
34279W        W 2620  16.173  24.142   4.260
34280W        W 2621   9.230  29.060   0.850
34281W        W 2622  12.757  33.966  12.954
34282W        W 2623  36.078  32.102   0.446
34283W        W 2624  24.097  19.233  14.980
34284W        W 2625  44.753   1.783  14.876
34285W        W 2626  17.221   3.328   1.905
34286W        W 2627  27.550  28.175   0.960
34287W        W 2628   0.903  43.828   4.706
34288W        W 2629  34.954  42.809   0.359
34289W        W 2630  20.541   6.233   1.422
34290W        W 2631  16.108  41.027   4.606
34291W        W 2632  17.067  38.342  14.874
34292W        W 2633  13.636   5.934   2.896
34293W        W 2634  26.066  27.619   4.736
34294W        W 2635   1.931   6.318  14.979
34295W        W 2636  31.999  41.391   3.811
34296W        W 2637  34.880  23.604  14.987
34297W        W 2638  27.134   2.726   2.291
34298W        W 2639   1.417  24.090  13.814
34299W        W 2640   9.160  29.506   1.249
34300W        W 2641  14.791   8.757  12.429
34301W        W 2642  28.489   9.729   2.847
34302W        W 2643  12.725   5.769  11.536
34303W        W 2644  40.446   1.786  10.567
34304W        W 2645   8.396  28.545   1.802
34305W        W 2646  31.898  32.123  12.445
34306W        W 2647  14.786  36.447  13.874
34307W        W 2648   9.878   7.345   1.816
34308W        W 2649   5.929   2.778   4.270
34309W        W 2650  30.433   3.948  13.045
34310W        W 2651  27.176  39.025   0.735
34311W        W 2652  21.569   5.811   1.927
34312W        W 2653  42.880  39.557   3.842
34313W        W 2654  30.555  35.016  12.459
34314W        W 2655  35.109  22.154  14.832
34315W        W 2656  23.577  22.239  12.980
34316W        W 2657   0.327  36.878  11.092
34317W        W 2658  16.651  40.477   3.255
34318W        W 2659  13.242   3.215   1.913
34319W        W 2660   0.809  18.766   9.968
34320W        W 2661   2.243   9.774  12.889
34321W        W 2662  29.991   5.412   1.801
34322W        W 2663  13.198  40.461   0.803
34323W        W 2664  40.392   5.371   1.741
34324W        W 2665   8.326  23.619  11.945
34325W        W 2666   1.756   8.193   0.341
34326W        W 2667  21.196   9.241  11.988
34327W        W 2668  18.654  14.280   4.837
34328W        W 2669  36.919  36.043   4.667
34329W        W 2670  15.320  21.119  10.991
34330W        W 2671  39.811  33.966   4.679
34331W        W 2672  20.194  40.519  10.486
34332W        W 2673   4.313  30.917   3.863
34333W        W 2674   7.254  10.642   2.292
34334W        W 2675  29.595  21.235   2.415
34335W        W 2676  15.585  17.623  11.460
34336W        W 2677  12.322  31.403  11.001
34337W        W 2678   9.377  37.382   4.176
34338W        W 2679   6.805   5.882  12.045
34339W        W 2680  33.446  16.308   2.697
34340W        W 2681  17.234  26.579   2.265
34341W        W 2682  25.675  30.657  13.419
34342W        W 2683   3.228  36.937  13.529
34343W        W 2684   6.385  26.606  12.482
34344W        W 2685  32.411  20.092   4.827
34345W        W 2686  34.572  18.690  10.959
34346W        W 2687  24.009  16.188   4.156
34347W        W 2688  33.515  28.573   4.658
34348W        W 2689  26.653  34.585   2.299
34349W        W 2690  14.097  29.125  12.516
34350W        W 2691  32.109  12.617  13.041
34351W        W 2692  10.649  15.312  13.794
34352W        W 2693   7.366  10.705   0.757
34353W        W 2694  13.351   4.237  11.423
34354W        W 2695  40.913  35.940   4.207
34355W        W 2696  31.451  41.972   0.418
34356W        W 2697  23.091   1.410  11.412
34357W        W 2698  20.767   1.238   2.900
34358W        W 2699  30.571   0.909   0.741
34359W        W 2700  25.175  15.737  13.985
34360W        W 2701  34.011  20.049   2.681
34361W        W 2702  38.346   0.983   2.667
34362W        W 2703  30.927  15.116  11.123
34363W        W 2704  30.430   3.269  11.464
34364W        W 2705   9.359   1.739   1.252
34365W        W 2706  15.263   7.331  14.773
34366W        W 2707   6.696   2.241   4.132
34367W        W 2708  39.921  36.001   2.218
34368W        W 2709  29.085  25.479  14.359
34369W        W 2710   2.302  18.138  14.316
34370W        W 2711   4.276  21.119  11.429
34371W        W 2712  23.240  11.189   2.186
34372W        W 2713  21.536  14.216   3.658
34373W        W 2714   4.444   1.819   0.445
34374W        W 2715  21.618  16.175  13.996
34375W        W 2716  34.447  15.192  10.413
34376W        W 2717  21.562  17.161  13.837
34377W        W 2718   6.848  36.079   3.781
34378W        W 2719  25.172  39.553   4.213
34379W        W 2720  31.518   4.228   3.799
34380W        W 2721   2.734   7.876   0.727
34381W        W 2722   1.827  34.007  13.413
34382W        W 2723  21.078  15.644  11.966
34383W        W 2724  37.848   8.713   2.742
34384W        W 2725  20.262  23.199   4.716
34385W        W 2726  41.018  42.818   2.403
34386W        W 2727  33.911  42.323   2.327
34387W        W 2728   1.434   2.861  14.005
34388W        W 2729  21.525  10.218  11.864
34389W        W 2730  38.370  25.010   1.332
34390W        W 2731  17.557  42.942   4.182
34391W        W 2732  10.282  40.924   4.325
34392W        W 2733  13.713   0.912   3.175
34393W        W 2734  13.747   2.769   4.645
34394W        W 2735  12.619  43.901  13.947
34395W        W 2736  37.428  24.037  12.561
34396W        W 2737  36.099   7.797   4.651
34397W        W 2738  21.064  32.899  10.564
34398W        W 2739  30.501  43.444  13.059
34399W        W 2740  41.871   9.215  12.890
34400W        W 2741  14.632  13.759  12.823
34401W        W 2742  36.403  11.742  11.110
34402W        W 2743  25.058  20.541   0.828
34403W        W 2744  15.577  12.729  13.800
34404W        W 2745   0.807  10.355   2.842
34405W        W 2746  29.960  11.171   1.445
34406W        W 2747  23.619  31.101   1.268
34407W        W 2748   9.191  21.666   1.232
34408W        W 2749  42.344  22.071  12.019
34409W        W 2750   3.303  11.130   2.840
34410W        W 2751  25.020  20.556   3.850
34411W        W 2752  42.797  27.007   4.605
34412W        W 2753  44.972  38.886  10.932
34413W        W 2754  43.287   7.824  11.563
34414W        W 2755  36.905  19.046   4.788
34415W        W 2756  20.131  34.872   2.238
34416W        W 2757  42.477   3.226  11.873
34417W        W 2758  25.061  36.988   4.196
34418W        W 2759  34.992   0.433   4.129
34419W        W 2760  43.896   0.922  12.360
34420W        W 2761  32.478  12.830  11.523
34421W        W 2762  37.582  16.625   2.328
34422W        W 2763  34.440  29.466   1.250
34423W        W 2764   6.900   7.749  14.856
34424W        W 2765  15.088  22.191   9.558
34425W        W 2766   0.280  25.079   2.791
34426W        W 2767   5.380  30.030   3.279
34427W        W 2768   4.764  25.078  10.027
34428W        W 2769  24.618   3.261   3.195
34429W        W 2770  35.852   0.924   3.675
34430W        W 2771  29.937  31.126  14.938
34431W        W 2772  29.532   5.836  14.812
34432W        W 2773   4.349  22.658   2.340
34433W        W 2774  27.451  17.280   2.405
34434W        W 2775  41.355  16.140  14.970
34435W        W 2776   3.863  18.147  12.994
34436W        W 2777  23.167  35.105  12.538
34437W        W 2778  21.545  29.499  11.889
34438W        W 2779   5.385   5.349   3.362
34439W        W 2780   5.422   8.732   0.315
34440W        W 2781   0.866   8.241  11.516
34441W        W 2782  18.595  36.885   4.150
34442W        W 2783  36.461  28.037  13.447
34443W        W 2784   3.348   9.329  14.947
34444W        W 2785  23.035   4.348  12.553
34445W        W 2786  10.676  11.356  11.953
34446W        W 2787  29.130  13.218  12.023
34447W        W 2788  18.547  16.274  12.411
34448W        W 2789  24.611  37.515  14.337
34449W        W 2790  38.820  25.680  12.455
34450W        W 2791  40.399   1.954   3.386
34451W        W 2792   9.159  13.296   1.334
34452W        W 2793  35.985  39.941   0.353
34453W        W 2794  26.557  22.201  12.568
34454W        W 2795   2.414  37.365   0.811
34455W        W 2796   1.319  27.570   4.799
34456W        W 2797  24.003  23.118  12.957
34457W        W 2798   1.332  31.012   2.779
34458W        W 2799  33.983  34.984   2.257
34459W        W 2800   5.395  30.583   4.226
34460W        W 2801  36.015   6.357   0.844
34461W        W 2802  37.904  19.684  12.961
34462W        W 2803  14.158  36.553  12.064
34463W        W 2804  12.762  26.628  14.480
34464W        W 2805  21.136  38.920  11.460
34465W        W 2806  24.103  36.994  13.978
34466W        W 2807  18.558  44.759  14.293
34467W        W 2808   4.896  11.711   2.394
34468W        W 2809  15.710  39.812  11.072
34469W        W 2810   0.799  43.881  14.330
34470W        W 2811   9.316   9.738   2.282
34471W        W 2812   4.224  35.958   0.456
34472W        W 2813  43.338  22.121   1.233
34473W        W 2814  22.140   5.862   0.932
34474W        W 2815   9.356  12.235   0.944
34475W        W 2816   8.359  26.180  10.445
34476W        W 2817  28.480  22.013   0.257
34477W        W 2818  32.069  29.449  13.309
34478W        W 2819   8.354  33.119   0.384
34479W        W 2820  23.697  29.109  14.013
34480W        W 2821  11.215   5.306   3.352
34481W        W 2822  16.783  28.554   1.929
34482W        W 2823  23.714  29.113  13.510
34483W        W 2824  34.052  29.022   0.780
34484W        W 2825  11.333  11.148   1.852
34485W        W 2826   3.750  11.803  10.925
34486W        W 2827  41.338  21.601  10.573
34487W        W 2828  39.521  16.702   4.813
34488W        W 2829  28.093  27.972  11.584
34489W        W 2830   8.744  19.277  10.929
34490W        W 2831  16.275  37.378  12.955
34491W        W 2832  44.820  16.629  10.988
34492W        W 2833   4.292  22.042   2.221
34493W        W 2834  11.277  14.707  13.019
34494W        W 2835  31.641  22.506  10.514
34495W        W 2836  12.352  11.713  12.996
34496W        W 2837   3.402  16.125   4.622
34497W        W 2838  13.126  10.874   4.783
34498W        W 2839  16.276  14.156   1.235
34499W        W 2840  26.188  12.168  10.412
34500W        W 2841  44.874  41.015   3.226
34501W        W 2842  40.386  25.504   2.697
34502W        W 2843   2.886  11.781  14.370
34503W        W 2844   6.295   9.729  12.353
34504W        W 2845  11.319  33.580   3.754
34505W        W 2846  32.517   7.184  10.904
34506W        W 2847   9.164  35.039  14.907
34507W        W 2848   2.879  42.785   1.889
34508W        W 2849  25.710   1.279  12.009
34509W        W 2850  39.365  15.595   2.267
34510W        W 2851  15.694  13.734  14.013
34511W        W 2852   6.353  34.457   1.425
34512W        W 2853  29.526  32.929  12.994
34513W        W 2854  12.763  28.476  13.480
34514W        W 2855   2.794  23.232  14.498
34515W        W 2856  21.730   8.696  12.932
34516W        W 2857  29.114   2.843  12.874
34517W        W 2858  31.976  42.842   0.433
34518W        W 2859   8.838  41.383   3.349
34519W        W 2860  26.132   1.747  12.500
34520W        W 2861   2.339  35.457  12.047
34521W        W 2862  17.078   7.319  11.439
34522W        W 2863   9.359  14.636  13.391
34523W        W 2864  13.607  34.939   2.762
34524W        W 2865   1.274   2.726   3.384
34525W        W 2866   9.663  29.168  14.319
34526W        W 2867  30.130  36.535   0.417
34527W        W 2868  27.650  27.498  12.449
34528W        W 2869  13.161  11.172  13.824
34529W        W 2870  18.224  21.242   0.280
34530W        W 2871  21.609  24.122   3.808
34531W        W 2872  44.950   8.370  14.894
34532W        W 2873  28.529   0.415  12.438
34533W        W 2874  17.268   8.811  12.880
34534W        W 2875  14.622   5.795  14.358
34535W        W 2876  14.107  25.137  10.126
34536W        W 2877  29.498  22.534   0.269
34537W        W 2878  36.389  25.148  10.002
34538W        W 2879  25.971  19.766   0.744
34539W        W 2880  42.466  10.322   0.851
34540W        W 2881  27.130  12.744  11.522
34541W        W 2882  28.179  14.239   4.132
34542W        W 2883  21.039  19.115  13.061
34543W        W 2884  16.641   7.793   1.725
34544W        W 2885  25.627   9.851  12.566
34545W        W 2886  22.063  16.591   3.291
34546W        W 2887  25.219  42.296   2.247
34547W        W 2888  31.100  17.240  14.368
34548W        W 2889   3.293   9.836  12.971
34549W        W 2890  16.797  41.400  10.907
34550W        W 2891  38.401  29.472   1.731
34551W        W 2892  32.634  29.557  10.495
34552W        W 2893  35.905  13.767  13.035
34553W        W 2894  39.013  20.717   1.752
34554W        W 2895  27.610  15.281  11.051
34555W        W 2896  21.635  19.213  14.859
34556W        W 2897   8.656  30.609   2.736
34557W        W 2898   9.209  38.875   2.840
34558W        W 2899  29.998  11.853   0.941
34559W        W 2900  42.999  34.490   0.921
34560W        W 2901   1.828  44.866  13.855
34561W        W 2902  20.737  13.172   4.187
34562W        W 2903  16.161  20.207   1.303
34563W        W 2904  34.421  29.591  11.506
34564W        W 2905  24.092   9.731   2.302
34565W        W 2906  38.002   7.377   1.777
34566W        W 2907  16.089  19.603   4.304
34567W        W 2908   7.780  41.876   0.774
34568W        W 2909  13.262  14.657  14.969
34569W        W 2910  39.341  37.344  10.459
34570W        W 2911  22.138  35.426  10.516
34571W        W 2912  35.424  42.394  14.889
34572W        W 2913   6.802  13.723  12.026
34573W        W 2914  43.931   9.392  10.566
34574W        W 2915   2.730  29.961   3.868
34575W        W 2916  29.496  28.085  14.852
34576W        W 2917  28.936  27.598  13.311
34577W        W 2918  42.839  22.604  11.481
34578W        W 2919   8.340  20.590  11.427
34579W        W 2920   9.823  26.557   4.179
34580W        W 2921   2.255  35.568   1.269
34581W        W 2922  29.138  40.524   0.935
34582W        W 2923  15.310  34.007   1.341
34583W        W 2924   3.858  39.883  11.040
34584W        W 2925  15.803  17.075   0.922
34585W        W 2926   7.712  31.030  10.542
34586W        W 2927  11.184  37.848   2.311
34587W        W 2928  35.884   0.894   0.309
34588W        W 2929  20.579   0.930  12.048
34589W        W 2930  21.183   7.180  14.412
34590W        W 2931  18.100  21.147   5.645
34591W        W 2932  28.002  25.487   4.231
34592W        W 2933  14.602  37.839   4.832
34593W        W 2934   2.825   1.338   1.749
34594W        W 2935  43.383   7.189   2.356
34595W        W 2936  15.723  20.153   3.661
34596W        W 2937  27.636  13.725  13.532
34597W        W 2938  13.757  16.201   1.387
34598W        W 2939  42.377  38.041   1.303
34599W        W 2940  25.206   5.298   3.175
34600W        W 2941  27.466  17.163   1.257
34601W        W 2942  27.957  27.508   5.193
34602W        W 2943  44.841  40.449  11.983
34603W        W 2944   4.937  31.432   4.240
34604W        W 2945  38.351  41.836   3.673
34605W        W 2946  26.690  35.410  13.052
34606W        W 2947  31.972  32.128   0.735
34607W        W 2948  29.526   8.766  13.493
34608W        W 2949  39.037  28.469  12.956
34609W        W 2950  32.412  40.809  14.855
34610W        W 2951  38.833  43.927  12.511
34611W        W 2952  19.099  19.585   2.273
34612W        W 2953  40.994   4.780  14.500
34613W        W 2954  21.234  21.144  14.310
34614W        W 2955   2.737  33.018   0.792
34615W        W 2956  36.917   8.381   1.828
34616W        W 2957  32.130  15.242   3.180
34617W        W 2958  22.690  21.134   3.347
34618W        W 2959  36.398   2.335   0.416
34619W        W 2960   2.768  15.141  10.528
34620W        W 2961  30.518  39.828   3.219
34621W        W 2962   4.875   8.747  10.056
34622W        W 2963  31.643   7.707  13.003
34623W        W 2964  32.013  31.095  10.922
34624W        W 2965   6.420  21.661   0.308
34625W        W 2966  21.621  18.740   3.292
34626W        W 2967   2.308  35.923   9.950
34627W        W 2968  10.804  32.034   2.326
34628W        W 2969  21.644   2.389  10.981
34629W        W 2970   1.477   1.285   4.837
34630W        W 2971  27.547  11.288  14.361
34631W        W 2972   9.247  23.730   3.847
34632W        W 2973  25.620  30.558  11.380
34633W        W 2974  44.992  24.668   1.768
34634W        W 2975  10.684  31.990  13.867
34635W        W 2976  30.601  19.257  12.503
34636W        W 2977   4.742  34.570   1.836
34637W        W 2978  24.680  39.420   3.218
34638W        W 2979  36.409  31.954  14.398
34639W        W 2980   3.876  42.027   4.193
34640W        W 2981  39.820  34.511  12.393
34641W        W 2982  17.108  31.969  10.594
34642W        W 2983  41.962  21.750  14.383
34643W        W 2984  44.324   7.842  11.051
34644W        W 2985   3.943   5.782   3.294
34645W        W 2986  24.707  26.109  10.619
34646W        W 2987  20.112  19.715   5.307
34647W        W 2988  19.731  41.026  11.896
34648W        W 2989  21.132  30.508  11.454
34649W        W 2990   5.800  13.767  10.582
34650W        W 2991  31.943  42.402  10.978
34651W        W 2992  23.100  32.488   1.437
34652W        W 2993  24.531  35.431  14.812
34653W        W 2994  42.000  17.792   2.724
34654W        W 2995  42.289   4.909  12.045
34655W        W 2996  38.560  29.628  13.841
34656W        W 2997  17.140  32.143  14.808
34657W        W 2998   6.307  16.227   3.269
34658W        W 2999  29.963  18.676   1.816
34659W        W 3000  37.473  22.198  14.353
34660W        W 3001  30.507  19.655  14.805
34661W        W 3002   6.814  36.006   4.777
34662W        W 3003  21.131  25.203  14.028
34663W        W 3004   6.183  37.953   1.334
34664W        W 3005  30.153  25.150  11.056
34665W        W 3006  44.935  34.411   4.713
34666W        W 3007  40.975  16.165  12.019
34667W        W 3008  33.580   7.687   4.634
34668W        W 3009   2.904  44.354   2.290
34669W        W 3010  14.147  40.426  10.924
34670W        W 3011  10.160  15.216  13.314
34671W        W 3012  35.962  16.115  13.538
34672W        W 3013  11.637  31.108   0.390
34673W        W 3014   4.418  12.692  14.959
34674W        W 3015  23.207  33.586  11.078
34675W        W 3016  39.390   2.848  14.949
34676W        W 3017  17.597  15.221   1.420
34677W        W 3018  42.893  17.610   1.880
34678W        W 3019  24.613   3.794   4.314
34679W        W 3020  41.531  25.103  11.410
34680W        W 3021  20.162  16.278  13.047
34681W        W 3022  28.520  20.216   0.415
34682W        W 3023  36.353  21.738   0.353
34683W        W 3024  13.672  34.037  13.394
34684W        W 3025  44.294  25.199   2.832
34685W        W 3026  43.446  21.224   2.313
34686W        W 3027   1.890  42.396  11.384
34687W        W 3028  41.951   6.212   4.246
34688W        W 3029  42.954  29.520  14.809
34689W        W 3030  18.563  12.689  13.505
34690W        W 3031  41.507  41.993  10.008
34691W        W 3032  21.136   7.178  11.441
34692W        W 3033  30.056  43.430  14.961
34693W        W 3034  39.822  21.625  13.975
34694W        W 3035  17.609  17.279  14.364
34695W        W 3036  39.392  32.400  14.808
34696W        W 3037   1.472   9.738   0.955
34697W        W 3038  37.021  14.687   3.246
34698W        W 3039  10.785  25.170  13.356
34699W        W 3040  19.638   9.823  10.507
34700W        W 3041  38.964   5.228  12.068
34701W        W 3042   8.219  18.156  13.418
34702W        W 3043   4.316  24.979  12.545
34703W        W 3044   1.383  36.931   0.269
34704W        W 3045  16.078  38.449  10.946
34705W        W 3046  33.049  15.669  11.429
34706W        W 3047   8.733   5.741   0.739
34707W        W 3048  25.593  23.673   0.399
34708W        W 3049  31.022  41.912   0.836
34709W        W 3050  40.918  33.485  14.971
34710W        W 3051  20.100  42.967  13.060
34711W        W 3052  42.902  40.496   2.310
34712W        W 3053  33.875  44.933   1.776
34713W        W 3054  12.358  38.464   2.898
34714W        W 3055  26.108  30.526   0.434
34715W        W 3056  31.432  29.005   0.927
34716W        W 3057  40.927  34.110   3.321
34717W        W 3058  41.962   9.291  13.933
34718W        W 3059   4.851  23.075  11.550
34719W        W 3060   6.267  15.820   2.739
34720W        W 3061   8.662  43.324  12.481
34721W        W 3062  22.011   5.317  12.521
34722W        W 3063  11.153   4.728   3.382
34723W        W 3064  34.102  17.191  10.892
34724W        W 3065  26.042  11.826  12.440
34725W        W 3066   5.892   8.793  12.854
34726W        W 3067  14.624   6.322  12.533
34727W        W 3068  42.430  25.610   1.299
34728W        W 3069  43.784  26.498   0.304
34729W        W 3070   1.291  44.786  14.945
34730W        W 3071  42.470  39.479  13.900
34731W        W 3072   1.786  35.370   0.901
34732W        W 3073  33.544  40.981   3.823
34733W        W 3074  41.825  19.285   4.813
34734W        W 3075  25.617  21.515  11.387
34735W        W 3076  42.863   9.789  13.985
34736W        W 3077  22.124  12.128  13.490
34737W        W 3078  20.557  18.688   0.957
34738W        W 3079  40.051  16.569  12.070
34739W        W 3080  26.115   7.851  10.898
34740W        W 3081  30.518  40.841   2.826
34741W        W 3082  35.943  33.997   4.653
34742W        W 3083   7.403  26.659  13.537
34743W        W 3084  26.120  32.075  14.766
34744W        W 3085  14.261  13.838   0.467
34745W        W 3086  11.231  18.611  12.457
34746W        W 3087  35.507   3.747  11.572
34747W        W 3088  18.095  31.058  10.637
34748W        W 3089   9.259  24.723  10.439
34749W        W 3090  22.155  42.917  13.333
34750W        W 3091  37.512  42.524   5.200
34751W        W 3092  14.103  27.535  11.384
34752W        W 3093  30.526   4.805  11.531
34753W        W 3094  21.051   7.676  11.098
34754W        W 3095  32.489  41.329  12.576
34755W        W 3096   6.298  40.011   3.822
34756W        W 3097   8.671  19.748   2.746
34757W        W 3098  27.584   9.370   2.272
34758W        W 3099   4.844   5.261   0.785
34759W        W 3100   1.922   9.293   1.233
34760W        W 3101  39.531  25.488  12.005
34761W        W 3102   5.322  38.864   0.388
34762W        W 3103   5.234   9.327  14.362
34763W        W 3104  32.887  29.573   3.147
34764W        W 3105  25.548  35.388   2.812
34765W        W 3106  28.150  44.947   0.903
34766W        W 3107  17.561  16.099  12.029
34767W        W 3108  26.586   0.255  14.906
34768W        W 3109  29.921   6.802  13.031
34769W        W 3110   2.878  36.552  11.512
34770W        W 3111  28.646  14.328   2.712
34771W        W 3112   9.879  24.717   2.748
34772W        W 3113   2.728  32.990   4.771
34773W        W 3114  29.508  44.378   1.228
34774W        W 3115   7.306  37.383  14.776
34775W        W 3116  16.787  30.969   4.187
34776W        W 3117  32.601   4.218   2.230
34777W        W 3118  44.386   4.782  10.533
34778W        W 3119  17.069  32.457   1.443
34779W        W 3120  23.144  33.524   3.669
34780W        W 3121   2.930   0.291  12.343
34781W        W 3122  39.523  11.362  13.896
34782W        W 3123  28.091  13.637  12.535
34783W        W 3124  15.267  26.186   2.742
34784W        W 3125   9.192   6.205  13.352
34785W        W 3126  11.333  35.926  14.372
34786W        W 3127  20.170  22.710  12.553
34787W        W 3128  34.098  32.087  11.506
34788W        W 3129  25.166  13.110  11.060
34789W        W 3130  38.396  11.651   2.796
34790W        W 3131  17.306   9.305  14.335
34791W        W 3132  26.678  32.429  10.950
34792W        W 3133   9.830  22.192  12.008
34793W        W 3134  11.302  17.237  12.997
34794W        W 3135  11.371  29.529   4.830
34795W        W 3136  16.091  10.225  11.098
34796W        W 3137  23.209   5.350  11.428
34797W        W 3138   5.799  40.021  13.329
34798W        W 3139   8.395  30.446   2.760
34799W        W 3140  28.543  30.020  10.526
34800W        W 3141  25.009  43.002   1.851
34801W        W 3142  37.997   0.462  11.098
34802W        W 3143  44.461  20.213   3.229
34803W        W 3144   7.846  32.564  10.501
34804W        W 3145   5.284  41.025  14.853
34805W        W 3146   5.345  41.872   3.220
34806W        W 3147  41.838   4.793   3.359
34807W        W 3148   7.333  43.808  13.544
34808W        W 3149  43.825  19.620   4.685
34809W        W 3150  37.011  12.332   1.402
34810W        W 3151  11.226  42.877   2.834
34811W        W 3152  43.434  34.553  10.955
34812W        W 3153  21.736  41.924  13.882
34813W        W 3154  16.594  31.064  11.920
34814W        W 3155  23.721  38.421  10.898
34815W        W 3156  30.929  30.463   1.865
34816W        W 3157  29.527  23.694  11.536
34817W        W 3158  12.617  14.769   3.213
34818W        W 3159  20.707  44.875  14.019
34819W        W 3160  26.612   2.338   4.179
34820W        W 3161  17.267  24.171   0.281
34821W        W 3162  43.392  38.568  12.460
34822W        W 3163   2.949   3.885   4.820
34823W        W 3164  19.140  18.101  12.398
34824W        W 3165   0.458  40.526  14.852
34825W        W 3166  20.075  35.902  10.587
34826W        W 3167  38.827   5.756  12.471
34827W        W 3168  40.547  15.241  11.124
34828W        W 3169  18.129  36.958  13.491
34829W        W 3170   7.691  27.067  13.346
34830W        W 3171   8.268  21.671  14.813
34831W        W 3172  34.394  15.308  12.490
34832W        W 3173   4.861  13.832  13.003
34833W        W 3174  30.644  25.216   0.473
34834W        W 3175  20.609  29.080  10.466
34835W        W 3176   5.410  34.392   3.151
34836W        W 3177  11.860  16.298   0.247
34837W        W 3178  10.838  22.101  11.536
34838W        W 3179  15.813  14.806  13.906
34839W        W 3180  40.912   9.326  10.550
34840W        W 3181  43.995  16.570  13.978
34841W        W 3182  33.501  18.242   2.250
34842W        W 3183   2.445  29.041   4.119
34843W        W 3184  39.549  23.692   2.764
34844W        W 3185   4.722  37.421   5.187
34845W        W 3186  26.638  24.077   1.765
34846W        W 3187   5.343  31.448   4.675
34847W        W 3188  28.039   8.682  11.050
34848W        W 3189  38.401  32.098  11.856
34849W        W 3190  11.850   1.754   0.857
34850W        W 3191  37.512   6.742   3.229
34851W        W 3192  31.970  31.922   3.192
34852W        W 3193  20.549  32.900   4.205
34853W        W 3194  37.846  14.192  12.095
34854W        W 3195  44.343  33.502  11.528
34855W        W 3196   4.797  26.512  10.899
34856W        W 3197  11.627   8.736   4.685
34857W        W 3198  20.151  20.768  14.330
34858W        W 3199  23.729  16.132  14.924
34859W        W 3200  37.875  20.550   1.450
34860W        W 3201   6.231   8.234   2.198
34861W        W 3202  30.623  39.938  14.405
34862W        W 3203  37.451   1.943  11.916
34863W        W 3204  32.512  14.208   3.269
34864W        W 3205  28.152  14.675  13.490
34865W        W 3206  28.584  41.884   2.878
34866W        W 3207   7.898  16.248  10.960
34867W        W 3208  16.139  29.485   4.629
34868W        W 3209  28.545  40.814   1.858
34869W        W 3210   5.729  22.162   1.743
34870W        W 3211  43.840  20.028  12.828
34871W        W 3212  25.543  34.936   2.419
34872W        W 3213   4.330  17.559   0.476
34873W        W 3214  19.550  15.657  11.986
34874W        W 3215  28.175  17.714  10.592
34875W        W 3216  23.541  33.484  10.441
34876W        W 3217  40.309  31.952   3.691
34877W        W 3218  11.708  36.360  10.054
34878W        W 3219   0.879  39.327  10.470
34879W        W 3220  16.743   6.297   2.199
34880W        W 3221   9.312  21.194  11.873
34881W        W 3222  27.500  42.415  10.465
34882W        W 3223  28.667  26.624  11.985
34883W        W 3224   2.451   8.211   0.329
34884W        W 3225  40.851   7.242   1.225
34885W        W 3226  11.703   9.723  14.313
34886W        W 3227  22.575  29.085   1.900
34887W        W 3228  23.643   6.298   2.400
34888W        W 3229  11.368  13.232   1.257
34889W        W 3230  31.623  32.503   2.741
34890W        W 3231  38.458   9.211   2.788
34891W        W 3232  30.639   5.707  12.481
34892W        W 3233  37.856   7.794  14.323
34893W        W 3234  23.192   2.457   0.847
34894W        W 3235   9.771  27.495  13.967
34895W        W 3236   7.366  41.020  10.405
34896W        W 3237   9.747  44.916   1.883
34897W        W 3238  34.894  41.456   2.332
34898W        W 3239   0.818  42.379  10.993
34899W        W 3240  21.231  31.576  11.984
34900W        W 3241   5.268  18.232   3.253
34901W        W 3242  25.037   1.923   1.794
34902W        W 3243   6.193  30.522   1.735
34903W        W 3244  24.226  31.527  10.986
34904W        W 3245   4.258  13.223   2.242
34905W        W 3246  18.549  38.892  11.917
34906W        W 3247  39.431   9.263  13.522
34907W        W 3248  20.139  42.788   4.268
34908W        W 3249  12.130  21.521   2.697
34909W        W 3250  32.077  29.989   3.742
34910W        W 3251  30.460  23.643   3.267
34911W        W 3252  17.075  18.547  10.640
34912W        W 3253  19.565  37.957   1.842
34913W        W 3254  42.414  13.274  13.534
34914W        W 3255   5.301   6.392  13.951
34915W        W 3256  36.047  17.116  12.464
34916W        W 3257   6.392  25.082   0.947
34917W        W 3258   6.298   4.217   0.740
34918W        W 3259  10.361  43.871  10.433
34919W        W 3260   1.251  11.773   0.841
34920W        W 3261  21.684  31.980  10.457
34921W        W 3262  29.105  24.188  10.461
34922W        W 3263  35.915  38.409  13.516
34923W        W 3264  33.994   3.459   2.311
34924W        W 3265  16.607  24.545   9.488
34925W        W 3266  40.997  21.663  12.864
34926W        W 3267  36.075  31.453   2.211
34927W        W 3268  30.540  15.759  11.586
34928W        W 3269  38.345  42.813   5.795
34929W        W 3270  44.914  22.739   4.307
34930W        W 3271  44.452  34.925  10.418
34931W        W 3272   6.822  40.806   1.396
34932W        W 3273  16.802  25.180   2.787
34933W        W 3274  15.094   1.396  12.053
34934W        W 3275  13.741   4.275  11.485
34935W        W 3276  14.327  40.030  14.015
34936W        W 3277  10.668  25.972  14.959
34937W        W 3278  41.336   9.871   3.811
34938W        W 3279  44.758  17.714  10.428
34939W        W 3280  43.785  14.755   4.264
34940W        W 3281  14.280  27.650   4.789
34941W        W 3282  36.906  31.072  11.430
34942W        W 3283  13.686  36.435   0.897
34943W        W 3284  31.564   0.472  12.081
34944W        W 3285   3.929  23.175   1.303
34945W        W 3286  17.710   5.282  12.415
34946W        W 3287  33.015  28.062   3.753
34947W        W 3288  43.803  17.605  10.570
34948W        W 3289  44.843  35.485  14.303
34949W        W 3290  25.124  41.826   0.281
34950W        W 3291  20.749  11.703  12.048
34951W        W 3292  30.613  37.479  12.972
34952W        W 3293  32.012  23.630   0.308
34953W        W 3294  41.010  37.974   3.840
34954W        W 3295  32.939  14.726  10.617
34955W        W 3296  43.848  23.003  13.021
34956W        W 3297   6.426  26.500   0.845
34957W        W 3298  35.103  12.806   9.986
34958W        W 3299  13.350  26.131  10.461
34959W        W 3300  21.544  29.122  14.487
34960W        W 3301  11.758   4.762  12.573
34961W        W 3302  41.994   3.949  11.856
34962W        W 3303  13.803  40.872   1.413
34963W        W 3304  21.157  22.217  11.595
34964W        W 3305  33.461  32.429   1.875
34965W        W 3306   6.419   1.934   3.219
34966W        W 3307   3.413  36.891  14.287
34967W        W 3308   8.222  13.247   2.404
34968W        W 3309  19.677  37.912  14.787
34969W        W 3310  32.982  19.079  14.382
34970W        W 3311   0.949  36.525  13.362
34971W        W 3312  17.228  38.380   1.901
34972W        W 3313   2.340  32.406   3.323
34973W        W 3314   2.353  44.903  13.311
34974W        W 3315  31.927  15.086   1.232
34975W        W 3316  31.914  34.084  10.644
34976W        W 3317  33.017  19.688  11.539
34977W        W 3318   0.286  24.977   0.329
34978W        W 3319  12.644   4.228  13.993
34979W        W 3320  15.595   6.733   1.803
34980W        W 3321  31.984   4.763   5.269
34981W        W 3322  27.484   4.913  10.457
34982W        W 3323  22.141  38.889  14.971
34983W        W 3324   3.232  24.075   3.200
34984W        W 3325  13.640   7.174  13.412
34985W        W 3326   5.276  35.021  13.362
34986W        W 3327   8.831  20.240  12.345
34987W        W 3328   0.269  27.964  14.861
34988W        W 3329  15.147  44.325   2.334
34989W        W 3330   0.979  43.960  12.050
34990W        W 3331  30.605   8.666  14.432
34991W        W 3332  29.145  23.645   3.773
34992W        W 3333  29.593  39.550   1.724
34993W        W 3334  44.784  19.123  13.826
34994W        W 3335  18.705   4.759   2.247
34995W        W 3336  32.433  44.394   0.431
34996W        W 3337  16.726  27.099   3.730
34997W        W 3338  28.974  17.273  14.962
34998W        W 3339  24.187  12.683  11.374
34999W        W 3340  22.178  30.019  10.419
35000W        W 3341  15.103   0.361   3.250
35001W        W 3342  32.887  23.653   0.264
35002W        W 3343  41.988  22.631   3.254
35003W        W 3344   3.726  15.822  10.922
35004W        W 3345  21.707  39.454  14.403
35005W        W 3346   4.715  33.597   4.350
35006W        W 3347   3.351   8.668  14.368
35007W        W 3348  11.290   0.391  14.778
35008W        W 3349  32.415  20.146  14.340
35009W        W 3350  42.003  13.641   0.827
35010W        W 3351  16.171  16.225   1.884
35011W        W 3352  37.874  22.746  13.837
35012W        W 3353  39.329  16.689   0.411
35013W        W 3354  39.836  43.945   2.887
35014W        W 3355  25.075  32.906  14.460
35015W        W 3356  31.101   9.685   3.338
35016W        W 3357   1.868  30.008   0.372
35017W        W 3358  37.863  32.005  12.374
35018W        W 3359  38.360  37.944  13.843
35019W        W 3360  23.625  20.694   3.289
35020W        W 3361  25.661  16.219  14.372
35021W        W 3362   8.876  16.676  14.329
35022W        W 3363  41.370  14.816   2.288
35023W        W 3364  41.827  28.006  13.875
35024W        W 3365  27.489  38.459  14.512
35025W        W 3366  26.546  12.763  14.511
35026W        W 3367  21.658   9.390   1.297
35027W        W 3368   6.885  21.204   1.755
35028W        W 3369  37.344   8.221  12.967
35029W        W 3370   3.892  21.520  14.462
35030W        W 3371  43.940   5.379  13.545
35031W        W 3372  20.754  18.776  12.448
35032W        W 3373  31.003   3.260  11.979
35033W        W 3374  10.146  31.021   3.644
35034W        W 3375  25.199  33.501  13.007
35035W        W 3376  44.865  12.707  11.063
35036W        W 3377  29.487   4.403   3.217
35037W        W 3378  15.583   6.918   0.455
35038W        W 3379  10.186  19.557  14.494
35039W        W 3380  16.168  37.029   4.114
35040W        W 3381   0.488  20.086  13.875
35041W        W 3382  27.113  17.173  10.018
35042W        W 3383  40.334  27.177  11.398
35043W        W 3384  26.532  21.033   2.811
35044W        W 3385  28.984  18.654  14.378
35045W        W 3386  35.580  36.569  12.042
35046W        W 3387  37.999  32.915  13.903
35047W        W 3388  18.172  21.680  14.897
35048W        W 3389   1.926  16.250  11.920
35049W        W 3390  12.707  34.028  14.428
35050W        W 3391   7.354  10.259   3.278
35051W        W 3392  30.596  30.645   4.732
35052W        W 3393  34.600  26.536   0.795
35053W        W 3394  41.965  39.507   1.324
35054W        W 3395   8.734  39.545  12.057
35055W        W 3396  19.166  44.011   0.925
35056W        W 3397   2.394   8.711   0.826
35057W        W 3398   6.195  38.421  10.571
35058W        W 3399  11.165  17.245   2.237
35059W        W 3400   2.945  24.552   3.777
35060W        W 3401  23.238  38.347  12.999
35061W        W 3402  39.844  42.434  13.353
35062W        W 3403  17.296  19.141   3.750
35063W        W 3404  32.593   9.251   3.632
35064W        W 3405   8.317   8.770  12.347
35065W        W 3406  43.911  29.619  14.374
35066W        W 3407  30.020  29.636  12.923
35067W        W 3408  13.794   2.801  11.889
35068W        W 3409  38.956  39.836  14.340
35069W        W 3410  35.495  36.419  13.946
35070W        W 3411  27.004   0.494  14.502
35071W        W 3412  17.202  34.105   9.933
35072W        W 3413   0.264   5.709   3.220
35073W        W 3414  15.278  39.048  13.897
35074W        W 3415  21.018   9.811  11.044
35075W        W 3416  31.968   0.456  13.894
35076W        W 3417  28.593  14.144   4.740
35077W        W 3418  13.171  20.567   1.868
35078W        W 3419   8.839  26.509  11.077
35079W        W 3420  24.047  39.551  10.501
35080W        W 3421  22.999   2.261  11.377
35081W        W 3422  23.086  43.985   1.441
35082W        W 3423  43.017  21.668   0.404
35083W        W 3424  38.558  32.927  12.469
35084W        W 3425  26.698  23.553  10.586
35085W        W 3426   9.225   9.736   3.383
35086W        W 3427  37.352  14.710  13.308
35087W        W 3428  30.937  15.673   1.395
35088W        W 3429  13.133  27.554  11.587
35089W        W 3430  19.697  26.592   4.275
35090W        W 3431   4.215  15.657   4.174
35091W        W 3432  18.705  17.647  14.389
35092W        W 3433  29.495  40.345   1.723
35093W        W 3434  42.423  35.885  13.515
35094W        W 3435  31.545  27.069   2.311
35095W        W 3436  25.999   9.223  11.865
35096W        W 3437   6.400  24.026   1.238
35097W        W 3438  39.063  18.734  13.529
35098W        W 3439  35.969  20.564  14.992
35099W        W 3440  32.073  18.690  10.582
35100W        W 3441   2.838   1.936  13.427
35101W        W 3442  35.562  15.218  11.876
35102W        W 3443  14.123  20.060  14.814
35103W        W 3444   9.294   8.367   4.266
35104W        W 3445   5.361  12.152   0.830
35105W        W 3446   4.900   6.199   4.665
35106W        W 3447   6.250   6.711  12.092
35107W        W 3448  43.807   3.261  12.417
35108W        W 3449   8.802  12.145  14.476
35109W        W 3450   5.205   6.894  10.524
35110W        W 3451  18.693  25.477  11.533
35111W        W 3452  25.205   2.427  12.000
35112W        W 3453  29.467   4.723  12.476
35113W        W 3454  15.632   5.282   2.354
35114W        W 3455  43.501  41.399  12.845
35115W        W 3456   0.873  28.116  10.146
35116W        W 3457  31.917  30.121   4.831
35117W        W 3458  18.241   4.384  14.012
35118W        W 3459  26.671   5.827  11.981
35119W        W 3460  41.787  38.858   3.766
35120W        W 3461   7.852  19.568  14.306
35121W        W 3462   9.204  41.439   5.121
35122W        W 3463  44.899  37.397  11.533
35123W        W 3464   0.756   7.300   0.818
35124W        W 3465  41.434  24.481   0.297
35125W        W 3466  17.678  23.493   2.302
35126W        W 3467  10.267   7.358   0.766
35127W        W 3468   9.240   6.852   0.462
35128W        W 3469   1.263  21.736   0.352
35129W        W 3470  39.931  36.981  14.281
35130W        W 3471  31.114  41.391   4.782
35131W        W 3472  39.517   7.205  12.880
35132W        W 3473  28.024  27.085  10.630
35133W        W 3474   2.232  25.492  11.393
35134W        W 3475  19.721  36.433  14.975
35135W        W 3476  16.787   5.294  12.031
35136W        W 3477  35.415  22.642   3.684
35137W        W 3478  11.866  24.654  10.540
35138W        W 3479  12.298  15.147  13.879
35139W        W 3480  41.941  33.030   3.377
35140W        W 3481  41.816   3.292   3.193
35141W        W 3482   4.276   9.754  13.812
35142W        W 3483  12.856  44.430  14.970
35143W        W 3484  38.074  19.259   4.340
35144W        W 3485   9.795  13.704   2.739
35145W        W 3486  37.420  12.765   1.897
35146W        W 3487  10.231  17.085   0.382
35147W        W 3488  42.889  39.331   2.685
35148W        W 3489  29.061  21.112  10.518
35149W        W 3490  35.428  11.271   3.311
35150W        W 3491  39.852  20.703  14.847
35151W        W 3492  18.779  29.617  13.053
35152W        W 3493  32.417  31.544  12.537
35153W        W 3494  36.088   3.279  11.419
35154W        W 3495  33.972  12.774   4.254
35155W        W 3496  28.061  17.176   4.176
35156W        W 3497  39.865  36.352   4.190
35157W        W 3498  39.033  43.981  14.797
35158W        W 3499  21.629  23.102  13.794
35159W        W 3500  29.625  41.406  11.901
35160W        W 3501  34.415  12.751   1.309
35161W        W 3502  35.896   9.228   4.226
35162W        W 3503   3.427  28.439  10.515
35163W        W 3504   7.716  15.177   2.757
35164W        W 3505  38.455  14.277   4.782
35165W        W 3506  17.307  37.521  11.092
35166W        W 3507  42.511  20.548  13.433
35167W        W 3508  30.107   4.357  12.031
35168W        W 3509   9.656  32.404   1.310
35169W        W 3510  25.605  35.000   2.879
35170W        W 3511  22.603  10.744  12.563
35171W        W 3512  10.212   2.244   1.709
35172W        W 3513  38.476  30.920   0.939
35173W        W 3514   4.245  27.591   4.114
35174W        W 3515  12.795   9.250  14.991
35175W        W 3516  36.860  39.838   3.633
35176W        W 3517  28.931  42.981   2.332
35177W        W 3518   4.277  36.538  11.125
35178W        W 3519  42.929  26.091   1.878
35179W        W 3520   6.428  33.524   2.730
35180W        W 3521   2.446   4.351  10.607
35181W        W 3522  44.425  19.728  10.016
35182W        W 3523  37.055  23.630  10.991
35183W        W 3524   7.681  12.769  13.006
35184W        W 3525  32.075  40.503   4.814
35185W        W 3526   9.288  13.329   2.761
35186W        W 3527   0.310   6.212   4.618
35187W        W 3528   7.193  29.625  13.319
35188W        W 3529  16.712   5.781  11.503
35189W        W 3530  41.791  19.227  11.454
35190W        W 3531  25.962  36.530   3.698
35191W        W 3532  16.264  28.974  14.893
35192W        W 3533  21.555   3.761  11.068
35193W        W 3534   0.891  28.482  12.066
35194W        W 3535  25.517  17.081  14.936
35195W        W 3536  11.139  33.992  13.389
35196W        W 3537  28.094  19.148  10.923
35197W        W 3538  43.956  34.091   3.755
35198W        W 3539  12.357  27.133   3.677
35199W        W 3540  13.212  17.105   0.834
35200W        W 3541  30.445  32.046   4.613
35201W        W 3542  20.719  34.897   0.845
35202W        W 3543  41.335  23.570   1.210
35203W        W 3544  32.977  15.281   2.802
35204W        W 3545  19.624  44.433  13.871
35205W        W 3546   8.858  11.642  12.923
35206W        W 3547  44.955  44.276  12.425
35207W        W 3548  40.006   9.654   4.199
35208W        W 3549  22.027  41.466  10.926
35209W        W 3550   6.249   5.735  12.960
35210W        W 3551   2.959  39.347  13.794
35211W        W 3552  38.983  25.631   2.813
35212W        W 3553  31.446  25.638  10.446
35213W        W 3554  32.475  28.120  11.044
35214W        W 3555  32.504  12.233   1.293
35215W        W 3556   1.262   2.790  13.032
35216W        W 3557  31.053  33.990   1.421
35217W        W 3558  25.045  31.032   5.145
35218W        W 3559  39.494  28.616  14.799
35219W        W 3560  32.996  33.390  10.573
35220W        W 3561  28.626  37.948   4.149
35221W        W 3562  23.153  23.497   4.726
35222W        W 3563  17.113  37.886  12.867
35223W        W 3564   5.715  38.931   1.285
35224W        W 3565   0.409  13.748   2.886
35225W        W 3566  37.371  27.493  10.911
35226W        W 3567  30.124   7.335  14.297
35227W        W 3568  43.460  32.108  14.320
35228W        W 3569  37.075  44.788  10.994
35229W        W 3570   2.770  22.649  11.859
35230W        W 3571  36.038  23.175  13.389
35231W        W 3572   4.375  42.422  10.490
35232W        W 3573  33.879  15.616  12.937
35233W        W 3574  21.026  25.998  13.432
35234W        W 3575  33.038   8.384   1.779
35235W        W 3576   9.214  22.677  13.463
35236W        W 3577  42.926  30.610  12.923
35237W        W 3578  41.796  34.923  10.890
35238W        W 3579   2.280   7.802   0.848
35239W        W 3580  17.583   8.323  13.913
35240W        W 3581   1.811  18.697  13.416
35241W        W 3582   9.195   0.252   0.481
35242W        W 3583  13.659   2.720   1.346
35243W        W 3584  13.818  39.838   0.279
35244W        W 3585  43.427  39.329   2.401
35245W        W 3586  14.794  37.388   3.186
35246W        W 3587  30.164  34.446  13.386
35247W        W 3588   6.215  32.392  12.521
35248W        W 3589  25.615  30.504   0.757
35249W        W 3590  35.896   7.816  14.355
35250W        W 3591  16.657  40.476  10.475
35251W        W 3592  38.022  17.574   2.302
35252W        W 3593   8.781  15.775   4.144
35253W        W 3594  20.035  33.923   3.227
35254W        W 3595  24.506  21.516  11.863
35255W        W 3596  42.926  24.050   0.730
35256W        W 3597  21.201   6.763   2.667
35257W        W 3598   6.215  10.230   1.306
35258W        W 3599  40.393  14.217  11.953
35259W        W 3600  33.563  33.392  13.843
35260W        W 3601   6.370  19.765  12.553
35261W        W 3602  21.044  36.543   2.703
35262W        W 3603  18.704  44.941  13.351
35263W        W 3604  19.266  39.528   3.739
35264W        W 3605  12.671  36.488  14.374
35265W        W 3606  32.562  18.277  11.401
35266W        W 3607  23.066  13.602  13.804
35267W        W 3608   7.774  15.707  14.437
35268W        W 3609   6.858  34.953  13.323
35269W        W 3610  18.212  24.561   0.417
35270W        W 3611  29.957   7.673   2.311
35271W        W 3612  33.070  35.964   3.704
35272W        W 3613  35.948  15.682   3.261
35273W        W 3614  35.398  30.999   3.856
35274W        W 3615  18.259  16.318  12.834
35275W        W 3616   3.371  14.811   2.704
35276W        W 3617  40.442  14.142  13.436
35277W        W 3618  15.193  42.793  13.548
35278W        W 3619  25.703  26.507   4.262
35279W        W 3620  17.184  20.116  14.788
35280W        W 3621  38.553  25.654  11.023
35281W        W 3622   7.259  22.747  10.914
35282W        W 3623  24.107  24.670  11.396
35283W        W 3624  42.478  18.777   2.753
35284W        W 3625  44.897  32.594   3.146
35285W        W 3626  41.043  31.983  12.351
35286W        W 3627  20.687  33.015  14.329
35287W        W 3628  43.279   3.892   2.670
35288W        W 3629  23.146  25.135  13.955
35289W        W 3630  19.072   4.808   4.311
35290W        W 3631  25.658  25.983  11.985
35291W        W 3632   7.346   5.835  10.578
35292W        W 3633  15.684  40.504   0.425
35293W        W 3634   2.300  36.421   0.821
35294W        W 3635  13.616  13.634  11.947
35295W        W 3636   5.195   3.222   5.190
35296W        W 3637  14.182  38.381  14.364
35297W        W 3638  43.471   3.872   4.807
35298W        W 3639  32.006   7.831   2.760
35299W        W 3640  28.123  23.003   2.333
35300W        W 3641  17.153  35.453  10.523
35301W        W 3642   8.398  35.854  11.979
35302W        W 3643   1.833  27.687  11.084
35303W        W 3644   2.960   7.314   4.695
35304W        W 3645  10.207  16.710   1.411
35305W        W 3646  33.615  32.529   4.332
35306W        W 3647  14.624  43.960   1.438
35307W        W 3648  19.588  22.103   3.226
35308W        W 3649  40.428  11.163  13.919
35309W        W 3650   6.190  35.493   0.477
35310W        W 3651  14.669  38.339   4.287
35311W        W 3652  29.483  41.335   5.279
35312W        W 3653  20.205  22.691   3.809
35313W        W 3654  34.609  41.365   5.659
35314W        W 3655  31.988  21.031  13.938
35315W        W 3656  42.302  11.683  11.550
35316W        W 3657  38.039  32.422   3.228
35317W        W 3658  44.945  28.978  14.962
35318W        W 3659   9.888  37.448   2.319
35319W        W 3660  28.598  23.082   0.336
35320W        W 3661  10.765  13.257   5.089
35321W        W 3662  18.567  36.040   0.467
35322W        W 3663  24.557  30.475  12.471
35323W        W 3664  39.908   3.866  12.491
35324W        W 3665  40.533   0.264   3.314
35325W        W 3666  26.685  41.490   0.292
35326W        W 3667  15.689  41.840   3.258
35327W        W 3668  30.978  33.879   0.863
35328W        W 3669  16.155  26.182   2.703
35329W        W 3670   7.906  33.879   2.219
35330W        W 3671  42.464  32.533   3.718
35331W        W 3672  10.266   6.207  13.885
35332W        W 3673   8.783  18.059   0.390
35333W        W 3674  28.536  42.908  12.869
35334W        W 3675  41.967  33.469  14.500
35335W        W 3676  13.625  42.882   2.735
35336W        W 3677  24.009  27.679   0.744
35337W        W 3678  35.006  18.622   0.884
35338W        W 3679  33.946   7.207   4.120
35339W        W 3680   5.387  26.637   1.399
35340W        W 3681  36.909  14.660   2.840
35341W        W 3682  27.582  20.088   4.231
35342W        W 3683  25.646  33.018  10.559
35343W        W 3684  25.122  33.991  11.038
35344W        W 3685  33.129   5.195  13.985
35345W        W 3686   2.312   1.393  12.877
35346W        W 3687  26.033  22.012  12.965
35347W        W 3688  37.558  21.572  13.499
35348W        W 3689   2.815  43.391   4.657
35349W        W 3690  10.785  36.023  13.903
35350W        W 3691   6.253  18.232  11.092
35351W        W 3692  21.188   7.372   3.170
35352W        W 3693  29.504  15.214  12.430
35353W        W 3694  13.678  17.203  12.475
35354W        W 3695  16.741  23.158   0.786
35355W        W 3696  38.509  10.272   1.371
35356W        W 3697  31.947  39.390   9.599
35357W        W 3698   3.436  39.931  14.495
35358W        W 3699  12.655  20.131  10.617
35359W        W 3700  33.549   1.333   0.948
35360W        W 3701  17.624   5.840   1.708
35361W        W 3702  31.044  44.486   1.760
35362W        W 3703  18.158  25.698   3.305
35363W        W 3704  41.325  26.089   3.779
35364W        W 3705   1.780  21.584  14.279
35365W        W 3706  38.471  41.854   9.454
35366W        W 3707  25.503  10.335  10.032
35367W        W 3708   8.341  11.226   0.930
35368W        W 3709  15.327   8.661   2.840
35369W        W 3710   6.700  24.615   2.854
35370W        W 3711   4.333  16.795  14.873
35371W        W 3712   3.364  32.474   0.352
35372W        W 3713  28.530  20.616   3.658
35373W        W 3714  35.935   4.367   2.412
35374W        W 3715   2.730  29.041  10.625
35375W        W 3716  38.326   7.345  12.969
35376W        W 3717  44.455   7.761  13.344
35377W        W 3718  38.435   7.395   4.224
35378W        W 3719   8.674   5.777   3.719
35379W        W 3720  42.865   1.922   4.320
35380W        W 3721   1.411  31.133  14.515
35381W        W 3722  32.088  17.081   4.666
35382W        W 3723  32.563  39.978  12.419
35383W        W 3724  16.190   7.867  11.868
35384W        W 3725  26.178  25.981  11.391
35385W        W 3726  12.262  17.304  14.784
35386W        W 3727  28.097  31.469  13.836
35387W        W 3728  35.467  19.610  14.856
35388W        W 3729   9.719  13.178  14.424
35389W        W 3730  40.050  23.490   1.353
35390W        W 3731  44.009  36.504  10.614
35391W        W 3732  38.996  17.678  12.420
35392W        W 3733  21.610  29.117   4.118
35393W        W 3734  10.308  16.663   2.290
35394W        W 3735  24.132  16.793  12.453
35395W        W 3736   9.837   9.273   4.301
35396W        W 3737  37.832  33.459   2.387
35397W        W 3738  10.212  17.300   3.352
35398W        W 3739  43.930  44.433  11.608
35399W        W 3740  38.571  24.985   3.307
35400W        W 3741  44.416  38.947   2.402
35401W        W 3742  37.087  13.797  11.074
35402W        W 3743  17.307  21.027  12.480
35403W        W 3744  40.992  25.175  10.515
35404W        W 3745  19.637   6.846  12.051
35405W        W 3746  27.987   0.363  14.404
35406W        W 3747  31.577   4.893   3.320
35407W        W 3748  14.217  18.788  11.018
35408W        W 3749  31.077   6.697  13.833
35409W        W 3750   2.338  33.963   2.226
35410W        W 3751  12.843   3.877   2.864
35411W        W 3752   3.412   4.890   4.648
35412W        W 3753  37.564  15.139  10.518
35413W        W 3754  17.134  42.790   2.775
35414W        W 3755   3.398   2.758  11.872
35415W        W 3756  23.570  33.946   1.707
35416W        W 3757  44.307  40.542  12.062
35417W        W 3758  20.146   9.652   0.890
35418W        W 3759  17.075  29.132  12.880
35419W        W 3760  43.308   2.923  10.911
35420W        W 3761  11.227  15.754   4.800
35421W        W 3762   5.193  34.605   2.350
35422W        W 3763  37.565  33.502   1.895
35423W        W 3764   4.394   0.455  11.951
35424W        W 3765  11.633   8.314   1.714
35425W        W 3766  43.509  36.461  11.035
35426W        W 3767  27.014  27.969  11.607
35427W        W 3768  43.894  16.600  11.030
35428W        W 3769   5.301   7.267   0.328
35429W        W 3770  18.143  36.587  14.866
35430W        W 3771  37.913  37.380   0.749
35431W        W 3772   3.785   5.347  10.475
35432W        W 3773   0.468   0.976   1.263
35433W        W 3774  21.606   9.885  14.341
35434W        W 3775   9.183   1.955   2.380
35435W        W 3776  43.365   0.455  11.510
35436W        W 3777   5.215   9.167  12.531
35437W        W 3778  18.138   8.842   5.280
35438W        W 3779  34.027  12.847   4.664
35439W        W 3780   2.750  21.025  14.288
35440W        W 3781  38.464  23.036  10.952
35441W        W 3782  24.171  32.447  11.012
35442W        W 3783  20.097  34.027  10.925
35443W        W 3784  40.996  39.991   0.356
35444W        W 3785  39.973  20.259   3.172
35445W        W 3786   8.791  43.494  11.945
35446W        W 3787  23.736  39.918   1.763
35447W        W 3788  43.827   2.450  14.812
35448W        W 3789  36.967  11.167  14.311
35449W        W 3790  22.545  19.262  12.363
35450W        W 3791  39.830   4.823   0.922
35451W        W 3792  17.164  37.880  12.051
35452W        W 3793  41.973  15.184  14.775
35453W        W 3794  23.186  12.213   2.750
35454W        W 3795  41.964   6.251   1.898
35455W        W 3796  27.447  40.949   1.275
35456W        W 3797  34.910   0.859   4.287
35457W        W 3798  14.795  30.570   5.238
35458W        W 3799   8.699  41.383  14.990
35459W        W 3800  41.819  16.765  10.613
35460W        W 3801  32.470  35.028   3.657
35461W        W 3802  17.294  29.087   3.824
35462W        W 3803  39.882  42.441  14.932
35463W        W 3804  42.803   5.718  14.027
35464W        W 3805  22.540  39.357   4.282
35465W        W 3806  24.561  40.029   0.354
35466W        W 3807  18.756   4.764   1.714
35467W        W 3808  15.737   2.864   2.850
35468W        W 3809  17.183  45.000   2.406
35469W        W 3810   5.213  40.935  13.361
35470W        W 3811   9.827   9.763  11.484
35471W        W 3812  28.169  31.942   2.349
35472W        W 3813  44.949   1.281   1.261
35473W        W 3814   1.823  37.406  11.555
35474W        W 3815   6.233   5.712  13.795
35475W        W 3816  20.129  33.602   3.714
35476W        W 3817  16.247  19.278   3.281
35477W        W 3818   0.479  12.786  14.924
35478W        W 3819  12.280  40.478   1.787
35479W        W 3820   3.777  22.088   2.347
35480W        W 3821  43.974  30.424   4.262
35481W        W 3822  10.286  30.458   2.403
35482W        W 3823  27.527  28.181  14.843
35483W        W 3824   4.446  20.612  10.433
35484W        W 3825  43.316   5.407  13.021
35485W        W 3826  41.330  15.092   2.203
35486W        W 3827  19.139  17.587   1.266
35487W        W 3828   6.264  37.056   3.865
35488W        W 3829   0.812  15.697  12.019
35489W        W 3830  14.207  41.476   1.405
35490W        W 3831   1.408  34.901  13.392
35491W        W 3832  17.210   2.765   4.826
35492W        W 3833   9.350  44.328   2.351
35493W        W 3834  24.496  37.407  14.897
35494W        W 3835  43.436   1.891   1.401
35495W        W 3836  17.171  41.835   2.680
35496W        W 3837  37.383  25.980   0.465
35497W        W 3838  43.355  18.623  12.984
35498W        W 3839  34.870  37.518  10.065
35499W        W 3840  14.279   7.261  14.406
35500W        W 3841   7.238   5.807  11.438
35501W        W 3842  30.036  21.747  13.042
35502W        W 3843  41.527  22.198  11.997
35503W        W 3844  41.861  17.714   3.240
35504W        W 3845   8.379  14.659  10.472
35505W        W 3846  43.767   0.294   0.882
35506W        W 3847  19.187  23.559  11.606
35507W        W 3848  20.662  32.495   2.231
35508W        W 3849   9.875  40.008   0.459
35509W        W 3850  29.618  23.206   1.307
35510W        W 3851  25.500  24.692  14.924
35511W        W 3852  43.344   9.290   0.391
35512W        W 3853  19.283  16.763   0.378
35513W        W 3854  15.096  36.095   2.696
35514W        W 3855   8.320  36.441   3.777
35515W        W 3856  29.097  24.575   2.359
35516W        W 3857   4.377  22.727   4.299
35517W        W 3858  31.470  21.695  12.488
35518W        W 3859  43.274  25.176  10.572
35519W        W 3860  35.600  35.993  10.547
35520W        W 3861  13.327   3.949  13.866
35521W        W 3862  25.103  13.132   2.380
35522W        W 3863  32.055  37.473  12.075
35523W        W 3864  32.079  29.929   2.359
35524W        W 3865  39.474   2.932   1.694
35525W        W 3866  31.897  12.275   4.191
35526W        W 3867  19.635  12.743  12.399
35527W        W 3868  12.257  13.214  14.354
35528W        W 3869  19.588  22.240  12.522
35529W        W 3870  17.288   3.879  11.111
35530W        W 3871  38.496   7.815  14.511
35531W        W 3872   2.457  20.050   2.357
35532W        W 3873  42.522  17.233   2.741
35533W        W 3874   8.319  40.836   3.361
35534W        W 3875  36.088  13.738   1.304
35535W        W 3876  39.386   7.246   4.783
35536W        W 3877  33.020   4.224   3.635
35537W        W 3878  19.265  13.323   3.715
35538W        W 3879  24.084  33.386   4.660
35539W        W 3880  17.672  37.892   3.800
35540W        W 3881  31.461  24.151   3.147
35541W        W 3882  34.612   3.875   0.764
35542W        W 3883   9.781  23.993   4.299
35543W        W 3884  13.214  10.343  11.389
35544W        W 3885  34.051  43.313  13.516
35545W        W 3886  22.034  12.123   1.811
35546W        W 3887  29.960  43.316   2.697
35547W        W 3888  21.676   2.462   1.851
35548W        W 3889  39.330  18.622   4.146
35549W        W 3890  37.019  40.513  13.928
35550W        W 3891  33.030   6.307  13.472
35551W        W 3892   3.814  19.091   3.773
35552W        W 3893  40.901  14.689  11.878
35553W        W 3894  15.272  43.843   1.786
35554W        W 3895  14.312  31.149  13.452
35555W        W 3896  22.174   5.727   1.218
35556W        W 3897  15.241   8.719   3.861
35557W        W 3898  21.101  31.951  12.351
35558W        W 3899  33.499   4.317  12.058
35559W        W 3900   6.333  26.702  13.515
35560W        W 3901  43.397  35.889  10.026
35561W        W 3902   4.702  14.307   0.458
35562W        W 3903   3.288  44.498   2.834
35563W        W 3904  38.497  22.552   4.790
35564W        W 3905   4.825   7.896   5.173
35565W        W 3906  37.442  32.528   2.861
35566W        W 3907   9.661  24.636   0.410
35567W        W 3908  28.021  21.018   3.295
35568W        W 3909  27.078   0.485  10.442
35569W        W 3910  14.202  33.012  13.432
35570W        W 3911  30.455  38.048  12.524
35571W        W 3912  16.682   8.874   0.784
35572W        W 3913  27.197  41.425   4.621
35573W        W 3914  20.531   0.932  10.541
35574W        W 3915  30.066  20.540   2.279
35575W        W 3916  21.634  16.072  13.352
35576W        W 3917   9.243  25.122  10.943
35577W        W 3918  40.006  33.956  11.015
35578W        W 3919  27.986  23.665  13.933
35579W        W 3920  23.120  41.434  13.327
35580W        W 3921   7.859  16.613  13.505
35581W        W 3922   3.907  35.862  13.426
35582W        W 3923  35.050  13.190  14.891
35583W        W 3924   0.260  42.327  10.632
35584W        W 3925  28.495   4.895   4.122
35585W        W 3926   3.240  33.397   2.879
35586W        W 3927  17.689  24.033   3.378
35587W        W 3928   8.676  17.604  12.904
35588W        W 3929  19.577   7.193  14.883
35589W        W 3930  38.926  20.094  11.932
35590W        W 3931  42.991  43.950   3.149
35591W        W 3932   8.193  19.709  13.962
35592W        W 3933  36.591  24.694   1.227
35593W        W 3934   8.654  10.193   2.708
35594W        W 3935  12.258   7.739  12.915
35595W        W 3936  26.163   0.854  10.583
35596W        W 3937  31.994   3.368  14.307
35597W        W 3938  31.008   1.267   3.689
35598W        W 3939  32.098  10.744   0.906
35599W        W 3940  20.244  14.700   2.266
35600W        W 3941  27.195   5.855   4.196
35601W        W 3942   7.290  35.002  13.414
35602W        W 3943  11.211  39.537  12.350
35603W        W 3944  30.108   3.344  12.912
35604W        W 3945  41.477  32.584  11.488
35605W        W 3946  32.128  12.234   2.396
35606W        W 3947  19.712  24.200  12.540
35607W        W 3948   3.935  17.721  10.981
35608W        W 3949  19.726  41.906   0.319
35609W        W 3950  13.321   0.902   0.249
35610W        W 3951   1.855  42.380   4.297
35611W        W 3952  10.688  10.319  12.581
35612W        W 3953  16.138  30.523  10.926
35613W        W 3954   8.303  29.994   3.312
35614W        W 3955  11.287  41.498  14.446
35615W        W 3956   4.259  42.991   4.184
35616W        W 3957  19.141   9.334  12.427
35617W        W 3958  18.702   9.218  10.596
35618W        W 3959  43.422  34.021   0.344
35619W        W 3960  24.015  19.571   9.998
35620W        W 3961  42.291   1.472   4.722
35621W        W 3962   3.856  20.538  13.921
35622W        W 3963  39.383  40.475   1.787
35623W        W 3964  29.124   7.700  14.933
35624W        W 3965  40.390   7.221   4.670
35625W        W 3966  38.930  22.095   3.269
35626W        W 3967  34.424   1.745  12.362
35627W        W 3968   2.919   3.231   1.862
35628W        W 3969  42.342  27.513  13.446
35629W        W 3970  25.996  14.810  13.029
35630W        W 3971   8.787  18.268   2.208
35631W        W 3972  11.339  14.292   3.201
35632W        W 3973   2.312  38.883  13.331
35633W        W 3974  38.949  41.970  13.387
35634W        W 3975   1.747  42.778   0.799
35635W        W 3976  41.984  43.812  12.394
35636W        W 3977  27.080  12.302  13.797
35637W        W 3978  21.118  19.240  11.410
35638W        W 3979  25.664  29.473   2.862
35639W        W 3980  30.602  19.248   4.669
35640W        W 3981  26.126  35.478  11.429
35641W        W 3982  37.545  39.430   3.372
35642W        W 3983  11.822  38.984  14.460
35643W        W 3984  19.559   6.321   1.758
35644W        W 3985   0.284   5.231  14.795
35645W        W 3986   2.884   5.394  12.478
35646W        W 3987  23.029  39.019   1.853
35647W        W 3988  23.645  16.711   0.774
35648W        W 3989  22.233  14.326   0.383
35649W        W 3990  36.025  10.876   1.741
35650W        W 3991  25.036  40.985   2.385
35651W        W 3992  31.060  25.472   2.714
35652W        W 3993  23.136   8.660   4.625
35653W        W 3994   3.280  38.464   4.191
35654W        W 3995  27.670  21.212  14.349
35655W        W 3996  44.976   4.418  13.922
35656W        W 3997  37.045   6.885  10.566
35657W        W 3998  30.464  34.901   2.855
35658W        W 3999  17.306  30.452   3.240
35659W        W 4000  21.028   3.772  13.940
35660W        W 4001  34.419  38.464   0.276
35661W        W 4002  21.139  38.948  12.008
35662W        W 4003   7.296  17.164  11.602
35663W        W 4004  31.485   8.245   3.231
35664W        W 4005  28.098   9.162   4.772
35665W        W 4006   8.895  30.604   2.336
35666W        W 4007  39.495  23.050   4.116
35667W        W 4008  27.551  11.367   0.290
35668W        W 4009   0.386  20.132   5.791
35669W        W 4010  36.432  12.666   2.343
35670W        W 4011  30.518  11.339  12.872
35671W        W 4012  34.954  31.642   4.154
35672W        W 4013  37.012   3.415   4.756
35673W        W 4014  13.814  27.956  12.427
35674W        W 4015  42.808  36.076  13.925
35675W        W 4016  12.693   5.704   3.153
35676W        W 4017  37.941  14.667  11.872
35677W        W 4018  32.509  25.540   4.333
35678W        W 4019  25.506  11.319   0.869
35679W        W 4020  42.412  27.672   2.710
35680W        W 4021  39.490  20.096  11.521
35681W        W 4022  31.597  38.438  11.389
35682W        W 4023   2.803  15.302   2.343
35683W        W 4024   0.256   9.289  13.531
35684W        W 4025   6.822  27.510  12.936
35685W        W 4026   2.736  15.703   4.324
35686W        W 4027  18.141  30.151  13.926
35687W        W 4028  29.440   1.313   3.210
35688W        W 4029  13.224   0.907  13.876
35689W        W 4030  37.008   1.368  10.927
35690W        W 4031  41.409   1.257   4.700
35691W        W 4032  31.517  19.595  14.996
35692W        W 4033  36.368   6.258   1.410
35693W        W 4034  33.953  25.508  11.032
35694W        W 4035   4.757  43.938   4.117
35695W        W 4036   6.190  42.831  14.874
35696W        W 4037  21.241  39.491  14.971
35697W        W 4038   3.230  32.417  14.903
35698W        W 4039  30.639   4.260   0.844
35699W        W 4040  31.097  34.477  11.091
35700W        W 4041  33.094  10.694  13.437
35701W        W 4042  29.495  33.966   4.281
35702W        W 4043  42.295  26.481   3.294
35703W        W 4044  19.236  35.007  13.532
35704W        W 4045  32.525  33.574  10.456
35705W        W 4046   6.220  36.874  13.421
35706W        W 4047  21.570  10.288   3.718
35707W        W 4048  21.617   6.838  10.995
35708W        W 4049   0.788  14.125   4.757
35709W        W 4050  44.836   3.809  14.027
35710W        W 4051   4.764  14.663  12.893
35711W        W 4052  42.333  25.150   3.806
35712W        W 4053  20.660  41.927  10.908
35713W        W 4054  17.128  26.611  10.148
35714W        W 4055  36.850  44.896  14.774
35715W        W 4056   5.868  43.335   3.182
35716W        W 4057  32.548  30.437  10.425
35717W        W 4058  31.119  22.011   2.201
35718W        W 4059   8.752   1.386  13.943
35719W        W 4060  26.658  13.663  14.760
35720W        W 4061  30.612   3.390   3.671
35721W        W 4062  10.351   8.897   4.313
35722W        W 4063  30.533   7.348   2.211
35723W        W 4064  25.062  26.477   0.755
35724W        W 4065  19.198  31.121   0.793
35725W        W 4066   0.877   2.771   2.794
35726W        W 4067  15.670  19.679   4.320
35727W        W 4068  42.911  38.422   1.261
35728W        W 4069  36.070  39.879   3.773
35729W        W 4070  43.445  42.375  14.902
35730W        W 4071  15.236   4.442  14.331
35731W        W 4072   4.882  39.965   2.261
35732W        W 4073  24.159  19.272   4.181
35733W        W 4074  33.390  18.145  13.866
35734W        W 4075  39.875  21.646   3.269
35735W        W 4076  28.138  26.470   0.912
35736W        W 4077  18.114  21.149  10.910
35737W        W 4078  12.646  30.418  12.524
35738W        W 4079  27.972  13.796   0.753
35739W        W 4080  27.632  25.124   0.948
35740W        W 4081  36.966  17.752   3.261
35741W        W 4082  17.115  17.646  14.012
35742W        W 4083  24.004  35.536   2.727
35743W        W 4084  26.074  22.009  13.462
35744W        W 4085  35.447  14.219   0.775
35745W        W 4086  22.063  40.865   2.273
35746W        W 4087   6.740  29.624  12.927
35747W        W 4088  13.299  24.481  11.595
35748W        W 4089  39.479  28.079  13.877
35749W        W 4090  33.605  24.100   1.366
35750W        W 4091  13.283  43.359  13.798
35751W        W 4092  32.986  24.110  11.382
35752W        W 4093  17.776   1.975   2.716
35753W        W 4094  33.409   4.249  14.380
35754W        W 4095  11.253  34.938   3.325
35755W        W 4096  31.081  31.947  13.435
35756W        W 4097  13.163  14.095  10.055
35757W        W 4098  22.246  27.620  14.841
35758W        W 4099  40.429  22.567   0.347
35759W        W 4100  41.303  40.878   1.283
35760W        W 4101  24.682  44.821   1.762
35761W        W 4102  39.479  44.424  12.539
35762W        W 4103  21.598   7.271  11.987
35763W        W 4104  37.984  20.660  13.794
35764W        W 4105  25.644  37.982  14.952
35765W        W 4106  44.765   4.328   3.808
35766W        W 4107  15.140   1.936   2.261
35767W        W 4108  11.662  41.484   5.140
35768W        W 4109  14.115   3.943   4.647
35769W        W 4110  27.564   5.696   1.721
35770W        W 4111  21.215   4.707  11.918
35771W        W 4112   9.744  27.007  11.998
35772W        W 4113  30.920  44.007  11.972
35773W        W 4114  22.224  31.023  13.310
35774W        W 4115  26.691   2.845   4.638
35775W        W 4116  41.012  34.421   1.698
35776W        W 4117  13.722  36.981   2.317
35777W        W 4118  19.572  34.974   0.857
35778W        W 4119  19.650   7.715   0.778
35779W        W 4120   3.894   8.252   4.208
35780W        W 4121  14.736   0.967  14.779
35781W        W 4122  35.555  37.558   0.903
35782W        W 4123  34.460  44.003   2.715
35783W        W 4124   1.955  43.274   0.780
35784W        W 4125  33.392  35.926   4.212
35785W        W 4126  32.431  44.974   1.433
35786W        W 4127  44.350  19.608  13.430
35787W        W 4128   3.331  31.449   0.478
35788W        W 4129  18.202  38.995   3.784
35789W        W 4130  14.665  19.650  13.940
35790W        W 4131   4.810  12.235  13.385
35791W        W 4132  19.209  23.505  12.511
35792W        W 4133  18.545   1.937   2.321
35793W        W 4134   6.265  27.984   2.235
35794W        W 4135  37.529  21.572  11.592
35795W        W 4136  37.500  27.570  12.399
35796W        W 4137  21.120  10.380  14.432
35797W        W 4138  24.526  24.601  13.033
35798W        W 4139  19.084  11.653  10.956
35799W        W 4140  15.687  16.110  11.998
35800W        W 4141   7.884   0.883   1.230
35801W        W 4142  28.170  39.015   4.154
35802W        W 4143  44.006  26.540  13.993
35803W        W 4144  13.146   8.273  14.409
35804W        W 4145  43.958  34.942  11.609
35805W        W 4146   0.864  25.658  13.545
35806W        W 4147   4.250   5.865  14.943
35807W        W 4148  22.076  26.664  11.052
35808W        W 4149   6.830  19.630   4.766
35809W        W 4150  29.635  18.221   9.924
35810W        W 4151  23.196  39.826  10.490
35811W        W 4152   4.409   8.312   1.251
35812W        W 4153  39.021  15.136   2.744
35813W        W 4154   1.328  17.245   2.748
35814W        W 4155  33.489   5.738   0.898
35815W        W 4156  37.937  39.884   0.428
35816W        W 4157  33.387  39.060   2.812
35817W        W 4158  22.700  12.207   3.333
35818W        W 4159  35.442   7.702   1.914
35819W        W 4160   4.263   4.308  12.415
35820W        W 4161  19.756   6.394  10.407
35821W        W 4162  40.845  23.001  11.384
35822W        W 4163  11.295  24.144  13.381
35823W        W 4164   9.239  41.394  13.010
35824W        W 4165  34.384  41.889   3.817
35825W        W 4166   0.298  16.741  13.521
35826W        W 4167   0.256   8.270   3.735
35827W        W 4168   7.195  32.127  10.012
35828W        W 4169  19.124  25.515   4.124
35829W        W 4170  42.415  24.090   2.280
35830W        W 4171  15.313  29.600   2.696
35831W        W 4172  15.816  33.506  11.040
35832W        W 4173  30.638  43.932  10.606
35833W        W 4174  13.261  41.030   1.834
35834W        W 4175   7.279  17.267  14.903
35835W        W 4176  42.304   9.750   0.861
35836W        W 4177   5.401  18.614   1.897
35837W        W 4178  33.905  16.290   2.185
35838W        W 4179  33.464  33.924   0.880
35839W        W 4180  13.791  13.182   0.952
35840W        W 4181   4.352  24.205  13.312
35841W        W 4182  43.984  44.287  10.601
35842W        W 4183  31.437  10.214  13.869
35843W        W 4184  37.831  20.551  10.524
35844W        W 4185  36.434  44.328  12.839
35845W        W 4186  16.795  18.628   0.454
35846W        W 4187   1.740  24.546  14.347
35847W        W 4188  27.098  18.278   4.802
35848W        W 4189   4.889  36.529   4.711
35849W        W 4190  18.627  39.442   2.271
35850W        W 4191   0.868  15.192  11.608
35851W        W 4192  38.909  39.008   2.217
35852W        W 4193   8.752  40.962   0.882
35853W        W 4194   8.865  14.646  12.563
35854W        W 4195  21.018   4.848   4.712
35855W        W 4196  36.880  20.150   3.325
35856W        W 4197  27.471  35.594  12.504
35857W        W 4198   8.205  28.462  11.577
35858W        W 4199  24.506  30.429   1.853
35859W        W 4200   5.916  12.133  13.392
35860W        W 4201  15.674   0.894  12.953
35861W        W 4202  16.093  21.748   1.346
35862W        W 4203  21.039  26.652  10.404
35863W        W 4204  35.514  36.877  11.483
35864W        W 4205   4.324   9.754  10.965
35865W        W 4206  31.613  27.192  12.002
35866W        W 4207  18.675  14.129  11.104
35867W        W 4208   4.745  32.459   1.251
35868W        W 4209  30.476   3.877  11.101
35869W        W 4210  37.865  34.574   1.715
35870W        W 4211  38.041  15.807   2.675
35871W        W 4212  19.706  18.257   0.847
35872W        W 4213   6.427  18.759   1.792
35873W        W 4214  33.948  21.249  10.621
35874W        W 4215  24.586  35.364   2.888
35875W        W 4216   2.898  13.154   2.861
35876W        W 4217  14.599  21.696  10.930
35877W        W 4218  10.825  41.878   0.818
35878W        W 4219  22.715   1.383   1.933
35879W        W 4220  38.980  24.703  14.009
35880W        W 4221  34.063  42.464   5.316
35881W        W 4222   3.850  20.085   2.279
35882W        W 4223  31.998  25.000   3.717
35883W        W 4224  38.934  13.190   3.752
35884W        W 4225  26.145  44.817  10.981
35885W        W 4226   5.784  32.103   4.268
35886W        W 4227  34.060  10.689   1.361
35887W        W 4228  16.202  31.083  12.395
35888W        W 4229   2.771  16.617   2.852
35889W        W 4230  21.606  33.528  12.864
35890W        W 4231   2.434  38.977   0.371
35891W        W 4232  42.957  20.082   2.704
35892W        W 4233  13.624  22.227  12.093
35893W        W 4234  27.460  23.694   0.852
35894W        W 4235  31.929  11.729  13.426
35895W        W 4236   6.681   2.374   0.884
35896W        W 4237  24.478  25.651  13.811
35897W        W 4238  30.461   6.187   1.762
35898W        W 4239  10.684   2.433  11.940
35899W        W 4240  24.998  16.728  11.401
35900W        W 4241  32.401  20.157   0.872
35901W        W 4242   0.853   5.698   4.693
35902W        W 4243  23.119  40.544  12.019
35903W        W 4244  25.495  41.433  12.462
35904W        W 4245  28.156  15.120   1.321
35905W        W 4246  42.515  16.109  14.830
35906W        W 4247  20.764  10.174   2.814
35907W        W 4248  39.367   0.340  10.485
35908W        W 4249   9.651  39.848  11.006
35909W        W 4250  34.001  16.091  10.927
35910W        W 4251  39.502  28.648  13.886
35911W        W 4252  24.156   0.931   3.361
35912W        W 4253  22.170   9.307  14.413
35913W        W 4254  40.837  11.134   1.706
35914W        W 4255  38.521   9.223  11.066
35915W        W 4256  15.761  13.707   4.713
35916W        W 4257  41.341  44.491   2.329
35917W        W 4258   8.288  44.805  12.484
35918W        W 4259  13.232   3.339   0.766
35919W        W 4260  14.105   8.796   4.134
35920W        W 4261  25.217  39.497   0.256
35921W        W 4262  31.429   2.864  14.468
35922W        W 4263   2.442  20.063  14.463
35923W        W 4264  28.158   6.243   1.212
35924W        W 4265  38.424  11.840   4.255
35925W        W 4266  39.857  31.136   3.685
35926W        W 4267   4.255   1.891   2.367
35927W        W 4268  37.339   8.753   1.753
35928W        W 4269  23.024  13.690   0.754
35929W        W 4270   5.214   6.893  13.798
35930W        W 4271  19.076   3.400  11.592
35931W        W 4272  10.741   7.292   2.188
35932W        W 4273   2.880  22.066   4.317
35933W        W 4274   1.912  21.692  10.495
35934W        W 4275  44.867  17.085   0.341
35935W        W 4276  31.042  18.287   4.351
35936W        W 4277   1.794  30.575  14.874
35937W        W 4278  34.903  29.434  12.384
35938W        W 4279   9.682  22.617  10.520
35939W        W 4280  27.640  28.089  12.471
35940W        W 4281   3.420   1.456   0.797
35941W        W 4282  41.004  11.257  10.541
35942W        W 4283   4.796   7.245   1.825
35943W        W 4284  19.047   9.334   0.949
35944W        W 4285  40.309  40.952   3.356
35945W        W 4286  12.758   1.941   3.807
35946W        W 4287  44.439  26.546   9.951
35947W        W 4288  39.384  40.799  11.068
35948W        W 4289  40.436  26.576   0.820
35949W        W 4290   0.465   1.260   2.842
35950W        W 4291  33.453  23.687  13.337
35951W        W 4292   0.844  14.766  10.626
35952W        W 4293  36.085  23.584   1.906
35953W        W 4294  44.788  44.396  11.572
35954W        W 4295  44.759   1.384  12.404
35955W        W 4296  18.256   2.885   3.224
35956W        W 4297  39.811   7.755   3.177
35957W        W 4298   9.782  38.437  11.857
35958W        W 4299   6.725  29.610   3.378
35959W        W 4300  20.182  37.079   2.322
35960W        W 4301   4.864  37.462  10.067
35961W        W 4302  37.993  23.107  13.492
35962W        W 4303  31.526  12.188  10.895
35963W        W 4304  35.450   7.337   4.272
35964W        W 4305  18.548  18.723  12.463
35965W        W 4306  10.702  21.089  12.357
35966W        W 4307  23.719  36.979   0.760
35967W        W 4308  17.101  43.299   1.867
35968W        W 4309  19.668  38.984   0.260
35969W        W 4310  18.209  11.194  11.970
35970W        W 4311  34.040  42.317  10.585
35971W        W 4312  27.523  16.683  13.481
35972W        W 4313  25.174  41.862   5.190
35973W        W 4314  28.945  28.651   4.612
35974W        W 4315  25.076  22.115   0.936
35975W        W 4316  13.771  33.586   1.355
35976W        W 4317  35.891  42.786   1.346
35977W        W 4318  29.024  40.514  13.423
35978W        W 4319  11.137  11.781  14.884
35979W        W 4320  38.462  40.421  14.481
35980W        W 4321  42.341   4.242  13.333
35981W        W 4322  29.967  36.567  14.417
35982W        W 4323  43.812  42.021  14.016
35983W        W 4324   4.426  27.055   3.237
35984W        W 4325  15.772   9.260  11.433
35985W        W 4326  28.587  20.073   3.710
35986W        W 4327  36.467  22.244  12.891
35987W        W 4328  32.418   6.389   2.777
35988W        W 4329   5.867  24.110   0.296
35989W        W 4330  26.670  37.907  14.001
35990W        W 4331  16.635  12.228   0.864
35991W        W 4332  22.549   8.400  14.811
35992W        W 4333  14.318  32.540   0.253
35993W        W 4334   6.894  44.363  13.994
35994W        W 4335  13.312  30.528   5.149
35995W        W 4336   0.351  30.104  14.904
35996W        W 4337   6.875  26.641   2.812
35997W        W 4338  23.205   7.777  13.926
35998W        W 4339  32.951  30.020  10.529
35999W        W 4340   4.740  13.645  10.557
36000W        W 4341  25.991   4.781   1.377
36001W        W 4342  24.509  42.922   0.444
36002W        W 4343   1.429  40.965  13.388
36003W        W 4344  26.669   3.355  10.564
36004W        W 4345  34.961   1.860  14.330
36005W        W 4346  28.502  32.076  12.568
36006W        W 4347  31.612  20.124  14.976
36007W        W 4348  13.661  16.202  14.859
36008W        W 4349   1.280   1.357  13.994
36009W        W 4350   3.390   8.210   0.265
36010W        W 4351  22.056  27.958  10.458
36011W        W 4352  35.534  28.638   3.834
36012W        W 4353   2.338  37.439  14.888
36013W        W 4354  10.868  18.272   0.372
36014W        W 4355  27.579  28.549  14.434
36015W        W 4356  22.168   9.173   3.290
36016W        W 4357  29.142  25.215  14.838
36017W        W 4358   5.382   3.827   3.300
36018W        W 4359   7.749  15.130  11.033
36019W        W 4360  21.177  43.942  10.137
36020W        W 4361  29.961  25.586  12.451
36021W        W 4362  25.551  12.160  11.606
36022W        W 4363  17.181  15.269   1.340
36023W        W 4364  11.228  10.776   3.738
36024W        W 4365   7.849  30.449   2.736
36025W        W 4366  27.099  16.091  12.465
36026W        W 4367  26.653   9.751  10.412
36027W        W 4368  42.395  39.376  11.062
36028W        W 4369  12.269  41.498   1.222
36029W        W 4370  24.041  41.483  13.061
36030W        W 4371  29.034  31.465  12.989
36031W        W 4372  10.659  13.815  12.502
36032W        W 4373  29.036  18.656   4.701
36033W        W 4374  32.006   2.815  13.912
36034W        W 4375  17.661  30.473   1.781
36035W        W 4376  35.110  36.394   4.224
36036W        W 4377  29.465  38.438   3.698
36037W        W 4378  12.335  17.117  12.440
36038W        W 4379  14.108  37.516   3.202
36039W        W 4380   3.778  24.181  12.926
36040W        W 4381  32.040  18.176  11.562
36041W        W 4382   9.771  21.756   4.175
36042W        W 4383  10.357   9.332  11.491
36043W        W 4384  38.448   5.800   1.754
36044W        W 4385  29.639  26.502  11.042
36045W        W 4386   4.894  18.786  12.947
36046W        W 4387  25.029  34.077  10.432
36047W        W 4388  33.011   7.840   3.776
36048W        W 4389  29.167  32.546  11.947
36049W        W 4390   5.422  40.407  11.068
36050W        W 4391   5.412  16.727  10.447
36051W        W 4392  39.362  42.500  10.607
36052W        W 4393   1.365  16.238  12.896
36053W        W 4394  20.765   5.298   2.795
36054W        W 4395  27.119  37.025  11.527
36055W        W 4396  17.146  44.795  12.408
36056W        W 4397  18.572  39.982  14.918
36057W        W 4398  38.911   0.890   4.297
36058W        W 4399  15.588  34.469   4.750
36059W        W 4400  10.812  14.695  14.848
36060W        W 4401  15.652  37.976  12.853
36061W        W 4402  12.667  32.950  13.354
36062W        W 4403  36.443   8.190  14.424
36063W        W 4404  32.536   1.971  10.553
36064W        W 4405  25.502   1.404   1.410
36065W        W 4406  35.047  43.470  12.929
36066W        W 4407   6.872  19.563   1.384
36067W        W 4408  13.618  21.742   4.725
36068W        W 4409  29.123  28.997  12.421
36069W        W 4410  36.541  28.447  12.824
36070W        W 4411  17.196  17.264  11.609
36071W        W 4412   9.831  35.528  12.920
36072W        W 4413   5.737  26.581   0.287
36073W        W 4414  40.524  38.950   4.152
36074W        W 4415  34.471  20.723   1.400
36075W        W 4416  42.362   9.358  13.061
36076W        W 4417   5.431  11.693  13.343
36077W        W 4418   0.395   7.910  10.579
36078W        W 4419   8.389   0.306   1.866
36079W        W 4420  40.019   5.344  13.840
36080W        W 4421   4.805  34.456   0.481
36081W        W 4422   3.878  37.911  12.906
36082W        W 4423  17.285  28.125   1.348
36083W        W 4424  31.421   8.695  12.039
36084W        W 4425  41.519  20.750   4.704
36085W        W 4426   6.380  41.037  10.448
36086W        W 4427  12.279  10.230  13.887
36087W        W 4428  34.463   7.336  10.437
36088W        W 4429   5.843  30.453  13.329
36089W        W 4430  38.072  13.254   0.852
36090W        W 4431  19.637   0.910  12.867
36091W        W 4432  15.794  25.186   4.738
36092W        W 4433   1.763  18.599   3.705
36093W        W 4434  27.155  29.584   3.842
36094W        W 4435  18.076  20.550   0.395
36095W        W 4436  11.171   0.436   4.615
36096W        W 4437  28.597  10.282  12.501
36097W        W 4438   3.910  43.997   2.698
36098W        W 4439  23.668   4.711   0.306
36099W        W 4440  18.787  39.443   1.744
36100W        W 4441   9.287  43.439   1.748
36101W        W 4442  12.197  22.669   3.762
36102W        W 4443  30.151   8.354  13.970
36103W        W 4444  39.339  39.504   0.400
36104W        W 4445  41.308  43.330   2.253
36105W        W 4446  41.375  36.020  11.121
36106W        W 4447  16.572  22.130   1.839
36107W        W 4448  14.276  40.438  10.090
36108W        W 4449  16.772   6.320  13.037
36109W        W 4450  16.267   2.396   1.873
36110W        W 4451   0.837  34.864   3.258
36111W        W 4452  18.055  42.850   4.202
36112W        W 4453  20.164  23.097  14.948
36113W        W 4454  22.115  26.199  12.965
36114W        W 4455   4.328   3.897  11.504
36115W        W 4456   0.958  40.038  11.603
36116W        W 4457  12.291  34.592   2.689
36117W        W 4458  27.471  27.098   0.922
36118W        W 4459  32.398  38.559   9.457
36119W        W 4460   0.932  36.889  11.932
36120W        W 4461  31.638  36.933   3.737
36121W        W 4462  40.921  22.219   0.479
36122W        W 4463   2.421  20.252  12.463
36123W        W 4464   4.223  23.163   1.314
36124W        W 4465  30.478  44.262   1.409
36125W        W 4466   6.696   6.363   4.715
36126W        W 4467  33.485  37.986   1.840
36127W        W 4468  42.350  14.228   2.264
36128W        W 4469  27.049  29.047  13.841
36129W        W 4470  23.561  18.180   3.849
36130W        W 4471   6.290  38.948  14.816
36131W        W 4472  23.211  27.945  10.495
36132W        W 4473  18.773  37.901   4.647
36133W        W 4474   5.419  42.304   2.737
36134W        W 4475  34.018   5.319   0.361
36135W        W 4476   7.808   5.389  12.849
36136W        W 4477  33.094  29.035   3.282
36137W        W 4478  41.437   4.425  14.907
36138W        W 4479  16.233  13.637   0.819
36139W        W 4480  40.384  16.789  11.519
36140W        W 4481  36.461  42.845   0.435
36141W        W 4482  43.960   0.287   3.735
36142W        W 4483  37.927  38.507   1.857
36143W        W 4484   2.911   4.744   2.840
36144W        W 4485   3.238  35.393  13.527
36145W        W 4486  36.463  38.493  12.551
36146W        W 4487  12.811  44.914   0.887
36147W        W 4488   7.898  14.110   0.925
36148W        W 4489   5.691  29.119   2.247
36149W        W 4490   1.879  19.641  14.512
36150W        W 4491  27.126  12.751   1.353
36151W        W 4492  43.933  19.727  10.055
36152W        W 4493  36.490  13.123   1.733
36153W        W 4494  44.375  16.307  14.959
36154W        W 4495  23.677  32.994  12.504
36155W        W 4496  29.485  42.905   0.300
36156W        W 4497  33.458  40.409  13.031
36157W        W 4498  44.422   3.439  11.387
36158W        W 4499   4.781  25.120  12.914
36159W        W 4500   5.858  28.969  12.024
36160W        W 4501  29.519   3.454  11.490
36161W        W 4502  10.206   1.870  12.866
36162W        W 4503   5.887  16.177   3.782
36163W        W 4504  35.575  10.256  14.007
36164W        W 4505  19.757  25.470   4.799
36165W        W 4506  29.968   6.365  10.623
36166W        W 4507  15.319  14.160   2.705
36167W        W 4508  33.111  32.137  12.068
36168W        W 4509  33.585  22.152   0.908
36169W        W 4510  14.322  20.048  12.569
36170W        W 4511  26.161  35.961   0.338
36171W        W 4512  37.454  31.946   1.327
36172W        W 4513  33.876  44.358   2.210
36173W        W 4514   0.262  29.475   4.244
36174W        W 4515  21.259  32.894   1.829
36175W        W 4516  30.936  37.495  12.926
36176W        W 4517  40.346  10.202   1.910
36177W        W 4518  14.100  37.896   9.938
36178W        W 4519  24.024  33.572   0.320
36179W        W 4520   6.343  44.770   3.163
36180W        W 4521  22.124   6.311   0.850
36181W        W 4522   1.973  18.740  12.990
36182W        W 4523  42.976  30.024  11.516
36183W        W 4524  26.962   1.809  13.897
36184W        W 4525   6.199  35.001   3.834
36185W        W 4526   8.192  30.995   1.242
36186W        W 4527  20.754  15.616   2.738
36187W        W 4528  39.813  23.542  14.765
36188W        W 4529   9.812  11.775   0.947
36189W        W 4530  41.890  25.553   4.762
36190W        W 4531   1.766  38.446  12.019
36191W        W 4532  21.687  39.866   0.466
36192W        W 4533  31.054  29.571  14.328
36193W        W 4534  43.895  42.898  14.866
36194W        W 4535  24.115   5.880   4.677
36195W        W 4536  21.532  32.016   0.951
36196W        W 4537  37.936  15.714  11.590
36197W        W 4538   5.728  23.538   1.841
36198W        W 4539  38.011   7.235  13.369
36199W        W 4540  23.038  40.394   0.444
36200W        W 4541   7.247  13.631   3.649
36201W        W 4542   8.751  19.141   0.428
36202W        W 4543  36.995  30.616  13.369
36203W        W 4544   1.388  10.666  12.919
36204W        W 4545   5.341   2.849  10.513
36205W        W 4546   6.694  13.605   1.413
36206W        W 4547  21.017  20.662   9.984
36207W        W 4548  19.621   9.301  11.868
36208W        W 4549  28.110  14.275  11.938
36209W        W 4550   4.411  23.659  13.323
36210W        W 4551  22.700  12.673   1.856
36211W        W 4552  38.383  36.505  13.791
36212W        W 4553  25.534  29.122   9.637
36213W        W 4554  23.533  42.337   3.252
36214W        W 4555   9.694  43.980  13.457
36215W        W 4556   5.365  34.423   0.929
36216W        W 4557   6.400   8.692   5.183
36217W        W 4558  44.408  24.694  10.999
36218W        W 4559   9.173  33.623   0.271
36219W        W 4560  19.756  36.568  14.370
36220W        W 4561   6.820   3.907  14.461
36221W        W 4562  31.513  31.993   1.405
36222W        W 4563  11.766  30.476   4.227
36223W        W 4564  12.239  40.472   4.240
36224W        W 4565  40.021  36.410  12.960
36225W        W 4566  22.715   8.774   0.926
36226W        W 4567  28.677  40.887   0.397
36227W        W 4568  10.678  37.979  14.292
36228W        W 4569  22.998  33.380  10.415
36229W        W 4570  27.511   5.199  14.321
36230W        W 4571   5.810   3.772  14.400
36231W        W 4572   0.343  17.132   3.633
36232W        W 4573   7.699  30.434  14.991
36233W        W 4574  19.608  16.273  14.926
36234W        W 4575   6.386  34.119  12.348
36235W        W 4576  39.345  35.519   0.415
36236W        W 4577  33.021  14.726   0.937
36237W        W 4578  38.930  43.922   2.319
36238W        W 4579  24.195   5.310  14.394
36239W        W 4580   1.963  16.792   3.800
36240W        W 4581  31.463  26.209   2.693
36241W        W 4582  37.561   3.725   2.783
36242W        W 4583  43.434   8.193  10.443
36243W        W 4584  11.163  16.748  12.472
36244W        W 4585  35.440  19.074   3.762
36245W        W 4586   4.241  40.372  13.028
36246W        W 4587  24.550  21.757  12.453
36247W        W 4588   7.869  43.899  13.448
36248W        W 4589  22.170   9.257   0.380
36249W        W 4590   9.239  23.713  13.867
36250W        W 4591  25.011  18.139  12.421
36251W        W 4592  19.058  22.232  14.277
36252W        W 4593   2.439  40.378  13.479
36253W        W 4594  40.511  19.203   1.247
36254W        W 4595   7.186  21.620   2.876
36255W        W 4596  43.480  13.258   3.239
36256W        W 4597  36.352  44.850   1.318
36257W        W 4598  28.121  16.650  10.944
36258W        W 4599  35.384  23.496   0.463
36259W        W 4600  30.653  28.988   0.474
36260W        W 4601  11.750  31.961   1.377
36261W        W 4602  35.052  12.329  12.972
36262W        W 4603   5.360  40.409  13.376
36263W        W 4604  32.945  22.682   4.643
36264W        W 4605  22.122  10.672  10.985
36265W        W 4606  21.518   6.379  12.907
36266W        W 4607  24.095  33.005   4.284
36267W        W 4608  43.985  43.812   0.942
36268W        W 4609   5.204   4.705  11.604
36269W        W 4610  44.964   2.298   0.383
36270W        W 4611  24.699  41.409  11.529
36271W        W 4612  43.008  43.967   1.740
36272W        W 4613  41.409  32.897  10.409
36273W        W 4614   7.297  26.092   0.270
36274W        W 4615  26.606  17.250   1.791
36275W        W 4616  44.395  37.853  10.484
36276W        W 4617  10.178  11.359  11.568
36277W        W 4618  24.511  11.312   0.422
36278W        W 4619  37.372  37.423  11.941
36279W        W 4620   3.873  12.352   0.900
36280W        W 4621  32.121  39.480   2.705
36281W        W 4622   8.359  29.469   2.391
36282W        W 4623   4.301  15.201  13.365
36283W        W 4624   9.271   8.229  11.107
36284W        W 4625  11.705  24.714   1.215
36285W        W 4626   2.358  24.480   2.815
36286W        W 4627  22.738   3.236   2.279
36287W        W 4628  23.187  12.801   4.330
36288W        W 4629   7.879   8.402  14.838
36289W        W 4630  16.679  17.184  11.956
36290W        W 4631  21.052  38.474   2.663
36291W        W 4632  30.088  19.686   3.380
36292W        W 4633  31.490   2.758   0.282
36293W        W 4634  30.524  32.063  13.326
36294W        W 4635  34.878  18.201  11.605
36295W        W 4636  42.800  24.121  12.531
36296W        W 4637  14.212   1.395  12.069
36297W        W 4638  33.501  19.278  10.525
36298W        W 4639  32.954  33.574  12.528
36299W        W 4640  10.672   4.699   4.628
36300W        W 4641  39.931  24.986   2.835
36301W        W 4642  27.592  43.838  10.970
36302W        W 4643  38.997  36.492  12.086
36303W        W 4644  22.659  11.795   1.313
36304W        W 4645  15.198  18.246  14.906
36305W        W 4646  32.554  21.701   4.832
36306W        W 4647  43.996   7.761   1.815
36307W        W 4648  26.968  22.693   1.793
36308W        W 4649  13.818  32.134  11.109
36309W        W 4650  43.283  32.925  12.072
36310W        W 4651  20.103  20.111  13.538
36311W        W 4652  28.461  32.500  14.773
36312W        W 4653  21.615  19.225  10.416
36313W        W 4654  22.608   6.910  10.907
36314W        W 4655  21.717  38.510  13.963
36315W        W 4656  22.573  39.527  12.381
36316W        W 4657   6.833  15.170   3.217
36317W        W 4658  38.425   7.706  12.944
36318W        W 4659  35.035  39.036   4.619
36319W        W 4660   6.898  18.692   0.363
36320W        W 4661  36.352  11.672  12.445
36321W        W 4662  29.627  26.959   3.847
36322W        W 4663  29.948  30.126  13.312
36323W        W 4664  16.223   3.784   0.302
36324W        W 4665  19.542   8.387  10.544
36325W        W 4666  32.913   3.753  14.823
36326W        W 4667  31.135  14.732  12.537
36327W        W 4668   8.679  20.731  11.387
36328W        W 4669  34.381  33.588   1.293
36329W        W 4670  26.667  40.870  12.964
36330W        W 4671  33.128   7.903   4.683
36331W        W 4672   5.260  21.604  13.410
36332W        W 4673  24.063  42.379   4.818
36333W        W 4674   1.390  30.962  11.967
36334W        W 4675   3.285  43.412  13.480
36335W        W 4676  41.041  15.256  13.344
36336W        W 4677   9.689  29.545  10.985
36337W        W 4678  10.705  38.996  10.932
36338W        W 4679   4.784  11.734  11.122
36339W        W 4680  24.101   3.808   3.332
36340W        W 4681  13.277  18.250  11.104
36341W        W 4682  38.905  34.598  13.463
36342W        W 4683  25.964  22.244   1.316
36343W        W 4684  16.301  17.069  14.411
36344W        W 4685  40.861  38.819   0.760
36345W        W 4686  24.551  14.258  11.923
36346W        W 4687  43.874  30.970   2.746
36347W        W 4688  43.507  37.026   3.239
36348W        W 4689  23.701  23.660   3.713
36349W        W 4690  13.745  20.108   0.297
36350W        W 4691  39.991   0.839   2.360
36351W        W 4692  37.910   6.349  14.932
36352W        W 4693  20.594  43.408   3.630
36353W        W 4694  14.146  39.536  13.516
36354W        W 4695  10.812  43.352  11.559
36355W        W 4696   1.397  25.191  13.893
36356W        W 4697   3.366  31.505   4.348
36357W        W 4698  34.022  38.054   2.181
36358W        W 4699   4.252  36.453   4.707
36359W        W 4700  32.600   0.271  12.580
36360W        W 4701  27.068  19.596  10.502
36361W        W 4702   7.862  22.104  10.498
36362W        W 4703  27.667   2.858  12.441
36363W        W 4704  11.322   7.865  12.077
36364W        W 4705  14.762  28.956  11.444
36365W        W 4706   4.701  28.953   4.683
36366W        W 4707  10.659  43.852   0.362
36367W        W 4708  25.710   5.760   4.309
36368W        W 4709  25.539  11.219   2.325
36369W        W 4710   6.714  12.357   0.308
36370W        W 4711  42.283  13.623   4.350
36371W        W 4712  10.802  16.162   4.194
36372W        W 4713   0.394  11.678  13.346
36373W        W 4714   7.315  28.151  14.029
36374W        W 4715  38.490  15.658  13.449
36375W        W 4716  12.296  26.083   3.325
36376W        W 4717  37.578  20.739   1.910
36377W        W 4718  10.793  16.735   4.159
36378W        W 4719  28.516  37.577   2.297
36379W        W 4720  16.293  36.355   4.814
36380W        W 4721  21.256  19.167  13.918
36381W        W 4722  44.854  22.008   3.239
36382W        W 4723   3.868   1.822   0.843
36383W        W 4724  22.698  35.448  14.031
36384W        W 4725  28.477   1.919   4.636
36385W        W 4726  39.809  11.736  11.914
36386W        W 4727   6.343  34.936  14.028
36387W        W 4728   5.277  11.763   4.200
36388W        W 4729  41.507  15.231   2.870
36389W        W 4730  14.816  27.647  11.609
36390W        W 4731  35.882  29.140   1.373
36391W        W 4732  28.138  22.648   5.283
36392W        W 4733  25.053   9.368   4.762
36393W        W 4734  16.598   4.401   2.857
36394W        W 4735   1.467  12.176   1.778
36395W        W 4736  41.449  14.803  10.561
36396W        W 4737  38.876  10.287   4.221
36397W        W 4738  44.286   0.987  10.550
36398W        W 4739  30.957  33.020  12.067
36399W        W 4740   2.822  12.241   1.277
36400W        W 4741  23.988  25.650   3.229
36401W        W 4742   2.869   7.766  11.095
36402W        W 4743  42.518   1.869   2.378
36403W        W 4744  21.126  14.769  10.405
36404W        W 4745  10.374  30.474  10.508
36405W        W 4746  28.132  14.187   2.843
36406W        W 4747  18.224   9.802   4.305
36407W        W 4748  26.673  17.251   0.779
36408W        W 4749   1.733   8.899  11.467
36409W        W 4750  25.009  31.631  10.561
36410W        W 4751  36.059  25.584   4.262
36411W        W 4752  19.188   8.739  13.016
36412W        W 4753  36.942   5.759   1.231
36413W        W 4754  38.030  19.153  11.935
36414W        W 4755   8.185  26.592   0.281
36415W        W 4756   4.336   4.794  13.488
36416W        W 4757  43.887  21.062  12.509
36417W        W 4758   6.915  17.572  11.088
36418W        W 4759  33.911  22.503  13.473
36419W        W 4760  44.420   5.308  10.963
36420W        W 4761  12.147  35.017   4.663
36421W        W 4762  14.679  24.112  14.861
36422W        W 4763  10.217  30.497   9.989
36423W        W 4764  33.582   2.466   2.324
36424W        W 4765  20.177   9.154   2.237
36425W        W 4766  15.145  19.664  12.415
36426W        W 4767  13.130  12.729   5.107
36427W        W 4768  43.353   8.676  10.964
36428W        W 4769  36.449  20.266  10.485
36429W        W 4770  13.637  39.432  12.506
36430W        W 4771  24.629  19.592  11.536
36431W        W 4772  40.421   1.916  13.010
36432W        W 4773  27.089  30.530   2.200
36433W        W 4774  14.260   7.348  11.038
36434W        W 4775  11.324  14.791  12.456
36435W        W 4776  41.353  24.140   2.231
36436W        W 4777  41.292  27.491  10.579
36437W        W 4778  27.466   7.183  13.463
36438W        W 4779  32.915  40.933   0.298
36439W        W 4780   9.224   9.844   0.772
36440W        W 4781  42.796  43.885  13.906
36441W        W 4782  33.510  34.024  10.968
36442W        W 4783  28.456  14.202   4.185
36443W        W 4784  37.892  33.087  12.043
36444W        W 4785  15.721  17.776   2.852
36445W        W 4786  29.663   0.939   1.843
36446W        W 4787  24.653  33.590   1.928
36447W        W 4788  26.584  13.658  10.619
36448W        W 4789  27.107  15.697   3.646
36449W        W 4790   3.401  24.600   4.796
36450W        W 4791   0.371  23.054  11.938
36451W        W 4792  43.826   3.409   3.756
36452W        W 4793  23.509  17.575  11.969
36453W        W 4794  15.616   7.891   2.831
36454W        W 4795  35.025  27.962  10.900
36455W        W 4796  25.185  34.988   5.241
36456W        W 4797  36.529  33.483  13.491
36457W        W 4798  38.872  22.098  12.366
36458W        W 4799   6.273  26.013   0.410
36459W        W 4800  20.706  36.538   2.780
36460W        W 4801  29.588   6.203  11.553
36461W        W 4802  43.490   4.321   2.313
36462W        W 4803  17.257  21.181   4.169
36463W        W 4804  43.925  26.952   3.281
36464W        W 4805  34.875   0.347   2.286
36465W        W 4806  17.712  38.444  12.988
36466W        W 4807  24.721  20.635  14.378
36467W        W 4808  44.977  22.075   3.825
36468W        W 4809  24.007  14.683  11.998
36469W        W 4810  42.342   8.189  12.489
36470W        W 4811  28.617  23.642   1.913
36471W        W 4812  36.030   4.813  13.903
36472W        W 4813  15.288  31.134   4.275
36473W        W 4814  26.578   2.807  14.027
36474W        W 4815  41.950  41.966  11.485
36475W        W 4816   6.866  20.677  13.926
36476W        W 4817  12.210  34.045  10.518
36477W        W 4818   6.676  17.137  14.934
36478W        W 4819  16.231  18.565  13.369
36479W        W 4820   5.396  29.558   3.859
36480W        W 4821  12.844  39.331  13.471
36481W        W 4822  26.046  23.533  10.517
36482W        W 4823  38.873  21.615  13.860
36483W        W 4824  12.691  14.264  13.439
36484W        W 4825  30.916  28.936   3.316
36485W        W 4826  10.347   4.893   0.950
36486W        W 4827  34.084  23.507  11.121
36487W        W 4828   5.779  14.153  12.011
36488W        W 4829  36.951  43.474   2.300
36489W        W 4830  44.328  26.496  10.465
36490W        W 4831  43.766  31.574   4.619
36491W        W 4832  36.843  20.043   3.674
36492W        W 4833   1.459   7.799   1.695
36493W        W 4834  44.346  12.165   3.748
36494W        W 4835   0.788   9.732   3.190
36495W        W 4836  36.448  21.112  10.534
36496W        W 4837  40.018  26.661  11.045
36497W        W 4838  12.677  33.526   2.848
36498W        W 4839  34.428  35.557  12.969
36499W        W 4840   4.344  14.711   3.730
36500W        W 4841  14.172  18.745   2.740
36501W        W 4842  35.430   5.875   1.705
36502W        W 4843  40.928  25.521   0.910
36503W        W 4844  10.778   8.219  14.009
36504W        W 4845  19.681  13.750   3.226
36505W        W 4846  27.064   3.710  11.563
36506W        W 4847  36.855   1.342  13.527
36507W        W 4848  22.732   6.240   4.228
36508W        W 4849  27.983   3.455   1.897
36509W        W 4850   6.815  19.544   1.781
36510W        W 4851  16.279   9.655   2.903
36511W        W 4852  38.864  44.427   3.152
36512W        W 4853  29.480  10.316  10.911
36513W        W 4854  37.009  29.165  13.859
36514W        W 4855  38.944   3.831   4.213
36515W        W 4856  38.862  36.085  13.859
36516W        W 4857   6.706  30.468   4.207
36517W        W 4858  17.296   9.191   1.267
36518W        W 4859   9.186   8.706  14.371
36519W        W 4860  40.534  13.332   2.190
36520W        W 4861  18.083  34.484   0.384
36521W        W 4862  37.006  29.522  12.949
36522W        W 4863  17.121  29.568  10.959
36523W        W 4864  14.299   6.785  14.927
36524W        W 4865  36.922  29.543  12.408
36525W        W 4866  35.449  43.397   4.611
36526W        W 4867  40.990  39.505   1.274
36527W        W 4868   2.791  17.259  12.856
36528W        W 4869  21.543  39.456   3.634
36529W        W 4870  35.869  11.748   1.289
36530W        W 4871  15.189  22.554  10.032
36531W        W 4872  21.713  11.163  12.011
36532W        W 4873  36.959  13.823  12.950
36533W        W 4874  19.632   8.869   2.329
36534W        W 4875  10.690   9.780   0.397
36535W        W 4876  22.645  27.676   1.789
36536W        W 4877  21.634  11.631   0.291
36537W        W 4878  15.673  42.924   1.306
36538W        W 4879  37.443  25.491   3.639
36539W        W 4880  39.549   6.817  13.997
36540W        W 4881   1.905  32.045   4.213
36541W        W 4882  26.072  35.919  13.880
36542W        W 4883  17.678  15.701   0.406
36543W        W 4884  33.434  40.931   1.409
36544W        W 4885   7.202   8.666   0.923
36545W        W 4886  40.402  39.996  13.822
36546W        W 4887  14.254  36.910   3.843
36547W        W 4888  36.941  28.439   1.926
36548W        W 4889  43.823   9.758   2.779
36549W        W 4890  41.975  32.539   3.751
36550W        W 4891   6.362   3.359   0.332
36551W        W 4892  38.532   7.836   4.617
36552W        W 4893  33.035  13.738  11.036
36553W        W 4894  26.193  28.937   3.696
36554W        W 4895  33.561  11.844   2.195
36555W        W 4896  33.499  37.576   3.660
36556W        W 4897  34.494   5.243   3.727
36557W        W 4898  43.778  15.760  11.989
36558W        W 4899  26.955  39.847   1.439
36559W        W 4900  44.470  17.076   2.785
36560W        W 4901  35.386  17.655   1.787
36561W        W 4902  21.154  39.352   2.336
36562W        W 4903   8.780  18.612  14.790
36563W        W 4904   4.876  25.712  13.878
36564W        W 4905   8.683   1.809   2.335
36565W        W 4906  21.249   6.711   1.741
36566W        W 4907  39.335   8.899  11.402
36567W        W 4908  27.691   7.368  11.565
36568W        W 4909   9.745  36.567   2.411
36569W        W 4910  33.032  25.704  10.487
36570W        W 4911  33.993   1.731  14.805
36571W        W 4912  24.705  23.514   2.760
36572W        W 4913   9.737   5.904   0.373
36573W        W 4914  35.383  42.941   4.161
36574W        W 4915  42.361  31.485  13.400
36575W        W 4916  20.231  19.760  10.937
36576W        W 4917   2.761  33.447  12.878
36577W        W 4918  24.078  36.472   0.380
36578W        W 4919  22.623   4.298  14.831
36579W        W 4920  13.680  43.290  11.095
36580W        W 4921  14.279  41.321  10.888
36581W        W 4922  38.466  15.809  12.449
36582W        W 4923  10.142  39.831  10.099
36583W        W 4924  35.075  22.632  10.150
36584W        W 4925  30.630  43.959   3.830
36585W        W 4926  11.261  14.310   3.845
36586W        W 4927   9.199  10.714  10.404
36587W        W 4928  17.094   3.392   0.292
36588W        W 4929  22.175  13.168  14.867
36589W        W 4930  10.677   9.198  11.578
36590W        W 4931  23.227  41.984  11.916
36591W        W 4932  30.931  12.628   3.318
36592W        W 4933  16.258   0.273   2.729
36593W        W 4934  22.507  12.757  13.891
36594W        W 4935  15.208   8.809   4.344
36595W        W 4936  36.032  36.912   4.137
36596W        W 4937  18.126  12.348  14.455
36597W        W 4938   8.793  38.062   4.818
36598W        W 4939  13.840  34.907  14.355
36599W        W 4940  39.457   3.420  14.383
36600W        W 4941  44.404  36.917  12.843
36601W        W 4942  17.576  44.336   2.822
36602W        W 4943  34.037  23.004   1.415
36603W        W 4944  15.816   6.305  14.972
36604W        W 4945   2.953  25.085   2.887
36605W        W 4946  15.165  39.398  14.006
36606W        W 4947   5.870   8.257   4.228
36607W        W 4948  21.602   7.363  13.539
36608W        W 4949  27.560   2.884   1.822
36609W        W 4950  43.847  19.594   2.822
36610W        W 4951  26.537  10.815   0.733
36611W        W 4952   8.878  13.329  10.435
36612W        W 4953  20.239  44.316   3.801
36613W        W 4954  20.695  31.054   3.649
36614W        W 4955  26.076   7.693   2.731
36615W        W 4956  15.091  40.443  14.303
36616W        W 4957   1.245  19.715   4.232
36617W        W 4958   5.393  42.519   3.281
36618W        W 4959  22.508  41.425   9.996
36619W        W 4960  31.471  25.556  12.365
36620W        W 4961  23.578  10.758  14.498
36621W        W 4962  18.548  33.983  11.605
36622W        W 4963  40.818  37.546   0.263
36623W        W 4964  24.212  17.117   1.797
36624W        W 4965  14.337  28.084   3.286
36625W        W 4966   6.917  13.331   1.223
36626W        W 4967   0.882  24.509  13.543
36627W        W 4968   6.397  26.097  11.509
36628W        W 4969   5.897  35.550  11.901
36629W        W 4970   2.469  40.415  11.437
36630W        W 4971  40.490  34.463   1.242
36631W        W 4972  37.907  42.022   4.176
36632W        W 4973  20.246  39.908   9.960
36633W        W 4974  36.901  15.779  10.408
36634W        W 4975  21.715  23.673  11.419
36635W        W 4976  13.207  15.195  11.431
36636W        W 4977  39.508   1.873   2.736
36637W        W 4978  30.481  22.111   0.734
36638W        W 4979  43.829   8.816   3.817
36639W        W 4980  12.731  37.969  11.062
36640W        W 4981  41.500  29.075  13.889
36641W        W 4982  18.241  21.226  12.999
36642W        W 4983  44.820  38.356  10.602
36643W        W 4984  31.565  18.663  12.929
36644W        W 4985  14.772  39.813  11.922
36645W        W 4986   1.239  26.666   1.444
36646W        W 4987  43.992  41.858  12.545
36647W        W 4988  36.036   7.722  14.833
36648W        W 4989  44.485  23.705  10.070
36649W        W 4990  24.584  34.483   4.262
36650W        W 4991   2.875  37.405   3.380
36651W        W 4992  38.822  17.222   0.385
36652W        W 4993  35.057  25.999  10.575
36653W        W 4994  34.448   6.377   0.389
36654W        W 4995  17.641   9.211   0.364
36655W        W 4996  21.525   0.374   0.778
36656W        W 4997  12.299  37.847  11.902
36657W        W 4998   8.201  13.136  13.927
36658W        W 4999   2.347   9.751   3.645
36659W        W 5000  29.529  43.476  10.964
36660W        W 5001   8.404   0.357   0.932
36661W        W 5002   2.772  15.229   0.830
36662W        W 5003   9.270   6.231   1.411
36663W        W 5004  12.237  20.036   0.863
36664W        W 5005   3.239  17.736   4.295
36665W        W 5006  15.131  41.859   2.264
36666W        W 5007  34.929  13.633  14.856
36667W        W 5008  12.229  11.716   5.125
36668W        W 5009  37.978  19.177   0.400
36669W        W 5010  21.643  41.884   2.685
36670W        W 5011  22.046   4.899   0.905
36671W        W 5012  40.887  36.996  13.979
36672W        W 5013  41.328   2.407  14.291
36673W        W 5014   4.918  19.050   2.231
36674W        W 5015  19.664   2.888   3.811
36675W        W 5016   3.325  18.065  14.958
36676W        W 5017  14.157  32.044   2.213
36677W        W 5018  14.745   0.857  12.985
36678W        W 5019  29.597   8.201  11.420
36679W        W 5020  17.683  11.329   1.790
36680W        W 5021  44.280  13.670   4.234
36681W        W 5022   3.431  11.256  14.901
36682W        W 5023  18.250  11.709  11.441
36683W        W 5024   2.465   1.796   3.794
36684W        W 5025   3.776  27.541   1.339
36685W        W 5026  25.035   3.296  11.522
36686W        W 5027   0.379  41.794  14.412
36687W        W 5028  30.628  22.173   1.261
36688W        W 5029  20.206  41.533  10.947
36689W        W 5030  17.187  15.290  13.927
36690W        W 5031  20.053  36.428   3.171
36691W        W 5032  33.068   9.325   0.400
36692W        W 5033  29.602  14.666   0.922
36693W        W 5034  20.274  28.948   0.759
36694W        W 5035   2.849   1.945  12.551
36695W        W 5036  42.311  14.258   0.814
36696W        W 5037   0.373   1.256  11.923
36697W        W 5038  35.560  26.010   0.294
36698W        W 5039  30.112  44.457   1.266
36699W        W 5040   5.433  21.092  12.373
36700W        W 5041  13.680  34.402  13.964
36701W        W 5042  40.012   3.420  14.434
36702W        W 5043  38.907   7.364  10.075
36703W        W 5044  25.475  35.937  14.306
36704W        W 5045   7.857  41.362   3.776
36705W        W 5046  18.146  11.721   0.949
36706W        W 5047  33.590   8.891   0.960
36707W        W 5048  36.538  37.515   2.355
36708W        W 5049   3.315  18.127  12.048
36709W        W 5050  33.571  10.639   4.599
36710W        W 5051  37.856  42.461   1.750
36711W        W 5052  11.763   8.859   0.272
36712W        W 5053  19.694  13.107  12.988
36713W        W 5054  22.568  34.511  12.559
36714W        W 5055  37.504  26.621  12.051
36715W        W 5056  41.490  31.045   2.194
36716W        W 5057  11.708   0.798   0.311
36717W        W 5058  33.396  40.328  11.426
36718W        W 5059  23.525  15.297  10.918
36719W        W 5060   5.329   6.711  14.975
36720W        W 5061  24.677  21.210  14.822
36721W        W 5062  21.051  15.321   4.183
36722W        W 5063  13.287  10.348   4.148
36723W        W 5064  10.320  16.078  14.892
36724W        W 5065   2.227  15.798   2.762
36725W        W 5066  38.908  10.211  10.066
36726W        W 5067  24.123  28.995  12.945
36727W        W 5068  24.718  35.896   4.201
36728W        W 5069  21.556  37.850  14.766
36729W        W 5070  36.946   6.766   0.437
36730W        W 5071  14.742  27.650   4.328
36731W        W 5072  20.619  23.182  14.275
36732W        W 5073   8.404  14.829   0.854
36733W        W 5074  35.912  22.075   1.306
36734W        W 5075  39.882  28.038  12.942
36735W        W 5076  10.676  40.940   3.660
36736W        W 5077  21.598   1.426   0.796
36737W        W 5078  31.528   6.814  11.110
36738W        W 5079  40.352  38.478  14.409
36739W        W 5080  17.207  40.976   1.293
36740W        W 5081  20.144  19.709   1.928
36741W        W 5082  11.653  36.399   1.329
36742W        W 5083   1.899  34.913   2.369
36743W        W 5084  19.674   2.832   4.691
36744W        W 5085  28.659  28.037  13.952
36745W        W 5086  26.957  43.377  10.524
36746W        W 5087  17.790  24.094  12.522
36747W        W 5088  30.489  37.849   3.828
36748W        W 5089  17.061  19.124   1.826
36749W        W 5090   0.870   1.832  10.523
36750W        W 5091   7.890  22.012   0.749
36751W        W 5092  39.970  29.423   1.252
36752W        W 5093  26.474  30.644   0.786
36753W        W 5094   0.276  13.120   0.925
36754W        W 5095  28.981  17.604   1.825
36755W        W 5096  22.552  18.724   3.361
36756W        W 5097  13.759  19.052   4.785
36757W        W 5098  17.148  37.029  10.414
36758W        W 5099   5.201  32.894   4.221
36759W        W 5100  42.320  33.966   2.213
36760W        W 5101  26.189   0.295   3.379
36761W        W 5102  38.840  27.537  13.921
36762W        W 5103  33.112  20.537  14.515
36763W        W 5104  11.697  16.670  10.096
36764W        W 5105  36.520   8.369   0.920
36765W        W 5106  18.691   5.801  13.358
36766W        W 5107  21.627  36.084  10.504
36767W        W 5108  28.609  21.067   2.259
36768W        W 5109  20.070   8.740  13.817
36769W        W 5110  22.559  32.142  11.017
36770W        W 5111   6.747  13.826  14.954
36771W        W 5112  13.626  37.563   0.815
36772W        W 5113  24.204  28.542   4.802
36773W        W 5114   1.248  18.610  11.413
36774W        W 5115   7.235  26.513  10.898
36775W        W 5116  24.201  29.548  13.313
36776W        W 5117  34.877  39.032   3.223
36777W        W 5118  43.855  14.101   1.275
36778W        W 5119  22.508  29.557   4.234
36779W        W 5120   2.960  20.524   3.761
36780W        W 5121  36.471   0.951   2.287
36781W        W 5122   8.733  40.921  11.976
36782W        W 5123   1.818   6.263  10.931
36783W        W 5124  27.141  24.021  10.888
36784W        W 5125  12.181   0.820   2.208
36785W        W 5126  32.452  31.099  11.015
36786W        W 5127   9.161   0.841  11.861
36787W        W 5128  28.441  19.542   3.680
36788W        W 5129   0.292  40.954  10.569
36789W        W 5130  14.212  32.939   2.372
36790W        W 5131  34.944  16.297   4.710
36791W        W 5132  42.028  34.563  13.941
36792W        W 5133  13.142  13.329  11.537
36793W        W 5134  38.947  40.888  11.109
36794W        W 5135  27.505  20.768   3.165
36795W        W 5136  22.504  12.266   2.874
36796W        W 5137  43.974  17.626   4.694
36797W        W 5138  13.685  30.031  13.429
36798W        W 5139   6.273   4.324   4.663
36799W        W 5140  13.610  29.037   3.364
36800W        W 5141  33.479  16.742   2.823
36801W        W 5142  19.751   3.803   3.202
36802W        W 5143  39.400   0.489  12.983
36803W        W 5144   6.903  32.962   3.188
36804W        W 5145  27.692   1.950  11.037
36805W        W 5146  10.644  32.913  12.457
36806W        W 5147  11.836  35.589  14.974
36807W        W 5148   7.678  31.647  14.761
36808W        W 5149  29.554   9.708   4.335
36809W        W 5150   9.750  26.082   3.723
36810W        W 5151  33.047  19.768   1.261
36811W        W 5152  10.341   4.444   1.333
36812W        W 5153  22.600   9.395   1.400
36813W        W 5154  23.612   6.186   3.363
36814W        W 5155  20.643  30.087   0.467
36815W        W 5156   9.690  15.101  10.491
36816W        W 5157  44.341  33.511  10.936
36817W        W 5158  13.817  36.435   4.338
36818W        W 5159   5.368  34.370   4.330
36819W        W 5160  31.431  30.983   2.789
36820W        W 5161  28.983   8.286   1.848
36821W        W 5162  16.671  28.546  14.994
36822W        W 5163  43.340  19.634  10.430
36823W        W 5164  24.118  20.225   3.829
36824W        W 5165  38.847   5.209  12.521
36825W        W 5166  26.495  13.786   0.825
36826W        W 5167  42.399  11.685   0.298
36827W        W 5168  11.732  12.811  13.349
36828W        W 5169  34.408  23.207  10.413
36829W        W 5170  21.658  16.787   0.352
36830W        W 5171  37.404   4.204  13.007
36831W        W 5172  34.502  16.757  11.979
36832W        W 5173  32.460  38.930   4.806
36833W        W 5174  41.337  15.219  13.968
36834W        W 5175  18.150  34.958  11.073
36835W        W 5176  33.587  41.877  14.786
36836W        W 5177   9.190  14.698  13.885
36837W        W 5178  25.195  13.270  13.969
36838W        W 5179   2.887  39.373   2.271
36839W        W 5180   5.732  19.624   2.311
36840W        W 5181  40.376   6.366  14.761
36841W        W 5182  39.956  32.116   2.289
36842W        W 5183  30.108  26.951   1.750
36843W        W 5184   7.346  24.977  14.475
36844W        W 5185  44.292   2.883   3.179
36845W        W 5186   4.290  23.697  10.917
36846W        W 5187  43.004   4.330   3.716
36847W        W 5188  11.766  43.349  11.007
36848W        W 5189  14.592  27.523   2.402
36849W        W 5190  43.871  20.607  12.969
36850W        W 5191   8.198  43.511   3.293
36851W        W 5192  35.603  10.146  13.485
36852W        W 5193  10.731  41.318   3.687
36853W        W 5194  37.396   5.343  12.835
36854W        W 5195  30.914  27.679   2.180
36855W        W 5196  36.571  23.594   1.745
36856W        W 5197  33.423  10.679   1.760
36857W        W 5198  20.236  22.142  10.967
36858W        W 5199  13.157  24.221  11.873
36859W        W 5200   5.244  27.600   3.831
36860W        W 5201  15.174  23.604   0.771
36861W        W 5202  27.991  31.065   1.223
36862W        W 5203  31.960   0.825   0.383
36863W        W 5204  12.669  40.422  11.487
36864W        W 5205  31.911   0.787   3.849
36865W        W 5206  33.469  39.545  12.072
36866W        W 5207  27.516  38.566   4.124
36867W        W 5208  15.196  36.007   0.888
36868W        W 5209  33.955  13.198  11.124
36869W        W 5210  11.754  19.717  13.488
36870W        W 5211  40.999  18.152  13.973
36871W        W 5212  23.700  22.687   0.958
36872W        W 5213  25.697   6.910  13.975
36873W        W 5214  41.946  37.419  11.035
36874W        W 5215  15.216   7.244  10.933
36875W        W 5216  19.045   0.783  14.785
36876W        W 5217  29.477  37.340   0.325
36877W        W 5218   5.346  34.903  10.932
36878W        W 5219  35.516  42.983   0.327
36879W        W 5220   6.419  15.680  11.076
36880W        W 5221  38.925  30.058   0.869
36881W        W 5222  20.760   4.419   0.387
36882W        W 5223  30.526  44.357  11.442
36883W        W 5224  43.491  31.468  11.013
36884W        W 5225  30.654  22.634   0.446
36885W        W 5226  37.853   1.731   5.210
36886W        W 5227  28.953  40.980   3.706
36887W        W 5228  23.726  13.138   0.799
36888W        W 5229  38.851  41.869  12.387
36889W        W 5230   1.320  34.532  13.420
36890W        W 5231   6.729  19.708  12.862
36891W        W 5232   9.293  25.682   0.266
36892W        W 5233  16.141   5.413  12.449
36893W        W 5234   8.246  18.791  10.408
36894W        W 5235  35.476  40.435  13.994
36895W        W 5236  40.431  12.299   3.217
36896W        W 5237  34.035  28.641   3.637
36897W        W 5238  26.059  24.186  12.824
36898W        W 5239  44.399   1.749   4.231
36899W        W 5240   1.815  24.984   1.841
36900W        W 5241  12.849  21.242  14.476
36901W        W 5242  31.999   5.912  11.032
36902W        W 5243   8.253  30.513  13.426
36903W        W 5244  34.531  40.955   4.194
36904W        W 5245  25.504  29.589  11.547
36905W        W 5246  14.659  36.373  13.056
36906W        W 5247  10.155  21.169  13.035
36907W        W 5248  28.554  43.467  13.844
36908W        W 5249  23.621  30.558   4.623
36909W        W 5250   1.353   2.942   2.207
36910W        W 5251   8.243  32.529   3.840
36911W        W 5252   2.319  41.911   1.358
36912W        W 5253   8.381  43.925  12.523
36913W        W 5254  39.553  10.699   2.882
36914W        W 5255  27.169  43.340   2.776
36915W        W 5256  18.588   7.798  12.857
36916W        W 5257  15.755  34.868   0.298
36917W        W 5258  16.570  11.830   0.283
36918W        W 5259   0.858  24.000   3.182
36919W        W 5260  32.536  39.538  11.078
36920W        W 5261   8.672   1.259  12.371
36921W        W 5262  40.399   4.442  11.548
36922W        W 5263  15.208  29.073  11.901
36923W        W 5264   8.367   3.713  14.372
36924W        W 5265  21.109   0.333   4.772
36925W        W 5266  38.862  11.621  14.507
36926W        W 5267   2.848  32.127  12.862
36927W        W 5268  17.651  18.260  10.453
36928W        W 5269  27.644  32.436   2.760
36929W        W 5270  13.813   2.241  14.923
36930W        W 5271   0.751  29.924  11.001
36931W        W 5272   0.858  33.434  11.371
36932W        W 5273  10.795  24.657   4.146
36933W        W 5274   7.738  37.430   3.801
36934W        W 5275  41.367  26.165  14.351
36935W        W 5276  24.190   7.708  14.331
36936W        W 5277  27.173  11.207  14.895
36937W        W 5278   0.951   9.753  12.039
36938W        W 5279   4.352  18.185  14.880
36939W        W 5280   8.746  40.369   4.151
36940W        W 5281  41.461  36.421  10.894
36941W        W 5282  29.089   8.214   3.157
36942W        W 5283  17.089  31.499   4.194
36943W        W 5284   5.308  16.298   2.248
36944W        W 5285  26.558  13.316   1.238
36945W        W 5286  29.481   2.828   0.830
36946W        W 5287  22.634   7.671   1.873
36947W        W 5288   5.837  38.838  14.964
36948W        W 5289  25.187  33.000   2.750
36949W        W 5290   8.840  38.866   4.145
36950W        W 5291  22.098   9.719   2.778
36951W        W 5292  43.886  24.128  12.846
36952W        W 5293  11.864  26.637  11.585
36953W        W 5294   2.937  29.462  12.421
36954W        W 5295  19.607  24.159   1.832
36955W        W 5296  23.220  30.520  13.888
36956W        W 5297  16.762  38.037   3.199
36957W        W 5298  20.649   3.252   0.923
36958W        W 5299  28.553   6.231   0.253
36959W        W 5300  15.690  44.316   3.849
36960W        W 5301  17.746  41.841  14.453
36961W        W 5302   1.843  36.581  14.508
36962W        W 5303   7.895  35.046   4.737
36963W        W 5304  25.486  17.174  11.546
36964W        W 5305  43.771  23.125  13.438
36965W        W 5306  20.623  41.317   2.770
36966W        W 5307  37.086  15.786   2.222
36967W        W 5308  28.077  32.538   3.728
36968W        W 5309  36.527  39.029  11.591
36969W        W 5310  28.632   5.876  12.861
36970W        W 5311   7.740   8.229  12.031
36971W        W 5312   5.415  15.660   2.890
36972W        W 5313  17.651  14.193  10.525
36973W        W 5314  26.616   2.424   3.223
36974W        W 5315  31.414  36.015   3.761
36975W        W 5316  19.681  15.579   1.752
36976W        W 5317   8.242  36.040  13.816
36977W        W 5318  25.477  32.984  14.879
36978W        W 5319  23.563  11.709   4.142
36979W        W 5320   5.254  41.871  11.550
36980W        W 5321  42.366  27.605  12.850
36981W        W 5322  42.964   3.408  10.589
36982W        W 5323  35.471  29.990   4.815
36983W        W 5324   7.398  37.496  13.980
36984W        W 5325  38.069   5.204  14.300
36985W        W 5326  20.623  27.038   3.290
36986W        W 5327  42.301  13.254   1.365
36987W        W 5328  10.769  41.837   1.250
36988W        W 5329   1.763   3.833   1.899
36989W        W 5330  36.384  28.545  11.092
36990W        W 5331   7.907  32.024  13.462
36991W        W 5332  13.257   9.221   1.814
36992W        W 5333  36.357   7.680   5.158
36993W        W 5334  39.947   9.316  12.941
36994W        W 5335  43.303  16.229   3.695
36995W        W 5336  12.293  39.434  14.975
36996W        W 5337  34.989  28.467   0.367
36997W        W 5338   9.340   5.340   4.192
36998W        W 5339   8.737  18.055  12.912
36999W        W 5340  38.341  20.634  11.444
37000W        W 5341  24.559   8.333   3.821
37001W        W 5342  40.875  20.681  11.957
37002W        W 5343  11.193  39.058  13.916
37003W        W 5344  32.895  30.565   1.246
37004W        W 5345  12.789  18.168   3.865
37005W        W 5346  35.861  38.489  10.505
37006W        W 5347  16.249  25.612  12.344
37007W        W 5348  17.273  34.542  11.571
37008W        W 5349   9.851   9.654   1.721
37009W        W 5350  18.211  31.600  13.942
37010W        W 5351  20.259   5.689  10.911
37011W        W 5352  31.132   9.323  11.494
37012W        W 5353  36.848  38.387  11.564
37013W        W 5354  13.711  37.935   5.729
37014W        W 5355   2.290  38.483  11.123
37015W        W 5356  19.590  34.872   5.164
37016W        W 5357   2.732   9.331  10.528
37017W        W 5358   0.983  32.519  14.455
37018W        W 5359  11.157  21.602  11.908
37019W        W 5360  10.671  25.560  13.918
37020W        W 5361  13.165  11.779   0.434
37021W        W 5362   5.383   2.820  13.991
37022W        W 5363   3.714   5.923   4.199
37023W        W 5364  13.138   3.425  13.884
37024W        W 5365   7.204  41.462  12.983
37025W        W 5366  12.199  30.467   3.195
37026W        W 5367  13.701   7.258   0.848
37027W        W 5368   4.764   4.251   3.307
37028W        W 5369  19.226  18.619   3.328
37029W        W 5370  42.971  24.487  14.997
37030W        W 5371  29.431  42.485  10.568
37031W        W 5372  19.280  35.909  12.476
37032W        W 5373  26.062  29.639  11.118
37033W        W 5374   1.945  26.004  14.366
37034W        W 5375  23.604  29.096  14.935
37035W        W 5376  10.274  14.800  11.451
37036W        W 5377   2.747  29.112   0.443
37037W        W 5378  23.584   6.913  12.866
37038W        W 5379  11.342  18.637  14.382
37039W        W 5380   3.784  20.219  11.927
37040W        W 5381  35.482  13.242  12.457
37041W        W 5382  25.003  33.057   1.695
37042W        W 5383  30.433   3.357   2.419
37043W        W 5384  26.465  20.684  10.996
37044W        W 5385  34.873  13.602   3.808
37045W        W 5386   1.766  40.424   3.146
37046W        W 5387  34.875  28.094   0.443
37047W        W 5388  40.977   0.362   4.174
37048W        W 5389  35.866   2.375   2.185
37049W        W 5390  35.096   0.766   5.239
37050W        W 5391   1.312  30.482  11.080
37051W        W 5392   3.917   2.875  12.000
37052W        W 5393  44.997  13.680  10.449
37053W        W 5394  15.753  38.962  11.000
37054W        W 5395  19.620   9.171  11.472
37055W        W 5396  10.674  38.445  11.883
37056W        W 5397  32.422  17.760  14.431
37057W        W 5398  25.611  31.645  10.498
37058W        W 5399   2.275  21.728  14.447
37059W        W 5400  34.054  14.803  11.882
37060W        W 5401  32.082   5.321  10.620
37061W        W 5402  35.004   5.806   2.190
37062W        W 5403  20.644   5.343  12.060
37063W        W 5404  15.586  32.553  13.803
37064W        W 5405  40.465  18.083  11.460
37065W        W 5406   5.390  34.971   1.779
37066W        W 5407  27.660  28.518   4.839
37067W        W 5408  10.356  27.458   4.292
37068W        W 5409  40.843  29.943  14.839
37069W        W 5410  21.513  18.556   1.852
37070W        W 5411  36.394  20.641  11.861
37071W        W 5412  17.182  13.835   0.291
37072W        W 5413  42.933  42.804  13.008
37073W        W 5414  43.489  37.001  14.468
37074W        W 5415  21.640  28.621  14.969
37075W        W 5416  21.159  28.531  10.928
37076W        W 5417  41.788   2.841  13.063
37077W        W 5418  15.243  21.522  12.938
37078W        W 5419  29.164   9.670  11.988
37079W        W 5420   3.358  22.605   3.668
37080W        W 5421  27.986  27.080  10.120
37081W        W 5422  35.388  35.090  12.036
37082W        W 5423  19.603  16.105   0.301
37083W        W 5424  40.812  29.089  11.410
37084W        W 5425  42.933  38.358   4.626
37085W        W 5426  33.947  41.869  10.044
37086W        W 5427  12.167  31.444  13.363
37087W        W 5428   4.857  40.465   5.250
37088W        W 5429   2.374  18.081  14.009
37089W        W 5430  21.083  41.923  10.546
37090W        W 5431  29.008  44.385   2.773
37091W        W 5432  40.950   6.729  13.959
37092W        W 5433  20.273  35.059  11.558
37093W        W 5434  16.266  44.261  11.418
37094W        W 5435  17.237  10.362  11.857
37095W        W 5436   2.872   6.859  12.486
37096W        W 5437   1.798   9.395   4.213
37097W        W 5438  10.771  44.765   1.252
37098W        W 5439   9.391   8.173  11.951
37099W        W 5440  24.706  33.478  12.579
37100W        W 5441  23.180   0.455   4.645
37101W        W 5442  39.900   8.793  13.813
37102W        W 5443  20.659  21.158  13.016
37103W        W 5444   6.715  16.113  11.420
37104W        W 5445  28.606  43.837   3.266
37105W        W 5446   6.233  22.729  13.404
37106W        W 5447  33.963  10.330  12.492
37107W        W 5448  42.438   9.285   3.309
37108W        W 5449  32.529   5.281   0.433
37109W        W 5450   1.251  41.372   3.723
37110W        W 5451  44.485  18.110  13.484
37111W        W 5452  36.494  15.137  10.453
37112W        W 5453  34.983  15.732   4.231
37113W        W 5454  43.329   0.854  10.114
37114W        W 5455  23.636  15.724   4.780
37115W        W 5456  27.061   0.864  10.529
37116W        W 5457  14.281  23.108   2.684
37117W        W 5458  26.640  11.197  13.044
37118W        W 5459  42.804  37.931   0.876
37119W        W 5460  17.070  29.060  12.484
37120W        W 5461   7.274  31.514  14.841
37121W        W 5462  31.104  15.686   2.830
37122W        W 5463  22.156  19.715   3.200
37123W        W 5464  11.845   6.254   0.419
37124W        W 5465   0.255  10.668   3.164
37125W        W 5466   6.234  15.793  14.281
37126W        W 5467   9.304  26.188  13.426
37127W        W 5468  35.575   2.467   1.814
37128W        W 5469  34.077  22.597  10.584
37129W        W 5470  35.103   0.254  14.367
37130W        W 5471   7.695  25.100   3.755
37131W        W 5472  43.456  37.561   0.332
37132W        W 5473   4.247  34.104  11.085
37133W        W 5474  27.066  17.636  10.946
37134W        W 5475  34.102  37.914  10.572
37135W        W 5476  16.783   1.813   2.847
37136W        W 5477  19.533  34.992  12.472
37137W        W 5478  23.017  38.893   3.648
37138W        W 5479  17.303  35.868  14.846
37139W        W 5480  30.464  16.715  13.395
37140W        W 5481   9.184  27.599   4.721
37141W        W 5482  31.545  41.829   4.781
37142W        W 5483  30.140  29.121  12.936
37143W        W 5484  29.648   9.842  10.439
37144W        W 5485   3.780   0.922   2.212
37145W        W 5486  24.035  29.518  14.990
37146W        W 5487  18.589  24.598  12.951
37147W        W 5488  15.692  21.640  12.044
37148W        W 5489  13.181  22.130  11.601
37149W        W 5490   5.416  22.746   3.682
37150W        W 5491  35.450  39.475   2.259
37151W        W 5492  36.017  33.912  14.514
37152W        W 5493  26.656   3.905   3.703
37153W        W 5494   4.447   8.172   0.844
37154W        W 5495   0.286   6.199  11.068
37155W        W 5496  42.487  43.793  14.938
37156W        W 5497   6.245  40.389   4.159
37157W        W 5498  32.964  14.732   2.394
37158W        W 5499   4.372  22.067   3.356
37159W        W 5500  15.106  26.063  12.969
37160W        W 5501  26.488  38.028   2.384
37161W        W 5502   0.288  29.920  11.861
37162W        W 5503  25.084  44.477  13.838
37163W        W 5504  24.640  18.241  12.912
37164W        W 5505  24.219   5.731  11.503
37165W        W 5506  29.579  24.172  14.861
37166W        W 5507  18.583  19.210   4.348
37167W        W 5508  34.409  40.897   1.385
37168W        W 5509  20.247  27.125   0.441
37169W        W 5510  36.036  30.947  11.126
37170W        W 5511  42.935  38.965  14.986
37171W        W 5512  39.990   6.859  12.051
37172W        W 5513  20.264  17.729  11.960
37173W        W 5514   1.368  41.318  12.551
37174W        W 5515  41.924  24.073  11.052
37175W        W 5516  35.058  40.379   4.631
37176W        W 5517   8.256  34.063  11.068
37177W        W 5518  40.022  21.025  11.869
37178W        W 5519   6.195  20.030   3.232
37179W        W 5520   1.303  16.590   0.475
37180W        W 5521  20.181  43.364  10.977
37181W        W 5522  36.029  24.014  14.337
37182W        W 5523   0.758  16.209   0.864
37183W        W 5524  22.151  39.054   1.221
37184W        W 5525  39.863  19.128   2.868
37185W        W 5526   2.359  12.726  10.577
37186W        W 5527   3.770  25.658  11.488
37187W        W 5528  44.271  12.124  12.991
37188W        W 5529  43.355  44.351  12.922
37189W        W 5530   7.696  38.561  10.548
37190W        W 5531  37.051  23.047  11.948
37191W        W 5532  13.653  16.200   2.773
37192W        W 5533  43.893  12.209   2.214
37193W        W 5534  30.415   1.924  14.985
37194W        W 5535   3.745   2.404   0.439
37195W        W 5536  17.762  30.483  13.833
37196W        W 5537  34.486  13.800  11.947
37197W        W 5538  11.296  11.663   3.248
37198W        W 5539  21.698  42.401   0.779
37199W        W 5540  41.498  18.689  10.630
37200W        W 5541  20.142  43.989   4.163
37201W        W 5542  33.401  33.961  14.952
37202W        W 5543  42.954  36.492   5.219
37203W        W 5544  18.651  34.428  14.303
37204W        W 5545  34.871  19.599  10.561
37205W        W 5546   0.382  21.249  14.422
37206W        W 5547  20.031  19.056  14.857
37207W        W 5548  34.023  25.159   1.412
37208W        W 5549  36.582   2.916  11.041
37209W        W 5550   3.298  33.118  11.394
37210W        W 5551  39.937  14.597   0.263
37211W        W 5552  19.619   1.813  13.030
37212W        W 5553  27.189   9.371   1.883
37213W        W 5554   0.933  39.882  12.508
37214W        W 5555  33.501  11.737  11.106
37215W        W 5556  16.608  23.560  11.476
37216W        W 5557  42.813   2.435   2.418
37217W        W 5558  17.686  10.708   4.706
37218W        W 5559  15.317  24.210   3.731
37219W        W 5560  34.082  10.205  13.791
37220W        W 5561   4.808  28.590   1.884
37221W        W 5562  13.123   5.728   3.181
37222W        W 5563  19.246   6.766  11.049
37223W        W 5564  34.057  25.510   1.858
37224W        W 5565  15.303  33.618  14.007
37225W        W 5566   2.959  40.804  13.449
37226W        W 5567   3.222  19.656  14.955
37227W        W 5568  36.862  18.707   3.862
37228W        W 5569  27.655   8.178  11.102
37229W        W 5570   1.270  34.507   2.724
37230W        W 5571  17.085  19.759  13.939
37231W        W 5572  33.554  21.090  12.886
37232W        W 5573  40.813   5.383   2.213
37233W        W 5574  30.601  25.635   2.315
37234W        W 5575  44.883  33.969  14.393
37235W        W 5576  26.556  27.046   4.116
37236W        W 5577  32.081  27.135  13.488
37237W        W 5578  32.602  22.197   3.799
37238W        W 5579  13.813   3.830  10.559
37239W        W 5580   2.859  32.418   0.429
37240W        W 5581  36.532   9.752  12.504
37241W        W 5582   5.405  37.907  14.429
37242W        W 5583  36.419  35.565   4.760
37243W        W 5584  34.880  13.257  12.434
37244W        W 5585  29.922  13.709   2.770
37245W        W 5586  18.157  25.656   2.364
37246W        W 5587  28.079  39.855  12.969
37247W        W 5588  30.587  44.810  10.619
37248W        W 5589  14.604  16.692   4.682
37249W        W 5590   8.883  27.104  12.577
37250W        W 5591  34.048  44.454   1.254
37251W        W 5592  10.231  40.362  10.581
37252W        W 5593   5.797  40.488   1.354
37253W        W 5594   0.287  24.114   3.278
37254W        W 5595  43.843  15.754   4.703
37255W        W 5596  32.434  34.051  11.877
37256W        W 5597  44.850  15.807  11.060
37257W        W 5598   4.428  27.590   0.796
37258W        W 5599  29.645   3.397  13.378
37259W        W 5600  13.310  32.945  11.013
37260W        W 5601  42.943   0.262   3.301
37261W        W 5602  11.129  39.380   4.619
37262W        W 5603  20.558  39.046  11.371
37263W        W 5604  38.926  21.043  14.387
37264W        W 5605  42.823   5.306  11.111
37265W        W 5606   7.771  24.521  14.852
37266W        W 5607   2.955  26.038   2.801
37267W        W 5608  20.212  18.274   0.929
37268W        W 5609   1.407   1.393   1.736
37269W        W 5610  27.117  38.025   1.368
37270W        W 5611  18.083   3.913  13.044
37271W        W 5612  27.076  39.500   2.759
37272W        W 5613  33.406   6.382   1.365
37273W        W 5614   7.192   1.296  10.991
37274W        W 5615  39.358  25.050  14.935
37275W        W 5616  42.907  31.448   0.369
37276W        W 5617  36.970  37.409   3.641
37277W        W 5618  16.621   3.215   0.896
37278W        W 5619   0.984  30.638   4.335
37279W        W 5620  31.146  25.987   2.378
37280W        W 5621  25.562   4.883   0.898
37281W        W 5622  32.053  21.625   4.287
37282W        W 5623  11.814  31.972   2.270
37283W        W 5624   8.677  23.200  12.075
37284W        W 5625   7.837  18.738  13.349
37285W        W 5626  31.019  29.027  12.828
37286W        W 5627  42.953  40.013  14.890
37287W        W 5628   3.324  36.987   1.398
37288W        W 5629   2.833  43.481  14.358
37289W        W 5630  10.689  26.201   1.331
37290W        W 5631  21.696   2.828  13.816
37291W        W 5632  24.625  24.586   3.326
37292W        W 5633  36.355  31.614   1.892
37293W        W 5634  44.988   9.888   4.665
37294W        W 5635  26.534  40.956  14.418
37295W        W 5636  39.039   8.259  14.333
37296W        W 5637   9.323   8.880  13.917
37297W        W 5638  20.754  17.139   0.295
37298W        W 5639  42.478   0.911   4.622
37299W        W 5640   9.328  17.571  10.953
37300W        W 5641  25.656  24.572   3.382
37301W        W 5642  43.936  34.539   3.749
37302W        W 5643   3.936  21.525  14.797
37303W        W 5644  29.992  37.989   0.466
37304W        W 5645  12.818  26.144   1.873
37305W        W 5646  29.984  32.896  13.808
37306W        W 5647  37.846  18.718   2.250
37307W        W 5648  12.248  31.497   4.704
37308W        W 5649  35.080  36.472   0.727
37309W        W 5650  36.938  10.285   4.335
37310W        W 5651  19.597   9.812   2.761
37311W        W 5652  18.123  34.490  14.475
37312W        W 5653  33.928  33.535  13.339
37313W        W 5654   1.815  28.113   3.843
37314W        W 5655  25.210  39.860  12.381
37315W        W 5656  17.571  27.010   2.690
37316W        W 5657  29.007  39.868   0.923
37317W        W 5658  18.062  10.702  10.962
37318W        W 5659  42.944  28.676  13.990
37319W        W 5660  21.738  17.279  12.560
37320W        W 5661  37.580  14.119   2.854
37321W        W 5662  37.042  44.916   1.793
37322W        W 5663  21.214   9.261  12.412
37323W        W 5664  35.852   3.822   3.257
37324W        W 5665  44.771  28.085   1.748
37325W        W 5666   7.405   9.877  12.932
37326W        W 5667  13.170  39.511   0.822
37327W        W 5668  32.031  39.521   0.428
37328W        W 5669   4.441   1.869  14.883
37329W        W 5670  28.547  22.030   4.260
37330W        W 5671   1.962  12.320   4.187
37331W        W 5672   6.760   7.788  13.988
37332W        W 5673  17.218  34.905  10.009
37333W        W 5674  31.981  39.929   0.753
37334W        W 5675   3.929   6.812  11.009
37335W        W 5676  13.272  32.530   2.378
37336W        W 5677  17.243  24.148  13.048
37337W        W 5678  14.602  29.557  12.940
37338W        W 5679  19.164  26.189   3.363
37339W        W 5680  31.035   6.382   4.619
37340W        W 5681   2.257  43.912  14.983
37341W        W 5682  11.725  16.256   2.697
37342W        W 5683  22.543   1.298   4.234
37343W        W 5684  22.075  15.697  13.466
37344W        W 5685  31.120  13.260  13.974
37345W        W 5686   6.408  13.706   2.801
37346W        W 5687  35.077  19.686  13.824
37347W        W 5688  19.235  39.494   2.738
37348W        W 5689  23.572  14.611   2.259
37349W        W 5690   3.739  32.109  10.525
37350W        W 5691  27.577   2.231   1.845
37351W        W 5692   5.413  22.745  10.610
37352W        W 5693  36.470  37.432   2.694
37353W        W 5694  11.789  34.912   3.776
37354W        W 5695  22.144   1.796  13.958
37355W        W 5696   6.422  16.589  12.998
37356W        W 5697   7.259  31.125   0.279
37357W        W 5698  30.614   1.757  14.426
37358W        W 5699  29.025   4.234   2.238
37359W        W 5700   9.277  16.600  11.609
37360W        W 5701   0.311  40.854  13.019
37361W        W 5702  31.943   5.346  13.042
37362W        W 5703  32.454  20.172   1.776
37363W        W 5704  25.075  39.327   2.781
37364W        W 5705  16.654  21.527   2.335
37365W        W 5706  16.593  17.629   4.177
37366W        W 5707  24.530  25.986  13.823
37367W        W 5708  21.244  18.569  12.580
37368W        W 5709  43.964  33.051   3.827
37369W        W 5710  34.081  15.588   1.835
37370W        W 5711   1.797  29.574  11.470
37371W        W 5712  32.954  37.551   4.744
37372W        W 5713   2.389  44.340   0.837
37373W        W 5714  42.358  19.551  10.008
37374W        W 5715  44.439  22.097   2.691
37375W        W 5716  21.193  30.084  13.029
37376W        W 5717  39.356  27.555  14.782
37377W        W 5718  32.956  31.605  12.499
37378W        W 5719  37.411  31.459  11.940
37379W        W 5720  25.028  33.091   3.343
37380W        W 5721   2.354  16.597   2.842
37381W        W 5722  29.941  21.074  11.398
37382W        W 5723  15.635   4.443   0.738
37383W        W 5724  31.574  18.135  12.953
37384W        W 5725  21.728   6.412  13.499
37385W        W 5726  35.003   2.407   1.392
37386W        W 5727   9.297  16.258   2.203
37387W        W 5728  30.612  38.487   2.392
37388W        W 5729  24.187  15.326  13.037
37389W        W 5730  23.492  42.918   1.873
37390W        W 5731  25.129   2.451   0.376
37391W        W 5732  21.121   1.248  13.426
37392W        W 5733   3.922  29.588  12.495
37393W        W 5734  14.626  33.540  11.010
37394W        W 5735  39.475  19.205  13.502
37395W        W 5736   0.274  14.781   0.378
37396W        W 5737  20.053   9.644   3.183
37397W        W 5738  40.991   0.396   2.365
37398W        W 5739  19.637  39.401  14.907
37399W        W 5740  16.167  39.509  12.833
37400W        W 5741  12.612  11.866   5.109
37401W        W 5742  22.555  24.092  14.995
37402W        W 5743   1.458  42.336   4.263
37403W        W 5744  18.627  11.780  13.059
37404W        W 5745  44.330  24.659  12.838
37405W        W 5746  21.239  10.230   5.316
37406W        W 5747  41.301  38.860   0.353
37407W        W 5748  36.362  14.236   2.879
37408W        W 5749  23.495  35.501   1.794
37409W        W 5750   0.905  35.978   5.164
37410W        W 5751  32.469  32.055   3.363
37411W        W 5752  20.200  20.716  14.948
37412W        W 5753  35.091  35.030   0.310
37413W        W 5754  21.740  25.476  14.361
37414W        W 5755  41.361  32.579   3.183
37415W        W 5756  27.674  36.925  12.382
37416W        W 5757  15.662   4.251  13.341
37417W        W 5758  15.810   4.269  11.582
37418W        W 5759  44.381  18.191   3.292
37419W        W 5760  13.676  18.675   0.417
37420W        W 5761  19.543  18.640   1.444
37421W        W 5762  32.944  11.660   3.730
37422W        W 5763  25.597   2.275   4.768
37423W        W 5764   3.917  30.585  14.909
37424W        W 5765  26.113  35.932  10.495
37425W        W 5766  42.857  16.698   2.870
37426W        W 5767  23.022  20.647   1.355
37427W        W 5768  33.542   3.450  11.387
37428W        W 5769  19.623  29.658  12.883
37429W        W 5770  40.976  41.529  14.407
37430W        W 5771  12.669  25.692  14.381
37431W        W 5772   9.328  43.474  12.445
37432W        W 5773  11.624   8.293  13.499
37433W        W 5774   9.669   3.263  13.404
37434W        W 5775  18.620   1.418  14.414
37435W        W 5776  19.568   6.185   3.259
37436W        W 5777  24.135  28.087  11.088
37437W        W 5778  28.019  38.380   0.427
37438W        W 5779   4.254  41.892   1.900
37439W        W 5780  12.704  31.955   2.369
37440W        W 5781  44.418  37.539   1.432
37441W        W 5782  39.992  35.504  12.343
37442W        W 5783  12.745  10.721   1.719
37443W        W 5784  40.412  34.936   4.300
37444W        W 5785  11.742  19.039   4.754
37445W        W 5786  11.789  37.068  13.394
37446W        W 5787   5.400   1.435  12.458
37447W        W 5788  33.912  21.569  14.772
37448W        W 5789  44.489   3.797   3.687
37449W        W 5790  29.987  40.325   2.665
37450W        W 5791   3.869   5.262   2.861
37451W        W 5792   8.721   0.854   2.849
37452W        W 5793   7.228   6.834  13.460
37453W        W 5794  30.107  24.063  12.882
37454W        W 5795  14.686  41.034   0.340
37455W        W 5796  17.561  41.892   4.644
37456W        W 5797   7.827  14.197   1.700
37457W        W 5798  40.911   6.391   1.320
37458W        W 5799  28.612  12.699   0.962
37459W        W 5800   2.832  26.110   0.454
37460W        W 5801  11.737  39.922   4.687
37461W        W 5802  27.062   0.886   1.747
37462W        W 5803  41.841  30.520  13.509
37463W        W 5804  14.678   8.720  14.000
37464W        W 5805  40.387  13.680  12.998
37465W        W 5806  43.406  17.726   0.344
37466W        W 5807  38.852  42.778   9.544
37467W        W 5808  15.606  20.540  12.513
37468W        W 5809  25.678  32.122  14.341
37469W        W 5810  40.453  21.166  12.480
37470W        W 5811  39.545   5.212   3.249
37471W        W 5812  24.139  15.649   0.290
37472W        W 5813  19.269  36.511  14.393
37473W        W 5814   6.405   3.842   4.282
37474W        W 5815  44.001  21.244   2.715
37475W        W 5816  17.591  19.770   3.367
37476W        W 5817   8.352  34.589  11.587
37477W        W 5818  10.655   8.864   3.744
37478W        W 5819   7.243   0.893  13.404
37479W        W 5820  24.978  38.026  13.912
37480W        W 5821  20.146  36.410   2.375
37481W        W 5822  33.399  11.845   1.926
37482W        W 5823  12.237  31.558  14.010
37483W        W 5824  26.059   6.323   1.927
37484W        W 5825  10.277  35.874  11.383
37485W        W 5826  18.266   1.841  14.821
37486W        W 5827  39.336  29.085  12.458
37487W        W 5828  39.450  36.362   4.328
37488W        W 5829  11.644  27.542  14.976
37489W        W 5830  16.800  24.089   5.776
37490W        W 5831  37.923  17.782   0.248
37491W        W 5832  38.880  10.266  12.378
37492W        W 5833  33.599   9.203   4.138
37493W        W 5834  15.813  36.957   2.256
37494W        W 5835  24.984  18.077   1.882
37495W        W 5836   8.188  17.603   0.840
37496W        W 5837  39.014  12.178   1.839
37497W        W 5838   9.154   3.385  13.335
37498W        W 5839  43.971  17.294   0.250
37499W        W 5840  31.556  12.788   0.882
37500W        W 5841  43.270  24.109   2.334
37501W        W 5842   4.352  40.870  11.957
37502W        W 5843   6.239  15.773   3.640
37503W        W 5844  15.203  12.149   2.702
37504W        W 5845  20.639  31.422  12.394
37505W        W 5846  20.585  32.556   3.723
37506W        W 5847  24.101  42.431   3.820
37507W        W 5848  23.153  27.116   0.466
37508W        W 5849  21.056  21.211   0.360
37509W        W 5850  15.252  28.663   1.223
37510W        W 5851  22.249  23.240  13.522
37511W        W 5852  31.009  30.097   1.281
37512W        W 5853  14.165  14.797  13.547
37513W        W 5854  32.443  31.099   2.191
37514W        W 5855  14.768   7.216   3.258
37515W        W 5856  35.907  13.700   4.631
37516W        W 5857  34.409  30.003   1.250
37517W        W 5858   2.349  26.053   4.599
37518W        W 5859  44.349  17.065   0.359
37519W        W 5860  26.646   6.338   2.228
37520W        W 5861  43.289  20.736   9.543
37521W        W 5862  16.167  27.658   0.439
37522W        W 5863  24.502  30.652  14.895
37523W        W 5864  33.116  24.113   1.748
37524W        W 5865  31.596  14.340   5.096
37525W        W 5866  23.692   0.887  13.857
37526W        W 5867  28.166  32.477   4.801
37527W        W 5868  15.726  43.453  14.465
37528W        W 5869  37.057   7.888  14.915
37529W        W 5870  36.998  19.618  10.585
37530W        W 5871  26.119  17.153   2.845
37531W        W 5872  43.953  39.478  10.546
37532W        W 5873  10.634  44.944  13.012
37533W        W 5874   9.264  26.524  12.044
37534W        W 5875  14.731  25.983   3.204
37535W        W 5876   6.286  13.682   4.276
37536W        W 5877  33.560  14.219   4.185
37537W        W 5878   7.278  17.613  12.018
37538W        W 5879   6.269  33.613  12.093
37539W        W 5880  15.662  24.640  10.976
37540W        W 5881  20.664  44.799  12.891
37541W        W 5882  43.857  39.443   4.781
37542W        W 5883  17.762  23.513   5.133
37543W        W 5884  29.437  27.497   2.883
37544W        W 5885  28.514   8.673  14.969
37545W        W 5886  23.021  24.656  12.918
37546W        W 5887  33.874  38.551   0.737
37547W        W 5888  13.258  28.088   1.253
37548W        W 5889  22.673  30.558   3.690
37549W        W 5890  38.870  16.808  13.360
37550W        W 5891  43.417  32.577   0.925
37551W        W 5892   1.766   2.442  10.921
37552W        W 5893  37.549   6.256  11.953
37553W        W 5894   1.906  26.558   4.162
37554W        W 5895  23.604  26.654   0.775
37555W        W 5896  37.042   0.749   4.795
37556W        W 5897  32.976  26.468  10.466
37557W        W 5898  32.137  41.425  14.980
37558W        W 5899  41.523  24.693  10.458
37559W        W 5900  44.888  19.656   1.257
37560W        W 5901  33.522  22.206  13.538
37561W        W 5902  40.407  33.431  10.500
37562W        W 5903   7.299  23.082   3.328
37563W        W 5904  40.527   3.253   3.651
37564W        W 5905  22.722  29.127  11.993
37565W        W 5906  42.426  27.966   1.445
37566W        W 5907   2.426  30.046  13.370
37567W        W 5908  28.116  41.357   3.210
37568W        W 5909   9.652  19.248   4.689
37569W        W 5910  42.357  44.406  10.464
37570W        W 5911  32.013  24.022   5.142
37571W        W 5912   6.679  23.201  12.518
37572W        W 5913  32.923  37.493  10.902
37573W        W 5914  41.516  42.830  12.894
37574W        W 5915  30.059  11.807   2.899
37575W        W 5916  40.385  11.749   9.930
37576W        W 5917   5.407  43.905  14.020
37577W        W 5918  22.651  41.825  13.933
37578W        W 5919   0.809  17.303  13.308
37579W        W 5920   4.256  13.833  12.399
37580W        W 5921  29.568  40.484  11.889
37581W        W 5922   8.796  13.714   4.746
37582W        W 5923  29.442  39.521   0.257
37583W        W 5924  38.426   9.213   1.417
37584W        W 5925  39.339  31.094   3.682
37585W        W 5926  22.077  19.069  11.860
37586W        W 5927   3.893   5.225   0.795
37587W        W 5928  24.663  37.928  11.105
37588W        W 5929  41.888  17.139  12.927
37589W        W 5930  27.132  42.454  14.450
37590W        W 5931   1.862   3.357   3.366
37591W        W 5932  17.758  19.200   2.693
37592W        W 5933  21.688  27.049   3.245
37593W        W 5934  31.145  41.538  13.828
37594W        W 5935  41.402  34.379   3.799
37595W        W 5936  19.264   7.296  11.506
37596W        W 5937  35.562  13.324  12.913
37597W        W 5938  28.049  18.237  12.999
37598W        W 5939  25.633   0.411   4.115
37599W        W 5940  27.665   4.941   4.699
37600W        W 5941  18.717  28.035   4.720
37601W        W 5942   1.433  20.053  12.564
37602W        W 5943  25.083   6.879  10.452
37603W        W 5944  44.889  13.111  14.001
37604W        W 5945   5.374   0.861  11.511
37605W        W 5946  38.392  21.046  14.772
37606W        W 5947  32.469  43.829   0.332
37607W        W 5948  17.706  39.892  14.341
37608W        W 5949  23.713  24.189  10.447
37609W        W 5950  18.579   3.824   4.346
37610W        W 5951   9.270   7.859  14.970
37611W        W 5952  44.264  11.210  14.326
37612W        W 5953   1.731  22.741   3.314
37613W        W 5954   8.328  38.988  11.509
37614W        W 5955  22.112  26.162   2.296
37615W        W 5956  21.139  31.481  10.632
37616W        W 5957  11.365  41.028   0.480
37617W        W 5958  36.446  29.971   4.744
37618W        W 5959  26.123  29.926  12.496
37619W        W 5960  10.314  13.793  10.079
37620W        W 5961  30.633   8.371  13.544
37621W        W 5962   5.869  35.923   3.370
37622W        W 5963   9.250  11.831  11.079
37623W        W 5964  10.369  20.594  13.539
37624W        W 5965  40.889  34.013  14.283
37625W        W 5966  34.475  27.168   0.801
37626W        W 5967   5.882  15.602  11.011
37627W        W 5968  17.107  23.702  13.897
37628W        W 5969  18.764   2.275  12.916
37629W        W 5970   1.286  26.022   2.368
37630W        W 5971  12.770  41.821   0.812
37631W        W 5972   6.203   4.705   3.279
37632W        W 5973  33.521  27.608  12.999
37633W        W 5974  25.174  14.225   3.367
37634W        W 5975  22.645  28.640   2.317
37635W        W 5976   4.250  18.293  13.043
37636W        W 5977  39.492   5.732  14.961
37637W        W 5978   9.242  44.394  10.486
37638W        W 5979  28.113   3.804  13.921
37639W        W 5980  34.381  40.049  10.543
37640W        W 5981  34.447  25.558   4.311
37641W        W 5982  10.849  33.094  14.321
37642W        W 5983  41.998   5.688   3.319
37643W        W 5984  21.236  25.010   2.351
37644W        W 5985   0.462   4.922   1.353
37645W        W 5986  29.159  19.608  14.870
37646W        W 5987  18.053   9.677  13.976
37647W        W 5988   4.326   6.322   1.280
37648W        W 5989  17.208   6.252   4.227
37649W        W 5990  16.803  24.608   5.128
37650W        W 5991  13.336  24.181  13.014
37651W        W 5992  31.595  32.120  11.950
37652W        W 5993   5.407  39.554   3.170
37653W        W 5994  17.177  15.644   1.407
37654W        W 5995  26.494  24.619  10.898
37655W        W 5996  23.549  27.512   0.853
37656W        W 5997   7.806  32.979  12.898
37657W        W 5998  14.127  22.610   1.332
37658W        W 5999  24.682  37.833   4.340
37659W        W 6000   7.298  18.218   1.742
37660W        W 6001   6.866  12.158  13.502
37661W        W 6002  14.129  34.606  12.976
37662W        W 6003  17.584  38.341  14.833
37663W        W 6004  31.538  29.136  13.479
37664W        W 6005  36.076  19.127   2.797
37665W        W 6006  29.943  40.515   0.300
37666W        W 6007  29.475  27.599  11.102
37667W        W 6008   5.870   8.746   2.289
37668W        W 6009   6.897  39.404   0.481
37669W        W 6010   7.851  14.733  11.084
37670W        W 6011  13.277  36.075   2.348
37671W        W 6012   6.201  11.804  14.762
37672W        W 6013   9.689   0.488  14.841
37673W        W 6014  19.778  43.014   0.897
37674W        W 6015  40.477  42.474  12.031
37675W        W 6016  28.570   9.871   4.822
37676W        W 6017   9.381  27.558  10.887
37677W        W 6018   8.887   4.341  13.023
37678W        W 6019  25.638  31.955  13.470
37679W        W 6020   8.863  17.064   2.668
37680W        W 6021  41.872  39.920  12.541
37681W        W 6022   8.360  17.759   0.399
37682W        W 6023  40.948  19.244   4.663
37683W        W 6024   6.210  28.066  14.405
37684W        W 6025  29.542   7.376  14.764
37685W        W 6026  37.344  12.699  11.935
37686W        W 6027  16.099   5.348  14.416
37687W        W 6028  21.695  39.373  14.880
37688W        W 6029   5.314  36.092  14.998
37689W        W 6030  33.032  40.018  10.465
37690W        W 6031  43.996   4.757   4.283
37691W        W 6032  11.804  13.116   0.836
37692W        W 6033  10.192  16.650   3.781
37693W        W 6034   9.316  35.957  11.607
37694W        W 6035  30.595  43.345   4.755
37695W        W 6036  21.170  19.194   1.875
37696W        W 6037  24.059   4.876   4.808
37697W        W 6038  41.802  40.522   0.441
37698W        W 6039  24.981   8.397   1.348
37699W        W 6040  34.906  19.650  11.374
37700W        W 6041   8.805  19.740  10.994
37701W        W 6042  16.577   1.816  10.560
37702W        W 6043   4.217   0.967  11.090
37703W        W 6044  37.830  15.636   0.790
37704W        W 6045  15.823  39.402  14.371
37705W        W 6046  24.974   8.659   0.343
37706W        W 6047  11.748  10.281   4.308
37707W        W 6048  38.464  16.614  14.959
37708W        W 6049  10.375  17.664   1.382
37709W        W 6050  12.772   9.834  10.917
37710W        W 6051  36.551  43.980   1.847
37711W        W 6052  38.383   6.908   3.295
37712W        W 6053  20.198  36.862  13.877
37713W        W 6054  24.676   0.818   2.898
37714W        W 6055  43.817   4.414  14.467
37715W        W 6056   7.298  18.667   1.405
37716W        W 6057  15.222  11.232  10.492
37717W        W 6058  25.105  31.909   4.793
37718W        W 6059  31.580   3.267   1.805
37719W        W 6060  42.005  37.010  11.979
37720W        W 6061  22.566   9.778  13.345
37721W        W 6062  29.154  33.547  13.901
37722W        W 6063  15.173  38.570  14.331
37723W        W 6064  37.337  12.717   3.201
37724W        W 6065  27.490  27.036   4.744
37725W        W 6066  19.709  34.463  13.945
37726W        W 6067  10.782   1.968  11.490
37727W        W 6068   0.974   1.733   1.860
37728W        W 6069  23.158  28.508  12.941
37729W        W 6070   5.915   2.902   3.845
37730W        W 6071   5.703  31.459  14.445
37731W        W 6072  11.835  29.441   0.905
37732W        W 6073  26.524  19.194   4.266
37733W        W 6074   8.386   7.676   2.303
37734W        W 6075  23.133  28.610   1.244
37735W        W 6076   8.252  26.962   1.247
37736W        W 6077  37.571  11.757   3.761
37737W        W 6078  44.820  30.908  11.473
37738W        W 6079  26.590  13.675  13.382
37739W        W 6080  18.641  29.979  13.470
37740W        W 6081  34.447  44.947   4.319
37741W        W 6082  34.984  34.032   1.731
37742W        W 6083  34.045  33.877  11.599
37743W        W 6084  16.158  21.700   0.309
37744W        W 6085  21.244  43.883  11.534
37745W        W 6086  24.560  15.786  11.575
37746W        W 6087  37.953  18.063  12.084
37747W        W 6088  20.137  14.127  13.038
37748W        W 6089  41.956  33.493  14.945
37749W        W 6090   0.352  27.477   4.303
37750W        W 6091  22.700  29.052   4.160
37751W        W 6092  32.555  21.129   0.887
37752W        W 6093  18.223  13.721  13.348
37753W        W 6094   4.777  44.363   2.812
37754W        W 6095  43.880   2.856  13.426
37755W        W 6096  23.141  11.167  11.902
37756W        W 6097  28.500  27.548  13.908
37757W        W 6098   9.329   3.455   1.707
37758W        W 6099   8.886  13.655  14.987
37759W        W 6100  26.962   0.831  13.477
37760W        W 6101   3.896  24.544   1.429
37761W        W 6102   1.819  21.617  10.981
37762W        W 6103  15.704  44.429   5.216
37763W        W 6104  22.178   9.651   4.816
37764W        W 6105  10.803  29.579   0.380
37765W        W 6106   0.821  18.268  13.878
37766W        W 6107  26.188   3.226  11.384
37767W        W 6108  25.538  44.446  10.141
37768W        W 6109  44.273  34.031   3.850
37769W        W 6110  30.999  11.797   9.956
37770W        W 6111  25.199  19.130  13.938
37771W        W 6112  37.875   8.352   0.322
37772W        W 6113  29.972  19.612   3.700
37773W        W 6114  43.964  16.302   3.837
37774W        W 6115  29.640  22.143   2.800
37775W        W 6116  11.254  19.592   3.336
37776W        W 6117  11.327  20.756   0.734
37777W        W 6118  37.910   4.767  12.563
37778W        W 6119   3.906  39.866   4.629
37779W        W 6120  18.289  18.276  13.403
37780W        W 6121  36.418  36.851  13.309
37781W        W 6122  38.060  38.438  14.832
37782W        W 6123   4.230  26.583   5.164
37783W        W 6124  39.504  30.035   0.254
37784W        W 6125   1.370  34.484   0.480
37785W        W 6126   5.267   8.323   3.223
37786W        W 6127  28.048   8.789   2.197
37787W        W 6128  14.734  24.680  10.486
37788W        W 6129  40.825  20.251  13.936
37789W        W 6130  31.949   0.948  11.039
37790W        W 6131   5.693  35.930  11.973
37791W        W 6132  11.152  22.050  13.014
37792W        W 6133  21.712  18.149   3.305
37793W        W 6134  28.450   4.838   3.235
37794W        W 6135  27.102  15.218   0.450
37795W        W 6136   7.779   2.297  14.808
37796W        W 6137  33.943  21.146  13.358
37797W        W 6138  14.682  19.646  13.525
37798W        W 6139   7.746  32.084  12.900
37799W        W 6140  35.086  27.142  13.835
37800W        W 6141   1.835   5.415  13.317
37801W        W 6142  35.968  21.732  13.535
37802W        W 6143  22.182   9.681   3.338
37803W        W 6144  13.236  34.937   1.219
37804W        W 6145  17.185  28.183  10.092
37805W        W 6146  30.549  40.012  12.067
37806W        W 6147  31.045  12.640   3.806
37807W        W 6148   9.744   7.904   4.617
37808W        W 6149  13.129  18.733  11.047
37809W        W 6150   7.172   1.970   4.710
37810W        W 6151  26.527  32.897  13.019
37811W        W 6152  14.206  34.576  10.899
37812W        W 6153  30.432  44.480  10.944
37813W        W 6154  10.769  23.713  11.527
37814W        W 6155  23.647  22.090   1.247
37815W        W 6156  44.761  42.345  13.399
37816W        W 6157  22.668  23.664  11.115
37817W        W 6158   0.939  27.067  13.980
37818W        W 6159  28.465  44.988  10.483
37819W        W 6160  12.749  40.361  14.785
37820W        W 6161  30.504  17.248   3.739
37821W        W 6162  25.099   1.850   0.427
37822W        W 6163  23.521  35.887  10.619
37823W        W 6164  38.451  10.248  14.466
37824W        W 6165  43.834  23.005  14.000
37825W        W 6166  43.803   9.261  11.110
37826W        W 6167  37.837  13.230  11.410
37827W        W 6168  21.722   2.437   2.352
37828W        W 6169  32.044   3.242   1.829
37829W        W 6170   0.316  15.156   3.245
37830W        W 6171   3.748  23.730   0.875
37831W        W 6172  24.674  21.608   3.821
37832W        W 6173  15.114  37.437  12.378
37833W        W 6174  12.656  41.538  12.493
37834W        W 6175   9.854  30.915   1.841
37835W        W 6176   6.243  35.587  12.964
37836W        W 6177  20.708  36.391  12.086
37837W        W 6178  15.144   1.378   2.785
37838W        W 6179  13.153  28.652   2.339
37839W        W 6180   1.240  35.553   2.293
37840W        W 6181  35.370  30.569  12.843
37841W        W 6182  10.286  17.624   3.222
37842W        W 6183  40.985  27.672   4.301
37843W        W 6184  34.050  33.957   4.119
37844W        W 6185  43.986  33.443   4.731
37845W        W 6186   7.894   6.695   4.686
37846W        W 6187  30.099  16.144   3.375
37847W        W 6188  12.311  23.114   3.707
37848W        W 6189  35.938  23.083   0.865
37849W        W 6190  20.078  12.790  11.117
37850W        W 6191  31.477  10.672  13.819
37851W        W 6192  43.304  17.610  13.376
37852W        W 6193  32.906  16.755   2.882
37853W        W 6194  32.575  44.999  14.790
37854W        W 6195  13.154  36.411   4.157
37855W        W 6196   5.439  22.507   2.715
37856W        W 6197  13.140  31.076  10.591
37857W        W 6198  19.634   3.812   4.326
37858W        W 6199   6.727  21.543  13.874
37859W        W 6200   8.308  25.029   1.765
37860W        W 6201  32.896  39.912   0.427
37861W        W 6202  13.765  14.212  10.914
37862W        W 6203  12.780  26.150   1.301
37863W        W 6204  12.265  41.441  14.860
37864W        W 6205  16.634  20.748   9.942
37865W        W 6206   9.152  17.227   4.165
37866W        W 6207   3.843   0.399  10.940
37867W        W 6208  16.675  32.509  13.796
37868W        W 6209  42.875  32.391  14.822
37869W        W 6210  29.114  15.676  10.584
37870W        W 6211  43.313   6.762   3.713
37871W        W 6212  22.138  44.335  14.780
37872W        W 6213  26.543  19.643  14.859
37873W        W 6214  24.001  25.021   3.153
37874W        W 6215  16.151   1.967  11.423
37875W        W 6216  41.812  23.211   4.729
37876W        W 6217  26.162   8.780   0.441
37877W        W 6218  19.258   3.828  13.006
37878W        W 6219  27.017  27.970  13.031
37879W        W 6220  25.498  31.115  14.468
37880W        W 6221   1.399  39.498   3.257
37881W        W 6222  13.755  10.305  14.442
37882W        W 6223  23.134  33.896  11.022
37883W        W 6224  32.940  30.149  14.925
37884W        W 6225  23.134  41.519  12.462
37885W        W 6226  39.004  35.522  10.641
37886W        W 6227   8.895  30.430   0.881
37887W        W 6228  35.363  16.731  13.810
37888W        W 6229  41.358  28.946   3.211
37889W        W 6230  28.090  16.090  10.964
37890W        W 6231  36.075  35.514  12.966
37891W        W 6232   6.813  31.490   2.689
37892W        W 6233  18.087  24.097   0.448
37893W        W 6234  20.608  32.102  12.945
37894W        W 6235  23.009  19.126  10.091
37895W        W 6236  40.310  31.547   4.773
37896W        W 6237   1.737  14.155   4.765
37897W        W 6238  22.596   4.922  13.497
37898W        W 6239  43.866  29.949  14.288
37899W        W 6240  29.948  33.419  12.465
37900W        W 6241  21.661   9.322  11.899
37901W        W 6242  39.052  19.215  10.425
37902W        W 6243   6.922  33.592   0.761
37903W        W 6244  12.130  22.660   4.797
37904W        W 6245  43.777  31.943   4.673
37905W        W 6246   0.449  31.015  12.363
37906W        W 6247   0.363  40.022  11.067
37907W        W 6248   6.272   4.339  14.012
37908W        W 6249  31.141  26.126   3.834
37909W        W 6250   3.834   5.833   0.311
37910W        W 6251   6.233  11.355  12.889
37911W        W 6252  24.996   0.844  12.938
37912W        W 6253  23.090  15.731   3.314
37913W        W 6254  44.447   0.397   2.267
37914W        W 6255   1.406  14.597  11.511
37915W        W 6256  24.640  34.874  10.516
37916W        W 6257   8.279  17.737  12.839
37917W        W 6258   5.786  30.600  10.892
37918W        W 6259  42.912  42.007   4.656
37919W        W 6260   4.732  32.950  13.394
37920W        W 6261  35.072  12.783  14.870
37921W        W 6262  41.383  22.602   4.253
37922W        W 6263  11.184  28.004  13.830
37923W        W 6264  34.951   6.197  10.110
37924W        W 6265  28.622  44.788  11.958
37925W        W 6266  38.029  33.067  12.541
37926W        W 6267  35.503  25.197  14.885
37927W        W 6268  42.784   9.778  12.404
37928W        W 6269   3.867  17.744  11.598
37929W        W 6270  13.337  20.225   0.770
37930W        W 6271  34.536  35.558  12.356
37931W        W 6272  30.636  11.846  13.342
37932W        W 6273  26.149  39.498   1.238
37933W        W 6274  14.821  11.153  14.944
37934W        W 6275  27.550   3.369  14.461
37935W        W 6276  28.110  34.045  13.963
37936W        W 6277  29.967   8.193   0.812
37937W        W 6278  24.168  28.486  12.042
37938W        W 6279  23.673   7.273  13.794
37939W        W 6280  10.816  24.522  10.902
37940W        W 6281  17.698  41.959  10.529
37941W        W 6282  16.221  39.813   0.435
37942W        W 6283   0.336  36.906   1.782
37943W        W 6284  12.836  31.042  11.953
37944W        W 6285  28.182  23.629  10.946
37945W        W 6286  22.560   6.701   1.305
37946W        W 6287  32.494  21.064  11.888
37947W        W 6288  42.961  18.720   2.787
37948W        W 6289  11.282   1.392  11.074
37949W        W 6290   2.828  30.962  11.084
37950W        W 6291  26.167  33.421  12.944
37951W        W 6292  28.459  31.907   0.356
37952W        W 6293  17.651  38.034  11.522
37953W        W 6294   3.747   1.889  10.488
37954W        W 6295  22.091  19.282   0.931
37955W        W 6296  17.162   2.336   2.221
37956W        W 6297  42.373  35.086  13.364
37957W        W 6298  22.744  13.724   3.189
37958W        W 6299  43.358  11.853  11.474
37959W        W 6300  15.648  28.552   3.285
37960W        W 6301   2.444  31.135   4.289
37961W        W 6302  36.383  21.735   3.811
37962W        W 6303  28.961   1.969   3.345
37963W        W 6304  19.679  31.512  13.548
37964W        W 6305   7.225  33.934   0.782
37965W        W 6306  28.449   7.852  14.910
37966W        W 6307  15.614  35.037  12.411
37967W        W 6308   3.733   7.857  13.794
37968W        W 6309   8.881  17.636   4.153
37969W        W 6310  39.525   0.381  14.475
37970W        W 6311  36.938  39.317  11.372
37971W        W 6312  27.602   4.415   3.813
37972W        W 6313   3.806  24.113   3.715
37973W        W 6314   6.911  37.048   1.450
37974W        W 6315  19.642   0.349   0.767
37975W        W 6316  33.492  41.463  13.922
37976W        W 6317   0.420  20.224  10.545
37977W        W 6318   6.914  40.463  10.475
37978W        W 6319  23.070   8.873  14.857
37979W        W 6320  22.108  20.042  13.862
37980W        W 6321  41.823  23.094  11.588
37981W        W 6322  14.320  31.941  10.572
37982W        W 6323  19.663  30.633  10.511
37983W        W 6324  36.498  30.079  13.393
37984W        W 6325  33.574  24.573  14.339
37985W        W 6326  17.749  10.268   1.793
37986W        W 6327  26.208  23.622   2.842
37987W        W 6328  14.829   1.475  11.972
37988W        W 6329  42.017  24.558  13.461
37989W        W 6330  14.656  41.979  10.600
37990W        W 6331   1.308  19.203   0.849
37991W        W 6332  25.163  37.477  10.122
37992W        W 6333  17.184  21.520  11.458
37993W        W 6334  27.150  44.329  10.517
37994W        W 6335  37.399  44.265  11.393
37995W        W 6336   9.773  35.542   4.600
37996W        W 6337  36.975   3.741  13.460
37997W        W 6338  33.906   7.850   3.163
37998W        W 6339  42.910  23.605   1.254
37999W        W 6340  36.446  25.163   3.767
38000W        W 6341  28.115   0.333   4.232
38001W        W 6342  30.424  30.574   4.266
38002W        W 6343  25.624  18.281  12.944
38003W        W 6344  43.994  11.829  11.934
38004W        W 6345  19.663  26.461  13.421
38005W        W 6346  33.576  26.591   4.705
38006W        W 6347  20.237  35.873   4.677
38007W        W 6348  14.784  37.479   2.715
38008W        W 6349   6.852  44.320  11.915
38009W        W 6350   7.211  28.083   2.398
38010W        W 6351  21.230  43.358  14.460
38011W        W 6352  34.436  21.227   3.289
38012W        W 6353   7.267  31.592   4.636
38013W        W 6354  22.081  40.459  14.308
38014W        W 6355  39.324  35.035  14.305
38015W        W 6356  34.569  44.466   0.306
38016W        W 6357  39.851  41.333   9.957
38017W        W 6358   8.203  34.045   0.369
38018W        W 6359  38.388   3.288   1.841
38019W        W 6360  43.975   9.250  14.482
38020W        W 6361   7.902  13.828  14.904
38021W        W 6362  39.507  13.679   4.677
38022W        W 6363  29.009  21.182   3.677
38023W        W 6364  30.595  33.015   1.879
38024W        W 6365  30.573  21.684  14.990
38025W        W 6366   8.762   9.789   3.284
38026W        W 6367  15.096  11.298   3.368
38027W        W 6368   9.872   3.327  14.295
38028W        W 6369  25.632  43.815  11.113
38029W        W 6370  32.464   2.362  10.941
38030W        W 6371  17.567  32.524  13.480
38031W        W 6372  33.054  16.628  14.764
38032W        W 6373   3.790  36.901   1.904
38033W        W 6374  33.883  27.596   0.778
38034W        W 6375  16.684  35.500   3.719
38035W        W 6376  14.603  31.605  14.303
38036W        W 6377   6.790  25.657   2.830
38037W        W 6378   7.863  20.113   3.264
38038W        W 6379   4.873  39.911  13.862
38039W        W 6380  31.898  31.527   0.809
38040W        W 6381  16.220  35.442   0.268
38041W        W 6382  26.176  35.480  10.451
38042W        W 6383  42.922  33.443  11.530
38043W        W 6384  33.985  21.608   1.419
38044W        W 6385  11.807   6.281  12.078
38045W        W 6386  13.199  22.619   5.195
38046W        W 6387  28.071  15.206   4.674
38047W        W 6388  31.980  23.591   1.861
38048W        W 6389   0.914  29.010   4.703
38049W        W 6390  29.649  21.181   4.228
38050W        W 6391   7.816   5.708  14.363
38051W        W 6392  14.277   7.803  10.985
38052W        W 6393  42.523  38.395   0.727
38053W        W 6394  35.109  12.165   0.919
38054W        W 6395  16.653  32.594   0.245
38055W        W 6396   0.329  39.819  10.478
38056W        W 6397  27.595  24.216   2.231
38057W        W 6398  12.338  22.531   4.276
38058W        W 6399  39.862  31.498   0.798
38059W        W 6400  31.948  27.487   9.946
38060W        W 6401  32.502   5.784  12.955
38061W        W 6402  36.951  11.219  14.996
38062W        W 6403  22.151  14.609   2.675
38063W        W 6404  43.773   4.305   1.711
38064W        W 6405  24.058  39.845   0.857
38065W        W 6406  32.601  22.704   2.855
38066W        W 6407  28.961   7.847   0.332
38067W        W 6408  19.683  29.962   2.281
38068W        W 6409   4.443  35.052   4.804
38069W        W 6410  26.621   1.834  14.773
38070W        W 6411  24.206  24.639   4.759
38071W        W 6412  34.971  19.074  12.002
38072W        W 6413  34.578   2.893  14.481
38073W        W 6414  25.147  40.345   3.296
38074W        W 6415  35.600  29.642   1.346
38075W        W 6416  41.913  29.466   2.689
38076W        W 6417  10.142  14.652  10.640
38077W        W 6418  13.600  24.498  12.889
38078W        W 6419   5.273  13.162  10.954
38079W        W 6420   2.256  31.571   4.146
38080W        W 6421  18.707  31.037   0.935
38081W        W 6422  29.968  15.697  13.004
38082W        W 6423   3.955  14.718  10.539
38083W        W 6424  34.390   3.906   4.817
38084W        W 6425  34.954  37.068   3.702
38085W        W 6426  29.628  11.780  12.386
38086W        W 6427   4.701  10.759   2.208
38087W        W 6428  20.078  11.181   0.325
38088W        W 6429  17.690  15.588   0.757
38089W        W 6430  24.720  21.756  14.300
38090W        W 6431  14.683  25.711  12.895
38091W        W 6432   7.775  31.423  10.609
38092W        W 6433  23.097   3.768  11.034
38093W        W 6434  44.380  23.503  14.434
38094W        W 6435   1.464  24.977  11.508
38095W        W 6436  11.168  15.215  12.555
38096W        W 6437  31.020  42.852  13.830
38097W        W 6438   6.240  10.697   1.807
38098W        W 6439  21.686  22.108   2.345
38099W        W 6440   5.392  39.945  14.825
38100W        W 6441  28.625  43.014   2.376
38101W        W 6442  18.655  17.265  13.054
38102W        W 6443   4.377  32.921   2.191
38103W        W 6444  18.090  14.821   4.312
38104W        W 6445   0.842  18.642  11.563
38105W        W 6446  38.455   1.400  11.058
38106W        W 6447   2.786  29.919   2.822
38107W        W 6448  44.277  17.220   1.273
38108W        W 6449  39.328   3.312  10.103
38109W        W 6450   6.799  43.430  14.848
38110W        W 6451  18.105  23.548  11.442
38111W        W 6452  36.923   4.434   0.340
38112W        W 6453   9.677  13.297  10.036
38113W        W 6454  33.556   6.349   9.980
38114W        W 6455  44.276  43.388   4.287
38115W        W 6456   4.814  31.416   5.248
38116W        W 6457   2.463  18.673   3.245
38117W        W 6458  24.652   6.815   3.287
38118W        W 6459  38.869  29.495   5.225
38119W        W 6460   5.742  38.896   2.809
38120W        W 6461   2.725  42.295  11.086
38121W        W 6462  32.918   6.829  10.585
38122W        W 6463  25.194  11.298   3.827
38123W        W 6464  41.885  13.246  12.971
38124W        W 6465   8.888  15.299   4.723
38125W        W 6466  28.563  14.334  11.445
38126W        W 6467  40.483  27.513   0.299
38127W        W 6468  30.933  37.961  10.889
38128W        W 6469   7.194  11.249   0.263
38129W        W 6470  39.332  17.643   2.386
38130W        W 6471  25.047   3.839  13.453
38131W        W 6472  40.003  24.089   0.422
38132W        W 6473  26.528  13.755  11.385
38133W        W 6474  10.647  41.814   3.839
38134W        W 6475  17.588   7.384   3.673
38135W        W 6476  44.920   5.412   2.234
38136W        W 6477  23.133  24.211   2.853
38137W        W 6478  16.084  30.135  12.882
38138W        W 6479  39.390  26.628  10.625
38139W        W 6480  37.036   6.915   4.684
38140W        W 6481  24.498  41.523   2.742
38141W        W 6482  22.091  35.437   3.363
38142W        W 6483   2.862   5.839   2.326
38143W        W 6484  34.926  40.542   9.537
38144W        W 6485  19.737  18.120   2.262
38145W        W 6486  29.497   4.779   2.684
38146W        W 6487  36.449  25.086   0.348
38147W        W 6488  44.457  26.615   1.402
38148W        W 6489   3.357  43.822   4.327
38149W        W 6490  18.293  38.494  13.378
38150W        W 6491  14.267  33.986  11.980
38151W        W 6492   8.839  42.907   2.881
38152W        W 6493   8.693  15.307   0.295
38153W        W 6494  41.960  11.303  12.873
38154W        W 6495  33.615  29.980  13.445
38155W        W 6496  25.653  13.172  14.900
38156W        W 6497  24.186  36.434  10.455
38157W        W 6498  17.764  18.074   4.729
38158W        W 6499   1.458  11.714   3.712
38159W        W 6500  16.687  41.446   1.695
38160W        W 6501  25.169   9.268  12.564
38161W        W 6502  22.247  35.470  11.956
38162W        W 6503  36.418  28.989  13.930
38163W        W 6504  24.028   4.352   1.883
38164W        W 6505  16.171  44.776  14.929
38165W        W 6506  30.926  28.553  11.411
38166W        W 6507   1.915  33.995  14.444
38167W        W 6508  20.562   5.356   0.845
38168W        W 6509  40.907  41.465   4.258
38169W        W 6510  22.130   2.850  10.635
38170W        W 6511  18.755  27.650   4.325
38171W        W 6512   5.689  10.858  13.806
38172W        W 6513  43.787  12.147  10.403
38173W        W 6514  15.326   1.843   3.710
38174W        W 6515  30.930  28.151   0.247
38175W        W 6516  26.491  29.427   5.642
38176W        W 6517  28.497   0.461   2.783
38177W        W 6518  10.185  33.130   4.698
38178W        W 6519  44.266  12.836  10.596
38179W        W 6520  26.011  33.908  13.339
38180W        W 6521   4.382   6.815  14.387
38181W        W 6522  11.746  24.211   0.251
38182W        W 6523  13.215  40.306  13.793
38183W        W 6524  17.110  39.341   4.774
38184W        W 6525  27.446   7.221   2.301
38185W        W 6526  19.049  39.408  10.622
38186W        W 6527  42.500  10.322   1.820
38187W        W 6528  25.100   6.798   4.831
38188W        W 6529  40.049  44.822   2.359
38189W        W 6530  14.641   0.447  14.373
38190W        W 6531  11.664  34.073   2.416
38191W        W 6532  20.134  30.432  12.346
38192W        W 6533  40.474  22.131   2.331
38193W        W 6534  29.930  43.014   1.720
38194W        W 6535  31.027  41.977   2.857
38195W        W 6536  21.076  27.153  14.279
38196W        W 6537  11.283   3.249   3.217
38197W        W 6538  14.622  18.056   5.297
38198W        W 6539  15.782  15.186  11.099
38199W        W 6540  11.215  43.326  13.792
38200W        W 6541  28.150  17.147   1.362
38201W        W 6542   8.169   6.829  11.554
38202W        W 6543  26.074   6.217  13.346
38203W        W 6544  12.746  11.291   1.848
38204W        W 6545  30.048  24.000   0.468
38205W        W 6546  36.447  30.913   1.788
38206W        W 6547  14.249  17.270  10.449
38207W        W 6548  17.109  30.655  13.391
38208W        W 6549  15.215  33.047   0.894
38209W        W 6550  26.983  36.451   0.743
38210W        W 6551  16.579  44.452   0.930
38211W        W 6552  21.123   2.440   1.761
38212W        W 6553  42.390  21.663  11.019
38213W        W 6554  21.575  17.638  11.894
38214W        W 6555  13.228  36.047  14.782
38215W        W 6556   0.915  13.829  11.404
38216W        W 6557   1.418  35.053   3.329
38217W        W 6558   8.237  26.057  10.939
38218W        W 6559   6.794  35.417   3.781
38219W        W 6560   1.832  20.167  10.890
38220W        W 6561   1.902  41.451  14.851
38221W        W 6562  34.384   5.917  11.584
38222W        W 6563  18.144  30.920  13.429
38223W        W 6564  27.145  27.124   0.753
38224W        W 6565   3.315   5.783   4.635
38225W        W 6566  19.155   2.966  12.919
38226W        W 6567  26.668  18.235  13.968
38227W        W 6568  17.801  25.596   1.431
38228W        W 6569  31.151  32.635   3.859
38229W        W 6570  34.566  35.991   0.340
38230W        W 6571  18.602  31.495  13.458
38231W        W 6572  43.988  26.499  12.957
38232W        W 6573   8.699   5.902  10.981
38233W        W 6574  44.932  13.176  12.479
38234W        W 6575  28.165  33.518  14.401
38235W        W 6576   8.691  35.398   3.835
38236W        W 6577  34.596  35.367  14.328
38237W        W 6578  29.124  42.988  10.575
38238W        W 6579   2.459   1.293  11.081
38239W        W 6580  10.217   7.722  12.381
38240W        W 6581   7.389  29.039   4.758
38241W        W 6582  26.011  12.158   4.743
38242W        W 6583   3.854  30.476   2.408
38243W        W 6584  23.633  22.063   2.214
38244W        W 6585   1.940  31.405  13.038
38245W        W 6586  44.991   5.923   0.798
38246W        W 6587  14.793  39.462  12.405
38247W        W 6588  33.928   7.179  14.979
38248W        W 6589  29.629  17.615  14.005
38249W        W 6590  34.063   6.215   4.177
38250W        W 6591  25.110  24.095   3.834
38251W        W 6592  16.243  42.900  12.565
38252W        W 6593   8.709   7.309  12.879
38253W        W 6594  24.011  25.977  13.397
38254W        W 6595  31.622  40.032  11.445
38255W        W 6596   7.339  43.280   2.771
38256W        W 6597  42.994  12.220   4.194
38257W        W 6598   5.699   6.342  10.535
38258W        W 6599  22.101   7.184   4.191
38259W        W 6600   0.410  21.611  14.030
38260W        W 6601  16.314   1.404  10.423
38261W        W 6602  35.029  35.474  11.998
38262W        W 6603  22.067  15.173  13.869
38263W        W 6604  26.052  30.064   2.830
38264W        W 6605  14.771  42.825  12.367
38265W        W 6606  20.076  10.274   2.266
38266W        W 6607  10.164  39.925  12.547
38267W        W 6608  29.454   6.851  11.580
38268W        W 6609  29.945   0.447   4.340
38269W        W 6610  44.899  22.168   1.311
38270W        W 6611  30.110  18.563   3.831
38271W        W 6612  19.567   0.356   4.173
38272W        W 6613  43.413  11.309  13.514
38273W        W 6614  19.158  43.988  14.001
38274W        W 6615  21.578   7.726   3.716
38275W        W 6616   3.712  35.045   1.895
38276W        W 6617  33.591  39.489   3.854
38277W        W 6618   6.741  39.416   2.366
38278W        W 6619  42.367  35.601   3.708
38279W        W 6620  22.733  38.021   3.273
38280W        W 6621  26.136   8.353  14.871
38281W        W 6622  12.635  29.611  12.495
38282W        W 6623   3.258  10.315  13.487
38283W        W 6624  35.076  35.976   1.750
38284W        W 6625  24.688  21.260   2.864
38285W        W 6626   8.167  19.086  12.982
38286W        W 6627  32.599  29.090   1.895
38287W        W 6628  20.061  25.659   0.436
38288W        W 6629  42.361  41.965  12.465
38289W        W 6630  34.006  24.043   2.712
38290W        W 6631   8.320  39.470  10.544
38291W        W 6632   3.872  22.527  11.932
38292W        W 6633  39.884   9.161   3.817
38293W        W 6634   6.260  29.529   5.206
38294W        W 6635  22.628  39.040   0.483
38295W        W 6636  44.963  26.959   4.706
38296W        W 6637  22.545  15.781   4.698
38297W        W 6638  25.182  41.837   0.891
38298W        W 6639   2.723  11.338  11.473
38299W        W 6640  20.726  35.861   2.762
38300W        W 6641  32.617  13.116   4.671
38301W        W 6642  27.522   9.188  12.092
38302W        W 6643   6.760   5.928  14.852
38303W        W 6644  33.043  43.406  13.855
38304W        W 6645  18.155   5.316  14.898
38305W        W 6646  15.628  30.132   0.311
38306W        W 6647  33.036  11.855   0.891
38307W        W 6648  14.829  31.073   4.236
38308W        W 6649  34.574  41.316  14.019
38309W        W 6650   3.773  22.559  12.445
38310W        W 6651   7.810  25.514  14.832
38311W        W 6652  15.810   4.858  14.975
38312W        W 6653  35.075  10.642  11.560
38313W        W 6654  28.540  40.463   3.765
38314W        W 6655  11.854  27.183   2.722
38315W        W 6656  31.133  43.365   2.326
38316W        W 6657  20.166  15.681   2.376
38317W        W 6658  13.300  23.489   1.302
38318W        W 6659  30.956   7.226  13.849
38319W        W 6660  22.224   3.761   0.267
38320W        W 6661  41.851  29.559  10.470
38321W        W 6662  24.047  10.866  13.878
38322W        W 6663  28.995   9.197   0.380
38323W        W 6664  43.442  38.530   4.599
38324W        W 6665   6.762  15.817  14.370
38325W        W 6666  41.994  35.387  12.956
38326W        W 6667   2.409  12.746  13.437
38327W        W 6668   2.406  43.341  14.952
38328W        W 6669  20.221   2.358  12.533
38329W        W 6670   1.333  17.278  12.345
38330W        W 6671  28.000   3.457  14.502
38331W        W 6672  29.586   4.843   0.480
38332W        W 6673  33.969  18.279  11.938
38333W        W 6674  28.150  40.839   4.251
38334W        W 6675  14.676  23.989  14.019
38335W        W 6676  41.840   9.798   2.183
38336W        W 6677  38.030   8.322   2.690
38337W        W 6678   1.746   2.387   3.236
38338W        W 6679  42.857  11.145  10.571
38339W        W 6680  32.476  18.185  14.443
38340W        W 6681   1.418  18.242   0.888
38341W        W 6682  32.560  24.085  10.415
38342W        W 6683  36.510   7.743  10.417
38343W        W 6684  15.719  27.461   1.216
38344W        W 6685  17.249  24.099   5.106
38345W        W 6686  12.328   4.732   0.754
38346W        W 6687  16.806  32.905  13.835
38347W        W 6688  33.494  10.728  12.375
38348W        W 6689  16.600  22.525  10.889
38349W        W 6690  37.887  17.165   3.812
38350W        W 6691  11.179  16.684   2.804
38351W        W 6692  14.683  30.105  12.349
38352W        W 6693  35.096  37.034   2.707
38353W        W 6694   5.794  41.386   4.782
38354W        W 6695  20.755  27.566  12.497
38355W        W 6696  24.603  37.515  13.322
38356W        W 6697  42.813   6.285   4.302
38357W        W 6698  17.655  19.672   2.697
38358W        W 6699  27.156   2.927   0.934
38359W        W 6700  18.189  44.477  14.429
38360W        W 6701  16.154  19.231   4.606
38361W        W 6702  35.103  28.173  12.839
38362W        W 6703  19.140  42.900  10.486
38363W        W 6704  41.412  15.776   2.193
38364W        W 6705  24.674   8.784   2.840
38365W        W 6706  20.560   1.835   2.417
38366W        W 6707  36.538  17.663  12.059
38367W        W 6708  15.328  25.510  14.460
38368W        W 6709  10.696  15.189   2.685
38369W        W 6710   7.699  24.556  11.505
38370W        W 6711   9.700  15.707  14.435
38371W        W 6712  12.270  15.614   4.335
38372W        W 6713  43.971  11.858   1.414
38373W        W 6714  41.974  41.338   3.719
38374W        W 6715  20.161  29.472   4.305
38375W        W 6716  14.101  27.996   0.824
38376W        W 6717  43.406  14.162  10.637
38377W        W 6718  16.255   0.816  12.028
38378W        W 6719   4.227  16.623   0.284
38379W        W 6720   9.736   3.361   3.339
38380W        W 6721  16.577   5.835  13.040
38381W        W 6722  10.366  19.592  11.963
38382W        W 6723  11.699   5.746   4.787
38383W        W 6724  41.806   3.718   0.945
38384W        W 6725  40.991   6.902   3.638
38385W        W 6726   3.341  16.802   5.301
38386W        W 6727   6.310  37.573  14.293
38387W        W 6728  40.503   9.671  12.013
38388W        W 6729   9.717   3.913   0.939
38389W        W 6730   1.396  16.750  14.437
38390W        W 6731   3.408   7.390  10.985
38391W        W 6732  21.049  42.965   0.955
38392W        W 6733  25.635  22.078  10.519
38393W        W 6734  11.345   0.377   2.664
38394W        W 6735   4.738  25.514   1.247
38395W        W 6736  40.356  11.132  10.410
38396W        W 6737  17.732  25.087   2.364
38397W        W 6738  14.138  17.718   2.299
38398W        W 6739  42.379  10.764   1.793
38399W        W 6740   4.837  35.967   3.290
38400W        W 6741  30.606  24.673   3.148
38401W        W 6742  11.791   7.326  14.279
38402W        W 6743  33.080  16.075   4.322
38403W        W 6744  39.349   3.786   2.788
38404W        W 6745  35.885  35.024  10.437
38405W        W 6746   4.335  38.407   4.672
38406W        W 6747  38.453  31.083  12.011
38407W        W 6748  16.682  21.744  12.343
38408W        W 6749  26.514  41.292   5.174
38409W        W 6750  35.856  25.674   1.764
38410W        W 6751  29.002   2.315   0.938
38411W        W 6752  28.588  30.508  11.073
38412W        W 6753   6.799  31.619   0.953
38413W        W 6754  13.226  25.124  11.437
38414W        W 6755  39.457   9.698  14.767
38415W        W 6756  38.497   0.282  14.890
38416W        W 6757   0.874  44.888   1.724
38417W        W 6758  35.476  12.614   0.283
38418W        W 6759   7.183   5.236  13.436
38419W        W 6760  17.738  20.564  13.945
38420W        W 6761  11.365  24.005  12.095
38421W        W 6762  29.518   4.882   3.683
38422W        W 6763  10.846  10.690  10.636
38423W        W 6764  22.156  14.297   3.227
38424W        W 6765  19.626  34.979  12.923
38425W        W 6766   2.772  20.065   4.322
38426W        W 6767   4.813  43.794   1.718
38427W        W 6768  26.113  10.358  14.298
38428W        W 6769  42.978  35.902   4.707
38429W        W 6770   4.888  28.016  14.860
38430W        W 6771  26.978  19.578   3.839
38431W        W 6772  36.957  32.556   4.805
38432W        W 6773   0.971  27.622  13.791
38433W        W 6774  31.488  38.928  14.274
38434W        W 6775   8.221  31.148   3.800
38435W        W 6776   2.807   6.901   0.744
38436W        W 6777  18.573   2.922  13.849
38437W        W 6778  14.716  32.416   4.232
38438W        W 6779  27.066  44.795  12.388
38439W        W 6780  27.167   9.697  11.047
38440W        W 6781   2.227  29.009   3.658
38441W        W 6782  34.536  11.291   0.905
38442W        W 6783  33.389  21.263  12.346
38443W        W 6784   0.479  26.543  10.926
38444W        W 6785  11.226  41.900   1.395
38445W        W 6786  32.610  42.287   4.260
38446W        W 6787  30.959  21.078  13.867
38447W        W 6788  25.129  11.345  11.387
38448W        W 6789  27.980  42.981  11.862
38449W        W 6790  40.913  36.919   0.254
38450W        W 6791  36.010  23.242   2.189
38451W        W 6792  25.986  25.625   3.698
38452W        W 6793  37.884  14.106  13.414
38453W        W 6794  26.645  14.738  11.859
38454W        W 6795  19.637  16.252   2.373
38455W        W 6796  30.581  37.983  13.543
38456W        W 6797  31.614  15.237   4.170
38457W        W 6798  23.735  15.098  13.492
38458W        W 6799  30.977   0.757  10.922
38459W        W 6800  14.252  37.020   2.265
38460W        W 6801  17.747  36.849  12.071
38461W        W 6802   9.782  22.151   3.155
38462W        W 6803  22.067  40.342   1.377
38463W        W 6804  27.184  16.795  14.276
38464W        W 6805  14.277  44.797   4.657
38465W        W 6806  32.031  21.721   1.400
38466W        W 6807  35.972  20.152   1.753
38467W        W 6808  37.378  15.779   5.297
38468W        W 6809  14.603  15.268   2.189
38469W        W 6810  38.987  20.644   5.115
38470W        W 6811  12.709  35.385  13.511
38471W        W 6812   4.342  19.729   2.270
38472W        W 6813  25.663  15.124   1.244
38473W        W 6814  23.723  43.421   3.642
38474W        W 6815  39.390  19.040  11.461
38475W        W 6816  40.531  21.084   0.757
38476W        W 6817  25.147  34.417   0.372
38477W        W 6818  26.171  39.430   1.714
38478W        W 6819  10.765  27.497  11.584
38479W        W 6820   5.433   0.816  10.915
38480W        W 6821  19.761   9.699   0.329
38481W        W 6822  23.016  36.058  14.492
38482W        W 6823  31.914  11.775  13.980
38483W        W 6824  11.628  24.189  10.472
38484W        W 6825  13.834  42.301   1.904
38485W        W 6826  44.326  39.960  10.893
38486W        W 6827   6.378  24.117   0.921
38487W        W 6828  20.605  26.054  11.918
38488W        W 6829  35.394  31.558  12.454
38489W        W 6830   4.349   1.899  12.927
38490W        W 6831  21.514   8.221   4.296
38491W        W 6832  25.570  10.685   0.741
38492W        W 6833   5.800   2.440   0.933
38493W        W 6834   7.215  39.467  10.979
38494W        W 6835  11.307  38.988   3.833
38495W        W 6836  31.964  38.568  10.590
38496W        W 6837   1.405   4.729  14.864
38497W        W 6838  37.990  44.491  12.033
38498W        W 6839  29.022  13.141  12.986
38499W        W 6840  43.846  32.098   1.860
38500W        W 6841  13.834   6.837  13.517
38501W        W 6842   6.262  31.541   1.722
38502W        W 6843  42.462  21.692   0.742
38503W        W 6844  30.520   9.772  14.365
38504W        W 6845  25.665  35.057   0.740
38505W        W 6846  37.355  30.580  11.566
38506W        W 6847   1.736  24.113  12.053
38507W        W 6848  15.272   3.381  11.462
38508W        W 6849   2.840  21.157  12.548
38509W        W 6850  14.690  16.789   1.720
38510W        W 6851  31.600   0.491  11.535
38511W        W 6852  10.700  12.661   5.739
38512W        W 6853   5.238   9.844  11.480
38513W        W 6854   3.326  12.624  14.016
38514W        W 6855   0.342  25.483  10.635
38515W        W 6856  38.420  31.081   3.182
38516W        W 6857   0.988  18.251  10.991
38517W        W 6858  16.257   8.849   5.231
38518W        W 6859  14.809  33.622   2.678
38519W        W 6860  28.670  17.768  14.462
38520W        W 6861  40.309  21.193  14.906
38521W        W 6862  14.328  21.160  10.965
38522W        W 6863  11.173  14.703  13.798
38523W        W 6864   4.931  20.717  11.084
38524W        W 6865  10.332  43.803   3.861
38525W        W 6866  10.649  41.852  11.465
38526W        W 6867  38.938  15.751  13.326
38527W        W 6868  16.783  17.173   3.342
38528W        W 6869   8.269  22.651  12.857
38529W        W 6870  26.985   5.338   4.348
38530W        W 6871  14.160  40.470  14.287
38531W        W 6872   1.873  38.848   3.781
38532W        W 6873  11.789  41.895  13.992
38533W        W 6874   6.694   2.737   3.326
38534W        W 6875  25.674  15.602  13.870
38535W        W 6876   8.674  12.768  11.869
38536W        W 6877  27.568  44.828   2.387
38537W        W 6878  39.925   7.356  12.856
38538W        W 6879  34.446  19.697   4.208
38539W        W 6880   1.948  32.503  14.429
38540W        W 6881  32.058  43.438   3.720
38541W        W 6882  40.535  28.536  11.495
38542W        W 6883  22.741  16.114   2.363
38543W        W 6884   5.224  25.019   0.790
38544W        W 6885  18.175  19.183   3.171
38545W        W 6886  21.589  25.636   2.220
38546W        W 6887   0.873  28.612   0.259
38547W        W 6888   0.293  30.107  11.530
38548W        W 6889  36.953  17.180  11.409
38549W        W 6890  35.548  36.915  14.940
38550W        W 6891  35.934   8.321  10.481
38551W        W 6892  13.765  24.159  10.565
38552W        W 6893  16.277  11.637  10.063
38553W        W 6894  23.065  26.622  12.429
38554W        W 6895   9.676  10.854   0.329
38555W        W 6896  14.630  40.515  13.822
38556W        W 6897  32.575  30.045  12.059
38557W        W 6898   2.862  30.918  13.990
38558W        W 6899  43.457  25.489  14.768
38559W        W 6900  32.584  29.079   0.264
38560W        W 6901  10.706  13.708   3.368
38561W        W 6902  29.510  12.655  11.067
38562W        W 6903   2.755  14.671  11.529
38563W        W 6904  21.115  17.757  14.317
38564W        W 6905   9.726  38.405   3.148
38565W        W 6906  26.566  37.416  14.333
38566W        W 6907  18.776  23.000   3.162
38567W        W 6908  13.157   5.283   3.210
38568W        W 6909  34.867  42.818   3.736
38569W        W 6910  28.079  30.124   4.622
38570W        W 6911  18.693  38.544   1.273
38571W        W 6912  15.149  14.786   2.306
38572W        W 6913  32.409  31.532  11.934
38573W        W 6914  20.119  33.390  14.891
38574W        W 6915   0.849  32.523   0.282
38575W        W 6916   5.783  19.594   1.270
38576W        W 6917  41.409  22.240   4.768
38577W        W 6918  15.137  26.023  14.939
38578W        W 6919  25.650   3.826   4.813
38579W        W 6920  12.199  23.501  12.901
38580W        W 6921  34.995   6.900  11.053
38581W        W 6922  24.227  37.491   3.803
38582W        W 6923  35.992  20.202   4.274
38583W        W 6924  42.447  29.024   1.323
38584W        W 6925  25.121  23.198  14.812
38585W        W 6926  13.604  44.811  13.877
38586W        W 6927  44.486  35.021  14.965
38587W        W 6928   6.826   3.762   4.816
38588W        W 6929  28.018  16.674   0.824
38589W        W 6930  15.124   3.312  10.603
38590W        W 6931  30.449   3.374  13.899
38591W        W 6932  33.019   1.404  11.564
38592W        W 6933   5.927   7.722  14.961
38593W        W 6934  35.590   6.830   3.310
38594W        W 6935  44.786  13.750  14.787
38595W        W 6936  25.006   4.777  11.862
38596W        W 6937   4.723  35.401  11.058
38597W        W 6938  24.204  24.709  11.036
38598W        W 6939  15.215  42.795  12.052
38599W        W 6940  17.582  20.136  14.347
38600W        W 6941  26.696  36.899  14.373
38601W        W 6942  21.630  31.901   4.121
38602W        W 6943   1.753  38.425  14.985
38603W        W 6944   9.783  18.093   1.828
38604W        W 6945  34.040  13.667   0.328
38605W        W 6946  12.667   1.759   1.402
38606W        W 6947  22.721  17.241  11.925
38607W        W 6948  41.803   6.796  11.964
38608W        W 6949  31.523  31.960   3.304
38609W        W 6950  29.519   9.762   1.916
38610W        W 6951  40.858  20.098  11.403
38611W        W 6952  30.047  40.306  11.568
38612W        W 6953  35.602  34.381  14.834
38613W        W 6954  15.280  10.720  10.635
38614W        W 6955  10.175  33.883   0.242
38615W        W 6956   3.238   8.211   3.794
38616W        W 6957  30.077   4.943  11.906
38617W        W 6958  14.684  25.052   2.803
38618W        W 6959  22.637   4.331   4.219
38619W        W 6960   1.784  38.339   1.229
38620W        W 6961  42.850  41.921   1.782
38621W        W 6962   5.740  26.517   0.844
38622W        W 6963   6.315  19.681   9.987
38623W        W 6964  42.008   7.315  14.396
38624W        W 6965  21.654  34.080   3.314
38625W        W 6966  11.253  18.785   2.829
38626W        W 6967  39.873  27.042  11.036
38627W        W 6968  13.188   8.309   0.334
38628W        W 6969  38.863  17.222  14.997
38629W        W 6970  13.156   9.660  12.863
38630W        W 6971  12.140   0.371   1.701
38631W        W 6972  14.243  16.719   4.208
38632W        W 6973  22.712  36.557  12.932
38633W        W 6974   7.273   6.844   3.355
38634W        W 6975   4.884  17.261   0.771
38635W        W 6976  19.210  10.259   4.707
38636W        W 6977  34.383  16.270   4.776
38637W        W 6978  13.243  26.066  10.937
38638W        W 6979  43.831  37.975   2.886
38639W        W 6980   8.662  43.014   1.912
38640W        W 6981  33.879   9.217   0.829
38641W        W 6982  40.483  33.430  13.905
38642W        W 6983  13.762   8.400  14.822
38643W        W 6984  13.131  36.962   2.339
38644W        W 6985  34.400  23.581  12.073
38645W        W 6986  43.336   6.402   2.417
38646W        W 6987   1.273   4.433   4.789
38647W        W 6988  34.040   8.782   0.298
38648W        W 6989  35.503  11.185  11.589
38649W        W 6990  14.143  31.429  10.936
38650W        W 6991   6.919  42.976  11.449
38651W        W 6992  24.542  41.812  13.981
38652W        W 6993  32.532  26.613  11.593
38653W        W 6994  32.123   6.827   3.652
38654W        W 6995  35.923  11.731  11.114
38655W        W 6996  34.941  16.766   3.749
38656W        W 6997  27.532  34.499   2.375
38657W        W 6998  32.542  25.086  14.381
38658W        W 6999  42.403  42.807   1.894
38659W        W 7000  31.469  22.558  14.317
38660W        W 7001   0.971  37.445   4.140
38661W        W 7002  21.157  35.481   1.435
38662W        W 7003   1.924  25.559  12.980
38663W        W 7004  40.476   8.708  13.403
38664W        W 7005  28.619   9.680   1.838
38665W        W 7006   6.782   0.328   0.810
38666W        W 7007  21.072  28.985  13.894
38667W        W 7008  16.674  21.023   0.809
38668W        W 7009  12.247  43.469   4.155
38669W        W 7010  20.628   0.314   0.341
38670W        W 7011  31.143   3.854   0.323
38671W        W 7012  27.195  26.642   3.360
38672W        W 7013  40.858  31.512   4.113
38673W        W 7014  32.020  25.094   1.741
38674W        W 7015  21.528  43.828   4.162
38675W        W 7016  23.204   8.374   2.317
38676W        W 7017  37.889   4.708   0.837
38677W        W 7018   4.237  10.652   4.206
38678W        W 7019  38.508  40.401   1.392
38679W        W 7020  20.555   5.422   0.470
38680W        W 7021  27.033  13.786   3.745
38681W        W 7022  29.993  18.779   3.197
38682W        W 7023  39.532  13.758   4.173
38683W        W 7024  35.474  32.059   2.281
38684W        W 7025  44.426   7.803   1.724
38685W        W 7026  22.580   0.423  12.925
38686W        W 7027   4.753   3.325  11.433
38687W        W 7028  35.453  27.049  13.817
38688W        W 7029  12.178   0.936  14.931
38689W        W 7030  28.186  24.543  14.406
38690W        W 7031  31.507  21.620  12.846
38691W        W 7032   2.333  17.650   3.211
38692W        W 7033  29.622  40.981  12.467
38693W        W 7034  35.371   3.331  13.981
38694W        W 7035   1.475  31.152  12.551
38695W        W 7036  41.888  26.524   1.833
38696W        W 7037  38.004   9.287   2.269
38697W        W 7038  28.148  17.694  13.793
38698W        W 7039  38.038  11.700   3.645
38699W        W 7040  34.482  23.586   0.869
38700W        W 7041  23.518   6.742   1.346
38701W        W 7042  34.042   9.247   2.362
38702W        W 7043  44.890  13.287   1.276
38703W        W 7044  12.773  18.606   4.159
38704W        W 7045  17.695  33.478  11.020
38705W        W 7046  17.074   1.895  10.962
38706W        W 7047  22.545  21.702   3.220
38707W        W 7048  24.123  25.533   1.900
38708W        W 7049  19.646  43.505  12.471
38709W        W 7050  26.603   6.348  13.988
38710W        W 7051  44.940   2.395   1.383
38711W        W 7052  23.552  29.943   1.773
38712W        W 7053   0.421  36.092   2.388
38713W        W 7054  36.025  15.224   3.658
38714W        W 7055  19.645  29.102   2.385
38715W        W 7056  13.169   8.314   2.789
38716W        W 7057   8.831  40.824  13.985
38717W        W 7058  23.077  32.495  12.871
38718W        W 7059  31.967   6.790  11.025
38719W        W 7060   9.819  36.484   0.477
38720W        W 7061  40.885  32.089   3.832
38721W        W 7062  25.517   4.410  12.397
38722W        W 7063  39.947  35.493  13.511
38723W        W 7064  38.983   9.317   1.819
38724W        W 7065  18.787  32.101  13.365
38725W        W 7066  19.543   6.719   2.371
38726W        W 7067  35.490  31.610   3.318
38727W        W 7068  18.575  38.909  14.838
38728W        W 7069  36.908  25.006   4.832
38729W        W 7070  33.954  23.588   3.716
38730W        W 7071   7.312  19.235  11.470
38731W        W 7072   8.772  44.294   4.742
38732W        W 7073  27.050  27.999   0.323
38733W        W 7074  30.511  27.561   3.184
38734W        W 7075  33.611   2.879   0.757
38735W        W 7076  37.350  29.559  10.899
38736W        W 7077   1.459  27.099  12.985
38737W        W 7078  31.926  12.823  13.956
38738W        W 7079   6.737   8.328   2.786
38739W        W 7080  12.682  22.707   4.261
38740W        W 7081  25.129  10.181  14.883
38741W        W 7082  24.082  15.669  10.499
38742W        W 7083   9.391   4.870   1.433
38743W        W 7084  41.923  15.196   2.371
38744W        W 7085   5.850  20.646   1.816
38745W        W 7086  10.695  18.061   2.752
38746W        W 7087   7.787  44.773   3.705
38747W        W 7088   7.698  18.774   1.423
38748W        W 7089   8.202  32.636   2.360
38749W        W 7090   1.854  11.719   2.191
38750W        W 7091  11.866  27.974  11.878
38751W        W 7092   0.257  33.890  14.864
38752W        W 7093   1.410  11.318  14.924
38753W        W 7094   0.262  44.475   1.810
38754W        W 7095  29.927   9.258   1.231
38755W        W 7096   4.881  44.845   1.407
38756W        W 7097  17.621  34.580  14.879
38757W        W 7098  18.785   6.385   5.260
38758W        W 7099  39.924  34.510   1.406
38759W        W 7100  20.763  44.853   1.451
38760W        W 7101  34.903   9.831  13.312
38761W        W 7102  20.615  30.932  10.486
38762W        W 7103  22.630   3.747  11.590
38763W        W 7104  34.043  30.018   0.881
38764W        W 7105  31.094  18.579   3.320
38765W        W 7106  39.507  35.995  13.848
38766W        W 7107   9.860   9.373  14.028
38767W        W 7108  41.933   1.308  12.364
38768W        W 7109  16.271  31.602   1.775
38769W        W 7110  20.561  29.590  13.525
38770W        W 7111   5.721   1.473   0.846
38771W        W 7112   9.206   7.811  14.417
38772W        W 7113  30.038   3.361  10.417
38773W        W 7114   0.864  44.821   3.182
38774W        W 7115   5.711  25.575   3.334
38775W        W 7116  39.877  39.053  14.458
38776W        W 7117  38.879  19.183  11.038
38777W        W 7118  41.484  33.402   0.328
38778W        W 7119   8.722  40.003   0.408
38779W        W 7120   6.854  25.660  10.549
38780W        W 7121  23.539  12.250   4.322
38781W        W 7122  13.708  38.361   4.812
38782W        W 7123  34.018  10.227  11.098
38783W        W 7124  33.041  44.802  13.976
38784W        W 7125   7.736  38.003   0.937
38785W        W 7126   8.208  36.097  10.406
38786W        W 7127  41.906  26.497  14.346
38787W        W 7128  43.298   0.984   4.616
38788W        W 7129  37.856  29.073  13.940
38789W        W 7130   7.672  43.434  11.603
38790W        W 7131   2.291   6.236   4.635
38791W        W 7132  35.595  27.531   2.181
38792W        W 7133  38.335  24.147  11.886
38793W        W 7134  30.420  27.616  10.404
38794W        W 7135  16.259   7.680  10.522
38795W        W 7136  22.591  44.944   4.701
38796W        W 7137   6.825  13.670   2.233
38797W        W 7138   6.715  17.561  12.825
38798W        W 7139  13.225  39.920  11.067
38799W        W 7140  35.597  11.742  14.414
38800W        W 7141  44.923  42.786   0.341
38801W        W 7142   5.915  34.533   4.149
38802W        W 7143  10.818  30.988   1.341
38803W        W 7144  23.164   3.406   3.719
38804W        W 7145  23.011  33.881  12.578
38805W        W 7146  28.562   3.348   2.273
38806W        W 7147  43.391  20.251   3.700
38807W        W 7148  14.282  14.831  11.072
38808W        W 7149  10.229  23.569   1.438
38809W        W 7150  40.861   8.888  14.912
38810W        W 7151  10.772  19.083  11.122
38811W        W 7152  34.985  39.443  10.426
38812W        W 7153  27.657  42.813  12.824
38813W        W 7154  27.985   5.912   3.763
38814W        W 7155  28.963  41.011  11.477
38815W        W 7156  22.008  44.953   3.637
38816W        W 7157  21.095  18.638  11.014
38817W        W 7158  24.163  17.304  10.546
38818W        W 7159   9.241   2.318   4.790
38819W        W 7160  35.104  39.550   3.807
38820W        W 7161  17.261  21.237  13.966
38821W        W 7162  23.578  38.471  12.384
38822W        W 7163  17.592  18.613   2.887
38823W        W 7164  29.165   8.760  14.852
38824W        W 7165  32.135  42.789   0.911
38825W        W 7166  25.687  44.487   3.207
38826W        W 7167  21.043  16.754  12.964
38827W        W 7168   3.453  41.315   0.872
38828W        W 7169  23.552  10.208  11.383
38829W        W 7170  27.140  18.734   3.187
38830W        W 7171  31.529  27.479  11.586
38831W        W 7172  41.294   2.800   1.721
38832W        W 7173  33.618  35.434  13.378
38833W        W 7174  35.986  31.045  11.413
38834W        W 7175  12.326  11.628   4.663
38835W        W 7176  16.787  14.298  13.328
38836W        W 7177  31.523  39.362   4.624
38837W        W 7178  36.380  30.933   2.713
38838W        W 7179  21.064  15.273  13.349
38839W        W 7180  41.852   0.954   2.281
38840W        W 7181  41.795   9.223   2.788
38841W        W 7182  42.323   2.891  11.508
38842W        W 7183  27.195  35.925   5.213
38843W        W 7184  24.049   9.352  12.378
38844W        W 7185  21.627   2.798   4.640
38845W        W 7186  31.539  17.124  12.998
38846W        W 7187  21.194  24.025   0.268
38847W        W 7188  29.014  24.109   0.875
38848W        W 7189   1.864   3.827   1.288
38849W        W 7190  40.875  26.042   0.750
38850W        W 7191  40.046  26.657   1.913
38851W        W 7192  32.410  38.436   5.571
38852W        W 7193  39.935  13.653   4.732
38853W        W 7194  38.932  34.606  14.782
38854W        W 7195  30.932  20.210  10.624
38855W        W 7196  38.552  23.024  11.516
38856W        W 7197  24.711  15.797   0.779
38857W        W 7198  12.641  15.186  12.848
38858W        W 7199  32.588  36.067   5.221
38859W        W 7200   8.743   0.335   3.219
38860W        W 7201  34.521  40.496   3.765
38861W        W 7202  44.434  25.624  13.359
38862W        W 7203  14.797  28.516   1.403
38863W        W 7204   6.237   7.221   4.128
38864W        W 7205  31.645   2.386   2.387
38865W        W 7206   4.909  24.705   4.249
38866W        W 7207  36.046  33.092   2.416
38867W        W 7208  17.109  37.023  10.889
38868W        W 7209   8.825  16.766  13.469
38869W        W 7210  38.071  21.025   4.724
38870W        W 7211  29.099  20.605  11.916
38871W        W 7212  26.485  22.236  11.574
38872W        W 7213  31.033   7.882   3.226
38873W        W 7214   7.329  39.835   1.698
38874W        W 7215  26.968   3.284  12.830
38875W        W 7216   1.436  19.733   0.924
38876W        W 7217  12.834  36.564   3.736
38877W        W 7218  36.359  34.940   0.911
38878W        W 7219  18.213  39.381  12.078
38879W        W 7220   2.365  36.437  14.996
38880W        W 7221  34.479  30.657   0.388
38881W        W 7222  36.866  24.551   2.678
38882W        W 7223  37.534  26.559  10.120
38883W        W 7224   0.809  41.413  10.901
38884W        W 7225  10.166   6.813   3.796
38885W        W 7226   0.929  27.651  12.828
38886W        W 7227  26.988   6.409   3.790
38887W        W 7228  17.164  36.871   2.349
38888W        W 7229   6.743  30.924   1.725
38889W        W 7230  16.149   8.211   1.738
38890W        W 7231  36.365  30.547  11.857
38891W        W 7232  17.632  26.144  13.391
38892W        W 7233   1.276  30.633  12.430
38893W        W 7234  43.439  14.222   2.399
38894W        W 7235  16.221  34.565  14.307
38895W        W 7236  34.371  26.157  12.083
38896W        W 7237  30.024  39.523  13.387
38897W        W 7238  41.802  13.725   3.283
38898W        W 7239  44.317   0.750   2.368
38899W        W 7240  14.286   5.278   1.288
38900W        W 7241  30.018  38.471   1.884
38901W        W 7242  18.739   5.340   2.879
38902W        W 7243  40.323   9.743  12.353
38903W        W 7244  20.087   9.153  14.794
38904W        W 7245  30.923   3.870   3.206
38905W        W 7246  29.556   3.274   4.794
38906W        W 7247  38.975   5.795   3.256
38907W        W 7248  44.798  43.279   3.346
38908W        W 7249  35.013  40.467   3.158
38909W        W 7250  25.599  12.643   3.685
38910W        W 7251  37.396   7.694   2.827
38911W        W 7252  38.043  28.938  14.933
38912W        W 7253   0.330  12.143   0.792
38913W        W 7254  10.361  41.849  14.838
38914W        W 7255  38.892  31.442  12.353
38915W        W 7256   9.187  41.953  14.005
38916W        W 7257  17.083   6.329  14.830
38917W        W 7258   6.893  19.276   1.791
38918W        W 7259   8.858  11.848   0.378
38919W        W 7260   1.807  30.480   0.418
38920W        W 7261  11.775  42.478   1.333
38921W        W 7262  18.614  37.476   4.258
38922W        W 7263   6.334  36.560  10.901
38923W        W 7264  10.767   0.251  11.114
38924W        W 7265  39.415   9.375  14.986
38925W        W 7266   3.273   3.867   3.232
38926W        W 7267  20.054  13.181   0.752
38927W        W 7268  16.662  35.919   3.695
38928W        W 7269  27.026  44.904   4.340
38929W        W 7270  19.667  19.563   1.300
38930W        W 7271  41.877  32.443   3.253
38931W        W 7272  10.306  38.885  10.960
38932W        W 7273  13.220  24.628  13.378
38933W        W 7274  13.737  12.328   0.284
38934W        W 7275  36.412  23.653   0.807
38935W        W 7276  27.631  30.643   0.949
38936W        W 7277  12.361  21.150  12.013
38937W        W 7278   2.871  27.593   2.699
38938W        W 7279   8.221  27.684   0.906
38939W        W 7280  41.330   2.239  11.605
38940W        W 7281   1.829  35.921   1.275
38941W        W 7282  30.415  21.188  14.994
38942W        W 7283  29.460  27.628  14.991
38943W        W 7284  38.864  14.301  11.099
38944W        W 7285  31.541  31.558  11.510
38945W        W 7286  21.741  10.663  12.055
38946W        W 7287  40.376  31.412   4.133
38947W        W 7288  18.155  16.109   0.420
38948W        W 7289  43.271  22.633  14.002
38949W        W 7290  38.479  16.723  10.976
38950W        W 7291  38.339  37.445   2.192
38951W        W 7292  18.757   7.224   1.351
38952W        W 7293  31.443  13.265   2.405
38953W        W 7294  24.191  11.664   0.727
38954W        W 7295  41.791   7.727  10.549
38955W        W 7296  42.423  34.903   3.341
38956W        W 7297   9.297  43.426  12.074
38957W        W 7298   4.784   0.824  10.482
38958W        W 7299  40.973  19.185  12.944
38959W        W 7300  39.433  27.540  13.036
38960W        W 7301  27.166  15.604   1.773
38961W        W 7302  39.038  44.312   5.291
38962W        W 7303  24.048  41.480  13.828
38963W        W 7304  14.109  12.152   3.655
38964W        W 7305  43.380  29.467  10.901
38965W        W 7306  32.912  18.726   0.731
38966W        W 7307   7.810  37.463  10.076
38967W        W 7308  21.079  22.614   3.785
38968W        W 7309  25.489  16.744  12.490
38969W        W 7310  44.758  41.983   1.431
38970W        W 7311  38.421  37.414   3.669
38971W        W 7312   9.340   2.723  10.517
38972W        W 7313  35.097  33.437  13.805
38973W        W 7314  26.537  18.143   0.470
38974W        W 7315  10.789  17.217   2.737
38975W        W 7316  38.498  32.947   0.847
38976W        W 7317  32.040  22.141  11.868
38977W        W 7318  24.694   4.876  12.994
38978W        W 7319  30.975  18.732  12.954
38979W        W 7320  28.634  43.787  14.432
38980W        W 7321   4.920  40.327   3.694
38981W        W 7322  41.945  33.597  13.349
38982W        W 7323   8.282  20.217  13.428
38983W        W 7324  34.028  38.892   1.847
38984W        W 7325  44.408  24.086  11.404
38985W        W 7326  35.399  14.140   2.215
38986W        W 7327   0.926  43.348  11.057
38987W        W 7328   6.734  16.281   4.252
38988W        W 7329  37.572  37.042   2.760
38989W        W 7330  44.329   5.258  11.943
38990W        W 7331  17.160  21.574  14.788
38991W        W 7332  25.098  29.075  10.563
38992W        W 7333   9.855   7.773   0.468
38993W        W 7334  33.581  35.399   4.657
38994W        W 7335  39.507   6.401   2.418
38995W        W 7336  11.751  29.586   3.361
38996W        W 7337  29.070  18.687  12.868
38997W        W 7338  13.603  24.679  12.478
38998W        W 7339   0.407  28.677   1.875
38999W        W 7340  26.480  40.530  14.280
39000W        W 7341   9.714  13.811   1.784
39001W        W 7342  29.983   7.399   1.699
39002W        W 7343  34.032  16.790   4.730
39003W        W 7344  33.958  34.615   0.433
39004W        W 7345  35.494  11.303  10.955
39005W        W 7346  25.048  40.820  12.467
39006W        W 7347  27.537  31.578  14.797
39007W        W 7348  41.846  34.547   4.704
39008W        W 7349  12.229  33.126  11.476
39009W        W 7350  22.568  11.801   3.817
39010W        W 7351   0.484   8.362   1.759
39011W        W 7352   7.739  22.677   4.170
39012W        W 7353   4.280  29.635  11.087
39013W        W 7354   4.698  18.286   2.210
39014W        W 7355  31.468  29.124   0.354
39015W        W 7356  28.175  28.533   4.778
39016W        W 7357   1.813  40.010   0.924
39017W        W 7358   4.753  18.578   4.773
39018W        W 7359  33.568  30.993  12.502
39019W        W 7360  19.734  29.958  12.972
39020W        W 7361   8.818  14.171   2.737
39021W        W 7362  17.061  12.798  12.933
39022W        W 7363  34.454   1.441  13.979
39023W        W 7364  21.043   6.219   1.238
39024W        W 7365  27.047  13.203   0.364
39025W        W 7366   1.914  34.075   0.469
39026W        W 7367  25.047  36.544   1.277
39027W        W 7368  30.968  18.600  14.368
39028W        W 7369  24.997  19.178   1.223
39029W        W 7370   2.944  16.639  10.448
39030W        W 7371  12.750  19.075   4.135
39031W        W 7372  14.591  32.057   3.637
39032W        W 7373  41.957  42.399   1.781
39033W        W 7374  19.624  31.018  14.439
39034W        W 7375   1.867   3.353  11.400
39035W        W 7376  20.251  38.506  13.482
39036W        W 7377  12.206  24.029  14.918
39037W        W 7378  44.326   8.295   3.728
39038W        W 7379   9.311  43.947  14.853
39039W        W 7380  44.329  11.642   2.725
39040W        W 7381  33.402  40.008  11.406
39041W        W 7382  17.745  30.633  11.878
39042W        W 7383  23.013   0.395   0.291
39043W        W 7384  36.558   4.265  12.465
39044W        W 7385  20.701  40.905  12.470
39045W        W 7386  23.148  30.590  14.912
39046W        W 7387  21.726  27.620   2.295
39047W        W 7388   4.800  13.235   4.641
39048W        W 7389  13.615  10.658   4.215
39049W        W 7390  18.239  17.097  13.463
39050W        W 7391  24.196  36.550   4.681
39051W        W 7392  21.132  26.466   2.851
39052W        W 7393  32.933  12.196   2.724
39053W        W 7394   3.415  30.436   3.774
39054W        W 7395  18.763  33.600  12.005
39055W        W 7396  43.920   7.341  11.961
39056W        W 7397  30.430  23.074  13.792
39057W        W 7398  40.497  21.157   0.388
39058W        W 7399   4.864   8.284  10.522
39059W        W 7400  12.632   3.910   2.389
39060W        W 7401   4.790   8.230   0.377
39061W        W 7402  30.650   7.777   3.283
39062W        W 7403  22.745  33.888  12.493
39063W        W 7404   7.902  44.267  13.440
39064W        W 7405  17.128  43.856   2.895
39065W        W 7406  31.906  14.757  12.511
39066W        W 7407  28.463  19.165  11.107
39067W        W 7408  24.677   5.353  11.588
39068W        W 7409  11.302  36.447  10.929
39069W        W 7410  41.010  11.246   4.205
39070W        W 7411  33.533   6.230   0.817
39071W        W 7412  22.661  12.231   4.237
39072W        W 7413   3.252  23.725  12.947
39073W        W 7414  13.645  37.578  14.478
39074W        W 7415  35.094  20.269  12.886
39075W        W 7416  29.159  20.164  14.835
39076W        W 7417  41.355  15.301  11.070
39077W        W 7418  28.944  36.354   2.250
39078W        W 7419  36.358  35.399  14.806
39079W        W 7420  27.573  16.248   3.171
39080W        W 7421  27.082   2.410   0.762
39081W        W 7422  32.905  41.311  11.581
39082W        W 7423   7.361   7.269   0.242
39083W        W 7424  42.894   4.219   2.335
39084W        W 7425  44.378  38.899  12.381
39085W        W 7426  32.523  15.271   2.381
39086W        W 7427   7.310  25.018  11.013
39087W        W 7428   6.192  39.883   3.171
39088W        W 7429   8.308  10.367  12.987
39089W        W 7430   1.909  40.918  12.423
39090W        W 7431  29.594  31.008  12.836
39091W        W 7432  29.652  42.311  13.442
39092W        W 7433  36.373  21.018   4.241
39093W        W 7434   2.422  35.009   1.711
39094W        W 7435   5.194  44.314  13.394
39095W        W 7436  20.271  10.266   0.738
39096W        W 7437   9.811  39.543   1.357
39097W        W 7438   9.165  32.589  10.466
39098W        W 7439  33.006  21.180   1.347
39099W        W 7440  29.547  25.482  11.876
39100W        W 7441  24.080  36.418  11.110
39101W        W 7442  31.129  34.991  11.412
39102W        W 7443   5.385  41.872   0.808
39103W        W 7444  21.543  26.993   0.477
39104W        W 7445  22.746  13.765   1.896
39105W        W 7446  34.057  18.650  10.426
39106W        W 7447  19.240  15.220  11.116
39107W        W 7448  20.542  23.626  12.354
39108W        W 7449   1.931  15.205  12.352
39109W        W 7450  12.255  40.415   9.595
39110W        W 7451  38.476  13.785  14.481
39111W        W 7452   7.741  25.175  10.151
39112W        W 7453  36.895   6.731  12.921
39113W        W 7454  28.623  29.988  14.807
39114W        W 7455  39.841  36.397  12.422
39115W        W 7456  36.391  37.458   1.778
39116W        W 7457  16.203  43.843   2.868
39117W        W 7458  30.983  31.457  10.568
39118W        W 7459  38.499  25.683   3.364
39119W        W 7460  36.024  29.009  11.563
39120W        W 7461  44.832  10.777  14.862
39121W        W 7462  43.767  43.818  12.453
39122W        W 7463   3.898  21.216   0.411
39123W        W 7464  38.872  17.695   2.721
39124W        W 7465  23.029  26.160   3.756
39125W        W 7466   6.220  23.164  10.529
39126W        W 7467   5.399  12.764  13.009
39127W        W 7468  38.880  27.488   0.829
39128W        W 7469  18.282  17.142  14.930
39129W        W 7470  30.008  27.097  11.940
39130W        W 7471  28.546  39.330   2.743
39131W        W 7472  20.111  42.031   3.311
39132W        W 7473  26.070  24.565   2.894
39133W        W 7474  42.808  12.707   4.227
39134W        W 7475  26.020  12.820   3.364
39135W        W 7476   3.415  11.330  10.991
39136W        W 7477   1.293  33.469  12.568
39137W        W 7478   2.403  29.956   1.770
39138W        W 7479  21.176  28.035   5.303
39139W        W 7480  17.568  31.900  13.362
39140W        W 7481  19.198  26.204  11.433
39141W        W 7482   0.976  20.053   0.326
39142W        W 7483  12.351  35.954  14.031
39143W        W 7484  33.927  11.168  13.453
39144W        W 7485  33.523  15.321  14.881
39145W        W 7486  27.989  13.599   1.832
39146W        W 7487  34.417  41.876  12.031
39147W        W 7488  26.588  40.976   1.920
39148W        W 7489   8.743  11.338   0.763
39149W        W 7490  18.180  33.977   4.128
39150W        W 7491   6.855  27.096   3.641
39151W        W 7492  35.883  33.065  12.887
39152W        W 7493  33.886  39.399   1.442
39153W        W 7494  18.073  37.905   0.825
39154W        W 7495  34.970  43.438   3.730
39155W        W 7496  14.146  43.017   1.871
39156W        W 7497   3.744  44.323   2.215
39157W        W 7498  41.461  10.809   1.211
39158W        W 7499  37.834  39.060  11.891
39159W        W 7500  20.230  18.717   0.278
39160W        W 7501  20.603  31.413   2.795
39161W        W 7502  43.849  20.748   3.220
39162W        W 7503  10.850  14.632   4.817
39163W        W 7504  26.559   6.314  11.878
39164W        W 7505  22.698  41.885   1.916
39165W        W 7506  23.495  20.695  13.450
39166W        W 7507  20.045   2.276   1.829
39167W        W 7508  23.632   3.860  10.596
39168W        W 7509  33.051  39.461   4.678
39169W        W 7510   2.756   1.424  10.500
39170W        W 7511   3.800  21.035  12.443
39171W        W 7512  33.948  18.648  10.899
39172W        W 7513  33.057  24.586  14.939
39173W        W 7514  43.881  25.480  10.513
39174W        W 7515  19.040   8.333   2.684
39175W        W 7516  38.882   3.886   1.428
39176W        W 7517  25.076  20.750  13.442
39177W        W 7518  13.820   4.870   0.292
39178W        W 7519  14.639   4.354  12.391
39179W        W 7520  25.493  44.347  13.348
39180W        W 7521   6.838  32.096  13.347
39181W        W 7522  39.866  19.080  14.410
39182W        W 7523  24.658  20.040  11.124
39183W        W 7524  27.644  38.487   3.824
39184W        W 7525  23.631  18.697  12.972
39185W        W 7526  31.915  39.827   5.231
39186W        W 7527  15.281  31.935  11.113
39187W        W 7528  12.242  28.956   2.843
39188W        W 7529  29.139  30.648   0.812
39189W        W 7530  20.555  33.563   1.258
39190W        W 7531   6.227   6.723  12.979
39191W        W 7532  24.194  21.622  12.489
39192W        W 7533   5.231   3.717  10.962
39193W        W 7534  32.066  17.132   5.270
39194W        W 7535   6.840  15.254  10.893
39195W        W 7536  35.032  23.607  12.404
39196W        W 7537  19.536  25.711   5.084
39197W        W 7538   6.716  14.680   0.454
39198W        W 7539   7.786  16.293  14.785
39199W        W 7540  24.614  32.056   1.249
39200W        W 7541  34.070  31.145   3.784
39201W        W 7542  19.196   2.280  11.422
39202W        W 7543  15.671   7.872  11.009
39203W        W 7544   4.803  43.774   3.769
39204W        W 7545  40.993  18.062   2.302
39205W        W 7546  38.496  28.003  11.914
39206W        W 7547  29.978  27.145   0.248
39207W        W 7548  43.825  25.600   1.926
39208W        W 7549  22.123   0.810  10.575
39209W        W 7550   5.396  34.071   0.793
39210W        W 7551   4.721  26.977   1.277
39211W        W 7552  34.896  14.154  12.441
39212W        W 7553  13.252  12.144  11.468
39213W        W 7554   7.388  37.397   4.339
39214W        W 7555  18.735  37.504   0.837
39215W        W 7556   0.811  18.687  12.528
39216W        W 7557  35.430  30.917  14.880
39217W        W 7558  31.949  26.654  14.377
39218W        W 7559   8.279  12.242  14.462
39219W        W 7560   9.876  36.039   1.922
39220W        W 7561  41.926   6.692   0.942
39221W        W 7562  30.026   2.333  13.816
39222W        W 7563  35.032   2.790  11.402
39223W        W 7564  10.674  14.142  10.539
39224W        W 7565  12.681  38.464  11.445
39225W        W 7566  12.284  25.112   4.124
39226W        W 7567   6.217  29.102  13.326
39227W        W 7568  10.714  17.297  11.572
39228W        W 7569  30.015  25.111  14.890
39229W        W 7570  14.771  15.702  10.050
39230W        W 7571  35.530  15.162  13.959
39231W        W 7572  40.350  21.660  14.773
39232W        W 7573  21.165   2.730   4.779
39233W        W 7574  33.534  22.059  14.779
39234W        W 7575  25.558   9.360  11.375
39235W        W 7576  11.312   2.909  11.857
39236W        W 7577   3.906   7.345  10.899
39237W        W 7578  24.529  38.448   2.205
39238W        W 7579  37.415  44.474   3.824
39239W        W 7580  44.898  13.202   1.737
39240W        W 7581   2.824   0.263   1.345
39241W        W 7582  10.656  39.483   3.241
39242W        W 7583   5.303   6.696   4.345
39243W        W 7584  27.948  42.899   3.692
39244W        W 7585  41.468  41.350   0.428
39245W        W 7586  15.187  26.645  11.929
39246W        W 7587  44.856  14.116   1.282
39247W        W 7588  27.954  40.471   1.921
39248W        W 7589  18.086   7.747   2.903
39249W        W 7590  34.497  17.701  13.038
39250W        W 7591  37.867  16.782  11.031
39251W        W 7592  14.591  12.799  13.443
39252W        W 7593  14.652   5.811   2.669
39253W        W 7594  39.353  14.196  13.802
39254W        W 7595  44.800  22.675  13.480
39255W        W 7596  12.221  31.097  12.527
39256W        W 7597  43.983  30.952  12.842
39257W        W 7598  39.865  36.467   3.168
39258W        W 7599  18.591  31.465   0.926
39259W        W 7600   5.695  31.923   0.816
39260W        W 7601  36.070   4.367  11.510
39261W        W 7602  43.961  32.524   1.344
39262W        W 7603  30.127  14.688   2.706
39263W        W 7604  43.875  37.861  10.428
39264W        W 7605   0.913  22.176   1.828
39265W        W 7606  18.737   3.304  12.516
39266W        W 7607  36.429  43.856  13.010
39267W        W 7608  10.662   7.243   1.348
39268W        W 7609  25.468   5.692   2.812
39269W        W 7610   9.381  42.828   3.225
39270W        W 7611  37.018  11.866  12.450
39271W        W 7612  41.004  18.117  13.472
39272W        W 7613   7.223  19.272   1.770
39273W        W 7614   1.342  16.314  11.609
39274W        W 7615  39.554  42.875   9.641
39275W        W 7616  25.084  31.115   4.130
39276W        W 7617  20.610   9.349   3.250
39277W        W 7618  14.109  41.864   1.855
39278W        W 7619  31.112  15.296  14.380
39279W        W 7620  38.339  44.305   0.310
39280W        W 7621  30.914   0.380  13.528
39281W        W 7622  40.920  24.048  10.561
39282W        W 7623   9.786  43.346   4.710
39283W        W 7624   2.749   8.874  14.416
39284W        W 7625  30.980  15.326   1.358
39285W        W 7626  39.018  18.598   4.652
39286W        W 7627  13.681  23.060   4.833
39287W        W 7628  30.623   4.248   4.802
39288W        W 7629  33.579  15.770   4.618
39289W        W 7630   2.800  26.470   1.289
39290W        W 7631  16.595  22.033  13.479
39291W        W 7632  23.996  31.095   3.257
39292W        W 7633  40.948  20.755   4.181
39293W        W 7634  11.268  43.481   1.746
39294W        W 7635  17.104  41.534   2.841
39295W        W 7636   5.746  31.101  13.043
39296W        W 7637  40.364  26.980  13.398
39297W        W 7638  34.580  14.176  12.566
39298W        W 7639  32.060  19.630  10.528
39299W        W 7640  43.312   7.717   2.314
39300W        W 7641  33.110   3.298   4.646
39301W        W 7642  20.032  34.974  14.852
39302W        W 7643  16.706  10.642   2.693
39303W        W 7644  21.153   9.864   2.281
39304W        W 7645  17.679  10.362  12.842
39305W        W 7646  28.651  40.375  13.360
39306W        W 7647   6.815  22.539   3.234
39307W        W 7648  18.056   8.234   4.115
39308W        W 7649   3.742  33.555   2.843
39309W        W 7650   9.165  30.533   3.785
39310W        W 7651  10.196  33.419  14.792
39311W        W 7652  37.021   1.871  11.393
39312W        W 7653  38.444  13.635   2.900
39313W        W 7654  34.377  11.184   1.333
39314W        W 7655  27.167  26.653  11.068
39315W        W 7656  32.955   0.832  11.934
39316W        W 7657  41.447   1.756  11.588
39317W        W 7658   1.263  15.593   2.902
39318W        W 7659  34.582  37.915  11.953
39319W        W 7660   9.379  31.523   0.786
39320W        W 7661  14.650   0.265   3.730
39321W        W 7662   8.343  18.656   0.383
39322W        W 7663  35.464  27.620   1.366
39323W        W 7664  29.114  42.923  11.071
39324W        W 7665  35.964  15.815  13.314
39325W        W 7666   7.794   9.255  11.947
39326W        W 7667  43.358  32.998   0.821
39327W        W 7668  10.384  41.030   1.439
39328W        W 7669  13.651  32.013   0.398
39329W        W 7670  41.934  32.903  14.394
39330W        W 7671  32.546  21.757  12.937
39331W        W 7672  32.927  28.077   1.823
39332W        W 7673  28.133  43.491  10.951
39333W        W 7674  12.662  35.068   2.817
39334W        W 7675   3.227  29.460   4.766
39335W        W 7676   7.305  11.752  12.096
39336W        W 7677  10.341  40.017  11.988
39337W        W 7678  14.161  16.248  14.452
39338W        W 7679  31.600  32.409  11.996
39339W        W 7680  27.526  38.946   0.864
39340W        W 7681   6.220  37.491   3.322
39341W        W 7682  23.068  40.886  13.826
39342W        W 7683  41.865  44.493   3.659
39343W        W 7684  37.840  41.834  14.977
39344W        W 7685  39.890  44.996  14.902
39345W        W 7686  25.531   4.307  13.416
39346W        W 7687  13.328  25.527   2.713
39347W        W 7688  39.376  38.055   0.772
39348W        W 7689  13.127   1.901   1.830
39349W        W 7690  31.635  28.445  14.474
39350W        W 7691   3.810  21.684  13.982
39351W        W 7692  33.530  44.328  13.872
39352W        W 7693  44.878  31.477   3.654
39353W        W 7694  12.265  10.183  12.445
39354W        W 7695  20.534  12.794   0.424
39355W        W 7696   7.799  44.399   3.162
39356W        W 7697  26.099  33.577  13.836
39357W        W 7698  37.022  26.632   1.903
39358W        W 7699  22.722  42.307   4.616
39359W        W 7700  30.101  36.964  10.916
39360W        W 7701  28.176  30.428   2.891
39361W        W 7702  21.726  23.144   4.679
39362W        W 7703  40.524   8.198   0.422
39363W        W 7704   3.419  28.488   0.472
39364W        W 7705   3.938  24.670  10.955
39365W        W 7706   9.272  33.978  11.932
39366W        W 7707   9.158  23.668  12.836
39367W        W 7708   6.308  30.135   3.635
39368W        W 7709   7.411  11.809   3.801
39369W        W 7710  15.266  39.519   2.352
39370W        W 7711   3.363  40.808   0.457
39371W        W 7712  19.117  27.686  10.428
39372W        W 7713   2.879   2.255  10.628
39373W        W 7714  30.152  42.015  12.575
39374W        W 7715  26.150  10.153  14.813
39375W        W 7716   2.439  42.827   3.202
39376W        W 7717   2.835  28.948   1.289
39377W        W 7718  11.750  43.287  10.550
39378W        W 7719  35.003  42.889   1.366
39379W        W 7720   5.909   2.368  11.580
39380W        W 7721  10.141  36.908  10.942
39381W        W 7722  39.920  41.792   3.253
39382W        W 7723  30.988  30.026   2.273
39383W        W 7724  25.985  17.127   0.288
39384W        W 7725  21.024  37.833  14.903
39385W        W 7726  44.991  27.031   4.249
39386W        W 7727  30.084  30.449   0.840
39387W        W 7728  18.616   6.305  14.344
39388W        W 7729  26.615   0.962  11.408
39389W        W 7730   4.771  34.547  10.434
39390W        W 7731  34.047  22.542   3.378
39391W        W 7732   9.248  12.249  14.488
39392W        W 7733  14.686  19.213  10.995
39393W        W 7734  41.934  22.564  14.797
39394W        W 7735  22.554   5.920   2.337
39395W        W 7736  12.815  15.731   1.868
39396W        W 7737  20.129  23.022  13.938
39397W        W 7738  19.146  32.102   1.440
39398W        W 7739   9.161  43.765   2.697
39399W        W 7740  38.019  20.534   3.644
39400W        W 7741  12.328   6.283   1.281
39401W        W 7742  12.761  10.367  13.419
39402W        W 7743  42.963  13.246  14.989
39403W        W 7744  42.890  27.637   3.834
39404W        W 7745  22.207  26.478  12.005
39405W        W 7746  26.472  40.827   3.723
39406W        W 7747  42.505  25.562  14.969
39407W        W 7748  12.847  11.819  14.349
39408W        W 7749  11.280  11.272  12.417
39409W        W 7750  28.940  12.285   3.765
39410W        W 7751  44.502  28.553  12.061
39411W        W 7752  16.805  26.477   3.832
39412W        W 7753  28.597  26.659   2.206
39413W        W 7754  43.780   4.249   4.790
39414W        W 7755  13.695  18.112   3.225
39415W        W 7756  42.410   5.847  13.519
39416W        W 7757  10.868  41.957   4.786
39417W        W 7758  37.943  32.913   1.696
39418W        W 7759  20.210   5.347  11.484
39419W        W 7760  23.990  36.467   1.327
39420W        W 7761  23.113  14.097   2.331
39421W        W 7762  11.681   4.735   1.810
39422W        W 7763  19.758  28.134   4.189
39423W        W 7764  38.543   6.276  10.546
39424W        W 7765   7.836  13.164   5.263
39425W        W 7766   2.367   8.852  10.598
39426W        W 7767  21.727  25.026   2.392
39427W        W 7768  26.954  17.110  11.490
39428W        W 7769  26.587   3.245  11.489
39429W        W 7770  27.637  25.678   1.390
39430W        W 7771  31.107   4.830   4.119
39431W        W 7772  30.087  13.786  10.897
39432W        W 7773  40.457  42.383  13.405
39433W        W 7774  37.056   4.325  11.001
39434W        W 7775   6.236  31.103  13.059
39435W        W 7776  37.526  23.005   0.396
39436W        W 7777   5.852  24.541   0.753
39437W        W 7778  39.354  15.301  12.886
39438W        W 7779   4.307  39.841  10.597
39439W        W 7780  25.604   8.275  13.060
39440W        W 7781  13.245  18.112  14.832
39441W        W 7782   2.431   4.753  10.504
39442W        W 7783  23.668   8.839   3.647
39443W        W 7784   8.280  12.285  14.921
39444W        W 7785  30.034  13.310   1.354
39445W        W 7786   1.786   0.845  11.967
39446W        W 7787  22.544  34.010   3.215
39447W        W 7788  20.172   4.934   1.826
39448W        W 7789  39.966  11.644  14.295
39449W        W 7790  14.305  38.380  14.981
39450W        W 7791  18.613  31.979  14.501
39451W        W 7792   4.345  39.405  13.971
39452W        W 7793   2.418  27.449   2.228
39453W        W 7794  39.387  28.186  14.360
39454W        W 7795  30.941  14.664   1.443
39455W        W 7796  19.766   6.704   3.834
39456W        W 7797  18.649  22.052   4.838
39457W        W 7798   7.412   6.262   3.300
39458W        W 7799  35.900  25.195  11.868
39459W        W 7800  36.888  28.163   1.351
39460W        W 7801   2.453  35.927  10.528
39461W        W 7802  29.540  35.923  13.803
39462W        W 7803  44.879  21.522   0.416
39463W        W 7804  29.054  29.176   2.777
39464W        W 7805   6.330  28.990   2.255
39465W        W 7806  44.417  24.223   0.731
39466W        W 7807  30.088   4.241   1.445
39467W        W 7808  36.964  11.848  14.983
39468W        W 7809  34.080  18.094  10.437
39469W        W 7810  28.492  30.982   2.288
39470W        W 7811  36.423  36.501   4.221
39471W        W 7812  11.853  40.801   3.655
39472W        W 7813  20.626  17.557  10.964
39473W        W 7814  25.175  16.728   2.251
39474W        W 7815  32.141   9.819   2.266
39475W        W 7816  17.234  22.550  11.420
39476W        W 7817  31.556  14.324   3.708
39477W        W 7818  43.468  22.161  12.482
39478W        W 7819  38.049  20.713   2.805
39479W        W 7820   0.348  19.126   9.603
39480W        W 7821  28.496  39.487   1.762
39481W        W 7822  15.662  30.972  11.071
39482W        W 7823   2.343  43.279  10.574
39483W        W 7824  39.490  13.826  14.433
39484W        W 7825   3.937   8.892  14.772
39485W        W 7826  27.109   2.889   4.343
39486W        W 7827  29.058  26.467  13.921
39487W        W 7828  15.758   3.320  14.788
39488W        W 7829  12.669  36.890  13.424
39489W        W 7830  23.628  42.364  14.500
39490W        W 7831   9.355   1.787   5.199
39491W        W 7832   5.396  34.457  12.345
39492W        W 7833   2.957  42.826  13.402
39493W        W 7834   2.952   7.202  12.868
39494W        W 7835  19.700  31.545   2.334
39495W        W 7836   5.417  12.258  12.375
39496W        W 7837  42.479  20.676  10.906
39497W        W 7838   3.943   5.788   2.768
39498W        W 7839  26.204  36.399   4.640
39499W        W 7840  40.454  43.940  10.936
39500W        W 7841   6.326  41.353  10.126
39501W        W 7842  43.913  22.016  11.126
39502W        W 7843  25.094   2.930   3.175
39503W        W 7844  18.139  16.123   3.848
39504W        W 7845  16.757  22.013   0.754
39505W        W 7846  43.992  27.509  12.516
39506W        W 7847  37.011  29.939  13.929
39507W        W 7848   0.477  11.272   0.320
39508W        W 7849  40.340   9.761  10.976
39509W        W 7850  21.097  23.226  13.473
39510W        W 7851  24.577  10.833   3.316
39511W        W 7852   5.212  43.345   3.255
39512W        W 7853  43.827  24.132   1.266
39513W        W 7854  34.409   8.252  11.400
39514W        W 7855   7.764  42.913   2.858
39515W        W 7856  28.502   1.348  11.598
39516W        W 7857  30.026  37.883  14.505
39517W        W 7858  23.084  42.309  12.000
39518W        W 7859  18.223  13.617   4.313
39519W        W 7860  33.599   1.276  13.533
39520W        W 7861  22.585  13.680  10.901
39521W        W 7862  27.629  27.132   5.264
39522W        W 7863  11.793  18.174  11.383
39523W        W 7864  26.112  19.578   4.139
39524W        W 7865  27.643  28.588  13.946
39525W        W 7866  32.598  14.746  12.872
39526W        W 7867   2.799   0.951   4.255
39527W        W 7868   9.737  33.601  11.516
39528W        W 7869  11.784  31.598   0.782
39529W        W 7870  22.726  34.070  14.823
39530W        W 7871  11.713   0.745   1.258
39531W        W 7872  37.517  28.506  14.030
39532W        W 7873  39.049  30.138   4.826
39533W        W 7874  37.415   2.428  12.339
39534W        W 7875  10.648  26.656  11.531
39535W        W 7876  37.426   6.894   2.305
39536W        W 7877  31.555  10.329   0.902
39537W        W 7878  26.072  15.209  13.977
39538W        W 7879  35.894   5.803   2.401
39539W        W 7880  41.359  33.080  14.482
39540W        W 7881  26.024  37.937   0.246
39541W        W 7882  35.441   4.243  14.768
39542W        W 7883   9.355  18.731  14.792
39543W        W 7884   7.896  20.564  14.758
39544W        W 7885  35.464  32.493  14.022
39545W        W 7886  22.017  22.556  13.032
39546W        W 7887   7.912  29.657   3.848
39547W        W 7888  38.461  20.568   2.700
39548W        W 7889  12.235  13.138   4.239
39549W        W 7890  40.480  23.140  10.563
39550W        W 7891  32.427  14.664  11.035
39551W        W 7892   0.418  18.583   0.394
39552W        W 7893  32.441  41.418  13.349
39553W        W 7894   0.343  29.030   2.838
39554W        W 7895  28.600   7.679   2.860
39555W        W 7896  20.215  23.040  12.404
39556W        W 7897  34.379  17.648   0.842
39557W        W 7898  36.491  15.723   1.728
39558W        W 7899  23.095  18.178  13.507
39559W        W 7900  24.522  34.489  13.538
39560W        W 7901  24.585  24.058  12.073
39561W        W 7902  26.030  32.023   0.918
39562W        W 7903  39.492  17.802  13.039
39563W        W 7904  27.560  41.922   1.695
39564W        W 7905  22.055  31.616  13.809
39565W        W 7906  42.807  11.215  14.907
39566W        W 7907  31.034  13.351   2.254
39567W        W 7908  25.563  38.520  12.911
39568W        W 7909  27.163  27.591   0.916
39569W        W 7910  44.384  22.055   3.842
39570W        W 7911  34.501  40.933   0.916
39571W        W 7912   9.660   7.174  14.869
39572W        W 7913   1.243  43.362   4.672
39573W        W 7914   5.409  42.518   3.704
39574W        W 7915  11.318  21.679   1.235
39575W        W 7916   7.754  38.936   3.645
39576W        W 7917  29.621  23.662   3.645
39577W        W 7918   6.740  25.003   2.315
39578W        W 7919  35.559   9.273   0.876
39579W        W 7920  13.819  36.454  11.422
39580W        W 7921   8.405  37.373   3.183
39581W        W 7922  18.592  15.112   0.255
39582W        W 7923   9.166  20.114   2.866
39583W        W 7924   6.892  36.093  11.457
39584W        W 7925   5.823   7.774   4.630
39585W        W 7926  30.094   4.924  13.985
39586W        W 7927  43.954  18.195   0.888
39587W        W 7928   3.901  41.365   3.772
39588W        W 7929   0.920  30.933  11.110
39589W        W 7930  39.469   5.290  11.400
39590W        W 7931  14.752  17.636  12.400
39591W        W 7932  17.788  31.433   9.988
39592W        W 7933  35.027  35.957   0.963
39593W        W 7934  27.543   7.684   1.854
39594W        W 7935   7.722  19.081   0.777
39595W        W 7936  43.354  40.958  10.973
39596W        W 7937  30.003  44.983   2.861
39597W        W 7938  23.591   1.775   0.479
39598W        W 7939  24.095  40.912   2.713
39599W        W 7940   9.732  35.496  11.612
39600W        W 7941  19.223  23.493   3.847
39601W        W 7942  14.238  20.220   4.246
39602W        W 7943   7.172   4.730  12.085
39603W        W 7944  32.941  43.371   3.759
39604W        W 7945  19.546   0.887  13.519
39605W        W 7946  24.072  17.234  11.938
39606W        W 7947  34.546   3.440   2.225
39607W        W 7948  21.660  31.543   0.845
39608W        W 7949  42.013  17.300   2.415
39609W        W 7950  33.962  39.512   1.758
39610W        W 7951   7.398   5.220   0.255
39611W        W 7952  28.111   5.332  10.525
39612W        W 7953  17.678   2.751  13.938
39613W        W 7954  42.905  42.883   1.283
39614W        W 7955  23.635  38.006   1.714
39615W        W 7956  44.769   8.780   4.690
39616W        W 7957   4.433  30.003  13.340
39617W        W 7958  22.546  42.904   0.431
39618W        W 7959  15.719  19.596  10.988
39619W        W 7960  31.424  38.941  11.940
39620W        W 7961  29.613  44.359  12.077
39621W        W 7962  15.114  25.108  11.468
39622W        W 7963  19.666  15.634   4.657
39623W        W 7964  24.184  13.661   2.341
39624W        W 7965   3.326   7.318   4.166
39625W        W 7966  33.401   4.421  13.996
39626W        W 7967  22.568  21.246  11.053
39627W        W 7968  44.338  12.337  13.911
39628W        W 7969  19.658  33.912   4.152
39629W        W 7970  17.606  15.666   4.265
39630W        W 7971  33.079  41.024   2.675
39631W        W 7972  19.771  29.489  12.439
39632W        W 7973  36.984   2.406  14.282
39633W        W 7974   7.387  23.184  12.357
39634W        W 7975  22.519  39.835  11.423
39635W        W 7976  19.660  38.392   0.768
39636W        W 7977  13.841  42.844   3.788
39637W        W 7978  30.579  16.783   0.763
39638W        W 7979  37.973  42.521   1.271
39639W        W 7980  11.862  26.521   0.855
39640W        W 7981  12.854  19.170  11.511
39641W        W 7982  29.110  32.488   4.186
39642W        W 7983  27.095  20.051  10.567
39643W        W 7984  13.323  27.152   1.847
39644W        W 7985  22.728  11.644  11.003
39645W        W 7986  25.700  13.329   5.216
39646W        W 7987   1.768   9.346  12.937
39647W        W 7988  24.611   5.722  13.028
39648W        W 7989  43.816  32.897   1.381
39649W        W 7990  15.101   1.337  11.051
39650W        W 7991  21.717  39.980   0.954
39651W        W 7992  21.568  43.901  12.977
39652W        W 7993   9.700  18.206  11.518
39653W        W 7994  18.749   1.277  12.531
39654W        W 7995  31.505  29.581  13.357
39655W        W 7996  24.124  38.885   0.404
39656W        W 7997  22.050  16.629  14.893
39657W        W 7998  36.390  24.176  13.009
39658W        W 7999  10.356  26.981   2.707
39659W        W 8000  17.597  24.492  14.871
39660W        W 8001  33.481  32.520  11.431
39661W        W 8002  31.084  11.631  12.866
39662W        W 8003  36.896   3.220   0.336
39663W        W 8004   5.725  40.514  11.922
39664W        W 8005  30.501  17.800   3.694
39665W        W 8006  16.692   2.450   0.438
39666W        W 8007   1.394  24.074  12.015
39667W        W 8008   8.677   8.850   0.800
39668W        W 8009   9.651  12.361   4.718
39669W        W 8010  13.132  28.164  14.961
39670W        W 8011  27.029   7.246  12.966
39671W        W 8012  38.017  36.956   2.797
39672W        W 8013  40.349  22.109   0.323
39673W        W 8014  40.020  17.657   4.139
39674W        W 8015  25.080  30.625   1.445
39675W        W 8016  26.535  14.794  12.489
39676W        W 8017  37.388  18.241  13.058
39677W        W 8018   1.738  19.238  11.076
39678W        W 8019  34.065   7.840   1.911
39679W        W 8020  42.961  30.141   0.927
39680W        W 8021  29.638   9.675   0.771
39681W        W 8022   7.216   0.283   4.255
39682W        W 8023  24.707   9.646   1.696
39683W        W 8024  33.577   7.371   4.744
39684W        W 8025  40.316  24.564  11.030
39685W        W 8026  37.906  24.129   1.847
39686W        W 8027   5.728  17.579   3.758
39687W        W 8028  44.914  37.960  11.895
39688W        W 8029  42.847  21.177   1.794
39689W        W 8030  36.366  27.558   0.448
39690W        W 8031  30.942  20.182  14.974
39691W        W 8032  23.601  30.426   0.872
39692W        W 8033   0.454  10.348   1.722
39693W        W 8034  29.029  16.792   2.738
39694W        W 8035  40.847  35.885  11.856
39695W        W 8036  27.644  34.906  12.910
39696W        W 8037  39.341  37.852  13.341
39697W        W 8038   7.365  37.935   0.771
39698W        W 8039   7.734  23.066  10.914
39699W        W 8040   1.284  42.327  14.423
39700W        W 8041  44.505  42.992  14.776
39701W        W 8042  33.114   5.348   4.322
39702W        W 8043  11.800  14.739   1.767
39703W        W 8044   3.379  29.063  13.490
39704W        W 8045  16.659   8.868  14.872
39705W        W 8046  17.671  18.636   2.374
39706W        W 8047  20.651  16.255   4.733
39707W        W 8048  19.266  35.584   3.306
39708W        W 8049   8.812  39.866  12.521
39709W        W 8050  23.586   6.895  12.085
39710W        W 8051  40.879  23.088   0.760
39711W        W 8052  16.771  41.929  12.998
39712W        W 8053  17.791  29.165  11.979
39713W        W 8054  37.419  10.733   2.768
39714W        W 8055  42.368  19.055  14.325
39715W        W 8056   8.680  31.569   2.182
39716W        W 8057   7.778  33.551  12.483
39717W        W 8058  18.721  10.337  14.912
39718W        W 8059  28.058   0.896  13.925
39719W        W 8060   5.807  22.682   0.866
39720W        W 8061  25.008  19.663   2.348
39721W        W 8062  12.270   1.757  11.053
39722W        W 8063  42.960  39.524   0.737
39723W        W 8064  27.495  29.044   2.271
39724W        W 8065  27.491  31.973  11.547
39725W        W 8066  23.629  34.893  14.383
39726W        W 8067  25.082   4.375  12.073
39727W        W 8068  24.711   5.409   3.843
39728W        W 8069   0.742   9.231   0.929
39729W        W 8070  38.530   9.272  11.476
39730W        W 8071  37.360  30.461   0.253
39731W        W 8072  17.218  26.571   3.190
39732W        W 8073  20.148  18.144   4.313
39733W        W 8074  36.948  37.976   2.732
39734W        W 8075  37.952   8.899  10.898
39735W        W 8076  22.037  41.372   3.221
39736W        W 8077  11.371   8.840  14.935
39737W        W 8078  32.515  42.451  14.340
39738W        W 8079  36.392  19.658   1.823
39739W        W 8080   6.334  10.860   0.430
39740W        W 8081   8.337  13.314   4.265
39741W        W 8082  25.966   8.311  11.007
39742W        W 8083  37.062  15.098   0.735
39743W        W 8084  37.509  34.988  12.390
39744W        W 8085  28.606   9.801  10.517
39745W        W 8086  15.633  32.621   4.241
39746W        W 8087   9.754  13.610   1.400
39747W        W 8088   6.738   5.425   1.767
39748W        W 8089  13.722   1.766   4.812
39749W        W 8090   0.924  43.387  14.875
39750W        W 8091   8.829   0.442  12.888
39751W        W 8092  27.543  11.358  13.957
39752W        W 8093  24.514  31.153   3.773
39753W        W 8094  15.171   7.725   2.220
39754W        W 8095  27.080  13.691  13.821
39755W        W 8096   6.362  23.037  11.899
39756W        W 8097   8.852   6.736  12.415
39757W        W 8098  32.102  25.648   2.317
39758W        W 8099   6.427  24.117   0.293
39759W        W 8100  12.726   0.488   3.782
39760W        W 8101  23.575  21.219  11.953
39761W        W 8102  11.785   2.360  11.545
39762W        W 8103  39.897  35.523  14.463
39763W        W 8104  40.320   0.917  13.951
39764W        W 8105   5.198  21.158   2.879
39765W        W 8106  30.468  20.522   1.442
39766W        W 8107  27.132  40.444  11.493
39767W        W 8108  11.274  42.954  13.831
39768W        W 8109  33.414   1.401  14.348
39769W        W 8110  18.604  41.906   1.888
39770W        W 8111   9.646  11.660   3.352
39771W        W 8112  40.361  22.125  12.409
39772W        W 8113   5.720  11.631   4.316
39773W        W 8114  35.579   2.738   2.323
39774W        W 8115  12.640  23.639   4.646
39775W        W 8116  20.653  21.147  12.055
39776W        W 8117   7.857  25.069  14.783
39777W        W 8118  12.766  31.086  13.959
39778W        W 8119   0.468   1.787   4.679
39779W        W 8120  30.483  18.580   2.266
39780W        W 8121  18.640  27.611   0.453
39781W        W 8122  39.328  31.562   2.376
39782W        W 8123  35.999  38.999   3.824
39783W        W 8124   3.449  14.174  14.402
39784W        W 8125  27.995  23.998  12.050
39785W        W 8126   2.759   2.249   3.306
39786W        W 8127  42.525  38.368   2.294
39787W        W 8128  15.645   2.413  13.449
39788W        W 8129  22.091  23.081   1.737
39789W        W 8130  44.850  30.940   3.279
39790W        W 8131   3.912  31.413  11.874
39791W        W 8132  37.910  37.408   2.819
39792W        W 8133  11.274  24.141   1.858
39793W        W 8134   1.899  14.214  13.544
39794W        W 8135   6.257  15.821  11.965
39795W        W 8136   6.747  11.198   0.359
39796W        W 8137   0.761  17.215  10.483
39797W        W 8138  10.643  26.129  13.449
39798W        W 8139  44.951  22.538  10.640
39799W        W 8140  44.263  41.814   3.281
39800W        W 8141  35.570  33.031  12.368
39801W        W 8142  42.523  40.483  14.835
39802W        W 8143  16.101   2.905   2.270
39803W        W 8144  19.673  16.132   3.856
39804W        W 8145  27.553  40.932  13.963
39805W        W 8146  44.008  43.993   0.395
39806W        W 8147  12.183  40.382  11.497
39807W        W 8148  30.606   4.297  13.799
39808W        W 8149  17.740  15.741   3.306
39809W        W 8150  44.760   4.807  10.581
39810W        W 8151   8.698  17.571   0.318
39811W        W 8152  25.541  13.191   3.263
39812W        W 8153   8.174  20.036  13.815
39813W        W 8154  43.001   6.920   0.788
39814W        W 8155  18.650  32.138  12.430
39815W        W 8156  13.319  44.823  13.857
39816W        W 8157  42.360  18.656  11.413
39817W        W 8158  18.111  44.971  13.922
39818W        W 8159  39.831  31.475   1.877
39819W        W 8160   7.806  25.067  13.948
39820W        W 8161  25.506   3.323  12.530
39821W        W 8162   5.771  16.732  13.316
39822W        W 8163  36.386   0.417   0.892
39823W        W 8164   0.287  17.602   5.648
39824W        W 8165  21.634  39.026   0.472
39825W        W 8166  21.143   7.275   1.367
39826W        W 8167  26.495  22.226  14.481
39827W        W 8168  30.539  35.512   4.213
39828W        W 8169  41.845  16.627  13.537
39829W        W 8170  12.827  42.324   1.332
39830W        W 8171  24.487   7.348  13.830
39831W        W 8172  19.223  12.271  10.541
39832W        W 8173   3.887  29.988  12.974
39833W        W 8174  21.663  21.207  13.541
39834W        W 8175  16.580   9.886  14.299
39835W        W 8176  32.916   8.747  14.904
39836W        W 8177   2.243  43.316   4.618
39837W        W 8178  44.942   6.222  10.454
39838W        W 8179  27.021  42.281   2.813
39839W        W 8180  21.228   4.332  11.394
39840W        W 8181  38.537  15.224  11.600
39841W        W 8182   9.828   6.363  14.485
39842W        W 8183  16.183  37.433  11.493
39843W        W 8184  23.717   2.250  14.499
39844W        W 8185  43.461  20.750  12.071
39845W        W 8186  33.065  41.924  10.605
39846W        W 8187  19.261   8.368   3.796
39847W        W 8188  32.532   3.829  10.895
39848W        W 8189  40.312  16.812  11.916
39849W        W 8190  39.955  19.770  14.914
39850W        W 8191   2.471  26.015  13.433
39851W        W 8192  37.366  15.197  12.051
39852W        W 8193  17.762  11.210   3.311
39853W        W 8194   2.466  36.352   2.250
39854W        W 8195  18.668  40.356  12.472
39855W        W 8196  42.873   2.878   1.882
39856W        W 8197  25.213   2.736   2.886
39857W        W 8198  34.379  10.853  14.407
39858W        W 8199   9.690  24.577   2.332
39859W        W 8200   1.975  32.417  11.600
39860W        W 8201  23.165  39.548  13.509
39861W        W 8202  16.137  25.524   1.742
39862W        W 8203  39.525  22.718   0.937
39863W        W 8204   9.297   0.342   4.173
39864W        W 8205  41.022  27.186   4.734
39865W        W 8206   2.443   7.777  11.437
39866W        W 8207  12.135   7.202  12.993
39867W        W 8208  33.119  43.310  13.492
39868W        W 8209  35.410  33.961  11.866
39869W        W 8210  23.190  37.339   3.312
39870W        W 8211   7.267   3.262  13.531
39871W        W 8212  18.270  21.702   3.254
39872W        W 8213  17.651  24.186   2.828
39873W        W 8214   1.909  44.815   2.361
39874W        W 8215  28.166  14.809  11.042
39875W        W 8216   7.281  36.885   0.846
39876W        W 8217  30.158  37.501   0.908
39877W        W 8218  42.433  28.659  13.935
39878W        W 8219   1.288   6.737  12.045
39879W        W 8220   0.822  34.417  14.823
39880W        W 8221  36.391  22.575   9.936
39881W        W 8222  41.342  26.180  12.988
39882W        W 8223  37.967   0.267   2.228
39883W        W 8224  22.011   9.757   2.252
39884W        W 8225  30.525  22.692  12.489
39885W        W 8226  28.621  16.152  13.524
39886W        W 8227  16.183  23.106   0.345
39887W        W 8228   5.269  42.852  14.768
39888W        W 8229  32.947  21.644  11.572
39889W        W 8230  38.907  14.230  12.011
39890W        W 8231  33.484  33.472  14.348
39891W        W 8232  23.024  40.459   3.853
39892W        W 8233  23.695  17.661   4.262
39893W        W 8234  25.710  24.671  11.505
39894W        W 8235   7.389  11.864  14.875
39895W        W 8236   0.344   2.803  14.807
39896W        W 8237  14.775  20.530   0.748
39897W        W 8238  19.659  42.897  10.578
39898W        W 8239   2.950   2.327   4.761
39899W        W 8240  42.437   3.934  10.484
39900W        W 8241  10.164  42.847  11.079
39901W        W 8242  30.450  11.159   2.763
39902W        W 8243  41.516  13.739  10.997
39903W        W 8244  23.669  18.291   1.903
39904W        W 8245   6.761  42.319  13.422
39905W        W 8246   3.831  17.784   2.399
39906W        W 8247  29.073  27.013  13.397
39907W        W 8248  19.757  33.949   0.463
39908W        W 8249  10.347  42.009  13.897
39909W        W 8250  10.763  12.844   9.469
39910W        W 8251  28.168  22.597  11.579
39911W        W 8252  17.785   8.784  11.457
39912W        W 8253   5.842  39.979  13.889
39913W        W 8254  22.587  40.952  10.984
39914W        W 8255   4.720  40.841  10.424
39915W        W 8256  17.104  40.425   3.848
39916W        W 8257   6.217  27.018  13.371
39917W        W 8258  20.188  15.212   4.170
39918W        W 8259  31.942   9.707   0.445
39919W        W 8260  42.451  42.904   0.740
39920W        W 8261   3.894   9.184  11.977
39921W        W 8262  43.913  18.056   1.231
39922W        W 8263  11.664  27.985   0.362
39923W        W 8264  16.626  26.510   2.330
39924W        W 8265  33.425  17.185   1.277
39925W        W 8266   1.250   9.700   3.166
39926W        W 8267  34.869   8.377  10.486
39927W        W 8268  11.652   6.376  13.816
39928W        W 8269  19.228  33.608   1.778
39929W        W 8270  37.015  39.985  12.494
39930W        W 8271   5.225  27.490  10.457
39931W        W 8272   4.760   0.934  11.996
39932W        W 8273  27.184  44.761  13.407
39933W        W 8274   3.824  43.885   4.617
39934W        W 8275  35.493  43.916   1.292
39935W        W 8276  26.566   5.260  14.431
39936W        W 8277  35.914   8.279   3.172
39937W        W 8278  43.476   5.250  13.926
39938W        W 8279  38.044  33.602   1.424
39939W        W 8280  11.783  32.430  14.783
39940W        W 8281  40.364  24.544   2.405
39941W        W 8282  33.593  20.569  14.917
39942W        W 8283  31.539  43.774   3.803
39943W        W 8284  23.063  12.666   4.737
39944W        W 8285   5.432  37.444  11.116
39945W        W 8286  14.604  18.285   4.133
39946W        W 8287  30.585  41.309   2.837
39947W        W 8288  31.110  25.537  11.481
39948W        W 8289  30.625  13.223   4.226
39949W        W 8290  20.597   8.303  11.978
39950W        W 8291  10.172  34.462   3.719
39951W        W 8292  16.584  11.846  14.299
39952W        W 8293  44.451  34.542  12.978
39953W        W 8294  42.967  21.720  11.406
39954W        W 8295  42.869  15.800  14.767
39955W        W 8296  43.871   4.743  14.436
39956W        W 8297  11.313  39.874   1.885
39957W        W 8298  23.714  14.220  11.970
39958W        W 8299  24.484  32.469  12.577
39959W        W 8300   1.884   6.340  12.035
39960W        W 8301  26.183  28.947   0.334
39961W        W 8302  35.906  32.115   3.710
39962W        W 8303   1.377  15.602  14.326
39963W        W 8304  21.037  23.208   4.190
39964W        W 8305  11.281  35.469   0.848
39965W        W 8306  44.953  23.006  14.421
39966W        W 8307  11.746  33.470  14.949
39967W        W 8308  35.098  28.670  11.972
39968W        W 8309  11.226  35.048  13.029
39969W        W 8310  36.939  18.235  10.514
39970W        W 8311  25.697  39.869   3.314
39971W        W 8312  18.068   0.475  10.417
39972W        W 8313  42.293  29.943   4.267
39973W        W 8314  10.707  13.298   2.328
39974W        W 8315  35.872  22.707  12.532
39975W        W 8316  39.038   4.393  10.936
39976W        W 8317  29.923   4.783  14.515
39977W        W 8318  24.589  14.833  12.378
39978W        W 8319   7.188  37.354   1.758
39979W        W 8320   0.814  39.428  14.429
39980W        W 8321  17.614  19.618  11.002
39981W        W 8322  30.549  20.588   4.273
39982W        W 8323  40.403  12.257  13.794
39983W        W 8324   8.716  24.080  14.979
39984W        W 8325  24.537  29.162  12.535
39985W        W 8326  14.239  24.693   0.926
39986W        W 8327  17.700  18.051  11.439
39987W        W 8328  18.652  32.411   2.334
39988W        W 8329  34.605  21.517   1.310
39989W        W 8330  38.419  11.817  10.957
39990W        W 8331  44.950  21.146  11.539
39991W        W 8332  14.150  39.874  12.363
39992W        W 8333  14.321  17.615  10.488
39993W        W 8334  34.432  44.402  11.563
39994W        W 8335   7.806  39.827   4.294
39995W        W 8336  36.958  11.684  11.401
39996W        W 8337   5.239  42.828  11.076
39997W        W 8338  31.406   2.837   4.249
39998W        W 8339  34.866  20.251   4.264
39999W        W 8340  42.828   8.243  12.868
40000W        W 8341   0.305  13.345   2.264
40001W        W 8342  18.110  11.669  13.994
40002W        W 8343  40.376  22.537  11.563
40003W        W 8344  13.313   2.303  11.936
40004W        W 8345  25.096   9.787  11.560
40005W        W 8346   8.399  44.320   1.825
40006W        W 8347  18.586  43.307   4.775
40007W        W 8348  13.808  37.905  14.320
40008W        W 8349  19.777   7.225  11.083
40009W        W 8350  10.734   6.395   1.800
40010W        W 8351  23.004  30.164  12.064
40011W        W 8352  32.566  12.755   1.769
40012W        W 8353  20.764  36.003   0.475
40013W        W 8354   1.462  38.822   4.333
40014W        W 8355  14.104   6.244   2.883
40015W        W 8356  34.483  28.055  12.418
40016W        W 8357  40.813  44.422   2.282
40017W        W 8358   2.827  35.590   3.759
40018W        W 8359   0.425  15.658  12.362
40019W        W 8360  32.010  39.882   1.263
40020W        W 8361  12.803  22.716   0.943
40021W        W 8362   5.429  27.971   0.914
40022W        W 8363   6.883  38.501  14.859
40023W        W 8364  24.995  27.490   2.864
40024W        W 8365   7.757  22.110   2.360
40025W        W 8366  10.797  25.594  11.494
40026W        W 8367  28.625  43.278  14.454
40027W        W 8368  43.783  31.488   0.743
40028W        W 8369  35.856  14.809   2.340
40029W        W 8370  33.888  39.332   3.166
40030W        W 8371  32.545  22.556  12.516
40031W        W 8372  43.337  24.192  11.913
40032W        W 8373  30.446   6.721   2.691
40033W        W 8374   9.267  24.601   2.236
40034W        W 8375   7.849  25.630  11.494
40035W        W 8376  25.550  27.151   2.241
40036W        W 8377  38.822   3.818  10.448
40037W        W 8378  33.972   8.868  14.994
40038W        W 8379  22.202  18.752  11.569
40039W        W 8380  18.119   6.706  12.481
40040W        W 8381  16.170  18.181  13.992
40041W        W 8382   9.254  27.540   3.369
40042W        W 8383  16.621  12.657  12.519
40043W        W 8384  12.662  40.900   1.761
40044W        W 8385  27.166  20.172  12.552
40045W        W 8386  12.139  16.634  10.486
40046W        W 8387  27.625   8.376   0.400
40047W        W 8388  40.437  21.676   2.866
40048W        W 8389  10.676   2.255   2.731
40049W        W 8390  34.910  24.678  10.617
40050W        W 8391   3.324  43.426   2.875
40051W        W 8392  40.437   2.288  12.373
40052W        W 8393   5.249  17.119   0.936
40053W        W 8394  17.674  10.176   4.347
40054W        W 8395  15.791   5.793   3.702
40055W        W 8396  11.835   8.811  13.453
40056W        W 8397  28.594  33.562   0.461
40057W        W 8398   8.302  26.456  10.498
40058W        W 8399  22.130   4.761   3.669
40059W        W 8400   9.830  23.211  11.408
40060W        W 8401  26.565  13.782   1.923
40061W        W 8402   7.793  28.655   3.640
40062W        W 8403  29.638  33.465   5.090
40063W        W 8404  17.698   6.392   0.430
40064W        W 8405  38.913  44.807   2.782
40065W        W 8406  43.287  27.574   2.758
40066W        W 8407  18.086  42.519  12.366
40067W        W 8408  10.812  27.945  14.373
40068W        W 8409  22.032  21.018  11.551
40069W        W 8410  16.222  12.198   2.895
40070W        W 8411   5.380  25.034  10.435
40071W        W 8412   1.898   0.986  14.870
40072W        W 8413  25.551  30.016   2.199
40073W        W 8414   3.406   9.695  11.421
40074W        W 8415  14.750  25.978  12.474
40075W        W 8416  32.395  29.588  14.876
40076W        W 8417   2.360  17.672  11.445
40077W        W 8418  18.194  40.381   0.896
40078W        W 8419   3.878  28.106   9.978
40079W        W 8420  22.568   5.928   3.250
40080W        W 8421  30.117   8.396  11.089
40081W        W 8422  42.797  29.073  10.911
40082W        W 8423  10.707   3.826  11.949
40083W        W 8424  37.977  36.875   3.765
40084W        W 8425  32.905   3.726  10.572
40085W        W 8426  25.178  42.828  11.451
40086W        W 8427  38.873  33.127   4.350
40087W        W 8428  16.759  27.118  12.899
40088W        W 8429  31.549  38.370   3.639
40089W        W 8430  27.983  13.227   2.708
40090W        W 8431   2.384  10.749   2.241
40091W        W 8432  13.255  32.430   4.821
40092W        W 8433  31.617  18.609   4.730
40093W        W 8434  22.711  16.788   2.718
40094W        W 8435  32.547   5.856   4.617
40095W        W 8436   4.435  24.556   4.302
40096W        W 8437  27.143  26.505  12.891
40097W        W 8438  19.209   2.896   1.722
40098W        W 8439   4.701  24.664   1.379
40099W        W 8440  25.164   8.819   1.924
40100W        W 8441  24.180  35.909  10.038
40101W        W 8442   7.690  36.525  12.497
40102W        W 8443  14.714  41.370  14.366
40103W        W 8444  41.991  21.086  14.999
40104W        W 8445  26.134  12.205  11.518
40105W        W 8446  22.063  40.927   3.200
40106W        W 8447  16.582   7.364  13.433
40107W        W 8448  38.935  21.248  10.036
40108W        W 8449   7.799   6.748  13.003
40109W        W 8450  35.852  16.108   3.652
40110W        W 8451  41.935  19.236   4.277
40111W        W 8452  38.898  18.761   2.306
40112W        W 8453  10.177  34.920   4.146
40113W        W 8454  22.534   9.171   1.706
40114W        W 8455  38.996  13.140   4.315
40115W        W 8456  18.103   5.919  14.920
40116W        W 8457  12.150  16.764   2.345
40117W        W 8458  40.384  28.954   3.701
40118W        W 8459  33.402  40.516  14.408
40119W        W 8460  15.796   2.338  14.323
40120W        W 8461  32.073   0.810  11.596
40121W        W 8462  11.827  35.514  12.498
40122W        W 8463  26.173  42.962   3.835
40123W        W 8464  13.144  27.497   1.328
40124W        W 8465  17.710   4.434  14.434
40125W        W 8466  19.676  11.788   3.166
40126W        W 8467   5.861  34.518  12.518
40127W        W 8468  29.927  18.684  12.055
40128W        W 8469  40.315  33.022   3.297
40129W        W 8470  19.646  17.084   1.797
40130W        W 8471  41.922  38.385   4.823
40131W        W 8472  14.339  26.987   4.211
40132W        W 8473  13.301  44.343  10.994
40133W        W 8474  39.423  29.560   2.752
40134W        W 8475  25.602   0.955   0.350
40135W        W 8476  14.806  25.106   4.636
40136W        W 8477  44.446   4.425  10.546
40137W        W 8478  39.929  20.725   4.303
40138W        W 8479  31.923  18.234   3.870
40139W        W 8480  23.733  11.259   0.313
40140W        W 8481  34.397  13.770   2.809
40141W        W 8482  39.860  34.942  10.898
40142W        W 8483  20.742  38.466  13.023
40143W        W 8484  13.730  10.381   4.720
40144W        W 8485  29.479  38.527  12.364
40145W        W 8486   8.811  31.908  13.057
40146W        W 8487  34.527  26.691  12.094
40147W        W 8488  26.147  12.193  12.999
40148W        W 8489   7.277  27.160  13.400
40149W        W 8490   9.279  15.613   5.207
40150W        W 8491  35.452  17.239   2.274
40151W        W 8492  10.264  30.954  14.508
40152W        W 8493  42.828  36.360  12.957
40153W        W 8494  18.733  13.679  12.417
40154W        W 8495   8.894  12.738   4.626
40155W        W 8496  36.534  37.937   0.776
40156W        W 8497   5.433  40.395   0.964
40157W        W 8498  32.605   8.850  10.441
40158W        W 8499  33.035  16.189  11.909
40159W        W 8500  29.450  28.633   4.130
40160W        W 8501  11.217  27.135   1.306
40161W        W 8502  24.154   0.809   5.118
40162W        W 8503   6.834   4.231   0.266
40163W        W 8504   7.246  22.181  10.943
40164W        W 8505  32.105  18.674   1.330
40165W        W 8506  24.190  19.112  10.023
40166W        W 8507  36.964  13.347   4.651
40167W        W 8508   7.677   3.277  11.372
40168W        W 8509  27.488  11.795   0.456
40169W        W 8510  16.666   1.899  14.314
40170W        W 8511  40.458   7.413   4.204
40171W        W 8512  31.975   5.751   1.342
40172W        W 8513   4.316   4.855  14.797
40173W        W 8514   2.407  41.424  10.143
40174W        W 8515  41.358  42.826  14.508
40175W        W 8516  14.593  39.931   0.800
40176W        W 8517  16.295  15.794  14.931
40177W        W 8518  40.344  10.339  11.955
40178W        W 8519   4.817  20.586  14.788
40179W        W 8520  44.852  25.559  13.793
40180W        W 8521  29.439  23.214  12.491
40181W        W 8522   3.840   6.227   1.835
40182W        W 8523   4.792  34.462  11.047
40183W        W 8524  33.095  35.107   1.866
40184W        W 8525  26.603  12.806   1.324
40185W        W 8526  27.041  15.143   3.245
40186W        W 8527  30.416  25.673   0.288
40187W        W 8528  29.090   7.262   0.785
40188W        W 8529  43.788  23.615   0.247
40189W        W 8530   7.897   3.856   4.173
40190W        W 8531  12.632  40.846  10.909
40191W        W 8532   6.763   9.867   0.474
40192W        W 8533  23.641  42.898  10.528
40193W        W 8534  18.580  35.554  10.534
40194W        W 8535  36.562   6.413  11.424
40195W        W 8536  22.551   9.813   3.869
40196W        W 8537  40.925  14.659  10.605
40197W        W 8538  14.770  29.484  13.343
40198W        W 8539  11.244  40.958  11.031
40199W        W 8540  28.584  15.097   1.737
40200W        W 8541  17.205  16.073  12.912
40201W        W 8542   9.390  15.731  13.993
40202W        W 8543   5.361  25.087   3.735
40203W        W 8544  28.439   6.746  11.084
40204W        W 8545  33.380  40.405  13.331
40205W        W 8546  41.485  29.073   4.640
40206W        W 8547  29.149  43.890  10.515
40207W        W 8548   9.376  17.099   0.426
40208W        W 8549  19.197  11.283   4.344
40209W        W 8550  16.568  38.053  12.052
40210W        W 8551  21.717  39.918   2.333
40211W        W 8552  14.328  11.828  13.005
40212W        W 8553  42.894  31.526  13.794
40213W        W 8554   0.794  20.675   2.672
40214W        W 8555   1.330  38.053   2.253
40215W        W 8556  18.276  22.524   5.163
40216W        W 8557  23.720  23.512   0.947
40217W        W 8558  13.248  16.201  14.331
40218W        W 8559  38.974   5.854   2.675
40219W        W 8560  20.641  24.709   4.246
40220W        W 8561  22.528  15.751   2.860
40221W        W 8562  35.585   7.375  12.028
40222W        W 8563  42.802  28.469   1.848
40223W        W 8564   2.322  20.169   1.852
40224W        W 8565  26.483  43.479   4.169
40225W        W 8566   9.325  37.450  14.032
40226W        W 8567   1.276  17.703   0.866
40227W        W 8568   9.214  39.947   2.896
40228W        W 8569  40.893  33.911  13.029
40229W        W 8570  31.998   2.321  11.586
40230W        W 8571  22.046  41.862  13.055
40231W        W 8572  16.226   1.806   3.856
40232W        W 8573  39.862  40.836   0.453
40233W        W 8574  21.242  10.194   0.812
40234W        W 8575   1.743  14.706  11.431
40235W        W 8576  35.549   8.796  12.858
40236W        W 8577  29.067  26.117   0.448
40237W        W 8578  32.562  38.057  11.510
40238W        W 8579  44.811  13.698  11.893
40239W        W 8580  21.195  43.004  13.946
40240W        W 8581  12.803   2.863  12.997
40241W        W 8582  18.270  21.064   1.791
40242W        W 8583  21.030  15.183  14.854
40243W        W 8584  22.055  43.353  12.040
40244W        W 8585  14.710  32.035  14.777
40245W        W 8586   4.867  28.544  13.510
40246W        W 8587  24.491  30.017  11.441
40247W        W 8588   6.273   7.755  12.379
40248W        W 8589   9.231  20.608  14.319
40249W        W 8590  28.047   9.667   3.274
40250W        W 8591  37.371  22.130   4.743
40251W        W 8592  21.130  37.075   1.281
40252W        W 8593   9.709  13.239   3.659
40253W        W 8594  19.769   4.893  11.947
40254W        W 8595  44.437   5.718  14.999
40255W        W 8596  21.173   4.321   4.193
40256W        W 8597  33.498  10.325   1.336
40257W        W 8598  25.492  36.967  14.968
40258W        W 8599  29.512  43.970  10.439
40259W        W 8600   5.708   1.806   0.777
40260W        W 8601  20.676  22.551  12.375
40261W        W 8602  40.502  41.915  10.513
40262W        W 8603  34.882  19.636  12.348
40263W        W 8604   5.388  42.463  14.325
40264W        W 8605   4.372  41.952   3.712
40265W        W 8606   3.948  38.433   4.195
40266W        W 8607  17.193  19.166  10.986
40267W        W 8608  31.959  27.502  11.904
40268W        W 8609  35.929  38.524   1.392
40269W        W 8610  23.594  24.067  12.426
40270W        W 8611  11.235   4.788   2.361
40271W        W 8612  15.817  23.127  14.834
40272W        W 8613  12.762  17.724   4.157
40273W        W 8614  44.890   2.410  14.351
40274W        W 8615  31.490  15.647   0.766
40275W        W 8616  36.945  29.487   1.713
40276W        W 8617   0.337  43.282   2.235
40277W        W 8618  31.456  32.620  13.407
40278W        W 8619  23.069  41.484  10.888
40279W        W 8620   2.258  15.316  12.958
40280W        W 8621  22.102  36.486   4.602
40281W        W 8622  44.848  19.178  14.298
40282W        W 8623  13.703  40.950  12.009
40283W        W 8624  34.445  41.536  12.849
40284W        W 8625  36.970  28.675  10.998
40285W        W 8626  25.116  36.960  13.540
40286W        W 8627  38.054  32.975   4.827
40287W        W 8628  25.158  30.627   4.251
40288W        W 8629   8.373  12.848  11.540
40289W        W 8630  32.125  27.456  10.522
40290W        W 8631  15.820  43.373   0.359
40291W        W 8632  36.926   4.912   2.274
40292W        W 8633   9.717   9.149  14.295
40293W        W 8634  35.589  41.309  11.541
40294W        W 8635  15.625  44.781   3.771
40295W        W 8636  16.630  21.515  12.045
40296W        W 8637  22.627   8.695   2.266
40297W        W 8638  14.679  42.821   1.220
40298W        W 8639  41.795  30.526  14.510
40299W        W 8640   4.868  35.527  14.461
40300W        W 8641  36.948  23.517  11.435
40301W        W 8642  39.872  40.933  12.362
40302W        W 8643  35.054  40.433  10.518
40303W        W 8644   1.769  19.044   2.703
40304W        W 8645   7.801  15.163   0.937
40305W        W 8646  43.814  12.277   1.906
40306W        W 8647   1.922  38.972  11.101
40307W        W 8648  37.380  11.211   1.850
40308W        W 8649  37.041  37.439  13.363
40309W        W 8650  43.843   7.838  12.407
40310W        W 8651  11.715   1.768   2.818
40311W        W 8652  13.765  10.657   2.812
40312W        W 8653   6.240   5.273  13.888
40313W        W 8654  23.054  26.010  12.905
40314W        W 8655  16.567  43.379  13.034
40315W        W 8656  11.758  31.005   0.753
40316W        W 8657  37.378  16.226   3.370
40317W        W 8658  44.318  41.434   4.694
40318W        W 8659  23.664  43.977  10.437
40319W        W 8660  43.358  35.853   2.343
40320W        W 8661  36.931   4.735   3.668
40321W        W 8662  28.179   3.403  14.903
40322W        W 8663  13.618  43.333   2.232
40323W        W 8664  16.270  29.062   2.258
40324W        W 8665   9.857  10.158   5.177
40325W        W 8666  26.969  18.630   1.719
40326W        W 8667   7.371  17.294  13.335
40327W        W 8668  22.193  37.838   1.931
40328W        W 8669  40.008  11.260   0.413
40329W        W 8670  32.428  32.938   1.305
40330W        W 8671  14.780  32.132   4.631
40331W        W 8672  14.758  18.590  11.519
40332W        W 8673  17.620  37.411  13.927
40333W        W 8674  18.050  26.697  13.471
40334W        W 8675   8.672  16.168   3.147
40335W        W 8676  13.723   6.209   0.759
40336W        W 8677  39.013  37.461   4.154
40337W        W 8678   0.469  41.523  10.906
40338W        W 8679  24.071   8.839  10.535
40339W        W 8680  32.067  25.049  14.299
40340W        W 8681  10.382  34.009  10.511
40341W        W 8682  34.102   1.378  12.987
40342W        W 8683   4.836  27.981   2.264
40343W        W 8684  44.760  25.043   3.316
40344W        W 8685  23.633  23.161   3.275
40345W        W 8686   5.930   9.858   1.264
40346W        W 8687  24.069   9.886  14.320
40347W        W 8688  44.865   6.798   0.390
40348W        W 8689  36.880   0.773   3.756
40349W        W 8690   9.859  40.475  11.538
40350W        W 8691  37.074  36.037   1.804
40351W        W 8692  29.938  11.742   4.338
40352W        W 8693  43.491   7.220   1.280
40353W        W 8694  10.694   3.415   1.900
40354W        W 8695   4.211   3.372  14.359
40355W        W 8696  15.316  32.007  10.153
40356W        W 8697  42.852   6.848   4.176
40357W        W 8698  36.547  16.657  12.062
40358W        W 8699  37.438  13.664  13.950
40359W        W 8700  12.339  12.615   4.200
40360W        W 8701  42.437  37.916   2.225
40361W        W 8702  21.184  37.482  10.552
40362W        W 8703  30.999   5.781   3.774
40363W        W 8704   3.836  44.347  14.901
40364W        W 8705  19.117  30.638   0.963
40365W        W 8706  32.944  13.664  14.383
40366W        W 8707  43.922   9.782  13.925
40367W        W 8708  24.022  28.520  10.057
40368W        W 8709  31.572  43.931  14.005
40369W        W 8710  34.027  32.042  12.462
40370W        W 8711  44.931   0.809  14.437
40371W        W 8712  11.823  25.532   1.445
40372W        W 8713  26.071   6.328  11.398
40373W        W 8714  15.726  18.547  12.567
40374W        W 8715  42.890  13.783  10.606
40375W        W 8716   2.850   1.451   4.744
40376W        W 8717   9.166  28.635   4.162
40377W        W 8718   2.329  17.730   2.277
40378W        W 8719  40.024  36.009   3.320
40379W        W 8720   8.318  14.155   0.755
40380W        W 8721  38.982  37.463  11.030
40381W        W 8722  13.819  13.680  13.915
40382W        W 8723  12.297  19.056   3.639
40383W        W 8724   7.867   1.431  14.913
40384W        W 8725  19.615  20.187   1.424
40385W        W 8726  27.139  21.055   1.797
40386W        W 8727   8.397  19.266   3.665
40387W        W 8728   7.361  32.482   3.712
40388W        W 8729  42.889  37.521   3.379
40389W        W 8730   0.476  43.830   3.314
40390W        W 8731  21.539  30.429  10.089
40391W        W 8732  42.451   7.361   1.838
40392W        W 8733   7.878   5.881   2.832
40393W        W 8734  30.915   2.788  13.979
40394W        W 8735  13.212  42.876  11.862
40395W        W 8736   2.738  44.381   3.716
40396W        W 8737  10.250  42.834   1.868
40397W        W 8738  18.140   9.778   1.855
40398W        W 8739  41.923  37.000  10.985
40399W        W 8740   2.343  19.595  11.590
40400W        W 8741   1.769  28.948  10.593
40401W        W 8742  13.138   7.859  14.978
40402W        W 8743   5.793  20.095   1.272
40403W        W 8744  42.014  29.023   2.214
40404W        W 8745  43.897  26.060  14.888
40405W        W 8746  22.596  39.962   0.767
40406W        W 8747  37.366  30.113  12.541
40407W        W 8748  33.402  43.959  11.878
40408W        W 8749  22.196  15.813   3.850
40409W        W 8750   1.476  26.203   0.461
40410W        W 8751  41.375  36.924  10.586
40411W        W 8752   1.929  20.552   4.267
40412W        W 8753  39.545   0.338  12.400
40413W        W 8754  31.459  37.504   0.427
40414W        W 8755  19.044  41.975  10.456
40415W        W 8756  18.754  22.742  10.932
40416W        W 8757   4.763  41.968   0.803
40417W        W 8758  12.813  42.423  14.849
40418W        W 8759   7.758  38.899  14.456
40419W        W 8760  16.771  18.268  11.451
40420W        W 8761  33.076   1.461   4.816
40421W        W 8762   7.815  25.693  13.012
40422W        W 8763  12.174  16.798   0.945
40423W        W 8764  27.033  39.408   1.916
40424W        W 8765   0.910  33.887   1.725
40425W        W 8766   5.915  34.077  11.941
40426W        W 8767  23.613  10.160  12.540
40427W        W 8768  15.692  24.699  14.410
40428W        W 8769   7.897   4.906   1.229
40429W        W 8770   1.325  11.800  11.499
40430W        W 8771  28.662  23.010  12.383
40431W        W 8772   6.319  10.774  10.622
40432W        W 8773  15.810  13.723   0.863
40433W        W 8774   0.872   7.238  13.377
40434W        W 8775  22.086  33.980   3.798
40435W        W 8776  13.180   5.426  12.881
40436W        W 8777   9.217   7.268   1.299
40437W        W 8778  26.202  18.787   1.748
40438W        W 8779  42.827   1.350   4.199
40439W        W 8780   2.244   1.757   4.674
40440W        W 8781  43.903  43.809  13.010
40441W        W 8782  16.726   2.771  11.892
40442W        W 8783   3.317  42.449   3.309
40443W        W 8784   0.782  11.812  10.606
40444W        W 8785  36.460  33.447   2.705
40445W        W 8786  42.863  25.996   2.878
40446W        W 8787  44.948  18.214  11.458
40447W        W 8788  24.171  37.572   0.750
40448W        W 8789  16.292  39.428  12.374
40449W        W 8790  29.024  41.322   2.676
40450W        W 8791  18.565  25.058   4.213
40451W        W 8792  36.452  43.344   3.799
40452W        W 8793  34.982  23.720   4.338
40453W        W 8794  33.924  20.267   4.598
40454W        W 8795   9.811  17.574  11.529
40455W        W 8796   8.229  42.942   0.285
40456W        W 8797  36.878  25.068   0.292
40457W        W 8798  44.836  42.472  12.476
40458W        W 8799  10.161  39.407  10.903
40459W        W 8800   6.308  23.160   3.182
40460W        W 8801   3.342  38.423  10.035
40461W        W 8802   7.298  31.633  12.400
40462W        W 8803   5.750  43.408   4.697
40463W        W 8804  22.607  14.174  14.415
40464W        W 8805  13.246  39.451   5.124
40465W        W 8806  37.841  24.675   2.878
40466W        W 8807  13.290  30.076  11.490
40467W        W 8808   7.309  13.144   3.678
40468W        W 8809   4.222  43.404   1.414
40469W        W 8810   8.728  11.714  11.039
40470W        W 8811  27.069   4.309  10.642
40471W        W 8812  17.615   3.827   1.326
40472W        W 8813  12.776  36.411   0.955
40473W        W 8814   3.385  24.711  12.092
40474W        W 8815  22.550  41.808   0.853
40475W        W 8816  19.682   7.846  14.467
40476W        W 8817   0.432   1.277  10.615
40477W        W 8818  43.883  40.814   1.892
40478W        W 8819  24.208  38.445   1.898
40479W        W 8820  15.317  31.506   4.276
40480W        W 8821  16.628   2.323  13.527
40481W        W 8822  26.083  24.713   3.360
40482W        W 8823  28.511  38.457  13.497
40483W        W 8824  21.121  26.663   4.724
40484W        W 8825  33.615  11.278  14.773
40485W        W 8826   6.421  25.995  12.008
40486W        W 8827   6.725  44.783  11.994
40487W        W 8828  16.226  20.670   4.269
40488W        W 8829  38.964  37.450  14.025
40489W        W 8830  27.072   4.214  11.070
40490W        W 8831  15.790  26.045   9.942
40491W        W 8832   2.261  37.445  12.021
40492W        W 8833  14.604  43.918  11.011
40493W        W 8834  29.048  32.445   2.216
40494W        W 8835  14.687  15.688  13.433
40495W        W 8836  35.928  10.635   3.173
40496W        W 8837  11.858  43.847   0.852
40497W        W 8838  17.164  29.989  13.009
40498W        W 8839  30.539  36.902   4.771
40499W        W 8840  33.436  33.030   3.758
40500W        W 8841  32.435  38.848   0.310
40501W        W 8842   7.190  41.316  12.089
40502W        W 8843   7.672   3.394   4.297
40503W        W 8844  33.935  36.423  13.344
40504W        W 8845  21.590  20.703  11.448
40505W        W 8846   8.900  34.376  13.529
40506W        W 8847  18.106  28.931  13.452
40507W        W 8848  28.514  41.511  12.483
40508W        W 8849  15.736  38.940   2.368
40509W        W 8850  19.251   8.663   4.163
40510W        W 8851  10.752   5.426   0.876
40511W        W 8852   1.277  34.881   0.909
40512W        W 8853  41.395  12.205  12.057
40513W        W 8854  10.852   2.232  13.844
40514W        W 8855   9.754  38.518   2.871
40515W        W 8856  13.262  15.796  14.382
40516W        W 8857  21.606  13.723  12.388
40517W        W 8858  32.456  38.936   1.398
40518W        W 8859  19.112   9.184  10.926
40519W        W 8860  15.816  32.621   9.922
40520W        W 8861  37.371  41.302   3.166
40521W        W 8862   7.373  30.556  12.563
40522W        W 8863  25.476  19.743  10.484
40523W        W 8864  14.756   9.717   1.285
40524W        W 8865   2.837   7.807  12.919
40525W        W 8866  18.218  18.257  14.028
40526W        W 8867  28.599  23.605  13.493
40527W        W 8868   1.805   4.363  13.410
40528W        W 8869  38.493  37.542  12.340
40529W        W 8870  27.961  44.393   0.398
40530W        W 8871  34.910  40.445  13.546
40531W        W 8872  12.265  19.549  11.866
40532W        W 8873   1.774  13.766  14.494
40533W        W 8874  37.857  20.677   0.731
40534W        W 8875   4.726  28.186   4.307
40535W        W 8876   8.729  35.989  13.388
40536W        W 8877   4.294  21.646   2.902
40537W        W 8878  23.676   8.284   1.864
40538W        W 8879  24.508  21.730  11.020
40539W        W 8880  27.559  20.523   2.326
40540W        W 8881  25.190  43.960  12.369
40541W        W 8882  13.273  33.885   2.307
40542W        W 8883  21.252  12.134  14.299
40543W        W 8884  13.144  19.051   0.373
40544W        W 8885  20.187  18.124   4.709
40545W        W 8886  27.126   7.786  11.500
40546W        W 8887  24.595  21.604   0.844
40547W        W 8888   7.238  44.899   2.193
40548W        W 8889  37.349   3.333  13.447
40549W        W 8890   6.721  32.051   1.705
40550W        W 8891  31.547  12.738   3.788
40551W        W 8892  35.423  12.202   4.143
40552W        W 8893  31.604  42.984   0.264
40553W        W 8894  43.417  20.556  10.631
40554W        W 8895  11.629  41.497  10.891
40555W        W 8896  28.484  31.648   0.755
40556W        W 8897  15.773  29.477  11.903
40557W        W 8898  20.721  39.006  12.037
40558W        W 8899  35.925  23.131  14.289
40559W        W 8900  16.716   8.393   4.155
40560W        W 8901  40.538  44.505  12.489
40561W        W 8902  32.074  33.534   1.708
40562W        W 8903  12.249  13.682  10.903
40563W        W 8904  41.329  35.864  10.495
40564W        W 8905  37.912  43.505   0.351
40565W        W 8906  41.925  35.932   2.317
40566W        W 8907  25.051  24.170  14.429
40567W        W 8908   8.791  44.889  13.320
40568W        W 8909  43.497  19.776  12.975
40569W        W 8910  25.190   8.177  11.083
40570W        W 8911  33.931  24.186  14.336
40571W        W 8912   9.818  24.656   0.851
40572W        W 8913  31.478  24.492  11.556
40573W        W 8914  29.969  37.832   3.817
40574W        W 8915  16.604   4.907   1.706
40575W        W 8916  23.627  36.399  13.047
40576W        W 8917  23.114  17.777  11.411
40577W        W 8918  42.968   1.482  13.977
40578W        W 8919  15.173  31.102  10.570
40579W        W 8920  30.022  15.779  14.348
40580W        W 8921  13.189  36.485   3.828
40581W        W 8922  31.455  41.851  12.546
40582W        W 8923  35.854  15.319  11.542
40583W        W 8924   6.293  34.934   4.148
40584W        W 8925  15.702  26.475   0.899
40585W        W 8926  38.487   8.761  10.437
40586W        W 8927  32.892  11.770   2.767
40587W        W 8928   1.848  39.557   1.907
40588W        W 8929  40.312  32.457  11.982
40589W        W 8930  44.792  23.647  14.446
40590W        W 8931  13.175  16.215   4.312
40591W        W 8932   3.294  21.596  13.840
40592W        W 8933   2.386  35.945  11.442
40593W        W 8934  41.844  22.250  11.590
40594W        W 8935  14.230  44.875  13.987
40595W        W 8936  44.289  13.656   0.757
40596W        W 8937  33.094   3.301  13.803
40597W        W 8938   9.765  39.820   1.730
40598W        W 8939  14.145  25.038   2.366
40599W        W 8940   3.386  29.120  14.032
40600W        W 8941  30.495  16.183  11.507
40601W        W 8942   4.239   6.369  10.929
40602W        W 8943  25.128  25.535   3.365
40603W        W 8944  36.546   1.271  11.859
40604W        W 8945  34.934  36.441   2.836
40605W        W 8946  44.009  41.995   1.430
40606W        W 8947  24.644  15.615  14.032
40607W        W 8948  20.742   4.243   3.339
40608W        W 8949  20.547   7.415  13.526
40609W        W 8950  42.820  38.497   2.714
40610W        W 8951  38.018  31.957  13.929
40611W        W 8952  25.583  40.942   0.357
40612W        W 8953  13.795  10.211  13.999
40613W        W 8954  36.505  34.584   3.356
40614W        W 8955  24.038  34.463  13.482
40615W        W 8956  38.399   3.351   1.251
40616W        W 8957  30.103  21.119  14.022
40617W        W 8958  19.717  39.558  10.522
40618W        W 8959  11.736  20.260  11.553
40619W        W 8960  26.144   4.289  13.984
40620W        W 8961  44.909   5.305   3.664
40621W        W 8962  31.505  34.515  13.016
40622W        W 8963  12.214   5.932  12.537
40623W        W 8964  27.000   8.380   4.310
40624W        W 8965  17.799  36.431   2.199
40625W        W 8966   2.788  14.628  10.633
40626W        W 8967   4.930  15.100   2.847
40627W        W 8968  22.709  44.845   0.950
40628W        W 8969  28.107  36.428   1.927
40629W        W 8970  41.894   1.964  11.601
40630W        W 8971  14.776  31.915   5.254
40631W        W 8972  15.232   4.782   4.321
40632W        W 8973  17.757  15.681   2.376
40633W        W 8974  28.090  36.056   1.416
40634W        W 8975  13.113  43.506  12.575
40635W        W 8976  16.594   2.278  11.553
40636W        W 8977   9.762  40.313  14.824
40637W        W 8978  30.428  23.146  12.006
40638W        W 8979  33.428  30.988   3.289
40639W        W 8980  18.186  31.077   0.874
40640W        W 8981   4.836  26.602   3.801
40641W        W 8982  17.298  41.511   4.620
40642W        W 8983  26.574  11.345  10.509
40643W        W 8984  36.581  19.738   4.162
40644W        W 8985  20.685  44.291   4.740
40645W        W 8986   0.954  35.437  12.574
40646W        W 8987   8.818  17.113  13.362
40647W        W 8988  27.028  19.144   0.742
40648W        W 8989   6.258  12.304   2.194
40649W        W 8990   3.914  15.171   4.727
40650W        W 8991  11.759  13.345   5.127
40651W        W 8992  17.139   4.382  13.497
40652W        W 8993  41.853  22.028  12.899
40653W        W 8994  36.016  43.951   3.301
40654W        W 8995  34.592  32.496  13.009
40655W        W 8996   0.372  24.566   2.341
40656W        W 8997  33.004  32.108   2.716
40657W        W 8998  28.172  12.208   4.247
40658W        W 8999  37.439   6.763  10.991
40659W        W 9000   4.436  30.518   2.179
40660W        W 9001  26.076  23.202   4.264
40661W        W 9002  28.093  44.845   2.690
40662W        W 9003  33.907  10.304   3.181
40663W        W 9004   4.312   6.341   4.604
40664W        W 9005  18.681  18.590  13.375
40665W        W 9006  32.609   0.791  13.386
40666W        W 9007  14.335   7.176  12.868
40667W        W 9008   4.370  44.841  11.945
40668W        W 9009  30.469  21.186   3.797
40669W        W 9010  38.439  21.253  14.391
40670W        W 9011   1.308   7.416  10.427
40671W        W 9012  41.521  36.950  11.406
40672W        W 9013   1.923  13.219   3.284
40673W        W 9014  17.596  24.071  14.494
40674W        W 9015  15.148  16.223   1.215
40675W        W 9016  35.040   4.244  13.830
40676W        W 9017  37.969   4.878  13.064
40677W        W 9018  38.379   9.301   4.306
40678W        W 9019   8.184  11.346   3.662
40679W        W 9020  42.811   1.838  10.949
40680W        W 9021  22.520  44.759  11.564
40681W        W 9022  17.064  33.001  13.359
40682W        W 9023  11.707   3.913  14.995
40683W        W 9024  36.056  11.657   2.676
40684W        W 9025  21.131  41.848   4.251
40685W        W 9026   7.755   6.792   0.297
40686W        W 9027  36.093  23.616   1.350
40687W        W 9028   1.479  22.727  11.910
40688W        W 9029   7.346  32.580   2.786
40689W        W 9030  15.121   2.751   1.902
40690W        W 9031   7.830  13.761   0.758
40691W        W 9032  17.762  31.058   2.674
40692W        W 9033  38.554  43.433   3.364
40693W        W 9034  33.420  23.183  13.822
40694W        W 9035  25.027   6.257  14.017
40695W        W 9036  42.908  32.017   3.691
40696W        W 9037  33.576  18.161  14.367
40697W        W 9038  34.489   9.872  12.022
40698W        W 9039  44.000  36.008  11.030
40699W        W 9040  17.587  27.158  14.015
40700W        W 9041  29.165   7.668   4.796
40701W        W 9042  12.797  42.520  10.550
40702W        W 9043  11.224  44.853   1.793
40703W        W 9044  22.736  10.235   1.759
40704W        W 9045  42.455  43.499   1.752
40705W        W 9046  30.949   1.929   2.308
40706W        W 9047  29.160  40.938   2.796
40707W        W 9048  31.052  19.241   1.868
40708W        W 9049   5.201   2.367   4.327
40709W        W 9050  20.048  37.536  14.330
40710W        W 9051  30.012  19.690  11.103
40711W        W 9052  41.386   2.334  13.917
40712W        W 9053  38.980  42.856  11.861
40713W        W 9054  33.956  23.066   0.440
40714W        W 9055  26.632  41.951  11.974
40715W        W 9056  24.717  24.713   3.783
40716W        W 9057  39.847  40.527   2.692
40717W        W 9058   7.322  14.339  10.437
40718W        W 9059  27.957  39.895  13.973
40719W        W 9060   7.768  36.966  14.784
40720W        W 9061  33.033  41.324  10.014
40721W        W 9062  42.816   9.309  12.353
40722W        W 9063   4.364   9.869   1.867
40723W        W 9064  12.669  31.594   1.314
40724W        W 9065  21.069   1.346   4.299
40725W        W 9066   3.711  35.856   0.833
40726W        W 9067  25.195   6.343   1.827
40727W        W 9068  21.529  39.322  10.916
40728W        W 9069  34.384  34.079  11.002
40729W        W 9070  34.009  10.842  11.395
40730W        W 9071  34.907  27.977   2.846
40731W        W 9072  34.597  11.794   0.468
40732W        W 9073  39.379  28.562  11.962
40733W        W 9074  28.535  10.345  11.572
40734W        W 9075  34.063   1.317  14.831
40735W        W 9076   9.155   0.939   1.379
40736W        W 9077  44.459  14.144  10.159
40737W        W 9078  18.135  20.527  10.551
40738W        W 9079   2.965  44.772  14.994
40739W        W 9080  22.173  28.638   4.207
40740W        W 9081   3.246  25.608   1.220
40741W        W 9082  30.058  40.355   3.304
40742W        W 9083  29.975  24.618   4.183
40743W        W 9084  30.000  12.229  13.415
40744W        W 9085  39.848  41.970  12.496
40745W        W 9086  42.521  35.417   2.189
40746W        W 9087  15.120   4.942   2.194
40747W        W 9088  37.029  39.409  11.876
40748W        W 9089  27.587   9.309   1.933
40749W        W 9090  19.535  20.207   4.333
40750W        W 9091  19.656  36.920   4.166
40751W        W 9092  19.662  17.257   2.782
40752W        W 9093  44.966  40.900   4.684
40753W        W 9094  16.627   1.472   0.479
40754W        W 9095  37.433   8.804   4.207
40755W        W 9096  23.579  25.066   2.866
40756W        W 9097  17.667   4.930   2.234
40757W        W 9098  27.529  34.864  14.967
40758W        W 9099  29.469  30.908  12.054
40759W        W 9100  22.062  13.239   3.229
40760W        W 9101  13.731  21.673   0.254
40761W        W 9102  29.108   5.330  12.047
40762W        W 9103  19.105  24.977  10.990
40763W        W 9104   7.789  11.683   4.775
40764W        W 9105   3.230  28.971   1.404
40765W        W 9106  35.376  11.677   4.604
40766W        W 9107  28.539  17.560  12.055
40767W        W 9108  29.051  43.913  12.869
40768W        W 9109  44.405   8.811   9.958
40769W        W 9110  32.136   1.423   3.216
40770W        W 9111  21.664   1.932  14.299
40771W        W 9112  11.783   8.703  14.446
40772W        W 9113  33.960   3.769  10.939
40773W        W 9114  17.735  17.277   0.401
40774W        W 9115   9.253  19.190   1.303
40775W        W 9116  17.240  34.108  12.398
40776W        W 9117  37.371  42.794  14.941
40777W        W 9118  10.162  29.946   2.304
40778W        W 9119  26.577   5.329  13.981
40779W        W 9120  32.590  10.672   1.355
40780W        W 9121  15.818  38.520  14.008
40781W        W 9122  34.575  33.102   2.337
40782W        W 9123  34.596   6.198   1.885
40783W        W 9124  18.059  21.111   4.751
40784W        W 9125  16.172  39.856  10.413
40785W        W 9126  23.216  43.418   3.382
40786W        W 9127  23.056  18.741   3.862
40787W        W 9128  11.671  39.336   1.263
40788W        W 9129  40.400  20.636   0.479
40789W        W 9130  41.013   1.945   2.370
40790W        W 9131   2.293  32.400   0.405
40791W        W 9132  44.405  25.699   0.908
40792W        W 9133   9.373  39.477  12.006
40793W        W 9134  38.514  24.694  13.829
40794W        W 9135  44.495  19.547   4.633
40795W        W 9136   8.306  21.099  10.950
40796W        W 9137   6.789   1.451  13.923
40797W        W 9138  32.952  34.595  11.377
40798W        W 9139  19.075  12.353   2.217
40799W        W 9140   3.886  38.438  13.381
40800W        W 9141   8.752  44.314   3.792
40801W        W 9142  43.902  44.265   1.696
40802W        W 9143  16.177  20.074   4.670
40803W        W 9144  25.107   9.812   2.811
40804W        W 9145  43.886   3.811  12.090
40805W        W 9146  17.581  33.606  11.927
40806W        W 9147  25.656   5.716   3.828
40807W        W 9148   7.216  17.247   0.343
40808W        W 9149  32.955  17.674   0.348
40809W        W 9150  40.937   6.247  10.985
40810W        W 9151  29.962  28.082  12.991
40811W        W 9152  16.595  26.563  13.979
40812W        W 9153  20.108  44.419  11.017
40813W        W 9154  21.641  32.899  13.887
40814W        W 9155  23.686  21.605   3.275
40815W        W 9156  12.613  17.626   0.899
40816W        W 9157  18.668   9.671   0.359
40817W        W 9158  17.205  19.667   2.665
40818W        W 9159  17.681  24.627  12.898
40819W        W 9160   0.279  19.265   0.451
40820W        W 9161  29.004   9.285  13.891
40821W        W 9162  39.473  14.308  10.889
40822W        W 9163   3.263   3.894   3.818
40823W        W 9164  37.574  31.522  10.507
40824W        W 9165  13.186  19.658  12.852
40825W        W 9166  37.021  27.493  13.459
40826W        W 9167   1.767  30.044  12.925
40827W        W 9168   9.778  39.926   3.646
40828W        W 9169   6.308  28.539   2.194
40829W        W 9170   4.706  22.184  14.842
40830W        W 9171   4.783   8.292  13.004
40831W        W 9172  43.944  34.992   4.141
40832W        W 9173  23.504  30.961  10.405
40833W        W 9174  34.995  12.281  12.056
40834W        W 9175  20.550  19.066  12.419
40835W        W 9176  32.014   5.733  14.024
40836W        W 9177  33.471  16.671  12.936
40837W        W 9178   9.345   0.413   2.192
40838W        W 9179  21.031   5.200  13.406
40839W        W 9180  38.571  17.641   2.361
40840W        W 9181  20.102  40.432  14.958
40841W        W 9182  25.135   8.289   2.398
40842W        W 9183  21.517   8.276   3.221
40843W        W 9184  30.509  33.481   5.229
40844W        W 9185  35.047  42.013  11.504
40845W        W 9186  12.618  29.503  11.061
40846W        W 9187  30.988  27.103   2.241
40847W        W 9188   2.294  39.946   3.752
40848W        W 9189  33.608  36.395  12.846
40849W        W 9190  35.996  28.622   4.225
40850W        W 9191   6.366  40.805  14.331
40851W        W 9192  18.636   3.892   4.811
40852W        W 9193   2.351  40.431  12.985
40853W        W 9194  41.489   5.408  12.397
40854W        W 9195  21.077  17.225  10.539
40855W        W 9196  11.142  14.188   4.237
40856W        W 9197   5.238   7.350  12.525
40857W        W 9198  31.134  15.166   0.760
40858W        W 9199  18.691  30.565   3.660
40859W        W 9200  33.019  42.470   0.950
40860W        W 9201  28.511  37.054   4.835
40861W        W 9202  14.211  14.097  14.765
40862W        W 9203  14.299  34.865  12.919
40863W        W 9204   5.735   4.436   4.652
40864W        W 9205  17.793  44.985  14.458
40865W        W 9206  42.012  11.729  13.865
40866W        W 9207  43.798  36.045   0.739
40867W        W 9208  29.635  13.156   1.867
40868W        W 9209  16.255  23.168   1.714
40869W        W 9210  15.126  22.709   0.294
40870W        W 9211  22.666   7.201   2.898
40871W        W 9212  11.168  32.069  13.528
40872W        W 9213  27.146  18.663   0.748
40873W        W 9214  39.494  30.095  11.027
40874W        W 9215  15.287  15.616  14.304
40875W        W 9216  42.787  18.136   5.218
40876W        W 9217  29.044  17.112   1.434
40877W        W 9218  24.199   5.320   2.361
40878W        W 9219  38.900  29.447   4.677
40879W        W 9220  14.102   8.693   3.641
40880W        W 9221   3.891  28.996  10.490
40881W        W 9222  17.750  12.611   4.168
40882W        W 9223   9.155  39.509   3.314
40883W        W 9224   4.835   2.392   4.783
40884W        W 9225  11.134  25.035  14.430
40885W        W 9226  24.010   8.766   2.339
40886W        W 9227  28.498  29.611   4.352
40887W        W 9228   9.783  37.421   0.383
40888W        W 9229  13.685  30.144  10.591
40889W        W 9230  19.610  20.052  12.903
40890W        W 9231   1.442  29.531  12.428
40891W        W 9232  13.327  13.277  14.862
40892W        W 9233   3.423  39.541   1.329
40893W        W 9234  28.511  17.171  11.503
40894W        W 9235  42.295  40.398  11.512
40895W        W 9236   5.219  42.412  13.810
40896W        W 9237   0.961  44.341  12.944
40897W        W 9238   3.721  19.044   4.201
40898W        W 9239  29.953  28.656  10.407
40899W        W 9240  33.433  42.850  13.452
40900W        W 9241  20.111  12.326  12.979
40901W        W 9242  20.659  27.494  13.996
40902W        W 9243  22.593   1.789  14.828
40903W        W 9244  27.459  29.990   3.702
40904W        W 9245  11.785  43.811  13.331
40905W        W 9246  24.022  44.808  12.471
40906W        W 9247  44.940  27.586   1.813
40907W        W 9248  22.093  43.822   3.830
40908W        W 9249  31.120   4.421   0.931
40909W        W 9250  18.731  20.622   4.786
40910W        W 9251  35.534  44.934   2.334
40911W        W 9252  21.628  16.775  11.573
40912W        W 9253   4.338  23.567  11.482
40913W        W 9254   3.817  12.755   0.837
40914W        W 9255  36.501  19.613  10.549
40915W        W 9256  22.519   2.456  13.486
40916W        W 9257  11.148  44.806  12.850
40917W        W 9258   4.906   7.701   1.749
40918W        W 9259   3.382  12.281  14.417
40919W        W 9260  31.602  41.451   4.229
40920W        W 9261  43.507  42.821  14.320
40921W        W 9262  42.941  37.509   3.748
40922W        W 9263  16.180  39.011   1.282
40923W        W 9264   6.717   6.259  11.588
40924W        W 9265  38.017  20.702   3.252
40925W        W 9266  35.559  29.014  12.949
40926W        W 9267  25.203  31.017  14.295
40927W        W 9268  34.935   2.241   3.375
40928W        W 9269  19.113  36.895  14.023
40929W        W 9270  44.001   1.284   0.464
40930W        W 9271  18.225   7.703  11.864
40931W        W 9272  29.459  40.049   2.318
40932W        W 9273   5.267  39.983   4.608
40933W        W 9274  44.389  11.199  12.425
40934W        W 9275   8.741   9.239   2.196
40935W        W 9276  44.754  19.713   2.344
40936W        W 9277  32.567  18.660   1.796
40937W        W 9278   9.859   8.258   1.385
40938W        W 9279  29.974  12.151   2.874
40939W        W 9280  41.529  40.032  11.481
40940W        W 9281   1.882  27.109  14.505
40941W        W 9282   8.403  40.930   4.641
40942W        W 9283   3.735  36.485  10.579
40943W        W 9284  38.531  44.397  11.978
40944W        W 9285  14.228  12.170  10.887
40945W        W 9286  29.458  26.629  10.075
40946W        W 9287  11.352  37.929   3.772
40947W        W 9288  28.163  36.509   0.334
40948W        W 9289   3.444  29.981  13.795
40949W        W 9290  34.063  28.575   0.813
40950W        W 9291  20.579  10.357   4.645
40951W        W 9292  25.135   3.810   3.258
40952W        W 9293  39.549  42.467  14.822
40953W        W 9294  19.761   7.393   4.134
40954W        W 9295  33.889  35.463   1.826
40955W        W 9296  36.965   1.753  14.788
40956W        W 9297   9.817  12.258  10.104
40957W        W 9298  33.607  10.203  14.275
40958W        W 9299  29.154  38.353  11.497
40959W        W 9300  25.157   7.808  12.092
40960W        W 9301  31.113  14.229  10.019
40961W        W 9302   3.430   0.754   1.387
40962W        W 9303  16.591  31.093  11.385
40963W        W 9304  21.126  42.437  13.499
40964W        W 9305  41.386   4.740   4.804
40965W        W 9306  29.527  17.200  14.420
40966W        W 9307  12.123  20.139  14.921
40967W        W 9308  32.457  33.519   0.834
40968W        W 9309  26.521   4.270   2.305
40969W        W 9310  20.531  34.612   3.780
40970W        W 9311  33.067   4.714   0.890
40971W        W 9312   9.246  24.006  10.924
40972W        W 9313  20.146  11.640  11.394
40973W        W 9314  34.509  26.110  12.418
40974W        W 9315  23.090  37.945   4.634
40975W        W 9316  33.514  31.644  14.353
40976W        W 9317  14.256  40.549   2.302
40977W        W 9318   5.338  17.688   4.686
40978W        W 9319  10.313  26.972  12.907
40979W        W 9320  31.911  36.914  12.092
40980W        W 9321  27.946  39.055   1.232
40981W        W 9322  29.481  20.703  11.520
40982W        W 9323  26.681  25.509  14.784
40983W        W 9324  44.945  21.258  13.056
40984W        W 9325  28.574   4.303   3.213
40985W        W 9326  26.094  14.671   2.340
40986W        W 9327   3.338  26.573   0.395
40987W        W 9328  31.636   7.763  10.583
40988W        W 9329  29.156   8.885  13.966
40989W        W 9330  16.745  27.490  10.457
40990W        W 9331  23.239  17.139   0.451
40991W        W 9332  23.190  34.048   2.193
40992W        W 9333  28.076   1.861   3.805
40993W        W 9334  41.796  30.934  14.908
40994W        W 9335   5.900  17.082  10.423
40995W        W 9336  41.011  43.342   0.878
40996W        W 9337  32.954  26.094  11.009
40997W        W 9338  31.633  40.452  12.438
40998W        W 9339   2.956   8.277  10.964
40999W        W 9340  22.585  27.600   3.634
41000W        W 9341  20.736  24.604  10.434
41001W        W 9342   1.885  41.858   1.788
41002W        W 9343  37.875  18.108  12.998
41003W        W 9344  27.479   8.657   0.391
41004W        W 9345  26.665  31.100   1.924
41005W        W 9346   4.728  16.696  12.960
41006W        W 9347   7.335   9.739   2.758
41007W        W 9348   0.386  37.869  13.541
41008W        W 9349  18.166  15.624   0.764
41009W        W 9350  38.521   5.253   3.232
41010W        W 9351   4.838  44.482   0.852
41011W        W 9352  25.142  17.139   1.836
41012W        W 9353  37.950   1.827  14.032
41013W        W 9354   1.444  30.931   1.217
41014W        W 9355   1.956   7.286  10.459
41015W        W 9356  30.619  26.972  11.907
41016W        W 9357  36.457  15.782  10.053
41017W        W 9358   2.343  24.205  13.015
41018W        W 9359   3.403  35.457   3.266
41019W        W 9360  13.167  23.100   3.844
41020W        W 9361  17.092  23.206   4.210
41021W        W 9362   6.230  28.118  10.913
41022W        W 9363  44.815  36.417  11.123
41023W        W 9364   2.886   1.838  14.773
41024W        W 9365  25.622  32.085   0.384
41025W        W 9366  15.715   4.362   3.635
41026W        W 9367  27.664  19.737  11.059
41027W        W 9368   0.322  41.877  13.876
41028W        W 9369  25.531  14.832   2.716
41029W        W 9370  32.034   6.763  12.055
41030W        W 9371  30.482  34.430   3.383
41031W        W 9372  31.527  30.110   0.806
41032W        W 9373  30.127  26.521   1.412
41033W        W 9374  23.112  32.132  10.407
41034W        W 9375  28.469  13.736   0.452
41035W        W 9376  44.961   3.772   1.889
41036W        W 9377  27.625  44.933  10.413
41037W        W 9378  30.511  14.797   3.639
41038W        W 9379  30.608  41.364  10.583
41039W        W 9380   3.434   3.944  12.055
41040W        W 9381  35.094  41.970   5.276
41041W        W 9382  30.421  42.477   2.843
41042W        W 9383  37.011  33.419   0.738
41043W        W 9384  15.318  15.310   0.783
41044W        W 9385  24.678   7.232  11.980
41045W        W 9386  14.603  21.143  10.637
41046W        W 9387  17.632  36.487   1.397
41047W        W 9388  20.224  16.772   3.732
41048W        W 9389  27.949  19.657   1.347
41049W        W 9390  30.960  19.551   3.677
41050W        W 9391  24.719  19.235   2.803
41051W        W 9392  40.007  36.513  14.398
41052W        W 9393  34.529  17.213   3.347
41053W        W 9394  19.553  33.001   0.780
41054W        W 9395  19.185  29.458  13.950
41055W        W 9396  23.045  26.579   4.208
41056W        W 9397  24.494  19.270  14.972
41057W        W 9398  37.893  42.472  10.149
41058W        W 9399  32.537   8.803   2.389
41059W        W 9400  34.901   8.667  12.477
41060W        W 9401  34.416   4.854   0.775
41061W        W 9402  30.160  42.943   0.767
41062W        W 9403  26.087  31.059  13.366
41063W        W 9404  38.852  32.113  13.990
41064W        W 9405  43.781  15.790   3.190
41065W        W 9406  31.572  11.194  12.431
41066W        W 9407  10.724  32.929   3.300
41067W        W 9408  33.558  24.050  13.383
41068W        W 9409  13.154  19.588  11.471
41069W        W 9410   0.848  39.540  11.460
41070W        W 9411  13.694  38.470  10.527
41071W        W 9412  44.808  10.674   0.256
41072W        W 9413  27.688  33.492  10.645
41073W        W 9414  27.676  43.429  10.537
41074W        W 9415  25.661  33.585  12.886
41075W        W 9416  14.289   0.857  12.004
41076W        W 9417  24.668  33.922  13.365
41077W        W 9418  39.051  37.054  12.899
41078W        W 9419  27.485  37.582  12.566
41079W        W 9420  17.739  26.032  12.525
41080W        W 9421  12.311  20.150   4.783
41081W        W 9422  38.555   6.323  11.543
41082W        W 9423   2.423  10.842  12.980
41083W        W 9424  13.177  11.350  10.630
41084W        W 9425  19.077  38.382   0.255
41085W        W 9426  32.058  17.269  13.876
41086W        W 9427  36.435  38.482  13.923
41087W        W 9428   2.833  17.563   1.752
41088W        W 9429  25.631  39.545  11.044
41089W        W 9430  14.835  26.107  14.782
41090W        W 9431  36.567  28.970  12.096
41091W        W 9432  38.955  19.131  13.327
41092W        W 9433  39.045  37.921  11.601
41093W        W 9434   0.791  34.954   3.856
41094W        W 9435   0.853   6.282   3.659
41095W        W 9436   4.248  19.099   0.945
41096W        W 9437  30.032  40.874  13.537
41097W        W 9438  20.160  44.969  12.423
41098W        W 9439   5.830   2.447  14.393
41099W        W 9440   9.238  31.609  10.432
41100W        W 9441  14.218  39.034  14.490
41101W        W 9442  36.471  38.373  14.447
41102W        W 9443  25.028  13.657  12.858
41103W        W 9444  20.215  10.371  10.071
41104W        W 9445   6.739  18.650  11.056
41105W        W 9446  14.699  18.675   2.890
41106W        W 9447  22.598  34.089  12.974
41107W        W 9448  24.695  39.940   2.290
41108W        W 9449  25.000  40.051   4.642
41109W        W 9450  25.564   3.301  11.984
41110W        W 9451  25.027  23.159   1.797
41111W        W 9452  40.428  44.446  13.870
41112W        W 9453  23.664  25.473  13.850
41113W        W 9454  29.499  12.159  10.965
41114W        W 9455   4.414  38.968  14.341
41115W        W 9456  19.718  15.111   4.165
41116W        W 9457  20.701   3.819   2.853
41117W        W 9458   7.282  25.209   0.754
41118W        W 9459  39.977   9.795   2.826
41119W        W 9460  28.577  17.264   0.275
41120W        W 9461  18.274  39.015   1.930
41121W        W 9462  33.594  40.817  10.593
41122W        W 9463  25.962  11.187  13.451
41123W        W 9464  41.470  31.136   3.701
41124W        W 9465   6.777  10.664   0.825
41125W        W 9466  36.591  26.557   4.639
41126W        W 9467  31.544   7.724  11.914
41127W        W 9468   2.958   1.828   1.300
41128W        W 9469  14.115  40.342   1.769
41129W        W 9470  28.545  33.926   1.765
41130W        W 9471  17.736  31.577   1.438
41131W        W 9472   7.826  33.486  10.968
41132W        W 9473  42.797  24.198   2.770
41133W        W 9474  14.605  15.186   2.809
41134W        W 9475  34.962  38.849   0.892
41135W        W 9476  14.123   8.841   2.202
41136W        W 9477  16.666  36.933   1.294
41137W        W 9478   6.311  10.656  11.091
41138W        W 9479  25.518  24.574  12.962
41139W        W 9480  21.535   8.819  14.376
41140W        W 9481  20.627   9.736   3.739
41141W        W 9482  20.197   7.182  11.010
41142W        W 9483  28.157  26.482   4.140
41143W        W 9484  32.449  14.132  13.398
41144W        W 9485  42.404  13.702   0.810
41145W        W 9486  18.274  11.259   0.762
41146W        W 9487   3.397   3.797   2.410
41147W        W 9488  29.435   3.722   3.649
41148W        W 9489  43.486  44.773  14.479
41149W        W 9490  15.187   4.358   4.202
41150W        W 9491   4.749   5.775  12.965
41151W        W 9492  20.245  15.226  14.357
41152W        W 9493  17.589   8.253   2.811
41153W        W 9494  20.656  44.859   4.345
41154W        W 9495  15.316  13.249   4.791
41155W        W 9496   8.401  28.586   4.696
41156W        W 9497  17.289  42.390  14.313
41157W        W 9498  20.557   0.820   2.308
41158W        W 9499  40.943   7.759   1.843
41159W        W 9500  27.528  20.274   2.729
41160W        W 9501   1.387  24.589  12.503
41161W        W 9502  13.784  30.020  11.982
41162W        W 9503   7.382   4.807  14.387
41163W        W 9504  11.362   1.937   1.871
41164W        W 9505  44.941  32.051  14.935
41165W        W 9506  36.448  33.013  14.324
41166W        W 9507  32.987   5.373   3.362
41167W        W 9508  36.874  21.607   0.781
41168W        W 9509  15.196  36.918  12.913
41169W        W 9510  24.191  40.897  13.348
41170W        W 9511   0.280  17.786   1.759
41171W        W 9512   2.793  36.030  14.276
41172W        W 9513  28.072   7.349   0.763
41173W        W 9514  30.069  15.581   2.855
41174W        W 9515  15.244  21.662  13.374
41175W        W 9516  10.213  19.660  10.430
41176W        W 9517   4.844  35.378   4.655
41177W        W 9518  38.464  41.484  10.418
41178W        W 9519   3.337   9.204   0.412
41179W        W 9520  38.880   7.310  10.996
41180W        W 9521   9.384  24.641   1.273
41181W        W 9522  28.971   1.920  13.936
41182W        W 9523   3.277  35.932   4.788
41183W        W 9524  39.429   6.384  14.906
41184W        W 9525  17.578  18.229  12.409
41185W        W 9526  24.171  22.117  13.353
41186W        W 9527  39.495  24.994   2.895
41187W        W 9528  11.171  11.136   3.797
41188W        W 9529  41.463  26.527   1.776
41189W        W 9530  17.773  41.869   1.799
41190W        W 9531   7.722  14.680   2.369
41191W        W 9532  40.054  18.183  10.421
41192W        W 9533   8.264  35.517   2.249
41193W        W 9534   6.854  42.350  11.909
41194W        W 9535  12.120  43.297  10.615
41195W        W 9536  14.671  28.598  12.908
41196W        W 9537  15.786  22.513   5.260
41197W        W 9538  25.584  12.842  14.506
41198W        W 9539  10.318  22.660   3.316
41199W        W 9540  34.951  42.418  13.460
41200W        W 9541  36.376  17.292   2.684
41201W        W 9542  33.879  34.885   3.341
41202W        W 9543   7.820  34.978   0.826
41203W        W 9544  12.283  27.174   2.775
41204W        W 9545  17.212   3.798  13.425
41205W        W 9546  13.339  13.325   1.875
41206W        W 9547   1.938  39.050  10.618
41207W        W 9548  22.130  33.888  14.277
41208W        W 9549  19.222  10.732  13.804
41209W        W 9550  18.748  28.480   3.238
41210W        W 9551  35.975   0.908   2.374
41211W        W 9552   0.760  39.006   5.260
41212W        W 9553  19.240  14.700   2.306
41213W        W 9554  34.096   0.772   1.380
41214W        W 9555  16.792  37.450   4.772
41215W        W 9556   6.363  30.433   2.322
41216W        W 9557   4.889   4.383   3.718
41217W        W 9558  15.585  37.441   1.334
41218W        W 9559  33.039  37.449  12.010
41219W        W 9560  10.299  22.645   0.903
41220W        W 9561   3.378  26.143   2.820
41221W        W 9562  29.034  11.776   4.129
41222W        W 9563   5.222  25.593   4.161
41223W        W 9564   8.832  35.391   4.649
41224W        W 9565  25.215  44.371   0.747
41225W        W 9566  36.384  13.682  11.481
41226W        W 9567  15.161  19.692   1.881
41227W        W 9568   2.964  44.878   1.779
41228W        W 9569  40.437  41.955   3.205
41229W        W 9570  31.130  40.532  11.411
41230W        W 9571  37.952  38.365  11.556
41231W        W 9572  38.032  33.553  10.930
41232W        W 9573  33.068  14.594  14.916
41233W        W 9574   9.738  28.117  13.821
41234W        W 9575  39.819  42.457   4.189
41235W        W 9576   3.369  32.912   1.254
41236W        W 9577  19.063  41.518   1.444
41237W        W 9578  40.894  15.161   1.751
41238W        W 9579   5.761   0.811   1.436
41239W        W 9580   9.299  33.498  10.555
41240W        W 9581  23.140  38.827  14.916
41241W        W 9582  33.443  13.718   2.337
41242W        W 9583  18.645  17.139   1.369
41243W        W 9584   2.772  39.529   1.831
41244W        W 9585   4.449  21.636  14.479
41245W        W 9586  32.090  40.865   3.304
41246W        W 9587   0.797  30.940  13.469
41247W        W 9588  21.103   3.873   3.662
41248W        W 9589  14.748  33.556  11.442
41249W        W 9590   0.260  33.530  13.376
41250W        W 9591  41.888   8.782   3.261
41251W        W 9592   0.825  13.255  12.893
41252W        W 9593  24.080  19.773   4.663
41253W        W 9594  13.613  15.108   4.141
41254W        W 9595  43.820  22.193   2.785
41255W        W 9596  28.954  43.939  12.401
41256W        W 9597  42.009  33.949   1.380
41257W        W 9598  33.987  12.684  12.539
41258W        W 9599   4.278   6.738   1.400
41259W        W 9600  25.502  14.248  14.986
41260W        W 9601  43.350  32.511   0.347
41261W        W 9602  24.681  43.860   0.805
41262W        W 9603  30.472   7.413   4.180
41263W        W 9604  40.981  37.577   2.839
41264W        W 9605  33.589  29.921   1.259
41265W        W 9606  21.638  26.026  11.887
41266W        W 9607  43.474  34.899   1.336
41267W        W 9608   6.291  37.416  13.857
41268W        W 9609  36.972  13.261   2.221
41269W        W 9610   3.815  11.297  12.994
41270W        W 9611  43.339  21.749   1.230
41271W        W 9612  40.501  28.506  11.041
41272W        W 9613  14.256   7.879   0.328
41273W        W 9614  31.142  21.214   0.901
41274W        W 9615  12.328   0.873  13.515
41275W        W 9616   5.329  29.478  12.359
41276W        W 9617  36.904  16.092  12.579
41277W        W 9618  17.571  30.434   2.239
41278W        W 9619  33.438   8.685   1.822
41279W        W 9620  14.118  30.984   5.284
41280W        W 9621  20.091  28.117   4.134
41281W        W 9622  41.412  29.047  14.401
41282W        W 9623  26.162  22.102   0.875
41283W        W 9624  41.893  34.050  14.015
41284W        W 9625  39.457  43.459  11.006
41285W        W 9626  40.956   3.441  12.032
41286W        W 9627  21.195  27.959  11.576
41287W        W 9628  27.590  29.495  14.804
41288W        W 9629  44.971  12.756   3.167
41289W        W 9630  42.897  25.123  11.940
41290W        W 9631  10.315   7.334   2.835
41291W        W 9632  27.453   5.237  12.974
41292W        W 9633  17.157  43.451  13.982
41293W        W 9634  42.834  34.538  13.037
41294W        W 9635  30.597  30.654   3.232
41295W        W 9636  40.992  29.087   2.703
41296W        W 9637   2.232  31.485   0.340
41297W        W 9638  31.018  34.891  14.895
41298W        W 9639   1.409  42.854  11.492
41299W        W 9640   0.276  37.002   2.333
41300W        W 9641  44.456  40.949   3.346
41301W        W 9642   8.238  40.505  12.844
41302W        W 9643   9.380  17.241   1.372
41303W        W 9644  32.484   4.843  13.328
41304W        W 9645  28.533  28.665   0.332
41305W        W 9646  44.320  24.013  14.442
41306W        W 9647  22.100  17.600   1.275
41307W        W 9648  16.578  26.965   0.371
41308W        W 9649  38.865  18.094   3.798
41309W        W 9650  34.057  27.630  13.868
41310W        W 9651  25.154  41.960  13.417
41311W        W 9652  22.503  35.521   4.808
41312W        W 9653  14.615  42.493  11.966
41313W        W 9654  31.450  11.645   0.758
41314W        W 9655  34.538   8.714  13.354
41315W        W 9656  20.126   1.432  11.603
41316W        W 9657  37.035  32.546  10.919
41317W        W 9658  30.931  28.090   2.256
41318W        W 9659   8.337  17.574  10.530
41319W        W 9660  43.000  23.116   3.783
41320W        W 9661   5.387  11.344   4.665
41321W        W 9662  20.121   7.715   1.855
41322W        W 9663   1.311  29.983  12.825
41323W        W 9664  34.447   1.929  13.967
41324W        W 9665   6.728  31.037  11.391
41325W        W 9666  40.862  21.659   1.766
41326W        W 9667   3.408   7.202   3.823
41327W        W 9668  35.017  40.485  11.474
41328W        W 9669  40.962  31.056  11.478
41329W        W 9670  35.447  24.192  13.855
41330W        W 9671  35.602  10.316   2.196
41331W        W 9672  13.299   9.346  12.400
41332W        W 9673  37.336  23.040  11.495
41333W        W 9674  11.754  36.577   4.252
41334W        W 9675  29.989  34.603   2.900
41335W        W 9676  10.797  32.616   1.781
41336W        W 9677  13.779  30.104  12.917
41337W        W 9678  16.621  14.181   1.906
41338W        W 9679  10.645   4.837   3.810
41339W        W 9680  17.204  36.074   5.127
41340W        W 9681  15.120   5.909  10.553
41341W        W 9682  15.134  15.670  14.779
41342W        W 9683  35.410  17.285  13.411
41343W        W 9684  26.962  24.160  13.532
41344W        W 9685   3.233  27.671   0.803
41345W        W 9686  39.857  15.178  14.855
41346W        W 9687   1.733  31.033  13.057
41347W        W 9688  39.385   3.900  12.924
41348W        W 9689  41.478  28.642  10.410
41349W        W 9690  44.496  30.153   4.651
41350W        W 9691  22.091   4.924  11.503
41351W        W 9692  36.982   0.908  13.897
41352W        W 9693  22.505  32.618  13.007
41353W        W 9694   4.908  19.053  11.457
41354W        W 9695  23.000  40.931   0.730
41355W        W 9696   1.240  15.222  13.508
41356W        W 9697  31.044  14.624  13.897
41357W        W 9698  20.060  11.673  11.036
41358W        W 9699  27.979  33.390  11.512
41359W        W 9700  43.941  42.892  10.912
41360W        W 9701  13.256  28.005   2.267
41361W        W 9702  24.675  21.758   3.237
41362W        W 9703  28.057  16.110  13.497
41363W        W 9704  39.958   5.918   3.737
41364W        W 9705  17.754   5.216  11.029
41365W        W 9706  41.347  39.865   2.898
41366W        W 9707  41.429  32.079  14.974
41367W        W 9708  28.029   2.875   2.378
41368W        W 9709   7.318  14.336  14.364
41369W        W 9710   2.320  14.237   0.953
41370W        W 9711  15.190  27.523  12.441
41371W        W 9712  27.671  18.282  12.830
41372W        W 9713  26.602  29.158  10.434
41373W        W 9714   0.457  26.090   0.966
41374W        W 9715  10.376  31.439  11.064
41375W        W 9716  23.688  21.516  14.513
41376W        W 9717   5.771  20.573   3.718
41377W        W 9718  10.360  12.711  11.933
41378W        W 9719  30.942   4.927  10.985
41379W        W 9720  19.666  12.341  12.474
41380W        W 9721  11.671   6.337  13.404
41381W        W 9722  23.533  10.859   2.349
41382W        W 9723  17.605  31.618   2.860
41383W        W 9724   9.866  32.624  10.925
41384W        W 9725  19.145  17.097  14.337
41385W        W 9726  14.782  44.379  11.399
41386W        W 9727  25.582  14.210   0.896
41387W        W 9728  18.053  23.563  14.491
41388W        W 9729  37.511  44.342  13.021
41389W        W 9730  14.108  14.332   0.298
41390W        W 9731  22.599  12.808   0.770
41391W        W 9732  42.888   2.931  14.918
41392W        W 9733  33.963  15.592   0.891
41393W        W 9734   9.316  35.388  14.926
41394W        W 9735  38.449   8.706  12.451
41395W        W 9736  20.093  12.187   4.686
41396W        W 9737   9.825  33.989  12.082
41397W        W 9738  40.019   4.240   2.828
41398W        W 9739  13.125  16.705  12.567
41399W        W 9740  18.080   0.282   4.295
41400W        W 9741  28.159   4.827  10.136
41401W        W 9742   4.359  14.683  13.307
41402W        W 9743  27.981  11.319  11.053
41403W        W 9744   4.848  33.935  13.051
41404W        W 9745  26.667  44.498  12.537
41405W        W 9746   1.371  17.243   3.351
41406W        W 9747  27.053  32.139   2.700
41407W        W 9748  13.787  16.582  13.984
41408W        W 9749   3.763  28.533  10.912
41409W        W 9750  23.994  27.965   3.149
41410W        W 9751  21.657  22.584  11.124
41411W        W 9752   6.814  31.513  10.923
41412W        W 9753   9.780  38.868   1.861
41413W        W 9754   9.793  12.276   4.293
41414W        W 9755  10.262   5.866  13.436
41415W        W 9756  29.168  23.059  11.607
41416W        W 9757  35.908  26.160  11.595
41417W        W 9758  16.128  35.005   3.747
41418W        W 9759  18.609  13.777  10.509
41419W        W 9760  11.160   1.320   1.372
41420W        W 9761   3.421   5.916  10.107
41421W        W 9762  19.742  25.141  14.410
41422W        W 9763  43.880  30.630  14.818
41423W        W 9764   4.918   2.832  12.953
41424W        W 9765   0.886  25.561   3.773
41425W        W 9766  18.604  11.672  10.542
41426W        W 9767   3.322  42.429   4.123
41427W        W 9768  37.893  37.506   4.186
41428W        W 9769  31.624  41.314   9.634
41429W        W 9770  15.815  21.112   3.678
41430W        W 9771   2.734  25.520   1.813
41431W        W 9772  11.370  25.206  12.024
41432W        W 9773  39.339  33.091  11.546
41433W        W 9774  22.034  43.959  14.317
41434W        W 9775  43.303   5.225   2.261
41435W        W 9776   1.836  19.082   0.813
41436W        W 9777  21.620   6.208   3.694
41437W        W 9778   3.311  10.229  12.474
41438W        W 9779  20.555  40.971  12.842
41439W        W 9780   0.405  18.669   5.288
41440W        W 9781  43.345   1.950   4.738
41441W        W 9782  36.945   8.332  13.023
41442W        W 9783   4.806  40.797  14.931
41443W        W 9784  41.364  13.278  11.532
41444W        W 9785  16.655  36.593  14.419
41445W        W 9786  22.128  38.497   1.274
41446W        W 9787   0.472   6.888   2.874
41447W        W 9788  29.511  38.433  11.547
41448W        W 9789  24.493  28.968  10.431
41449W        W 9790  44.440  17.773   3.641
41450W        W 9791  15.146  25.473  12.029
41451W        W 9792  39.519  27.532   2.724
41452W        W 9793  18.603  28.180  11.998
41453W        W 9794  25.638  31.990   4.215
41454W        W 9795   4.389  14.215   4.809
41455W        W 9796  32.073   0.964  13.043
41456W        W 9797   1.440   6.354   1.867
41457W        W 9798   7.898  22.741   3.864
41458W        W 9799  10.829  43.794   0.877
41459W        W 9800  35.502  42.488   4.286
41460W        W 9801  10.242  39.921   1.248
41461W        W 9802  21.564  43.792  14.297
41462W        W 9803  15.630  15.263   1.425
41463W        W 9804  43.375  32.418  11.548
41464W        W 9805  10.682  16.309   0.479
41465W        W 9806  38.390   9.166   0.922
41466W        W 9807  39.346   3.265   5.171
41467W        W 9808  17.095  38.892  14.020
41468W        W 9809  38.907   9.765   1.815
41469W        W 9810   9.160  10.820  13.968
41470W        W 9811  24.706  36.886  13.997
41471W        W 9812  33.460  32.956   4.126
41472W        W 9813  34.514   0.281  10.993
41473W        W 9814  19.716  40.979   2.768
41474W        W 9815   5.925  19.171  12.050
41475W        W 9816  44.814  43.378  10.610
41476W        W 9817  39.446  13.213   0.886
41477W        W 9818  12.842  42.452   0.841
41478W        W 9819  25.511  19.057   2.902
41479W        W 9820  40.829  35.474   3.738
41480W        W 9821  24.157   3.266  11.982
41481W        W 9822  28.511  13.249   2.352
41482W        W 9823   1.472  18.063   4.147
41483W        W 9824  23.593  22.515   1.244
41484W        W 9825  39.815  13.817  11.055
41485W        W 9826  32.563   2.767  11.390
41486W        W 9827  26.492   0.958   3.671
41487W        W 9828  18.096  23.185  12.838
41488W        W 9829  25.521  27.665   3.279
41489W        W 9830  23.714   3.254  13.488
41490W        W 9831   2.314  21.167  13.842
41491W        W 9832  17.779   9.193  12.968
41492W        W 9833  26.027   1.409  11.513
41493W        W 9834   6.842  29.531  13.318
41494W        W 9835  23.593  19.267  12.076
41495W        W 9836  20.609  29.435  12.094
41496W        W 9837  42.406  44.362  12.366
41497W        W 9838  42.419  41.017  12.044
41498W        W 9839  11.636   3.231  13.892
41499W        W 9840  28.447  39.994  12.567
41500W        W 9841   1.780  32.125  14.915
41501W        W 9842  43.492  39.533   0.839
41502W        W 9843  12.839  26.696   0.846
41503W        W 9844  30.960  11.195  10.945
41504W        W 9845  44.837  11.776  14.009
41505W        W 9846  16.688  25.577   1.331
41506W        W 9847   1.242  28.628   4.261
41507W        W 9848  42.348  16.570   2.354
41508W        W 9849  22.196  24.100   4.746
41509W        W 9850  14.604   3.938  14.322
41510W        W 9851  39.429   7.757   2.702
41511W        W 9852  18.590   1.267   4.205
41512W        W 9853   7.812  29.587  12.346
41513W        W 9854  19.263  29.139   4.177
41514W        W 9855  23.590  27.656   4.308
41515W        W 9856   4.743  23.585   1.798
41516W        W 9857   3.767  18.186  11.435
41517W        W 9858  30.610  11.840  10.641
41518W        W 9859  22.184   2.438  11.981
41519W        W 9860  30.954  31.038   4.816
41520W        W 9861  14.835  22.558   4.296
41521W        W 9862  30.083  35.479  13.853
41522W        W 9863   5.428  34.407   4.636
41523W        W 9864  15.235  11.263   1.798
41524W        W 9865  26.032  12.700  10.950
41525W        W 9866  15.774  32.580   2.372
41526W        W 9867   0.451   4.879  11.058
41527W        W 9868   5.269  16.688   0.846
41528W        W 9869  35.886  33.037   3.776
41529W        W 9870   4.293   6.374  10.545
41530W        W 9871   9.856  41.419  12.352
41531W        W 9872  15.581  27.940   3.160
41532W        W 9873   8.721   8.729   4.603
41533W        W 9874   5.837  27.522   3.832
41534W        W 9875  34.461   1.377  10.503
41535W        W 9876   3.862  23.687  11.942
41536W        W 9877   2.905  28.940   2.872
41537W        W 9878  37.846  43.488  12.360
41538W        W 9879  31.502  15.176   1.389
41539W        W 9880   8.201  35.880  11.408
41540W        W 9881  15.604   2.354   9.937
41541W        W 9882  14.829   1.788  14.383
41542W        W 9883  40.511  25.647   2.237
41543W        W 9884   6.865  33.120   3.869
41544W        W 9885  13.753  14.218  14.430
41545W        W 9886  40.406  11.675   0.846
41546W        W 9887  13.257  33.891  13.972
41547W        W 9888   2.420  16.700   2.201
41548W        W 9889  31.403  36.096  11.518
41549W        W 9890  32.929  23.198  14.376
41550W        W 9891   0.351  37.336  14.005
41551W        W 9892  24.711  14.626  14.013
41552W        W 9893  19.551  18.582   4.822
41553W        W 9894   6.311  39.456  13.322
41554W        W 9895  34.045  41.538   0.784
41555W        W 9896  29.436  25.062   3.199
41556W        W 9897  15.663  33.928   1.327
41557W        W 9898   4.828  14.629  12.339
41558W        W 9899  40.001  25.046   4.624
41559W        W 9900  26.188  33.908  10.960
41560W        W 9901   0.384  22.616   3.856
41561W        W 9902  30.032  29.606  10.966
41562W        W 9903  15.161   9.678   1.254
41563W        W 9904   6.231   7.397   2.205
41564W        W 9905  14.100  40.933  11.889
41565W        W 9906   8.778   5.820   0.351
41566W        W 9907  43.999  32.042  12.367
41567W        W 9908  29.478  21.733   3.214
41568W        W 9909  34.938  13.812   1.401
41569W        W 9910  33.455  41.024  10.000
41570W        W 9911   8.887  17.758   3.871
41571W        W 9912  18.292  18.115   4.240
41572W        W 9913  10.793  30.938   3.761
41573W        W 9914  33.005  13.307   1.811
41574W        W 9915  22.615   9.867   2.703
41575W        W 9916  27.493  38.475   0.934
41576W        W 9917  20.762  15.769  10.983
41577W        W 9918   4.276  15.638  13.359
41578W        W 9919   5.200  21.662  11.077
41579W        W 9920  30.990  27.542   1.915
41580W        W 9921   4.725  20.233  11.595
41581W        W 9922  42.912  16.707   9.974
41582W        W 9923  29.508  38.431  13.911
41583W        W 9924   0.900  32.114   4.350
41584W        W 9925  40.852   6.856  10.890
41585W        W 9926  35.906   2.801   2.277
41586W        W 9927  44.866  16.187   0.303
41587W        W 9928  40.470  43.994   4.338
41588W        W 9929  42.855  17.741  13.488
41589W        W 9930  19.190  13.106  11.098
41590W        W 9931  10.853  36.967   1.434
41591W        W 9932  18.123  24.629   0.872
41592W        W 9933  24.108  29.040   0.819
41593W        W 9934  19.705  30.942  14.989
41594W        W 9935  31.600  24.208   4.236
41595W        W 9936  14.200   4.754   0.391
41596W        W 9937   1.413  18.709  11.102
41597W        W 9938  26.167  26.504   1.339
41598W        W 9939   3.243  27.513   1.884
41599W        W 9940  24.138  24.490  12.891
41600W        W 9941   3.456   3.853  13.950
41601W        W 9942  32.409  15.759   3.870
41602W        W 9943  42.841  32.550  12.092
41603W        W 9944   7.816  44.882   0.919
41604W        W 9945  43.997   4.241  12.388
41605W        W 9946  17.242  29.594   4.615
41606W        W 9947   1.433  20.522   2.265
41607W        W 9948  32.923  36.399   4.192
41608W        W 9949  29.994  41.316  11.568
41609W        W 9950  39.472   6.767   3.647
41610W        W 9951  40.008  12.124  14.292
41611W        W 9952   0.296  24.582   0.377
41612W        W 9953  31.912  25.052  14.985
41613W        W 9954  27.005  38.492   1.864
41614W        W 9955  26.521   5.225   0.859
41615W        W 9956  40.454  43.776   2.746
41616W        W 9957  33.026   0.474   4.251
41617W        W 9958  29.458  36.378   0.882
41618W        W 9959  19.185  44.957  12.888
41619W        W 9960  12.118  25.997   2.860
41620W        W 9961  40.824  16.709   2.668
41621W        W 9962  19.182   2.454   3.270
41622W        W 9963  36.922   0.963  11.933
41623W        W 9964  11.289  27.164  11.436
41624W        W 9965  10.190  17.140  11.377
41625W        W 9966  21.175  30.559   4.169
41626W        W 9967  44.949  33.456  14.908
41627W        W 9968  17.592   2.240   1.351
41628W        W 9969  13.315  33.507   3.242
41629W        W 9970   9.261  21.181  12.518
41630W        W 9971  31.988  41.829   2.693
41631W        W 9972   0.916   4.724  12.502
41632W        W 9973  25.136   6.889   1.708
41633W        W 9974  34.119  15.183  12.502
41634W        W 9975   5.885  12.361  14.370
41635W        W 9976   4.751   1.251  13.520
41636W        W 9977  28.065  35.056  13.451
41637W        W 9978   5.333  33.584  10.425
41638W        W 9979  31.036  30.527   3.370
41639W        W 9980  21.727  12.262   3.353
41640W        W 9981  32.986  23.690  13.533
41641W        W 9982  23.206   5.761  14.849
41642W        W 9983   9.299  15.100   3.644
41643W        W 9984  37.453   5.754  13.029
41644W        W 9985  19.211  28.050  12.014
41645W        W 9986  21.129  16.793   3.235
41646W        W 9987   1.752  26.544   3.778
41647W        W 9988  25.561  31.107  13.336
41648W        W 9989  40.913  38.544   0.888
41649W        W 9990  13.168  17.711   1.698
41650W        W 9991  15.798  13.839  14.778
41651W        W 9992  32.477   3.444   0.944
41652W        W 9993  12.286  24.533  14.874
41653W        W 9994  44.954  41.446  10.577
41654W        W 9995  21.085  12.303   4.115
41655W        W 9996  37.391   6.700   3.728
41656W        W 9997  11.721  21.208  12.063
41657W        W 9998   6.857   7.694   4.175
41658W        W 9999  22.629  31.639   0.818
41659W        W10000  18.681   9.393   4.653
41660W        W10001  22.674  19.063  13.430
41661W        W10002  23.625  23.539   2.700
41662W        W10003  36.079  25.974   1.821
41663W        W10004  13.764   4.246   2.672
41664W        W10005  30.047  31.105   2.259
41665W        W10006  11.198  13.682   2.682
41666W        W10007  10.726  22.998   1.215
41667W        W10008  18.187  24.039  10.909
41668W        W10009  35.864  29.133  13.859
41669W        W10010  25.133   1.767   3.275
41670W        W10011  41.459  24.097  12.926
41671W        W10012   7.751  31.624   1.211
41672W        W10013  36.057  11.683   3.680
41673W        W10014  17.584  23.672  11.377
41674W        W10015  29.002  13.810   2.352
41675W        W10016  29.029  14.226  11.555
41676W        W10017   8.219  11.201  13.494
41677W        W10018   9.301   9.298   3.201
41678W        W10019  28.634   6.308  13.835
41679W        W10020  11.260  34.886   3.775
41680W        W10021   4.427   6.716  11.092
41681W        W10022  10.177  26.570   0.739
41682W        W10023  15.308  33.549   0.257
41683W        W10024  38.873  34.379  13.888
41684W        W10025   9.281  42.388  12.575
41685W        W10026  30.638   8.165   4.709
41686W        W10027  26.192   1.818  10.909
41687W        W10028   2.813  11.813  10.974
41688W        W10029  13.655  40.307   2.754
41689W        W10030   9.670  41.939   0.398
41690W        W10031   1.428  23.088   1.709
41691W        W10032   5.904  38.904  10.028
41692W        W10033   9.391  26.540  12.403
41693W        W10034  41.926  11.170   1.899
41694W        W10035  29.455   3.868  13.542
41695W        W10036  22.712   0.967  13.461
41696W        W10037   5.298  32.537   4.210
41697W        W10038   5.925  35.556   3.843
41698W        W10039  39.056  29.569  12.017
41699W        W10040  26.031  44.471  14.443
41700W        W10041   3.386  41.864   4.655
41701W        W10042  30.023  38.440  14.835
41702W        W10043  19.746   4.885   1.319
41703W        W10044   7.832  25.118  12.543
41704W        W10045  24.050  31.975  10.053
41705W        W10046  16.122   3.794   1.324
41706W        W10047  25.708  40.027   3.801
41707W        W10048  36.963  35.046   4.640
41708W        W10049  44.387  27.467  12.088
41709W        W10050  39.828  39.885   1.390
41710W        W10051  24.541  40.418   0.951
41711W        W10052  43.443   0.743   3.845
41712W        W10053  22.155  13.670   1.773
41713W        W10054  24.481  34.950  10.898
41714W        W10055   0.443  12.199  11.513
41715W        W10056  15.699   8.893  11.994
41716W        W10057  19.619   4.247  10.959
41717W        W10058  39.815   9.785   2.380
41718W        W10059  32.894  22.076   1.883
41719W        W10060  13.645   2.445  10.587
41720W        W10061   4.920   5.932  13.505
41721W        W10062  29.532  32.097   1.717
41722W        W10063  21.604  33.606  12.011
41723W        W10064  12.819  30.538   1.812
41724W        W10065  36.968   8.314  11.575
41725W        W10066   5.282  29.123   4.804
41726W        W10067   2.389   6.397  13.311
41727W        W10068  19.541   9.364   4.238
41728W        W10069  10.675  14.590  14.009
41729W        W10070  24.551  42.808  13.030
41730W        W10071  15.698  44.949  12.904
41731W        W10072  33.508  30.117   0.887
41732W        W10073  37.898  42.385   2.741
41733W        W10074  17.083  38.865  14.479
41734W        W10075   1.377  11.705   4.346
41735W        W10076  40.372  11.697  12.544
41736W        W10077  27.571   4.709  12.413
41737W        W10078  33.405   2.326   1.364
41738W        W10079  29.449  31.437  14.433
41739W        W10080  17.189  20.591  13.880
41740W        W10081  26.995   7.293   4.681
41741W        W10082  15.689  31.561  11.910
41742W        W10083  26.689   0.283   4.245
41743W        W10084  37.470  33.490   2.383
41744W        W10085  24.178  34.095   1.720
41745W        W10086  11.632  42.426   1.700
41746W        W10087  25.142  16.140  10.475
41747W        W10088   6.839  12.271   2.332
41748W        W10089   2.809  20.681   1.253
41749W        W10090  44.499  39.332   1.850
41750W        W10091  12.149   2.842  11.936
41751W        W10092   0.905  14.291  14.887
41752W        W10093   8.171  13.706  13.847
41753W        W10094  38.042   5.320   2.333
41754W        W10095   5.851  30.123  11.413
41755W        W10096   9.284  27.104  11.530
41756W        W10097   3.751   4.906  10.017
41757W        W10098  16.807   8.746  11.560
41758W        W10099  13.625   4.701   2.382
41759W        W10100   1.812   2.723  11.575
41760W        W10101  26.696  37.573  10.409
41761W        W10102  44.344  33.023   2.254
41762W        W10103  16.318  25.139   0.386
41763W        W10104  28.127  20.217   0.303
41764W        W10105  39.515  41.902   4.688
41765W        W10106  39.504  41.923   1.857
41766W        W10107  38.450  29.523   4.770
41767W        W10108   2.385   8.255  12.011
41768W        W10109   4.707  33.875  14.465
41769W        W10110   4.728  26.488   2.344
41770W        W10111  39.987  27.601  12.450
41771W        W10112  18.237  30.636  11.042
41772W        W10113  28.933  42.848  14.850
41773W        W10114  30.655  12.336  14.898
41774W        W10115   8.824  38.963  12.096
41775W        W10116  30.054  31.052  13.455
41776W        W10117  24.605  13.721  12.402
41777W        W10118  23.710  43.344   0.855
41778W        W10119  43.989  23.108  12.466
41779W        W10120   4.238  37.050  11.547
41780W        W10121  23.634  39.883  11.459
41781W        W10122  29.970  17.663  11.092
41782W        W10123   5.908  42.816  14.997
41783W        W10124  12.229   7.827  14.785
41784W        W10125  18.162  39.332   0.341
41785W        W10126  22.234   1.952  13.537
41786W        W10127  15.130  21.720   3.343
41787W        W10128  15.788  37.949  12.512
41788W        W10129  36.937  14.314   4.722
41789W        W10130  27.647   7.229   0.399
41790W        W10131   6.900  14.221   0.329
41791W        W10132  10.298  24.060   4.307
41792W        W10133  11.197  25.053  11.476
41793W        W10134  32.392  25.158  13.884
41794W        W10135   1.434  14.310   0.409
41795W        W10136  11.686  20.046   3.262
41796W        W10137  22.185  11.275  11.963
41797W        W10138  25.211  39.913   2.238
41798W        W10139  39.347  20.604  14.494
41799W        W10140  29.997  39.372  14.875
41800W        W10141  20.230   0.274   3.657
41801W        W10142   2.867  21.029  14.824
41802W        W10143  30.032  33.119   1.784
41803W        W10144  35.598  38.072   4.220
41804W        W10145   8.350  10.210   2.798
41805W        W10146   5.410  12.711  11.390
41806W        W10147   6.771  22.082   4.821
41807W        W10148  35.085   1.238   1.280
41808W        W10149  15.666  12.286   2.186
41809W        W10150  39.494  12.728  13.904
41810W        W10151  35.069   1.808   3.254
41811W        W10152   5.287  14.225  11.579
41812W        W10153  44.817  27.474  11.968
41813W        W10154  43.516  32.984   1.774
41814W        W10155  37.892  42.300  12.564
41815W        W10156  42.308  35.426  14.903
41816W        W10157   4.401  14.191   2.316
41817W        W10158  42.380   9.361   0.258
41818W        W10159  37.893   1.340   4.620
41819W        W10160  22.045  43.423   2.873
41820W        W10161  10.220   0.283   2.290
41821W        W10162  22.025   9.370   2.803
41822W        W10163   3.896  43.336   3.740
41823W        W10164  42.806  22.229  14.351
41824W        W10165  10.296   5.265  14.971
41825W        W10166  31.584  34.983  13.322
41826W        W10167  16.170   3.288  13.951
41827W        W10168  10.680  11.696   4.251
41828W        W10169  28.442  41.329   2.860
41829W        W10170  11.823  10.207  12.361
41830W        W10171  23.547  25.991  12.900
41831W        W10172   4.447  22.723  11.856
41832W        W10173  43.893  15.220  11.102
41833W        W10174   6.414  15.784   0.401
41834W        W10175  40.986  40.493   1.442
41835W        W10176  34.072  30.500   2.896
41836W        W10177  19.702  26.013  10.509
41837W        W10178  34.942  34.528   3.644
41838W        W10179   6.332   3.426   2.813
41839W        W10180  18.757   7.394  13.435
41840W        W10181  16.288   9.219  11.892
41841W        W10182  24.570   6.377  11.011
41842W        W10183  21.743  37.374   0.897
41843W        W10184   5.704  44.355  13.483
41844W        W10185   0.931  32.600  11.099
41845W        W10186  19.607  17.211  11.514
41846W        W10187   6.336  32.011   2.391
41847W        W10188  43.312  33.981  13.524
41848W        W10189  43.285  35.431   4.288
41849W        W10190  13.773  17.709  11.531
41850W        W10191  16.760  29.447  12.018
41851W        W10192  25.613   7.193   5.241
41852W        W10193  11.799  25.495  13.023
41853W        W10194   7.875  35.490  12.426
41854W        W10195  21.190   1.788   3.859
41855W        W10196   0.790   8.320   2.255
41856W        W10197  42.464  31.469  14.781
41857W        W10198  29.450  18.251  14.874
41858W        W10199  11.362  13.176  10.483
41859W        W10200  25.169  20.672   1.730
41860W        W10201   7.403  44.427  11.455
41861W        W10202  21.190  40.494   2.674
41862W        W10203  21.617  44.944  10.495
41863W        W10204   8.272  32.592   3.353
41864W        W10205  26.615  32.929   3.158
41865W        W10206  26.018  30.099   4.754
41866W        W10207   0.397  44.475   4.835
41867W        W10208  15.086  42.796  14.317
41868W        W10209  14.777   3.888   2.192
41869W        W10210  34.983  34.580  14.901
41870W        W10211   0.891  44.425  14.316
41871W        W10212  37.366   0.863   4.289
41872W        W10213  35.994  32.966  12.506
41873W        W10214  21.115  21.641   2.753
41874W        W10215  38.912  34.936   0.893
41875W        W10216  27.074  22.514  12.834
41876W        W10217  17.637  32.051  11.961
41877W        W10218  22.660  38.948   0.808
41878W        W10219  33.429  26.964   0.247
41879W        W10220  11.772  16.270  14.457
41880W        W10221  36.976  12.658   3.806
41881W        W10222  18.769  27.173  11.035
41882W        W10223   4.836  21.582  11.126
41883W        W10224   2.450   1.972  10.422
41884W        W10225   3.362  22.007   3.228
41885W        W10226  16.751   9.215  12.911
41886W        W10227  35.529  43.939  13.811
41887W        W10228  25.975   8.194  14.278
41888W        W10229  36.507  12.120  11.022
41889W        W10230  21.177  26.569   5.240
41890W        W10231  22.245  33.590   0.804
41891W        W10232  37.513  35.541  13.421
41892W        W10233  16.598  20.704   2.281
41893W        W10234  30.589  37.352   3.656
41894W        W10235  24.120  16.303   9.923
41895W        W10236  33.501  35.531  10.509
41896W        W10237  10.199   5.932   2.790
41897W        W10238  13.282  22.043   4.164
41898W        W10239  42.981  40.875   0.744
41899W        W10240  43.954  22.189   1.335
41900W        W10241  29.443   7.738  14.404
41901W        W10242  12.176  12.359  14.790
41902W        W10243  38.465  35.072   2.297
41903W        W10244  26.970  12.617   3.277
41904W        W10245  30.936   6.687   2.823
41905W        W10246  38.001  22.040   2.725
41906W        W10247  38.990   7.226   3.212
41907W        W10248  19.600  17.110  13.910
41908W        W10249   0.937   5.417   0.297
41909W        W10250  42.911  40.392  14.429
41910W        W10251  44.991   0.453   3.273
41911W        W10252  40.545  27.469  13.497
41912W        W10253   0.276  12.323   2.376
41913W        W10254   8.333  24.523   0.474
41914W        W10255  37.542  40.902  12.014
41915W        W10256  33.028  20.208   2.400
41916W        W10257  22.625  35.883  13.961
41917W        W10258  32.982  35.919   4.611
41918W        W10259  38.003  35.982   1.232
41919W        W10260  34.882  40.976   2.280
41920W        W10261  25.047   5.329  12.410
41921W        W10262  25.077  14.690  11.381
41922W        W10263  10.667  22.738   2.277
41923W        W10264  10.193  23.004   4.619
41924W        W10265  12.293  20.193   1.243
41925W        W10266  39.484  32.938  12.941
41926W        W10267  14.724  26.090  12.830
41927W        W10268   4.764  35.395   3.308
41928W        W10269  21.614  36.855  14.440
41929W        W10270  32.025  40.352   2.328
41930W        W10271  23.493  17.740   3.371
41931W        W10272  11.623  33.587   1.868
41932W        W10273  38.417  15.584  13.921
41933W        W10274  37.530  33.928  12.905
41934W        W10275  11.195  23.729  12.931
41935W        W10276  18.099  31.025   4.267
41936W        W10277  29.582  10.172  13.460
41937W        W10278  43.944  39.811  13.919
41938W        W10279   6.267  22.031   2.224
41939W        W10280  39.054   7.268  12.067
41940W        W10281  11.727   3.402   1.778
41941W        W10282  19.634   5.868   3.680
41942W        W10283  15.275   5.758  12.370
41943W        W10284  30.014  33.901  14.871
41944W        W10285   0.910  30.141  14.508
41945W        W10286  33.459  26.167  11.883
41946W        W10287   2.366  33.105  10.496
41947W        W10288  29.456   5.384  11.407
41948W        W10289  22.684  31.139  11.045
41949W        W10290  40.465  25.138  12.033
41950W        W10291  30.947  18.164  14.452
41951W        W10292  26.062   4.370   1.900
41952W        W10293  22.205  11.305   1.227
41953W        W10294  12.618  24.975   0.784
41954W        W10295  33.488  36.502  11.474
41955W        W10296  24.128  30.646  11.540
41956W        W10297  33.523  24.638  10.482
41957W        W10298  27.060  12.315  12.940
41958W        W10299  22.208   2.926   1.274
41959W        W10300  20.254  44.279  13.886
41960W        W10301  11.358   1.763  13.372
41961W        W10302  10.177  39.823  14.293
41962W        W10303  42.284   1.923  14.799
41963W        W10304  33.426  44.423  13.351
41964W        W10305   3.287   7.822   0.832
41965W        W10306   2.764  33.440  10.450
41966W        W10307  35.560   0.987   1.361
41967W        W10308  23.032  18.744  12.030
41968W        W10309  22.037  27.146   0.735
41969W        W10310   3.260  28.980  11.004
41970W        W10311   1.376  25.119  12.388
41971W        W10312  17.224   9.788  14.814
41972W        W10313  21.030  30.104   1.908
41973W        W10314  13.295   0.860  11.979
41974W        W10315   6.260  19.219  11.374
41975W        W10316  31.965  26.512   3.193
41976W        W10317   8.663  27.129  10.564
41977W        W10318   1.384   3.372   5.269
41978W        W10319  36.477  25.115   4.349
41979W        W10320  11.704  22.557  10.589
41980W        W10321  42.977   8.271   2.826
41981W        W10322  41.930  15.310  12.541
41982W        W10323   7.876   9.270  11.495
41983W        W10324  44.897  18.700  10.105
41984W        W10325  18.052   6.260  11.895
41985W        W10326   1.792   7.911   2.810
41986W        W10327  12.267   9.663   9.532
41987W        W10328  25.063  23.508   4.279
41988W        W10329  22.068   1.277  14.956
41989W        W10330  18.248  23.631  11.933
41990W        W10331   3.838   6.772  12.892
41991W        W10332  29.002  44.413  14.385
41992W        W10333  29.450   4.227   0.415
41993W        W10334  35.416  23.568  10.567
41994W        W10335  24.032  37.913  10.580
41995W        W10336  44.874  17.156   3.762
41996W        W10337  32.395  22.712   4.155
41997W        W10338  42.356  43.388  11.030
41998W        W10339   0.764   4.762  13.970
41999W        W10340   3.326  40.833   0.883
42000W        W10341  22.686  29.513  14.007
42001W        W10342  31.952  35.099   0.800
42002W        W10343  39.389  38.423  11.079
42003W        W10344  29.929  12.726  10.567
42004W        W10345   6.708  43.802   4.713
42005W        W10346   5.915  29.034  14.487
42006W        W10347  25.039  26.601   9.542
42007W        W10348  29.511  25.594   3.869
42008W        W10349  24.216  35.984   4.137
42009W        W10350   4.250  42.377  12.089
42010W        W10351  27.090  33.118  12.058
42011W        W10352  24.667  32.629  14.945
42012W        W10353  15.159  34.042   5.673
42013W        W10354   7.270   5.381   2.796
42014W        W10355  31.495  24.176  14.422
42015W        W10356   7.260   7.189  11.045
42016W        W10357  25.678  28.931   3.173
42017W        W10358  39.006   2.306  12.034
42018W        W10359  30.105  42.313   2.847
42019W        W10360   3.289  41.914   3.687
42020W        W10361   0.309  24.537   4.756
42021W        W10362   9.852  38.018   2.358
42022W        W10363  29.594   3.289   3.794
42023W        W10364  26.485  32.620   3.229
42024W        W10365  14.119  35.471   0.348
42025W        W10366  27.501  24.179  11.529
42026W        W10367   5.312  33.422   2.263
42027W        W10368   9.839   6.849   4.179
42028W        W10369   4.332   8.164  13.372
42029W        W10370  29.546   0.860  11.572
42030W        W10371  12.646  12.755  13.361
42031W        W10372  33.585  32.135   2.251
42032W        W10373   9.151  20.541   1.410
42033W        W10374  22.069  38.459  11.976
42034W        W10375  18.615  44.933   3.736
42035W        W10376  27.572  20.082  12.345
42036W        W10377  14.116   6.245  11.416
42037W        W10378  35.953   1.844  14.350
42038W        W10379  16.662  12.788   4.715
42039W        W10380  11.136  19.126   4.332
42040W        W10381  42.012  16.248   3.372
42041W        W10382  26.559  41.314  10.000
42042W        W10383   4.422  40.377  12.471
42043W        W10384  19.708   8.708   1.247
42044W        W10385  33.991   9.872   0.477
42045W        W10386   1.473  10.852   0.295
42046W        W10387  29.604  37.993  11.008
42047W        W10388   1.449  44.775  13.791
42048W        W10389  29.040   9.195   3.155
42049W        W10390   5.244  40.459   0.334
42050W        W10391   1.850  44.867  14.903
42051W        W10392   5.344  14.275  10.625
42052W        W10393  16.312   2.318  11.067
42053W        W10394  19.645  17.209   4.645
42054W        W10395  25.046  42.401   3.655
42055W        W10396  41.389  37.981  10.936
42056W        W10397   9.681   8.343   4.601
42057W        W10398  36.369  34.572  11.533
42058W        W10399  37.396   0.955   4.626
42059W        W10400  34.957  12.683   2.389
42060W        W10401  23.032  15.101  13.524
42061W        W10402  44.849  36.847  11.034
42062W        W10403   7.690  42.018   4.223
42063W        W10404  26.540  21.545  13.424
42064W        W10405  28.605  23.997   4.302
42065W        W10406  38.994  13.693  11.895
42066W        W10407  19.198  14.174   3.316
42067W        W10408   1.734   1.952   3.169
42068W        W10409  33.024  40.968   1.804
42069W        W10410  30.150  28.942   0.295
42070W        W10411  15.626  28.617  10.573
42071W        W10412  30.507  32.403  11.935
42072W        W10413   9.254  23.064  10.987
42073W        W10414   0.459  18.149   1.281
42074W        W10415   3.931  24.030  12.074
42075W        W10416  11.842   5.763   1.871
42076W        W10417  26.506  40.386  11.125
42077W        W10418  20.134  34.420  14.293
42078W        W10419  18.753  30.417   1.393
42079W        W10420  16.695  31.587  12.968
42080W        W10421   0.251  37.902  11.385
42081W        W10422  36.069  11.648  11.984
42082W        W10423  36.869  25.474  11.010
42083W        W10424  37.950  18.658  11.951
42084W        W10425  28.571  15.769   1.386
42085W        W10426  34.512  37.987   0.469
42086W        W10427   8.875   9.185   2.801
42087W        W10428  26.158  15.133  12.537
42088W        W10429  36.484  24.703   3.159
42089W        W10430  26.600   3.440   0.897
42090W        W10431  31.573  19.213  14.337
42091W        W10432  11.655   5.316   2.710
42092W        W10433   0.790   2.792  12.905
42093W        W10434  25.111   2.800   4.285
42094W        W10435  41.328  38.924   3.702
42095W        W10436  20.659  17.715  12.474
42096W        W10437  32.401  11.315   3.158
42097W        W10438   1.304   7.786   2.843
42098W        W10439  34.035   0.413  13.807
42099W        W10440  14.243  39.052   1.412
42100W        W10441  42.475  38.946  12.981
42101W        W10442  15.117   9.332   0.774
42102W        W10443  36.010  25.207  13.494
42103W        W10444  16.647   6.227  12.426
42104W        W10445  17.797   0.408   4.214
42105W        W10446  29.949  28.655   3.370
42106W        W10447  14.170  14.278   3.842
42107W        W10448  32.029  12.792  12.552
42108W        W10449  30.639  22.252  13.485
42109W        W10450   2.237  29.519  13.054
42110W        W10451  20.093  36.569   0.936
42111W        W10452  38.963  34.068   1.696
42112W        W10453  30.651  42.471   0.785
42113W        W10454  28.067  39.532  10.445
42114W        W10455   1.852  32.398  12.962
42115W        W10456   7.730  12.138   0.875
42116W        W10457  25.695  14.678  11.065
42117W        W10458  35.993  29.062   2.724
42118W        W10459   6.823  29.072  13.871
42119W        W10460  17.140   8.812  14.864
42120W        W10461  43.796  17.180  13.531
42121W        W10462  39.043  13.687   2.891
42122W        W10463  44.820  38.342  13.922
42123W        W10464  22.040  42.422   2.675
42124W        W10465  40.953  36.370  11.599
42125W        W10466  26.081  14.156  14.758
42126W        W10467  27.150  16.704  12.897
42127W        W10468  39.410   0.387   3.356
42128W        W10469  27.603  13.290   4.767
42129W        W10470   2.244  11.797   0.260
42130W        W10471  31.060  16.609   2.323
42131W        W10472  10.645  33.508  13.508
42132W        W10473   9.288  41.822  14.421
42133W        W10474  38.897  33.550  10.944
42134W        W10475  37.908  32.955   3.311
42135W        W10476  18.581  40.824  12.948
42136W        W10477  11.694  15.589   5.193
42137W        W10478  17.619   8.708   3.278
42138W        W10479  40.372  38.510  12.019
42139W        W10480  10.379  15.634  12.518
42140W        W10481  40.863  41.833   4.238
42141W        W10482  35.579   8.369   1.814
42142W        W10483  24.179  14.340  11.436
42143W        W10484  30.129  29.645   1.747
42144W        W10485   3.226   3.723   0.245
42145W        W10486  44.275  33.421   0.401
42146W        W10487   1.802  41.884   2.407
42147W        W10488   3.867  33.103  11.975
42148W        W10489  22.524   6.384  10.903
42149W        W10490   5.281  29.075  10.523
42150W        W10491  19.094   5.310  11.948
42151W        W10492  27.483   8.760   2.780
42152W        W10493   3.861  38.381   0.295
42153W        W10494  15.204   6.813  14.854
42154W        W10495   7.218   1.257   3.836
42155W        W10496   4.740  31.959   1.288
42156W        W10497  42.418  35.107   0.916
42157W        W10498   0.250  16.685   3.791
42158W        W10499  31.081  41.915  11.445
42159W        W10500  12.843  16.239   3.262
42160W        W10501  30.997  32.421  14.312
42161W        W10502  28.091  20.149   1.295
42162W        W10503  10.358  38.512   4.597
42163W        W10504   6.352  12.746  11.504
42164W        W10505  25.062  25.135  13.844
42165W        W10506  11.203  40.314  12.095
42166W        W10507  32.002  24.572  11.425
42167W        W10508  38.509  14.185  12.072
42168W        W10509  23.705  18.763   4.661
42169W        W10510   9.251  16.741  11.098
42170W        W10511   7.880   1.932  13.529
42171W        W10512  19.733  35.483   4.264
42172W        W10513  27.117   6.270   0.923
42173W        W10514  38.493  16.618   3.279
42174W        W10515  24.541   5.243  10.966
42175W        W10516  11.285  28.018   4.343
42176W        W10517  33.884   9.791  11.071
42177W        W10518  42.821  15.625   1.836
42178W        W10519  19.696  39.032   3.311
42179W        W10520  20.582  36.400   4.227
42180W        W10521  13.148  27.463   2.682
42181W        W10522  19.768  37.911  11.002
42182W        W10523  10.370  21.208   3.866
42183W        W10524  36.477  21.512  14.932
42184W        W10525   9.683  36.538   3.630
42185W        W10526  40.416  33.130   3.740
42186W        W10527  29.501  14.835  12.860
42187W        W10528  20.053  27.558  10.644
42188W        W10529   2.283   4.779   5.259
42189W        W10530  44.374  11.829   2.272
42190W        W10531  21.682  24.200   1.312
42191W        W10532  18.726   6.374   0.460
42192W        W10533  16.226  21.638  13.520
42193W        W10534  37.536   6.827  12.046
42194W        W10535  13.147  31.590   2.201
42195W        W10536  22.529  10.756  14.440
42196W        W10537  43.001   0.892  11.979
42197W        W10538   7.178   3.287  14.399
42198W        W10539  27.633  38.065   1.351
42199W        W10540  20.134  12.777   0.298
42200W        W10541  38.899   0.820  10.485
42201W        W10542   5.883  29.984  14.942
42202W        W10543  36.930   1.361   0.306
42203W        W10544  15.695  44.428   2.794
42204W        W10545  37.915   3.892   3.836
42205W        W10546  35.027   9.721  13.967
42206W        W10547  20.246  32.963  12.564
42207W        W10548   6.294  27.076   0.931
42208W        W10549  20.050  29.428  13.453
42209W        W10550  32.418  38.340  11.058
42210W        W10551  42.858  41.441  10.530
42211W        W10552  13.618  24.540  11.544
42212W        W10553  32.889   6.221  11.554
42213W        W10554  28.459  23.095   0.771
42214W        W10555  17.108  22.242  10.561
42215W        W10556  20.560   8.740   0.402
42216W        W10557   4.371  37.068  14.412
42217W        W10558  18.121  41.806  10.422
42218W        W10559   0.822   8.179  12.528
42219W        W10560  10.359  23.627   2.319
42220W        W10561  17.094  28.511   2.725
42221W        W10562   9.252   6.422  12.057
42222W        W10563  27.651  26.140  12.558
42223W        W10564   1.954  37.970   1.732
42224W        W10565  24.510  11.356  12.845
42225W        W10566  11.749  33.006  12.376
42226W        W10567  19.553  17.663   0.402
42227W        W10568  21.211  39.858   3.798
42228W        W10569   7.799  30.443   9.966
42229W        W10570  19.150  12.234  14.275
42230W        W10571  30.471  23.581   4.660
42231W        W10572  19.730  37.382  11.118
42232W        W10573  19.181  13.628  11.976
42233W        W10574  25.160  24.651   2.678
42234W        W10575   7.245   6.302   2.807
42235W        W10576  29.030   2.296   3.298
42236W        W10577  22.614   2.849   2.683
42237W        W10578  34.462  41.516  14.439
42238W        W10579   0.914  10.338   2.311
42239W        W10580  28.171  21.512   2.797
42240W        W10581  14.208  22.738   4.704
42241W        W10582  15.761  24.529  12.417
42242W        W10583  36.585   9.808  12.008
42243W        W10584  34.613  38.898   2.305
42244W        W10585  26.105  16.126  14.881
42245W        W10586  14.334  32.994   1.849
42246W        W10587  28.493  18.580   1.929
42247W        W10588   1.259  33.007  12.832
42248W        W10589  18.293  40.869  12.471
42249W        W10590  11.669   0.279  12.401
42250W        W10591  33.908  16.288  13.524
42251W        W10592   4.437  12.781   0.801
42252W        W10593  38.858  40.501   0.815
42253W        W10594   9.868  22.574   0.406
42254W        W10595  11.328   5.297  11.033
42255W        W10596  27.964  13.732  10.455
42256W        W10597  40.816  42.502  10.555
42257W        W10598  19.629  32.029   3.761
42258W        W10599  26.703   0.860   5.180
42259W        W10600  17.589  29.531   0.830
42260W        W10601  43.327  35.479   3.732
42261W        W10602  28.091  29.508  14.781
42262W        W10603  12.698  11.712   5.800
42263W        W10604  16.179   7.339  13.884
42264W        W10605  34.394  12.192   3.193
42265W        W10606  40.439  13.788   2.768
42266W        W10607   6.766   1.282   4.828
42267W        W10608  11.814  22.173   2.680
42268W        W10609  33.568   8.220   0.920
42269W        W10610  31.133  13.805  13.889
42270W        W10611  11.626  23.091   3.288
42271W        W10612   6.368  33.050  11.000
42272W        W10613  16.757  36.357  12.923
42273W        W10614  17.150  38.373  10.516
42274W        W10615  29.937  12.301  12.521
42275W        W10616  17.198   4.239  14.944
42276W        W10617   5.783  31.027   2.306
42277W        W10618  14.721  19.140  14.416
42278W        W10619  14.743  10.637   1.247
42279W        W10620  21.686  37.365   2.879
42280W        W10621   5.200  38.358  11.074
42281W        W10622   0.890   7.379   2.410
42282W        W10623  33.901   4.306  10.621
42283W        W10624  24.159  12.143  12.088
42284W        W10625   1.249  39.982  14.452
42285W        W10626   9.870  37.345   4.664
42286W        W10627  33.993  41.827   5.706
42287W        W10628  35.520  42.847  11.005
42288W        W10629   4.813  40.488  14.289
42289W        W10630  36.391  27.085   4.184
42290W        W10631   1.954   0.770   3.379
42291W        W10632   8.659  27.459   3.682
42292W        W10633  27.453   1.802   1.889
42293W        W10634  32.595  34.870   2.850
42294W        W10635  38.973   9.272   3.712
42295W        W10636   0.985  34.934   0.853
42296W        W10637  32.058  11.632  14.866
42297W        W10638  42.283  33.445  13.856
42298W        W10639  41.296  37.401  13.043
42299W        W10640   4.263  18.122  10.482
42300W        W10641   8.691   4.755  14.394
42301W        W10642  37.881  25.167  14.012
42302W        W10643  33.398  34.613   2.813
42303W        W10644  12.352  16.073   2.809
42304W        W10645   8.786  19.739  13.022
42305W        W10646  31.950   6.356   0.964
42306W        W10647  32.073  30.474  13.369
42307W        W10648  14.247   5.314  10.565
42308W        W10649  34.424  29.975   3.327
42309W        W10650  14.279  13.661   0.844
42310W        W10651   6.362  22.153  14.427
42311W        W10652  32.482  36.463   2.760
42312W        W10653  41.792  21.568  13.422
42313W        W10654  30.084   4.880   4.217
42314W        W10655   1.931  17.698   0.734
42315W        W10656  23.153  25.050  12.530
42316W        W10657  19.041  25.115  11.472
42317W        W10658  32.028  40.375  11.094
42318W        W10659  27.194  19.166  14.494
42319W        W10660  14.101  15.637  14.893
42320W        W10661  41.403  40.897  10.516
42321W        W10662  11.718   2.279  13.370
42322W        W10663  27.192  33.909   3.211
42323W        W10664  15.776  31.136  14.790
42324W        W10665  12.844  21.240   3.298
42325W        W10666  28.656  38.455  10.574
42326W        W10667  12.708  33.571  13.806
42327W        W10668  34.004   1.892   4.323
42328W        W10669  29.131   7.342   3.233
42329W        W10670  21.716  14.182   4.766
42330W        W10671  33.001  23.588   0.807
42331W        W10672  11.817  14.595   3.861
42332W        W10673  40.419  40.442   1.352
42333W        W10674  15.277  21.017   2.314
42334W        W10675  18.646  42.394  12.865
42335W        W10676   8.666  19.612  13.548
42336W        W10677  27.498  42.454  13.985
42337W        W10678   9.645  39.958  13.871
42338W        W10679  26.463   4.248  12.935
42339W        W10680  39.394  34.114   1.286
42340W        W10681   7.708  27.667   4.708
42341W        W10682  25.675  10.333   0.786
42342W        W10683  35.502  11.681  10.629
42343W        W10684  34.497   3.909  11.427
42344W        W10685   0.843  20.666   1.796
42345W        W10686  27.686  38.937  14.363
42346W        W10687  22.721  10.249  13.521
42347W        W10688  28.616  36.477   2.795
42348W        W10689  39.837  44.402  10.612
42349W        W10690   8.869  19.077   4.727
42350W        W10691  28.451  30.647   0.380
42351W        W10692  29.649  36.899   1.295
42352W        W10693  18.111  31.427  10.492
42353W        W10694  37.873  18.680  11.468
42354W        W10695  16.219  24.553  12.541
42355W        W10696   0.783  24.057   0.932
42356W        W10697  36.413   3.841  13.481
42357W        W10698  24.488   4.915   1.842
42358W        W10699   8.272  23.552  10.463
42359W        W10700   2.903  33.915  12.453
42360W        W10701  27.460   8.760   3.669
42361W        W10702  10.789  34.977  14.281
42362W        W10703  20.730  15.699   0.336
42363W        W10704  21.142  28.013  13.994
42364W        W10705  18.213  13.294  13.989
42365W        W10706  18.222  18.655   1.430
42366W        W10707  13.200  17.287  10.955
42367W        W10708   1.872  33.892   3.274
42368W        W10709  18.067  43.515  11.858
42369W        W10710  42.881  22.568  10.595
42370W        W10711  21.077  21.595   0.333
42371W        W10712  28.023  28.460  10.508
42372W        W10713  30.158  39.931  14.855
42373W        W10714  20.188  38.936  13.995
42374W        W10715  28.569  21.514   1.708
42375W        W10716   0.850  33.082  12.094
42376W        W10717  40.982  32.575   3.338
42377W        W10718   6.428  18.173   2.232
42378W        W10719  25.491   8.673   3.850
42379W        W10720  37.015  43.405  13.860
42380W        W10721  13.711  34.476   1.718
42381W        W10722  38.355  13.120  13.006
42382W        W10723  30.960   4.215  11.536
42383W        W10724  34.969  18.225   0.966
42384W        W10725   0.290  35.531   2.872
42385W        W10726  40.532  18.245   5.282
42386W        W10727  11.734   1.302  13.318
42387W        W10728  36.514  35.925   4.726
42388W        W10729  39.825  38.832  11.466
42389W        W10730  13.224  19.249   3.338
42390W        W10731  13.796  32.035   2.766
42391W        W10732  10.675  35.537   1.773
42392W        W10733  17.694  34.504   1.352
42393W        W10734  44.429  42.426  12.523
42394W        W10735  20.735   6.808   3.815
42395W        W10736  18.259  35.080   0.821
42396W        W10737  41.803  44.774   3.820
42397W        W10738  19.190  25.682  12.892
42398W        W10739  26.633   3.393  11.069
42399W        W10740  27.548  44.889   1.873
42400W        W10741  14.141  22.640   3.273
42401W        W10742  22.554  31.579   3.846
42402W        W10743  25.539  32.493  11.419
42403W        W10744   6.266  28.434   4.818
42404W        W10745  32.001   9.233   1.397
42405W        W10746   1.761  31.000   0.923
42406W        W10747  31.141  22.214   3.794
42407W        W10748  42.350   6.706   4.778
42408W        W10749  13.314  24.672  13.009
42409W        W10750  16.193   3.405   0.786
42410W        W10751   9.183  23.048   3.346
42411W        W10752  14.830  41.418   3.159
42412W        W10753   7.248  42.974   2.801
42413W        W10754  41.889   4.345   4.277
42414W        W10755  20.193  30.030   1.449
42415W        W10756  11.249  31.121   4.333
42416W        W10757  29.051   6.377   3.845
42417W        W10758  12.159   7.229  14.375
42418W        W10759  27.516  28.532   3.827
42419W        W10760  27.594  41.866  12.854
42420W        W10761   1.958  30.931   2.764
42421W        W10762   6.722  28.104  14.942
42422W        W10763  41.527  39.061  12.577
42423W        W10764   3.237  26.031  13.058
42424W        W10765  17.244  11.365  14.836
42425W        W10766   6.410  40.499   5.239
42426W        W10767  27.997  30.648   4.746
42427W        W10768  32.475   8.868   1.317
42428W        W10769   5.348  20.732  12.900
42429W        W10770   4.929  30.081  13.882
42430W        W10771  32.129   0.802   2.837
42431W        W10772  14.186  32.391  14.501
42432W        W10773  38.948  19.137  10.106
42433W        W10774   1.831  32.401  12.566
42434W        W10775  24.006  39.454   3.721
42435W        W10776  17.698  18.193   3.690
42436W        W10777  41.818  20.581  12.087
42437W        W10778  43.447   0.293   4.813
42438W        W10779  33.478  34.533   4.708
42439W        W10780   2.733  18.789  12.557
42440W        W10781  14.105   5.913  12.484
42441W        W10782  12.814   6.391   3.323
42442W        W10783   6.842   7.762  14.376
42443W        W10784  17.281  23.223   5.083
42444W        W10785  22.655  25.539   5.099
42445W        W10786  21.551  24.050   2.850
42446W        W10787   9.190  12.706  12.386
42447W        W10788  19.096  22.141   0.297
42448W        W10789   4.893   3.418   4.125
42449W        W10790  30.961   5.753  11.895
42450W        W10791   7.820  35.855   3.666
42451W        W10792  44.471  31.019  10.452
42452W        W10793  23.551  22.571   3.801
42453W        W10794  13.258   0.414  13.378
42454W        W10795  30.502  29.960  12.566
42455W        W10796  44.474  19.105   1.830
42456W        W10797  22.078  12.194   2.672
42457W        W10798  20.126   6.852  12.065
42458W        W10799  44.471  16.316  12.372
42459W        W10800  37.888  29.162  13.041
42460W        W10801   6.378  31.437  11.480
42461W        W10802  39.955   7.751   0.943
42462W        W10803  16.607  15.165   0.271
42463W        W10804  24.575  30.438  11.572
42464W        W10805  29.571  44.930  12.464
42465W        W10806  15.619  41.973  10.416
42466W        W10807  35.025  13.709  13.335
42467W        W10808  12.139  41.003   1.801
42468W        W10809   7.805   6.895  14.820
42469W        W10810   0.419  36.365  14.345
42470W        W10811   2.736   0.832   2.250
42471W        W10812  29.565   6.863   1.803
42472W        W10813  36.875  15.086  13.361
42473W        W10814  25.516  16.180  11.008
42474W        W10815  17.118   6.764  10.933
42475W        W10816  22.566  18.681  12.578
42476W        W10817  41.518  36.357  14.507
42477W        W10818  28.585  26.641  13.923
42478W        W10819   7.862   7.388  13.002
42479W        W10820   5.196   3.366   2.204
42480W        W10821  14.126   3.744  12.542
42481W        W10822  30.060  37.078   4.624
42482W        W10823  30.995  31.530   0.735
42483W        W10824  42.390  40.810   4.603
42484W        W10825  31.460  29.161   3.824
42485W        W10826  26.125   1.323  14.841
42486W        W10827   6.823   2.259  10.533
42487W        W10828  21.240  43.390  11.993
42488W        W10829  36.399  27.169  14.325
42489W        W10830  44.886  12.788  11.946
42490W        W10831   3.817   1.439   0.474
42491W        W10832  27.659  12.205  13.030
42492W        W10833  33.496  28.513  10.576
42493W        W10834  30.601  28.475   1.447
42494W        W10835  15.726  43.767  10.417
42495W        W10836  42.876  22.587  12.399
42496W        W10837   5.272  35.887   1.290
42497W        W10838  36.502  20.230  11.514
42498W        W10839  24.556  28.468   3.793
42499W        W10840  32.014   8.162  11.048
42500W        W10841  44.478  27.541   2.724
42501W        W10842  32.518   0.468   1.804
42502W        W10843  36.024  30.069   4.810
42503W        W10844  10.678   8.866  12.010
42504W        W10845   2.444   1.309   3.337
42505W        W10846  36.025  22.655  11.967
42506W        W10847   0.379  36.843  11.952
42507W        W10848  20.696  30.113  11.969
42508W        W10849  43.770  18.636   1.871
42509W        W10850  18.636  22.537  12.000
42510W        W10851  13.624  39.861  13.378
42511W        W10852  21.708   2.412  10.589
42512W        W10853   4.432  31.044  14.374
42513W        W10854  31.617   7.220  14.800
42514W        W10855   0.972   3.827   3.835
42515W        W10856  30.515   9.867   9.924
42516W        W10857  17.683  43.816  12.073
42517W        W10858   3.380  39.855   1.873
42518W        W10859  24.572  25.679  14.289
42519W        W10860  41.017  43.447  14.478
42520W        W10861  26.961  26.112   1.328
42521W        W10862  29.506  41.014   1.825
42522W        W10863   8.224  34.986  12.424
42523W        W10864   4.368  27.104  14.466
42524W        W10865  23.700  44.939   3.801
42525W        W10866  12.344  17.716   1.840
42526W        W10867   4.924  41.897  11.035
42527W        W10868  22.045  16.712   1.860
42528W        W10869  28.575  31.544  12.072
42529W        W10870   1.425   2.246   3.366
42530W        W10871  28.960  34.537  14.762
42531W        W10872  31.432  42.983   4.230
42532W        W10873  16.602  31.937   2.808
42533W        W10874   0.754  23.220  10.928
42534W        W10875   6.371  11.861  14.373
42535W        W10876   9.717  32.566  10.566
42536W        W10877   3.451  42.363  14.788
42537W        W10878   5.408  24.163  13.026
42538W        W10879  37.336   7.771   5.103
42539W        W10880  38.068  13.179  13.393
42540W        W10881   6.752  17.092  12.464
42541W        W10882  39.915  37.443   4.787
42542W        W10883  20.722  10.146  13.974
42543W        W10884  19.659  42.526   4.653
42544W        W10885  44.846  30.497  14.828
42545W        W10886  28.473  34.052   0.307
42546W        W10887  39.954  37.903   1.904
42547W        W10888  24.661   3.818   4.664
42548W        W10889   3.912  34.940   0.282
42549W        W10890   4.834  19.163   4.838
42550W        W10891  43.998  13.694   2.398
42551W        W10892  33.397  11.668  11.412
42552W        W10893  31.040  24.486   2.236
42553W        W10894  17.560  27.144  13.463
42554W        W10895  42.436   2.897  10.917
42555W        W10896  44.436   2.413  14.304
42556W        W10897  18.133  29.593  13.922
42557W        W10898  14.163  23.123  10.424
42558W        W10899  31.592  21.625   3.799
42559W        W10900  15.625  14.694   1.434
42560W        W10901  18.251  33.899  10.508
42561W        W10902   4.878  38.963  13.881
42562W        W10903  36.519  29.611  10.963
42563W        W10904  24.139  24.637   2.804
42564W        W10905   9.699  25.154   0.940
42565W        W10906  44.360  43.831  10.635
42566W        W10907  23.055  16.292   2.346
42567W        W10908  44.937  43.900  13.506
42568W        W10909  40.507  12.318   0.824
42569W        W10910  40.956  33.582   3.213
42570W        W10911   4.732  44.330   3.161
42571W        W10912  20.637   6.332  13.387
42572W        W10913  22.724  41.812   0.244
42573W        W10914  39.349   4.260  14.974
42574W        W10915  27.655  18.196   1.237
42575W        W10916  34.516  32.633   1.812
42576W        W10917   7.309  16.076   4.331
42577W        W10918  11.268   9.320   3.782
42578W        W10919  12.677  31.578   1.789
42579W        W10920  41.460  41.862  14.340
42580W        W10921   5.763  33.618   1.723
42581W        W10922  15.760  20.044  11.040
42582W        W10923  30.441  30.586  10.960
42583W        W10924  13.277   3.222  14.325
42584W        W10925  26.996  41.786  13.849
42585W        W10926   6.730  22.103   1.919
42586W        W10927  41.464  32.021  13.889
42587W        W10928  33.055  19.693   4.827
42588W        W10929  20.139  42.357   3.661
42589W        W10930  28.533  18.098   2.713
42590W        W10931   7.902  39.046   1.244
42591W        W10932  41.404  21.033  14.284
42592W        W10933  27.078  40.368   1.733
42593W        W10934  16.102  38.388  10.598
42594W        W10935  13.749   3.810   1.379
42595W        W10936  35.925  28.491  13.449
42596W        W10937  12.719   2.925  11.090
42597W        W10938  28.099  10.724   2.322
42598W        W10939  22.112  29.081  11.445
42599W        W10940  25.683  11.705  10.928
42600W        W10941   5.284  12.821   2.690
42601W        W10942  23.715  43.766   1.719
42602W        W10943   6.856  16.295  13.352
42603W        W10944  42.918  15.761  12.973
42604W        W10945  30.137  17.224   3.845
42605W        W10946  37.962   2.299  10.897
42606W        W10947  28.145  36.883  12.434
42607W        W10948  35.590  44.811  14.801
42608W        W10949  43.969  43.397   1.255
42609W        W10950  16.269  30.973   1.879
42610W        W10951   3.246   9.172   1.323
42611W        W10952  21.643  24.489  14.502
42612W        W10953  42.444  16.182  10.896
42613W        W10954  35.563   0.406  10.615
42614W        W10955  40.931   5.930  11.474
42615W        W10956  42.021  19.576   4.214
42616W        W10957   3.833  31.514   1.777
42617W        W10958  42.942  37.922  12.936
42618W        W10959  40.892   6.829   3.267
42619W        W10960  11.853  16.793   2.703
42620W        W10961  44.484  30.959   1.777
42621W        W10962  42.906  36.018   3.695
42622W        W10963  11.782  30.604   3.365
42623W        W10964  44.404   3.749   1.324
42624W        W10965  31.084  22.095   2.780
42625W        W10966  40.943   1.430  12.895
42626W        W10967  43.910   3.799  13.951
42627W        W10968  29.590   6.413  13.912
42628W        W10969  28.172  29.998   0.430
42629W        W10970  25.123   3.400   2.393
42630W        W10971  43.308  17.572  14.280
42631W        W10972  43.413  20.051   1.909
42632W        W10973  41.870  28.108  12.566
42633W        W10974  11.714  30.641   0.475
42634W        W10975  13.226   3.287   2.744
42635W        W10976  34.052  17.702   2.269
42636W        W10977  40.306  13.647  11.048
42637W        W10978  29.442  27.950   9.944
42638W        W10979  25.064  12.238   1.321
42639W        W10980  44.958  35.939   0.926
42640W        W10981  41.355  16.197   1.216
42641W        W10982  39.848   1.317   0.878
42642W        W10983  39.971  38.402   3.656
42643W        W10984  23.012  28.947   4.150
42644W        W10985  36.062  17.171  10.427
42645W        W10986   5.422   3.817   4.720
42646W        W10987  44.846  21.047  12.066
42647W        W10988  40.930  34.892  11.444
42648W        W10989  18.291   9.859   2.735
42649W        W10990  36.469  18.073  13.876
42650W        W10991  29.054  11.327  13.454
42651W        W10992  33.911  43.785   0.769
42652W        W10993  25.208  44.764  14.948
42653W        W10994  13.618  32.932   3.762
42654W        W10995  29.943  14.707  12.366
42655W        W10996  17.648  42.976   2.706
42656W        W10997  29.977  29.174  10.424
42657W        W10998  41.870  12.320  12.912
42658W        W10999  42.351   1.474  10.626
42659W        W11000  17.097  11.836  13.031
42660W        W11001  32.081  31.527  12.930
42661W        W11002  14.595  32.108   4.124
42662W        W11003   2.966  17.274   4.289
42663W        W11004   5.346  21.257   0.802
42664W        W11005   6.833  23.551   1.345
42665W        W11006  44.932  27.637   3.197
42666W        W11007  44.456   7.890  10.573
42667W        W11008   9.833  41.524  11.086
42668W        W11009  38.962  32.912   4.690
42669W        W11010  35.523   5.838  14.292
42670W        W11011  40.533  16.786   0.891
42671W        W11012  23.141  19.106   5.763
42672W        W11013  41.414  28.618   0.902
42673W        W11014   7.340  28.148  14.787
42674W        W11015  15.622  30.991   1.907
42675W        W11016  44.284   1.784   2.352
42676W        W11017  12.735  44.338  10.936
42677W        W11018  41.376  11.715  13.541
42678W        W11019   4.314  30.103   0.412
42679W        W11020  27.536  42.927   4.258
42680W        W11021  43.971   7.862   4.657
42681W        W11022  30.135   3.458   4.275
42682W        W11023  36.538  27.637   4.130
42683W        W11024  40.513  39.496  11.975
42684W        W11025  31.099   0.859   0.366
42685W        W11026   7.404   4.335   1.880
42686W        W11027  36.421  18.783  13.410
42687W        W11028  32.901  43.380   4.221
42688W        W11029  16.132  28.510  10.922
42689W        W11030   0.413  18.113  14.809
42690W        W11031  10.315  32.526   0.731
42691W        W11032  20.739   9.295   1.410
42692W        W11033  30.618   3.873  10.472
42693W        W11034   2.860  40.033  12.058
42694W        W11035  43.856  28.101  12.076
42695W        W11036  10.375   2.830   1.443
42696W        W11037  15.165  38.559   1.438
42697W        W11038  44.494  39.524  10.579
42698W        W11039  12.275  23.673  12.573
42699W        W11040   2.959  10.830  11.899
42700W        W11041  40.880  21.114  13.510
42701W        W11042  42.835  24.484  10.958
42702W        W11043  22.056  20.566  10.476
42703W        W11044   2.337  27.050  14.284
42704W        W11045   9.352  34.908   3.270
42705W        W11046  33.881  38.334   3.823
42706W        W11047  23.155  20.124  14.904
42707W        W11048  23.218  37.512   4.711
42708W        W11049  13.786  24.521   0.772
42709W        W11050  12.737  15.823   2.861
42710W        W11051  43.290  22.123   0.343
42711W        W11052  39.869  38.055   3.717
42712W        W11053  39.517  36.007   4.266
42713W        W11054  29.147  18.762  10.421
42714W        W11055  37.911   1.366   0.852
42715W        W11056  11.639   8.187  10.121
42716W        W11057   3.364  26.027   4.791
42717W        W11058  15.813  21.595  12.362
42718W        W11059  28.501  39.033  13.969
42719W        W11060  24.157   5.278  14.794
42720W        W11061  14.712  37.011   0.348
42721W        W11062   9.285   1.957   2.815
42722W        W11063  18.705  35.108  12.352
42723W        W11064   6.721  20.077   2.370
42724W        W11065  43.505  42.950  14.028
42725W        W11066  32.566  40.484   2.206
42726W        W11067  35.468  29.114   2.780
42727W        W11068  33.554  21.141  10.503
42728W        W11069  15.705  25.050   3.669
42729W        W11070  19.734   8.881   0.422
42730W        W11071   0.387  17.764  14.506
42731W        W11072  38.401  13.739   0.437
42732W        W11073  31.541  12.669   1.247
42733W        W11074  26.997  40.012  13.874
42734W        W11075   9.373  33.004  12.062
42735W        W11076   1.478  29.580  13.354
42736W        W11077  37.542  19.128   1.353
42737W        W11078  29.066  32.949  10.908
42738W        W11079   3.411  10.718   2.767
42739W        W11080  38.385   5.886  13.515
42740W        W11081  11.176   9.253  14.920
42741W        W11082   9.390   0.422  10.529
42742W        W11083  17.632  16.098   4.607
42743W        W11084   6.348   2.845   0.743
42744W        W11085   2.774  22.117  14.795
42745W        W11086  32.988  28.151  13.882
42746W        W11087  29.076  11.748   0.463
42747W        W11088  23.718   1.803   2.250
42748W        W11089  32.610  40.506  11.404
42749W        W11090  34.393  32.928  13.000
42750W        W11091  43.912  29.481   0.953
42751W        W11092  35.438  42.480   1.316
42752W        W11093  16.621  33.973   3.213
42753W        W11094  20.182   3.946   4.137
42754W        W11095  20.715  30.984   1.845
42755W        W11096   5.730   0.918  12.477
42756W        W11097  37.534  26.157  11.005
42757W        W11098   5.747  38.942  12.365
42758W        W11099  20.192  21.727   4.676
42759W        W11100   1.428  37.352  10.974
42760W        W11101  43.447  30.943  12.341
42761W        W11102  18.728  44.481   2.401
42762W        W11103  13.349  33.879  12.509
42763W        W11104  35.428  35.852  14.465
42764W        W11105  34.957  20.768  14.440
42765W        W11106   4.413  41.444  13.854
42766W        W11107  28.054  27.681   2.702
42767W        W11108  31.000  30.094  12.053
42768W        W11109  42.947   4.860   2.713
42769W        W11110   5.714  38.344   2.338
42770W        W11111  20.742   7.702  11.402
42771W        W11112  31.585  26.186   2.287
42772W        W11113   6.412  40.373   3.757
42773W        W11114  11.867  38.488  12.347
42774W        W11115  10.706  26.991   3.284
42775W        W11116  27.598  42.354  11.050
42776W        W11117  13.319  16.722   3.220
42777W        W11118  43.827  15.628  11.586
42778W        W11119   7.827   3.219   4.725
42779W        W11120  35.385   2.898  14.464
42780W        W11121  37.016   2.731   2.821
42781W        W11122  10.718  18.698  13.932
42782W        W11123  32.099   2.336  12.351
42783W        W11124  12.652  35.458   1.450
42784W        W11125  20.529  17.757   3.849
42785W        W11126  15.666   8.382   0.873
42786W        W11127   4.921  35.872   4.202
42787W        W11128  12.296  20.032  13.813
42788W        W11129  14.231  34.482   3.817
42789W        W11130   5.814   8.719   0.337
42790W        W11131  10.330  13.224  14.975
42791W        W11132  19.550   3.879   0.765
42792W        W11133  22.723   4.255   4.758
42793W        W11134  15.741  33.400   3.206
42794W        W11135  43.370  18.715   2.332
42795W        W11136  24.128  15.328   1.312
42796W        W11137  27.579   0.983   3.181
42797W        W11138  33.407  44.757   4.699
42798W        W11139  17.736  36.850   2.820
42799W        W11140   0.772   3.224   1.404
42800W        W11141  36.495  35.978   1.793
42801W        W11142  25.001  19.154   1.882
42802W        W11143  43.862   6.383  13.488
42803W        W11144  17.195  10.740  14.384
42804W        W11145  15.711  23.181   1.827
42805W        W11146  26.117   7.264  14.989
42806W        W11147  13.202  42.498  11.395
42807W        W11148   4.364  31.116   4.820
42808W        W11149  25.145  40.453  11.543
42809W        W11150   8.718  37.082   3.720
42810W        W11151   4.716  29.149  14.999
42811W        W11152   1.913   8.170  14.351
42812W        W11153  43.514  31.452   1.699
42813W        W11154  44.796  14.720   0.815
42814W        W11155  17.744  17.798   0.480
42815W        W11156  40.389  44.486   0.425
42816W        W11157  34.376  29.921  13.862
42817W        W11158  14.755  29.509   0.413
42818W        W11159  10.339  25.027   2.324
42819W        W11160   0.336  16.776  14.973
42820W        W11161  15.669  13.140  14.981
42821W        W11162  19.240  29.633   1.339
42822W        W11163  22.228   7.286   1.811
42823W        W11164  18.058  17.761   2.748
42824W        W11165  19.259   4.773   3.745
42825W        W11166  36.352   7.780   1.744
42826W        W11167  27.504  19.099   1.836
42827W        W11168  19.064  23.056  10.594
42828W        W11169  43.949  19.690  12.579
42829W        W11170   8.659  13.179   1.726
42830W        W11171  12.332   7.753   0.780
42831W        W11172  41.031  22.517  14.442
42832W        W11173  39.973  16.092   1.879
42833W        W11174  42.312  27.665   2.265
42834W        W11175   3.848  14.153   2.821
42835W        W11176  42.003  13.268   0.390
42836W        W11177   0.844  43.464   1.832
42837W        W11178  31.561   8.379   1.217
42838W        W11179   1.977  21.111   3.848
42839W        W11180  15.162  18.704   0.291
42840W        W11181  40.021  24.521   4.241
42841W        W11182   1.379  15.819  11.926
42842W        W11183  11.335   9.692  14.330
42843W        W11184   9.306  29.953  11.474
42844W        W11185  30.121  18.685  14.032
42845W        W11186  19.072  19.638   0.779
42846W        W11187  43.358  39.935   2.237
42847W        W11188   7.363   0.810   4.354
42848W        W11189   8.184  28.571   0.409
42849W        W11190  30.428  41.928   2.847
42850W        W11191   6.795  39.964  12.903
42851W        W11192  23.726  31.602   0.289
42852W        W11193  26.142   4.347   2.248
42853W        W11194  27.643  28.478   5.150
42854W        W11195  33.107  38.329   5.256
42855W        W11196  13.730  25.657  13.513
42856W        W11197  42.402  14.695   4.200
42857W        W11198  25.478  39.347   3.836
42858W        W11199  28.182  39.400   3.658
42859W        W11200   4.268  21.695   1.814
42860W        W11201  12.645  26.521  12.508
42861W        W11202   4.813  11.146  13.362
42862W        W11203  23.009  38.558   2.325
42863W        W11204  27.517  12.229   0.300
42864W        W11205  25.145  37.409   4.654
42865W        W11206  11.363  27.112   3.644
42866W        W11207  21.133  14.822   4.249
42867W        W11208  31.562  14.298   0.418
42868W        W11209  22.251  28.667  13.411
42869W        W11210  32.469  33.126  13.543
42870W        W11211  37.443  41.951  10.573
42871W        W11212  14.806   0.314  12.034
42872W        W11213   5.337   1.943  14.867
42873W        W11214  24.155  42.847   1.343
42874W        W11215  19.164  16.726   2.839
42875W        W11216  21.540  22.731   2.832
42876W        W11217  30.092  44.878  11.958
42877W        W11218   8.884  18.719  11.040
42878W        W11219  44.837  32.400   2.182
42879W        W11220  28.951  16.312   3.259
42880W        W11221  16.258  16.652  13.357
42881W        W11222   0.817  14.251   0.390
42882W        W11223  11.646   2.963   1.226
42883W        W11224  28.044   6.873   1.900
42884W        W11225  19.623  44.808   4.280
42885W        W11226  30.940   7.259   0.382
42886W        W11227  30.627  44.837   4.132
42887W        W11228  13.811  19.735   0.351
42888W        W11229   4.765  37.886  14.451
42889W        W11230  36.883  32.579   0.425
42890W        W11231  15.682   5.861   4.704
42891W        W11232  20.216  18.186   5.155
42892W        W11233  37.870  31.957  11.860
42893W        W11234  40.864  30.486   2.321
42894W        W11235  12.357  11.261   2.827
42895W        W11236  21.628  36.434   4.837
42896W        W11237  35.485  19.629   0.863
42897W        W11238  34.377  40.034   0.847
42898W        W11239  20.192  29.093  10.131
42899W        W11240  37.975  19.748   4.348
42900W        W11241  34.023  12.683  10.475
42901W        W11242   6.829   0.851   2.785
42902W        W11243  24.013  39.997   1.759
42903W        W11244  20.538  37.541   4.689
42904W        W11245  37.000   8.291  10.889
42905W        W11246  24.551  12.240  14.880
42906W        W11247  41.859   5.358   0.885
42907W        W11248   8.300  12.827   1.800
42908W        W11249  32.955  15.106  12.934
42909W        W11250  31.027  36.545  12.423
42910W        W11251  13.790  10.691  14.007
42911W        W11252  10.828   8.712   3.349
42912W        W11253  42.892  22.148  13.803
42913W        W11254  21.654  14.174   1.749
42914W        W11255  12.772  17.195   2.398
42915W        W11256  27.056  43.882   2.831
42916W        W11257  37.565   1.799  14.324
42917W        W11258  41.331   3.397   9.982
42918W        W11259   2.820  22.051  13.443
42919W        W11260  32.034  30.496   0.856
42920W        W11261   2.799  23.004   0.846
42921W        W11262   8.858  28.114   3.803
42922W        W11263   1.968  37.953  12.985
42923W        W11264  23.146  40.818   1.864
42924W        W11265  25.622   2.410   2.244
42925W        W11266   5.771   6.249  13.370
42926W        W11267  27.111  41.885   2.355
42927W        W11268  30.451   6.784   0.734
42928W        W11269   8.343  43.831   1.448
42929W        W11270  36.485   0.293   2.761
42930W        W11271  38.340  11.176  11.907
42931W        W11272  19.700  16.636   4.753
42932W        W11273  34.014  42.824  11.508
42933W        W11274  30.448  15.112  13.956
42934W        W11275  44.892  38.019   0.471
42935W        W11276  42.009   7.894   0.813
42936W        W11277  24.700  43.929  13.886
42937W        W11278  35.573  15.609   3.273
42938W        W11279   8.655  12.641   2.185
42939W        W11280  18.109  14.325  12.431
42940W        W11281  33.131  36.986  10.614
42941W        W11282  43.370  14.256   5.115
42942W        W11283   3.922  14.118  14.899
42943W        W11284  34.062   2.753  14.963
42944W        W11285  36.039  18.563  14.298
42945W        W11286   8.370   9.661   3.652
42946W        W11287  42.910  30.644   0.439
42947W        W11288  16.582  43.351   3.288
42948W        W11289  23.491  17.587  14.445
42949W        W11290  34.420  40.847  10.589
42950W        W11291  41.908  18.173  12.509
42951W        W11292  17.275  13.166   2.687
42952W        W11293  21.578  21.712  12.340
42953W        W11294  25.594  39.049  11.884
42954W        W11295  37.911  18.070   2.205
42955W        W11296  10.749   2.938  11.562
42956W        W11297  28.942  43.919   0.812
42957W        W11298  33.459  41.794  13.857
42958W        W11299  15.821   3.906  11.551
42959W        W11300   6.291  15.622   1.289
42960W        W11301  12.846  42.485   1.798
42961W        W11302  20.241  15.231   1.740
42962W        W11303   3.926   1.273  14.931
42963W        W11304   4.906  30.098   3.274
42964W        W11305  38.551  24.532  13.447
42965W        W11306  18.190  37.846   2.665
42966W        W11307  25.579   6.694  11.094
42967W        W11308  42.297  42.329   3.654
42968W        W11309  30.970  41.044   1.314
42969W        W11310   2.469  25.610  13.378
42970W        W11311  40.532  36.985   3.807
42971W        W11312  35.931  26.641   2.415
42972W        W11313   3.744  23.631   1.373
42973W        W11314  32.415  18.186  11.065
42974W        W11315  27.107  20.122   2.707
42975W        W11316  34.456   7.754   1.814
42976W        W11317   8.841   1.813   4.218
42977W        W11318  30.092  14.195  11.578
42978W        W11319  24.609  10.742   2.671
42979W        W11320  23.160  28.070   3.302
42980W        W11321   4.876  42.496  10.088
42981W        W11322  14.104  33.101  10.001
42982W        W11323  22.045  42.977   1.743
42983W        W11324  37.560  16.248   3.661
42984W        W11325  13.619  12.172   2.323
42985W        W11326   4.208  30.975   1.833
42986W        W11327   4.343   2.802  10.891
42987W        W11328  15.753  39.483  11.110
42988W        W11329  21.132  41.358   2.183
42989W        W11330   8.376   6.220  13.030
42990W        W11331  25.669  32.037  11.960
42991W        W11332  40.837   3.290   4.749
42992W        W11333  38.838  43.970   4.700
42993W        W11334  43.284  39.063  13.046
42994W        W11335  30.057  25.172  13.455
42995W        W11336  22.637   0.421   2.279
42996W        W11337   1.398   8.669   2.688
42997W        W11338  32.060  40.511   4.177
42998W        W11339  38.340  11.140   3.354
42999W        W11340  14.309  16.731   3.689
43000W        W11341   6.903   1.958   2.877
43001W        W11342  32.089   8.815   2.289
43002W        W11343  22.006  32.078   0.729
43003W        W11344  37.913  22.012   1.225
43004W        W11345  13.628  38.826   4.240
43005W        W11346   3.334   2.860  14.511
43006W        W11347   7.866  23.612  12.466
43007W        W11348  26.185  32.075  11.466
43008W        W11349  37.043   3.235  14.378
43009W        W11350  12.637   2.849  12.076
43010W        W11351  38.825   9.164  11.922
43011W        W11352  16.289  28.977   2.757
43012W        W11353  18.215  22.598  14.886
43013W        W11354   2.409  30.462  11.021
43014W        W11355  14.754   1.976  14.974
43015W        W11356  30.016  33.529  11.536
43016W        W11357  29.470  30.606  12.498
43017W        W11358  23.516   1.863  11.454
43018W        W11359   8.757  36.082  12.965
43019W        W11360  40.306   9.688  11.431
43020W        W11361  19.581  18.192   1.876
43021W        W11362  20.642   9.164  12.425
43022W        W11363  13.256  43.832   4.179
43023W        W11364  20.695  20.260   0.895
43024W        W11365  24.670  26.489   2.796
43025W        W11366  10.736  26.584   2.670
43026W        W11367  21.614  32.923   1.805
43027W        W11368  32.417  32.082  12.980
43028W        W11369  41.988  23.537   0.332
43029W        W11370  40.931  40.995  13.324
43030W        W11371   7.213   3.860  11.468
43031W        W11372  20.103  26.689   1.265
43032W        W11373  29.461  21.530  13.536
43033W        W11374   2.430  44.264   1.760
43034W        W11375  16.308  12.695  12.966
43035W        W11376   1.840  11.176   0.737
43036W        W11377  26.474   8.827   3.172
43037W        W11378  30.126  12.795   3.194
43038W        W11379  15.690   4.233   2.405
43039W        W11380  30.120  24.549  11.560
43040W        W11381   9.256  31.093   2.206
43041W        W11382   3.726  34.398  13.823
43042W        W11383   7.731  31.609   0.769
43043W        W11384  21.544   9.717  12.898
43044W        W11385  28.670  42.366   1.909
43045W        W11386  10.759  17.561  10.984
43046W        W11387  19.131  27.526  14.761
43047W        W11388  28.542  29.084   4.178
43048W        W11389  15.200   1.396   1.255
43049W        W11390   2.275  42.484   2.209
43050W        W11391  22.239  39.894   3.154
43051W        W11392  10.840   1.748   1.905
43052W        W11393  10.735  30.620  12.344
43053W        W11394  29.524  38.513   0.927
43054W        W11395   4.259   7.287  12.504
43055W        W11396  23.082   2.420   2.882
43056W        W11397  33.528  29.047   4.300
43057W        W11398  18.161  37.899   3.230
43058W        W11399  37.371  37.496   2.824
43059W        W11400  28.100  15.222  11.005
43060W        W11401  37.886  12.804  13.963
43061W        W11402  14.771  40.857   2.796
43062W        W11403  10.638  15.586  11.018
43063W        W11404   9.257  23.490  12.555
43064W        W11405  11.763  10.246  11.953
43065W        W11406   1.868  16.089   0.325
43066W        W11407  12.206   7.326   4.149
43067W        W11408  28.012  42.836   0.959
43068W        W11409  44.419   3.914  14.805
43069W        W11410  25.037  34.865   4.747
43070W        W11411  30.086  32.451   4.313
43071W        W11412  27.624   4.780   1.763
43072W        W11413  24.480  28.446   4.327
43073W        W11414  39.915  12.700  11.505
43074W        W11415  25.610   3.737  11.855
43075W        W11416  22.087  37.460   0.361
43076W        W11417   8.777  35.551   1.218
43077W        W11418   2.374  40.538   5.297
43078W        W11419  16.811   7.695   0.886
43079W        W11420   0.478  28.125  11.936
43080W        W11421  42.928   1.351   1.878
43081W        W11422  34.105   0.842  14.997
43082W        W11423   0.773  35.947   1.831
43083W        W11424  18.604  21.747  14.763
43084W        W11425  10.149   6.753   1.336
43085W        W11426  17.138  16.164   3.667
43086W        W11427  40.891  29.546  11.430
43087W        W11428   4.774  44.868   3.828
43088W        W11429   7.853   1.440  11.084
43089W        W11430   2.411  37.836  14.957
43090W        W11431   2.941   9.844   4.625
43091W        W11432  29.479   2.826   1.784
43092W        W11433  28.497  16.611   1.697
43093W        W11434  43.790  40.905   4.282
43094W        W11435  34.911  11.796   4.636
43095W        W11436  13.810  17.756   0.811
43096W        W11437  18.767  20.713   0.479
43097W        W11438  25.090  11.638   4.250
43098W        W11439  13.343  22.573  10.002
43099W        W11440   2.799  32.127   4.667
43100W        W11441  37.017  30.926   3.161
43101W        W11442  19.583  42.876   1.277
43102W        W11443   6.424   6.380  13.376
43103W        W11444   7.366  20.559   0.772
43104W        W11445   2.745  18.183  13.534
43105W        W11446   4.712  32.570  13.433
43106W        W11447  30.629  41.019  14.816
43107W        W11448  42.302   9.345   3.649
43108W        W11449  13.223   1.878  14.959
43109W        W11450  44.398  36.440   1.733
43110W        W11451  15.149   4.236  10.931
43111W        W11452  10.234  17.577   4.291
43112W        W11453  11.352  44.930   2.878
43113W        W11454   2.934  25.133   2.266
43114W        W11455  22.530   7.879  14.372
43115W        W11456  11.222   6.832  13.846
43116W        W11457  18.128  23.509  12.956
43117W        W11458  27.557  44.495  13.925
43118W        W11459  10.375   0.403   3.240
43119W        W11460  31.065  30.039  11.046
43120W        W11461  25.963   4.779  13.462
43121W        W11462  20.680  39.322  11.015
43122W        W11463  14.671   7.214   9.999
43123W        W11464  36.571   4.930  11.077
43124W        W11465  39.988   8.220   4.714
43125W        W11466  18.710  30.413  13.919
43126W        W11467  43.398   1.933   0.363
43127W        W11468  17.186  44.325   5.263
43128W        W11469  18.146   3.452  10.997
43129W        W11470  33.103  40.456   0.382
43130W        W11471  30.557  43.332  11.870
43131W        W11472   6.830  37.481   4.270
43132W        W11473  42.322  18.089   3.752
43133W        W11474  27.518   2.463  12.482
43134W        W11475  10.302  10.788  10.979
43135W        W11476  13.295   6.823  12.464
43136W        W11477  17.084  38.898   0.303
43137W        W11478  22.113  32.450   0.770
43138W        W11479  22.558  40.547   2.779
43139W        W11480  38.931   9.263  10.542
43140W        W11481  43.884  38.541   4.286
43141W        W11482  19.766   4.720   2.785
43142W        W11483   5.730  14.757  14.806
43143W        W11484  34.440  13.734   2.392
43144W        W11485  10.868  10.672   2.352
43145W        W11486  29.604  15.724  14.765
43146W        W11487  29.653  42.414   1.875
43147W        W11488  10.704  19.256  14.977
43148W        W11489   2.250  14.265  12.063
43149W        W11490   5.882  26.550  12.371
43150W        W11491   6.398  38.867   3.301
43151W        W11492   6.882   5.746  14.448
43152W        W11493  31.422  21.120   3.869
43153W        W11494  30.577   4.875  10.022
43154W        W11495   7.722  38.999   4.787
43155W        W11496  40.053  37.412  12.564
43156W        W11497  22.058  30.079   0.937
43157W        W11498  16.092   9.663   2.377
43158W        W11499  29.532   9.828   2.381
43159W        W11500   6.686   9.768  12.537
43160W        W11501  22.235  22.730  12.493
43161W        W11502   5.854  13.795   2.820
43162W        W11503   3.880   0.810  11.477
43163W        W11504   1.773  32.515  13.913
43164W        W11505  17.275  27.987   4.637
43165W        W11506   7.258   5.297   4.135
43166W        W11507  44.763   9.785   0.732
43167W        W11508  39.560  39.536   2.728
43168W        W11509  25.147  17.576   2.183
43169W        W11510  19.051  35.021  10.627
43170W        W11511   4.846  35.960  12.347
43171W        W11512   9.354  11.278   2.324
43172W        W11513  32.623  25.512  10.620
43173W        W11514  19.225  22.626   1.270
43174W        W11515   6.307  12.252   3.172
43175W        W11516  43.392  18.082   1.717
43176W        W11517  12.687  31.030   2.796
43177W        W11518  23.552  19.078   4.235
43178W        W11519  30.113  11.768  14.491
43179W        W11520  32.594  29.606   3.779
43180W        W11521  13.816  40.936  10.034
43181W        W11522  21.145  30.549  12.401
43182W        W11523  22.727  16.117   2.867
43183W        W11524  36.926  42.527   1.897
43184W        W11525  29.931   5.878   0.751
43185W        W11526  17.182  37.395   2.302
43186W        W11527  12.184  20.667   4.260
43187W        W11528  16.097  36.004   5.315
43188W        W11529  26.075  13.719   1.722
43189W        W11530  33.083  23.237  13.010
43190W        W11531   2.379  12.291   2.376
43191W        W11532  13.701  42.460  10.601
43192W        W11533   1.397  30.575  13.495
43193W        W11534  12.666  16.303  13.332
43194W        W11535  22.674  28.178  12.564
43195W        W11536  17.650  17.690   1.257
43196W        W11537  21.559  26.662   2.829
43197W        W11538  25.631  21.758  12.904
43198W        W11539   5.787   1.862   1.404
43199W        W11540  21.248   8.406   3.735
43200W        W11541  27.002  17.068   3.689
43201W        W11542   4.293  28.460  11.570
43202W        W11543  12.150  17.079   3.712
43203W        W11544  16.078  14.812  10.418
43204W        W11545   1.970  30.548   0.771
43205W        W11546  31.077  10.292  12.846
43206W        W11547  10.146  22.515  14.796
43207W        W11548  33.875  19.147   3.367
43208W        W11549  35.971  26.955   3.718
43209W        W11550  15.692  16.100  13.311
43210W        W11551   1.422  25.197   1.275
43211W        W11552  28.070  11.142   4.274
43212W        W11553  36.937  27.648   3.870
43213W        W11554  27.582  32.524  11.073
43214W        W11555   5.812  32.886   0.909
43215W        W11556  25.146   5.803  13.327
43216W        W11557  12.339  39.997   1.213
43217W        W11558  26.123  18.684   3.328
43218W        W11559  21.195   6.853  12.566
43219W        W11560  27.037  18.574  10.614
43220W        W11561  30.485  38.023   2.269
43221W        W11562   6.262  16.743  11.945
43222W        W11563  21.563  25.133  14.817
43223W        W11564  33.128  35.030  11.544
43224W        W11565  30.979   6.291   3.810
43225W        W11566  15.794   4.277   2.733
43226W        W11567  13.112   9.874  14.847
43227W        W11568   6.345  39.000  13.330
43228W        W11569   0.783   9.375  12.845
43229W        W11570  34.445  41.300   3.227
43230W        W11571   3.871  40.910  11.522
43231W        W11572  21.679   0.302   4.708
43232W        W11573   0.758   1.889   9.946
43233W        W11574   4.796  42.980  11.570
43234W        W11575  21.717  25.199  12.503
43235W        W11576  38.832  41.942   0.426
43236W        W11577  35.957  42.484   1.778
43237W        W11578  30.490   8.275   2.858
43238W        W11579  15.578  33.121   3.245
43239W        W11580  19.697  14.290   2.735
43240W        W11581  27.949  26.106   4.765
43241W        W11582  28.949  30.654   4.732
43242W        W11583   9.668  41.818   3.259
43243W        W11584  27.035  34.471   0.349
43244W        W11585  44.404  21.099   0.246
43245W        W11586  16.201  23.991  13.958
43246W        W11587   8.293  21.578   2.697
43247W        W11588  16.607  22.638   3.171
43248W        W11589  33.563  24.213  13.950
43249W        W11590  22.019  20.048  14.863
43250W        W11591  18.267  43.812   0.245
43251W        W11592  12.254  33.414  10.969
43252W        W11593  37.438   8.879  14.930
43253W        W11594  38.851  33.496   0.329
43254W        W11595  23.142   8.657   4.259
43255W        W11596  11.317  24.015  12.390
43256W        W11597   2.903  30.540  10.512
43257W        W11598   1.863   5.928  11.876
43258W        W11599  19.634   8.209  11.372
43259W        W11600  21.717  20.555  10.447
43260W        W11601  18.785  43.962   1.772
43261W        W11602  23.217   3.750  14.027
43262W        W11603  29.454  36.936   3.149
43263W        W11604  42.986  44.358  12.936
43264W        W11605   3.300  32.558  14.515
43265W        W11606  37.939   8.883  13.492
43266W        W11607   8.699  24.162  10.619
43267W        W11608  43.511  29.551   4.622
43268W        W11609  14.658   4.755  14.849
43269W        W11610  36.077  17.774  11.069
43270W        W11611   6.328  18.763   3.329
43271W        W11612  21.146  36.496   5.207
43272W        W11613  24.708  21.541  11.562
43273W        W11614  22.094  38.068  11.554
43274W        W11615  37.412   0.851   2.198
43275W        W11616   9.842  23.632   2.398
43276W        W11617  12.281  25.682  11.395
43277W        W11618  36.498  25.971  12.898
43278W        W11619   9.266  18.075   9.980
43279W        W11620  21.644  37.486   1.393
43280W        W11621  44.807   4.204  11.378
43281W        W11622   5.258  31.147  11.381
43282W        W11623  25.047  39.930  13.989
43283W        W11624  43.815  28.131  12.372
43284W        W11625   3.839   1.950  12.034
43285W        W11626   8.860   6.865  13.510
43286W        W11627   0.879   0.903  14.812
43287W        W11628  35.567  25.496   2.330
43288W        W11629  33.098  24.226  12.513
43289W        W11630  30.147  38.884   3.773
43290W        W11631  14.142  21.078   9.961
43291W        W11632  44.805   3.303  10.934
43292W        W11633  18.152  24.027   2.272
43293W        W11634  43.781  41.040  12.386
43294W        W11635  21.610  15.715   1.929
43295W        W11636  40.536   7.285  14.440
43296W        W11637  18.119  23.226   5.723
43297W        W11638  32.084  29.592  12.993
43298W        W11639  24.063  23.518  11.570
43299W        W11640  16.241  31.078  14.794
43300W        W11641  41.533  17.184  12.512
43301W        W11642  31.948  28.008   4.205
43302W        W11643  14.104   0.324  11.586
43303W        W11644  36.561   1.292   2.840
43304W        W11645  18.547  19.182   2.339
43305W        W11646  32.133  26.502  10.992
43306W        W11647   6.347  10.227   2.709
43307W        W11648  11.732   5.231   0.800
43308W        W11649  38.494  29.082   0.740
43309W        W11650  40.886  17.583  10.594
43310W        W11651  23.567  35.398  11.403
43311W        W11652  41.526  33.919  11.465
43312W        W11653  11.746  16.182  12.054
43313W        W11654   4.826   4.262   4.138
43314W        W11655  18.211   1.847   3.229
43315W        W11656  42.000   8.779  12.546
43316W        W11657  38.563   7.826  11.534
43317W        W11658  14.203  19.243  10.907
43318W        W11659   6.697   3.353   0.849
43319W        W11660  44.903  31.034  12.561
43320W        W11661  33.601  20.225   9.980
43321W        W11662   0.864   6.306   9.923
43322W        W11663  23.708  30.603  14.390
43323W        W11664  24.493  23.504  14.412
43324W        W11665  37.047  29.583  12.033
43325W        W11666  31.975  23.158  13.377
43326W        W11667  27.687   2.784  13.835
43327W        W11668   3.348  23.110  10.972
43328W        W11669  36.027  24.540  12.059
43329W        W11670  41.985  27.952  12.078
43330W        W11671  20.148  22.043   0.384
43331W        W11672  41.877  36.391   1.213
43332W        W11673   3.302  30.066   3.842
43333W        W11674   8.753  15.800  10.903
43334W        W11675   6.864  12.747  11.104
43335W        W11676  32.514  37.055  11.957
43336W        W11677  41.520  27.656   0.411
43337W        W11678   9.735  42.031  14.313
43338W        W11679  41.014  17.745  12.076
43339W        W11680   5.230  12.703   4.131
43340W        W11681  14.624  33.410  10.409
43341W        W11682  23.070  22.069   0.915
43342W        W11683   7.752  23.144   4.337
43343W        W11684  17.587  20.728   2.867
43344W        W11685  36.910   6.745  11.532
43345W        W11686   5.339  37.008  10.501
43346W        W11687  26.060  25.089   4.651
43347W        W11688  33.035  11.828  10.537
43348W        W11689  33.054  34.001   3.718
43349W        W11690  32.410  30.102  11.568
43350W        W11691  34.462  24.595   0.344
43351W        W11692   7.231   1.353   2.374
43352W        W11693  36.543  11.307   3.235
43353W        W11694  14.310  15.685   2.836
43354W        W11695   8.312   4.384   0.807
43355W        W11696   1.767  30.023  14.839
43356W        W11697  19.150   3.439   4.733
43357W        W11698   2.376  40.486  10.978
43358W        W11699  30.642  36.087   3.812
43359W        W11700  42.018  44.324  14.453
43360W        W11701  27.585   3.403  11.939
43361W        W11702  34.385  26.016   2.232
43362W        W11703  21.248  11.777   3.265
43363W        W11704   6.814  44.397   3.192
43364W        W11705  41.962  13.341  13.811
43365W        W11706  29.951  36.973   1.704
43366W        W11707  14.282  40.337  11.914
43367W        W11708  16.613  11.334   4.323
43368W        W11709  13.789   0.489  14.988
43369W        W11710  16.581  23.181   0.399
43370W        W11711   0.273  36.900   3.147
43371W        W11712  43.915  42.853  13.892
43372W        W11713  17.158  34.016  10.418
43373W        W11714   4.816  37.023   2.876
43374W        W11715  29.525  11.665  14.021
43375W        W11716   2.284  26.534   1.777
43376W        W11717  25.476  18.237   5.117
43377W        W11718  44.426  44.292  12.002
43378W        W11719  29.117  28.147  14.958
43379W        W11720   3.459  34.978   3.387
43380W        W11721  12.278  35.448   1.300
43381W        W11722  41.372  20.264   0.399
43382W        W11723  19.117  22.131  13.361
43383W        W11724   4.745  41.421   0.808
43384W        W11725  43.308   7.712   4.114
43385W        W11726  19.581  22.998  14.299
43386W        W11727  39.350   2.371   0.397
43387W        W11728  16.583   9.715  11.105
43388W        W11729   5.790  19.189   4.622
43389W        W11730  27.112  22.225   4.294
43390W        W11731   5.762  34.547  14.847
43391W        W11732  14.201  27.042   2.292
43392W        W11733  19.703  23.183  11.508
43393W        W11734   6.725  27.014  13.998
43394W        W11735  37.942  36.892  11.883
43395W        W11736  33.074  15.107   1.832
43396W        W11737  25.633  12.198  12.936
43397W        W11738   5.202  19.140  10.516
43398W        W11739  26.611  34.978   4.148
43399W        W11740   4.872  29.598  12.842
43400W        W11741  15.648  25.174  14.863
43401W        W11742   1.837  10.825  12.351
43402W        W11743  11.750   2.919   3.654
43403W        W11744  15.655   7.256   3.794
43404W        W11745  38.564  22.010   1.738
43405W        W11746  37.481   6.778  12.872
43406W        W11747  21.212  44.802   1.907
43407W        W11748  32.473  21.691   2.199
43408W        W11749  41.527   3.452   1.260
43409W        W11750   9.206   8.700   0.475
43410W        W11751  13.112  26.480  14.809
43411W        W11752   9.781  39.490   4.246
43412W        W11753   1.861  31.004   3.786
43413W        W11754  23.720  27.988   2.290
43414W        W11755  32.042  16.616   0.399
43415W        W11756  24.516  19.179   2.317
43416W        W11757  19.601  17.611   4.636
43417W        W11758  41.483  27.629  14.942
43418W        W11759   3.900  20.033   4.299
43419W        W11760   3.897  26.534  13.010
43420W        W11761  32.050  19.592  12.412
43421W        W11762  19.125  23.530   4.752
43422W        W11763  44.802  17.196  12.552
43423W        W11764  12.616  26.694  11.891
43424W        W11765  29.448  35.541   3.783
43425W        W11766  36.048   6.697   3.631
43426W        W11767   6.868  34.484   1.930
43427W        W11768  29.540  15.124  14.888
43428W        W11769  33.559  37.578  14.779
43429W        W11770  18.059  20.148  13.870
43430W        W11771  23.542  44.759   1.763
43431W        W11772  36.006  26.611  14.961
43432W        W11773  33.072  10.669  14.868
43433W        W11774  12.291  40.420   0.769
43434W        W11775   6.211  44.772  10.898
43435W        W11776  39.847  40.528  14.415
43436W        W11777   0.337  38.056   3.149
43437W        W11778  10.834  22.182   4.291
43438W        W11779  36.984  42.408  11.566
43439W        W11780  25.994  34.100   3.650
43440W        W11781  43.789  21.134   4.352
43441W        W11782   1.895   8.735   1.934
43442W        W11783  37.486  33.540   3.725
43443W        W11784  23.130   6.363  12.062
43444W        W11785   1.439   0.810  14.934
43445W        W11786  26.655  15.652   3.289
43446W        W11787  40.414  22.656   0.863
43447W        W11788  30.493  26.023   3.829
43448W        W11789  44.488  12.843  14.478
43449W        W11790  23.128  37.863  11.589
43450W        W11791   3.864  33.521  12.400
43451W        W11792   3.322  42.864   3.148
43452W        W11793  26.056  28.524   0.897
43453W        W11794   5.323  30.087  12.034
43454W        W11795  44.281  32.442   3.694
43455W        W11796  19.763  36.427   1.294
43456W        W11797  17.194  27.055   0.931
43457W        W11798  27.942  32.040  14.510
43458W        W11799  30.441   5.406  14.507
43459W        W11800   0.929  31.060   2.197
43460W        W11801   3.850  42.847  12.938
43461W        W11802   5.932  20.210  14.308
43462W        W11803  24.612  17.099   0.728
43463W        W11804  40.918  39.406  12.014
43464W        W11805  37.444  34.959   3.198
43465W        W11806  38.022  25.610  13.941
43466W        W11807  37.903   1.771   4.620
43467W        W11808  11.839  27.493   1.704
43468W        W11809  31.033  43.492   2.839
43469W        W11810  16.077   7.755   4.231
43470W        W11811   1.372  15.782   4.126
43471W        W11812  40.975  40.308  11.982
43472W        W11813  34.591  19.579  11.888
43473W        W11814  22.137   8.391  12.538
43474W        W11815  18.746   4.240   4.813
43475W        W11816  19.622  23.713   2.795
43476W        W11817  38.436  31.033  13.509
43477W        W11818  14.665  10.339  10.046
43478W        W11819  29.530  15.266   4.168
43479W        W11820   3.279  14.114  14.003
43480W        W11821  12.234  23.086   1.823
43481W        W11822  35.545  42.968   1.882
43482W        W11823  10.780  30.011  10.520
43483W        W11824  39.060  12.119   2.391
43484W        W11825  12.698   6.781   2.330
43485W        W11826  27.575  10.261  10.494
43486W        W11827  42.017  22.539  13.482
43487W        W11828  29.163  40.543   1.334
43488W        W11829  24.206   5.373   3.630
43489W        W11830  18.077  10.729   3.859
43490W        W11831  30.106  26.192   0.965
43491W        W11832  27.940   0.921  12.850
43492W        W11833  27.684   1.920   1.359
43493W        W11834  29.121  10.759   4.325
43494W        W11835  23.571  21.664   1.257
43495W        W11836  15.195  20.619  13.442
43496W        W11837  43.824  24.178   3.793
43497W        W11838   6.204   2.289   4.144
43498W        W11839   4.927   8.309  11.566
43499W        W11840  24.587  18.605  13.970
43500W        W11841   4.335  32.559   1.236
43501W        W11842  16.587  26.207  14.322
43502W        W11843   0.859  31.541   4.603
43503W        W11844   9.362  18.092  12.473
43504W        W11845   0.393  35.397   0.322
43505W        W11846  24.099  26.556  10.028
43506W        W11847  16.197  22.701   3.267
43507W        W11848  42.484   9.645  11.526
43508W        W11849  40.428  31.001   3.668
43509W        W11850   4.226  38.931  12.456
43510W        W11851   9.876   9.832   1.337
43511W        W11852  24.677  33.396   2.834
43512W        W11853  22.550  19.642  12.036
43513W        W11854  10.350   6.393  11.495
43514W        W11855  39.433  38.002   3.302
43515W        W11856   1.302  41.931   2.771
43516W        W11857  38.888  11.752  12.928
43517W        W11858   0.284   7.818  12.868
43518W        W11859  30.929   3.438  12.384
43519W        W11860  32.012  14.262  12.415
43520W        W11861  19.559   6.701  11.586
43521W        W11862  44.010  14.194  12.448
43522W        W11863  21.248  26.550   1.363
43523W        W11864  30.474  29.589   0.792
43524W        W11865  12.822  10.670  13.962
43525W        W11866  15.217  25.121  14.506
43526W        W11867   7.864  28.028   3.171
43527W        W11868  35.602  30.082   3.375
43528W        W11869  18.170  32.981  10.513
43529W        W11870  37.511  10.278   0.451
43530W        W11871  33.043  29.006   2.369
43531W        W11872  28.015  43.354   4.719
43532W        W11873  41.537  11.214   3.311
43533W        W11874   4.375  30.012   2.840
43534W        W11875  21.165   8.322   5.222
43535W        W11876  32.535  34.930  14.395
43536W        W11877  41.507   5.831   4.343
43537W        W11878  17.120   5.720   4.639
43538W        W11879   6.836   7.385  14.285
43539W        W11880  11.145  30.146  13.944
43540W        W11881  32.417  10.314   9.944
43541W        W11882  22.544  38.006  13.449
43542W        W11883  36.393  24.019   3.651
43543W        W11884   8.747  36.512  14.840
43544W        W11885  34.095  29.932  13.342
43545W        W11886  42.029  33.410  12.907
43546W        W11887   0.358  14.784  14.394
43547W        W11888  11.828  20.055  14.901
43548W        W11889  39.906  10.291   0.346
43549W        W11890  39.064   7.896  11.097
43550W        W11891   1.455   7.681   3.806
43551W        W11892   7.908   5.729   3.155
43552W        W11893  24.611  18.061  10.590
43553W        W11894   7.830   9.256   4.694
43554W        W11895  17.161  11.344  11.013
43555W        W11896  44.460  19.670   3.146
43556W        W11897   6.729  32.958   2.299
43557W        W11898  43.811  15.320   0.458
43558W        W11899   7.260  20.573   3.662
43559W        W11900  15.177  10.749   4.233
43560W        W11901  31.461  27.651   2.894
43561W        W11902  31.517  16.294   4.829
43562W        W11903  20.220  15.631  13.955
43563W        W11904  34.897  13.306  13.474
43564W        W11905   9.692  20.137   4.137
43565W        W11906  42.282  17.207  11.591
43566W        W11907  35.420  23.009   2.668
43567W        W11908  30.158   0.784   2.269
43568W        W11909  22.147  23.990  11.961
43569W        W11910  13.298  35.474  10.501
43570W        W11911  43.364  15.195   1.356
43571W        W11912   0.774  39.854   3.721
43572W        W11913   0.487  15.720  14.808
43573W        W11914  17.217  33.033  11.605
43574W        W11915  14.683  23.620  10.631
43575W        W11916  23.235  21.022   3.800
43576W        W11917  27.157  13.304  10.939
43577W        W11918  29.497   9.187  12.992
43578W        W11919  19.578  27.611   0.835
43579W        W11920  15.099   6.294  13.498
43580W        W11921  34.908  24.607   1.352
43581W        W11922  21.605  23.594  10.980
43582W        W11923  34.470  19.252   2.868
43583W        W11924   3.457   0.960   5.095
43584W        W11925  32.122  37.080   1.406
43585W        W11926  44.817  18.582   9.536
43586W        W11927  19.112   7.731   4.789
43587W        W11928  15.287  40.001   3.710
43588W        W11929   8.299  30.142  13.060
43589W        W11930  30.471  43.304   3.635
43590W        W11931   3.270  38.844   1.344
43591W        W11932  44.431  35.022  12.927
43592W        W11933  29.947  30.139  13.837
43593W        W11934   3.923  34.531  10.918
43594W        W11935  14.810  17.222   5.232
43595W        W11936  31.913  29.993   2.880
43596W        W11937  33.019   4.781  14.305
43597W        W11938  10.824   9.274  13.908
43598W        W11939  26.513  14.625   5.235
43599W        W11940  29.980  19.228   2.701
43600W        W11941  26.701  31.938   1.423
43601W        W11942   8.215   2.435  13.897
43602W        W11943  23.708   1.325  10.950
43603W        W11944  42.923  35.055   0.255
43604W        W11945   4.445   8.296   3.720
43605W        W11946  27.975  19.117  11.483
43606W        W11947  10.869  16.076  10.921
43607W        W11948   8.826  20.107   2.718
43608W        W11949  37.933  37.010  14.400
43609W        W11950   3.807  32.624  14.876
43610W        W11951  24.034  33.109   1.718
43611W        W11952  33.945   6.877  10.545
43612W        W11953  22.697  37.025   2.363
43613W        W11954  16.584   9.755  13.950
43614W        W11955   0.984  34.119  14.922
43615W        W11956  29.961  41.327  12.367
43616W        W11957  26.048  20.273   2.764
43617W        W11958   9.223   6.408   4.333
43618W        W11959  26.458  43.331   3.863
43619W        W11960  13.145  15.252  14.804
43620W        W11961   8.803  29.496   0.830
43621W        W11962  32.586  31.013   1.802
43622W        W11963  23.557   2.439   1.793
43623W        W11964  35.552  42.353  13.438
43624W        W11965  25.640   5.702  12.986
43625W        W11966  20.621  38.957  13.393
43626W        W11967   8.306  27.672  11.543
43627W        W11968   9.745  29.473   3.709
43628W        W11969  16.111  15.697   3.831
43629W        W11970  22.103  17.080   0.931
43630W        W11971  13.718  41.468   1.320
43631W        W11972  24.095  34.882  13.456
43632W        W11973  18.202  19.718  12.018
43633W        W11974  15.227  41.382   4.765
43634W        W11975   0.425  31.076  13.792
43635W        W11976  10.730  16.237  12.540
43636W        W11977  23.021  16.773  10.938
43637W        W11978  24.036  27.633  13.965
43638W        W11979  14.312   8.275   0.922
43639W        W11980  42.980  15.593   2.777
43640W        W11981   5.304  32.925   0.800
43641W        W11982  11.848  11.147  14.474
43642W        W11983   7.389  41.385  13.805
43643W        W11984  11.242   2.302   1.711
43644W        W11985  28.506  16.612  12.398
43645W        W11986  31.997  31.131  12.912
43646W        W11987  37.914  22.195   3.200
43647W        W11988  20.035  23.530   3.292
43648W        W11989  29.960   2.247  13.393
43649W        W11990  22.176  24.619  11.446
43650W        W11991  23.229  26.639  13.866
43651W        W11992  42.339  11.149   3.311
43652W        W11993   4.725  19.699   0.376
43653W        W11994  22.045  36.085   4.785
43654W        W11995  30.623  12.296   0.845
43655W        W11996  32.960  37.070   2.870
43656W        W11997  42.410  29.119  11.610
43657W        W11998   1.756  28.628  10.645
43658W        W11999  38.445  26.478   0.913
43659W        W12000  19.195  40.423   0.388
43660W        W12001   4.394   6.908  10.596
43661W        W12002  13.110   4.771   1.371
43662W        W12003  25.217  15.625  13.351
43663W        W12004  40.391   5.781  10.408
43664W        W12005  25.629  28.539   3.301
43665W        W12006  27.140  25.680  14.355
43666W        W12007  17.100   7.277   2.389
43667W        W12008  21.674  26.982  11.919
43668W        W12009  30.516  40.033   0.336
43669W        W12010   7.831  41.931  13.320
43670W        W12011   2.721  32.958   1.366
43671W        W12012   5.888  35.584   2.404
43672W        W12013  22.555   3.338   5.093
43673W        W12014  21.591  34.044  13.969
43674W        W12015  12.248  22.509  13.497
43675W        W12016  27.991   3.287  11.452
43676W        W12017  21.538  43.418   3.826
43677W        W12018   9.705  12.315   1.909
43678W        W12019  29.009  14.188  11.962
43679W        W12020  37.916  35.387   4.730
43680W        W12021  28.966   0.442   2.832
43681W        W12022  24.068  11.272   0.336
43682W        W12023  18.624  28.170   3.705
43683W        W12024  39.388  18.231   4.681
43684W        W12025   7.331  42.777  13.364
43685W        W12026   7.388   9.764   2.211
43686W        W12027  42.868  12.683   1.822
43687W        W12028  37.034   5.322   4.803
43688W        W12029  13.788  13.718  13.386
43689W        W12030   6.349  16.232  10.428
43690W        W12031  44.305  33.066  10.079
43691W        W12032  24.210  16.186  14.493
43692W        W12033  15.668   6.840  14.422
43693W        W12034  11.317  41.983   0.897
43694W        W12035  44.387  32.936  14.805
43695W        W12036  17.572  28.142  14.789
43696W        W12037  19.560  34.457   2.360
43697W        W12038  13.250  40.459  11.442
43698W        W12039  44.889  42.825  14.803
43699W        W12040  37.077  40.007   1.744
43700W        W12041  38.401  17.585  13.837
43701W        W12042  36.858  33.121  11.578
43702W        W12043  25.517   0.326  10.997
43703W        W12044  23.549  12.357   1.808
43704W        W12045  40.318  31.041   0.740
43705W        W12046  28.162   6.272  11.899
43706W        W12047  33.930  44.382  11.572
43707W        W12048  41.497  43.913   2.355
43708W        W12049  29.084  32.011   4.329
43709W        W12050  43.287   8.353  13.312
43710W        W12051  31.548   5.699  12.541
43711W        W12052  22.593   8.238  13.454
43712W        W12053  30.513  32.582  10.500
43713W        W12054  20.205  20.575  11.010
43714W        W12055   6.287   3.423  10.978
43715W        W12056  25.603  14.737  11.962
43716W        W12057  16.601  30.952   1.305
43717W        W12058  37.355  10.645   3.700
43718W        W12059  33.483  44.350  10.903
43719W        W12060  22.652  42.468   0.835
43720W        W12061  23.496  21.232  13.954
43721W        W12062  36.389  16.782  12.569
43722W        W12063  42.284  19.598  11.565
43723W        W12064  15.133  16.161   0.930
43724W        W12065  13.125  24.548   4.609
43725W        W12066  16.756   6.226   0.290
43726W        W12067  41.354  16.143   3.714
43727W        W12068  38.823  18.273  11.012
43728W        W12069  16.579   8.204  11.538
43729W        W12070  40.993  18.679   0.844
43730W        W12071  16.757  10.773  14.966
43731W        W12072  39.435   1.828  13.063
43732W        W12073  42.873   3.375   0.330
43733W        W12074  26.105   2.950   3.323
43734W        W12075  24.698  17.227   4.187
43735W        W12076  28.929  13.245   2.345
43736W        W12077  34.593   8.657  10.959
43737W        W12078  26.956  10.831   0.356
43738W        W12079   6.192  21.060   5.217
43739W        W12080  22.520  18.786   5.746
43740W        W12081  33.434  38.828   2.247
43741W        W12082   0.431   6.412  13.796
43742W        W12083  32.013  10.181   1.217
43743W        W12084  26.054  24.225  11.003
43744W        W12085  10.730  11.287   2.378
43745W        W12086   1.478  40.945  11.374
43746W        W12087  24.511  31.919  10.564
43747W        W12088  12.748  10.380  10.471
43748W        W12089  17.197  22.097   4.617
43749W        W12090  40.896  15.711  13.883
43750W        W12091  43.871  42.475   0.392
43751W        W12092  26.965  28.609  14.872
43752W        W12093  14.281  36.871   4.323
43753W        W12094  37.404  27.064   1.367
43754W        W12095  39.974  12.136   1.370
43755W        W12096  38.529  37.380   0.281
43756W        W12097   6.346  40.503  11.923
43757W        W12098   2.447  20.127   0.265
43758W        W12099  29.990  17.217   0.408
43759W        W12100  20.176  17.669  11.016
43760W        W12101  32.563   7.807  11.994
43761W        W12102  13.322  30.121  12.387
43762W        W12103  14.261   0.355   1.845
43763W        W12104  24.034  24.522   1.716
43764W        W12105  12.777  21.088  12.906
43765W        W12106  19.573  13.607  14.875
43766W        W12107  25.109   0.357  12.002
43767W        W12108  35.988  26.126  12.542
43768W        W12109  40.455  24.537  14.941
43769W        W12110  26.465  38.515   0.875
43770W        W12111  33.908  34.009  13.911
43771W        W12112  20.546  23.492  14.389
43772W        W12113  26.998  16.697   0.247
43773W        W12114  13.764  12.739  12.969
43774W        W12115  22.198  16.803  14.481
43775W        W12116   6.856  20.609  10.512
43776W        W12117  41.946  27.024  14.440
43777W        W12118  43.396  15.199   3.375
43778W        W12119   7.758   3.261  13.830
43779W        W12120  28.940   4.383  14.927
43780W        W12121  29.110  14.657  12.036
43781W        W12122  22.704  28.485   1.388
43782W        W12123  18.645  24.512  12.375
43783W        W12124   7.290   9.281   0.433
43784W        W12125  39.362   4.890  12.464
43785W        W12126  37.841  16.145  12.850
43786W        W12127  38.873  34.481  11.999
43787W        W12128  36.593  22.692   2.259
43788W        W12129  29.570   7.760  12.935
43789W        W12130  19.684  21.188   3.294
43790W        W12131  43.297   4.375   2.793
43791W        W12132  25.545  17.685   4.783
43792W        W12133  44.299  25.658   2.767
43793W        W12134  31.496  35.865   1.922
43794W        W12135  29.147  14.180   0.818
43795W        W12136  36.440   4.828  13.025
43796W        W12137  36.067  34.389   2.754
43797W        W12138  15.813  26.101   0.907
43798W        W12139   2.965   0.945   4.673
43799W        W12140   6.382   1.842  14.315
43800W        W12141  19.582  29.564   0.470
43801W        W12142  37.997  25.712  11.009
43802W        W12143  26.466   7.757  14.433
43803W        W12144  25.569  24.976  11.384
43804W        W12145  39.963   3.443  11.963
43805W        W12146  35.592  19.663  11.591
43806W        W12147  14.816  27.026   1.297
43807W        W12148  25.031  19.551   3.240
43808W        W12149   5.897  27.454   3.301
43809W        W12150   0.774  35.960  12.027
43810W        W12151  23.633  38.878  10.430
43811W        W12152  35.359   7.704   0.396
43812W        W12153   5.361  31.593   0.249
43813W        W12154  24.698  24.574  12.411
43814W        W12155  32.039  43.787  10.605
43815W        W12156  37.962   2.257   4.344
43816W        W12157  16.176  39.819  13.435
43817W        W12158  18.183   6.412   3.636
43818W        W12159  40.455   5.745   2.716
43819W        W12160  43.375  24.521   1.380
43820W        W12161  39.874  29.496  14.872
43821W        W12162  29.035  34.509   0.929
43822W        W12163  10.794  11.260   4.322
43823W        W12164  17.646  32.989  14.287
43824W        W12165  23.574  33.396  11.466
43825W        W12166  43.483  33.953  10.466
43826W        W12167  30.522  28.095  11.504
43827W        W12168   7.221  28.947   0.871
43828W        W12169  16.710  22.113  11.384
43829W        W12170  37.052  32.931   2.775
43830W        W12171   5.242  33.418  13.004
43831W        W12172   3.823  16.676  13.860
43832W        W12173   0.253   4.282   1.847
43833W        W12174  20.648   9.670  12.833
43834W        W12175  28.555  44.472   4.800
43835W        W12176  33.410  43.941  13.342
43836W        W12177   9.830  16.137  12.943
43837W        W12178  37.408  34.442  14.931
43838W        W12179   3.952  41.435   4.648
43839W        W12180  21.564  14.773   2.325
43840W        W12181   2.857  40.400   1.858
43841W        W12182  44.503  14.734   4.241
43842W        W12183  24.002  27.096   9.934
43843W        W12184  17.802  25.047  14.426
43844W        W12185  36.945  19.763  11.902
43845W        W12186  13.791  27.133   0.873
43846W        W12187   7.276  17.695  13.504
43847W        W12188  38.032   6.849  12.352
43848W        W12189  30.125  18.654   2.335
43849W        W12190  26.037  14.304  14.492
43850W        W12191  36.967   9.829  11.432
43851W        W12192  21.731  11.726   3.810
43852W        W12193   7.386   1.367  13.876
43853W        W12194   0.937   2.740  14.287
43854W        W12195  28.060  25.168   0.388
43855W        W12196  28.596   9.354  10.521
43856W        W12197  43.471  24.062   4.205
43857W        W12198   5.862   3.383  13.323
43858W        W12199   6.721  44.789   2.819
43859W        W12200   4.915  35.975   0.259
43860W        W12201  11.752   9.338   2.250
43861W        W12202  12.614  22.128   3.358
43862W        W12203  31.934  43.482  14.891
43863W        W12204  25.563  37.529  12.966
43864W        W12205   0.282  27.019   0.257
43865W        W12206  33.400  18.720   3.281
43866W        W12207   2.848  19.267   4.239
43867W        W12208  38.894  14.828  13.045
43868W        W12209  25.528  25.151  13.026
43869W        W12210  27.997  40.900   1.805
43870W        W12211  32.140  24.491  12.522
43871W        W12212   1.376  43.789  11.047
43872W        W12213  42.804  33.963  14.986
43873W        W12214  17.241  27.595  13.388
43874W        W12215  42.896   4.893   2.193
43875W        W12216  44.448  37.920  12.394
43876W        W12217  37.380  35.085  11.996
43877W        W12218  26.015  26.524  10.099
43878W        W12219   9.765  28.553  11.905
43879W        W12220  15.131   2.810   2.737
43880W        W12221  25.034  20.263  12.858
43881W        W12222  24.001  26.678   2.330
43882W        W12223  14.721  33.910  12.438
43883W        W12224  24.713   7.894  12.464
43884W        W12225  29.991  11.273   3.245
43885W        W12226  23.094  40.917  11.990
43886W        W12227  14.159   3.783  11.106
43887W        W12228  33.025  35.928  12.476
43888W        W12229  25.615   7.210  12.862
43889W        W12230  23.239  11.227  11.573
43890W        W12231  38.568  38.847  14.373
43891W        W12232   0.910  31.041   4.668
43892W        W12233  11.713  38.388   2.241
43893W        W12234  30.570   4.412  14.366
43894W        W12235  41.867  19.670  12.437
43895W        W12236  32.515   4.717  12.047
43896W        W12237   4.710  26.537   0.264
43897W        W12238  30.548  26.685   0.864
43898W        W12239  20.586  19.178   0.459
43899W        W12240   0.472   1.392  13.818
43900W        W12241  11.169  25.194   0.263
43901W        W12242  34.048  38.048  12.898
43902W        W12243  27.106  22.181  12.424
43903W        W12244  42.295  35.061  12.955
43904W        W12245  10.691  36.573   4.789
43905W        W12246  22.176   5.837  14.786
43906W        W12247   1.356  35.586   2.769
43907W        W12248  43.020  30.526   4.127
43908W        W12249  32.477  38.833   9.629
43909W        W12250  36.076  22.611  11.577
43910W        W12251  25.097  25.155   5.311
43911W        W12252  25.563  13.713  14.899
43912W        W12253  29.605  34.105  14.938
43913W        W12254  28.464   6.329  11.530
43914W        W12255  14.155  18.574   4.632
43915W        W12256  25.151  17.203   0.376
43916W        W12257  44.261  19.560   0.753
43917W        W12258  10.699   8.242  14.914
43918W        W12259  43.998   6.252   3.275
43919W        W12260  10.257  20.063   3.696
43920W        W12261  43.366  12.356  11.017
43921W        W12262  36.468  40.343   2.759
43922W        W12263  16.113  17.677   4.204
43923W        W12264  17.751  21.257   4.291
43924W        W12265  19.253  27.493  13.793
43925W        W12266  43.921  19.109  11.865
43926W        W12267  36.860  13.706  14.029
43927W        W12268   6.316  29.547  10.410
43928W        W12269  26.035  43.396  10.476
43929W        W12270  25.634  14.281   3.264
43930W        W12271  24.517  30.059  12.926
43931W        W12272  32.608  18.647   2.871
43932W        W12273  38.481   1.955  14.827
43933W        W12274  27.028  28.457   3.630
43934W        W12275  33.131  41.518   0.881
43935W        W12276  17.269   7.352  12.471
43936W        W12277  36.408  18.687  11.093
43937W        W12278  27.523  21.088   3.859
43938W        W12279   0.814  41.976   3.771
43939W        W12280  34.025  14.680   0.894
43940W        W12281  21.617   5.252  10.628
43941W        W12282  31.536  16.634   2.856
43942W        W12283  10.138   4.872   4.146
43943W        W12284  43.968  21.756  13.541
43944W        W12285  16.607  33.063   1.886
43945W        W12286  33.952  41.479   0.253
43946W        W12287  13.134  28.091   4.816
43947W        W12288  33.087  36.879  12.963
43948W        W12289   2.948  34.030   1.276
43949W        W12290  24.163  23.130  11.883
43950W        W12291  24.484  21.209   2.398
43951W        W12292  31.115  42.984   2.780
43952W        W12293  12.117  41.315   4.833
43953W        W12294  13.814  33.986   1.426
43954W        W12295  26.034  40.536  10.585
43955W        W12296  11.697  21.098   5.295
43956W        W12297  40.370  41.030   0.909
43957W        W12298  43.828  11.704  11.426
43958W        W12299  38.558  20.646   3.798
43959W        W12300  37.008   9.349   3.713
43960W        W12301   6.310  31.106   4.343
43961W        W12302  37.345  31.511  12.952
43962W        W12303   8.679  35.073  11.073
43963W        W12304  19.556  10.695  13.435
43964W        W12305  27.637  28.059  13.529
43965W        W12306  15.243  36.093  13.860
43966W        W12307  41.847  27.960   4.152
43967W        W12308   1.369  39.887   3.341
43968W        W12309  28.636  28.627  12.436
43969W        W12310   1.299   4.423   3.754
43970W        W12311  15.170   6.284  14.804
43971W        W12312  15.791   8.716   2.791
43972W        W12313  22.162  16.720   1.400
43973W        W12314  15.303  26.064  13.799
43974W        W12315  20.159  14.224  11.543
43975W        W12316  17.268  27.985   5.101
43976W        W12317  27.023  25.214  13.987
43977W        W12318  43.021  18.779   3.256
43978W        W12319   4.724  18.165  12.867
43979W        W12320  43.974  19.284  12.845
43980W        W12321  27.174  44.873   4.735
43981W        W12322  20.059   1.328   1.220
43982W        W12323  18.146  20.741  11.580
43983W        W12324  40.036   2.883  11.560
43984W        W12325  29.631  21.730   3.816
43985W        W12326  36.068  43.319   3.337
43986W        W12327   0.473  26.092   2.338
43987W        W12328  20.051  26.000   4.264
43988W        W12329  36.003   1.447  12.357
43989W        W12330  16.604  43.305   0.411
43990W        W12331  19.122  25.475  13.456
43991W        W12332  24.596   5.836  12.050
43992W        W12333  28.960   4.897  11.863
43993W        W12334   4.921  44.779   3.181
43994W        W12335  37.891   4.893   2.407
43995W        W12336  17.297   1.894  12.853
43996W        W12337  15.232   2.793   1.306
43997W        W12338  16.772  44.843  13.457
43998W        W12339  34.039   8.747   1.811
43999W        W12340  15.109   4.782  11.874
44000W        W12341  10.255  33.980  11.060
44001W        W12342   1.423  25.210  13.045
44002W        W12343  44.790  42.923   1.775
44003W        W12344  32.097  24.073  13.857
44004W        W12345  28.950  27.641   3.369
44005W        W12346  21.049  20.083   1.821
44006W        W12347  18.763  13.821   4.263
44007W        W12348  24.558  20.089   2.720
44008W        W12349  20.620  41.972   2.767
44009W        W12350  11.622  17.725  11.563
44010W        W12351  37.511  34.614  10.015
44011W        W12352   4.379  42.890   0.396
44012W        W12353  23.128  35.940   2.189
44013W        W12354  21.188  10.667  11.597
44014W        W12355  27.977   2.755   2.748
44015W        W12356   7.204   1.422  11.934
44016W        W12357   4.280  26.502   1.869
44017W        W12358   7.333   0.372  11.593
44018W        W12359  43.385  13.816  13.033
44019W        W12360  21.086  31.961   1.359
44020W        W12361  17.307  43.340   2.406
44021W        W12362  32.035  40.950  14.298
44022W        W12363  31.141  23.522  12.925
44023W        W12364  28.538  10.329   2.850
44024W        W12365  14.103  16.217   3.799
44025W        W12366   6.368  12.253   9.993
44026W        W12367  37.034  23.636   1.798
44027W        W12368  21.758   4.286   3.740
44028W        W12369  23.224  19.200  13.382
44029W        W12370  29.639  22.541  12.501
44030W        W12371   7.382   1.312   3.190
44031W        W12372  24.546   0.367  12.900
44032W        W12373  30.579   1.732  13.883
44033W        W12374  14.274  40.954   9.619
44034W        W12375  27.134  19.086   1.249
44035W        W12376  17.221  30.107   2.850
44036W        W12377   3.899  20.670   3.866
44037W        W12378  22.047   9.876  13.431
44038W        W12379  34.566  26.142   4.776
44039W        W12380  38.960  40.927  12.021
44040W        W12381   3.366  16.252   1.778
44041W        W12382  21.091  31.043  13.033
44042W        W12383  16.713  32.912   3.844
44043W        W12384  28.969  27.135   0.886
44044W        W12385   0.916  36.996   2.735
44045W        W12386   1.388  22.160   3.210
44046W        W12387  21.218  35.945   3.177
44047W        W12388  22.236  25.593  14.817
44048W        W12389  22.021   2.349   3.759
44049W        W12390  26.680  32.599   4.623
44050W        W12391  32.584   4.272  10.451
44051W        W12392  15.247  44.327   0.769
44052W        W12393   4.857   0.340   1.933
44053W        W12394  21.563  26.638   4.790
44054W        W12395  43.788  29.457  14.988
44055W        W12396  33.565  39.548  10.455
44056W        W12397  27.584   8.211  11.401
44057W        W12398  22.011   8.392   4.734
44058W        W12399  18.263  23.096   3.199
44059W        W12400  11.176  24.642  12.085
44060W        W12401   4.798  26.607  10.572
44061W        W12402   3.455  41.515  11.112
44062W        W12403  26.126   5.899   1.846
44063W        W12404  30.131   6.741  14.874
44064W        W12405  15.295  41.017  14.996
44065W        W12406   3.873   2.271   1.766
44066W        W12407  36.002  34.036   3.840
44067W        W12408  13.843   8.841   3.327
44068W        W12409  24.187  39.482   1.717
44069W        W12410  42.968  17.615   1.420
44070W        W12411   2.861  37.460  13.448
44071W        W12412  38.876  40.930   1.274
44072W        W12413  13.739  30.467  11.513
44073W        W12414  18.759  18.276   4.759
44074W        W12415   4.330  20.125   1.254
44075W        W12416   5.401  22.172   4.706
44076W        W12417  16.593  15.727   2.207
44077W        W12418  21.078   0.785  12.467
44078W        W12419  42.421  38.405   1.789
44079W        W12420  38.881  32.943  12.339
44080W        W12421  34.102  41.789  10.639
44081W        W12422  16.694  23.531   2.313
44082W        W12423  13.264  43.977  13.465
44083W        W12424  39.867  26.547   0.958
44084W        W12425  27.160  36.960  14.779
44085W        W12426   6.747  34.927   3.846
44086W        W12427   7.849  29.039   2.295
44087W        W12428   6.215  42.511  10.958
44088W        W12429  22.536  15.146   3.313
44089W        W12430   8.880  26.022   1.314
44090W        W12431  43.937  13.290  11.068
44091W        W12432  23.690   0.339   3.219
44092W        W12433   8.323   6.830  11.911
44093W        W12434  32.088  12.688  14.835
44094W        W12435  34.407  20.181   2.384
44095W        W12436   9.729  36.535   3.274
44096W        W12437  36.947  17.576  13.311
44097W        W12438  21.699  42.457   3.281
44098W        W12439  34.533   6.777  11.982
44099W        W12440  24.088  44.776  12.891
44100W        W12441  26.120   2.827  11.031
44101W        W12442  31.429  31.511  12.520
44102W        W12443  22.584  22.190   2.820
44103W        W12444  15.291  18.052   3.863
44104W        W12445  24.161  31.416   1.352
44105W        W12446   9.267  32.928  12.829
44106W        W12447  34.034   9.804   0.967
44107W        W12448  28.969  13.613   4.268
44108W        W12449  44.868   4.251   0.325
44109W        W12450   3.937  32.480  12.500
44110W        W12451  38.514  42.973  10.098
44111W        W12452  23.186  15.789   3.836
44112W        W12453  38.491  20.081   0.320
44113W        W12454  15.205  31.628  13.446
44114W        W12455  38.977   6.679  11.427
44115W        W12456   6.719  37.909  12.041
44116W        W12457  18.699  16.239   2.879
44117W        W12458  32.565   6.838  10.951
44118W        W12459  37.902  43.931   0.365
44119W        W12460  27.686   1.273  12.903
44120W        W12461  28.023   8.329   2.354
44121W        W12462  13.707  41.851  14.500
44122W        W12463   0.781  29.013  12.384
44123W        W12464  23.636   6.789   0.410
44124W        W12465  39.847   3.455  13.495
44125W        W12466   4.916  43.309  14.000
44126W        W12467  25.529  42.999   0.869
44127W        W12468  19.187   1.255   2.275
44128W        W12469  35.484   9.708   1.235
44129W        W12470  39.999  40.897  12.995
44130W        W12471  30.586  12.215   2.743
44131W        W12472   9.187  28.144  10.556
44132W        W12473  42.345  38.556   4.133
44133W        W12474   4.870  16.256  14.945
44134W        W12475  42.967  19.089  10.494
44135W        W12476   2.872  17.787  10.933
44136W        W12477   0.783   0.828  13.344
44137W        W12478  39.461  43.850  14.846
44138W        W12479  16.196   8.279   0.837
44139W        W12480  35.074   3.403  14.783
44140W        W12481  37.382  13.648  11.549
44141W        W12482  40.869  11.369  11.119
44142W        W12483  35.447   9.886  12.953
44143W        W12484  32.982  13.843   2.284
44144W        W12485   4.892  30.491   1.875
44145W        W12486  35.970  42.322   3.828
44146W        W12487   7.350  44.387   4.637
44147W        W12488  35.591  21.021  12.435
44148W        W12489   0.257  14.314  11.946
44149W        W12490  17.692  16.695  12.885
44150W        W12491  32.414  19.046  12.524
44151W        W12492  27.687   7.292  14.760
44152W        W12493   1.416  38.904   2.774
44153W        W12494  23.564  18.582   2.895
44154W        W12495  36.002  28.179  14.384
44155W        W12496  13.147  14.662   3.339
44156W        W12497  34.374   8.249  12.984
44157W        W12498  15.303  13.326  13.389
44158W        W12499  40.020  42.941   9.505
44159W        W12500  17.639  35.859  10.543
44160W        W12501  31.499  13.183   4.614
44161W        W12502  31.936   0.298  13.038
44162W        W12503  10.363  41.984  12.996
44163W        W12504  13.636  21.049  10.012
44164W        W12505  41.323  22.728   2.850
44165W        W12506   5.758  24.166  14.483
44166W        W12507  33.556  25.599  13.921
44167W        W12508  16.756  22.192  13.972
44168W        W12509  43.858  21.255   0.343
44169W        W12510  15.679  13.264   1.867
44170W        W12511  22.066  16.593   9.532
44171W        W12512   9.264  20.095   0.896
44172W        W12513  30.938   0.838   2.823
44173W        W12514  26.985  38.902  14.398
44174W        W12515  29.155  40.890   1.347
44175W        W12516  44.008  24.000  14.895
44176W        W12517  36.955  33.028   1.914
44177W        W12518   0.847  10.362   0.266
44178W        W12519  12.661  44.823  10.421
44179W        W12520  34.067  41.396  14.469
44180W        W12521   1.378  16.584   5.302
44181W        W12522   0.933  21.185   3.230
44182W        W12523  18.291  18.098  13.009
44183W        W12524  10.236   4.379  11.555
44184W        W12525  24.183  37.399   4.231
44185W        W12526  16.781  40.816   2.769
44186W        W12527  32.586  31.532   3.801
44187W        W12528  43.775   3.284  12.018
44188W        W12529  26.694  35.902   3.171
44189W        W12530   4.400  32.097   0.918
44190W        W12531  23.514  14.134  14.377
44191W        W12532  25.485   7.246  14.381
44192W        W12533  44.367  44.774  12.893
44193W        W12534  25.539  43.883  13.438
44194W        W12535   1.747   9.653  13.835
44195W        W12536  10.305  39.962   2.680
44196W        W12537  36.574  27.119  10.489
44197W        W12538  44.337  18.620   9.509
44198W        W12539   1.466  11.218   2.282
44199W        W12540   2.273  21.234   3.630
44200W        W12541  44.889  20.035   3.314
44201W        W12542   5.790  17.278   1.374
44202W        W12543  38.461  38.344   1.400
44203W        W12544  23.689  26.122   1.393
44204W        W12545  35.986   4.769   4.682
44205W        W12546  14.325   4.400   3.863
44206W        W12547  24.186  31.584   2.376
44207W        W12548   4.436  44.932  14.777
44208W        W12549  26.630  21.025   4.289
44209W        W12550  18.069  20.646   4.795
44210W        W12551  15.697   0.849  11.099
44211W        W12552   4.260  36.906  12.906
44212W        W12553  39.508  40.409  11.457
44213W        W12554  11.639  44.774  12.401
44214W        W12555  38.006   9.767   0.429
44215W        W12556  34.993  27.969   4.725
44216W        W12557  11.669  43.508  14.010
44217W        W12558  30.562   2.935   3.334
44218W        W12559   1.399  20.127  14.804
44219W        W12560  41.415  21.021   0.273
44220W        W12561  10.704  32.430   2.416
44221W        W12562  13.155  11.139   1.293
44222W        W12563  40.813  15.183   3.249
44223W        W12564   2.726  26.607  10.120
44224W        W12565  28.107   4.808   3.862
44225W        W12566  18.109  37.939  14.801
44226W        W12567  17.228  13.117  12.080
44227W        W12568  33.515  36.067  14.460
44228W        W12569  24.184  41.382  11.869
44229W        W12570  32.075   4.304  12.478
44230W        W12571  19.708  23.595  14.294
44231W        W12572  29.133  19.045  11.473
44232W        W12573  43.273  12.832   4.618
44233W        W12574  17.609  10.695  10.941
44234W        W12575   0.874  44.314   3.739
44235W        W12576  15.274  42.873   1.747
44236W        W12577   4.374  23.012   0.437
44237W        W12578  42.968   3.741   0.397
44238W        W12579  15.256  21.656   3.793
44239W        W12580  42.954  30.432  11.014
44240W        W12581  36.525  32.627  11.926
44241W        W12582  10.242   0.926  15.000
44242W        W12583   5.414   5.863  12.963
44243W        W12584   0.449   3.738   0.350
44244W        W12585  36.082  15.271  12.886
44245W        W12586  30.590   4.708  13.398
44246W        W12587   7.273  39.511  14.334
44247W        W12588   2.903  44.426   4.815
44248W        W12589   6.912   4.298   2.806
44249W        W12590   4.876  30.522   3.634
44250W        W12591   2.465  10.661   1.439
44251W        W12592   0.923   8.204  11.012
44252W        W12593  28.436  35.497   4.668
44253W        W12594  27.602  14.277   1.289
44254W        W12595  10.794  30.164   2.389
44255W        W12596   3.709  40.018  10.531
44256W        W12597  39.908  41.492  12.060
44257W        W12598  34.426  29.046  11.473
44258W        W12599   9.795  37.985   2.864
44259W        W12600  10.778  26.469   3.262
44260W        W12601  31.930  25.159  11.526
44261W        W12602  24.138  37.356  13.969
44262W        W12603   5.307  35.561  13.531
44263W        W12604  41.352  18.178   4.773
44264W        W12605  41.516  12.257   2.325
44265W        W12606   6.338  29.620  13.831
44266W        W12607  24.669  12.677  13.314
44267W        W12608  35.368   9.748   3.870
44268W        W12609  26.628  42.818  10.046
44269W        W12610  17.094  12.685  14.329
44270W        W12611   0.830  32.450   4.723
44271W        W12612  19.751  14.636   2.896
44272W        W12613   7.750   5.902   4.187
44273W        W12614  44.002  29.974  10.551
44274W        W12615  28.097  17.306  10.444
44275W        W12616  25.644  20.741  14.819
44276W        W12617  40.490  11.758   5.169
44277W        W12618   4.285  27.087   0.258
44278W        W12619  17.782   6.793  11.010
44279W        W12620   8.382  19.126  13.542
44280W        W12621  11.340  14.266   2.290
44281W        W12622  38.425  42.825   3.336
44282W        W12623  14.232  32.016  11.080
44283W        W12624  36.543  10.792  13.483
44284W        W12625  25.140  31.998  11.535
44285W        W12626  22.215  14.763   2.309
44286W        W12627  16.136  31.120  11.021
44287W        W12628   3.939   4.900   3.151
44288W        W12629   4.909  21.033  14.339
44289W        W12630  32.897   1.935   0.863
44290W        W12631   4.283  36.905  13.848
44291W        W12632  10.870  35.966   1.857
44292W        W12633   7.708   0.869  10.521
44293W        W12634   2.763  41.038  13.973
44294W        W12635   7.877  21.639  14.317
44295W        W12636  23.024  10.830   3.293
44296W        W12637  16.721  38.011  12.553
44297W        W12638  32.562  39.042  14.759
44298W        W12639  26.480  26.685  14.830
44299W        W12640  36.909  27.982   2.804
44300W        W12641  34.050  42.893   4.686
44301W        W12642  40.479   2.832  11.082
44302W        W12643  23.241   5.257  13.888
44303W        W12644  34.959  15.327  14.400
44304W        W12645  10.358  30.581   3.855
44305W        W12646   2.459  17.786  10.982
44306W        W12647   4.892  39.937   3.728
44307W        W12648  20.596   0.436  11.046
44308W        W12649  32.070  26.498   0.774
44309W        W12650  29.469  43.350  12.069
44310W        W12651  11.687  37.872  12.058
44311W        W12652  20.122  34.089   1.399
44312W        W12653  23.625  44.803  13.333
44313W        W12654  29.452  26.075   3.224
44314W        W12655   5.850  39.512   4.274
44315W        W12656  23.040  28.472   0.468
44316W        W12657  15.688  29.539   1.316
44317W        W12658  39.972  27.600   3.837
44318W        W12659  17.732  38.008  12.363
44319W        W12660  36.525  13.335  10.639
44320W        W12661  14.666  41.826  12.414
44321W        W12662  13.683  23.143  12.010
44322W        W12663  26.459   1.383  11.971
44323W        W12664   0.810  18.619  13.351
44324W        W12665  35.561  16.575   2.786
44325W        W12666  21.209  22.672   3.296
44326W        W12667  34.382  35.931  13.038
44327W        W12668  35.877  39.501  12.980
44328W        W12669  39.894  37.393  14.311
44329W        W12670  35.100   6.809  11.880
44330W        W12671  11.366  39.444  13.437
44331W        W12672  26.532  31.991  12.980
44332W        W12673   4.822   7.793  12.080
44333W        W12674  44.001  35.082   1.403
44334W        W12675  20.596  39.323   2.233
44335W        W12676  11.155  23.075   0.332
44336W        W12677  38.862  37.346  11.500
44337W        W12678  11.206  42.326   3.853
44338W        W12679  30.610  23.220   2.807
44339W        W12680   7.748  13.267  13.935
44340W        W12681  22.582  28.997  13.544
44341W        W12682   3.406  35.083   1.235
44342W        W12683  25.618  12.319   4.665
44343W        W12684  28.494  13.833  13.383
44344W        W12685   9.741  26.957   1.768
44345W        W12686  26.638  40.847  13.541
44346W        W12687  19.600   3.717  13.848
44347W        W12688   0.800   9.322  14.830
44348W        W12689  11.805  21.161   1.697
44349W        W12690  29.462  19.649  13.540
44350W        W12691  10.658  14.114  12.570
44351W        W12692  12.291   2.334  12.445
44352W        W12693  36.561  21.687  10.483
44353W        W12694  26.703  29.122   4.683
44354W        W12695  22.726   7.853   0.407
44355W        W12696  18.260   4.406   3.333
44356W        W12697  37.464   5.776  12.416
44357W        W12698  40.485  23.672   3.699
44358W        W12699  19.089  24.496   3.790
44359W        W12700  15.217  16.625   3.258
44360W        W12701  42.815  35.365  12.907
44361W        W12702  14.103   7.335   0.274
44362W        W12703  30.538   5.832  10.576
44363W        W12704  23.624   9.773  14.941
44364W        W12705  32.917   7.763  13.924
44365W        W12706  43.938  30.072   1.276
44366W        W12707  11.199  27.580  12.362
44367W        W12708  37.543  36.071  12.084
44368W        W12709  27.951  12.298   4.630
44369W        W12710  31.646  11.670   4.202
44370W        W12711  35.437  11.167   4.689
44371W        W12712   2.279  40.957  11.966
44372W        W12713  15.816  39.936  14.319
44373W        W12714  29.552  16.090  10.919
44374W        W12715   8.738  44.914  11.505
44375W        W12716  25.605  11.731  14.322
44376W        W12717  10.284  36.068   0.397
44377W        W12718   3.899   7.396   4.807
44378W        W12719  17.603   7.412  12.047
44379W        W12720  11.681  39.837  11.594
44380W        W12721  32.008   5.777  11.391
44381W        W12722  39.392  21.623  12.478
44382W        W12723   2.290   2.798  11.092
44383W        W12724  18.070  43.016  14.943
44384W        W12725  13.743  25.041  10.909
44385W        W12726  34.433   1.951   3.658
44386W        W12727  23.167   7.800  14.777
44387W        W12728   4.340  44.812  13.408
44388W        W12729  14.703  36.479   1.885
44389W        W12730   9.643  10.751   3.384
44390W        W12731  16.281  31.609   2.381
44391W        W12732  21.264  31.466  10.953
44392W        W12733  31.575  32.011   1.793
44393W        W12734  35.036   6.382   3.636
44394W        W12735   6.873  24.160   0.409
44395W        W12736   9.276   1.353   4.771
44396W        W12737  32.005  29.524  11.486
44397W        W12738  31.902  30.524   4.188
44398W        W12739  40.944  20.580   2.261
44399W        W12740  35.468   1.816   4.342
44400W        W12741  34.500  19.770  10.980
44401W        W12742  19.569  35.938  11.585
44402W        W12743  38.537  12.777  12.509
44403W        W12744  39.455  27.073  10.916
44404W        W12745   3.458   4.712  10.536
44405W        W12746  41.965  39.442   0.353
44406W        W12747  32.994  44.379   3.232
44407W        W12748  34.929   7.233  10.407
44408W        W12749  36.973  21.191   2.216
44409W        W12750   5.868   9.205  12.359
44410W        W12751  11.752  30.949   4.808
44411W        W12752  23.030  30.622   2.707
44412W        W12753  24.481  15.679   1.233
44413W        W12754  19.060   0.460   3.176
44414W        W12755  13.698   7.792  11.994
44415W        W12756  33.944  43.511  14.918
44416W        W12757  37.546  29.975   3.854
44417W        W12758   9.648  27.527  13.432
44418W        W12759  25.573  10.171   3.184
44419W        W12760   5.853  39.525   0.939
44420W        W12761  20.250  29.157  11.533
44421W        W12762  20.548   6.393  13.952
44422W        W12763   4.234   6.286   0.466
44423W        W12764  43.783  17.619   1.317
44424W        W12765  26.051  37.927   2.404
44425W        W12766  42.509  36.548   4.701
44426W        W12767   1.865  44.388  14.782
44427W        W12768   4.730   4.782  14.934
44428W        W12769  38.857  23.089  14.463
44429W        W12770   8.329   6.184   3.371
44430W        W12771   9.740  22.203  13.344
44431W        W12772  24.557  43.405  12.066
44432W        W12773  40.361  43.512   2.321
44433W        W12774  27.601   2.333  14.431
44434W        W12775   6.746  21.569   0.315
44435W        W12776  10.263  38.068   4.741
44436W        W12777   7.871  44.451  13.995
44437W        W12778  37.548   9.872  14.312
44438W        W12779  20.061  25.668  12.088
44439W        W12780  35.901  27.604  11.470
44440W        W12781  36.071  32.957   4.181
44441W        W12782   9.705  10.693   2.791
44442W        W12783  36.375  37.974   1.266
44443W        W12784   2.329  23.151  13.377
44444W        W12785  12.311  37.358  13.547
44445W        W12786  35.070  44.493   2.760
44446W        W12787  21.535  24.705  13.310
44447W        W12788  30.111   5.755   1.407
44448W        W12789  33.079  33.536  11.021
44449W        W12790  38.517  12.298   4.197
44450W        W12791  18.212  26.535   0.832
44451W        W12792  18.056  24.018   2.743
44452W        W12793  14.609   4.770  11.409
44453W        W12794   5.232   8.309  13.020
44454W        W12795  21.162   9.661   4.732
44455W        W12796  41.917  29.027   1.277
44456W        W12797  27.626   5.358   1.386
44457W        W12798  12.290  37.398  10.961
44458W        W12799  24.508  32.035   4.210
44459W        W12800  26.590   5.895  13.986
44460W        W12801  19.650  22.121  10.960
44461W        W12802  25.588  16.095   1.331
44462W        W12803  38.077  15.183   4.187
44463W        W12804  22.139   7.418  13.321
44464W        W12805  29.607  12.854   2.323
44465W        W12806   6.791  38.521   1.802
44466W        W12807  33.538  43.791  10.608
44467W        W12808   3.295   1.740   1.403
44468W        W12809  10.350   0.269   1.284
44469W        W12810  10.875  23.045  12.551
44470W        W12811  41.314  22.058   3.810
44471W        W12812  43.341  41.401  11.530
44472W        W12813  12.632  33.559   3.165
44473W        W12814   6.872   7.205   4.301
44474W        W12815  17.206  41.911  12.529
44475W        W12816  22.649   8.393  13.983
44476W        W12817  16.182  20.183  14.892
44477W        W12818   9.871   0.870   1.253
44478W        W12819  19.742  12.716   2.789
44479W        W12820  30.986  32.079   4.753
44480W        W12821  43.516  23.545  12.539
44481W        W12822  41.328  34.900  11.500
44482W        W12823  18.685  34.072   0.244
44483W        W12824  37.921  35.076  11.870
44484W        W12825  28.975  19.121   0.307
44485W        W12826   2.725  30.550   3.820
44486W        W12827  35.873  12.800   1.317
44487W        W12828  10.276  29.506  12.504
44488W        W12829  12.304  37.069  13.986
44489W        W12830  34.445  19.260  11.864
44490W        W12831  25.603   6.271   3.813
44491W        W12832  27.670   4.324   4.228
44492W        W12833  36.983  21.702  13.885
44493W        W12834  33.907  14.733  12.926
44494W        W12835  14.212   1.464   3.306
44495W        W12836  35.543  26.566  11.032
44496W        W12837  22.172  19.230   4.137
44497W        W12838  29.463  42.507   2.869
44498W        W12839  15.798  17.118  12.008
44499W        W12840  21.107  35.073  14.985
44500W        W12841   4.315  37.985   1.752
44501W        W12842  38.857  17.226  12.390
44502W        W12843  37.926  25.625   4.728
44503W        W12844  19.644  40.501  10.895
44504W        W12845  23.694  17.075  10.436
44505W        W12846   0.966  30.132  12.017
44506W        W12847  28.578  28.039  10.904
44507W        W12848  44.815  30.423   4.833
44508W        W12849  34.420  14.148  14.472
44509W        W12850   5.832  27.483   1.284
44510W        W12851  14.227  33.445   3.634
44511W        W12852  24.192  34.434   1.723
44512W        W12853  43.765  25.551   4.631
44513W        W12854  23.993  19.575  11.923
44514W        W12855  19.256  30.514   4.236
44515W        W12856   7.281   8.304   3.686
44516W        W12857   3.716   1.278   3.678
44517W        W12858  32.064  20.090   0.334
44518W        W12859  19.136  44.896  13.855
44519W        W12860  38.026  36.449   1.369
44520W        W12861   7.727   7.854   0.828
44521W        W12862  26.061  42.313   0.298
44522W        W12863   1.745  30.511  14.290
44523W        W12864  13.602   9.783  12.846
44524W        W12865  13.215  11.867   3.718
44525W        W12866  40.992  17.076   0.454
44526W        W12867   7.735  39.814  14.991
44527W        W12868  10.336  33.996   4.711
44528W        W12869  35.429   7.873  13.352
44529W        W12870   4.849  43.359   3.259
44530W        W12871  19.251  38.883  13.501
44531W        W12872   5.403   9.291  13.509
44532W        W12873  18.234  40.051  12.004
44533W        W12874  39.978   2.885   2.306
44534W        W12875  11.161   4.877  12.000
44535W        W12876  10.327  26.673  10.920
44536W        W12877   9.646  16.574   2.698
44537W        W12878  20.644  20.047  12.476
44538W        W12879   1.244  36.461   1.275
44539W        W12880  18.597   8.354   0.369
44540W        W12881  35.510  32.563  13.389
44541W        W12882  44.498  10.669   4.677
44542W        W12883  43.885  10.381   0.959
44543W        W12884  20.688   2.424   4.255
44544W        W12885  18.743  20.188   0.481
44545W        W12886  15.261   3.873   0.780
44546W        W12887  27.156  12.615  13.892
44547W        W12888   0.322  10.867  12.088
44548W        W12889   9.817  12.730   4.720
44549W        W12890  32.522  30.462   4.809
44550W        W12891  41.799  40.855  14.462
44551W        W12892  10.698   0.264   2.178
44552W        W12893  20.054  18.244   2.847
44553W        W12894   3.248   2.383   0.474
44554W        W12895  20.148  28.659   1.775
44555W        W12896  17.230  31.127   1.312
44556W        W12897  33.429  38.886  13.522
44557W        W12898  16.262  25.124   2.214
44558W        W12899   9.206  17.771   2.703
44559W        W12900  38.335  30.002   1.271
44560W        W12901   6.705  20.608   3.794
44561W        W12902   9.197  29.486   2.259
44562W        W12903  31.013  35.601   4.805
44563W        W12904  30.016  34.380   2.331
44564W        W12905  27.607  44.974   0.354
44565W        W12906   9.255  19.203  13.386
44566W        W12907  31.079  36.996   4.331
44567W        W12908  17.172   6.354   2.726
44568W        W12909   1.368  25.998  14.288
44569W        W12910  35.464  25.709  10.554
44570W        W12911  13.283  26.487   2.329
44571W        W12912   2.905  23.691  12.825
44572W        W12913  18.674  39.891  13.509
44573W        W12914  26.572   7.355  12.382
44574W        W12915  32.125  41.303  13.466
44575W        W12916  22.594   7.856  11.491
44576W        W12917  21.659   1.305  12.365
44577W        W12918   7.404   9.290   0.879
44578W        W12919  42.412  18.129   2.265
44579W        W12920  43.972   4.806  12.376
44580W        W12921  23.992  34.898   2.347
44581W        W12922  24.713  25.471  11.470
44582W        W12923  18.729  40.347  13.958
44583W        W12924  31.951  20.141  11.571
44584W        W12925  11.232  38.464  13.451
44585W        W12926  26.569  21.696  14.873
44586W        W12927  33.407   9.293   0.865
44587W        W12928  40.825  19.170  14.374
44588W        W12929  26.525  36.587   0.940
44589W        W12930  37.360  17.222   0.741
44590W        W12931  34.103   8.349   2.315
44591W        W12932  24.568  20.757   2.803
44592W        W12933  25.032  26.118   1.215
44593W        W12934  36.965  37.990  10.967
44594W        W12935  43.514  33.493  10.499
44595W        W12936  11.842   3.901   4.833
44596W        W12937  33.909  30.514  14.396
44597W        W12938  38.021  21.659   4.793
44598W        W12939  34.060   5.736   3.744
44599W        W12940  21.155   3.837   2.673
44600W        W12941   7.748   4.389   2.836
44601W        W12942  11.844  26.507  14.509
44602W        W12943   8.696  10.362   4.233
44603W        W12944  32.055  18.141  14.828
44604W        W12945  22.115  26.651  12.510
44605W        W12946  20.268  12.192   0.387
44606W        W12947  42.399  14.271  10.934
44607W        W12948  31.523  14.748   0.908
44608W        W12949  21.155  42.492   3.648
44609W        W12950  37.412  12.778   0.314
44610W        W12951   7.734  18.552   2.734
44611W        W12952  44.853  33.615   2.258
44612W        W12953  16.794  32.971  13.532
44613W        W12954  26.576   1.260  14.318
44614W        W12955  14.337  39.538  13.925
44615W        W12956   8.875  34.083  14.382
44616W        W12957  14.199  15.636   1.243
44617W        W12958   9.328  26.107  12.405
44618W        W12959  44.959  37.952   1.362
44619W        W12960  24.641   3.329  14.873
44620W        W12961  44.889   3.837   3.810
44621W        W12962  42.991   2.859  10.431
44622W        W12963  27.193  28.025   3.862
44623W        W12964   4.373   5.903  10.406
44624W        W12965   0.317  13.111   1.310
44625W        W12966  39.829  42.428   0.358
44626W        W12967  20.096  14.738   0.258
44627W        W12968  24.673  30.097  14.850
44628W        W12969  15.659   2.288   4.739
44629W        W12970  37.460  18.132  12.396
44630W        W12971  34.486  17.593   3.233
44631W        W12972   5.748   7.900   0.835
44632W        W12973  24.205  38.418  12.045
44633W        W12974  12.628  38.521   0.881
44634W        W12975  37.561  32.519  11.496
44635W        W12976   2.468  37.407   9.960
44636W        W12977  30.076   5.388   1.370
44637W        W12978  15.709  18.286   0.961
44638W        W12979  11.330  37.031  12.066
44639W        W12980   8.838  11.770  10.549
44640W        W12981  24.118  12.117   3.668
44641W        W12982  23.508  22.543   4.279
44642W        W12983  34.023   6.390   0.906
44643W        W12984  25.039  27.630  13.938
44644W        W12985   7.262  35.894   1.842
44645W        W12986   2.293  43.882  12.877
44646W        W12987  27.955   7.349   5.253
44647W        W12988  18.658  34.401  13.446
44648W        W12989  32.618   1.866   2.794
44649W        W12990  32.096  12.338  12.452
44650W        W12991  26.961  28.144  13.799
44651W        W12992  43.295  40.438  10.638
44652W        W12993  26.507   1.848   0.750
44653W        W12994  19.540  12.276   0.396
44654W        W12995  14.675  39.375   1.383
44655W        W12996  14.284   0.315  14.864
44656W        W12997  30.080  44.337   2.841
44657W        W12998  17.616  28.002  14.016
44658W        W12999  30.957  22.716  11.461
44659W        W13000  14.213  28.664  12.365
44660W        W13001  44.375   6.245  12.838
44661W        W13002  23.545  25.999  11.440
44662W        W13003   9.840  19.682  14.453
44663W        W13004  44.505   4.263  11.559
44664W        W13005   3.872  41.809   3.671
44665W        W13006  14.781   4.716  14.304
44666W        W13007  14.287  23.149  13.425
44667W        W13008  10.826   1.811   4.627
44668W        W13009  22.556  40.823  13.506
44669W        W13010  41.816  15.116   4.728
44670W        W13011  27.655   6.837   2.226
44671W        W13012   6.306  38.951   0.462
44672W        W13013  33.922  35.892   5.246
44673W        W13014  31.984  10.661  13.891
44674W        W13015  22.655  38.459  14.296
44675W        W13016  24.135  39.821  13.529
44676W        W13017  18.737  28.550   1.747
44677W        W13018  24.721  12.818   0.959
44678W        W13019  30.612  35.462   4.753
44679W        W13020  41.511  37.878   0.340
44680W        W13021  23.203  12.287  14.457
44681W        W13022  32.014  42.362   4.268
44682W        W13023   7.778   2.828  12.343
44683W        W13024  24.564  32.499  12.984
44684W        W13025  41.925  10.238  14.396
44685W        W13026   4.410   8.186  10.634
44686W        W13027  25.571  42.313  13.897
44687W        W13028  42.891   0.946  11.108
44688W        W13029  20.581  13.615  10.983
44689W        W13030  10.362   3.443   2.367
44690W        W13031  27.530   6.845   1.346
44691W        W13032  42.021  12.841   3.225
44692W        W13033  39.842  15.154  10.976
44693W        W13034  43.898  40.937   4.772
44694W        W13035  13.191  19.196   1.406
44695W        W13036   5.367  38.342   4.767
44696W        W13037  11.785   6.708  14.822
44697W        W13038  30.929  39.967  10.456
44698W        W13039  24.071   3.916   1.899
44699W        W13040  41.504  30.040   2.709
44700W        W13041  22.710  16.283  14.356
44701W        W13042   1.293   7.270  12.919
44702W        W13043  32.611   0.363  11.445
44703W        W13044  17.071   6.804   3.180
44704W        W13045  34.609  34.061   3.290
44705W        W13046  38.357  27.044  14.777
44706W        W13047  43.977   2.468  11.080
44707W        W13048  14.691  37.393   2.246
44708W        W13049   3.754   8.244  13.438
44709W        W13050  42.904   2.430   1.429
44710W        W13051  19.055  41.872   1.727
44711W        W13052  13.798   6.423  14.387
44712W        W13053  13.217  33.415  10.443
44713W        W13054  23.099   0.270  10.529
44714W        W13055  28.043  32.978   2.803
44715W        W13056  38.365  14.317   2.183
44716W        W13057  19.761  38.055   3.345
44717W        W13058  31.072  39.543   4.223
44718W        W13059  42.867  43.947   2.385
44719W        W13060  31.972  10.638  14.838
44720W        W13061  36.556   1.345   1.363
44721W        W13062  15.091  22.119  12.574
44722W        W13063   8.883  25.680   0.910
44723W        W13064   9.711  10.667   9.938
44724W        W13065  15.673  11.218   2.390
44725W        W13066  40.425  30.126  10.962
44726W        W13067   8.319  31.415   3.171
44727W        W13068  11.824  16.646   3.823
44728W        W13069  43.993   0.301  11.541
44729W        W13070  43.875   4.370  12.954
44730W        W13071  27.021  11.732   1.710
44731W        W13072  29.153  17.721   0.337
44732W        W13073  20.652  36.841   0.842
44733W        W13074  36.907   1.822   3.851
44734W        W13075  43.817  21.518  13.810
44735W        W13076  28.540  14.318  10.467
44736W        W13077  21.560  22.193   4.296
44737W        W13078  42.484  37.044   2.363
44738W        W13079  37.404   8.328   1.431
44739W        W13080  26.535   9.816  14.472
44740W        W13081   0.967   9.191  12.457
44741W        W13082  42.866   5.351  10.567
44742W        W13083  16.252  39.516   2.251
44743W        W13084   9.233  18.559   4.177
44744W        W13085  18.208  17.768   0.332
44745W        W13086  18.147  11.218   0.422
44746W        W13087  34.095  39.445  12.944
44747W        W13088  12.747  12.330   2.766
44748W        W13089  13.624  22.572  14.315
44749W        W13090   6.184  17.181   4.275
44750W        W13091  17.236  28.982  12.048
44751W        W13092  21.686  26.049  10.979
44752W        W13093   5.291   9.887  12.829
44753W        W13094   9.309  18.225   4.658
44754W        W13095  27.647  40.522  13.912
44755W        W13096  44.449  15.192  13.981
44756W        W13097   1.914   8.814   0.812
44757W        W13098  16.271  40.444   1.774
44758W        W13099  17.195  20.239   0.385
44759W        W13100  16.758  40.912   0.824
44760W        W13101  25.993  19.163  14.356
44761W        W13102  41.328   6.365  13.489
44762W        W13103   2.815  24.560   0.439
44763W        W13104   6.362  35.406  12.349
44764W        W13105  27.088  35.998   0.478
44765W        W13106  34.894  27.659   3.285
44766W        W13107  22.736  25.113  11.547
44767W        W13108  43.282  43.408   2.727
44768W        W13109  23.226  33.985   3.823
44769W        W13110  13.185  35.433  13.423
44770W        W13111  32.475  17.196  14.442
44771W        W13112  30.966  38.050  11.594
44772W        W13113  17.208  44.464  13.951
44773W        W13114  16.159  28.037  11.864
44774W        W13115   4.318  39.924  12.898
44775W        W13116   4.724  27.634  12.571
44776W        W13117   3.308  38.065  13.522
44777W        W13118  44.758  37.914   4.167
44778W        W13119   4.448  43.282  11.032
44779W        W13120  12.218  10.715   3.774
44780W        W13121  16.078   6.202   4.651
44781W        W13122  25.538  22.024  10.993
44782W        W13123  26.172  11.812  12.918
44783W        W13124   6.329  19.684  14.966
44784W        W13125  22.096  24.675   3.755
44785W        W13126  26.969   3.805   0.389
44786W        W13127  21.183  38.435   1.916
44787W        W13128  41.373  24.051   4.271
44788W        W13129  29.561  43.014  11.465
44789W        W13130   7.673  40.462   4.611
44790W        W13131  36.014  38.551  14.934
44791W        W13132  12.719  40.500   5.132
44792W        W13133  19.146   4.323  14.889
44793W        W13134   1.237   6.277  14.414
44794W        W13135  40.879   6.913   0.853
44795W        W13136   3.428  26.570   0.918
44796W        W13137  21.222  14.315   0.851
44797W        W13138  31.437  29.990  10.445
44798W        W13139  44.330   6.382   4.320
44799W        W13140  22.695  14.157   0.830
44800W        W13141   1.329  22.192   1.844
44801W        W13142  35.917   3.817   3.726
44802W        W13143   0.912   8.687  13.466
44803W        W13144  44.851   2.829   4.291
44804W        W13145  20.535  29.436   3.326
44805W        W13146   7.413  10.727  13.857
44806W        W13147   3.935  23.126  12.944
44807W        W13148   8.385  31.431  12.936
44808W        W13149  43.292  31.074  11.023
44809W        W13150  16.785  31.417   0.454
44810W        W13151   8.709  33.499  10.973
44811W        W13152  26.608  32.399   2.679
44812W        W13153  36.565   1.813  11.485
44813W        W13154  32.542   1.341   2.389
44814W        W13155  22.092  24.651   1.310
44815W        W13156   2.464  33.541   0.468
44816W        W13157  42.330   3.801   3.691
44817W        W13158  30.019  27.028   3.272
44818W        W13159  17.630  37.421   2.265
44819W        W13160  18.743   9.731   1.364
44820W        W13161  20.039  21.240   3.868
44821W        W13162  12.268  44.961   3.262
44822W        W13163  26.121   1.966  11.981
44823W        W13164  38.459   2.279   3.774
44824W        W13165  12.353  39.353   4.601
44825W        W13166  25.117   1.321   1.431
44826W        W13167   3.415  13.673  13.862
44827W        W13168   3.426   8.299  10.965
44828W        W13169  28.123   2.781   1.901
44829W        W13170  42.019   1.946  12.993
44830W        W13171   9.861  33.085  14.312
44831W        W13172  13.667   1.455  13.314
44832W        W13173  13.690  35.940  12.460
44833W        W13174  11.211  22.081  12.512
44834W        W13175  37.467  24.551   4.602
44835W        W13176  42.876   0.984   1.873
44836W        W13177   6.757  21.595   0.864
44837W        W13178   8.344  26.023  11.574
44838W        W13179  29.103  42.326  10.924
44839W        W13180  26.508  33.535  12.997
44840W        W13181  17.064   7.312   4.769
44841W        W13182  15.802  10.859   0.371
44842W        W13183  38.497  39.984  10.991
44843W        W13184  41.889  37.015   1.351
44844W        W13185  14.770  32.099   1.913
44845W        W13186  41.435   2.455   0.862
44846W        W13187  31.971  15.671   5.258
44847W        W13188  14.716  27.543   1.432
44848W        W13189  14.110  11.213   1.827
44849W        W13190  42.471  19.235   2.718
44850W        W13191  41.822  28.028  13.512
44851W        W13192  41.518  28.171  11.460
44852W        W13193   2.729  41.402   1.336
44853W        W13194  33.549  25.991   0.808
44854W        W13195  42.818  30.450  11.984
44855W        W13196  13.834  36.410  12.354
44856W        W13197  22.532   8.301   2.267
44857W        W13198  10.251   6.717   2.672
44858W        W13199   9.705  16.249   3.801
44859W        W13200  32.454  41.903   1.912
44860W        W13201  30.584  16.652  13.908
44861W        W13202  11.737   2.809  12.894
44862W        W13203  13.152   7.271  11.489
44863W        W13204  25.193  23.527  14.284
44864W        W13205  36.992  39.898   1.282
44865W        W13206  12.617  44.756   1.367
44866W        W13207  13.241   3.402   4.746
44867W        W13208   1.315  17.563   1.281
44868W        W13209  43.804  19.177  13.509
44869W        W13210  27.550  28.577  14.778
44870W        W13211  39.826   9.651  12.467
44871W        W13212  29.631   2.928   4.653
44872W        W13213  26.057   0.319   4.605
44873W        W13214  12.282  27.034  14.360
44874W        W13215   2.860  12.300   2.742
44875W        W13216   5.792  30.122  10.469
44876W        W13217  27.629   2.826  14.983
44877W        W13218  14.820  35.420  14.348
44878W        W13219  34.380  23.577   3.785
44879W        W13220  11.219  39.488  12.835
44880W        W13221   3.256  44.999  13.983
44881W        W13222  33.492  25.152   1.783
44882W        W13223  24.674  37.392  12.023
44883W        W13224  40.486  17.243   0.445
44884W        W13225   5.860  36.454   2.330
44885W        W13226  26.566  44.771   0.466
44886W        W13227  16.688  42.860   2.719
44887W        W13228  25.488  29.520  14.980
44888W        W13229   0.277  39.401  10.895
44889W        W13230  26.669   4.935  14.005
44890W        W13231  23.672  33.521   3.359
44891W        W13232   0.277  18.755   9.534
44892W        W13233  38.060  40.972  13.996
44893W        W13234   9.711   7.292   0.405
44894W        W13235  44.505  20.541  12.497
44895W        W13236  17.074   7.184   5.127
44896W        W13237   4.867  25.560  14.437
44897W        W13238  27.469   0.289  11.431
44898W        W13239  37.346  18.290   0.890
44899W        W13240  12.267  15.201   4.141
44900W        W13241  40.929   1.741  13.052
44901W        W13242  30.983  22.695   0.735
44902W        W13243  35.468  31.455  11.859
44903W        W13244  28.039  30.476  13.373
44904W        W13245  10.841  41.858  13.524
44905W        W13246  28.110  18.780   1.801
44906W        W13247  13.602  26.577  13.466
44907W        W13248  42.457  42.963   4.677
44908W        W13249   7.909  10.683  14.379
44909W        W13250  10.349  20.116   1.400
44910W        W13251   6.766   3.289  12.440
44911W        W13252  10.781  35.932   3.829
44912W        W13253  28.583  21.137   3.334
44913W        W13254  15.181   6.410   4.823
44914W        W13255  12.631  23.126   0.959
44915W        W13256  35.371  35.025   4.636
44916W        W13257  27.137   0.304   0.872
44917W        W13258  39.435  23.075  10.411
44918W        W13259  39.808   0.344   3.712
44919W        W13260  33.917  34.065  13.414
44920W        W13261  23.510  27.187  10.133
44921W        W13262  26.489   2.396   2.715
44922W        W13263  26.665  40.975  10.924
44923W        W13264   1.969  17.270   3.374
44924W        W13265   9.323  14.663  14.379
44925W        W13266  32.483   2.871   1.275
44926W        W13267  33.887   2.757   1.866
44927W        W13268  39.973   5.303  11.510
44928W        W13269   6.746   0.248  10.497
44929W        W13270  29.095  26.459   2.710
44930W        W13271  16.631  14.264  10.466
44931W        W13272  19.699  18.618  11.477
44932W        W13273  29.115  19.216   2.276
44933W        W13274  42.006   8.250   3.278
44934W        W13275  35.889  18.101   2.726
44935W        W13276   8.729   1.845  12.566
44936W        W13277  14.783  28.575   4.708
44937W        W13278  26.494  36.495  13.054
44938W        W13279  10.187  18.729  12.076
44939W        W13280   0.759  44.863   2.699
44940W        W13281  40.047  19.751   4.801
44941W        W13282  44.936   9.192  14.277
44942W        W13283  30.995  42.007   2.257
44943W        W13284  26.008   4.301   3.698
44944W        W13285  17.241  14.245   3.840
44945W        W13286  31.953  35.966  10.506
44946W        W13287  28.665  12.180  12.857
44947W        W13288  40.959  19.162  10.580
44948W        W13289  35.930  33.625  14.463
44949W        W13290   7.912  44.404   3.815
44950W        W13291  27.014  10.740   1.776
44951W        W13292   6.689  20.612  12.918
44952W        W13293   9.693  17.727  13.952
44953W        W13294   9.675   4.911   3.308
44954W        W13295  44.925  23.561   0.451
44955W        W13296  10.170  32.565  14.352
44956W        W13297  31.481  15.720  10.153
44957W        W13298  38.852  13.759  10.514
44958W        W13299  24.708  11.727  13.337
44959W        W13300  23.592   4.931  11.377
44960W        W13301  28.099   1.305   1.338
44961W        W13302  10.206  28.082  14.830
44962W        W13303  33.468  20.189  11.110
44963W        W13304   0.438  39.423  14.989
44964W        W13305  43.990  31.922   5.278
44965W        W13306  13.614  19.219   3.786
44966W        W13307  33.914   7.888   1.388
44967W        W13308  16.700  30.598   0.407
44968W        W13309  44.346  39.470  14.505
44969W        W13310  23.543   4.289  12.874
44970W        W13311  32.541   4.821   0.296
44971W        W13312  41.986  43.354  12.375
44972W        W13313  21.566  12.159  13.954
44973W        W13314  36.558  26.045   0.264
44974W        W13315  26.459  42.523   5.254
44975W        W13316  17.703  15.308   0.801
44976W        W13317   7.388  44.443   3.372
44977W        W13318  44.817  14.145   3.169
44978W        W13319  34.047  43.954  14.907
44979W        W13320  34.033  29.540   0.777
44980W        W13321  34.582  41.001  13.919
44981W        W13322  26.575   8.395   0.279
44982W        W13323  41.382  14.754  11.575
44983W        W13324   0.938  30.994  11.879
44984W        W13325  16.315  30.459  11.981
44985W        W13326  12.159  35.437  11.029
44986W        W13327  25.074  44.944   3.361
44987W        W13328  43.458   9.224  11.111
44988W        W13329   7.667  36.552   4.299
44989W        W13330  16.628  33.605   4.140
44990W        W13331  25.068   3.228  10.923
44991W        W13332  11.353   1.482  10.463
44992W        W13333  25.103  11.717  14.876
44993W        W13334   8.751  26.105  13.891
44994W        W13335  24.164  10.355   1.874
44995W        W13336  11.844  10.263   3.181
44996W        W13337  28.987  29.652  12.485
44997W        W13338  20.112   8.254  12.471
44998W        W13339  28.593   1.830   1.777
44999W        W13340  24.613  20.106   0.750
45000W        W13341  33.478  19.757   1.810
45001W        W13342  25.190  21.191   4.233
45002W        W13343  20.717  16.074  12.447
45003W        W13344   9.365  14.314   2.179
45004W        W13345   9.679  10.373  10.144
45005W        W13346  13.122  15.809  11.468
45006W        W13347  13.767  37.078  14.305
45007W        W13348   1.415  15.610   4.821
45008W        W13349   6.193  17.647   4.315
45009W        W13350   2.362  32.889  14.783
45010W        W13351  15.790  37.980   3.724
45011W        W13352  36.053  30.909  14.853
45012W        W13353  33.082  39.500   0.758
45013W        W13354  19.609  31.526  14.925
45014W        W13355   3.839  25.124  11.591
45015W        W13356  40.443  13.161  11.577
45016W        W13357  13.642  44.905  12.871
45017W        W13358  43.381  41.846   4.631
45018W        W13359  37.005  17.659  11.504
45019W        W13360  10.199  21.184   1.712
45020W        W13361  42.468  25.971  11.881
45021W        W13362  43.938  21.668  14.416
45022W        W13363  37.573  25.695  10.523
45023W        W13364  38.879  11.289  14.302
45024W        W13365  38.946  33.596  13.050
45025W        W13366  34.992   0.972  10.892
45026W        W13367  13.232  36.393   3.375
45027W        W13368  42.404  30.553   1.721
45028W        W13369  10.198  12.756   4.312
45029W        W13370   2.260  26.121  11.876
45030W        W13371  28.614   1.253   0.919
45031W        W13372   6.796  11.192  14.789
45032W        W13373  41.393   0.479  12.420
45033W        W13374  13.278  21.586   4.224
45034W        W13375  37.374  31.642  11.068
45035W        W13376  43.956  23.639   2.385
45036W        W13377   4.276  15.245   1.739
45037W        W13378   5.304  38.950   4.811
45038W        W13379  22.610  11.272  14.946
45039W        W13380  18.614  28.934   1.430
45040W        W13381  35.945  38.966  14.410
45041W        W13382  39.914  27.052   2.213
45042W        W13383   3.397  17.250  13.869
45043W        W13384  39.862  18.159  11.029
45044W        W13385  20.652  37.869   0.807
45045W        W13386  10.652  36.099  11.398
45046W        W13387  10.756   3.448   3.630
45047W        W13388  29.484  28.658  13.486
45048W        W13389  27.448  40.031   1.329
45049W        W13390  20.759  44.389   3.325
45050W        W13391  15.673   0.256  10.483
45051W        W13392  24.640  19.660   1.744
45052W        W13393  38.524  19.091  14.880
45053W        W13394  37.479   5.788  11.978
45054W        W13395  20.681  24.637  12.356
45055W        W13396  17.669   9.764   2.277
45056W        W13397  18.661  15.721  10.050
45057W        W13398  38.511  20.029  10.918
45058W        W13399  27.674  21.248  12.398
45059W        W13400   4.322  11.797  12.534
45060W        W13401  12.631   3.395  14.802
45061W        W13402   1.409  29.133   4.266
45062W        W13403  40.533  42.883  11.463
45063W        W13404  17.776  38.358   2.698
45064W        W13405   2.358   4.920  13.814
45065W        W13406  10.639  12.715  14.839
45066W        W13407  36.000   5.207  10.958
45067W        W13408   2.950  19.225  12.004
45068W        W13409  14.695   0.852  13.849
45069W        W13410  21.681  29.432  14.983
45070W        W13411   2.254  23.984   4.783
45071W        W13412  21.096  18.785  14.782
45072W        W13413  14.290  25.694  12.883
45073W        W13414  26.614  31.612  11.609
45074W        W13415  34.994  16.739  14.351
45075W        W13416  37.510  33.022  12.560
45076W        W13417   6.406   7.211   0.777
45077W        W13418  18.681  13.204  12.952
45078W        W13419  39.358  35.985  12.498
45079W        W13420  26.562  27.966  14.864
45080W        W13421  22.236  31.962  13.971
45081W        W13422  24.655  42.300  13.446
45082W        W13423  25.640  22.661   0.450
45083W        W13424  36.911  27.520   1.302
45084W        W13425   6.235  34.385   1.895
45085W        W13426  18.131  29.997   0.873
45086W        W13427   3.368  16.723  14.887
45087W        W13428  25.693  28.146   3.333
45088W        W13429  27.534  30.976  10.534
45089W        W13430  16.213  13.774   0.438
45090W        W13431  41.481  27.154  13.512
45091W        W13432  31.144  43.820   1.440
45092W        W13433   7.691  12.642  13.516
45093W        W13434  17.284   4.398  13.862
45094W        W13435  27.158   7.267  11.869
45095W        W13436   2.942  34.922   0.837
45096W        W13437  13.768  37.582   3.168
45097W        W13438  28.173  29.120  11.434
45098W        W13439   2.753  18.593   1.801
45099W        W13440  18.657  35.489  11.535
45100W        W13441  17.221   5.840   3.755
45101W        W13442   4.918   2.301   1.340
45102W        W13443  26.676   4.352  12.425
45103W        W13444   3.387  22.628  13.502
45104W        W13445  33.527  32.451   0.774
45105W        W13446  17.278  42.482   3.374
45106W        W13447  42.416  20.700   2.668
45107W        W13448  22.236  42.937  12.084
45108W        W13449  32.030  40.335   3.769
45109W        W13450  24.577  12.754  14.884
45110W        W13451  41.994  17.599  11.610
45111W        W13452  21.675   1.371  13.422
45112W        W13453  32.081  41.904  12.925
45113W        W13454  28.615  16.734  12.842
45114W        W13455  42.818   0.874   0.813
45115W        W13456  11.741  10.178  14.821
45116W        W13457  22.075   6.851  13.501
45117W        W13458  13.329  35.582  12.413
45118W        W13459  11.305  41.903  12.365
45119W        W13460  19.770  12.143   2.735
45120W        W13461  43.904   9.175   0.806
45121W        W13462  26.967  11.624  13.462
45122W        W13463  35.525  19.261  13.385
45123W        W13464  32.997  32.035  13.924
45124W        W13465   6.254  14.261   0.852
45125W        W13466   5.774  28.665  12.419
45126W        W13467  11.828  29.582  11.598
45127W        W13468  34.046  40.017   9.515
45128W        W13469  21.735  44.001   1.903
45129W        W13470   9.705  35.015  10.941
45130W        W13471   7.837   8.793   2.871
45131W        W13472  32.416  17.209   3.737
45132W        W13473   2.852   7.392  11.015
45133W        W13474  35.524  27.089  11.042
45134W        W13475   8.346  18.719   1.305
45135W        W13476  13.651   7.768   4.731
45136W        W13477  39.906  36.469  14.880
45137W        W13478   1.786  12.148   3.354
45138W        W13479  13.255   8.204   2.240
45139W        W13480  27.185  23.629  11.965
45140W        W13481   6.220  41.432  10.925
45141W        W13482  43.407   2.884  10.412
45142W        W13483  35.374  26.541   4.335
45143W        W13484   2.276  44.919   2.895
45144W        W13485  26.974   9.862   1.919
45145W        W13486  26.695  40.973   0.734
45146W        W13487  25.156  28.451   4.266
45147W        W13488  40.027  39.808  14.814
45148W        W13489  15.288  35.019  11.489
45149W        W13490  39.460  31.023   2.902
45150W        W13491  39.056  34.459  10.463
45151W        W13492  30.602   1.316   2.384
45152W        W13493  19.544  29.466   3.385
45153W        W13494   9.169   5.868   0.284
45154W        W13495   4.420   2.398   1.874
45155W        W13496  23.572   7.842   4.753
45156W        W13497  42.871  31.899   4.203
45157W        W13498  20.206   6.236   1.379
45158W        W13499   8.841  33.551   2.708
45159W        W13500   8.309  17.726   4.714
45160W        W13501  39.009   5.864  10.112
45161W        W13502   3.323  35.370   3.837
45162W        W13503   9.327  15.111  11.414
45163W        W13504  37.887  32.136   3.308
45164W        W13505   6.244   2.231   2.856
45165W        W13506  16.170  10.806   1.767
45166W        W13507   6.819  35.482   4.216
45167W        W13508  40.500  29.467  11.940
45168W        W13509  22.077  33.115   4.260
45169W        W13510  44.470  37.459   0.859
45170W        W13511  11.809  10.168  13.394
45171W        W13512   6.824  14.806   2.825
45172W        W13513  13.328  22.166  15.000
45173W        W13514  36.352  18.671   1.430
45174W        W13515  40.004  10.175   4.803
45175W        W13516  44.941  15.175  12.049
45176W        W13517   6.391  41.817  13.316
45177W        W13518  31.948  31.626  11.085
45178W        W13519   5.876  12.796   3.307
45179W        W13520  36.046  35.440   0.299
45180W        W13521   6.700  10.801   2.360
45181W        W13522  32.621  17.078   4.236
45182W        W13523   9.720   6.303  12.091
45183W        W13524  26.128   8.180  12.951
45184W        W13525  18.643  23.082   4.169
45185W        W13526  32.068  11.182   3.671
45186W        W13527   9.343   4.773   3.654
45187W        W13528  40.496  17.303  10.971
45188W        W13529  36.007  10.717   0.250
45189W        W13530  35.584  27.129   3.256
45190W        W13531  29.132  27.019   0.315
45191W        W13532  14.810  11.301   4.193
45192W        W13533   7.844  15.280   2.282
45193W        W13534  33.603  14.209  11.414
45194W        W13535  29.174  24.095   4.114
45195W        W13536  23.712  18.747  10.467
45196W        W13537   7.909  24.112   3.699
45197W        W13538   8.322   9.238  13.978
45198W        W13539  32.926  30.006  12.881
45199W        W13540  27.662  34.981   0.360
45200W        W13541  31.445  10.677  12.872
45201W        W13542   0.764  12.304   2.730
45202W        W13543  30.412  36.052   1.730
45203W        W13544  37.571  29.142  11.862
45204W        W13545   2.839  37.087   4.685
45205W        W13546  22.116  27.129  14.944
45206W        W13547  24.618   4.437  10.913
45207W        W13548  23.083  42.523  13.949
45208W        W13549  24.083  21.555  10.446
45209W        W13550  16.652  20.594   2.696
45210W        W13551  36.040  37.901   4.266
45211W        W13552  17.087  38.882  12.948
45212W        W13553   1.437  36.014  13.921
45213W        W13554  33.114  12.772  12.495
45214W        W13555  14.823  36.360   0.378
45215W        W13556  32.393  10.305  13.464
45216W        W13557   0.824  24.714   3.791
45217W        W13558  43.437  16.810  11.113
45218W        W13559  11.310  43.834   1.916
45219W        W13560   6.265   3.293   4.139
45220W        W13561   3.448  30.073   2.843
45221W        W13562  42.286   2.382  10.998
45222W        W13563  40.817  27.548   2.346
45223W        W13564  36.986  27.562  11.049
45224W        W13565  10.701  36.585  11.392
45225W        W13566  14.182  32.531   4.684
45226W        W13567  10.829  34.901  11.563
45227W        W13568   0.267  23.035  10.938
45228W        W13569  35.379   6.298  13.990
45229W        W13570   4.763  32.577  11.111
45230W        W13571   7.356   1.455  14.448
45231W        W13572  33.119  28.105   2.285
45232W        W13573  25.037   8.700  13.416
45233W        W13574   9.332  10.246  12.917
45234W        W13575  36.098  11.142   3.314
45235W        W13576  28.000  31.143   1.755
45236W        W13577  41.449  14.168   1.823
45237W        W13578   8.372   8.709   3.725
45238W        W13579  21.740  34.056   2.251
45239W        W13580   5.826   2.938   0.782
45240W        W13581  17.208  34.592  10.031
45241W        W13582  14.684  30.551  11.097
45242W        W13583  39.008  34.986   3.321
45243W        W13584   6.205  32.447  14.319
45244W        W13585   7.874  37.504  14.819
45245W        W13586   5.429  12.724   1.705
45246W        W13587  38.857  36.583   0.350
45247W        W13588  38.414  10.340   2.396
45248W        W13589  27.184  42.420   0.922
45249W        W13590  16.303  44.274  10.431
45250W        W13591  38.430  38.430   4.805
45251W        W13592  40.052  15.585  10.579
45252W        W13593  18.716  34.472  10.060
45253W        W13594  34.966  16.635  10.623
45254W        W13595  13.666  42.287   2.295
45255W        W13596  41.292  27.073   1.318
45256W        W13597  13.727  35.496  11.512
45257W        W13598  22.513  34.953   4.771
45258W        W13599   6.246  25.583   1.418
45259W        W13600   1.285   3.925  12.500
45260W        W13601   3.400  20.689  10.005
45261W        W13602  36.432  17.256  13.842
45262W        W13603  24.041   6.394   3.708
45263W        W13604  17.568  37.890   0.409
45264W        W13605  33.601  37.361  10.934
45265W        W13606   5.826  42.934   3.357
45266W        W13607  16.735  13.193  12.562
45267W        W13608  11.277  44.438   2.403
45268W        W13609  21.758  44.502  12.465
45269W        W13610   3.228  19.143   0.938
45270W        W13611  32.441  28.987  14.904
45271W        W13612  13.259  34.426   4.262
45272W        W13613  44.911  13.650   1.210
45273W        W13614  25.209   8.397  10.475
45274W        W13615   4.708  40.348   2.762
45275W        W13616  32.542  38.363   3.757
45276W        W13617  36.969  29.943   0.443
45277W        W13618   4.818  13.741  14.780
45278W        W13619  37.448  18.236  14.465
45279W        W13620  20.684  29.604   1.232
45280W        W13621  25.988   9.213  13.454
45281W        W13622  29.127  30.471  13.832
45282W        W13623  34.895  16.238  12.955
45283W        W13624  11.337  31.958  13.005
45284W        W13625  43.378  17.305   0.929
45285W        W13626   0.343   0.494   2.248
45286W        W13627  14.199  42.939  11.575
45287W        W13628   7.853  30.509   1.419
45288W        W13629   6.768  27.533  14.887
45289W        W13630  40.807   9.763  14.421
45290W        W13631  33.588  39.374   3.316
45291W        W13632  13.292  38.894  13.812
45292W        W13633  37.337  21.081   1.447
45293W        W13634  38.378   3.746  13.459
45294W        W13635  37.936  41.426   5.291
45295W        W13636  13.173  28.955   4.660
45296W        W13637  30.484  27.607  12.503
45297W        W13638  18.552   3.861   3.676
45298W        W13639  35.946  27.074  10.574
45299W        W13640   8.733  41.868   1.213
45300W        W13641  12.750  20.572   0.945
45301W        W13642  35.082  25.978   2.321
45302W        W13643  12.152  25.161  13.925
45303W        W13644  39.839  11.320   3.262
45304W        W13645   2.446  12.721   4.116
45305W        W13646  38.891  29.658  10.993
45306W        W13647  27.529  25.144   4.636
45307W        W13648  24.044  39.376   3.385
45308W        W13649  41.501  39.457  13.869
45309W        W13650  40.933  20.573   3.816
45310W        W13651  18.294  10.336  12.919
45311W        W13652  34.560   4.891   1.346
45312W        W13653  20.039  25.629  12.558
45313W        W13654  33.483   9.769   4.722
45314W        W13655  30.916  17.061   1.304
45315W        W13656  29.088  30.611   4.304
45316W        W13657   2.236  35.977  12.509
45317W        W13658  28.084   9.276  11.596
45318W        W13659  21.172  22.063  11.096
45319W        W13660  11.313  25.633   0.333
45320W        W13661  21.675  14.760  13.931
45321W        W13662   2.379   2.322  13.829
45322W        W13663  29.159  39.425   1.402
45323W        W13664  10.329  14.670  11.999
45324W        W13665  14.292  35.904  12.538
45325W        W13666  30.541  11.272  11.447
45326W        W13667   8.675  24.538   3.363
45327W        W13668   0.927  11.692   5.103
45328W        W13669  17.758  38.464  14.401
45329W        W13670  23.092  14.797   0.967
45330W        W13671  12.359  40.042   0.317
45331W        W13672  26.010  17.595  10.106
45332W        W13673  32.479  19.223   2.773
45333W        W13674  33.476  21.566   2.700
45334W        W13675  32.983   1.406  12.579
45335W        W13676  25.608   0.840   1.212
45336W        W13677  21.242   1.306  12.840
45337W        W13678  44.962  42.956   0.840
45338W        W13679  25.526  39.527   4.689
45339W        W13680   8.809  43.971  12.961
45340W        W13681  11.737   8.294  11.504
45341W        W13682  24.104  21.549   2.373
45342W        W13683   7.807  40.463   0.305
45343W        W13684  38.878  35.932   2.841
45344W        W13685  25.615  32.414  14.350
45345W        W13686  22.623  11.643  10.638
45346W        W13687  25.091  19.674  13.812
45347W        W13688   8.821  19.581   3.843
45348W        W13689   8.187  20.144  13.033
45349W        W13690  32.471  44.884  11.446
45350W        W13691  42.796  24.638  14.299
45351W        W13692  27.155  11.301  11.981
45352W        W13693  23.990  26.994  10.896
45353W        W13694   2.407  38.418  12.916
45354W        W13695  30.023  19.763   1.305
45355W        W13696   9.363  14.229   0.448
45356W        W13697  32.555  30.464   0.757
45357W        W13698   4.740   1.370   4.264
45358W        W13699  26.962  38.969   3.335
45359W        W13700  11.632  11.661  14.492
45360W        W13701   3.953  16.797   1.314
45361W        W13702  18.705   4.409   3.760
45362W        W13703   2.929  21.105   2.358
45363W        W13704   9.164  32.534  13.791
45364W        W13705  37.918  31.005   1.312
45365W        W13706  25.151  19.097   2.841
45366W        W13707  11.289  36.928  11.115
45367W        W13708  37.999  26.654   9.997
45368W        W13709  33.509  19.097  12.064
45369W        W13710  20.628  18.723  10.411
45370W        W13711   0.479  34.415  11.375
45371W        W13712  15.806  26.681   5.281
45372W        W13713  38.420  42.025   3.384
45373W        W13714   9.866  17.081  13.388
45374W        W13715  20.700  31.937  13.843
45375W        W13716  16.244  16.257  13.892
45376W        W13717   0.856  29.468   2.684
45377W        W13718  35.015  17.734   1.710
45378W        W13719  38.361  23.509   0.298
45379W        W13720  12.273  27.471  13.934
45380W        W13721  43.432  29.055  13.320
45381W        W13722   5.239  21.607  14.800
45382W        W13723  37.546  39.844  14.512
45383W        W13724  41.876  19.571   0.474
45384W        W13725  44.895   8.776   1.224
45385W        W13726  30.156  29.989   3.709
45386W        W13727  30.438  28.507   0.297
45387W        W13728   9.281  17.649   0.887
45388W        W13729   3.365  28.146  14.294
45389W        W13730  12.335  15.689   3.284
45390W        W13731   2.868  34.109   4.664
45391W        W13732  14.265  25.528   1.354
45392W        W13733   6.420  11.229   0.419
45393W        W13734  18.151   9.774   3.662
45394W        W13735  19.164  14.766  10.889
45395W        W13736   1.255   2.227   2.767
45396W        W13737   8.737   6.204   4.717
45397W        W13738  32.120  42.280  13.887
45398W        W13739  10.260   5.775   1.420
45399W        W13740  31.539  37.051   0.345
45400W        W13741  29.430   7.373   1.275
45401W        W13742   4.316  30.436   1.762
45402W        W13743   6.789  20.585  14.499
45403W        W13744  32.992  30.071  11.584
45404W        W13745  13.107  37.506  13.872
45405W        W13746  38.854   7.250  14.323
45406W        W13747  25.195  30.931   0.738
45407W        W13748  17.300  33.428   1.696
45408W        W13749  18.103  12.240  12.460
45409W        W13750   3.842  20.533   2.234
45410W        W13751  12.320  13.818   1.875
45411W        W13752   9.269  36.936   4.338
45412W        W13753   8.722   3.262   0.871
45413W        W13754   3.382  39.967  11.507
45414W        W13755  13.740  35.475   3.641
45415W        W13756  19.053  41.474  14.445
45416W        W13757   7.207   4.372  12.418
45417W        W13758   9.248   2.813  13.318
45418W        W13759  17.682   9.279  12.426
45419W        W13760  29.465  33.416   1.397
45420W        W13761  17.236  16.108   0.944
45421W        W13762  17.230   5.219  14.977
45422W        W13763  34.866  30.006  10.606
45423W        W13764  34.530  36.059  13.540
45424W        W13765  32.987  43.505  14.814
45425W        W13766   1.827   9.306   2.886
45426W        W13767  19.256  39.527   3.234
45427W        W13768  18.547  44.272  10.004
45428W        W13769  44.898  16.117  13.007
45429W        W13770  37.522  32.554   0.270
45430W        W13771  44.950   1.767  10.592
45431W        W13772   6.396  17.232   2.891
45432W        W13773  39.475  16.697  11.018
45433W        W13774   3.767  39.325  12.970
45434W        W13775  25.175  25.216   2.668
45435W        W13776  26.052   5.807  14.405
45436W        W13777   4.400  15.125   2.245
45437W        W13778  44.934  44.004  13.987
45438W        W13779  26.579  39.911   2.842
45439W        W13780  39.457  17.555   1.369
45440W        W13781  34.988  27.053   4.687
45441W        W13782   7.378  39.989  14.325
45442W        W13783  38.846  10.284   3.184
45443W        W13784  13.667  19.210   0.271
45444W        W13785  17.121  32.451  11.071
45445W        W13786  32.429  19.192   4.195
45446W        W13787  44.463  25.539  14.906
45447W        W13788  38.487   8.662  11.920
45448W        W13789  33.968  20.073  13.931
45449W        W13790  16.605  13.601  11.943
45450W        W13791  21.124  40.823   3.734
45451W        W13792  17.127  43.500   0.781
45452W        W13793  37.917  31.566   0.339
45453W        W13794   3.417  40.410   3.276
45454W        W13795  39.559  24.489   0.424
45455W        W13796  34.596  44.411  14.403
45456W        W13797  25.519  23.122  13.548
45457W        W13798  14.817  11.670  11.585
45458W        W13799   6.884  21.620   2.376
45459W        W13800   7.803  20.666  14.419
45460W        W13801  17.655   9.814  14.462
45461W        W13802   2.895  10.195  13.965
45462W        W13803   4.910   4.757  11.436
45463W        W13804  37.970  30.477  13.504
45464W        W13805  27.151  43.797  12.924
45465W        W13806  10.212   5.907   1.822
45466W        W13807  10.339  40.350   1.358
45467W        W13808  21.162  36.958  11.521
45468W        W13809  42.860   6.231  13.062
45469W        W13810  26.101  17.751   1.312
45470W        W13811  27.631  30.005  14.337
45471W        W13812   4.255   0.876  14.287
45472W        W13813   5.694  40.926   3.868
45473W        W13814   2.856   7.232   4.308
45474W        W13815  30.003  29.026   4.769
45475W        W13816   7.740  28.990  14.783
45476W        W13817  34.959  38.863   3.741
45477W        W13818  44.909  28.057  10.130
45478W        W13819  16.091  29.500   1.795
45479W        W13820  13.663   4.251   3.255
45480W        W13821   8.726  23.731  10.933
45481W        W13822  41.871  32.010   4.636
45482W        W13823   5.767  43.330   2.801
45483W        W13824  38.892  19.133   0.738
45484W        W13825  38.826  38.373  10.576
45485W        W13826  12.619  42.968   2.782
45486W        W13827  36.423  32.945   3.744
45487W        W13828  33.002  31.002   4.123
45488W        W13829  14.606  38.880  13.506
45489W        W13830  24.517  22.174   1.211
45490W        W13831  44.755  18.102  11.093
45491W        W13832  33.927   2.239   2.291
45492W        W13833  40.895  31.560  12.377
45493W        W13834  21.581  35.955  14.789
45494W        W13835  19.252  29.615  12.525
45495W        W13836  44.363  43.432   1.790
45496W        W13837   2.838   5.914  14.877
45497W        W13838  17.758  40.439   2.743
45498W        W13839  19.252  23.111  12.824
45499W        W13840  27.186  38.032   4.310
45500W        W13841  22.735  17.720   0.905
45501W        W13842  16.198  41.391   5.115
45502W        W13843  43.990  10.298   3.838
45503W        W13844  11.358  28.437   0.259
45504W        W13845  27.634  35.914  12.955
45505W        W13846  18.186  33.938   1.215
45506W        W13847   0.917  28.526   0.964
45507W        W13848   6.746  26.161   0.334
45508W        W13849  27.446  34.517  11.091
45509W        W13850  38.466   3.405  12.058
45510W        W13851   1.350   0.927   3.864
45511W        W13852  31.524  26.477   2.180
45512W        W13853  22.087  34.098   0.394
45513W        W13854  28.566  38.550   1.325
45514W        W13855   6.233  34.446   0.889
45515W        W13856  39.921  23.538   1.728
45516W        W13857  25.574  25.543  14.010
45517W        W13858  30.506  25.662  14.862
45518W        W13859  16.233  44.331   3.154
45519W        W13860  36.379  15.743   2.414
45520W        W13861  43.350  31.544   4.313
45521W        W13862  36.081  40.349  12.571
45522W        W13863  27.625  37.364   3.380
45523W        W13864  12.688  44.486   0.733
45524W        W13865  24.164  27.083  14.445
45525W        W13866   2.305  30.981  13.951
45526W        W13867   7.837   9.876   0.861
45527W        W13868  33.037  10.172   0.766
45528W        W13869  34.594  33.431  13.528
45529W        W13870  28.572  20.196   1.337
45530W        W13871   8.311  24.047  11.887
45531W        W13872  37.477  16.595   1.298
45532W        W13873  32.563   0.903   4.284
45533W        W13874  31.090   8.764  10.084
45534W        W13875  20.746  19.158  12.015
45535W        W13876  13.686   4.942  12.467
45536W        W13877  40.895   9.330  14.483
45537W        W13878  22.017  33.481   4.722
45538W        W13879   3.301  41.445  11.517
45539W        W13880   9.186  26.563  11.434
45540W        W13881  12.193  23.041  10.644
45541W        W13882  21.540  27.153  12.988
45542W        W13883   4.827  15.821  12.826
45543W        W13884  12.186  44.284  14.472
45544W        W13885  44.958  13.761   2.300
45545W        W13886  26.006  21.670  14.451
45546W        W13887  41.808  38.958  13.481
45547W        W13888  22.090  19.564  11.510
45548W        W13889  20.161  25.074  10.578
45549W        W13890  14.831  15.228   1.425
45550W        W13891  43.432  34.936  11.017
45551W        W13892  23.023  19.611   4.620
45552W        W13893  38.561  32.031  14.296
45553W        W13894  35.075  15.240  12.087
45554W        W13895   8.227   1.816  12.508
45555W        W13896   7.750  41.331   1.306
45556W        W13897  28.085  13.794  14.982
45557W        W13898  27.455  38.031  14.944
45558W        W13899  41.960  25.977  11.881
45559W        W13900   1.782  17.146  10.160
45560W        W13901  21.624  16.626  11.926
45561W        W13902   4.285  43.403  12.072
45562W        W13903  20.063  37.359   2.287
45563W        W13904  22.534   0.835   3.351
45564W        W13905   6.336  36.401  12.839
45565W        W13906   9.317  30.478   9.933
45566W        W13907  35.010  44.433  10.526
45567W        W13908  19.073  29.535  10.426
45568W        W13909  36.037  27.980   4.199
45569W        W13910  15.110  39.039  11.476
45570W        W13911  32.456   3.878   3.814
45571W        W13912  26.463  36.849   1.725
45572W        W13913  36.997   0.776  12.889
45573W        W13914  44.430   2.362   5.222
45574W        W13915  24.162  15.097  15.000
45575W        W13916  25.604   8.188  10.497
45576W        W13917   8.389  25.575  13.016
45577W        W13918   4.367   1.272   3.703
45578W        W13919  14.746  26.993  12.025
45579W        W13920   6.696  21.175  12.985
45580W        W13921  32.094  29.147   4.675
45581W        W13922  25.698   9.771  10.416
45582W        W13923   7.172  20.700  13.910
45583W        W13924  38.435  13.271   2.218
45584W        W13925  11.831   4.769  14.970
45585W        W13926  38.555  37.564   2.669
45586W        W13927  31.980  41.908   5.083
45587W        W13928  22.092   2.396   2.271
45588W        W13929  38.429  36.014   4.347
45589W        W13930  29.964  22.251   3.775
45590W        W13931  44.464  33.982  10.439
45591W        W13932  43.941  21.216   1.872
45592W        W13933  27.609  33.615   4.218
45593W        W13934  37.572  11.208  11.098
45594W        W13935  34.043  37.894  11.382
45595W        W13936  32.025   0.747   4.831
45596W        W13937  29.128  13.615  13.452
45597W        W13938  30.984   1.864   2.664
45598W        W13939  13.202  10.340  13.823
45599W        W13940  32.553  31.005   2.784
45600W        W13941  20.160  15.129  13.465
45601W        W13942  24.509   8.192  11.122
45602W        W13943   9.786  21.638  14.949
45603W        W13944  33.889   0.923   4.271
45604W        W13945  29.150  29.061  12.898
45605W        W13946   6.263  17.698  14.963
45606W        W13947  39.042  26.125  12.368
45607W        W13948  10.843  43.902  14.880
45608W        W13949  43.890   2.240  12.567
45609W        W13950  42.879  33.394  12.417
45610W        W13951   8.256  29.500  14.002
45611W        W13952   1.942   9.771  13.036
45612W        W13953  40.509  42.987  10.526
45613W        W13954  43.831  33.422   2.282
45614W        W13955  25.657  37.087   4.269
45615W        W13956  19.640  34.106  14.933
45616W        W13957  31.000  35.583  13.485
45617W        W13958  42.490  12.738  10.446
45618W        W13959  20.139  17.201   0.411
45619W        W13960  19.220   2.378  12.078
45620W        W13961  16.175  20.060  11.960
45621W        W13962  34.996  21.604  12.965
45622W        W13963   1.266  42.913  12.879
45623W        W13964   9.744  39.028  14.877
45624W        W13965  15.759  11.168  13.932
45625W        W13966  11.829  44.801   2.848
45626W        W13967   9.810  17.115   1.773
45627W        W13968   6.332   5.332   4.691
45628W        W13969  34.041  19.648   0.758
45629W        W13970   3.728  12.356  11.606
45630W        W13971   1.815  23.192  14.781
45631W        W13972  26.105  15.201   0.359
45632W        W13973   2.288  38.925  10.516
45633W        W13974  38.494  34.495  11.029
45634W        W13975   8.341  29.596  13.512
45635W        W13976  28.062   6.742  14.308
45636W        W13977  30.055  41.359   1.215
45637W        W13978  33.963  37.434  13.451
45638W        W13979  43.910  29.043  13.512
45639W        W13980  29.455  21.716  13.906
45640W        W13981  16.713  34.510  12.391
45641W        W13982  21.245  25.098   5.254
45642W        W13983  42.341  39.050  10.577
45643W        W13984  43.005  42.807  10.637
45644W        W13985  29.482  12.620  12.361
45645W        W13986  18.115   8.690   0.461
45646W        W13987  17.561  11.652   0.269
45647W        W13988  41.299  19.642  14.385
45648W        W13989  23.736  25.702   4.757
45649W        W13990  42.445   2.440   2.181
45650W        W13991  30.629  31.995  14.838
45651W        W13992   4.408  26.998  12.938
45652W        W13993   0.945  13.122  14.798
45653W        W13994  36.479   1.868   3.831
45654W        W13995   8.815  44.400  12.358
45655W        W13996  16.121  15.216   3.726
45656W        W13997  43.379  11.709   4.752
45657W        W13998  25.483  20.759   1.696
45658W        W13999  18.696   1.947  13.997
45659W        W14000  11.786  18.158  13.447
45660W        W14001  36.018  10.725  11.446
45661W        W14002  44.310  13.682   0.256
45662W        W14003   1.942  18.076  13.869
45663W        W14004  29.450  30.448   1.363
45664W        W14005  44.885  30.607   5.240
45665W        W14006  28.011  20.678  12.895
45666W        W14007  43.422  42.292  14.392
45667W        W14008   2.397   3.381  12.467
45668W        W14009   3.274  17.175   3.296
45669W        W14010   2.431   6.220  10.626
45670W        W14011  22.604   3.378   0.482
45671W        W14012  28.658   7.862  12.045
45672W        W14013   6.186  16.772  11.106
45673W        W14014  35.511  32.085  10.506
45674W        W14015  21.707  29.022  14.793
45675W        W14016   0.946  15.255   3.185
45676W        W14017  13.808   9.383   0.846
45677W        W14018   5.842  32.576  11.902
45678W        W14019  29.439  36.454  12.973
45679W        W14020   7.850   9.382   3.164
45680W        W14021   5.752   0.872  11.389
45681W        W14022  34.107   6.827  10.953
45682W        W14023  28.101  30.082   3.147
45683W        W14024  41.531  14.243   3.683
45684W        W14025  15.085  15.738  11.601
45685W        W14026  21.725   6.758  10.468
45686W        W14027  42.929  35.546   4.687
45687W        W14028  19.063  25.971   0.279
45688W        W14029   1.860  28.167  11.390
45689W        W14030  34.544   0.287   1.313
45690W        W14031  13.630  27.611   0.797
45691W        W14032  24.065   9.683  14.888
45692W        W14033  24.012  19.249   2.264
45693W        W14034  17.165   2.883  11.554
45694W        W14035  15.578   6.395   2.205
45695W        W14036  30.164  15.659  13.939
45696W        W14037  27.083  33.001   0.244
45697W        W14038  35.931  12.613   2.723
45698W        W14039  31.081  39.941   9.993
45699W        W14040  35.946  42.018  14.351
45700W        W14041   4.369  27.690   3.245
45701W        W14042  36.851  33.623   4.692
45702W        W14043   3.907  26.086   4.328
45703W        W14044  44.371  40.485  13.987
45704W        W14045   5.718  11.336  14.858
45705W        W14046  38.912  30.534   0.928
45706W        W14047  37.427  44.930   4.239
45707W        W14048   8.712   7.367  11.602
45708W        W14049  32.036  24.556   0.246
45709W        W14050  35.420   8.362   0.878
45710W        W14051  23.564  28.593   5.296
45711W        W14052  30.961  23.661  11.403
45712W        W14053  32.033  41.995   0.378
45713W        W14054  17.143  12.247  13.893
45714W        W14055  20.567  38.833   0.836
45715W        W14056  30.591   8.716   3.177
45716W        W14057  25.194   2.878   4.663
45717W        W14058  40.500  24.211   0.932
45718W        W14059  25.976  42.885  13.933
45719W        W14060  14.095  20.082   1.240
45720W        W14061   8.327  21.679  13.061
45721W        W14062   3.362  11.272   0.924
45722W        W14063   6.374  43.485   3.689
45723W        W14064  41.987   2.406  14.792
45724W        W14065  24.552   3.402   2.671
45725W        W14066   4.700   0.939   0.777
45726W        W14067   9.327  25.967  10.524
45727W        W14068   4.302  16.650   0.731
45728W        W14069  17.142  15.701  10.585
45729W        W14070  11.170  32.032  10.426
45730W        W14071   2.824  16.198  13.496
45731W        W14072  15.280  16.228   3.275
45732W        W14073  24.701   6.426  13.824
45733W        W14074   8.735  26.086   3.651
45734W        W14075  18.175  21.090   3.375
45735W        W14076  16.137  28.587  11.917
45736W        W14077  34.372  14.794  14.024
45737W        W14078  26.187  42.025  13.827
45738W        W14079  15.178  37.435  11.525
45739W        W14080   5.322  15.822   4.607
45740W        W14081  24.485   4.241  14.286
45741W        W14082  36.061  42.472  11.414
45742W        W14083  11.849  27.671   2.803
45743W        W14084  39.005  43.418   9.456
45744W        W14085   8.826  44.759   0.361
45745W        W14086  17.084  24.547   1.882
45746W        W14087   7.779  35.882   1.696
45747W        W14088  41.471  18.058  11.926
45748W        W14089  28.481  37.352   3.716
45749W        W14090  13.157  41.008  12.389
45750W        W14091  44.902  41.006  14.881
45751W        W14092   9.866  27.526  14.468
45752W        W14093  39.919  20.731   3.775
45753W        W14094  40.956  35.466  14.874
45754W        W14095   5.234  42.823   1.882
45755W        W14096   4.225   3.818  11.042
45756W        W14097  14.194  32.529   3.228
45757W        W14098   4.427  35.444  12.479
45758W        W14099  27.100   0.784  13.852
45759W        W14100  31.442   5.761   2.846
45760W        W14101  40.437  36.583   2.876
45761W        W14102  18.128  22.659  13.452
45762W        W14103  39.369  36.088   0.771
45763W        W14104  18.788   8.753  11.478
45764W        W14105   0.400   2.389  14.298
45765W        W14106  34.491  35.058  13.008
45766W        W14107  27.175  14.095  14.008
45767W        W14108  22.063  38.382  12.566
45768W        W14109  39.532   6.208   2.801
45769W        W14110  34.901  35.866  12.823
45770W        W14111  39.459  20.241  13.338
45771W        W14112   5.706  34.904  13.533
45772W        W14113  41.805  35.987  13.819
45773W        W14114  28.015  26.158   3.852
45774W        W14115  29.650  25.201   1.700
45775W        W14116  29.614  13.634  12.399
45776W        W14117  33.036  28.012   1.351
45777W        W14118  27.055  10.184  13.928
45778W        W14119  34.524   2.451   0.395
45779W        W14120  13.796   2.925  14.318
45780W        W14121  32.093  30.451  12.036
45781W        W14122   3.364  10.799   3.667
45782W        W14123  16.246  33.926  12.475
45783W        W14124   5.782  37.417   5.243
45784W        W14125   7.830  42.826   5.126
45785W        W14126  37.077  25.676  14.822
45786W        W14127  16.314  35.075  12.893
45787W        W14128  35.417  21.117   0.931
45788W        W14129  29.431  21.239  13.344
45789W        W14130   1.437  32.635  14.943
45790W        W14131   6.827  33.438   4.605
45791W        W14132  36.004  43.864  10.594
45792W        W14133  14.333  24.126  10.959
45793W        W14134  40.365  23.211  11.869
45794W        W14135  17.184  15.622   0.778
45795W        W14136   4.289  31.970  12.485
45796W        W14137  28.543  21.070  13.891
45797W        W14138  12.192   3.315  10.582
45798W        W14139  19.609   1.903  14.451
45799W        W14140  44.299  28.081   0.771
45800W        W14141   3.951  21.752  11.005
45801W        W14142   4.913   2.457   3.798
45802W        W14143  24.711  17.778  11.504
45803W        W14144   6.879   0.791  13.385
45804W        W14145  36.513  24.614  12.529
45805W        W14146  22.996   7.213   4.137
45806W        W14147  41.449  10.186   1.907
45807W        W14148  26.999  40.377  10.461
45808W        W14149   5.815   5.197  13.828
45809W        W14150  15.163  23.554   5.107
45810W        W14151  29.069  40.493  14.493
45811W        W14152   8.669  11.638  13.338
45812W        W14153  18.630  36.928   2.732
45813W        W14154  42.379  18.726  14.323
45814W        W14155  28.172  36.384  14.353
45815W        W14156  27.503  27.058  13.919
45816W        W14157   5.874  43.349   4.322
45817W        W14158  12.734  44.769   0.261
45818W        W14159  23.560   9.794   3.381
45819W        W14160  21.197  22.162   2.248
45820W        W14161  17.708  41.940   1.232
45821W        W14162  11.861  12.792   9.955
45822W        W14163  25.981   1.935   0.327
45823W        W14164  12.773   5.717  12.428
45824W        W14165  39.846  14.783   2.212
45825W        W14166  19.071   7.205   1.717
45826W        W14167  12.312  29.061  13.921
45827W        W14168  31.546   1.837   4.665
45828W        W14169  29.100   8.261  10.449
45829W        W14170   1.940  23.626   3.209
45830W        W14171  22.732  24.617  13.039
45831W        W14172   5.809  17.283  14.940
45832W        W14173   3.951   3.239   2.294
45833W        W14174   4.738   1.464   3.720
45834W        W14175  29.578   5.436  14.505
45835W        W14176  40.367  32.117   2.397
45836W        W14177  33.878   1.301  10.429
45837W        W14178   5.237  39.877  13.934
45838W        W14179  35.424  42.952  14.274
45839W        W14180  23.146  32.517  10.890
45840W        W14181   3.854  26.088   2.384
45841W        W14182  24.694   1.430  11.575
45842W        W14183  26.193   6.390   0.267
45843W        W14184   4.338  42.894  14.876
45844W        W14185  29.464  23.113  11.514
45845W        W14186  27.020   1.790   0.263
45846W        W14187  24.083  30.564  14.880
45847W        W14188   3.729  24.982   5.114
45848W        W14189  21.105   7.704   4.647
45849W        W14190   9.364  34.487  12.957
45850W        W14191   9.686  43.486  12.911
45851W        W14192  22.245  39.357   0.746
45852W        W14193   6.728  33.551  14.895
45853W        W14194  34.938  15.126  13.437
45854W        W14195  35.021  29.477  14.494
45855W        W14196  14.600  25.178  13.526
45856W        W14197  16.124  26.051   1.902
45857W        W14198  43.447  42.893  12.074
45858W        W14199  20.150  26.150   4.792
45859W        W14200  13.637  26.098   1.929
45860W        W14201   0.294   7.808   3.245
45861W        W14202  19.135  35.462  11.895
45862W        W14203  38.985  31.911   3.855
45863W        W14204  40.427  40.410   3.834
45864W        W14205   1.419  15.276  13.972
45865W        W14206  35.094  36.054  12.078
45866W        W14207   5.732  25.122  11.441
45867W        W14208  38.362  19.690  13.893
45868W        W14209  40.457   7.289  13.427
45869W        W14210  19.535  20.525   1.904
45870W        W14211  26.478  26.464   1.436
45871W        W14212  24.532  37.416   2.242
45872W        W14213  38.033  34.992   2.893
45873W        W14214  38.834  11.143   3.168
45874W        W14215  41.472  42.908  10.545
45875W        W14216   1.848  34.474  12.004
45876W        W14217  35.907  34.445   2.186
45877W        W14218  29.599  44.923   1.695
45878W        W14219  19.578  35.051  10.626
45879W        W14220  17.126   6.248   0.327
45880W        W14221  10.285   5.322   0.479
45881W        W14222   9.824  17.574   3.792
45882W        W14223  44.878   7.733   0.323
45883W        W14224   4.305   9.767   2.857
45884W        W14225  34.373   6.316  12.056
45885W        W14226  21.612  37.477  14.864
45886W        W14227  14.758  20.695   1.265
45887W        W14228  12.349  16.234  13.006
45888W        W14229  40.980  37.990  14.910
45889W        W14230  29.610  21.251   3.860
45890W        W14231  35.373  11.712  12.402
45891W        W14232   3.860   8.373  13.885
45892W        W14233  21.193   4.844   1.270
45893W        W14234  25.034  31.939  12.087
45894W        W14235   5.298  19.068   3.284
45895W        W14236  38.446  18.746  13.325
45896W        W14237   8.388  18.703  12.854
45897W        W14238  44.785  21.032   5.567
45898W        W14239  26.141  22.530   4.329
45899W        W14240  11.257   9.374  13.021
45900W        W14241  29.519  26.698   2.770
45901W        W14242  27.020  14.772   4.746
45902W        W14243   4.285  41.017  13.340
45903W        W14244  25.980  41.832   1.313
45904W        W14245  25.490   3.917   0.375
45905W        W14246   8.186  29.950  12.458
45906W        W14247  11.850  18.569   3.683
45907W        W14248  37.862  28.567   3.734
45908W        W14249  43.864  14.786   1.344
45909W        W14250   4.808   8.184  14.840
45910W        W14251  19.676  26.045  14.914
45911W        W14252  31.952  43.331   1.380
45912W        W14253  42.997  30.114  13.441
45913W        W14254  12.709  38.844  12.426
45914W        W14255   9.646  15.687  12.912
45915W        W14256  11.347  44.424  12.000
45916W        W14257   5.930  41.016  11.905
45917W        W14258  27.551   2.392   3.178
45918W        W14259  28.477   0.335  10.454
45919W        W14260   9.391  22.007  14.514
45920W        W14261   5.292  34.099   3.241
45921W        W14262  36.405   8.318   1.736
45922W        W14263   7.312   8.271   1.286
45923W        W14264   2.404   5.334   3.224
45924W        W14265  34.388  35.927   3.734
45925W        W14266  19.073  14.250  12.348
45926W        W14267   1.948  22.063   0.966
45927W        W14268  42.003  25.558  14.879
45928W        W14269  10.832   9.374   1.400
45929W        W14270   7.191  39.808   2.281
45930W        W14271  42.318  15.314   2.230
45931W        W14272  12.158  24.006   4.266
45932W        W14273  25.093  42.963  10.623
45933W        W14274   1.247   9.786  10.615
45934W        W14275  29.960   0.846   3.833
45935W        W14276   9.226   7.886  11.558
45936W        W14277  35.399  14.815   4.188
45937W        W14278  41.894   1.475   4.272
45938W        W14279   1.882  44.934   0.254
45939W        W14280   0.475  30.495  14.369
45940W        W14281  25.547  25.028  10.121
45941W        W14282  36.568  14.644   0.882
45942W        W14283  42.300   8.326   1.243
45943W        W14284   6.231  41.351  13.418
45944W        W14285  14.182  25.515  11.924
45945W        W14286   1.872  28.948  12.504
45946W        W14287  25.476  13.643   3.798
45947W        W14288  16.781   8.256   0.837
45948W        W14289  36.452  22.696  14.858
45949W        W14290   8.855  25.962  11.907
45950W        W14291  24.143  38.935   3.150
45951W        W14292  40.874  25.580  14.432
45952W        W14293  30.540  44.481   2.236
45953W        W14294  39.378   6.313  10.596
45954W        W14295   2.932  33.942  14.024
45955W        W14296  30.158  21.195  14.765
45956W        W14297  39.955  21.227   0.787
45957W        W14298   9.366   5.321  13.527
45958W        W14299  44.805  43.920  13.027
45959W        W14300   3.767  12.129  10.569
45960W        W14301  43.354  22.211   2.903
45961W        W14302   6.682  32.456   3.829
45962W        W14303  21.756  41.375   0.243
45963W        W14304  30.123  40.851  13.015
45964W        W14305  12.301  13.603   4.711
45965W        W14306  41.025   3.852   2.382
45966W        W14307  28.588  34.097  11.451
45967W        W14308   7.392  34.102   2.258
45968W        W14309   2.401  31.962  13.484
45969W        W14310  41.406  16.613  13.816
45970W        W14311   8.679  39.053   2.347
45971W        W14312  29.136  29.668   1.914
45972W        W14313  14.604  12.122  13.446
45973W        W14314  42.808  12.339  10.953
45974W        W14315   5.392  24.149   2.751
45975W        W14316  21.627  32.058   3.708
45976W        W14317   4.240  37.554   2.697
45977W        W14318  44.355  35.478   0.450
45978W        W14319  44.774  41.871   2.827
45979W        W14320   9.197  37.997  13.465
45980W        W14321  30.094  35.570   2.721
45981W        W14322  15.253  11.722  14.000
45982W        W14323   9.822  34.058  14.282
45983W        W14324   3.416  15.288   4.640
45984W        W14325   4.321   4.896   2.220
45985W        W14326  11.666  24.142   4.181
45986W        W14327  24.655  13.126   2.850
45987W        W14328  35.995  41.928  14.027
45988W        W14329  33.431  38.000   2.705
45989W        W14330  29.961   3.893   1.325
45990W        W14331  39.390   8.161   1.223
45991W        W14332   7.867  19.610  13.871
45992W        W14333  17.303  36.350  10.918
45993W        W14334  14.621   6.849   2.786
45994W        W14335  38.564  12.793  12.061
45995W        W14336   8.261  20.232   0.266
45996W        W14337  38.038  29.929  14.900
45997W        W14338  27.168   7.840   2.284
45998W        W14339  17.145   0.960   0.899
45999W        W14340  35.965  12.638   2.270
46000W        W14341  28.468  41.323   0.965
46001W        W14342  34.376  29.009  11.084
46002W        W14343  28.034  22.999  13.512
46003W        W14344  14.694  30.039   4.611
46004W        W14345  34.458   5.266   1.794
46005W        W14346  29.044  39.983  14.929
46006W        W14347  44.781  31.484   0.324
46007W        W14348   5.201  27.471   0.949
46008W        W14349  33.418  34.376  10.086
46009W        W14350  13.182  17.766   4.198
46010W        W14351  16.662  31.516   1.354
46011W        W14352  11.817  14.761  11.089
46012W        W14353  43.339  13.127  12.991
46013W        W14354   9.161  35.423   4.143
46014W        W14355  28.667  20.616   2.724
46015W        W14356  13.174  31.115  11.041
46016W        W14357   8.378  22.684   0.443
46017W        W14358  23.498  34.061  11.432
46018W        W14359  21.519  19.244   3.387
46019W        W14360  32.600  20.672   2.201
46020W        W14361   3.747   9.729   2.763
46021W        W14362  43.881  28.956   3.837
46022W        W14363  23.051  33.050   3.800
46023W        W14364  33.050  15.816   3.868
46024W        W14365   0.818  30.548   2.231
46025W        W14366   5.803  37.351   1.780
46026W        W14367  25.521  22.106   2.241
46027W        W14368  31.047  10.194  14.394
46028W        W14369  27.589   0.469  12.853
46029W        W14370  34.891   9.238  12.029
46030W        W14371  11.278  28.043  14.491
46031W        W14372  38.535  15.280  13.042
46032W        W14373  41.322   9.257   3.856
46033W        W14374  26.167  25.637   0.919
46034W        W14375  44.005  18.710  13.374
46035W        W14376  10.283   3.849   2.185
46036W        W14377   1.295  19.208   1.426
46037W        W14378  31.029  25.653   1.717
46038W        W14379  41.919  17.285  13.480
46039W        W14380  21.680  42.966  10.596
46040W        W14381  18.709  17.078   3.270
46041W        W14382  20.529   6.725  11.880
46042W        W14383   6.359  10.328   3.163
46043W        W14384  21.139  28.000  14.807
46044W        W14385  38.832  29.986  10.638
46045W        W14386  35.017   1.842  11.937
46046W        W14387  14.310   8.729  10.531
46047W        W14388  27.174  42.836   5.182
46048W        W14389  28.464   5.760  14.944
46049W        W14390  16.764  21.724  10.477
46050W        W14391  33.985  29.633  12.834
46051W        W14392   7.387   1.917   0.476
46052W        W14393   1.840  42.889   3.718
46053W        W14394   1.275  33.053  13.808
46054W        W14395   4.418  11.181   3.337
46055W        W14396   0.742  43.019   3.160
46056W        W14397   6.796   6.300   1.891
46057W        W14398   5.437  24.700  10.645
46058W        W14399  36.494  43.841   3.208
46059W        W14400  28.676  41.380   3.336
46060W        W14401   3.287  12.195  14.022
46061W        W14402  33.010  15.154   3.231
46062W        W14403   1.925  43.925   3.784
46063W        W14404   0.452   0.958   4.722
46064W        W14405  40.923  23.141  13.309
46065W        W14406  31.573  24.046   0.749
46066W        W14407   7.252   4.258   0.923
46067W        W14408  29.094  11.753  12.423
46068W        W14409  19.576  17.137  11.970
46069W        W14410   2.894  35.507  12.474
46070W        W14411  17.698  22.529   2.366
46071W        W14412  39.964  27.605   0.857
46072W        W14413  40.916  41.942   5.683
46073W        W14414  29.465   6.796  10.458
46074W        W14415  11.746   0.883   3.179
46075W        W14416  44.757  10.782   2.294
46076W        W14417  22.634  32.952  12.978
46077W        W14418  35.948  11.830   0.865
46078W        W14419  19.577  28.011   1.887
46079W        W14420   0.947  25.500   4.671
46080W        W14421  39.435  17.682   1.888
46081W        W14422   3.223  31.082  11.403
46082W        W14423  30.596  31.094   0.734
46083W        W14424   9.844   8.683  10.549
46084W        W14425  39.492  37.542  12.389
46085W        W14426  11.184   2.840   4.765
46086W        W14427  23.617  11.793  12.985
46087W        W14428  28.652   4.224   4.689
46088W        W14429  24.017  37.375  12.575
46089W        W14430  32.116  16.227   4.115
46090W        W14431  11.329  14.252  11.992
46091W        W14432  32.629  14.188  10.919
46092W        W14433   4.794  38.927   0.744
46093W        W14434  14.754  11.840   5.112
46094W        W14435   4.778   5.754   4.816
46095W        W14436   6.333  20.088  13.374
46096W        W14437  34.429  12.789  13.438
46097W        W14438   1.319  39.324   0.931
46098W        W14439  38.554   5.424   4.655
46099W        W14440  23.573  11.840   1.826
46100W        W14441  40.458  36.383   0.438
46101W        W14442  10.646  36.032  11.120
46102W        W14443   8.679   6.811  11.052
46103W        W14444   2.919   1.368  14.986
46104W        W14445   1.330  32.442   2.374
46105W        W14446  10.638  10.221   1.305
46106W        W14447   9.271  33.606   0.816
46107W        W14448  28.543  32.570  10.511
46108W        W14449  37.972  42.407  14.770
46109W        W14450   3.942  18.600   5.279
46110W        W14451  11.788  22.246   3.285
46111W        W14452  44.784  23.002  12.442
46112W        W14453  43.325  37.064   2.709
46113W        W14454   2.806   8.176   3.197
46114W        W14455  36.514   3.296   0.862
46115W        W14456  40.538  35.061  13.846
46116W        W14457  28.476  43.488  11.411
46117W        W14458  38.540  43.009  11.430
46118W        W14459  40.880  29.052   3.331
46119W        W14460   9.288  18.788  12.924
46120W        W14461  12.724   1.276  15.000
46121W        W14462  42.946  25.649   3.639
46122W        W14463   4.826  26.471   1.832
46123W        W14464  17.271  27.060  14.294
46124W        W14465  17.269  31.586   3.684
46125W        W14466  14.700  11.707   4.247
46126W        W14467  12.773  23.687   2.790
46127W        W14468  25.561   8.713   5.320
46128W        W14469   3.386   5.217   3.684
46129W        W14470  33.402  40.332   4.228
46130W        W14471  37.061  19.724   4.837
46131W        W14472  40.313  24.144  13.321
46132W        W14473  24.181  34.611   5.189
46133W        W14474   3.301  14.169   4.826
46134W        W14475   4.869  14.181  11.561
46135W        W14476   0.894  31.633  11.927
46136W        W14477  32.140  38.907   2.385
46137W        W14478  43.460  39.834  11.551
46138W        W14479  23.518  38.076  11.526
46139W        W14480  43.407  10.671  10.954
46140W        W14481  32.467   7.831  14.985
46141W        W14482  10.780  38.479   1.859
46142W        W14483  13.734   8.335   0.878
46143W        W14484  17.572  19.651  13.463
46144W        W14485  32.055  22.745  12.898
46145W        W14486   0.841  15.663   0.438
46146W        W14487   4.883  22.746   2.357
46147W        W14488  41.889  15.653  11.409
46148W        W14489   0.879   4.714  11.029
46149W        W14490  41.323   7.763   3.344
46150W        W14491  28.462  35.411  11.978
46151W        W14492  43.298  15.316  12.443
46152W        W14493  16.753  40.895   0.292
46153W        W14494  15.806  23.612   1.399
46154W        W14495  25.652  17.586  13.957
46155W        W14496  43.322  38.506   2.903
46156W        W14497   0.974  44.288  10.916
46157W        W14498  11.677  28.018   9.940
46158W        W14499  26.061  14.669   1.400
46159W        W14500  33.390   5.276   1.858
46160W        W14501  22.635  17.703  10.098
46161W        W14502  38.525  29.045  13.915
46162W        W14503   8.677  33.914  12.540
46163W        W14504  13.630   8.810  11.972
46164W        W14505   9.776  10.215   4.694
46165W        W14506  27.066  30.959  12.422
46166W        W14507  33.904  36.490   1.726
46167W        W14508  38.438   4.778  14.444
46168W        W14509  32.575  29.102  11.859
46169W        W14510   2.425   2.437  11.038
46170W        W14511  23.202  25.081   4.244
46171W        W14512  19.704   6.887  12.462
46172W        W14513  31.558   6.752   2.663
46173W        W14514  25.136  42.950   2.846
46174W        W14515  31.551  17.257  13.505
46175W        W14516  11.634  15.313   2.289
46176W        W14517   9.876  26.029   4.295
46177W        W14518  10.820  28.600  13.977
46178W        W14519  12.154  37.869   3.778
46179W        W14520  36.049  25.546   2.241
46180W        W14521  15.599  42.820  14.954
46181W        W14522   3.795  19.556   0.246
46182W        W14523  27.185   0.352  11.947
46183W        W14524  27.048  40.958   0.855
46184W        W14525  23.226  23.079  12.991
46185W        W14526  41.431  10.755   0.476
46186W        W14527  13.308  11.837   1.233
46187W        W14528  24.672  32.566   3.146
46188W        W14529  29.537  44.867  13.057
46189W        W14530   5.790  22.534   4.600
46190W        W14531  10.867  20.051   4.613
46191W        W14532  29.535  32.408   0.319
46192W        W14533  21.193   6.913  10.471
46193W        W14534  10.746  38.997  13.985
46194W        W14535  19.674  26.127  12.449
46195W        W14536  13.657   3.395   5.182
46196W        W14537  25.653  25.010   1.767
46197W        W14538   9.155  32.397  14.831
46198W        W14539  37.903   4.722   1.429
46199W        W14540  41.463  44.922  11.545
46200W        W14541  15.600  40.469   3.191
46201W        W14542  27.676  27.487   0.411
46202W        W14543   1.252  26.648   2.855
46203W        W14544  14.637  34.102  12.088
46204W        W14545  35.073  37.446   4.316
46205W        W14546   0.784   2.782  11.889
46206W        W14547  20.563  26.458   2.258
46207W        W14548  31.502   5.827   3.235
46208W        W14549  40.029  20.180  10.449
46209W        W14550  23.627  41.043   3.367
46210W        W14551  23.682   4.874  11.871
46211W        W14552  41.526  21.518  14.910
46212W        W14553  15.156  22.057   1.849
46213W        W14554  28.075  28.595   3.677
46214W        W14555  34.534  13.298   1.781
46215W        W14556  44.320  13.278   0.857
46216W        W14557   2.802  25.686   2.201
46217W        W14558  36.407   5.421  11.471
46218W        W14559  11.629  29.035   1.762
46219W        W14560  19.705   1.468   1.880
46220W        W14561  34.594  35.082   0.471
46221W        W14562  24.086  37.920   1.785
46222W        W14563  30.657  12.195   3.711
46223W        W14564   5.212  17.178   1.335
46224W        W14565   5.243   2.852  11.986
46225W        W14566   3.273   9.759   0.744
46226W        W14567  31.038  42.488  13.932
46227W        W14568  14.694  33.099   0.405
46228W        W14569  34.968  15.199   4.267
46229W        W14570  15.705  26.011  14.799
46230W        W14571  34.080  39.915  12.090
46231W        W14572  42.029   0.933   0.402
46232W        W14573  29.543  11.822   4.207
46233W        W14574  12.142   5.322   3.687
46234W        W14575  33.452  29.148  12.882
46235W        W14576  31.117  21.064   2.686
46236W        W14577  39.476  35.898  10.954
46237W        W14578  17.105  31.022  13.323
46238W        W14579  39.374  33.437   0.467
46239W        W14580  18.121  22.044   0.378
46240W        W14581   8.266   5.905   0.369
46241W        W14582   4.235   5.884   1.312
46242W        W14583  16.601  16.256  12.040
46243W        W14584  25.126   2.742   0.257
46244W        W14585   1.850  12.148   2.758
46245W        W14586  39.369  21.548   1.715
46246W        W14587  15.085  29.123  10.915
46247W        W14588  14.309  27.461   4.167
46248W        W14589  42.407  39.947   1.771
46249W        W14590  40.051  21.121  14.830
46250W        W14591  42.806  10.229  12.536
46251W        W14592   8.288  16.172   4.149
46252W        W14593   6.323   1.257   0.808
46253W        W14594  12.778  16.304   2.712
46254W        W14595   2.903   9.692   1.279
46255W        W14596  15.190  30.538   4.631
46256W        W14597  36.890  12.839  13.422
46257W        W14598  41.998  27.621  12.554
46258W        W14599  20.745  30.162  14.786
46259W        W14600   5.739  18.057  13.901
46260W        W14601  15.665  42.834   3.783
46261W        W14602   6.343  39.376  14.463
46262W        W14603  30.563  15.134  14.277
46263W        W14604  36.948  10.345  13.955
46264W        W14605  26.547   4.787  12.545
46265W        W14606  29.565  29.630  13.838
46266W        W14607   5.317  36.861   1.244
46267W        W14608  22.131  25.142   3.858
46268W        W14609  20.688  18.190   0.896
46269W        W14610  10.371  44.320  14.009
46270W        W14611  19.576  29.523   4.217
46271W        W14612  43.299  28.124   0.863
46272W        W14613   3.891   3.742  14.511
46273W        W14614  24.595   0.825   1.358
46274W        W14615   6.273  21.547   2.213
46275W        W14616  22.133  24.052  10.490
46276W        W14617  43.838  15.212   2.723
46277W        W14618   6.408  11.314   3.831
46278W        W14619  29.963  32.088  10.981
46279W        W14620  20.730  24.491   2.855
46280W        W14621  16.728  21.626  12.917
46281W        W14622  17.785   9.164   1.345
46282W        W14623   8.381  13.344   0.868
46283W        W14624  11.739   9.689   2.269
46284W        W14625   5.708  12.215  10.524
46285W        W14626  32.453  20.077   2.696
46286W        W14627   6.227  12.764   1.319
46287W        W14628  24.018   1.970   3.720
46288W        W14629  37.975  33.894   4.353
46289W        W14630   1.482   3.806   3.380
46290W        W14631  11.170   3.946  14.846
46291W        W14632   5.770  13.637   4.637
46292W        W14633  36.028  41.828   2.206
46293W        W14634  15.242  10.203   3.307
46294W        W14635  33.526   0.866  10.890
46295W        W14636  23.116   3.813  11.968
46296W        W14637  17.116   2.823   3.214
46297W        W14638  25.607  11.670  11.418
46298W        W14639  24.500  29.540  13.307
46299W        W14640  22.630  42.881  12.031
46300W        W14641  25.573  38.526  10.564
46301W        W14642   7.864  14.218  14.923
46302W        W14643   0.849   3.302   3.207
46303W        W14644  17.130  18.205   3.354
46304W        W14645  28.113   8.897  13.503
46305W        W14646  25.101  20.592  12.955
46306W        W14647  23.026  25.045   0.291
46307W        W14648  24.993  12.233  13.990
46308W        W14649  32.026  21.256   0.252
46309W        W14650   7.190  35.866  14.465
46310W        W14651   9.854  17.775  11.087
46311W        W14652   8.690  27.648   3.360
46312W        W14653  24.664  19.228   1.383
46313W        W14654  22.160  25.089   0.870
46314W        W14655  42.014  23.226   0.859
46315W        W14656  38.986  36.570  14.835
46316W        W14657   7.787  22.207   0.275
46317W        W14658  19.043  12.194  12.090
46318W        W14659  28.464  42.498  12.858
46319W        W14660  21.689  21.071   1.717
46320W        W14661  41.879  15.139   4.210
46321W        W14662  25.985  23.624  13.039
46322W        W14663  12.232  24.653   1.914
46323W        W14664  30.017  10.690  13.830
46324W        W14665  37.565  34.390   0.954
46325W        W14666  16.604  27.112  14.331
46326W        W14667   7.360   7.354   4.803
46327W        W14668   1.326  44.273  11.573
46328W        W14669  17.759  22.667  13.796
46329W        W14670  26.608  10.147   3.357
46330W        W14671  43.869  18.684   2.231
46331W        W14672  14.815  42.843   2.695
46332W        W14673  25.117  16.127   1.387
46333W        W14674   4.347  32.416   2.316
46334W        W14675  42.393  22.552   2.695
46335W        W14676  11.273  21.043  13.420
46336W        W14677  16.671  39.840  12.074
46337W        W14678   4.727  23.995  11.953
46338W        W14679   9.376   6.706  13.402
46339W        W14680  12.182  12.292   5.198
46340W        W14681  11.720   3.736   3.694
46341W        W14682   7.338   9.186   1.221
46342W        W14683  26.173  16.297   2.685
46343W        W14684   6.903   4.312   0.947
46344W        W14685  40.464  17.194  10.482
46345W        W14686  31.495  40.933  11.901
46346W        W14687   5.784  44.311  12.060
46347W        W14688  34.426  17.665   1.835
46348W        W14689  24.694  40.869   3.238
46349W        W14690  13.147  23.026   0.444
46350W        W14691  44.939  11.676  14.919
46351W        W14692  16.688  16.740   1.920
46352W        W14693   8.321  16.588  11.888
46353W        W14694  31.114  30.464  12.934
46354W        W14695  41.426  26.614  10.573
46355W        W14696   7.325  28.151   0.889
46356W        W14697  10.877  35.100  14.901
46357W        W14698  32.549  32.634  12.453
46358W        W14699   0.339  25.614  13.353
46359W        W14700  29.504  22.699  10.936
46360W        W14701  17.135  23.041  10.074
46361W        W14702  41.483  12.362  12.852
46362W        W14703  17.084  44.313  11.951
46363W        W14704  33.554   8.804   9.944
46364W        W14705  12.197  18.124  12.831
46365W        W14706  15.232  16.089  14.395
46366W        W14707  39.490  10.655   4.671
46367W        W14708  42.856  37.050   2.178
46368W        W14709  44.470   1.962  13.878
46369W        W14710   3.751  32.621  12.971
46370W        W14711  31.428  28.116  14.999
46371W        W14712  14.709  20.751   4.343
46372W        W14713   9.276   6.703   1.312
46373W        W14714  22.080  20.732  14.926
46374W        W14715  38.336  35.551   2.243
46375W        W14716  10.196  38.895  13.486
46376W        W14717  17.649   6.309  13.370
46377W        W14718  39.941  30.442   1.864
46378W        W14719  27.653  27.500   1.831
46379W        W14720  29.080  21.534  14.354
46380W        W14721  26.063  20.691   0.732
46381W        W14722   7.902  38.544   4.774
46382W        W14723  17.751  17.108  14.804
46383W        W14724  30.958  21.164  11.919
46384W        W14725  44.871  12.613   1.700
46385W        W14726  13.324   5.717  11.982
46386W        W14727  40.440  26.126   1.315
46387W        W14728  21.035  37.961   0.464
46388W        W14729  27.112  20.575  14.424
46389W        W14730  17.234  33.952   3.849
46390W        W14731  25.045   4.446  14.780
46391W        W14732  11.646  36.469  14.023
46392W        W14733  24.507  15.225  12.033
46393W        W14734   4.205   7.250   1.811
46394W        W14735  31.098  31.058  10.975
46395W        W14736  41.465  33.131   0.767
46396W        W14737  23.052  10.644  14.437
46397W        W14738  37.863  17.674  14.402
46398W        W14739  36.375  17.725   0.344
46399W        W14740  36.419  26.091  11.541
46400W        W14741   8.219  22.051   3.145
46401W        W14742   5.363   9.718   2.728
46402W        W14743  16.163   5.934   3.787
46403W        W14744   1.425  36.985  13.353
46404W        W14745  43.988  35.984  12.408
46405W        W14746  10.638   3.948   4.693
46406W        W14747  40.547   8.399  11.449
46407W        W14748  15.822  19.221  12.512
46408W        W14749  11.761  42.296  11.401
46409W        W14750  27.563   5.707  10.892
46410W        W14751  24.986   4.338   1.252
46411W        W14752  34.410   6.193  14.343
46412W        W14753  18.580   9.778   2.222
46413W        W14754  15.303  12.788  13.441
46414W        W14755  27.616  31.951  12.096
46415W        W14756  29.553  31.914  12.868
46416W        W14757  17.302  23.562   3.243
46417W        W14758  32.105  35.527   2.403
46418W        W14759  23.216  19.613  10.454
46419W        W14760   5.801  31.943  11.590
46420W        W14761  39.423  17.562  12.425
46421W        W14762  11.621   6.214  12.928
46422W        W14763  33.014  41.449   2.891
46423W        W14764  26.563  24.521  12.844
46424W        W14765   5.251  39.446   1.779
46425W        W14766  41.405   9.390   4.334
46426W        W14767  22.123  19.635   4.148
46427W        W14768  38.566  14.760  12.874
46428W        W14769  30.116  31.006  10.501
46429W        W14770  13.209  24.093  11.031
46430W        W14771  42.420  25.553   3.297
46431W        W14772  42.343   6.778  13.942
46432W        W14773  16.673  30.598   3.666
46433W        W14774   0.927  13.736   0.345
46434W        W14775  14.747   1.281   3.693
46435W        W14776  23.563  24.222   0.405
46436W        W14777  24.098  36.483  14.028
46437W        W14778  13.821  41.936   2.827
46438W        W14779  32.543   6.758   2.855
46439W        W14780  36.844  18.755   4.650
46440W        W14781  30.009  37.036  14.008
46441W        W14782  44.774   1.957   1.274
46442W        W14783   4.406  24.699   3.860
46443W        W14784  23.703   8.172   3.633
46444W        W14785  11.818   7.368   0.476
46445W        W14786   6.905  12.302   2.770
46446W        W14787  40.312   4.909   0.916
46447W        W14788  22.584  43.381   0.848
46448W        W14789   6.335   4.380  12.573
46449W        W14790  24.087   2.432  13.912
46450W        W14791  38.381  24.618  12.879
46451W        W14792  37.859  42.347  14.485
46452W        W14793  16.236  28.669  14.805
46453W        W14794  24.009  10.177   2.236
46454W        W14795  40.357  40.345   4.319
46455W        W14796  26.689  35.960   4.726
46456W        W14797  28.473  26.166   1.754
46457W        W14798  30.057  41.312  12.952
46458W        W14799  15.759  28.141  13.542
46459W        W14800  23.114  35.965   0.421
46460W        W14801  12.671  21.082  13.447
46461W        W14802  16.132   0.797  10.153
46462W        W14803  14.757  25.080   3.811
46463W        W14804   9.655  23.645   3.762
46464W        W14805  24.080  13.148  14.455
46465W        W14806  42.915  17.087  12.088
46466W        W14807  41.406  15.647   1.916
46467W        W14808  16.607   3.234   1.853
46468W        W14809  19.571   5.266  11.918
46469W        W14810  21.598   2.336  11.417
46470W        W14811   2.957   0.964  14.876
46471W        W14812  24.152  15.667   2.803
46472W        W14813   0.299  34.548  14.770
46473W        W14814  40.378   1.742  11.099
46474W        W14815  34.448  31.643   1.366
46475W        W14816  34.876  17.063  10.080
46476W        W14817  37.383   8.291  10.437
46477W        W14818   6.381  38.911   4.292
46478W        W14819  39.404  24.031   2.732
46479W        W14820  20.245  26.699   3.338
46480W        W14821  11.235  20.226   0.756
46481W        W14822  20.133  11.179   2.186
46482W        W14823  36.895   0.418   4.293
46483W        W14824   9.854   4.414  12.018
46484W        W14825   3.852  32.481   2.229
46485W        W14826  18.113  35.931  14.410
46486W        W14827  30.087  24.218   2.839
46487W        W14828  30.012  12.163  14.453
46488W        W14829  32.026  20.637  11.972
46489W        W14830  36.444  10.185   0.400
46490W        W14831  38.367  34.096   3.358
46491W        W14832  33.021  28.008   3.184
46492W        W14833   4.269   5.725   3.857
46493W        W14834   5.834  19.283   2.309
46494W        W14835   6.850  23.988   4.785
46495W        W14836  13.298  17.286  12.577
46496W        W14837  33.425  16.086   1.854
46497W        W14838  18.197  15.181  13.408
46498W        W14839  44.380  36.563  10.932
46499W        W14840   0.748  21.683  11.092
46500W        W14841  40.364  26.155  13.841
46501W        W14842  39.994  30.981  13.819
46502W        W14843   8.701  25.608  13.803
46503W        W14844  43.325  18.187   1.218
46504W        W14845   9.658   7.848  10.611
46505W        W14846   5.715   1.292   3.189
46506W        W14847   7.237  32.087   0.269
46507W        W14848  16.682  37.359  10.531
46508W        W14849  43.778  39.517  12.011
46509W        W14850   1.439  40.981   1.333
46510W        W14851  17.681  44.804  11.593
46511W        W14852  24.623  22.052   1.695
46512W        W14853  38.943  41.827   2.199
46513W        W14854   1.746  16.656   9.946
46514W        W14855   7.242   3.217   3.184
46515W        W14856  22.640  37.386   4.299
46516W        W14857   3.358  39.828  12.835
46517W        W14858  35.892  19.099  12.942
46518W        W14859  35.454  18.568   1.771
46519W        W14860  19.578  38.861   3.655
46520W        W14861  23.096  25.599  11.025
46521W        W14862  23.027  39.015  11.898
46522W        W14863  19.059  30.047   3.203
46523W        W14864  16.096   4.729   3.854
46524W        W14865  36.482  17.297  10.475
46525W        W14866   7.207  10.854  11.407
46526W        W14867  35.926  36.544   3.309
46527W        W14868  20.181  41.907   0.868
46528W        W14869  34.553   0.913   1.906
46529W        W14870  37.343  42.801   1.418
46530W        W14871  34.061  27.589   3.869
46531W        W14872  21.153   8.774   0.935
46532W        W14873  43.337   1.872  11.960
46533W        W14874   3.905   3.765  13.513
46534W        W14875  27.579  34.054  13.918
46535W        W14876  22.720  44.883  11.018
46536W        W14877   5.834   8.358   1.246
46537W        W14878  14.122  36.501   3.753
46538W        W14879  20.203  13.159  11.922
46539W        W14880  44.496   6.899  12.939
46540W        W14881  28.985  13.145  11.523
46541W        W14882  12.687  36.866  14.947
46542W        W14883   7.853  42.445  13.908
46543W        W14884  17.156  12.678  10.918
46544W        W14885  18.740   8.769  10.525
46545W        W14886   5.222  38.554   1.341
46546W        W14887  29.480  22.137  11.472
46547W        W14888  21.585  15.601  11.420
46548W        W14889  42.909  38.983  11.456
46549W        W14890  20.657  15.715   1.317
46550W        W14891   0.891   7.853   4.284
46551W        W14892  16.652  13.648   3.644
46552W        W14893  14.267  42.929  14.320
46553W        W14894  42.354  16.715   1.880
46554W        W14895   2.389   8.819   4.290
46555W        W14896  18.067  33.980  11.926
46556W        W14897  25.642   5.908  13.997
46557W        W14898  21.032  35.424  13.855
46558W        W14899  14.655  24.067   2.262
46559W        W14900  36.894  33.472   3.346
46560W        W14901  28.500   9.389   2.208
46561W        W14902   6.848  34.881  10.897
46562W        W14903   6.362  12.262  13.348
46563W        W14904  16.746  16.719   4.230
46564W        W14905  12.345  35.897   1.724
46565W        W14906  33.530  23.029   0.346
46566W        W14907  29.656  28.988  14.895
46567W        W14908   3.860   4.723  14.435
46568W        W14909  20.675  14.273   5.181
46569W        W14910  26.529  17.142  12.355
46570W        W14911  11.713  42.824  10.083
46571W        W14912  36.525  27.490   0.886
46572W        W14913  36.951  28.454  11.536
46573W        W14914   7.330   3.711  12.379
46574W        W14915   0.254  21.581   0.420
46575W        W14916  28.953  29.651  10.411
46576W        W14917  39.027  39.489  11.966
46577W        W14918   4.916  26.557   2.733
46578W        W14919  31.630  23.543  10.918
46579W        W14920  36.461  40.516   4.725
46580W        W14921  29.010  19.045   2.835
46581W        W14922   7.245  10.365   0.765
46582W        W14923  30.112  27.460  10.984
46583W        W14924  20.142  22.541   2.353
46584W        W14925   6.869  34.533  13.483
46585W        W14926  24.998  26.164   0.925
46586W        W14927  28.680  27.030  14.481
46587W        W14928  40.474   4.716  13.838
46588W        W14929  13.649  14.817   0.771
46589W        W14930  32.455  42.441   1.419
46590W        W14931  20.243  13.805   0.862
46591W        W14932  31.507  11.362  11.472
46592W        W14933  43.874  28.095  12.894
46593W        W14934  44.948  29.106   4.678
46594W        W14935  25.072  29.962   4.822
46595W        W14936   9.247  30.924  14.880
46596W        W14937   4.382  23.700  12.952
46597W        W14938  31.943   0.325   3.378
46598W        W14939  33.077  14.199  14.976
46599W        W14940   8.224  35.014   2.418
46600W        W14941   1.962   4.323  13.990
46601W        W14942  27.640  28.568   0.421
46602W        W14943   2.903   5.258  11.520
46603W        W14944  35.379  43.765  11.491
46604W        W14945  27.601  21.094  12.836
46605W        W14946  32.947  11.234   3.770
46606W        W14947  13.177  10.293   3.803
46607W        W14948  26.033  11.621  11.926
46608W        W14949   3.412  28.646   3.710
46609W        W14950   4.822  29.442  13.362
46610W        W14951  37.840  21.521  12.508
46611W        W14952  35.884  32.455  11.555
46612W        W14953  14.679  34.486  12.565
46613W        W14954  17.081  39.530  13.510
46614W        W14955  17.761  14.294   4.146
46615W        W14956  30.607   9.654  12.006
46616W        W14957  31.559   9.733  12.363
46617W        W14958  33.933  28.637   0.307
46618W        W14959  33.981  44.279  13.889
46619W        W14960  14.597   1.892   3.818
46620W        W14961  25.593  20.722   0.792
46621W        W14962  13.823  11.325  14.325
46622W        W14963   7.248  36.944   2.331
46623W        W14964  34.437  19.636  10.464
46624W        W14965  15.125  31.540   3.253
46625W        W14966  19.284  38.384   1.364
46626W        W14967  31.011   4.803   9.919
46627W        W14968  43.012  14.707   5.260
46628W        W14969  39.522  24.550  12.965
46629W        W14970  23.700   3.855  13.396
46630W        W14971  40.980  42.430  14.769
46631W        W14972  24.137  23.025  14.915
46632W        W14973   0.351  31.916   1.415
46633W        W14974  38.508  30.614   3.217
46634W        W14975  44.929  43.475   4.262
46635W        W14976   2.813  31.120  14.336
46636W        W14977  16.074  24.099   4.712
46637W        W14978  36.984  22.512   3.160
46638W        W14979  13.215  38.886   2.352
46639W        W14980  31.058   7.221   4.833
46640W        W14981   0.939  39.507   1.337
46641W        W14982  27.130  16.096  14.286
46642W        W14983   4.224  39.908  14.777
46643W        W14984  10.673  13.700  14.827
46644W        W14985  25.016  25.486   4.720
46645W        W14986   5.848  26.125   0.951
46646W        W14987   3.868   7.230  14.891
46647W        W14988  24.484   1.239   0.938
46648W        W14989  38.475  41.442  13.340
46649W        W14990  36.464  43.836  14.346
46650W        W14991  31.593  33.504  12.496
46651W        W14992  39.496   7.225   2.326
46652W        W14993  43.372   0.385  14.894
46653W        W14994   0.786   5.273   3.679
46654W        W14995  38.930   8.704   9.975
46655W        W14996   0.982  22.062   0.900
46656W        W14997  41.984  17.178   0.298
46657W        W14998  40.337   6.211   4.624
46658W        W14999  30.118  32.925  10.540
46659W        W15000  15.774  16.122  14.277
46660W        W15001  28.487  33.098   0.809
46661W        W15002  12.144  14.672   1.375
46662W        W15003  31.436  19.754   2.822
46663W        W15004  33.544  39.835  10.915
46664W        W15005  31.500   7.714  14.460
46665W        W15006  33.480  20.188   3.343
46666W        W15007  15.101  35.461   1.369
46667W        W15008   4.801  29.612   0.922
46668W        W15009   9.864   3.866  14.910
46669W        W15010  17.652  39.498   4.200
46670W        W15011  39.992  21.696   0.367
46671W        W15012  18.663   6.804  11.461
46672W        W15013  19.666   8.292   0.292
46673W        W15014  43.846  20.210   4.256
46674W        W15015  43.939  19.239   2.357
46675W        W15016  43.297  25.121  10.128
46676W        W15017  42.877   4.887   3.272
46677W        W15018   1.287   8.795   0.325
46678W        W15019  33.907   6.893   2.368
46679W        W15020   1.842  14.128   3.213
46680W        W15021  24.665  22.746   1.290
46681W        W15022  43.008  31.944   2.242
46682W        W15023  17.104  21.618  14.342
46683W        W15024  14.684  14.671   2.326
46684W        W15025  25.567   4.934   4.199
46685W        W15026  26.523  11.642   3.757
46686W        W15027   4.301   6.921   2.871
46687W        W15028   3.790  18.555   1.930
46688W        W15029  18.711  26.177   3.354
46689W        W15030  38.981   5.888  14.983
46690W        W15031  41.846  33.512   3.730
46691W        W15032   5.742  22.146  13.460
46692W        W15033  27.166  36.095   2.346
46693W        W15034  35.393  30.128   0.866
46694W        W15035  33.597   7.683  14.421
46695W        W15036   8.798  19.230  11.592
46696W        W15037   7.783  31.569  10.906
46697W        W15038   4.895   0.781   1.308
46698W        W15039  34.009  10.766   2.756
46699W        W15040  24.586  29.154   4.798
46700W        W15041  44.853  28.466  11.945
46701W        W15042   0.491  11.179   1.929
46702W        W15043  22.228   2.376   1.707
46703W        W15044  10.200  42.466   2.695
46704W        W15045  27.461  23.238   2.683
46705W        W15046  23.150   9.211  14.460
46706W        W15047  41.794   3.358   4.162
46707W        W15048  25.210  18.644   3.727
46708W        W15049  44.393  39.403  12.069
46709W        W15050  32.599  20.548  12.864
46710W        W15051  19.756  14.697  11.896
46711W        W15052  30.989  11.721   2.699
46712W        W15053  30.467   5.356   4.604
46713W        W15054   9.816  35.014   0.912
46714W        W15055   8.704  39.035  14.359
46715W        W15056  13.826   9.776   2.696
46716W        W15057  10.722   4.888  10.006
46717W        W15058  40.486  39.475  13.939
46718W        W15059  22.535  35.523   3.802
46719W        W15060   9.845  31.403   2.828
46720W        W15061  23.524   4.423  11.517
46721W        W15062  17.665  21.062  10.414
46722W        W15063  20.593  28.464   0.868
46723W        W15064  11.819  17.593   2.877
46724W        W15065   6.210   1.481   9.972
46725W        W15066  23.680  38.461  11.442
46726W        W15067  16.289  24.144  14.761
46727W        W15068  10.329   9.364  10.497
46728W        W15069   7.199  23.119  11.967
46729W        W15070  19.670  28.500  12.938
46730W        W15071   3.357   2.737  14.031
46731W        W15072  11.318  12.857   5.644
46732W        W15073   1.878  10.175  11.954
46733W        W15074  40.399   1.905  14.303
46734W        W15075  37.881  20.548  10.988
46735W        W15076   9.253  22.194   4.226
46736W        W15077  19.088  35.376   0.357
46737W        W15078  31.648  29.071  14.375
46738W        W15079  35.521  24.017   4.647
46739W        W15080   7.341  20.761   1.854
46740W        W15081  17.749  20.669  12.492
46741W        W15082  28.078  41.338  13.535
46742W        W15083  34.881  29.558   3.238
46743W        W15084  20.130  14.251  12.034
46744W        W15085  38.852  14.735  11.549
46745W        W15086  29.666  17.285  14.800
46746W        W15087  10.844  12.130   0.482
46747W        W15088   0.833  22.650   4.754
46748W        W15089  15.717  10.307   3.252
46749W        W15090  43.786  32.415  14.901
46750W        W15091  11.340  27.196  10.537
46751W        W15092  35.090   7.176  12.523
46752W        W15093  16.106   5.369  12.884
46753W        W15094  35.053  37.088  13.474
46754W        W15095  16.148   1.481   1.794
46755W        W15096  17.631  22.221  11.899
46756W        W15097  22.741  35.090  10.019
46757W        W15098  41.985  15.100  11.442
46758W        W15099  13.288  27.970  12.440
46759W        W15100  33.522   0.383   9.969
46760W        W15101   3.709  44.450   1.818
46761W        W15102  19.189  17.736   0.924
46762W        W15103  26.989   9.173   2.317
46763W        W15104   4.386  26.995  13.806
46764W        W15105  37.062  16.573  11.376
46765W        W15106  42.996  12.767   0.890
46766W        W15107   1.753  24.597  13.887
46767W        W15108  29.093   7.865   3.221
46768W        W15109  40.045  26.153  11.583
46769W        W15110  22.586  35.077   1.351
46770W        W15111  17.591  39.403   4.779
46771W        W15112  37.558  35.924   3.317
46772W        W15113  20.638  14.291   2.192
46773W        W15114  16.744   6.423   1.254
46774W        W15115  20.124  21.040   0.848
46775W        W15116  13.662  35.099  10.617
46776W        W15117  36.571  38.516   1.761
46777W        W15118  42.966   9.345  11.049
46778W        W15119  44.350   0.847  14.296
46779W        W15120  28.929  44.391   0.272
46780W        W15121  32.469  17.687   4.148
46781W        W15122   1.314  21.525   4.758
46782W        W15123  12.744  34.085   0.438
46783W        W15124  10.221  39.826  13.815
46784W        W15125  33.965  20.524  13.376
46785W        W15126  20.528   3.278   2.301
46786W        W15127  11.681  41.446  13.924
46787W        W15128  19.705  12.329  11.921
46788W        W15129  29.018  33.112   1.429
46789W        W15130  28.588  33.414   0.959
46790W        W15131  33.615   1.358   3.301
46791W        W15132  19.244  10.279  12.533
46792W        W15133  43.459  10.702  12.486
46793W        W15134  35.990  16.218   3.329
46794W        W15135  13.741   6.764  14.460
46795W        W15136  39.049  15.157   1.241
46796W        W15137  11.181  12.751  10.035
46797W        W15138  40.989  14.133  12.883
46798W        W15139  44.317  37.364   2.712
46799W        W15140  19.692  22.178  10.500
46800W        W15141  32.899  20.717   3.756
46801W        W15142  36.445  23.680   0.312
46802W        W15143  20.602  19.777  13.376
46803W        W15144  32.558  37.485  10.901
46804W        W15145  22.216  25.007   2.689
46805W        W15146  33.908  28.039  12.379
46806W        W15147  38.369  35.069  10.897
46807W        W15148   3.455  29.171   3.370
46808W        W15149  26.159  40.848  10.554
46809W        W15150  18.616  27.549  13.457
46810W        W15151  22.641  30.910  11.555
46811W        W15152  29.955   8.829  13.052
46812W        W15153  14.711  43.883   2.295
46813W        W15154  22.178  34.615  11.898
46814W        W15155   2.867  18.143   2.798
46815W        W15156  16.678  42.934  12.894
46816W        W15157  18.747  14.625  14.826
46817W        W15158  33.958  27.549  13.326
46818W        W15159  20.273  34.903   3.244
46819W        W15160  21.160  37.411  13.911
46820W        W15161  14.803  18.570   3.190
46821W        W15162   0.404  43.863   2.743
46822W        W15163  30.057  24.625  14.297
46823W        W15164  32.464  12.625  12.536
46824W        W15165  28.953  40.018  11.603
46825W        W15166  19.108   0.845   2.758
46826W        W15167  32.527  23.655  14.500
46827W        W15168  21.565  33.962   4.744
46828W        W15169   0.831  33.563  10.610
46829W        W15170  10.226  20.111   0.400
46830W        W15171  35.081  35.039  11.587
46831W        W15172   3.231  23.572  14.031
46832W        W15173   6.746  24.173  13.540
46833W        W15174  31.148  20.744  10.911
46834W        W15175  41.477   0.460   3.230
46835W        W15176  25.037  16.201   3.752
46836W        W15177   1.434  18.600   2.691
46837W        W15178   1.399  33.949  14.790
46838W        W15179   1.337  30.156   4.271
46839W        W15180  40.485  30.160   0.343
46840W        W15181  18.087  27.966  10.484
46841W        W15182  28.118   5.817   2.396
46842W        W15183  25.589   1.244   4.633
46843W        W15184   5.287  29.518   1.775
46844W        W15185  36.014  15.777   0.461
46845W        W15186  41.438  41.840   3.700
46846W        W15187  17.248  41.398   4.185
46847W        W15188   8.750   2.748   3.763
46848W        W15189  31.584   6.767   1.725
46849W        W15190  42.789   3.751  13.402
46850W        W15191  44.867  24.595  14.439
46851W        W15192   0.859  26.083  13.471
46852W        W15193  17.799   1.465  13.910
46853W        W15194  38.903  43.011   4.837
46854W        W15195  40.534  25.080   3.298
46855W        W15196  30.988   2.242  12.440
46856W        W15197   5.224  42.438   0.398
46857W        W15198  24.680  30.594  10.458
46858W        W15199  39.826   5.928  14.280
46859W        W15200  22.073  11.768  11.993
46860W        W15201   0.852   6.922   2.219
46861W        W15202   1.828  34.121   1.823
46862W        W15203  10.726  12.116  12.861
46863W        W15204   0.419  35.430  11.074
46864W        W15205   7.779  33.083   2.299
46865W        W15206  12.834   7.335  10.954
46866W        W15207   4.860  10.303   2.241
46867W        W15208  29.536  15.716  13.307
46868W        W15209   3.261  14.610   1.719
46869W        W15210   0.395  39.404   3.156
46870W        W15211  28.145  28.114  13.930
46871W        W15212  11.633   4.284  14.023
46872W        W15213  37.421  34.079   1.898
46873W        W15214   4.851   2.240  12.486
46874W        W15215  39.950  30.943  14.386
46875W        W15216  25.152  16.580   0.393
46876W        W15217  23.994  10.273  13.028
46877W        W15218  16.101  31.139   1.390
46878W        W15219  13.611  15.192   3.765
46879W        W15220   6.871  40.456   1.224
46880W        W15221  12.693   0.750  11.563
46881W        W15222   2.938  24.064  13.324
46882W        W15223  35.932   6.346   0.426
46883W        W15224  37.933  28.987  11.108
46884W        W15225  24.706   2.299   3.657
46885W        W15226  41.028  15.753   0.843
46886W        W15227  25.992  35.873   1.377
46887W        W15228   5.358  13.317   1.762
46888W        W15229  23.085  43.018  10.966
46889W        W15230  22.103  26.965   1.359
46890W        W15231  33.053  36.012   1.442
46891W        W15232   0.453   8.852  13.373
46892W        W15233  10.690  42.413   4.246
46893W        W15234   8.368  38.549  14.962
46894W        W15235  39.995  39.460  14.348
46895W        W15236  33.414  21.192  14.814
46896W        W15237  10.365   0.818  11.092
46897W        W15238  38.360  37.371   0.946
46898W        W15239  37.852   5.832  11.426
46899W        W15240   5.421  26.177  12.514
46900W        W15241  29.530  24.210   4.744
46901W        W15242  13.208  21.226   1.231
46902W        W15243  38.930   8.708   0.443
46903W        W15244  36.087   9.689   1.312
46904W        W15245  40.967   5.897   3.838
46905W        W15246  36.490  43.441  11.939
46906W        W15247  21.650  38.825  13.811
46907W        W15248  27.142  28.642  10.002
46908W        W15249   1.736  20.642  13.900
46909W        W15250   2.926   5.699  13.825
46910W        W15251  22.070  41.409  14.984
46911W        W15252   2.261  38.996  11.511
46912W        W15253  40.486  32.541  11.586
46913W        W15254  17.791  38.016  14.360
46914W        W15255   8.269  27.685   4.790
46915W        W15256  42.969   8.872  13.483
46916W        W15257  16.727  11.259  11.865
46917W        W15258   3.899  35.012  11.437
46918W        W15259  26.516  28.995   5.610
46919W        W15260  30.100  37.519  12.857
46920W        W15261  31.052   9.665  11.483
46921W        W15262  17.781  33.447  11.544
46922W        W15263  20.215  35.951  14.922
46923W        W15264  42.863   7.266  10.106
46924W        W15265  38.421  25.695  12.090
46925W        W15266  25.070  23.127  12.877
46926W        W15267  40.855  28.045   0.844
46927W        W15268  28.504  12.174   3.813
46928W        W15269  21.246  38.462  12.089
46929W        W15270   7.266  11.369  14.818
46930W        W15271  22.074  26.562  14.312
46931W        W15272  35.434  35.974   4.150
46932W        W15273  30.606   0.929  13.014
46933W        W15274   9.665  33.436  14.843
46934W        W15275  22.681  11.803   0.737
46935W        W15276  30.634   4.756   2.403
46936W        W15277  33.379  17.233   0.813
46937W        W15278   7.319  10.152  12.979
46938W        W15279  20.264  16.286  11.573
46939W        W15280  35.096  24.228   1.280
46940W        W15281   5.818  24.613   4.603
46941W        W15282  13.777  38.930  12.077
46942W        W15283  25.053  13.260   4.663
46943W        W15284   4.878  25.473   3.836
46944W        W15285  13.637   1.417  12.339
46945W        W15286  38.943   2.759   0.824
46946W        W15287  26.206  29.037  12.485
46947W        W15288   6.714  28.657   2.283
46948W        W15289  17.237  13.771  11.572
46949W        W15290  36.920  39.898   3.347
46950W        W15291   2.877   5.854  12.483
46951W        W15292  22.100  35.935   3.774
46952W        W15293  24.579  42.939   0.847
46953W        W15294  21.217  11.715  14.798
46954W        W15295  21.554  40.924  14.031
46955W        W15296  23.677  40.951  11.921
46956W        W15297  40.548   1.356   2.781
46957W        W15298  22.138   5.770  11.502
46958W        W15299   4.927   7.900  12.476
46959W        W15300  31.957  40.976   1.432
46960W        W15301  37.862  44.851  12.471
46961W        W15302  32.036  41.356   1.780
46962W        W15303   2.767  29.543   2.856
46963W        W15304  20.610  11.349   0.329
46964W        W15305   2.726  36.450   1.760
46965W        W15306  17.739   1.876   0.477
46966W        W15307   8.854  14.227  12.830
46967W        W15308  13.825  35.557  10.916
46968W        W15309  11.310   8.174  14.764
46969W        W15310  40.047  44.005  11.443
46970W        W15311   5.393   9.643   0.282
46971W        W15312   4.316  22.998   4.210
46972W        W15313   5.193   0.432   2.856
46973W        W15314   4.743  33.545  10.422
46974W        W15315  34.978   7.208  14.468
46975W        W15316  10.829  13.617  11.991
46976W        W15317  39.967  16.091  13.997
46977W        W15318   9.393  22.157   1.216
46978W        W15319  38.820  25.595   4.791
46979W        W15320  44.306   2.316   3.344
46980W        W15321  42.400  21.568  13.368
46981W        W15322  34.866  20.650   4.353
46982W        W15323  23.699  23.634   1.821
46983W        W15324   7.802  43.437   1.384
46984W        W15325  42.469  41.983   2.277
46985W        W15326  23.048   0.746  11.415
46986W        W15327  39.055  18.107  10.139
46987W        W15328  22.739  39.856  12.082
46988W        W15329  23.643   6.193   3.703
46989W        W15330  22.615   4.723  11.956
46990W        W15331  24.699  13.796   4.613
46991W        W15332  16.808   4.282  10.889
46992W        W15333  30.026  15.265  13.543
46993W        W15334  35.579  12.261  12.057
46994W        W15335   1.288   4.818  10.629
46995W        W15336  28.452  23.021   1.450
46996W        W15337   7.695  30.465  14.316
46997W        W15338  14.283  21.187  14.970
46998W        W15339  29.027  26.577  11.054
46999W        W15340  22.549  25.041  14.786
47000W        W15341   4.760  33.521   2.859
47001W        W15342   0.398  25.483  14.299
47002W        W15343  14.190  21.151   1.383
47003W        W15344  29.501  14.266  14.375
47004W        W15345  14.273  26.082  12.884
47005W        W15346  16.682  28.468   1.370
47006W        W15347  37.514  37.050   1.322
47007W        W15348   3.439  31.047   3.225
47008W        W15349  28.502  10.308  11.893
47009W        W15350  27.451  13.272  14.359
47010W        W15351  12.256  34.099   3.376
47011W        W15352  23.116  23.131  10.467
47012W        W15353  24.652   8.383   3.289
47013W        W15354  31.450  41.439  12.385
47014W        W15355  26.615  23.528   4.124
47015W        W15356  28.937  44.392  11.384
47016W        W15357  29.645  15.309   0.382
47017W        W15358  36.375  32.439   2.714
47018W        W15359  20.613  14.186  10.566
47019W        W15360  22.743  11.292  11.935
47020W        W15361  44.501  27.625   2.288
47021W        W15362  32.898  27.981   0.391
47022W        W15363  31.000  22.541   9.959
47023W        W15364  23.146  24.083   4.607
47024W        W15365   9.734  14.174  12.829
47025W        W15366  34.920  34.879   2.279
47026W        W15367  35.075  15.628  13.543
47027W        W15368  17.073  31.600   2.370
47028W        W15369  25.091  43.434   4.297
47029W        W15370  29.001  23.129  13.832
47030W        W15371  36.359  32.929   2.823
47031W        W15372  37.087  30.596  10.949
47032W        W15373   7.679  41.883  14.822
47033W        W15374  14.206   1.429   0.878
47034W        W15375  21.255  43.940  12.060
47035W        W15376   9.213  15.241  13.466
47036W        W15377  39.893  15.616  13.916
47037W        W15378  31.948  21.714   2.393
47038W        W15379   7.329  16.178  10.443
47039W        W15380  23.731  15.776  13.957
47040W        W15381  25.079   4.284   4.184
47041W        W15382  31.427   7.248  11.911
47042W        W15383  26.692  29.064   4.180
47043W        W15384   9.256  44.970   2.192
47044W        W15385   5.852  26.623   3.743
47045W        W15386  33.598  30.930   4.808
47046W        W15387  36.481  18.677  10.581
47047W        W15388  33.463  17.651   2.391
47048W        W15389  32.545  13.345  13.406
47049W        W15390  29.549   5.383   2.357
47050W        W15391  21.631   5.242  13.452
47051W        W15392   0.291  35.591  13.879
47052W        W15393  31.604  38.386  14.396
47053W        W15394   2.315  31.108  13.330
47054W        W15395  21.681   8.840   1.876
47055W        W15396  27.665  17.669  14.375
47056W        W15397  25.548  17.769  10.546
47057W        W15398  33.457  37.496  12.043
47058W        W15399  18.225  35.514   4.645
47059W        W15400  10.850   2.341   0.483
47060W        W15401  42.344  26.124  12.519
47061W        W15402  14.244  16.124   2.415
47062W        W15403  22.742  18.706   2.275
47063W        W15404   0.425  42.308   1.292
47064W        W15405  44.465  24.688   2.861
47065W        W15406  15.228  31.026  11.589
47066W        W15407  19.074  42.522   3.240
47067W        W15408  10.785  14.114   4.805
47068W        W15409  38.392   0.832   2.368
47069W        W15410  21.711  44.274  13.049
47070W        W15411  43.370  35.858  13.408
47071W        W15412  27.592  14.738   0.263
47072W        W15413  23.521  35.592  14.319
47073W        W15414  19.042  31.955   4.204
47074W        W15415  17.589  39.957  13.816
47075W        W15416  42.509   4.432   4.716
47076W        W15417  33.471  38.021   3.716
47077W        W15418  35.994   5.219   1.726
47078W        W15419  41.910   0.250  13.844
47079W        W15420  20.527  23.197  13.953
47080W        W15421   1.756  24.037   2.215
47081W        W15422  41.388  25.562  10.632
47082W        W15423   5.921   7.349  14.403
47083W        W15424  10.749  32.070  12.575
47084W        W15425   0.425  22.086  14.444
47085W        W15426  32.538  11.722  11.909
47086W        W15427  14.754   9.212  12.549
47087W        W15428   7.336  34.533  13.465
47088W        W15429  17.590   3.338   0.468
47089W        W15430  17.627  41.966  12.351
47090W        W15431  13.279  15.309  12.063
47091W        W15432  10.227   6.416   3.734
47092W        W15433   3.848  14.775  11.856
47093W        W15434  32.601  26.530  10.914
47094W        W15435   5.299  21.139   0.311
47095W        W15436  20.527  14.100   1.274
47096W        W15437   1.738  21.568  13.452
47097W        W15438  32.634  35.942  10.964
47098W        W15439  17.727   3.908   0.737
47099W        W15440  22.570  37.473  10.937
47100W        W15441  17.234  23.082  13.315
47101W        W15442  24.036   9.719   4.830
47102W        W15443  42.443  21.101   2.672
47103W        W15444  44.804   6.917   1.375
47104W        W15445  15.718   5.879   1.251
47105W        W15446  25.580   0.355  11.987
47106W        W15447  12.792  35.081  13.507
47107W        W15448   1.971  38.872  12.481
47108W        W15449   3.251  26.628   3.656
47109W        W15450  19.086  44.876  11.857
47110W        W15451  12.194  43.915   3.299
47111W        W15452  37.860   5.841   4.138
47112W        W15453  23.634   1.846  12.369
47113W        W15454  35.042  37.966   2.268
47114W        W15455   8.214  12.723  12.934
47115W        W15456  22.696  44.983  12.010
47116W        W15457   7.371  13.206  13.885
47117W        W15458  34.005   3.748  13.020
47118W        W15459  41.872   4.748   1.255
47119W        W15460  28.159  39.945  13.322
47120W        W15461  10.693  10.176   2.796
47121W        W15462   4.373  33.521   0.730
47122W        W15463  20.130  30.139  13.374
47123W        W15464  39.493   7.340   2.770
47124W        W15465  43.883  29.460   2.252
47125W        W15466  18.186  14.155   3.236
47126W        W15467  36.050  31.499  12.020
47127W        W15468  10.812  23.541   3.817
47128W        W15469  11.225  14.776  12.091
47129W        W15470  29.129  33.590   1.337
47130W        W15471  32.076   6.378  11.609
47131W        W15472  34.516  31.450  13.854
47132W        W15473  25.604   5.362  12.483
47133W        W15474   9.687   1.244  11.493
47134W        W15475  41.858  24.113  11.933
47135W        W15476  41.503   3.243  12.907
47136W        W15477  11.835  40.524   0.871
47137W        W15478  42.831  29.047   3.382
47138W        W15479  28.141  39.464  14.423
47139W        W15480  28.057  12.204  14.895
47140W        W15481  24.666  35.984   0.742
47141W        W15482  34.615  36.068  13.904
47142W        W15483   5.774   2.266  11.128
47143W        W15484   0.898  10.677   4.665
47144W        W15485  11.656  32.018   4.223
47145W        W15486  43.489  30.619   3.148
47146W        W15487   2.768  21.579  12.453
47147W        W15488   2.859  43.343  10.942
47148W        W15489  24.125  22.149  12.855
47149W        W15490  43.883   7.669   2.773
47150W        W15491  28.470  21.652  14.370
47151W        W15492  31.960   6.745   1.281
47152W        W15493  20.541  43.428  13.503
47153W        W15494  37.051  32.121  12.081
47154W        W15495  30.422  21.636   3.279
47155W        W15496  34.878  10.355   1.830
47156W        W15497   4.393  42.971  11.549
47157W        W15498  33.451  36.924   3.719
47158W        W15499  30.526  33.394  13.047
47159W        W15500  44.802  29.076   2.194
47160W        W15501  44.934  30.537   3.753
47161W        W15502  24.487   4.803  11.534
47162W        W15503   6.756  39.827  10.491
47163W        W15504  18.609  16.682  12.937
47164W        W15505   8.366  23.026   3.673
47165W        W15506  18.622  37.401  14.777
47166W        W15507  18.161  27.193  11.409
47167W        W15508  22.507  27.158  13.473
47168W        W15509  12.824  29.431   1.744
47169W        W15510   1.334  13.348   0.441
47170W        W15511  14.815   6.277  12.014
47171W        W15512  24.101   2.417   3.815
47172W        W15513  21.597  33.407   0.839
47173W        W15514  21.539  35.041   4.181
47174W        W15515  28.142  28.931  10.033
47175W        W15516  41.332  28.635  14.387
47176W        W15517  40.851  36.097  12.992
47177W        W15518   7.291  16.743  10.539
47178W        W15519   8.313  41.377  10.906
47179W        W15520  22.054  36.923  11.903
47180W        W15521  35.004  42.290  11.122
47181W        W15522   4.222  24.541  11.950
47182W        W15523  26.475  44.981  13.369
47183W        W15524  39.494  42.942   9.992
47184W        W15525   4.328  36.530  10.500
47185W        W15526  25.490  12.679   0.358
47186W        W15527  29.936   5.361  13.885
47187W        W15528   8.344   8.732   2.274
47188W        W15529   0.898   1.423  13.535
47189W        W15530  17.211   1.977  12.573
47190W        W15531  23.720  31.940   0.766
47191W        W15532  33.022   3.414  12.498
47192W        W15533  38.499  41.893   2.295
47193W        W15534  16.760  21.210  10.961
47194W        W15535  39.406  26.650   3.741
47195W        W15536  13.716   4.846   3.367
47196W        W15537   1.343  27.605   2.745
47197W        W15538  19.089   3.814   3.725
47198W        W15539  18.184   2.269   3.694
47199W        W15540  31.556  30.605   1.887
47200W        W15541  30.163  44.984   3.756
47201W        W15542  25.574  30.621   2.292
47202W        W15543   1.257  11.832   0.261
47203W        W15544  37.064  26.040   4.789
47204W        W15545  42.850  24.576   4.157
47205W        W15546  40.508  17.729   2.371
47206W        W15547  16.634  11.713   3.716
47207W        W15548  18.096  37.491   3.783
47208W        W15549  12.318  25.612  13.026
47209W        W15550  13.246  11.836   5.602
47210W        W15551  36.874   2.287   1.790
47211W        W15552  21.650  19.068   4.232
47212W        W15553  16.131  24.548   4.251
47213W        W15554  26.954  33.967  10.976
47214W        W15555  25.538  44.825   0.915
47215W        W15556  15.628  29.479   0.327
47216W        W15557  23.118   1.296   1.915
47217W        W15558  27.446  37.881  11.426
47218W        W15559   2.406  19.111   4.282
47219W        W15560  36.416   3.859   0.404
47220W        W15561   6.685  34.054  12.019
47221W        W15562  12.282  14.292  14.809
47222W        W15563  16.072  22.081  13.337
47223W        W15564  29.153  34.050   0.315
47224W        W15565  14.834  29.445   3.843
47225W        W15566  34.430  37.372  11.031
47226W        W15567  23.201  25.595  13.500
47227W        W15568  31.426  25.601   0.426
47228W        W15569  34.493  37.907   3.711
47229W        W15570   5.291  24.514  12.961
47230W        W15571  27.581  23.989  13.989
47231W        W15572  29.129  29.995  12.851
47232W        W15573   3.395  43.839  11.065
47233W        W15574  13.117  12.716  14.842
47234W        W15575  32.527  18.079   2.349
47235W        W15576  33.098  14.222   3.148
47236W        W15577  20.684  11.257   3.725
47237W        W15578  24.197  13.312  14.974
47238W        W15579  24.502  29.566   2.284
47239W        W15580   6.421   7.243   9.976
47240W        W15581  37.915  14.597   2.321
47241W        W15582  39.810  15.245  12.570
47242W        W15583   4.272  14.161   1.827
47243W        W15584  28.590  31.122   1.354
47244W        W15585  22.727  19.676  12.508
47245W        W15586   4.222  14.712  14.338
47246W        W15587   2.754  12.248  12.945
47247W        W15588   7.319  21.216   1.440
47248W        W15589   0.817  33.522  10.138
47249W        W15590  35.367  33.958  14.804
47250W        W15591   5.832  16.802  12.926
47251W        W15592   6.280  30.908   4.802
47252W        W15593  42.372   2.730  13.498
47253W        W15594  42.943  26.178   3.154
47254W        W15595  43.904   6.254   0.284
47255W        W15596  42.333  19.069  10.465
47256W        W15597  39.861   2.348  11.020
47257W        W15598  36.436  22.665  10.479
47258W        W15599  26.986  26.522   1.254
47259W        W15600  39.843   4.297   0.387
47260W        W15601  23.026   5.344   2.306
47261W        W15602   4.268   2.453   0.882
47262W        W15603  38.529  22.578  12.464
47263W        W15604  41.951  42.292   3.309
47264W        W15605  22.073  16.246  14.759
47265W        W15606  10.679  21.523  13.442
47266W        W15607   9.208   8.343   3.841
47267W        W15608  21.628  23.164   3.280
47268W        W15609  40.451  16.770  13.909
47269W        W15610  10.238   3.954  13.043
47270W        W15611  19.576  44.495  13.316
47271W        W15612  35.896  33.019   0.951
47272W        W15613  25.713  27.645  14.993
47273W        W15614   0.837  28.678  10.521
47274W        W15615  36.028  11.154  12.341
47275W        W15616  13.824  41.479  14.878
47276W        W15617  29.150  18.153  11.929
47277W        W15618  27.038   5.910   2.274
47278W        W15619  21.100  10.199   0.313
47279W        W15620  42.360  36.918   3.379
47280W        W15621  21.670  15.628   4.680
47281W        W15622  17.599  20.698  10.003
47282W        W15623  13.251  39.506   2.417
47283W        W15624   0.932  19.668  13.828
47284W        W15625  28.084   5.399   1.372
47285W        W15626  10.660  17.699  12.029
47286W        W15627  44.374  44.854   3.369
47287W        W15628  35.502  24.217   2.784
47288W        W15629  30.095  20.099   4.161
47289W        W15630  11.724  44.846  11.510
47290W        W15631   3.723  40.893  13.909
47291W        W15632  39.958  16.277   3.182
47292W        W15633  40.344  17.259   0.872
47293W        W15634   0.434  36.981  14.791
47294W        W15635   6.907  35.998  12.059
47295W        W15636  12.800  27.019  11.979
47296W        W15637  37.526   9.188  13.878
47297W        W15638   7.768  42.019   0.420
47298W        W15639  15.215  13.761  12.385
47299W        W15640   2.382  26.689   1.393
47300W        W15641   6.298   0.894  14.914
47301W        W15642   4.387  43.284   3.147
47302W        W15643   5.433  19.702   0.874
47303W        W15644  36.415  14.105  10.549
47304W        W15645  16.729  18.097   2.695
47305W        W15646   2.868   7.200   3.793
47306W        W15647   1.919  18.228   3.649
47307W        W15648  17.277  38.514   3.821
47308W        W15649  35.058  23.689  13.429
47309W        W15650   0.471  41.955  11.106
47310W        W15651  11.648  35.040   4.609
47311W        W15652  15.627  37.577   0.779
47312W        W15653  37.532   9.309   3.298
47313W        W15654  27.960  12.645  10.566
47314W        W15655  15.759  35.544  11.494
47315W        W15656  26.127  19.072   2.816
47316W        W15657  40.878   4.289  11.473
47317W        W15658  13.269  31.916  12.008
47318W        W15659  24.193   3.305   2.233
47319W        W15660  26.001  15.163  12.027
47320W        W15661   3.763  28.448  11.580
47321W        W15662  21.537  10.310  13.521
47322W        W15663  32.436   3.744  11.508
47323W        W15664  22.040  42.321   0.469
47324W        W15665  23.235  23.035  11.532
47325W        W15666  33.604  15.647  12.406
47326W        W15667  11.180  36.890  13.919
47327W        W15668  22.655  31.608  12.016
47328W        W15669  32.397  31.125  10.643
47329W        W15670   9.290  28.026  13.831
47330W        W15671  13.193  31.988   3.361
47331W        W15672  13.196  28.662  14.009
47332W        W15673  29.425  28.148   4.334
47333W        W15674  33.875  39.539  11.451
47334W        W15675  33.017  25.590   1.235
47335W        W15676  34.865  18.690   1.813
47336W        W15677  32.397  43.499  13.535
47337W        W15678  14.162  21.701  12.016
47338W        W15679   6.756   0.443  13.008
47339W        W15680  15.595  18.260  10.101
47340W        W15681  41.390  35.103  14.860
47341W        W15682  21.523  11.184  10.609
47342W        W15683  31.965  11.701   2.693
47343W        W15684  28.171  14.274  11.487
47344W        W15685  32.947  21.044   1.892
47345W        W15686  34.493  11.746  14.011
47346W        W15687  31.589  15.191   0.810
47347W        W15688  11.676  37.005   1.892
47348W        W15689  23.120  40.541  10.605
47349W        W15690  15.694  33.604   2.299
47350W        W15691  15.736   7.886   4.158
47351W        W15692  14.657  38.472   1.696
47352W        W15693  30.646  10.328  13.341
47353W        W15694  37.532   5.333   4.679
47354W        W15695  35.055   2.327   4.216
47355W        W15696  31.426  22.195  11.917
47356W        W15697  27.081  43.325   4.836
47357W        W15698  43.446  10.364  14.794
47358W        W15699  38.515  39.064  12.914
47359W        W15700  14.246  27.450   2.399
47360W        W15701   3.458  21.227   0.920
47361W        W15702  21.044   2.728   3.716
47362W        W15703  14.713  22.615   3.347
47363W        W15704  25.213  13.600   2.803
47364W        W15705  20.597  34.430   3.197
47365W        W15706  15.673  15.606   4.601
47366W        W15707  27.493  21.666   4.228
47367W        W15708  38.346  36.396   2.379
47368W        W15709  10.690  27.612   1.718
47369W        W15710  24.578  38.955   4.779
47370W        W15711   6.306  10.734  14.458
47371W        W15712  27.542  10.362   4.212
47372W        W15713  36.956  42.344   3.629
47373W        W15714  27.500   6.307   4.274
47374W        W15715  13.332   6.285   5.149
47375W        W15716  17.603  20.046   4.272
47376W        W15717   3.899  16.715  14.881
47377W        W15718  38.501  15.293   3.342
47378W        W15719   9.239  31.421   3.648
47379W        W15720  35.945   1.472   2.364
47380W        W15721   4.324  25.587  12.885
47381W        W15722  39.425  28.930  12.901
47382W        W15723   5.713  44.943   4.183
47383W        W15724  19.624  26.471   0.312
47384W        W15725  37.577  23.491  11.604
47385W        W15726  22.019  12.352  12.874
47386W        W15727  23.180  13.609   2.871
47387W        W15728  33.543  25.071  14.447
47388W        W15729  30.542  42.972  11.399
47389W        W15730  25.549  24.498  13.438
47390W        W15731   5.370   0.336   4.617
47391W        W15732  19.045  16.804   4.189
47392W        W15733   7.881  22.183   4.260
47393W        W15734  17.645  39.823  11.445
47394W        W15735   3.875  39.063  12.936
47395W        W15736  35.049  11.368  10.544
47396W        W15737   4.825  35.024   0.862
47397W        W15738  13.306  28.622  10.915
47398W        W15739   0.280   4.893  12.559
47399W        W15740  17.667  40.871  10.583
47400W        W15741   7.741  25.975   2.816
47401W        W15742  23.240  13.326  11.960
47402W        W15743  33.478  34.447   2.398
47403W        W15744  32.065   5.251   2.214
47404W        W15745  16.725  12.843  14.356
47405W        W15746  32.609  43.962  12.999
47406W        W15747   3.254   7.683   2.745
47407W        W15748  21.191  17.766   1.338
47408W        W15749   1.881  21.695   1.870
47409W        W15750  35.372  43.940   2.775
47410W        W15751  29.640  17.696  12.410
47411W        W15752  40.431  42.502   4.291
47412W        W15753  14.135  37.011  13.402
47413W        W15754   9.258  11.194   4.698
47414W        W15755  21.555   2.248   1.385
47415W        W15756  33.990  10.192   4.709
47416W        W15757  22.710  13.743   2.195
47417W        W15758  19.610   0.356  12.382
47418W        W15759  28.521   0.796  13.930
47419W        W15760  20.632   0.893  12.897
47420W        W15761  11.808  32.407   2.258
47421W        W15762   9.252   6.698   3.742
47422W        W15763  32.952  37.459  12.899
47423W        W15764  20.610   8.752   2.662
47424W        W15765  10.729   1.880  12.094
47425W        W15766  44.386  44.261   1.921
47426W        W15767  26.141  42.366  11.040
47427W        W15768  18.083   4.259   1.694
47428W        W15769  14.184  19.274  10.477
47429W        W15770  26.029  26.623  12.406
47430W        W15771  30.046  15.148   1.720
47431W        W15772  21.661  27.961  11.525
47432W        W15773   8.843  13.637   1.862
47433W        W15774  22.207  20.745   3.777
47434W        W15775  12.316  35.548   0.963
47435W        W15776  16.130  36.367  14.489
47436W        W15777  25.150  37.885  11.020
47437W        W15778   4.339  25.646   4.315
47438W        W15779  10.853  13.111   1.401
47439W        W15780   6.398  35.015   2.183
47440W        W15781  10.289  19.773   2.739
47441W        W15782  25.503  20.765  14.511
47442W        W15783  10.146  42.504  14.384
47443W        W15784  36.026  24.649   0.817
47444W        W15785  34.942  39.316   1.263
47445W        W15786   4.380  13.207  14.459
47446W        W15787  41.809  28.946   4.211
47447W        W15788  13.187  26.172   4.672
47448W        W15789  22.590   6.398   3.644
47449W        W15790   4.784  24.082   2.416
47450W        W15791   1.832  29.519   5.193
47451W        W15792  39.444   2.244  13.824
47452W        W15793  29.630  16.159  11.860
47453W        W15794  38.968  18.713   0.260
47454W        W15795  15.156  31.997   9.575
47455W        W15796  21.254  37.548  11.603
47456W        W15797  16.099  16.248   0.921
47457W        W15798  41.895  11.270  13.891
47458W        W15799  17.097  32.130  11.494
47459W        W15800  40.894  22.068  12.469
47460W        W15801   1.814  15.137   1.870
47461W        W15802  42.340  38.557  12.421
47462W        W15803  39.014   3.833   0.946
47463W        W15804  20.162  32.986  12.901
47464W        W15805  34.018  27.557   4.718
47465W        W15806   6.808  38.332   2.881
47466W        W15807  30.549   2.277   0.460
47467W        W15808  15.090   0.469  12.455
47468W        W15809  19.137  17.758  12.398
47469W        W15810   5.362  10.754   1.700
47470W        W15811  20.156   2.246  12.909
47471W        W15812  34.471  17.079   2.902
47472W        W15813  21.585  29.596  10.128
47473W        W15814  22.123  28.168   4.326
47474W        W15815  14.589  34.402   0.246
47475W        W15816  12.350  12.742   9.544
47476W        W15817  38.379  35.448   0.896
47477W        W15818  31.966  42.338   1.341
47478W        W15819  10.776  23.195   4.320
47479W        W15820  41.960  39.555  11.119
47480W        W15821  24.115  34.604  12.571
47481W        W15822  43.860   5.777  13.391
47482W        W15823  10.339  37.483  12.091
47483W        W15824  13.163  41.018  14.346
47484W        W15825  43.493  31.907  11.876
47485W        W15826  30.495  12.634  14.778
47486W        W15827  37.527  32.035  13.503
47487W        W15828  13.780  11.693  13.426
47488W        W15829  25.130  38.060   2.748
47489W        W15830   1.322  24.539  14.307
47490W        W15831  11.631   5.354   1.727
47491W        W15832  17.112  29.020   4.759
47492W        W15833  10.339  33.977   0.821
47493W        W15834  21.749  32.067   5.109
47494W        W15835  14.256   5.757   0.380
47495W        W15836  22.221  18.706  10.155
47496W        W15837   3.324  11.151   0.316
47497W        W15838  19.632  17.749   2.871
47498W        W15839  10.758  25.193   4.625
47499W        W15840  44.415  17.559   5.173
47500W        W15841  42.872  16.288   3.839
47501W        W15842   1.460  14.633   2.811
47502W        W15843  34.888  39.915   4.818
47503W        W15844  14.097   2.808   2.216
47504W        W15845  29.083   0.843   1.731
47505W        W15846   7.294  42.448  11.081
47506W        W15847  41.949  12.360   0.733
47507W        W15848   4.796  16.635  14.031
47508W        W15849  35.011  36.374  10.890
47509W        W15850   6.715   7.283  12.015
47510W        W15851   1.842  19.724   5.321
47511W        W15852  44.956   8.885   4.340
47512W        W15853   6.313  16.105   0.778
47513W        W15854  30.156   0.465   1.428
47514W        W15855  14.317  11.304  11.497
47515W        W15856  33.077  26.673   1.696
47516W        W15857   2.397  12.818  13.933
47517W        W15858  20.698  10.147   1.414
47518W        W15859   2.301   3.728  14.862
47519W        W15860  32.617  44.500  11.514
47520W        W15861   3.945  39.558  11.962
47521W        W15862  11.626  17.130   0.285
47522W        W15863  20.552  26.611   3.340
47523W        W15864  20.173  36.518  12.385
47524W        W15865  39.974  17.079   2.225
47525W        W15866  39.881  39.549   0.458
47526W        W15867   9.649  14.177   4.290
47527W        W15868   3.217  21.044  11.927
47528W        W15869  13.837   0.798   4.639
47529W        W15870  36.870  24.595  12.074
47530W        W15871  30.446  41.904   3.319
47531W        W15872   8.395  42.343  14.308
47532W        W15873  31.062  35.549  10.405
47533W        W15874  44.990   5.869  12.977
47534W        W15875  17.297   2.736   2.384
47535W        W15876  35.891  41.940   3.665
47536W        W15877  26.529   5.379  11.598
47537W        W15878  15.660  33.488   2.710
47538W        W15879  37.404  21.725  12.937
47539W        W15880   7.406   0.821  14.832
47540W        W15881  25.484  42.445   3.366
47541W        W15882  40.822   6.221   0.441
47542W        W15883  19.155   7.361   1.322
47543W        W15884  38.529  34.594  14.487
47544W        W15885  11.823  32.073   2.818
47545W        W15886   2.863  10.248  10.904
47546W        W15887  18.789  12.234  12.844
47547W        W15888  16.165   7.728  14.971
47548W        W15889   3.748   5.897   1.735
47549W        W15890   4.393  32.035  10.943
47550W        W15891  19.259  30.952  14.334
47551W        W15892  44.981  37.370  12.402
47552W        W15893   0.288   2.764  12.000
47553W        W15894  23.691   1.859   0.885
47554W        W15895   1.961  12.695   4.123
47555W        W15896   2.460  23.238  11.569
47556W        W15897   0.385  31.565  10.550
47557W        W15898  39.480  42.328   1.298
47558W        W15899   5.347  32.029  11.435
47559W        W15900  44.440  17.740   3.195
47560W        W15901  41.403  28.074  10.500
47561W        W15902  42.423  14.807   2.851
47562W        W15903  37.367  43.777  10.543
47563W        W15904   7.811  27.472  12.502
47564W        W15905  14.783   8.220   4.167
47565W        W15906  12.131   3.886   1.709
47566W        W15907  34.561  16.767  14.380
47567W        W15908  32.526  40.052   9.924
47568W        W15909  13.611   9.706   1.850
47569W        W15910  26.146  27.672  12.580
47570W        W15911  24.111  41.445  14.780
47571W        W15912  12.848  16.592  14.304
47572W        W15913  16.687   5.294   3.684
47573W        W15914  43.896  16.289   1.713
47574W        W15915  42.464  14.118  12.529
47575W        W15916  17.135  30.578  11.882
47576W        W15917  19.701  38.470   1.261
47577W        W15918  19.605  10.332   0.451
47578W        W15919  27.558   4.917   0.328
47579W        W15920   4.441   6.701   3.177
47580W        W15921   3.840   8.710   2.332
47581W        W15922   8.882   3.849  12.507
47582W        W15923  30.921  18.066   4.708
47583W        W15924  20.737  36.068   0.767
47584W        W15925  10.763  34.903   0.367
47585W        W15926  12.822  39.374  14.817
47586W        W15927   7.789  24.057  14.761
47587W        W15928  39.479  20.104   2.762
47588W        W15929  13.779   3.369  14.989
47589W        W15930  21.242  26.566  12.469
47590W        W15931  30.983  17.112   1.722
47591W        W15932  12.218  11.254  13.363
47592W        W15933  19.609  44.498   4.752
47593W        W15934  44.371   8.217  11.970
47594W        W15935  12.118  40.437   9.923
47595W        W15936  25.002   4.409  14.428
47596W        W15937  40.492   8.745   3.373
47597W        W15938   4.702   7.177  11.993
47598W        W15939   9.810  41.425   1.230
47599W        W15940  17.194  16.117  11.092
47600W        W15941   3.347  20.701  11.887
47601W        W15942  35.455  34.586  11.494
47602W        W15943  19.214   4.345   3.289
47603W        W15944  27.550  34.950  12.381
47604W        W15945  13.151  39.351  10.927
47605W        W15946  37.941   8.292   4.276
47606W        W15947  33.958  25.190   4.245
47607W        W15948  21.685  32.424  10.438
47608W        W15949  17.688   7.669   1.297
47609W        W15950  25.515  18.205   0.312
47610W        W15951  40.842  29.995   4.748
47611W        W15952  16.622   4.416   0.290
47612W        W15953  31.587   6.803   1.356
47613W        W15954  37.448  13.189  14.826
47614W        W15955  28.606  34.928  11.047
47615W        W15956   4.884  12.149   0.727
47616W        W15957   3.333  20.096   3.236
47617W        W15958   1.855  13.646   1.704
47618W        W15959  22.547  28.971   2.753
47619W        W15960   6.678  14.768  14.862
47620W        W15961  32.474  13.662   3.681
47621W        W15962  24.691   3.785   3.197
47622W        W15963  26.664  30.461  10.568
47623W        W15964   8.309  34.095  13.893
47624W        W15965  15.102  12.341  14.777
47625W        W15966  25.694  15.707   2.878
47626W        W15967   4.859   9.738  10.611
47627W        W15968   8.794  14.290  14.858
47628W        W15969  21.223  13.615   1.849
47629W        W15970  41.961  17.708  10.601
47630W        W15971  30.519  18.557  12.016
47631W        W15972  18.742  32.096  11.884
47632W        W15973   6.245  35.101  10.087
47633W        W15974  36.434  17.638   3.770
47634W        W15975  18.665  39.896  11.089
47635W        W15976   6.888  20.130  13.828
47636W        W15977  38.854  35.428  12.466
47637W        W15978  10.138  40.858  12.952
47638W        W15979  44.782  41.412   4.668
47639W        W15980  11.325  31.044   3.331
47640W        W15981  33.011  38.542  14.779
47641W        W15982  28.083  17.793   2.735
47642W        W15983  43.290  43.988  13.456
47643W        W15984  26.622  13.132   4.273
47644W        W15985   1.413  14.238  12.549
47645W        W15986  24.119  14.650  13.365
47646W        W15987  16.124   3.455   3.690
47647W        W15988  12.631  33.409   0.893
47648W        W15989   2.782  12.666  10.645
47649W        W15990  23.042  20.137   1.362
47650W        W15991  36.451   3.372  12.396
47651W        W15992  14.607  11.830   2.392
47652W        W15993  31.488  19.606  13.379
47653W        W15994  24.127  28.477   3.749
47654W        W15995  16.319  40.530   0.450
47655W        W15996  32.465  12.660   2.834
47656W        W15997  20.601  21.076   2.227
47657W        W15998  22.734  26.475   3.239
47658W        W15999  37.532   3.902  12.041
47659W        W16000  19.639   1.738  13.486
47660W        W16001   0.940   3.447  13.968
47661W        W16002  29.053   0.765   0.817
47662W        W16003  28.626  20.092  14.443
47663W        W16004   2.274  14.613   0.960
47664W        W16005  37.432  35.106  13.372
47665W        W16006  35.362  32.599  12.523
47666W        W16007  39.842  29.615   2.898
47667W        W16008  32.506  24.980  11.458
47668W        W16009  16.690  26.953  11.873
47669W        W16010  16.125  18.727  11.592
47670W        W16011  35.037   2.363  14.915
47671W        W16012  10.794   4.871  14.808
47672W        W16013  18.620  21.751  10.971
47673W        W16014  27.145  17.738   4.235
47674W        W16015  10.244   3.318  13.400
47675W        W16016  31.597   2.756  10.493
47676W        W16017  16.630  33.006   0.455
47677W        W16018  25.012  36.364  12.031
47678W        W16019  42.785  21.656   3.287
47679W        W16020  18.588   5.220   4.266
47680W        W16021  19.590   6.846  14.456
47681W        W16022  20.752  10.775   2.230
47682W        W16023   8.656  35.092   2.371
47683W        W16024  40.540  44.908  12.033
47684W        W16025  18.555  20.227  14.021
47685W        W16026  42.023  14.261   1.426
47686W        W16027  43.432  33.483   2.227
47687W        W16028  35.948  35.950  13.006
47688W        W16029  10.797  24.050  11.920
47689W        W16030  34.967  13.652  12.827
47690W        W16031   2.323  24.992  11.487
47691W        W16032  28.180  36.851  13.919
47692W        W16033  31.909   7.323  11.963
47693W        W16034  44.002  12.235   0.728
47694W        W16035  28.647  41.536  13.377
47695W        W16036  35.429  13.707   1.900
47696W        W16037  31.937  26.002   2.286
47697W        W16038  12.177  28.997  12.055
47698W        W16039  12.757   8.262  13.009
47699W        W16040  32.552  38.458  12.434
47700W        W16041   9.703  37.411  10.047
47701W        W16042   8.346  35.877   0.389
47702W        W16043  38.956   8.318   1.330
47703W        W16044  32.122  10.212  14.993
47704W        W16045  41.469  23.065  12.002
47705W        W16046  16.663  30.032   3.334
47706W        W16047  17.180  24.543   2.831
47707W        W16048  29.551  37.522  12.840
47708W        W16049  41.967  26.650   3.639
47709W        W16050  33.389  20.262  12.380
47710W        W16051  15.209  44.790   2.852
47711W        W16052  29.133  42.453   4.801
47712W        W16053   1.922   7.348  11.063
47713W        W16054  22.651  36.919   3.778
47714W        W16055   6.255  20.173  12.367
47715W        W16056  31.116   7.811   2.773
47716W        W16057  17.666  35.366  14.316
47717W        W16058  42.410  35.432  11.430
47718W        W16059  30.038   8.176  11.987
47719W        W16060  15.683  28.028   1.290
47720W        W16061  12.687  20.578  13.016
47721W        W16062  20.534  44.434   2.209
47722W        W16063   5.777  16.632   4.280
47723W        W16064  44.893  39.821  10.554
47724W        W16065  11.185  36.086  14.828
47725W        W16066  13.129  31.423  11.485
47726W        W16067  36.466  43.372   1.815
47727W        W16068  21.620   9.281   3.712
47728W        W16069  10.165  16.250  14.514
47729W        W16070  44.380   7.324   1.435
47730W        W16071   9.786  37.077   4.686
47731W        W16072   6.187   3.825  14.788
47732W        W16073  15.138   8.265   3.348
47733W        W16074  12.287   2.927   4.810
47734W        W16075   7.719  18.618   1.785
47735W        W16076   8.761   9.237   1.362
47736W        W16077  32.043  26.581  13.319
47737W        W16078  11.257  31.000  11.449
47738W        W16079  44.429   6.294   0.898
47739W        W16080  31.408   3.886   0.380
47740W        W16081  13.701  23.558  11.417
47741W        W16082   0.475   4.295  10.961
47742W        W16083  15.171  27.072   4.794
47743W        W16084  21.632   5.833  11.428
47744W        W16085   1.850  29.629  11.055
47745W        W16086   5.280   1.374   4.300
47746W        W16087  44.915  14.097   1.832
47747W        W16088  27.521  22.063   2.894
47748W        W16089   0.381  13.790   3.200
47749W        W16090   6.412  36.584   3.764
47750W        W16091  10.147  23.090   2.793
47751W        W16092  20.616  40.370   1.891
47752W        W16093  35.457   1.824   0.754
47753W        W16094  44.455  12.144  12.499
47754W        W16095  35.023  35.427  10.525
47755W        W16096  41.815  13.727  13.310
47756W        W16097  39.943  15.234  13.320
47757W        W16098  28.631   1.467  12.847
47758W        W16099   4.734  15.650   4.128
47759W        W16100  29.104  38.571  13.527
47760W        W16101  12.705  31.469  11.081
47761W        W16102  27.495   9.872  13.999
47762W        W16103  35.006  10.706   1.842
47763W        W16104  28.606  33.604  14.985
47764W        W16105  18.102  36.971   3.278
47765W        W16106  39.370   1.455   1.709
47766W        W16107   4.746   1.919   0.463
47767W        W16108  30.564   4.450   4.241
47768W        W16109   9.191  25.010  13.006
47769W        W16110   0.394  25.551  12.878
47770W        W16111   9.186  18.294  13.861
47771W        W16112  44.368  20.039  11.480
47772W        W16113  28.049   1.935   4.262
47773W        W16114   6.824  11.642   0.394
47774W        W16115  11.372  10.809   4.302
47775W        W16116  23.561  16.191   0.322
47776W        W16117  16.300  14.746  11.871
47777W        W16118  14.209  32.937  12.997
47778W        W16119  38.044  23.020  12.909
47779W        W16120   6.413  29.582  13.435
47780W        W16121  24.168  22.611  13.822
47781W        W16122  29.634  12.258  13.505
47782W        W16123  13.214  19.079  10.489
47783W        W16124  22.195  11.728   0.435
47784W        W16125  11.664  16.145  13.855
47785W        W16126   6.400  16.314   0.443
47786W        W16127  32.479   5.379  11.040
47787W        W16128  36.448   3.939  14.953
47788W        W16129  36.517   8.667  10.050
47789W        W16130  23.131  11.823   2.798
47790W        W16131  36.505  35.503   0.930
47791W        W16132  38.484  42.467   9.593
47792W        W16133   7.705  21.034  12.828
47793W        W16134  38.373  15.720   2.181
47794W        W16135  21.244  37.458  12.896
47795W        W16136  39.834  33.468  14.026
47796W        W16137   0.763   2.452   1.891
47797W        W16138  35.879  30.961  13.063
47798W        W16139   2.317  12.283   2.876
47799W        W16140  32.521  16.300   1.348
47800W        W16141   5.848  23.198  12.381
47801W        W16142  16.755  24.605   4.675
47802W        W16143  21.126   8.746   1.394
47803W        W16144  41.433  38.402   4.639
47804W        W16145   7.344  41.419  10.632
47805W        W16146  41.482  23.205  12.378
47806W        W16147  23.674  13.303   1.326
47807W        W16148  30.042  10.721  14.813
47808W        W16149  19.168  24.009   3.362
47809W        W16150  40.317  28.653   1.731
47810W        W16151  20.731  44.998   3.176
47811W        W16152  32.522  34.613   0.389
47812W        W16153   7.791  34.551  13.806
47813W        W16154  28.035  28.535  11.035
47814W        W16155  25.494  19.282   0.385
47815W        W16156  12.183  42.315   4.660
47816W        W16157   9.230  35.420   1.356
47817W        W16158  39.876  40.368   0.399
47818W        W16159  19.578  22.247  14.762
47819W        W16160  41.827   6.801   1.853
47820W        W16161  28.001  43.894  13.819
47821W        W16162  23.720  13.620   2.750
47822W        W16163  34.598  31.150  13.495
47823W        W16164  35.072   2.855  13.926
47824W        W16165  21.235   1.257  12.410
47825W        W16166   6.791  15.614  11.551
47826W        W16167  12.316  21.621   4.126
47827W        W16168  12.691   4.738  13.385
47828W        W16169   6.427  12.731   4.614
47829W        W16170  28.003  15.083   1.795
47830W        W16171  33.429  31.580  13.392
47831W        W16172   4.768  29.436   1.726
47832W        W16173  25.671  22.591   5.143
47833W        W16174  22.651  30.568  11.431
47834W        W16175  17.306  31.138   2.250
47835W        W16176  34.469  18.151  11.398
47836W        W16177   2.966  39.919  12.834
47837W        W16178   2.366   4.834   3.869
47838W        W16179  33.520  32.623  14.823
47839W        W16180   9.823   6.710   3.695
47840W        W16181   0.887  10.687  13.507
47841W        W16182  12.264  34.515  12.571
47842W        W16183   6.333  32.030  11.064
47843W        W16184   8.393  43.987   3.643
47844W        W16185   6.297  31.021   2.767
47845W        W16186  17.767   8.265  12.404
47846W        W16187  36.921  29.023  11.525
47847W        W16188  32.464  16.575  10.454
47848W        W16189   8.898  22.668   3.812
47849W        W16190  26.174   4.241  13.384
47850W        W16191  15.198  20.723  12.536
47851W        W16192  37.046  17.598  14.330
47852W        W16193  42.895  10.341  10.614
47853W        W16194   3.903  31.486   4.250
47854W        W16195   3.396  41.304   3.818
47855W        W16196  14.229   4.741   3.234
47856W        W16197  10.270  21.248   5.181
47857W        W16198  13.841   4.909  14.429
47858W        W16199  18.087   6.343   0.876
47859W        W16200  15.814  32.977  11.966
47860W        W16201  32.492  44.356   2.757
47861W        W16202   9.693  31.055  11.960
47862W        W16203  38.473  27.151  13.383
47863W        W16204   1.272   4.441   1.415
47864W        W16205   3.877  11.350   0.909
47865W        W16206  21.071  16.238   0.820
47866W        W16207  12.791  40.856  11.536
47867W        W16208  39.382  41.871  13.891
47868W        W16209  10.728  24.506   3.770
47869W        W16210  44.869  24.188  12.436
47870W        W16211  24.044  20.727  12.084
47871W        W16212   4.795  33.003  11.001
47872W        W16213  28.065  19.193   4.126
47873W        W16214  12.650  44.941  14.460
47874W        W16215  29.052  21.084   4.202
47875W        W16216   6.782  16.735   3.242
47876W        W16217  25.584  42.309  11.401
47877W        W16218  20.061   7.355  10.158
47878W        W16219  16.724  19.651  12.054
47879W        W16220   9.791  31.945   2.722
47880W        W16221  19.760  29.965  11.004
47881W        W16222  36.007   5.756   1.293
47882W        W16223  35.587  40.520   1.333
47883W        W16224  31.635  22.114   4.332
47884W        W16225   4.340   6.209  13.830
47885W        W16226  42.959  15.188   0.313
47886W        W16227  25.608  39.967   2.306
47887W        W16228  29.573  38.544   3.261
47888W        W16229  28.588  44.343  14.013
47889W        W16230  24.162  44.974   1.795
47890W        W16231  13.670  40.518   4.684
47891W        W16232  36.850  27.040   4.336
47892W        W16233  11.194  21.716   0.354
47893W        W16234  33.957   2.365   4.699
47894W        W16235  30.134  24.708   3.202
47895W        W16236  17.787  22.519  14.315
47896W        W16237  12.164  41.901  14.901
47897W        W16238  21.113  30.466  10.605
47898W        W16239   4.310  33.965   0.871
47899W        W16240  32.495   8.184  14.346
47900W        W16241  31.007   3.831  14.795
47901W        W16242  29.640  41.911  11.395
47902W        W16243  16.078   1.437  11.005
47903W        W16244  14.749  39.442  13.488
47904W        W16245  18.690  41.988   4.343
47905W        W16246  38.431  27.520  14.365
47906W        W16247  30.634  27.030   1.342
47907W        W16248  38.829   2.380   1.892
47908W        W16249  19.220   0.455   0.750
47909W        W16250  38.049  29.582   2.315
47910W        W16251  29.063  22.251   3.187
47911W        W16252   6.416  36.437   4.818
47912W        W16253  44.938  34.997  13.792
47913W        W16254  23.494  30.655   2.364
47914W        W16255  44.919   9.240  10.407
47915W        W16256  22.016  15.648  10.001
47916W        W16257  40.493  31.609  12.359
47917W        W16258  38.914  26.137   5.146
47918W        W16259  30.417  35.095   0.264
47919W        W16260  33.398  34.549  10.584
47920W        W16261  29.539  18.095  12.461
47921W        W16262  16.643   1.908   2.405
47922W        W16263  36.524  22.021   0.474
47923W        W16264  44.919  17.133   4.321
47924W        W16265  26.555  22.713  11.433
47925W        W16266  20.090  26.052   2.292
47926W        W16267  44.859  42.352  12.020
47927W        W16268  27.037  41.448   0.265
47928W        W16269  29.607  15.169  13.840
47929W        W16270  23.017  24.020  12.506
47930W        W16271   4.339  35.939  14.946
47931W        W16272  36.576  33.905  14.973
47932W        W16273  40.881  38.970   3.364
47933W        W16274   2.804  44.793   2.881
47934W        W16275   6.319  27.532  13.347
47935W        W16276  23.731  44.872   4.180
47936W        W16277  26.958   2.271   0.483
47937W        W16278   0.903  41.948  13.991
47938W        W16279   9.786  27.118  14.774
47939W        W16280   3.725   5.732  13.314
47940W        W16281   7.862  23.988  11.974
47941W        W16282  19.701  11.146  11.965
47942W        W16283  36.961  24.020  14.814
47943W        W16284  27.472   1.412  12.528
47944W        W16285  38.051  10.293   4.258
47945W        W16286  14.742  12.661   1.916
47946W        W16287  37.458  15.688  13.046
47947W        W16288   8.188   3.354  13.847
47948W        W16289   0.319  26.653   2.794
47949W        W16290  12.352  27.981   2.234
47950W        W16291  28.060  18.608  11.904
47951W        W16292  35.036  32.632   0.847
47952W        W16293  26.698   1.763   0.347
47953W        W16294  10.635  21.705   1.234
47954W        W16295   5.721  34.957   2.358
47955W        W16296  16.132  38.047  11.112
47956W        W16297  21.210   3.431   1.314
47957W        W16298  30.458  12.351  14.463
47958W        W16299   9.180  41.035   0.340
47959W        W16300  21.067   8.743  12.415
47960W        W16301  29.551   8.278   2.744
47961W        W16302  11.762  20.129  10.906
47962W        W16303   8.820   7.200   0.841
47963W        W16304  21.200   2.424   0.361
47964W        W16305  22.621  40.497  14.389
47965W        W16306  18.120   8.713  14.912
47966W        W16307  39.524  44.983  11.486
47967W        W16308  42.903  31.559   3.667
47968W        W16309  14.826   9.230   0.776
47969W        W16310   2.849  29.459  13.055
47970W        W16311  38.951   1.861   2.374
47971W        W16312  34.398  20.601   2.874
47972W        W16313  44.776  37.342  13.495
47973W        W16314   8.366  18.278  11.947
47974W        W16315   5.886  14.098  13.940
47975W        W16316  44.800  32.500  14.771
47976W        W16317   6.872  34.879  14.413
47977W        W16318  37.035  36.994  13.413
47978W        W16319   9.230  11.192   3.701
47979W        W16320  38.469  35.073   3.376
47980W        W16321  29.522  31.623  11.435
47981W        W16322  13.691   8.195  13.850
47982W        W16323  27.533  22.088   0.810
47983W        W16324  34.042  32.586  10.544
47984W        W16325  27.055  43.788   0.940
47985W        W16326  27.053  39.455   0.391
47986W        W16327  11.719  17.085  13.883
47987W        W16328  22.612  17.649  13.012
47988W        W16329  29.548   4.893   4.225
47989W        W16330   1.463  32.118  14.801
47990W        W16331  21.200   2.745  10.442
47991W        W16332   3.929  23.625  11.508
47992W        W16333  14.682   8.758  13.033
47993W        W16334  28.458  11.646   2.788
47994W        W16335   2.457  43.842  13.863
47995W        W16336   3.735  35.940   2.731
47996W        W16337  19.218  41.938   3.649
47997W        W16338   9.149  36.035  10.573
47998W        W16339  39.313   9.652   0.402
47999W        W16340  25.006  14.590  12.465
48000W        W16341  33.455  41.474  12.391
48001W        W16342  32.936  37.490  10.621
48002W        W16343   7.380  28.022  10.601
48003W        W16344   7.691  32.975  12.510
48004W        W16345   2.807  25.626  12.836
48005W        W16346  31.427  35.583  11.095
48006W        W16347   5.733  34.463  10.968
48007W        W16348  10.292  31.032   0.876
48008W        W16349  10.736  39.376   2.812
48009W        W16350  18.129  33.616   2.747
48010W        W16351  35.374  13.186  14.491
48011W        W16352  12.133  44.259  10.914
48012W        W16353   5.812  36.542   0.304
48013W        W16354   0.759  11.313   0.287
48014W        W16355  38.029  14.784  12.955
48015W        W16356   1.737   0.301   4.268
48016W        W16357   9.192  41.326  13.997
48017W        W16358  19.650  18.287  13.519
48018W        W16359   1.410  40.356  11.381
48019W        W16360   6.208  42.862   2.291
48020W        W16361  17.581  37.508   1.912
48021W        W16362   0.406  11.733  10.915
48022W        W16363  19.218  44.350  12.051
48023W        W16364   1.245  42.451  10.481
48024W        W16365  30.985  28.474  12.567
48025W        W16366   7.912  17.650  14.458
48026W        W16367  40.404   7.853   1.399
48027W        W16368  44.858  44.939  12.048
48028W        W16369   3.775  43.960   1.309
48029W        W16370  17.652  40.797   0.278
48030W        W16371   8.352  33.623  10.928
48031W        W16372  29.947   7.734  14.765
48032W        W16373   1.401  33.385  14.437
48033W        W16374  38.985  39.390   5.145
48034W        W16375  29.430  18.788   2.761
48035W        W16376  44.876  22.016  11.963
48036W        W16377  36.082  40.893  10.559
48037W        W16378  31.516   0.781   4.833
48038W        W16379  13.775  43.839  12.372
48039W        W16380  24.634  33.599  11.562
48040W        W16381  13.346  44.946   4.237
48041W        W16382  26.563  38.896   3.162
48042W        W16383   7.225   6.918  14.309
48043W        W16384  27.536  24.711   1.795
48044W        W16385   1.440   6.771  11.127
48045W        W16386  30.961  29.532  10.112
48046W        W16387  28.148  36.380   4.146
48047W        W16388  35.906  40.466  10.978
48048W        W16389   8.296  30.102  11.502
48049W        W16390   2.449  43.335  13.896
48050W        W16391  11.136  21.566  13.916
48051W        W16392  30.558  44.463   4.280
48052W        W16393  42.791  30.053  14.501
48053W        W16394   0.293  43.284  14.402
48054W        W16395   8.824  35.966   2.759
48055W        W16396  38.560   1.930  10.968
48056W        W16397  16.580  38.920  10.997
48057W        W16398  17.728  20.189  14.952
48058W        W16399  29.997  16.711  11.575
48059W        W16400   9.792  24.221   0.422
48060W        W16401  20.184  18.090  11.435
48061W        W16402   6.700  25.486  12.540
48062W        W16403  20.091  29.496   0.739
48063W        W16404  37.013  32.615  13.874
48064W        W16405  12.664  37.548   4.731
48065W        W16406  25.603  22.596  10.091
48066W        W16407   5.265  12.162  14.972
48067W        W16408  17.673   4.247   3.300
48068W        W16409  13.236  17.209  13.818
48069W        W16410  13.769  39.420   1.416
48070W        W16411  26.004  30.930   1.385
48071W        W16412  30.644  11.185   4.692
48072W        W16413  14.261  24.996  11.016
48073W        W16414   6.426  42.520  12.420
48074W        W16415   1.249  30.626  10.411
48075W        W16416  20.093  28.159   4.781
48076W        W16417  43.977   0.266   1.403
48077W        W16418  11.783  17.794   2.378
48078W        W16419  37.436  11.821  13.467
48079W        W16420  42.501  16.606   3.283
48080W        W16421  41.863   6.714  13.858
48081W        W16422  39.008  38.556   3.202
48082W        W16423  30.462  14.605   1.817
48083W        W16424   5.767  41.489   3.318
48084W        W16425  25.468   7.690   3.803
48085W        W16426  28.529  27.480  11.505
48086W        W16427  14.657  42.286  12.875
48087W        W16428  34.042   1.908   4.664
48088W        W16429  22.563   7.874   2.291
48089W        W16430   2.299  28.675  13.929
48090W        W16431  42.462  43.972   4.744
48091W        W16432   7.406  44.965   4.199
48092W        W16433  20.678  23.132   2.398
48093W        W16434  39.964  10.650  12.493
48094W        W16435  21.612  37.983   2.851
48095W        W16436  15.318   9.150  10.580
48096W        W16437   3.370  40.450  13.000
48097W        W16438  11.866  37.360  10.617
48098W        W16439  10.344   2.386  12.864
48099W        W16440  44.836  26.149   3.305
48100W        W16441  32.596   7.677  10.483
48101W        W16442  17.647  36.464  13.854
48102W        W16443  30.093  11.631   2.353
48103W        W16444  42.846  40.950   3.812
48104W        W16445  43.477   2.730  13.025
48105W        W16446  42.951  15.810   0.947
48106W        W16447  37.992  36.430   4.278
48107W        W16448   4.257  25.700   1.359
48108W        W16449  16.248  17.722  11.964
48109W        W16450  13.232   0.426  12.436
48110W        W16451  37.558  28.938  14.459
48111W        W16452  37.849  39.332  11.068
48112W        W16453  35.878  31.963   0.793
48113W        W16454  30.652  32.453  11.088
48114W        W16455   8.226  25.012   4.794
48115W        W16456   5.302   0.770   1.243
48116W        W16457   3.353  36.519  14.506
48117W        W16458  34.465  19.714   4.689
48118W        W16459  43.873  34.098  10.947
48119W        W16460  24.636   8.372   4.287
48120W        W16461  24.172  18.613   1.718
48121W        W16462  20.672  35.551   3.820
48122W        W16463  33.993  20.139  14.298
48123W        W16464  19.715  35.573   1.255
48124W        W16465   3.797  19.130  11.988
48125W        W16466  16.653   1.362  10.521
48126W        W16467  40.874  23.226   3.665
48127W        W16468   3.361  21.142   4.243
48128W        W16469  43.962  26.154  11.483
48129W        W16470  30.020  22.649  13.454
48130W        W16471  13.294  36.549  11.580
48131W        W16472  36.569  24.113  13.412
48132W        W16473   5.421  23.111  11.013
48133W        W16474  36.357  33.559  12.401
48134W        W16475  31.122  44.784   2.216
48135W        W16476  35.381  30.139  10.416
48136W        W16477  21.245  42.033   2.685
48137W        W16478   0.931  38.994  14.469
48138W        W16479  29.144  21.727  10.600
48139W        W16480  18.233  33.555  14.914
48140W        W16481  22.669   6.693   2.676
48141W        W16482  43.781  23.602   4.310
48142W        W16483   6.855  18.151   1.414
48143W        W16484  39.042  30.116   3.721
48144W        W16485  10.165  39.560   0.792
48145W        W16486   7.740  43.931   4.272
48146W        W16487  24.101  22.735   4.690
48147W        W16488  27.691   5.299  14.006
48148W        W16489  34.072  42.292  10.141
48149W        W16490  20.629  24.636   0.791
48150W        W16491  18.676  24.063  10.055
48151W        W16492  31.995  25.541   4.817
48152W        W16493  20.666  33.583   1.705
48153W        W16494   3.345  29.152  11.532
48154W        W16495   2.874  39.393  12.357
48155W        W16496  25.118  21.661  14.005
48156W        W16497  32.073  43.308  13.029
48157W        W16498  14.130  22.580  13.356
48158W        W16499  10.181  43.301   3.295
48159W        W16500   1.802  27.515   3.287
48160W        W16501  17.139  10.848   3.264
48161W        W16502  17.641   6.724   0.954
48162W        W16503  29.428   5.404   3.280
48163W        W16504  22.539  12.772  10.902
48164W        W16505  38.962  19.756  13.327
48165W        W16506   3.894  36.354   2.822
48166W        W16507  34.537  30.155  12.445
48167W        W16508  24.624  27.133   4.302
48168W        W16509   8.893  33.117   3.754
48169W        W16510  38.063   1.320   2.312
48170W        W16511   4.408   5.349   2.310
48171W        W16512  36.031  17.709  10.623
48172W        W16513  24.988  22.635  12.509
48173W        W16514  44.333  16.190   0.443
48174W        W16515  21.150  13.758   3.197
48175W        W16516  39.393   2.939   4.652
48176W        W16517  43.320  37.998   0.765
48177W        W16518  40.539  40.337  10.634
48178W        W16519   9.765  18.209   3.763
48179W        W16520  15.628   9.752  13.366
48180W        W16521   6.424   6.413  13.032
48181W        W16522  24.709  40.805  13.888
48182W        W16523   2.401  13.726   0.755
48183W        W16524  14.691  37.845   0.329
48184W        W16525  34.450  19.636   3.304
48185W        W16526  15.307  16.156  11.062
48186W        W16527  23.679  13.308   1.878
48187W        W16528  12.702  38.989   4.255
48188W        W16529  35.858  12.316  14.991
48189W        W16530   6.905  11.293  12.063
48190W        W16531  41.377  12.120  13.417
48191W        W16532  33.956  29.575   1.781
48192W        W16533  28.617  16.101   3.718
48193W        W16534   9.731  34.567   3.229
48194W        W16535   1.309  32.900   0.886
48195W        W16536   4.295  20.242   0.448
48196W        W16537   3.291  32.412   3.704
48197W        W16538  20.271  43.947   2.823
48198W        W16539  21.234  31.969   5.101
48199W        W16540  22.669  41.918  10.632
48200W        W16541  18.717  20.075  11.943
48201W        W16542  16.137  25.196  11.569
48202W        W16543  42.482  41.997   0.880
48203W        W16544  18.688  41.401   4.135
48204W        W16545  44.939  43.287   4.748
48205W        W16546  34.492  23.182   4.602
48206W        W16547  28.147   0.781  12.493
48207W        W16548   9.253  36.413  11.128
48208W        W16549  32.910   7.766  13.052
48209W        W16550  15.112  27.194  12.914
48210W        W16551  20.537  15.605   1.873
48211W        W16552  23.026  19.685  11.892
48212W        W16553  41.385  41.930   0.371
48213W        W16554  35.372  25.054  10.531
48214W        W16555  23.493  43.937  14.502
48215W        W16556  26.966  39.520  13.449
48216W        W16557  26.472  19.562   3.256
48217W        W16558  22.662  25.657   0.475
48218W        W16559  20.243   1.337  13.344
48219W        W16560  24.088   0.464  13.829
48220W        W16561  28.157  10.247   3.198
48221W        W16562   0.816  30.944  13.012
48222W        W16563  26.003  40.860   0.745
48223W        W16564  37.456  16.669   0.762
48224W        W16565  43.424  33.613   9.931
48225W        W16566   1.312  16.129   3.245
48226W        W16567   6.679  18.248   0.322
48227W        W16568   4.833  40.450  13.511
48228W        W16569  18.684   8.827  11.965
48229W        W16570  37.558  24.546  14.294
48230W        W16571  36.556  10.827  12.484
48231W        W16572  28.172  24.678  11.944
48232W        W16573  43.335  33.430  10.938
48233W        W16574  44.328  38.404  14.878
48234W        W16575   9.828  32.099   4.689
48235W        W16576  17.107  14.320   1.290
48236W        W16577  11.273   5.783  11.378
48237W        W16578  14.186  14.750   4.281
48238W        W16579   2.296  14.589   3.658
48239W        W16580  41.882  34.070   4.717
48240W        W16581  30.042  33.964   3.166
48241W        W16582  14.244  10.382   1.774
48242W        W16583  31.981   7.815  13.917
48243W        W16584  44.001  17.281  10.603
48244W        W16585  34.503  43.326   4.338
48245W        W16586  21.205  40.921  12.571
48246W        W16587  44.497  35.022   2.733
48247W        W16588  23.510  24.681   4.328
48248W        W16589  21.754  33.462  11.536
48249W        W16590  19.677  23.043   0.425
48250W        W16591  41.866  24.975  10.098
48251W        W16592  25.550  19.234  13.864
48252W        W16593   4.902  40.487   4.267
48253W        W16594  23.097  10.142   4.253
48254W        W16595  39.434   3.926  11.924
48255W        W16596   5.407  32.611  12.458
48256W        W16597  40.841  19.145  13.391
48257W        W16598  18.099  24.515  12.451
48258W        W16599  40.322  19.693  14.298
48259W        W16600  44.917  14.175  11.556
48260W        W16601  21.212   9.878   1.803
48261W        W16602  39.333  38.820   4.749
48262W        W16603  13.816  18.157  12.566
48263W        W16604   9.868  15.699   2.367
48264W        W16605   0.453  17.163  13.982
48265W        W16606  30.920  28.464   4.197
48266W        W16607  36.977   2.899   2.291
48267W        W16608  34.103  13.794  12.022
48268W        W16609   3.229   8.281   2.704
48269W        W16610   7.208  33.043  12.404
48270W        W16611  23.555   4.760  13.064
48271W        W16612  32.967  37.376  13.944
48272W        W16613  23.720   9.216   3.838
48273W        W16614  39.413  39.534  14.777
48274W        W16615  15.086  39.406   0.952
48275W        W16616  34.566  39.509  11.082
48276W        W16617  32.943  43.838  14.862
48277W        W16618  28.937  25.105  11.927
48278W        W16619   1.888  14.610   4.149
48279W        W16620  23.697  32.935   1.847
48280W        W16621  35.958  35.359  14.306
48281W        W16622   2.293  41.025   3.156
48282W        W16623  19.203   9.801   0.329
48283W        W16624   5.811  30.987  14.288
48284W        W16625  28.449  27.466   3.341
48285W        W16626  40.453   8.697   2.365
48286W        W16627  33.063  34.092  14.383
48287W        W16628  28.985  30.142  14.909
48288W        W16629  36.512  37.449  13.792
48289W        W16630   7.191  18.602  14.315
48290W        W16631  35.534  28.066  11.395
48291W        W16632   1.772  43.305   0.294
48292W        W16633  44.375  14.175   3.650
48293W        W16634  21.225  18.663   2.412
48294W        W16635  12.736  41.893   1.754
48295W        W16636  40.375  19.201  12.084
48296W        W16637   5.303   1.453   1.373
48297W        W16638   7.903  34.392   2.354
48298W        W16639  26.531  19.266   0.801
48299W        W16640  10.766  20.627  14.299
48300W        W16641  19.097  18.118   1.885
48301W        W16642  32.926  35.529  11.076
48302W        W16643  27.688   0.915   2.194
48303W        W16644  40.871  22.686   1.443
48304W        W16645  17.591   9.657  11.093
48305W        W16646  28.532  29.576   2.364
48306W        W16647  39.896  35.929   1.882
48307W        W16648  38.869  30.527   3.246
48308W        W16649  13.736  38.497   5.210
48309W        W16650  13.220  34.099   3.160
48310W        W16651   6.883   1.274   0.368
48311W        W16652   7.696  44.798   2.710
48312W        W16653  37.421  24.568   1.785
48313W        W16654  41.999  20.600   2.410
48314W        W16655  40.962  34.870   4.736
48315W        W16656  44.990  23.122  13.934
48316W        W16657  42.910   0.430  11.888
48317W        W16658   6.763  34.518   0.417
48318W        W16659   6.753  22.155   3.282
48319W        W16660  31.433  35.594  13.473
48320W        W16661  43.906  25.010  11.408
48321W        W16662   8.676   4.742   5.142
48322W        W16663  18.786  23.082   1.865
48323W        W16664  11.786  21.603  13.502
48324W        W16665  14.608  23.194  11.983
48325W        W16666  31.603  38.519   2.839
48326W        W16667  33.528  42.444   5.207
48327W        W16668  35.366   3.413  10.443
48328W        W16669   0.370   3.249   2.238
48329W        W16670  21.559  23.727   1.328
48330W        W16671  33.401  15.712   3.717
48331W        W16672  39.373  24.192   2.259
48332W        W16673   2.862  29.571   0.433
48333W        W16674  35.365  40.908   1.325
48334W        W16675  23.521  14.828   1.827
48335W        W16676  31.956  16.138  12.859
48336W        W16677  12.199   9.213   4.215
48337W        W16678  30.123  39.971  13.952
48338W        W16679  37.074   2.368  10.543
48339W        W16680  27.158  16.585  11.980
48340W        W16681   1.816  43.455  14.951
48341W        W16682  16.812  17.763   2.865
48342W        W16683  40.494  12.825  12.851
48343W        W16684   0.361  24.052  14.395
48344W        W16685  16.262   1.466  12.470
48345W        W16686  21.192  10.809   2.793
48346W        W16687  16.600  38.440  11.895
48347W        W16688  37.412  25.510  10.927
48348W        W16689  32.455  37.932   4.200
48349W        W16690  28.638   9.870   0.342
48350W        W16691  35.499  14.721   0.944
48351W        W16692  23.052   7.891  11.387
48352W        W16693   4.336  34.518   2.789
48353W        W16694  38.429  23.141  13.515
48354W        W16695  27.197   6.858  11.400
48355W        W16696   7.795  36.066  11.937
48356W        W16697  18.589  43.310  14.315
48357W        W16698   6.424  14.256  10.938
48358W        W16699  15.174  38.549  13.032
48359W        W16700  25.635  21.677  12.063
48360W        W16701  31.552   9.809   1.252
48361W        W16702   3.363  28.175   0.928
48362W        W16703  27.664  24.660   1.417
48363W        W16704   2.945  10.308   1.357
48364W        W16705   7.864   3.809  11.392
48365W        W16706  36.071  44.337   3.782
48366W        W16707  11.701  17.775  14.881
48367W        W16708  25.632   8.677  10.114
48368W        W16709  11.269  24.716  13.025
48369W        W16710  28.044  32.624   0.848
48370W        W16711  24.485  33.983  12.956
48371W        W16712  22.078  35.058  11.025
48372W        W16713  10.334   5.911  12.937
48373W        W16714   1.316   4.711   3.745
48374W        W16715  32.463  15.788   0.379
48375W        W16716  27.531   7.878   1.341
48376W        W16717  34.922   8.698   3.282
48377W        W16718   1.461   7.900   4.639
48378W        W16719  24.121  21.207  13.006
48379W        W16720   2.771   8.790  12.546
48380W        W16721  40.520  30.646  14.422
48381W        W16722   2.291   5.324   1.433
48382W        W16723   0.901  23.035   0.456
48383W        W16724  40.990  28.633  12.065
48384W        W16725   9.260  38.979  11.915
48385W        W16726  25.623   6.824   2.232
48386W        W16727  20.753   0.347  11.585
48387W        W16728  22.216  28.943  13.453
48388W        W16729  22.694  43.319  14.835
48389W        W16730   4.444  33.064  14.287
48390W        W16731  10.370  42.817  13.449
48391W        W16732   9.745   7.680  11.068
48392W        W16733  30.934  21.127  10.577
48393W        W16734  20.676   9.211   4.347
48394W        W16735  37.556  24.533   0.381
48395W        W16736   6.305  27.670   3.199
48396W        W16737  10.706  33.102   4.629
48397W        W16738  38.863  10.692  14.380
48398W        W16739  37.855  40.801   2.748
48399W        W16740  11.297   8.696  13.383
48400W        W16741   4.797  24.981   3.860
48401W        W16742  22.099  34.452   0.482
48402W        W16743  21.584  10.763  13.022
48403W        W16744  24.058   1.807   5.287
48404W        W16745   7.395  22.583   0.280
48405W        W16746   1.442  36.529  14.458
48406W        W16747  34.005  37.026  13.437
48407W        W16748  27.528  37.514  13.992
48408W        W16749   4.326  21.111  10.490
48409W        W16750  44.855   7.295  13.059
48410W        W16751  24.535  19.121   0.336
48411W        W16752  29.011   4.409   1.749
48412W        W16753  33.454  40.388   2.782
48413W        W16754  27.958   4.395  13.346
48414W        W16755   9.860  12.663   1.280
48415W        W16756  10.760  36.400   0.955
48416W        W16757  32.891  19.750   2.785
48417W        W16758   6.881  26.072  11.081
48418W        W16759  36.910  22.136   4.332
48419W        W16760  19.211   5.701  13.313
48420W        W16761   2.358  43.948   0.408
48421W        W16762  25.511  28.500  12.083
48422W        W16763   7.906  17.597   1.749
48423W        W16764  28.118  24.480  10.529
48424W        W16765   9.213  21.692  10.582
48425W        W16766  28.135  23.632   4.242
48426W        W16767  18.151  11.767  13.474
48427W        W16768   0.329  33.578   2.684
48428W        W16769   9.296  39.501   2.892
48429W        W16770  16.074   9.191  11.377
48430W        W16771  10.733   6.291   2.360
48431W        W16772  42.016   4.750  13.971
48432W        W16773  26.071  40.024   2.671
48433W        W16774  22.072  31.977  10.573
48434W        W16775  20.659  30.911  14.853
48435W        W16776  29.092  28.461  14.328
48436W        W16777   8.179  14.158   4.670
48437W        W16778  38.380   7.906  13.383
48438W        W16779  18.736   0.369  11.057
48439W        W16780  43.973  12.794  13.465
48440W        W16781  28.649  44.441   0.864
48441W        W16782   7.826  13.790   3.649
48442W        W16783  10.690  37.449  12.987
48443W        W16784   2.935  35.059  12.966
48444W        W16785   5.778  26.114   4.786
48445W        W16786  21.163  29.109   0.772
48446W        W16787   6.361  36.971  12.088
48447W        W16788  35.940  37.443  11.876
48448W        W16789  32.044  33.022  13.990
48449W        W16790  10.298  37.362   4.763
48450W        W16791  23.001   3.815   0.897
48451W        W16792   4.727  15.702   3.803
48452W        W16793  27.673  44.366   4.766
48453W        W16794  25.014  21.643   3.854
48454W        W16795  32.976  24.486   1.321
48455W        W16796  28.118  22.129   0.856
48456W        W16797  24.185  42.287  14.443
48457W        W16798  36.092  37.918  12.846
48458W        W16799   7.901  39.839  13.802
48459W        W16800  14.293  10.187   4.645
48460W        W16801  12.250  29.084  12.491
48461W        W16802   6.301  40.399   0.789
48462W        W16803  28.464  28.161   3.151
48463W        W16804  34.065  23.022  13.510
48464W        W16805  39.035  20.613   0.393
48465W        W16806  17.754   0.922  12.364
48466W        W16807  42.881  35.365   2.319
48467W        W16808   6.827   2.390   1.306
48468W        W16809  30.063   5.318  14.968
48469W        W16810   5.934   3.938  11.871
48470W        W16811  28.071   0.313  10.622
48471W        W16812   2.890  13.610  11.909
48472W        W16813  13.845  27.091   1.747
48473W        W16814  16.683   1.428   2.227
48474W        W16815   4.240   8.881  13.891
48475W        W16816  36.477  29.016   0.395
48476W        W16817  29.987  21.715  14.932
48477W        W16818  23.564  25.577   4.128
48478W        W16819   2.748  11.799   0.270
48479W        W16820  29.593  26.014  14.332
48480W        W16821   3.272   8.277  12.834
48481W        W16822  25.015  26.081  11.602
48482W        W16823  27.190   3.947  14.023
48483W        W16824   8.370  30.653   0.821
48484W        W16825  37.529  21.218   3.723
48485W        W16826  39.994  36.857   2.244
48486W        W16827  33.604  26.078  10.556
48487W        W16828  22.518   9.644  13.931
48488W        W16829  25.980  22.741   2.683
48489W        W16830  28.116  14.608  10.579
48490W        W16831  21.104   9.152   0.873
48491W        W16832  43.486  10.693   1.816
48492W        W16833   3.801  28.082  11.893
48493W        W16834  34.441  40.043  11.430
48494W        W16835  15.160  13.214  10.552
48495W        W16836  11.332  31.138   0.778
48496W        W16837  39.047  32.007   4.320
48497W        W16838  23.238  10.288  14.498
48498W        W16839  13.713  13.742   2.409
48499W        W16840  31.072  14.105  11.025
48500W        W16841   9.300  16.257  11.122
48501W        W16842   7.757  16.143   0.865
48502W        W16843   1.947  15.167   1.390
48503W        W16844  13.712  25.128   2.861
48504W        W16845   9.656  39.990   2.721
48505W        W16846  27.182  28.014   0.806
48506W        W16847  16.106  14.637  13.055
48507W        W16848   1.366  22.587  10.977
48508W        W16849  32.076  43.773   1.358
48509W        W16850  32.007  14.618   2.835
48510W        W16851  41.025  30.614  12.040
48511W        W16852  35.525  28.175   4.189
48512W        W16853  29.517   1.807   5.133
48513W        W16854  42.331   1.865  11.574
48514W        W16855  21.132  37.915  12.466
48515W        W16856  23.020  12.288   0.307
48516W        W16857  12.629   9.876   0.409
48517W        W16858  28.506  20.119  12.885
48518W        W16859  29.060  42.944  12.389
48519W        W16860  34.383  15.605  11.073
48520W        W16861  17.785  13.771   2.240
48521W        W16862  40.830  15.090  12.432
48522W        W16863   2.466   6.888  11.987
48523W        W16864  25.191   9.796  14.423
48524W        W16865  12.211  16.691  14.297
48525W        W16866  40.320   8.752   4.745
48526W        W16867   1.920   4.835  10.927
48527W        W16868  18.657   2.387   2.671
48528W        W16869  39.065   1.731  13.479
48529W        W16870  29.941  18.594  12.858
48530W        W16871  21.526   4.335  12.041
48531W        W16872  42.007  38.382  12.349
48532W        W16873  37.422  34.879  13.048
48533W        W16874  23.576  30.061   3.632
48534W        W16875  13.746  40.916   1.891
48535W        W16876  18.773  11.159   4.225
48536W        W16877  24.085   4.333  12.494
48537W        W16878  24.131  11.324  10.425
48538W        W16879  22.092  42.032   4.813
48539W        W16880  39.396  39.924   4.288
48540W        W16881  38.431  11.709   1.367
48541W        W16882  26.006   5.424  14.996
48542W        W16883  24.198  26.583   3.843
48543W        W16884   1.427  12.654   3.146
48544W        W16885   0.761  31.003  10.620
48545W        W16886  43.884  24.602   3.786
48546W        W16887  10.162  29.026   4.824
48547W        W16888  41.975  26.007   3.642
48548W        W16889  28.662  27.951   3.631
48549W        W16890  11.272  10.195   5.805
48550W        W16891  35.030  23.530  10.931
48551W        W16892  34.537  22.590   2.293
48552W        W16893  17.795   0.844  11.124
48553W        W16894   9.173  21.655   0.741
48554W        W16895  29.128  41.437  13.965
48555W        W16896  12.765  34.587  12.412
48556W        W16897  30.160  10.139  14.311
48557W        W16898  28.074  20.698  14.471
48558W        W16899   0.404  38.909  13.376
48559W        W16900  26.165  41.432  12.945
48560W        W16901  13.239  36.005  10.123
48561W        W16902   7.871  22.641  14.931
48562W        W16903  22.107   7.865   1.257
48563W        W16904  44.384  18.559  10.994
48564W        W16905  39.381  32.561   2.740
48565W        W16906  30.081  33.110   4.780
48566W        W16907  33.619  42.525  10.993
48567W        W16908  13.142  12.661   0.394
48568W        W16909   9.242  17.781   2.205
48569W        W16910  38.997  24.083   4.299
48570W        W16911  34.412  15.813   4.206
48571W        W16912  32.087  38.900   9.944
48572W        W16913  22.726  39.898   2.698
48573W        W16914  31.040  20.616  13.419
48574W        W16915   2.747  31.601   4.646
48575W        W16916  42.494   1.432  10.945
48576W        W16917  37.414  18.636   3.356
48577W        W16918   5.434  10.693   2.691
48578W        W16919   4.791  14.302  11.102
48579W        W16920  41.840  34.577   4.289
48580W        W16921  15.653  10.367  14.275
48581W        W16922  10.743  18.280  14.280
48582W        W16923   5.800  42.888   2.298
48583W        W16924  34.029   1.974  13.060
48584W        W16925   6.915  10.834  11.484
48585W        W16926  11.785  37.354  11.896
48586W        W16927  17.736   4.700   1.882
48587W        W16928  40.333   4.275  11.941
48588W        W16929  38.980  37.938  12.407
48589W        W16930  44.815  36.869  14.399
48590W        W16931  41.819   3.227  11.049
48591W        W16932   1.937  23.521  13.799
48592W        W16933   0.938  34.106  11.005
48593W        W16934   7.715  31.934  12.541
48594W        W16935  35.575   5.866   2.796
48595W        W16936  36.372  29.015   5.110
48596W        W16937  22.069  25.187  11.929
48597W        W16938  42.404  19.154   1.255
48598W        W16939   4.419  26.079   0.790
48599W        W16940  33.485   9.871  14.415
48600W        W16941   1.476  32.584  12.376
48601W        W16942  18.126  30.105   1.252
48602W        W16943  30.936  37.942  13.911
48603W        W16944  19.235  14.826  13.944
48604W        W16945  10.195  22.678  10.971
48605W        W16946  41.895  15.646  14.843
48606W        W16947  22.725  23.699  13.972
48607W        W16948  25.591   1.969  10.045
48608W        W16949  29.133  19.217  12.060
48609W        W16950  23.514  16.625   1.228
48610W        W16951  28.068  41.837  10.548
48611W        W16952  42.915  35.550   1.854
48612W        W16953  28.557   2.289   1.220
48613W        W16954  37.988   0.310   4.156
48614W        W16955  30.036  37.867  11.496
48615W        W16956  15.637  18.703   2.894
48616W        W16957  40.521  34.552   3.260
48617W        W16958  41.480   9.691  11.549
48618W        W16959  14.234  26.977   3.249
48619W        W16960  11.802  41.881  14.404
48620W        W16961  14.257  34.117  12.903
48621W        W16962  23.710  32.980  13.412
48622W        W16963  33.574  17.764  14.288
48623W        W16964   1.391  41.317   1.875
48624W        W16965  37.445   5.343   2.211
48625W        W16966   5.922  34.592   1.224
48626W        W16967  31.533  39.830   9.984
48627W        W16968  33.914   9.333   0.325
48628W        W16969  30.100  10.256  10.430
48629W        W16970  24.526   9.227   0.845
48630W        W16971  26.650  24.575  12.008
48631W        W16972  30.917  14.229   2.674
48632W        W16973   1.258  19.230   3.365
48633W        W16974   2.721  15.323   3.744
48634W        W16975  28.180  38.409   3.734
48635W        W16976  15.258   5.812  13.872
48636W        W16977   0.771  34.071   2.373
48637W        W16978  29.029  29.170  14.359
48638W        W16979   2.848   6.404   1.283
48639W        W16980   0.927  11.281   3.758
48640W        W16981  23.683  37.962  10.455
48641W        W16982  11.640   4.797  12.906
48642W        W16983  31.565  29.098   3.336
48643W        W16984  24.220   0.309   2.305
48644W        W16985  35.881  36.472  14.301
48645W        W16986  25.511   2.278  13.308
48646W        W16987  30.932   6.845  14.316
48647W        W16988   7.219  12.687   0.342
48648W        W16989  29.136  26.468   4.310
48649W        W16990  39.040  19.277   2.290
48650W        W16991  34.981  25.986   3.822
48651W        W16992  39.508  39.046  11.585
48652W        W16993  14.809   2.322  14.904
48653W        W16994  27.623   7.758  11.118
48654W        W16995  34.404  36.050   1.893
48655W        W16996  44.942  32.440  14.335
48656W        W16997  26.132  14.159   2.761
48657W        W16998  33.410  23.697   0.877
48658W        W16999  16.126  29.540  12.535
48659W        W17000  27.073  34.949  12.069
48660W        W17001  42.910  29.555  12.543
48661W        W17002  29.528   9.661  14.477
48662W        W17003   1.388  16.704   1.370
48663W        W17004  23.713  19.774  14.374
48664W        W17005  37.478  23.044  12.888
48665W        W17006  30.079   6.365  14.999
48666W        W17007  25.076  22.234  12.031
48667W        W17008   6.418  36.077  10.092
48668W        W17009  39.991  37.509   4.200
48669W        W17010  40.414  25.149  10.498
48670W        W17011  35.062  39.420   4.618
48671W        W17012  26.102   2.390   2.822
48672W        W17013   1.356  10.268   3.258
48673W        W17014   2.430  26.482   3.204
48674W        W17015  19.119   8.209   1.409
48675W        W17016  33.472  25.212   0.437
48676W        W17017  30.064  21.629   0.742
48677W        W17018  40.927  13.717   3.806
48678W        W17019  25.575  38.042   1.439
48679W        W17020   4.847  33.409  14.788
48680W        W17021  23.670  15.270   0.932
48681W        W17022  39.376  12.621   2.692
48682W        W17023  26.204  13.166   1.433
48683W        W17024   0.331  15.214  12.509
48684W        W17025   1.900  40.524  13.011
48685W        W17026  31.569  37.903  11.933
48686W        W17027  21.576  11.230   4.722
48687W        W17028  21.544   4.803   4.272
48688W        W17029  10.366  37.948  14.973
48689W        W17030  44.386  27.508   4.691
48690W        W17031   0.376  34.977  11.512
48691W        W17032  37.931  38.033  12.081
48692W        W17033  11.185  41.472  14.766
48693W        W17034   8.234  12.674   1.434
48694W        W17035  17.195  28.609   3.686
48695W        W17036  37.420  27.976  13.956
48696W        W17037  44.836   9.256  10.900
48697W        W17038   8.282   1.256  14.463
48698W        W17039  31.965  24.016   3.297
48699W        W17040  43.977  35.079   0.365
48700W        W17041  14.306  32.054  13.396
48701W        W17042  13.654  39.475  10.993
48702W        W17043  19.725  25.552  10.445
48703W        W17044  33.039  42.435  12.355
48704W        W17045   7.787   6.308  12.842
48705W        W17046  14.161  41.457   0.898
48706W        W17047  12.306   6.215   1.791
48707W        W17048  32.013   0.890  13.922
48708W        W17049  32.522  37.900   4.757
48709W        W17050  30.517   7.870  11.089
48710W        W17051  23.215  11.624   4.274
48711W        W17052  30.038  21.560   2.802
48712W        W17053  35.957   0.253  14.838
48713W        W17054   7.288   9.173   3.332
48714W        W17055  43.019  38.948   2.852
48715W        W17056  29.564  39.915  12.423
48716W        W17057  30.430  13.641  14.760
48717W        W17058  16.073  19.587  11.403
48718W        W17059  22.147  16.088   1.884
48719W        W17060  27.535  31.975  13.011
48720W        W17061  12.722   5.241  11.878
48721W        W17062  23.709  22.204   1.846
48722W        W17063  22.065  28.079  12.956
48723W        W17064  16.763  40.350   1.791
48724W        W17065   0.883  39.983   4.663
48725W        W17066   1.327   8.250   2.278
48726W        W17067  18.561  40.026   0.849
48727W        W17068  24.192   8.717  12.990
48728W        W17069  25.050  37.924   2.255
48729W        W17070  14.160  19.170   0.834
48730W        W17071  31.507  17.126   3.761
48731W        W17072   9.865  40.993   0.401
48732W        W17073  33.072  23.099   0.480
48733W        W17074  42.961   0.380   0.257
48734W        W17075  36.845   4.389  13.058
48735W        W17076   5.221   5.842   3.296
48736W        W17077  42.352   3.830   2.668
48737W        W17078   6.827  26.971  11.041
48738W        W17079  23.622  29.434   1.295
48739W        W17080  32.121  35.385  13.546
48740W        W17081   1.415  37.575  10.519
48741W        W17082  42.784  37.026  12.970
48742W        W17083  43.787  44.427  14.384
48743W        W17084  44.786  15.783  11.963
48744W        W17085  13.153  35.050   3.186
48745W        W17086  13.253  29.994  13.396
48746W        W17087  22.560  44.400  10.581
48747W        W17088  24.219  22.680  11.410
48748W        W17089  14.645  27.538   1.919
48749W        W17090  44.880  25.577  14.962
48750W        W17091  39.847  28.648  13.016
48751W        W17092  28.161  12.650  12.407
48752W        W17093  29.588  38.985   1.339
48753W        W17094  36.071  39.023  12.006
48754W        W17095  40.399   7.317  12.877
48755W        W17096   8.828  38.564  12.896
48756W        W17097  19.047   2.926   4.665
48757W        W17098  39.815  43.905  12.075
48758W        W17099  27.588  33.041   4.314
48759W        W17100   5.690  12.653   3.732
48760W        W17101  16.084  22.692  12.460
48761W        W17102  20.080  11.638   3.208
48762W        W17103  14.689  37.513   1.234
48763W        W17104   6.406  38.428  11.077
48764W        W17105  38.976  10.337  14.849
48765W        W17106  35.027  24.556   2.666
48766W        W17107  41.480   1.264   3.223
48767W        W17108  22.136  25.097   2.318
48768W        W17109  38.544  29.050   0.316
48769W        W17110  15.323  38.883   5.164
48770W        W17111  26.514  38.820   0.776
48771W        W17112  10.256  39.990   0.769
48772W        W17113  26.194  21.235  11.964
48773W        W17114  32.890   8.661   2.782
48774W        W17115  19.193  39.981   2.236
48775W        W17116  17.688  17.283   1.930
48776W        W17117  23.721  44.388  12.991
48777W        W17118  14.728  20.150   1.913
48778W        W17119  13.108  20.598  10.470
48779W        W17120   7.305  41.833   4.252
48780W        W17121  23.093  14.175   4.256
48781W        W17122  37.957  41.005  10.998
48782W        W17123  38.962  42.784   1.401
48783W        W17124  18.259  40.804  10.615
48784W        W17125  14.107  20.265   5.153
48785W        W17126  39.968  23.181  12.082
48786W        W17127  29.474   5.419   4.281
48787W        W17128  43.320  19.126   5.287
48788W        W17129  19.601  21.167   9.944
48789W        W17130  27.545   6.363   2.872
48790W        W17131  16.723  29.447  13.007
48791W        W17132  12.746  38.014  13.841
48792W        W17133  42.316  22.546  12.951
48793W        W17134  35.391  13.799   4.275
48794W        W17135  42.829   6.425  13.392
48795W        W17136  36.420  10.765  13.831
48796W        W17137  40.392   5.695  11.865
48797W        W17138   7.372  35.434  11.062
48798W        W17139  28.623  41.853  14.878
48799W        W17140  26.593   7.278   5.199
48800W        W17141   0.348  32.920   1.843
48801W        W17142  37.929  18.201   3.161
48802W        W17143  34.432  37.520  11.431
48803W        W17144  42.867   0.485   4.319
48804W        W17145  12.247  37.845   4.671
48805W        W17146  19.624   8.661  11.989
48806W        W17147  23.710  27.982  13.056
48807W        W17148  26.976  44.954  10.416
48808W        W17149   3.443  21.149  10.570
48809W        W17150   2.289  28.173  10.030
48810W        W17151  10.295  36.407   4.698
48811W        W17152  16.171  25.563   2.768
48812W        W17153  27.572  36.515  11.440
48813W        W17154  37.882  43.468  11.418
48814W        W17155  42.514  17.618   0.879
48815W        W17156   6.348  22.546  10.156
48816W        W17157  23.160   7.306   2.887
48817W        W17158  41.369  32.525  11.119
48818W        W17159  39.043  14.617   0.434
48819W        W17160  19.122  11.263   3.154
48820W        W17161  34.964   0.742  14.806
48821W        W17162  37.970  41.902  12.884
48822W        W17163   1.305   1.840   1.447
48823W        W17164  23.023   4.406   4.203
48824W        W17165  35.974  43.831   1.444
48825W        W17166  42.866  11.799   0.789
48826W        W17167  17.065  33.594  11.500
48827W        W17168   9.765  28.990  11.005
48828W        W17169  44.450  15.796   1.798
48829W        W17170   7.410  33.090   1.865
48830W        W17171  44.997  33.030   2.207
48831W        W17172  39.020  17.711   5.091
48832W        W17173  38.501   0.254  11.069
48833W        W17174  33.904  24.091   4.776
48834W        W17175  12.147  19.772   1.240
48835W        W17176  17.092  12.339  13.356
48836W        W17177  10.153  42.848  14.485
48837W        W17178  21.112   9.866   3.746
48838W        W17179  39.377  29.099  14.872
48839W        W17180  43.780  44.974   3.672
48840W        W17181  11.219  24.507   3.817
48841W        W17182  33.889  27.045  11.055
48842W        W17183   8.672  21.745  14.794
48843W        W17184  28.651  35.897   3.814
48844W        W17185  33.027  27.057   1.273
48845W        W17186  16.739  34.995  13.868
48846W        W17187  35.429  14.332  13.497
48847W        W17188  42.423  18.151  11.010
48848W        W17189  40.540  30.936   4.673
48849W        W17190  16.308  31.628   5.740
48850W        W17191  23.604  27.571  12.000
48851W        W17192  24.577  43.926  11.043
48852W        W17193  18.759  23.121   3.768
48853W        W17194  37.421   5.227   0.437
48854W        W17195  24.501  27.174   1.378
48855W        W17196  10.171   8.190   2.394
48856W        W17197   5.699  19.670  10.941
48857W        W17198  21.048  12.125   0.346
48858W        W17199  16.572  41.479   3.780
48859W        W17200  41.455  36.998   2.382
48860W        W17201  13.182  41.322  12.950
48861W        W17202  42.825  44.878  11.021
48862W        W17203  34.076  25.644  12.082
48863W        W17204  11.799  20.583  11.126
48864W        W17205  30.910  11.704   2.322
48865W        W17206  13.658   4.309   0.744
48866W        W17207  30.097  28.153   4.780
48867W        W17208  43.350  27.138  13.309
48868W        W17209  42.776  13.218   3.819
48869W        W17210  27.971  40.877  11.086
48870W        W17211  27.531   8.386   2.272
48871W        W17212  38.018  29.669   0.838
48872W        W17213  41.920  31.963   3.833
48873W        W17214  30.027   6.278   1.746
48874W        W17215  11.677  44.985  12.070
48875W        W17216   1.925  17.191  12.862
48876W        W17217  22.166  18.130  11.015
48877W        W17218  32.487  34.030   4.824
48878W        W17219  37.040  18.572  10.489
48879W        W17220   2.234  37.444  10.552
48880W        W17221   5.893   9.361  10.457
48881W        W17222  36.573  10.871   3.334
48882W        W17223  32.541  24.093   2.346
48883W        W17224   9.752   1.860   2.676
48884W        W17225   3.731   1.949   3.823
48885W        W17226   7.414  33.468   1.435
48886W        W17227   9.390  10.697   1.318
48887W        W17228   9.180   8.229   1.759
48888W        W17229   8.702  43.503  11.032
48889W        W17230  43.486  14.234   4.308
48890W        W17231  32.447  40.441  14.789
48891W        W17232  32.534  18.262  12.373
48892W        W17233  19.614  14.189   0.296
48893W        W17234  11.759  33.591   1.406
48894W        W17235  10.753  40.506   3.161
48895W        W17236  24.516  17.616  10.116
48896W        W17237  16.681   7.211  12.907
48897W        W17238  44.950  38.506  13.005
48898W        W17239   5.783  17.674  14.950
48899W        W17240  12.289  28.510  12.579
48900W        W17241   9.649  26.541   3.745
48901W        W17242  13.720  29.957  14.962
48902W        W17243  34.511  16.129   4.210
48903W        W17244  36.517  22.708   0.407
48904W        W17245  29.615  15.273   3.865
48905W        W17246   7.236  40.340  14.369
48906W        W17247   6.883  32.024   2.806
48907W        W17248  20.182  37.357   3.795
48908W        W17249  10.220   8.655   5.289
48909W        W17250  13.179  10.748  12.869
48910W        W17251  16.315   6.270  10.033
48911W        W17252  18.174  39.411   1.368
48912W        W17253  14.699  20.152   2.749
48913W        W17254  20.624   2.261  14.918
48914W        W17255  39.369  38.505  11.498
48915W        W17256  13.746   5.370   1.272
48916W        W17257  37.387  41.432  11.073
48917W        W17258  26.481  31.149   2.683
48918W        W17259   7.768  23.083  10.422
48919W        W17260  26.587  21.095  12.566
48920W        W17261  39.557  32.018   1.771
48921W        W17262  17.685  34.445   3.239
48922W        W17263  22.042  24.492   4.138
48923W        W17264  28.002  32.111  10.948
48924W        W17265  23.512   3.729   2.712
48925W        W17266  36.847  43.968  13.008
48926W        W17267  28.483  22.531   2.249
48927W        W17268  35.879   6.775   3.340
48928W        W17269  33.994  28.542   2.695
48929W        W17270  21.037  32.435  11.490
48930W        W17271  31.954  10.182   0.266
48931W        W17272  13.302   2.459  12.544
48932W        W17273   0.753   8.376  12.905
48933W        W17274  15.299  42.476   2.265
48934W        W17275  38.999  23.198   4.126
48935W        W17276   6.827  35.919   4.297
48936W        W17277  14.616  33.100   1.265
48937W        W17278  20.650  30.123  13.347
48938W        W17279  28.058  11.737  10.458
48939W        W17280  31.444  29.614   1.856
48940W        W17281  16.209   3.944   0.941
48941W        W17282  21.210  26.130  12.464
48942W        W17283  42.937  41.945  12.063
48943W        W17284  24.702   9.249   4.205
48944W        W17285  36.077  32.447  13.406
48945W        W17286  39.863  36.553   3.724
48946W        W17287  18.709  19.570  12.367
48947W        W17288  43.980  17.212   2.396
48948W        W17289  34.405  43.993  13.942
48949W        W17290  32.456  14.716  12.057
48950W        W17291  22.083  31.619  11.488
48951W        W17292  40.947   5.909   4.340
48952W        W17293  33.935   1.773   3.327
48953W        W17294  41.376  40.379   2.342
48954W        W17295  10.221  19.258  12.856
48955W        W17296  35.364  43.505  10.612
48956W        W17297   8.238  27.581   0.428
48957W        W17298  42.022  23.070   0.475
48958W        W17299   7.260  20.644   4.694
48959W        W17300  17.687  15.091  10.554
48960W        W17301  16.164  35.891   1.886
48961W        W17302  12.750  22.099   0.425
48962W        W17303  40.337  26.179  11.551
48963W        W17304   1.328  44.292   3.676
48964W        W17305  30.925   2.764  10.989
48965W        W17306  40.413   8.890  10.456
48966W        W17307  32.422  35.917   0.358
48967W        W17308  11.233  29.068  12.409
48968W        W17309  39.410  28.492  12.949
48969W        W17310  28.163   1.814   2.806
48970W        W17311  33.073  24.998   0.782
48971W        W17312   6.334  42.938  10.418
48972W        W17313  10.871  15.262  14.423
48973W        W17314  38.979  44.412   3.695
48974W        W17315  23.562  42.509  12.863
48975W        W17316  13.285  39.344   4.709
48976W        W17317  16.150  34.530  10.497
48977W        W17318  10.692   1.944   2.280
48978W        W17319  22.074   2.284   4.222
48979W        W17320  28.174   4.942   4.276
48980W        W17321  25.562  15.112  12.528
48981W        W17322  17.274  29.933  11.013
48982W        W17323  13.176  22.080  11.925
48983W        W17324  24.093  32.408   0.404
48984W        W17325  32.081  35.888  14.323
48985W        W17326  17.189  22.193   1.245
48986W        W17327  39.810  38.379   0.944
48987W        W17328  44.826  17.131   1.422
48988W        W17329  25.138   6.388   2.762
48989W        W17330  16.571   5.202   1.867
48990W        W17331  10.353  30.525  13.828
48991W        W17332  30.144  41.022   0.476
48992W        W17333  26.566  19.689   4.710
48993W        W17334  31.942  23.082   2.802
48994W        W17335  31.003  28.030   3.285
48995W        W17336  11.862  20.601   3.631
48996W        W17337  38.506  26.059   0.937
48997W        W17338  33.529  16.762  13.877
48998W        W17339  21.139  13.259  12.969
48999W        W17340   4.388  38.431  12.356
49000W        W17341  19.196  36.520  12.393
49001W        W17342  11.662  20.658   4.675
49002W        W17343   8.881  18.288  11.559
49003W        W17344  37.348  20.725  12.024
49004W        W17345  21.175  25.654  14.792
49005W        W17346   4.398  36.021   2.711
49006W        W17347  29.579  35.029   4.598
49007W        W17348  32.420   8.717  14.339
49008W        W17349  20.047  44.007  13.489
49009W        W17350  22.112  11.855   3.146
49010W        W17351   3.461  13.199   2.673
49011W        W17352   2.833  36.056  10.540
49012W        W17353  35.051  44.440   9.963
49013W        W17354  41.401  36.459  13.411
49014W        W17355  35.534  33.592  13.958
49015W        W17356   5.282  10.143  14.290
49016W        W17357  25.650  14.186  10.001
49017W        W17358  40.408  36.480   3.820
49018W        W17359  19.092  10.214   2.323
49019W        W17360  21.252  33.512  10.551
49020W        W17361   5.720  21.233   2.687
49021W        W17362  40.012   2.279   2.268
49022W        W17363   9.215  30.637  11.577
49023W        W17364  34.932   1.877  11.592
49024W        W17365  20.588   7.806   0.353
49025W        W17366  26.023  43.882   2.370
49026W        W17367   3.215  13.734   1.305
49027W        W17368  15.763  41.922  10.951
49028W        W17369  28.460  26.134   2.338
49029W        W17370  29.532  20.727  10.546
49030W        W17371  23.096  18.130   9.528
49031W        W17372  21.662  12.716  14.356
49032W        W17373  22.999  18.188   1.226
49033W        W17374  23.994  38.505   4.800
49034W        W17375  20.059  27.166  10.993
49035W        W17376   4.906  19.729   4.229
49036W        W17377  19.084  33.424  14.025
49037W        W17378  13.300  19.149   4.794
49038W        W17379  24.154  14.641  12.831
49039W        W17380   2.801  19.250  13.338
49040W        W17381  21.260  10.836   4.181
49041W        W17382   4.343  13.726  13.817
49042W        W17383  40.984  43.818  10.526
49043W        W17384  30.118   2.272   3.653
49044W        W17385   9.818  37.004   3.317
49045W        W17386   7.352  41.930  13.377
49046W        W17387   4.406  23.637   2.764
49047W        W17388  32.021  43.502  11.089
49048W        W17389  10.348  28.473   3.638
49049W        W17390  39.447  23.072   2.693
49050W        W17391  30.092  39.914  13.338
49051W        W17392   0.391  13.186   3.259
49052W        W17393   4.403  40.008   4.833
49053W        W17394  41.893  30.606  11.088
49054W        W17395  33.539  43.988  11.493
49055W        W17396  13.801  10.805  13.001
49056W        W17397  41.799  32.014  10.048
49057W        W17398   0.899  27.022  10.541
49058W        W17399  10.715  21.560  12.954
49059W        W17400  26.069  40.955   2.711
49060W        W17401  14.711  41.514  12.376
49061W        W17402  13.642  44.772  14.922
49062W        W17403  36.908  40.878   1.422
49063W        W17404  43.305  15.809   0.245
49064W        W17405  18.607   8.706   1.339
49065W        W17406  17.251  18.177  10.001
49066W        W17407   7.802  14.667  11.974
49067W        W17408  18.155  21.111   2.817
49068W        W17409  29.591  20.220   1.232
49069W        W17410  23.679  38.552   1.837
49070W        W17411  25.199   6.337   4.759
49071W        W17412   9.844  21.077   1.281
49072W        W17413  30.470   1.408  11.373
49073W        W17414   1.935  31.026  10.947
49074W        W17415  17.116  42.827   3.221
49075W        W17416  17.268  40.549  11.045
49076W        W17417  26.585  16.741  13.925
49077W        W17418  33.502   2.294  13.545
49078W        W17419   9.829  21.119   0.460
49079W        W17420   2.380   1.443   0.948
49080W        W17421  31.973  13.701  10.976
49081W        W17422  38.336  19.723   1.369
49082W        W17423  44.403  18.156   2.755
49083W        W17424  29.113  23.697   4.819
49084W        W17425  29.630   7.224  12.565
49085W        W17426  12.228  22.563   0.941
49086W        W17427  23.649   3.865  13.039
49087W        W17428   1.966  37.910  11.093
49088W        W17429  16.660  39.016   3.154
49089W        W17430  20.712  36.002  14.968
49090W        W17431  40.514   1.371  14.004
49091W        W17432   0.876  39.534  13.523
49092W        W17433  44.325  14.206   2.322
49093W        W17434  15.232  40.326   4.223
49094W        W17435  18.674  12.246   2.350
49095W        W17436  22.248  22.680   1.723
49096W        W17437   8.776  33.391   4.814
49097W        W17438   9.310   1.448  14.297
49098W        W17439  26.697  25.506  12.556
49099W        W17440  30.649  11.307   0.936
49100W        W17441  38.895  17.127  13.984
49101W        W17442  42.494  21.146   4.620
49102W        W17443  31.143   3.450  13.928
49103W        W17444   9.800  14.776   4.276
49104W        W17445  35.556  41.983  13.443
49105W        W17446   3.782  41.972   4.732
49106W        W17447  29.089   8.346  12.017
49107W        W17448  36.876   6.192  13.939
49108W        W17449  18.667  11.270  10.475
49109W        W17450  18.184   6.281  13.058
49110W        W17451  32.014  22.240  11.532
49111W        W17452  26.119  19.193   2.269
49112W        W17453  30.633  39.000  11.059
49113W        W17454  21.097  29.543  13.372
49114W        W17455   2.371   2.848  10.620
49115W        W17456  14.622   7.667  12.938
49116W        W17457   1.843  23.011  11.883
49117W        W17458   9.207   7.180   3.210
49118W        W17459   1.781  24.536  12.836
49119W        W17460  18.757  39.982   1.216
49120W        W17461  36.347  19.177   2.768
49121W        W17462   7.743  32.028   3.795
49122W        W17463  30.156   2.921  14.302
49123W        W17464   2.311  21.621   4.165
49124W        W17465  33.420  13.222  14.391
49125W        W17466   5.745   9.338   0.750
49126W        W17467   4.836  34.022   2.684
49127W        W17468   0.268  41.023   0.810
49128W        W17469   3.319   3.420   0.798
49129W        W17470  18.176   5.876  11.543
49130W        W17471  34.452  40.486   4.749
49131W        W17472   6.910  30.495   4.621
49132W        W17473  14.743  27.474  11.054
49133W        W17474  39.521   3.938   1.897
49134W        W17475  40.919  39.957   1.810
49135W        W17476  14.747  38.429   0.422
49136W        W17477  40.873  21.221   4.213
49137W        W17478   6.187  25.712  12.915
49138W        W17479  13.794   6.826   1.249
49139W        W17480  19.088  38.035   0.910
49140W        W17481  17.716  44.816  10.505
49141W        W17482  30.562  34.993  13.920
49142W        W17483  33.936  32.458   4.642
49143W        W17484  41.527  25.191   4.219
49144W        W17485  39.500  42.981  14.824
49145W        W17486  34.606  19.127  13.963
49146W        W17487  41.884  25.680  12.375
49147W        W17488  42.281  21.626   3.289
49148W        W17489  15.303  27.013   3.337
49149W        W17490  37.353   0.926   1.274
49150W        W17491  24.142  31.615   0.357
49151W        W17492  39.995  28.537   3.655
49152W        W17493  15.591  17.154  10.478
49153W        W17494  35.880  21.223   3.262
49154W        W17495  35.030   4.418   2.881
49155W        W17496  28.543  26.475   4.785
49156W        W17497  30.022   5.427   0.372
49157W        W17498   3.814   6.373  11.083
49158W        W17499  22.638  23.736  14.764
49159W        W17500  43.375  30.554   0.819
49160W        W17501  41.997  34.953   1.899
49161W        W17502   8.875   2.301   2.296
49162W        W17503  36.550   8.305   3.269
49163W        W17504  11.724  23.554   1.872
49164W        W17505  36.934  19.198  10.466
49165W        W17506  30.504  14.101   2.402
49166W        W17507  44.885  44.414   2.767
49167W        W17508   8.878  42.498   2.858
49168W        W17509   8.722  20.637  14.992
49169W        W17510   6.920  21.197   0.921
49170W        W17511  30.970  15.687  10.543
49171W        W17512  37.952  10.657   2.263
49172W        W17513   8.838   0.820   5.235
49173W        W17514   4.930  27.544   4.812
49174W        W17515  25.969  21.129  13.378
49175W        W17516   4.279  44.895  11.563
49176W        W17517  24.610   9.328  13.468
49177W        W17518  21.682   3.760  10.477
49178W        W17519  23.238  10.185   2.348
49179W        W17520   5.718  33.615  11.611
49180W        W17521   0.850   7.271  10.912
49181W        W17522   6.796  42.345  10.574
49182W        W17523  40.327   3.764   3.661
49183W        W17524   1.300  37.501   1.714
49184W        W17525  34.076  13.326   4.645
49185W        W17526  42.002   6.393  12.047
49186W        W17527  42.376  25.481   0.285
49187W        W17528   4.207  26.009  13.008
49188W        W17529  17.180  44.905  11.041
49189W        W17530   3.238  13.131   3.793
49190W        W17531  23.171  31.969   1.273
49191W        W17532  21.670   1.418   4.249
49192W        W17533  41.847   9.837   0.829
49193W        W17534  21.516  12.816   2.863
49194W        W17535  13.719   4.339   1.815
49195W        W17536   1.454  20.082   0.905
49196W        W17537  18.547  13.162   2.230
49197W        W17538  17.570  12.154   1.222
49198W        W17539  14.699  44.961  13.029
49199W        W17540  29.057   5.899   4.239
49200W        W17541  39.536  33.942   4.774
49201W        W17542  10.286  20.236   4.229
49202W        W17543  42.390  43.808   2.702
49203W        W17544  38.922  28.082  10.507
49204W        W17545   2.782  16.617  12.863
49205W        W17546  38.915  29.167   3.202
49206W        W17547  15.133  33.012   4.791
49207W        W17548  22.131  36.856  11.541
49208W        W17549   4.356  27.668  12.370
49209W        W17550  22.724  42.481   0.406
49210W        W17551   9.257  41.009   4.765
49211W        W17552   2.341  17.191  11.041
49212W        W17553  41.869  11.736  10.635
49213W        W17554  25.503  22.216  14.902
49214W        W17555  23.587  41.527  14.425
49215W        W17556  42.905  36.408  11.860
49216W        W17557  23.642  36.567  11.399
49217W        W17558  33.405  44.502  12.013
49218W        W17559  10.328   4.930   1.865
49219W        W17560  14.816  19.551   3.815
49220W        W17561  11.147  35.587   4.802
49221W        W17562  11.788  24.989  14.420
49222W        W17563  13.145  43.803   1.918
49223W        W17564   2.287   8.305  14.777
49224W        W17565  13.665  12.706   4.723
49225W        W17566  25.621  37.944  14.513
49226W        W17567  21.022  24.721  11.550
49227W        W17568   6.841  36.423  12.572
49228W        W17569  15.603  33.968   3.322
49229W        W17570   0.457  39.906  13.313
49230W        W17571   4.363   2.875  13.882
49231W        W17572  31.121   2.234   4.745
49232W        W17573  12.794   0.972  14.921
49233W        W17574  33.562  41.297  12.095
49234W        W17575  16.202  13.693  11.435
49235W        W17576  36.898  14.751  12.569
49236W        W17577  20.269  32.535  10.901
49237W        W17578  19.776  23.603  10.573
49238W        W17579  26.678   3.944  12.970
49239W        W17580  19.710  20.095   3.162
49240W        W17581  30.025  23.160   3.773
49241W        W17582   5.747  27.591   2.330
49242W        W17583  32.036  28.514   0.284
49243W        W17584  27.560  18.144  14.848
49244W        W17585  24.719  18.084   2.763
49245W        W17586  24.221  21.616  12.039
49246W        W17587  11.777  27.149   4.813
49247W        W17588  39.042  19.041  11.974
49248W        W17589  40.359  29.987  12.937
49249W        W17590  41.416   5.840  14.862
49250W        W17591  38.835  34.918   4.749
49251W        W17592   0.845  25.047   0.289
49252W        W17593   2.811  41.965  15.000
49253W        W17594  32.531  11.813   4.131
49254W        W17595  28.132  18.178   3.750
49255W        W17596   6.215  31.466  12.044
49256W        W17597   2.469  11.145   1.893
49257W        W17598  16.620  20.164   4.227
49258W        W17599  10.290  41.791   1.391
49259W        W17600   4.352  34.934   1.872
49260W        W17601  42.794  36.919  14.446
49261W        W17602   7.374   3.785   1.782
49262W        W17603  23.095  10.865  11.001
49263W        W17604   1.420   5.883  12.986
49264W        W17605  26.979  32.528   1.376
49265W        W17606  21.656  25.008  13.489
49266W        W17607  31.456  33.589   3.242
49267W        W17608  35.049  43.953   0.479
49268W        W17609  10.227  20.240   2.705
49269W        W17610  35.032  44.436  10.942
49270W        W17611   6.342  40.851  12.089
49271W        W17612  15.211  18.675  10.975
49272W        W17613  10.646   3.413   4.227
49273W        W17614   9.767  12.141   5.308
49274W        W17615   5.211  23.075   2.876
49275W        W17616  24.522  33.608  12.931
49276W        W17617  44.831  15.808   4.201
49277W        W17618  17.257  11.742   3.686
49278W        W17619  37.857   6.858   1.890
49279W        W17620   3.726  10.871   3.157
49280W        W17621  18.647  22.564  12.851
49281W        W17622  36.543  12.843  14.933
49282W        W17623  12.843  23.569   0.378
49283W        W17624  16.617  26.023  10.582
49284W        W17625  38.987  41.511  11.548
49285W        W17626  30.458  12.630  11.086
49286W        W17627  12.708  31.541  11.962
49287W        W17628  39.360  11.720   3.723
49288W        W17629  21.554  33.975  13.484
49289W        W17630  34.921  17.628   0.388
49290W        W17631   6.322  43.383  11.431
49291W        W17632   8.825  42.297  12.027
49292W        W17633   3.448   7.380  10.557
49293W        W17634  35.024  22.076  12.053
49294W        W17635   8.734  11.179  13.880
49295W        W17636   1.825  44.945   3.634
49296W        W17637  42.821  37.963  13.799
49297W        W17638  39.374  25.594  14.868
49298W        W17639  22.733   1.275  12.076
49299W        W17640  33.999   7.398  10.918
49300W        W17641   7.272  43.282   0.873
49301W        W17642  34.875  39.528  13.348
49302W        W17643  36.903   3.891   2.282
49303W        W17644  42.878  15.696   3.637
49304W        W17645  18.773  29.959   0.951
49305W        W17646  43.271  42.466  10.514
49306W        W17647  20.139   6.310   2.208
49307W        W17648  21.569  22.640  12.978
49308W        W17649  42.366  43.915  13.843
49309W        W17650  11.175  32.102  11.384
49310W        W17651  18.135   6.778   0.903
49311W        W17652  11.807   0.282  10.889
49312W        W17653   1.902  13.198  14.896
49313W        W17654   6.697  10.366  13.805
49314W        W17655  15.635  16.733  14.851
49315W        W17656  24.642  13.132  12.047
49316W        W17657  11.639  36.486   0.899
49317W        W17658  44.834  42.794  10.480
49318W        W17659  14.662  11.300  12.841
49319W        W17660  29.122  23.057   3.323
49320W        W17661  33.886  18.577   3.657
49321W        W17662  33.511  20.130  14.492
49322W        W17663  21.537  26.606   4.207
49323W        W17664   9.248  39.358   4.726
49324W        W17665  18.216  22.557   4.657
49325W        W17666  30.474   9.868   4.788
49326W        W17667  17.573   6.265  11.892
49327W        W17668  26.961  21.032   2.397
49328W        W17669  36.035  42.951   1.858
49329W        W17670  36.895  25.098  11.064
49330W        W17671  36.961  23.236   3.703
49331W        W17672  40.869   2.822  10.435
49332W        W17673  23.665   8.723  11.447
49333W        W17674  43.963   2.254   0.428
49334W        W17675  19.180  22.016  11.941
49335W        W17676  12.128  31.121   4.249
49336W        W17677   2.366  13.326   1.423
49337W        W17678  20.222  12.318   3.213
49338W        W17679   8.713  11.649  11.439
49339W        W17680   5.918  33.507   4.114
49340W        W17681  26.090  35.363  10.977
49341W        W17682   1.414   5.928   2.689
49342W        W17683  30.024  38.876   4.301
49343W        W17684   7.722  37.950   1.827
49344W        W17685  13.654  21.259   0.462
49345W        W17686   6.422  33.398   4.244
49346W        W17687   9.711  30.101  10.481
49347W        W17688  22.511  15.823  12.476
49348W        W17689  25.598   7.296   9.945
49349W        W17690  18.195  19.246  11.590
49350W        W17691  16.785  29.163   1.300
49351W        W17692  16.238   9.354  13.510
49352W        W17693  43.490  17.673  10.484
49353W        W17694   8.854  10.361  11.974
49354W        W17695  13.238  44.786  13.333
49355W        W17696   4.748  32.562  14.409
49356W        W17697  18.243  12.186   2.208
49357W        W17698  21.160   4.217  10.636
49358W        W17699  38.012  30.427   3.323
49359W        W17700  35.481  28.462  14.933
49360W        W17701  40.942   3.323   0.368
49361W        W17702  17.757  25.038  13.331
49362W        W17703  27.143   5.331   0.956
49363W        W17704   7.345  43.335  10.597
49364W        W17705  20.535   6.871   1.222
49365W        W17706  28.946  25.601   1.404
49366W        W17707   0.344  27.520  11.977
49367W        W17708  15.279  21.729   4.769
49368W        W17709  31.062   1.771  14.495
49369W        W17710  22.072  36.981   2.362
49370W        W17711  42.330  29.566  11.931
49371W        W17712  29.588   1.279   2.242
49372W        W17713  15.646   8.798   1.849
49373W        W17714  25.059  23.665   3.217
49374W        W17715  38.518  31.967   2.845
49375W        W17716   3.369  37.370   0.782
49376W        W17717  20.602   4.253   2.294
49377W        W17718   1.795  37.918  11.981
49378W        W17719  13.189   4.777  12.878
49379W        W17720  42.944   9.711  11.904
49380W        W17721  37.470  44.408  14.795
49381W        W17722   4.775  31.986  11.431
49382W        W17723  35.520  33.054  11.908
49383W        W17724  41.493  13.292  10.617
49384W        W17725  32.521  17.684   0.293
49385W        W17726  37.949  24.686   1.213
49386W        W17727  27.522  25.495  14.776
49387W        W17728  23.093  39.439   2.415
49388W        W17729  20.685  22.639  10.639
49389W        W17730  20.117  33.953  11.874
49390W        W17731  41.308  38.072  14.021
49391W        W17732  40.402  12.680   0.416
49392W        W17733   7.811  30.018  13.007
49393W        W17734  29.429  28.104   2.714
49394W        W17735  28.550  25.476  14.322
49395W        W17736  23.216  44.354  13.059
49396W        W17737  12.271   8.398   4.829
49397W        W17738  13.206  40.329   5.578
49398W        W17739   0.929  40.908   4.247
49399W        W17740  42.926   1.752   3.331
49400W        W17741  37.366  11.348   0.345
49401W        W17742  42.322  40.330  10.594
49402W        W17743  36.459   5.387   0.846
49403W        W17744  24.479  39.413  14.363
49404W        W17745  32.521   2.760   2.414
49405W        W17746  44.989  14.747  14.966
49406W        W17747  30.059   3.223  11.431
49407W        W17748  24.192  42.963   0.789
49408W        W17749  36.456  22.163  10.414
49409W        W17750  18.637  21.748  12.922
49410W        W17751  14.656  39.429   4.674
49411W        W17752  23.178  19.076   9.507
49412W        W17753  21.635  13.757  10.422
49413W        W17754  35.489  25.975   4.610
49414W        W17755   5.862  34.554  11.545
49415W        W17756   4.729   2.275   2.778
49416W        W17757  40.453   3.353   3.243
49417W        W17758  42.315  10.215  13.033
49418W        W17759  33.596  25.063   4.606
49419W        W17760  21.113   7.836  12.385
49420W        W17761  25.605  30.080   0.751
49421W        W17762  41.339  22.693  13.854
49422W        W17763   1.301  20.126  13.893
49423W        W17764  33.948  28.173   4.835
49424W        W17765  40.424  16.172   2.822
49425W        W17766  44.908  37.015   4.746
49426W        W17767   4.299  37.837   1.289
49427W        W17768  22.188  32.504  12.367
49428W        W17769  41.433  28.015  14.435
49429W        W17770  11.342  11.710   2.806
49430W        W17771  28.664  13.326  11.948
49431W        W17772  18.733  13.681   1.843
49432W        W17773  43.908  10.379  12.855
49433W        W17774  29.965  20.671  12.949
49434W        W17775  35.107  36.451  14.357
49435W        W17776  26.653   2.350   1.312
49436W        W17777  36.977   1.252  11.541
49437W        W17778  25.993  44.813   1.252
49438W        W17779  35.423  11.264   2.278
49439W        W17780  26.466  22.093  12.032
49440W        W17781  44.958  15.791   2.417
49441W        W17782   8.796  30.648  14.964
49442W        W17783  19.109  33.093   1.862
49443W        W17784  27.112  21.529   1.260
49444W        W17785  33.621   9.873  13.030
49445W        W17786  15.793  16.756  11.127
49446W        W17787  27.180  41.010  13.053
49447W        W17788  18.654  36.464  14.769
49448W        W17789   9.866  29.958   4.248
49449W        W17790  35.572   5.241   0.827
49450W        W17791  24.016  10.262   3.701
49451W        W17792  26.125  27.002  13.895
49452W        W17793  26.578  31.108  11.444
49453W        W17794   5.410  21.752   1.695
49454W        W17795  20.214   8.673   2.804
49455W        W17796   4.403  18.741   0.333
49456W        W17797  39.820  42.888   5.717
49457W        W17798  31.048   7.417   3.691
49458W        W17799  23.677  19.570  12.845
49459W        W17800  42.872  19.540  10.529
49460W        W17801   1.252  26.585  14.303
49461W        W17802  42.362   2.858   0.357
49462W        W17803  14.806  41.365  14.994
49463W        W17804  19.176  38.354  13.527
49464W        W17805  25.986  13.657   0.907
49465W        W17806  37.944  44.302   2.820
49466W        W17807  41.536   6.909  14.938
49467W        W17808  13.322  27.484  10.431
49468W        W17809  44.890   4.266  11.993
49469W        W17810  42.317  34.526   2.406
49470W        W17811   1.269  36.411   1.748
49471W        W17812  36.052   9.368   4.746
49472W        W17813   8.306  30.075   4.754
49473W        W17814  31.565   7.876   4.668
49474W        W17815  36.946  35.966   3.675
49475W        W17816  42.821  14.731  10.440
49476W        W17817  27.516  24.031   3.871
49477W        W17818  38.920   4.277   2.822
49478W        W17819  17.228  21.637   2.377
49479W        W17820   6.208   6.825  10.482
49480W        W17821  19.729  22.737  14.349
49481W        W17822  35.546  29.953   4.185
49482W        W17823  30.988  19.079  10.947
49483W        W17824   0.955  34.920  12.960
49484W        W17825  27.532  27.991  11.064
49485W        W17826   2.739  44.769  14.323
49486W        W17827  30.949  41.954  13.529
49487W        W17828  23.009  12.827   1.331
49488W        W17829  13.242  19.671   1.420
49489W        W17830  44.002  23.212  11.516
49490W        W17831  16.231  34.384   1.921
49491W        W17832  10.815  44.817  15.000
49492W        W17833  18.585  21.646  11.993
49493W        W17834   0.803  27.190   0.452
49494W        W17835  41.959   4.844   3.638
49495W        W17836  34.439  27.989   0.387
49496W        W17837  27.540   0.485  14.006
49497W        W17838  42.408  42.882   2.680
49498W        W17839  41.976  27.996   3.359
49499W        W17840  40.963  21.625   1.369
49500W        W17841  13.301  19.548  10.126
49501W        W17842  16.805  18.077   3.310
49502W        W17843  14.301  22.039   4.788
49503W        W17844   9.704   4.426  12.369
49504W        W17845  22.068  23.145  10.512
49505W        W17846   2.761  28.569   0.883
49506W        W17847  41.485   6.357  10.932
49507W        W17848  12.214  37.073  12.410
49508W        W17849  13.220  21.222  14.392
49509W        W17850  14.098  42.484  14.793
49510W        W17851  26.049  20.664   1.865
49511W        W17852   7.907  38.053  13.487
49512W        W17853   0.837  38.059  11.098
49513W        W17854  42.966  15.191   1.822
49514W        W17855  34.097  42.429  12.835
49515W        W17856  20.042  36.469  10.416
49516W        W17857  17.275   6.701   4.325
49517W        W17858   0.959  30.509   3.654
49518W        W17859  20.255  43.280  10.602
49519W        W17860  36.846  21.154  13.851
49520W        W17861  34.883  22.091   1.837
49521W        W17862   6.703  15.095   2.820
49522W        W17863  28.443  19.262   3.307
49523W        W17864  17.628  23.218  13.428
49524W        W17865  35.402  36.351  14.386
49525W        W17866   6.271  19.264  14.425
49526W        W17867   5.812   5.736   4.186
49527W        W17868  21.143   8.375  12.441
49528W        W17869  11.265  37.409   1.798
49529W        W17870   5.907  23.004  13.024
49530W        W17871   1.336  20.677   4.695
49531W        W17872  35.451  15.802   2.864
49532W        W17873  43.807  14.281   1.852
49533W        W17874   3.829   0.377   0.836
49534W        W17875   1.796  17.662  13.367
49535W        W17876  29.034  38.920  11.508
49536W        W17877  10.246  29.564  11.596
49537W        W17878  39.432  29.517  11.913
49538W        W17879  17.062  20.230  11.883
49539W        W17880  39.544  42.842   3.240
49540W        W17881  31.433  40.387   3.372
49541W        W17882  43.794  10.171  10.053
49542W        W17883  21.240   9.770   0.436
49543W        W17884  33.474  42.901   2.798
49544W        W17885   4.804  35.509   0.366
49545W        W17886  41.815  29.537  14.288
49546W        W17887  30.934  14.214   3.269
49547W        W17888   5.429  13.154   1.221
49548W        W17889   7.321   3.925  13.800
49549W        W17890  26.037  14.712  12.405
49550W        W17891   4.870  36.954   5.118
49551W        W17892  10.340  13.688  12.408
49552W        W17893  14.706  30.916  12.570
49553W        W17894  43.383  10.772   2.376
49554W        W17895  31.000   3.882   2.309
49555W        W17896  39.847   7.846   4.122
49556W        W17897  21.662  33.494  10.958
49557W        W17898  44.966   3.928  14.372
49558W        W17899   4.429  11.627  13.921
49559W        W17900  33.044  10.256   4.611
49560W        W17901   5.217  11.628   2.829
49561W        W17902  28.947  16.089   2.328
49562W        W17903  12.690  10.748   2.250
49563W        W17904  11.273  24.684  13.536
49564W        W17905  35.390  32.468   3.237
49565W        W17906  26.186   1.896   3.254
49566W        W17907  19.661   1.844   2.866
49567W        W17908   7.768  12.746  11.403
49568W        W17909  16.626  39.913   0.736
49569W        W17910   2.395  32.426   2.217
49570W        W17911  41.947  28.676   4.705
49571W        W17912  27.554  14.650  11.416
49572W        W17913  26.500  23.139  14.300
49573W        W17914  20.695  24.224  10.967
49574W        W17915   0.905  16.728  11.007
49575W        W17916   1.770  22.084  11.892
49576W        W17917  15.304  39.842  11.519
49577W        W17918  28.165  11.810  11.387
49578W        W17919  37.362   1.296   3.638
49579W        W17920  26.027   0.386  12.912
49580W        W17921   9.349  11.363  10.425
49581W        W17922  38.998   1.467   1.255
49582W        W17923  17.116   0.382  14.389
49583W        W17924  26.670  34.498   4.633
49584W        W17925  29.152  44.336   0.755
49585W        W17926  37.384   3.722   0.944
49586W        W17927  18.202  10.768  13.988
49587W        W17928  11.371  23.705   3.707
49588W        W17929  38.834  29.008   0.864
49589W        W17930   8.170  37.942  14.419
49590W        W17931  16.153  23.563   1.402
49591W        W17932   8.654  23.231   0.816
49592W        W17933   8.740  17.802  14.452
49593W        W17934  16.703  13.743  14.277
49594W        W17935  10.765  44.977   1.783
49595W        W17936  36.465  16.644   0.858
49596W        W17937   2.744  22.031   2.246
49597W        W17938  23.605  19.658   5.249
49598W        W17939  27.068  32.930  14.376
49599W        W17940  26.041  42.499  12.071
49600W        W17941  37.350  23.121  13.352
49601W        W17942   3.392  33.589   3.824
49602W        W17943  10.777  26.998   4.619
49603W        W17944  40.542  19.212   1.869
49604W        W17945   1.286  40.900   2.901
49605W        W17946  36.534  30.500   0.345
49606W        W17947  11.656  33.902   1.265
49607W        W17948  23.708  32.470  14.925
49608W        W17949  27.512  16.754  11.099
49609W        W17950  15.168  34.029   9.636
49610W        W17951  31.040  14.291   5.227
49611W        W17952  27.600  38.855   2.200
49612W        W17953  12.650  19.138   0.859
49613W        W17954  13.650  25.521   3.821
49614W        W17955  43.015  19.707  14.902
49615W        W17956  37.937  35.427   1.878
49616W        W17957  33.116  41.796   0.745
49617W        W17958  36.384   4.421   3.250
49618W        W17959  33.891  31.405   4.656
49619W        W17960   2.929  12.351  12.497
49620W        W17961   6.766  39.911   1.828
49621W        W17962  18.242  33.585   3.171
49622W        W17963  44.499   7.782  13.009
49623W        W17964  20.075  35.487  12.987
49624W        W17965  41.795  14.692   4.691
49625W        W17966  35.092  10.751  10.944
49626W        W17967  36.851  44.270   3.336
49627W        W17968  33.052  39.537   2.260
49628W        W17969  39.556  22.723   4.164
49629W        W17970  36.885  19.089  11.603
49630W        W17971  32.123  33.096   0.290
49631W        W17972  39.039  38.045   1.320
49632W        W17973  11.689  34.983  13.837
49633W        W17974  34.462  25.139  10.991
49634W        W17975  24.098  17.568   0.845
49635W        W17976  26.162  21.184   4.675
49636W        W17977   4.840  35.519  11.934
49637W        W17978  40.510   5.297  13.915
49638W        W17979  14.160  10.677   0.246
49639W        W17980  15.775  26.677  11.052
49640W        W17981  32.021  29.558  14.850
49641W        W17982  36.911  17.680   1.394
49642W        W17983  15.689  10.212  12.009
49643W        W17984  40.502   8.708  14.458
49644W        W17985  26.676  32.525  11.958
49645W        W17986  29.569  44.936   4.213
49646W        W17987  24.135  21.554  10.913
49647W        W17988   4.278  23.711  10.406
49648W        W17989  38.927   5.801  10.977
49649W        W17990  21.574  42.829   5.243
49650W        W17991  33.379  12.655   3.762
49651W        W17992  39.361  29.452  11.419
49652W        W17993   3.377   5.329  14.960
49653W        W17994  41.526   2.334  14.888
49654W        W17995  11.176  42.343  14.967
49655W        W17996   0.942   4.237   3.810
49656W        W17997  12.285  27.529  11.966
49657W        W17998  34.548  42.456   1.394
49658W        W17999  39.895  16.212  13.440
49659W        W18000  30.002   3.936  12.061
49660W        W18001  42.417  23.992   2.902
49661W        W18002  41.362  34.863  11.867
49662W        W18003   4.725  38.487  13.354
49663W        W18004   4.288  30.044   3.198
49664W        W18005  11.844  13.139  10.436
49665W        W18006   2.444  25.155   0.444
49666W        W18007   0.339  44.978  13.514
49667W        W18008  29.486  37.372  10.935
49668W        W18009  32.420  15.658  10.916
49669W        W18010  10.699  35.366   3.197
49670W        W18011  39.515  20.197   0.316
49671W        W18012  20.551  40.381  14.917
49672W        W18013  31.957   9.710  13.503
49673W        W18014   9.156  30.130   3.378
49674W        W18015  35.458  14.632   4.675
49675W        W18016  17.175  44.939   4.121
49676W        W18017   9.331  34.588   3.643
49677W        W18018  42.354  28.654   3.153
49678W        W18019  26.594  37.557   2.391
49679W        W18020   6.425  19.629  13.892
49680W        W18021  41.947  29.991  14.774
49681W        W18022  44.925  40.450   0.473
49682W        W18023  30.533  10.634  12.876
49683W        W18024  44.281  43.967  14.983
49684W        W18025  27.586  26.517  12.541
49685W        W18026  35.474  27.500  10.957
49686W        W18027  36.463  13.717   0.764
49687W        W18028  13.262  32.017  11.004
49688W        W18029  17.706  43.493   0.343
49689W        W18030  14.641   8.741  14.869
49690W        W18031  22.667  40.532  13.056
49691W        W18032  40.870  27.530  12.454
49692W        W18033  19.236  29.101   4.605
49693W        W18034  44.281   9.282  10.487
49694W        W18035  38.021  31.487   3.158
49695W        W18036  38.970  14.800   4.604
49696W        W18037  21.197   0.911  14.829
49697W        W18038  30.968  29.472  11.589
49698W        W18039  34.480  20.270  13.849
49699W        W18040  15.249  22.545   1.420
49700W        W18041  25.989  18.549  10.944
49701W        W18042   5.344   6.798  13.013
49702W        W18043  44.465  30.993  13.940
49703W        W18044  25.605  39.487  13.387
49704W        W18045  28.548  37.463  14.407
49705W        W18046  42.445  26.679   4.249
49706W        W18047  22.709   9.287  10.910
49707W        W18048  15.633  36.372  13.330
49708W        W18049  37.860   2.329  12.380
49709W        W18050  21.602  21.232  12.407
49710W        W18051   1.366  27.522   1.801
49711W        W18052   0.865  32.002  11.593
49712W        W18053  18.247   9.328   1.860
49713W        W18054  29.582  11.251  12.450
49714W        W18055  37.038  33.560   3.794
49715W        W18056  18.716   6.367  12.382
49716W        W18057  34.450  12.660  11.538
49717W        W18058   7.283  31.512  12.991
49718W        W18059  16.789  39.449  12.376
49719W        W18060  10.701   5.691  12.501
49720W        W18061  19.216  36.882  14.504
49721W        W18062  10.811  24.076   2.665
49722W        W18063  39.950  42.819   1.295
49723W        W18064  26.031  22.711   1.220
49724W        W18065  29.466  26.966   3.242
49725W        W18066  39.452  16.737  13.897
49726W        W18067  39.033  37.851  13.888
49727W        W18068  39.891  31.428   4.624
49728W        W18069  41.327  30.961  13.403
49729W        W18070   2.453  13.149   2.282
49730W        W18071  43.771  44.799   4.263
49731W        W18072  10.340  10.837  12.383
49732W        W18073  15.701  21.691   4.642
49733W        W18074   6.344  10.355  12.971
49734W        W18075  17.061  16.181  14.845
49735W        W18076  35.553  33.474   4.839
49736W        W18077  10.214  12.693   9.444
49737W        W18078  38.930  26.554   1.739
49738W        W18079   9.350  32.455  11.064
49739W        W18080   6.423  31.442  13.871
49740W        W18081  26.502  36.014  11.480
49741W        W18082  23.159   6.400   4.649
49742W        W18083  11.335   1.295   2.395
49743W        W18084  24.625  39.433   4.221
49744W        W18085  23.201   7.404  14.282
49745W        W18086  35.876  27.003  10.892
49746W        W18087  20.046  38.551   4.250
49747W        W18088  31.616  33.588   1.310
49748W        W18089  18.218  23.717   2.181
49749W        W18090  16.809  32.044  10.002
49750W        W18091  12.269   3.937  12.404
49751W        W18092  15.764  14.284  11.434
49752W        W18093  42.998  14.627  14.501
49753W        W18094  30.478  25.692  10.940
49754W        W18095   1.287   4.889   2.224
49755W        W18096  42.377  18.264  14.430
49756W        W18097  14.734  34.062  14.981
49757W        W18098  19.102   5.743   4.696
49758W        W18099  41.384  43.877   0.471
49759W        W18100   5.241  20.252  12.450
49760W        W18101  29.469  20.659  14.850
49761W        W18102  35.937  19.149  12.382
49762W        W18103   2.723  27.071  13.999
49763W        W18104  10.873  35.515   0.324
49764W        W18105  34.473  22.644  12.543
49765W        W18106  12.813   5.205   4.232
49766W        W18107   5.916  40.941   4.748
49767W        W18108  19.248   4.426  10.455
49768W        W18109  14.803  39.872  10.079
49769W        W18110  29.111  10.258  12.875
49770W        W18111  32.126  20.190   3.713
49771W        W18112   0.785  10.190  10.429
49772W        W18113   4.401  29.635   0.330
49773W        W18114  39.876  27.539  14.913
49774W        W18115  39.558  38.565  10.567
49775W        W18116  19.645  42.478  11.910
49776W        W18117   6.748   5.919   1.860
49777W        W18118   5.755  21.601  13.983
49778W        W18119   7.388  12.121   0.856
49779W        W18120  25.609   0.442  10.495
49780W        W18121  15.191  43.003   3.363
49781W        W18122  44.492  20.201   1.216
49782W        W18123  35.421  41.862   2.347
49783W        W18124  35.414  31.473   0.398
49784W        W18125  29.138  12.223  11.906
49785W        W18126   7.726  38.329  12.864
49786W        W18127  18.250  23.573   3.329
49787W        W18128  42.939  44.810   0.379
49788W        W18129  12.784  18.554   3.791
49789W        W18130  16.252  20.176  10.993
49790W        W18131   4.841  35.057   2.827
49791W        W18132  17.564  25.598   2.810
49792W        W18133  34.091   9.168  13.924
49793W        W18134  25.028  32.438   1.442
49794W        W18135  44.377  15.621   1.231
49795W        W18136  14.682  30.433   3.761
49796W        W18137  33.113  39.516  10.076
49797W        W18138  22.591  21.729   4.235
49798W        W18139  44.396  18.682  11.571
49799W        W18140  28.493  41.931   4.239
49800W        W18141  21.257  13.252   2.702
49801W        W18142   4.795   5.719   0.857
49802W        W18143  30.467  10.791   3.658
49803W        W18144  39.010  19.251   2.743
49804W        W18145  13.771  23.009  12.504
49805W        W18146  16.170  35.073  14.003
49806W        W18147  14.625  38.843   4.706
49807W        W18148  40.874  40.874  12.891
49808W        W18149   6.881   3.343   3.352
49809W        W18150  23.114   7.878   1.357
49810W        W18151  26.075  23.208  11.555
49811W        W18152  21.651  14.179   0.894
49812W        W18153  24.108   2.849  10.980
49813W        W18154  19.693   1.761  11.017
49814W        W18155   8.245   7.335  13.539
49815W        W18156  27.025  36.571   1.432
49816W        W18157   1.900  21.565   2.375
49817W        W18158  17.134  19.182   3.381
49818W        W18159  41.358  38.848   0.809
49819W        W18160   5.383  21.600  12.845
49820W        W18161  13.622  39.884  11.981
49821W        W18162  41.528  21.630   2.887
49822W        W18163  24.525  43.333   0.760
49823W        W18164  43.828  22.191  11.583
49824W        W18165  37.365  21.708   4.781
49825W        W18166   4.777   0.462   2.278
49826W        W18167  40.394  26.579   2.197
49827W        W18168   9.157  37.939  13.955
49828W        W18169  41.973  34.491   2.329
49829W        W18170  30.133  14.748   0.791
49830W        W18171  33.992  37.433   1.865
49831W        W18172  25.971   6.847  11.519
49832W        W18173  16.654  41.535   0.901
49833W        W18174  21.712   6.187  14.017
49834W        W18175  33.938   3.302  11.124
49835W        W18176  42.527   3.399  12.834
49836W        W18177  18.231  11.202   2.696
49837W        W18178  35.889   7.886   2.860
49838W        W18179  38.430   9.727  11.908
49839W        W18180   7.231  44.754  11.457
49840W        W18181  43.348  15.113  11.401
49841W        W18182   0.977  13.804   0.877
49842W        W18183  20.272  27.651  11.045
49843W        W18184  12.293  11.825  13.523
49844W        W18185  16.611   6.830  12.025
49845W        W18186  32.916  33.099  11.545
49846W        W18187  43.921  39.823   1.908
49847W        W18188  20.177   3.442  11.011
49848W        W18189  33.951  31.094  12.913
49849W        W18190  13.815  25.983  10.636
49850W        W18191  15.305  15.752   0.767
49851W        W18192  43.999  21.150  10.122
49852W        W18193  22.648  16.783   1.224
49853W        W18194  42.937  42.974  13.868
49854W        W18195  40.351  15.318  14.763
49855W        W18196  40.812   1.817  11.606
49856W        W18197  27.676   6.248   0.849
49857W        W18198   8.728  31.551  10.889
49858W        W18199  42.947  12.251   1.860
49859W        W18200   4.357  26.091   3.680
49860W        W18201   0.396  37.387   2.769
49861W        W18202  14.232  35.925   3.178
49862W        W18203  31.566   3.372  12.534
49863W        W18204  31.485  39.940   5.747
49864W        W18205  20.105   5.322   3.361
49865W        W18206  43.012  32.005   0.789
49866W        W18207  15.086  42.418  12.359
49867W        W18208  44.757   9.299  13.543
49868W        W18209  36.917   7.761  13.463
49869W        W18210  33.129  38.420   3.387
49870W        W18211  30.914  18.065  11.123
49871W        W18212  34.033  20.096  10.591
49872W        W18213  26.639  23.195   0.786
49873W        W18214  34.472   5.405  10.994
49874W        W18215   0.839   6.873  10.425
49875W        W18216  10.678  15.637   0.369
49876W        W18217  26.999   8.860   3.755
49877W        W18218  43.496  31.500  11.924
49878W        W18219  13.634  41.950  12.089
49879W        W18220  22.666   4.823  12.354
49880W        W18221  44.928  31.153  10.923
49881W        W18222   1.456  43.902   1.872
49882W        W18223   2.877  30.634   1.214
49883W        W18224  32.446  11.656  14.473
49884W        W18225  16.246  17.556  10.588
49885W        W18226  28.008  33.007  10.937
49886W        W18227  22.594  21.063   1.854
49887W        W18228  19.580   9.831   1.793
49888W        W18229  22.040  10.821   1.879
49889W        W18230   7.330  15.262  10.532
49890W        W18231  13.154   0.954  12.939
49891W        W18232   5.263  40.922   0.738
49892W        W18233  13.224  13.121   3.281
49893W        W18234  25.080   0.939  12.015
49894W        W18235  16.567  32.984  11.957
49895W        W18236  18.769  16.765   3.849
49896W        W18237  25.529  11.643  10.556
49897W        W18238  33.003  14.684   2.835
49898W        W18239  23.553   4.212  10.522
49899W        W18240  25.218   0.932   1.894
49900W        W18241  24.533   5.251   4.149
49901W        W18242  38.947  10.823   0.834
49902W        W18243  21.687  34.887  14.356
49903W        W18244  33.885   0.286   0.244
49904W        W18245   7.853  12.680  13.819
49905W        W18246  41.825   4.222  13.858
49906W        W18247   2.961  11.139   0.279
49907W        W18248  33.910  13.280   2.740
49908W        W18249  31.431   6.817  13.810
49909W        W18250  10.357  16.801   0.823
49910W        W18251   5.229   6.415   2.337
49911W        W18252  26.640   3.299   2.203
49912W        W18253  41.458  36.095  11.987
49913W        W18254  39.916  17.597   2.329
49914W        W18255   2.411  11.851   2.858
49915W        W18256   2.798  14.725  12.034
49916W        W18257  17.577  44.972  11.085
49917W        W18258  20.616  28.627  11.909
49918W        W18259  19.062  39.442  12.085
49919W        W18260  26.052  39.500   0.438
49920W        W18261  21.257  19.747  10.630
49921W        W18262   2.361  31.427   4.629
49922W        W18263   3.803  25.985   1.242
49923W        W18264  24.181   2.258   2.250
49924W        W18265  19.040  19.547  11.886
49925W        W18266  11.223  30.471  11.526
49926W        W18267   5.260  18.248  11.998
49927W        W18268  29.145   6.872   3.298
49928W        W18269  11.768  26.550  12.389
49929W        W18270  13.111  23.048  13.495
49930W        W18271  26.096   5.404  11.893
49931W        W18272  26.488  15.181   1.347
49932W        W18273  13.253  36.493  10.420
49933W        W18274  19.110  13.281  14.852
49934W        W18275  39.498  32.082   3.155
49935W        W18276  15.741   0.845  13.837
49936W        W18277  33.586  31.498   1.846
49937W        W18278   9.351  14.716  12.853
49938W        W18279  26.998  20.090  11.529
49939W        W18280  22.009  29.558   2.318
49940W        W18281  28.040  39.999  14.928
49941W        W18282  42.889  41.354   9.975
49942W        W18283   1.239  42.928  13.310
49943W        W18284  36.853  38.867  14.454
49944W        W18285  33.467   6.321   5.190
49945W        W18286   5.811  10.326   4.718
49946W        W18287  37.032  22.104  11.013
49947W        W18288  40.393   3.752  10.959
49948W        W18289  12.795  34.894  12.020
49949W        W18290  33.912  30.987   0.341
49950W        W18291   6.360  37.845   3.214
49951W        W18292   0.974  38.462   2.721
49952W        W18293  14.777  42.844  10.605
49953W        W18294  19.111  11.341  10.963
49954W        W18295  38.058  29.130  10.432
49955W        W18296  39.034  39.450   4.221
49956W        W18297  15.688  20.645   4.617
49957W        W18298  15.202  37.432  10.960
49958W        W18299  38.828  20.047   3.314
49959W        W18300   5.848  20.035  11.422
49960W        W18301  38.403  17.244   0.778
49961W        W18302  28.617  36.981   3.730
49962W        W18303  13.614  38.563  12.992
49963W        W18304  13.224  41.956   3.372
49964W        W18305  18.279  41.475  13.345
49965W        W18306  34.585  21.553  14.993
49966W        W18307   5.288  34.407  10.540
49967W        W18308  21.079  10.301  10.565
49968W        W18309  19.744  32.461  12.579
49969W        W18310  36.400  13.641  11.957
49970W        W18311  10.772  23.009   1.908
49971W        W18312  36.456  12.699   3.283
49972W        W18313  38.887   8.284   4.820
49973W        W18314  42.032  25.168   3.722
49974W        W18315   4.445  25.171   0.734
49975W        W18316  36.506   2.935   1.272
49976W        W18317  11.785  31.027  12.560
49977W        W18318  44.471   9.259   2.697
49978W        W18319  34.575   3.783   3.837
49979W        W18320  27.140  10.328   4.694
49980W        W18321  28.089  26.677   4.742
49981W        W18322  37.492  38.543  12.842
49982W        W18323  30.058   2.957  14.978
49983W        W18324  10.215  11.294   4.676
49984W        W18325  13.350  18.580   4.200
49985W        W18326  40.506   9.333   2.680
49986W        W18327  27.559  16.656   2.833
49987W        W18328   2.317  37.867  14.484
49988W        W18329  34.428  39.887  12.983
49989W        W18330  20.234   4.384   1.336
49990W        W18331   5.334  34.993   4.309
49991W        W18332  31.021   2.387  10.578
49992W        W18333   5.755   7.758  13.847
49993W        W18334  28.537  25.046  10.583
49994W        W18335  42.332  21.518  12.937
49995W        W18336  17.101  11.186   3.849
49996W        W18337  43.915  41.853  11.482
49997W        W18338  39.919   5.271   1.396
49998W        W18339  28.138   1.302  13.998
49999W        W18340  16.749  16.168  12.570
50000W        W18341  37.413   4.735   1.359
50001W        W18342   0.843  17.263   2.853
50002W        W18343   5.393  10.789   2.382
50003W        W18344  33.428  14.637  10.922
50004W        W18345   1.919  17.156  13.846
50005W        W18346  18.247  15.168   1.739
50006W        W18347   9.296  14.646   3.284
50007W        W18348  25.041  32.463  14.004
50008W        W18349  18.217  12.130   3.726
50009W        W18350  12.129  22.019  11.456
50010W        W18351  37.948  29.433  13.323
50011W        W18352  33.595  11.814  11.992
50012W        W18353   2.915   3.717  14.471
50013W        W18354  20.689  23.170   3.342
50014W        W18355  35.551  23.231  12.370
50015W        W18356  35.056  15.310   2.385
50016W        W18357  35.417  35.891  13.406
50017W        W18358  31.967  29.062  11.416
50018W        W18359  33.391  43.885   3.155
50019W        W18360  20.542  35.924   4.117
50020W        W18361  10.752  31.924   3.871
50021W        W18362  18.184   2.787  12.953
50022W        W18363  30.588   0.305   4.322
50023W        W18364   5.401  23.651  12.009
50024W        W18365  12.311  25.544  12.514
50025W        W18366   4.449  34.380   4.655
50026W        W18367  42.345  39.015  11.050
50027W        W18368  14.812  33.041  13.414
50028W        W18369  29.551  18.181   3.306
50029W        W18370  15.313  32.395   5.637
50030W        W18371  16.767  16.781   2.230
50031W        W18372  14.671  15.747  11.970
50032W        W18373  44.998   4.794   2.730
50033W        W18374  29.657  39.479  14.891
50034W        W18375  44.452  13.278  11.456
50035W        W18376  19.724   6.715  13.397
50036W        W18377  44.801  23.630   3.163
50037W        W18378  26.532  16.791   0.248
50038W        W18379  31.956  40.977  10.459
50039W        W18380   3.378   2.751  12.408
50040W        W18381  18.780  23.646   4.715
50041W        W18382   4.710  40.803   1.428
50042W        W18383  34.388  29.150  12.521
50043W        W18384  13.250  25.621   0.358
50044W        W18385  12.277  34.018   0.730
50045W        W18386   9.811   5.709  12.560
50046W        W18387   8.684  36.000   0.345
50047W        W18388  21.644  42.822   0.860
50048W        W18389  14.691  30.061   4.314
50049W        W18390  31.464  40.873  12.958
50050W        W18391  29.527  32.034   3.332
50051W        W18392  14.258  34.441   1.826
50052W        W18393  11.723   0.464  12.923
50053W        W18394  16.283  42.496   1.697
50054W        W18395  18.209  12.331  12.030
50055W        W18396  12.323  30.934   2.875
50056W        W18397   4.205   9.335   2.877
50057W        W18398  14.707   8.663   2.285
50058W        W18399  10.694  20.121   3.344
50059W        W18400  13.688   7.329  12.005
50060W        W18401  11.868  23.054  14.444
50061W        W18402  32.631   5.881   2.364
50062W        W18403  31.612   0.337  12.895
50063W        W18404  15.728  15.328   2.179
50064W        W18405  26.110  30.152  13.412
50065W        W18406  34.073  10.232  11.915
50066W        W18407  18.637  26.574   2.787
50067W        W18408  34.883  22.083   2.733
50068W        W18409   4.812  35.952  11.997
50069W        W18410  16.719  37.487  13.056
50070W        W18411  15.809   7.770   1.233
50071W        W18412  41.985  22.093  13.804
50072W        W18413  25.173  26.055   9.582
50073W        W18414  34.110  29.647  12.069
50074W        W18415  10.684   5.234   3.673
50075W        W18416  11.681  39.490  15.000
50076W        W18417  14.591  12.129   1.401
50077W        W18418  38.352  26.513   1.222
50078W        W18419  25.559   2.319  14.940
50079W        W18420   4.817  24.722   2.671
50080W        W18421  33.068  43.474   2.876
50081W        W18422  18.611  36.475   1.286
50082W        W18423  29.608  28.526  14.975
50083W        W18424  14.243  23.157  12.515
50084W        W18425  15.084   6.358  11.113
50085W        W18426  22.729  43.856  11.932
50086W        W18427  13.617  15.289  12.507
50087W        W18428  43.379  20.663   0.364
50088W        W18429  18.225  40.373   4.268
50089W        W18430  11.266  18.680  13.982
50090W        W18431  32.490  10.713   1.807
50091W        W18432  19.765  26.079   2.315
50092W        W18433  21.078  33.021  13.059
50093W        W18434  36.936  11.757   4.123
50094W        W18435  17.606  17.271   0.748
50095W        W18436  15.657  39.900   4.700
50096W        W18437  28.967   9.697   0.819
50097W        W18438  37.517   7.293  11.574
50098W        W18439  24.154  17.260   2.814
50099W        W18440  18.554   4.259  10.895
50100W        W18441  38.956  26.699   2.293
50101W        W18442  35.065  23.528  14.407
50102W        W18443  33.408  31.408   0.308
50103W        W18444  41.883  22.587   4.190
50104W        W18445  38.484  38.977   4.750
50105W        W18446  43.494   5.930   2.774
50106W        W18447  29.056  27.998   1.723
50107W        W18448  10.672  15.245  12.951
50108W        W18449  39.526  22.742   1.362
50109W        W18450  43.512  23.034   1.750
50110W        W18451  37.551  44.941  12.341
50111W        W18452  14.775   0.904   4.734
50112W        W18453  33.076  43.459  12.091
50113W        W18454  37.018  22.194  14.480
50114W        W18455  39.004   2.339  14.455
50115W        W18456  40.885  37.498   3.759
50116W        W18457  10.257  15.247   1.430
50117W        W18458  40.847   3.439  11.512
50118W        W18459  37.086  24.535   2.253
50119W        W18460  11.703   2.249   3.684
50120W        W18461   7.235  30.467   2.772
50121W        W18462  44.340  40.016   4.607
50122W        W18463  14.144  23.208   4.234
50123W        W18464  29.480  30.028  12.449
50124W        W18465  12.680  38.830  10.003
50125W        W18466   1.845   5.351  10.998
50126W        W18467  19.674  11.672  11.529
50127W        W18468   5.332  35.368   1.304
50128W        W18469  12.327   5.698   0.274
50129W        W18470  43.479  15.278  14.862
50130W        W18471   3.883  24.623  13.039
50131W        W18472   6.205  31.516  13.374
50132W        W18473  37.881  44.387   4.626
50133W        W18474  19.544  12.126  10.920
50134W        W18475   6.679  27.624   3.642
50135W        W18476   6.891  35.956  13.342
50136W        W18477  11.854  41.364   3.212
50137W        W18478  34.879   5.844   3.851
50138W        W18479  10.814  28.524  13.439
50139W        W18480  43.778  15.719   0.475
50140W        W18481  43.876  12.792  12.934
50141W        W18482  40.969  39.844   2.267
50142W        W18483  43.946  37.389  10.529
50143W        W18484  18.068  41.403   2.813
50144W        W18485  42.447  18.594   2.226
50145W        W18486  15.650  36.399   1.784
50146W        W18487  12.145  20.192  11.432
50147W        W18488   9.273  37.997   4.644
50148W        W18489  42.360  20.526   1.898
50149W        W18490  17.135  20.696   5.083
50150W        W18491  25.572  36.571   0.965
50151W        W18492   2.431   3.290   0.468
50152W        W18493  11.709  37.553   4.745
50153W        W18494  24.069   4.852   1.349
50154W        W18495  42.934  40.391  10.505
50155W        W18496  19.235   0.774   2.350
50156W        W18497  13.152  38.432   0.451
50157W        W18498  36.465  20.727   2.254
50158W        W18499  36.369  19.154  11.995
50159W        W18500  42.290   6.861   2.723
50160W        W18501  44.483  10.731  14.776
50161W        W18502  42.409  15.823   1.805
50162W        W18503  22.598   9.183  14.455
50163W        W18504  36.423  34.990  10.456
50164W        W18505  25.211  23.178   0.399
50165W        W18506  41.024  24.190   3.173
50166W        W18507  24.093  10.382   1.301
50167W        W18508  42.004  35.034  10.482
50168W        W18509  31.480  37.383   0.822
50169W        W18510  34.454  10.832   2.768
50170W        W18511  40.891  44.466  14.938
50171W        W18512  26.617  25.963  14.342
50172W        W18513  39.977  44.846   3.303
50173W        W18514  33.943  32.049  10.407
50174W        W18515   7.821  29.603  13.345
50175W        W18516  31.511  16.092   1.376
50176W        W18517  30.592  20.104   3.183
50177W        W18518  26.976  18.186   0.930
50178W        W18519  14.274  44.265   2.823
50179W        W18520  29.615   0.753   0.768
50180W        W18521  44.810  13.783  10.914
50181W        W18522  42.502   3.840   4.698
50182W        W18523  17.087   9.293   3.211
50183W        W18524  27.016   8.862  14.985
50184W        W18525   4.834  43.510   1.781
50185W        W18526  29.566  29.516   1.394
50186W        W18527  42.366  10.207   1.424
50187W        W18528  25.041   0.253  12.363
50188W        W18529  26.531  42.500  11.959
50189W        W18530  15.204   1.422   0.968
50190W        W18531  27.600  33.903   2.290
50191W        W18532   6.813  36.440   4.632
50192W        W18533   5.353  21.190  11.609
50193W        W18534  31.514  33.620   3.645
50194W        W18535  36.908   5.889   0.737
50195W        W18536  12.180   4.903   4.625
50196W        W18537  18.734  30.465  11.440
50197W        W18538  11.231  28.030  14.922
50198W        W18539  37.057  34.006   4.831
50199W        W18540  29.642   6.204   4.702
50200W        W18541  18.753  13.142   4.331
50201W        W18542  28.623  31.419   1.234
50202W        W18543   2.844  27.506   4.730
50203W        W18544  39.360  29.445   0.448
50204W        W18545  38.847  33.403   5.093
50205W        W18546  26.630   2.881   0.749
50206W        W18547  29.964  31.030   0.968
50207W        W18548   0.833  17.776  10.050
50208W        W18549  20.713   1.382  13.806
50209W        W18550  16.782  24.178   9.491
50210W        W18551   5.199  21.686   0.311
50211W        W18552  14.219  16.776  14.000
50212W        W18553   7.850  17.203   4.790
50213W        W18554  24.177  40.342  14.369
50214W        W18555   8.747  40.040  11.044
50215W        W18556  20.208  11.701  14.951
50216W        W18557   0.865  29.659   0.380
50217W        W18558  37.873  40.957  13.361
50218W        W18559   1.357   0.929   1.424
50219W        W18560  36.378  30.585   3.854
50220W        W18561  40.957  34.487  12.047
50221W        W18562   6.922   1.430  11.042
50222W        W18563  18.278   6.299  14.321
50223W        W18564  44.464   3.362  10.012
50224W        W18565  25.189  44.948  11.044
50225W        W18566  16.262  38.994   9.985
50226W        W18567  11.859  28.094  12.863
50227W        W18568  14.696  36.059  10.077
50228W        W18569  20.569  33.445   3.764
50229W        W18570   4.322  34.483   2.404
50230W        W18571   0.449  12.821   1.211
50231W        W18572   1.947  44.338   5.187
50232W        W18573  22.515  37.361  14.980
50233W        W18574  26.003  26.195  12.068
50234W        W18575   6.922  20.127  14.408
50235W        W18576  21.192  32.398  13.429
50236W        W18577  34.593   6.899   4.716
50237W        W18578  33.559  16.236  10.632
50238W        W18579  33.077  19.583   3.350
50239W        W18580  36.497   5.802  11.002
50240W        W18581  43.496  16.159   1.434
50241W        W18582  18.172  19.726  13.411
50242W        W18583  35.918   6.394  11.928
50243W        W18584  37.844  33.460  12.909
50244W        W18585  11.242   4.902  13.849
50245W        W18586   5.324  11.774  11.470
50246W        W18587   0.465  13.114   3.768
50247W        W18588  25.704   4.862  14.473
50248W        W18589   4.853  18.560   2.393
50249W        W18590  40.376  12.696  14.479
50250W        W18591  23.706  20.238   0.787
50251W        W18592  26.501  14.122   4.709
50252W        W18593  25.215  43.404   2.295
50253W        W18594  30.065  16.117   1.736
50254W        W18595  10.307  11.842   0.352
50255W        W18596  44.417  22.996   0.355
50256W        W18597  21.147   7.896  14.282
50257W        W18598  37.971   8.875   0.868
50258W        W18599  23.039   4.874   4.307
50259W        W18600   4.286  34.413   3.759
50260W        W18601  20.614  17.618  13.995
50261W        W18602  32.524  24.640   2.296
50262W        W18603  34.042  33.545   2.710
50263W        W18604  11.626  35.408   0.429
50264W        W18605  37.039  22.190   1.303
50265W        W18606  33.924  27.048  11.562
50266W        W18607   9.796   4.726   4.643
50267W        W18608  44.999  32.567   0.267
50268W        W18609   6.823   8.171  10.461
50269W        W18610  13.844  41.453  12.350
50270W        W18611   8.661  39.882  10.569
50271W        W18612  10.768  42.525   4.790
50272W        W18613  28.156  13.740  14.479
50273W        W18614  35.451  24.021  11.877
50274W        W18615  41.819   6.296   3.705
50275W        W18616  16.120  35.458  10.621
50276W        W18617  23.508  10.875  11.059
50277W        W18618  43.019  37.435   0.358
50278W        W18619  42.343  36.074   1.228
50279W        W18620  16.678  31.552  10.599
50280W        W18621  14.255  29.968   4.775
50281W        W18622  32.103  21.541   0.256
50282W        W18623  39.884  42.428   0.758
50283W        W18624  32.098   3.837   1.428
50284W        W18625  13.630   1.851  11.389
50285W        W18626  20.232  38.970  11.491
50286W        W18627  28.580  20.648  14.939
50287W        W18628  35.414  10.213  12.500
50288W        W18629  44.492  37.029   1.761
50289W        W18630  31.017  26.027   4.147
50290W        W18631   1.906  39.862  14.996
50291W        W18632  44.850   7.345  14.320
50292W        W18633   6.372   0.258  14.295
50293W        W18634  37.447  25.558   0.901
50294W        W18635   6.379  19.158   3.276
50295W        W18636  29.475   9.150  14.969
50296W        W18637  38.967   4.435  13.816
50297W        W18638  16.580  22.583  13.859
50298W        W18639  40.518  24.576  11.483
50299W        W18640   2.956  38.554   2.320
50300W        W18641   2.254  25.503   3.804
50301W        W18642  20.535  30.050   3.285
50302W        W18643  29.425  21.127  11.959
50303W        W18644  11.795  22.696   1.815
50304W        W18645  26.658  27.634  11.488
50305W        W18646  34.442  19.135  10.420
50306W        W18647  38.893   1.274  11.575
50307W        W18648  42.379   1.281   3.386
50308W        W18649  16.179   2.226   1.254
50309W        W18650  11.216   2.328  11.589
50310W        W18651  11.726  18.685   0.398
50311W        W18652  36.448  17.233   4.194
50312W        W18653  11.241  32.416  10.611
50313W        W18654  26.661  34.602  11.891
50314W        W18655   7.761   0.276  10.946
50315W        W18656  30.610   9.753   3.216
50316W        W18657  25.668  18.159   2.875
50317W        W18658  17.229  24.693   0.430
50318W        W18659  17.755  17.630  13.975
50319W        W18660  23.552   2.848  13.007
50320W        W18661  27.042  25.203  14.854
50321W        W18662  30.064   4.791   1.720
50322W        W18663  39.921  39.808   3.158
50323W        W18664  16.083  21.023   1.824
50324W        W18665   0.257  32.014  14.507
50325W        W18666   6.838  36.004  13.930
50326W        W18667   5.410  14.132  13.853
50327W        W18668  14.214  42.800  14.759
50328W        W18669  17.558  34.553  10.497
50329W        W18670   6.368  43.872   2.859
50330W        W18671  15.771  10.276   1.325
50331W        W18672   1.248  10.337   4.775
50332W        W18673  15.277   8.281   2.864
50333W        W18674  43.383  24.229   3.861
50334W        W18675   3.832  39.920   0.430
50335W        W18676  35.536  34.489   4.684
50336W        W18677  21.632  34.433  11.905
50337W        W18678   2.397  24.043   0.827
50338W        W18679   4.849  36.920   3.772
50339W        W18680   4.350  43.292   2.383
50340W        W18681  15.205  29.640   1.794
50341W        W18682  34.519  25.494   4.627
50342W        W18683   1.780  26.155  12.398
50343W        W18684  23.710  30.924  11.115
50344W        W18685  18.742  21.684   3.802
50345W        W18686   5.329   9.206  13.023
50346W        W18687  36.884  43.347  12.863
50347W        W18688   5.813   1.866  13.371
50348W        W18689  18.060  35.869   4.174
50349W        W18690   3.859  15.311  10.645
50350W        W18691  43.949  32.892   0.340
50351W        W18692  22.182   6.300  12.379
50352W        W18693  40.898  23.056   2.736
50353W        W18694  35.986  39.969  11.943
50354W        W18695  18.295  30.591  10.633
50355W        W18696  13.344   0.256   3.846
50356W        W18697  39.344  10.801   0.846
50357W        W18698   5.778  41.947  13.362
50358W        W18699  15.579  34.025   5.117
50359W        W18700  10.368  12.675   1.249
50360W        W18701  20.596  20.730   2.801
50361W        W18702  12.767  40.471   0.404
50362W        W18703  15.645   4.349  13.971
50363W        W18704   7.289  36.530  10.409
50364W        W18705  13.183  25.154  13.485
50365W        W18706  37.362  18.082   4.211
50366W        W18707   1.764  13.319  12.536
50367W        W18708  31.422  40.471  13.440
50368W        W18709  35.879  38.364  11.030
50369W        W18710  21.600   8.293   1.903
50370W        W18711  27.142   1.395  12.030
50371W        W18712  30.507  44.981  13.380
50372W        W18713  13.232   6.358   9.956
50373W        W18714  26.616  42.401   1.363
50374W        W18715  27.522  19.147  12.861
50375W        W18716  36.893   3.906  10.491
50376W        W18717  10.170   1.942  11.989
50377W        W18718  12.351  24.678  13.909
50378W        W18719  25.558  26.062   1.788
50379W        W18720   8.693  33.975   2.867
50380W        W18721  35.099  12.146   2.232
50381W        W18722  30.159  35.522  12.400
50382W        W18723  28.069   3.370   0.298
50383W        W18724  29.456  17.238  10.138
50384W        W18725  41.938   2.417  10.977
50385W        W18726  26.100  28.595   0.426
50386W        W18727  42.955  17.690   2.708
50387W        W18728  42.931  42.915  12.014
50388W        W18729  30.932   6.845   0.743
50389W        W18730   3.313   3.432  13.501
50390W        W18731  35.010  16.273   4.211
50391W        W18732   7.221  28.108  13.475
50392W        W18733  12.168  30.978  14.503
50393W        W18734  33.621  21.672   3.762
50394W        W18735  28.551  28.679   4.281
50395W        W18736   3.823   6.908   1.769
50396W        W18737  10.195  41.431  14.334
50397W        W18738  32.451  40.417   3.310
50398W        W18739  40.435  17.206   1.906
50399W        W18740  41.438   9.731  14.463
50400W        W18741  13.161   8.826  13.824
50401W        W18742   1.946  38.980   3.284
50402W        W18743  29.567  43.903  13.400
50403W        W18744  24.497  18.686  14.493
50404W        W18745  13.172  14.245   1.448
50405W        W18746  39.876   8.863  13.432
50406W        W18747  13.298   2.959   2.671
50407W        W18748  34.096  32.018   2.803
50408W        W18749  40.365  44.347  10.415
50409W        W18750  25.217  24.479   1.757
50410W        W18751   5.296  38.075  14.979
50411W        W18752  41.809  44.495   4.674
50412W        W18753  33.518   1.977   3.713
50413W        W18754  39.003  20.673  11.462
50414W        W18755   8.744  19.651   4.159
50415W        W18756  11.765  21.263  13.470
50416W        W18757   3.255  13.208  11.080
50417W        W18758  38.349  12.352   0.281
50418W        W18759  39.375  30.070   4.681
50419W        W18760  10.225  33.557   1.880
50420W        W18761   0.780  16.780   0.818
50421W        W18762  16.136   5.698  14.986
50422W        W18763  22.020  38.926  11.009
50423W        W18764   6.895   3.431   2.830
50424W        W18765  43.949   8.712   1.733
50425W        W18766   7.776  14.736  10.571
50426W        W18767  43.882   0.303   2.664
50427W        W18768   2.301  11.708  14.005
50428W        W18769  20.761  15.682  11.401
50429W        W18770  17.138   4.762  13.946
50430W        W18771  25.596  23.513  11.480
50431W        W18772  33.389  17.067   4.218
50432W        W18773   8.870  30.554  11.405
50433W        W18774   3.449  24.077   0.405
50434W        W18775  40.803   2.339   4.276
50435W        W18776  31.402   0.352  10.617
50436W        W18777  22.995  18.604   2.389
50437W        W18778  25.042   0.771   4.185
50438W        W18779   1.439  28.043  13.937
50439W        W18780   1.778  17.669  10.922
50440W        W18781  24.623  29.436   9.973
50441W        W18782  38.348  42.366   2.286
50442W        W18783  23.073  27.037   3.196
50443W        W18784  27.996  29.073  14.495
50444W        W18785   1.349  41.833  14.353
50445W        W18786  43.828  42.296   1.385
50446W        W18787  21.148  13.838  13.011
50447W        W18788  26.678  37.344   0.298
50448W        W18789  35.602   0.976   2.758
50449W        W18790  24.618   7.356   0.934
50450W        W18791  14.706  17.086  11.453
50451W        W18792  29.136  10.824  11.487
50452W        W18793  40.809  34.520   3.359
50453W        W18794  42.401  17.287  12.347
50454W        W18795   0.909  24.099  14.958
50455W        W18796   1.783   4.316   3.749
50456W        W18797  14.340  25.532   4.672
50457W        W18798   9.209  32.548   2.669
50458W        W18799  30.546  20.756   0.311
50459W        W18800  13.258  19.167  10.905
50460W        W18801  38.917  32.474   4.827
50461W        W18802  11.724  29.958  12.526
50462W        W18803  23.677  13.635  12.482
50463W        W18804  39.451  16.240  12.377
50464W        W18805  33.553  21.708  12.864
50465W        W18806  25.967   0.415   4.182
50466W        W18807   0.770  13.822   1.703
50467W        W18808   1.972  36.382  13.542
50468W        W18809  35.531  43.516  12.909
50469W        W18810  24.705  25.084  14.935
50470W        W18811  14.187  38.415   2.756
50471W        W18812   5.226  15.676   1.826
50472W        W18813  15.124  42.395   4.222
50473W        W18814  17.281   0.265  11.933
50474W        W18815   7.714  33.566  11.935
50475W        W18816  39.972  28.007  10.411
50476W        W18817   2.781   5.259   1.372
50477W        W18818  21.588   1.909  12.371
50478W        W18819  28.492  37.901   0.264
50479W        W18820  39.820  11.637  14.949
50480W        W18821  43.362  16.806   0.307
50481W        W18822  24.528  21.691  10.640
50482W        W18823  43.324  18.725   5.108
50483W        W18824   9.725  12.737   2.281
50484W        W18825   6.737  17.790   0.828
50485W        W18826  33.563  35.905  14.839
50486W        W18827  26.500  22.184   2.180
50487W        W18828  36.536  17.223   0.325
50488W        W18829  29.122  10.221  13.425
50489W        W18830  22.107   0.310  12.530
50490W        W18831  20.545  31.502   4.234
50491W        W18832  33.415  38.477   0.791
50492W        W18833  24.209  29.127   1.229
50493W        W18834  15.631  13.232   2.877
50494W        W18835  44.764   6.342  14.791
50495W        W18836  37.902  13.238   3.790
50496W        W18837  33.466  26.022   3.755
50497W        W18838  42.783  42.814   1.924
50498W        W18839  21.074   1.400  14.866
50499W        W18840  22.555  41.478   3.273
50500W        W18841  20.146  14.695  10.617
50501W        W18842  34.880   3.417   0.864
50502W        W18843  42.504  31.628  13.819
50503W        W18844  36.934  29.078  13.446
50504W        W18845   8.384  17.252  14.927
50505W        W18846  30.521  19.632  12.891
50506W        W18847  42.349  13.272  12.357
50507W        W18848   0.438  25.544  11.471
50508W        W18849  14.323  18.189  14.775
50509W        W18850   0.408  35.402   3.254
50510W        W18851  27.950  26.102   1.923
50511W        W18852  14.690  31.602   2.300
50512W        W18853  32.578  35.872  10.578
50513W        W18854   9.280  25.027   1.758
50514W        W18855   5.819   6.327  11.486
50515W        W18856  36.495  39.445   0.780
50516W        W18857   9.175  40.836  12.981
50517W        W18858  14.267  28.631   0.923
50518W        W18859  26.097  20.728  11.558
50519W        W18860  44.785  31.952   2.258
50520W        W18861  31.997  21.044  12.548
50521W        W18862  44.901  18.224   1.220
50522W        W18863   8.654   7.248  14.368
50523W        W18864   0.840  42.863  13.345
50524W        W18865  38.492  43.416   2.722
50525W        W18866   3.832  36.003   3.206
50526W        W18867  41.878  38.527   1.308
50527W        W18868  40.854  13.827  12.910
50528W        W18869  40.541  41.293   4.338
50529W        W18870   2.295   8.732  14.775
50530W        W18871  18.170  24.136  13.931
50531W        W18872  35.906   8.349   2.700
50532W        W18873  30.418   7.400   0.904
50533W        W18874   2.405   3.858  12.910
50534W        W18875  21.624  43.939  13.322
50535W        W18876  27.585  28.162  14.315
50536W        W18877   9.341  37.892  12.013
50537W        W18878   4.894  38.058  11.509
50538W        W18879  10.826  42.024   2.218
50539W        W18880  12.683  10.843  10.143
50540W        W18881  33.619  42.947   0.943
50541W        W18882   6.902  34.528   4.838
50542W        W18883   9.316  40.858  10.606
50543W        W18884  40.955  12.306   2.233
50544W        W18885   7.759   4.222   3.305
50545W        W18886  44.372  22.008   0.412
50546W        W18887  44.941   6.758  14.324
50547W        W18888  41.919  37.011   0.394
50548W        W18889  17.756  42.815  14.945
50549W        W18890  27.560  41.892   1.262
50550W        W18891   7.861   3.331  14.908
50551W        W18892  40.998  33.501  11.440
50552W        W18893  40.882   6.302  13.890
50553W        W18894  41.444  32.413  14.382
50554W        W18895   5.299   3.443   0.733
50555W        W18896  18.130  36.912   2.692
50556W        W18897  29.001  21.184   1.232
50557W        W18898  30.496  42.517  12.008
50558W        W18899  43.477  38.841   0.734
50559W        W18900  16.618  29.450  13.919
50560W        W18901  28.010  44.907  12.943
50561W        W18902   8.188  38.915   1.381
50562W        W18903   3.278  24.672  13.817
50563W        W18904  40.811  31.930   1.331
50564W        W18905  25.994  15.578   1.430
50565W        W18906  44.968  10.638  12.037
50566W        W18907  33.901  30.526  13.395
50567W        W18908  19.064   9.793  14.936
50568W        W18909  32.897  37.339  12.562
50569W        W18910  42.938  34.545  12.571
50570W        W18911  36.511  15.641   3.667
50571W        W18912  20.552   5.816   4.765
50572W        W18913  37.358  36.858   3.765
50573W        W18914  20.612   6.342  12.998
50574W        W18915  34.078   9.660   4.292
50575W        W18916  26.188   8.758   3.634
50576W        W18917  34.049  19.656  11.548
50577W        W18918  38.347   0.927  13.831
50578W        W18919   3.839  10.327  10.464
50579W        W18920  26.984  42.887   4.617
50580W        W18921  13.170  22.113   3.732
50581W        W18922  30.421  10.787  11.947
50582W        W18923  14.272  21.145  11.443
50583W        W18924  11.762  33.522   5.212
50584W        W18925  40.346   1.932   0.728
50585W        W18926  40.817   3.435  14.032
50586W        W18927  24.038  44.759   3.354
50587W        W18928  43.769  36.387  11.400
50588W        W18929  38.048  13.189  11.996
50589W        W18930  31.551  35.014   1.368
50590W        W18931  15.227  30.055  14.017
50591W        W18932  12.707  11.698  13.842
50592W        W18933   7.213  31.570   0.382
50593W        W18934  14.280  12.785  14.015
50594W        W18935   3.793   4.931  12.857
50595W        W18936  25.632   7.283  14.767
50596W        W18937  10.150  12.276   3.765
50597W        W18938  14.269  36.409  11.464
50598W        W18939  17.631  10.143  11.552
50599W        W18940   4.399  19.146   4.774
50600W        W18941  20.735  40.811   4.672
50601W        W18942   1.868  19.747   4.225
50602W        W18943   6.390  27.953   2.787
50603W        W18944   4.222   1.759  10.441
50604W        W18945  32.009  27.485  13.846
50605W        W18946  37.998   6.734   4.207
50606W        W18947  40.992   7.404   0.844
50607W        W18948  32.988   3.345   3.269
50608W        W18949   1.348  35.987   3.772
50609W        W18950  44.346  16.147  12.941
50610W        W18951   4.330  34.931   1.278
50611W        W18952  28.058  15.592  12.441
50612W        W18953  15.689  28.464   2.314
50613W        W18954  10.683  14.330   3.375
50614W        W18955  32.909   3.229  14.297
50615W        W18956   0.760  17.196  12.825
50616W        W18957  31.604  38.531   1.698
50617W        W18958   4.855  29.602   3.363
50618W        W18959   8.235  15.805   4.819
50619W        W18960   0.965  36.918  13.346
50620W        W18961  24.223  13.767  14.276
50621W        W18962  37.505   5.749  14.928
50622W        W18963  29.072  25.101   2.324
50623W        W18964  31.055  20.128  13.510
50624W        W18965  22.250   1.346  13.488
50625W        W18966  16.660  44.483  11.565
50626W        W18967  33.992  17.556   0.285
50627W        W18968   3.902  28.588  14.294
50628W        W18969  35.899  40.513   4.284
50629W        W18970   5.372  14.299   3.162
50630W        W18971   1.306  43.293  12.913
50631W        W18972  22.669  23.020  11.457
50632W        W18973  26.479   3.921  12.343
50633W        W18974  36.874  20.597  12.084
50634W        W18975  18.115  20.557   9.972
50635W        W18976  31.634  14.601  13.791
50636W        W18977  15.729  43.961   2.886
50637W        W18978   8.766  23.514  12.833
50638W        W18979  11.358  26.481   4.216
50639W        W18980   2.837  29.167  11.884
50640W        W18981  30.163   1.926  11.958
50641W        W18982  10.206  44.998   4.282
50642W        W18983  28.012  13.616   3.347
50643W        W18984  21.653  38.443  13.028
50644W        W18985  10.381  29.032   3.329
50645W        W18986  32.533  39.557   1.918
50646W        W18987  18.789   3.940  13.929
50647W        W18988  35.874   0.964   3.163
50648W        W18989  25.628  15.631  11.455
50649W        W18990  33.011   4.749  14.935
50650W        W18991   0.295  40.891   2.856
50651W        W18992  38.947  12.222   4.733
50652W        W18993  36.052   7.837  12.512
50653W        W18994  32.619  43.433   3.286
50654W        W18995  10.739  12.823   4.147
50655W        W18996  18.179  44.483   0.907
50656W        W18997  26.671   0.276  14.024
50657W        W18998  32.131  28.074  13.517
50658W        W18999  36.042  29.588   4.182
50659W        W19000  35.852  30.060  10.613
50660W        W19001  28.937  23.721  14.840
50661W        W19002  13.628   0.461   1.754
50662W        W19003  10.755  44.873   0.257
50663W        W19004  19.229  31.475   1.442
50664W        W19005   1.399  18.580  13.942
50665W        W19006   3.232  16.764  10.918
50666W        W19007  30.134   6.407  12.977
50667W        W19008  34.551   5.397   3.252
50668W        W19009  21.109   0.934   0.791
50669W        W19010  40.801  37.534  12.964
50670W        W19011  11.643  31.153   1.713
50671W        W19012   0.467   2.241  13.403
50672W        W19013  11.829  10.752  11.558
50673W        W19014  12.716  35.603   2.816
50674W        W19015   8.337   5.284  11.468
50675W        W19016  41.791  23.007   2.836
50676W        W19017  10.677  36.052   2.406
50677W        W19018   5.881   7.715   2.236
50678W        W19019  27.033  12.826   0.287
50679W        W19020  32.105   7.191   2.314
50680W        W19021  33.415  14.675   3.667
50681W        W19022   6.204   8.243   4.647
50682W        W19023  44.755   7.248   0.756
50683W        W19024  35.459  36.096   4.598
50684W        W19025   6.732  19.110   3.769
50685W        W19026  37.411  26.134   0.788
50686W        W19027  28.049  12.316   5.208
50687W        W19028  16.613  36.035   1.282
50688W        W19029  12.295  36.036  11.024
50689W        W19030   3.384  38.352  11.072
50690W        W19031   5.321  17.219   2.232
50691W        W19032  44.769  11.671  10.132
50692W        W19033  13.763   1.288   2.278
50693W        W19034  44.885  14.591   0.431
50694W        W19035  28.486   2.756   0.426
50695W        W19036   5.767   9.796   0.242
50696W        W19037  13.788  24.569  13.408
50697W        W19038  37.885  44.406  11.494
50698W        W19039  11.868   3.384  13.543
50699W        W19040  23.572   8.279  12.888
50700W        W19041  34.893  36.067   1.358
50701W        W19042   1.828   5.406   2.225
50702W        W19043  13.251  14.097  12.534
50703W        W19044   0.294  43.294  10.589
50704W        W19045   2.349   4.873  11.442
50705W        W19046  10.655   6.253  12.573
50706W        W19047   0.898   1.428   1.282
50707W        W19048  43.826  37.980   3.692
50708W        W19049  13.297   7.279   2.352
50709W        W19050  35.597  44.435   4.201
50710W        W19051  10.281  37.969   2.304
50711W        W19052  21.739  35.933   3.830
50712W        W19053  36.848  34.058   0.355
50713W        W19054  33.400  42.350   4.796
50714W        W19055   8.322   5.227   0.872
50715W        W19056   3.307  23.586  14.890
50716W        W19057  36.581  10.190   3.232
50717W        W19058  39.356  23.068  12.059
50718W        W19059  23.168   3.441   1.311
50719W        W19060   7.718   0.859   9.958
50720W        W19061   6.270  17.248  13.019
50721W        W19062  41.957  14.714  14.962
50722W        W19063  36.928  44.790  12.977
50723W        W19064  32.594  15.609  11.535
50724W        W19065  11.267  38.400  10.453
50725W        W19066  31.596  19.557   0.919
50726W        W19067  31.116  13.701   0.399
50727W        W19068   8.830  37.470   2.785
50728W        W19069  38.424  25.204   4.351
50729W        W19070  41.318   9.309  12.944
50730W        W19071  41.892  28.539   2.700
50731W        W19072  39.348  44.308   1.755
50732W        W19073   7.414  10.238   2.807
50733W        W19074  10.785  22.131   0.962
50734W        W19075  16.194  20.530   1.433
50735W        W19076  19.587   7.733  10.967
50736W        W19077  37.860  20.252   2.825
50737W        W19078   0.932  30.492   1.344
50738W        W19079  17.280  16.740  14.851
50739W        W19080  43.291  35.528   1.266
50740W        W19081  18.111  22.633   4.159
50741W        W19082  34.428  32.439   1.390
50742W        W19083  27.997  12.852   3.822
50743W        W19084   1.292  15.161  14.979
50744W        W19085  16.676  42.423   2.819
50745W        W19086   1.365  32.462  11.095
50746W        W19087  40.941  28.680  10.442
50747W        W19088  22.686  15.208   3.715
50748W        W19089  23.616  43.919  11.547
50749W        W19090  29.015  23.038   3.800
50750W        W19091  21.681   7.281   3.233
50751W        W19092   1.745  18.620  13.849
50752W        W19093  26.139  24.056   2.381
50753W        W19094  41.485  18.675   1.907
50754W        W19095  22.033  23.626   1.744
50755W        W19096  24.616   7.767   2.315
50756W        W19097  25.120  34.973   2.310
50757W        W19098   8.771  43.333   4.829
50758W        W19099   1.854  26.532   0.822
50759W        W19100  35.563   0.399   0.331
50760W        W19101  30.586  16.230   4.167
50761W        W19102  42.893  19.712   0.803
50762W        W19103  10.742  18.212  10.469
50763W        W19104  36.417   7.736  13.815
50764W        W19105  40.017  31.444  13.034
50765W        W19106  24.185  29.608   3.838
50766W        W19107   5.252   6.764   1.808
50767W        W19108  33.915  39.516   4.726
50768W        W19109  12.808  37.455  13.034
50769W        W19110  14.604  26.172  11.532
50770W        W19111   4.356   8.883  10.433
50771W        W19112  13.136  32.464   0.794
50772W        W19113   3.840   3.454  12.903
50773W        W19114  29.964  22.704   4.790
50774W        W19115  31.546   7.896  13.836
50775W        W19116  28.171  18.676   2.410
50776W        W19117  19.047   5.805   0.250
50777W        W19118  37.578   1.423   3.361
50778W        W19119  10.196   3.254  10.475
50779W        W19120   6.799  13.774  13.927
50780W        W19121   7.322   3.444   2.895
50781W        W19122  23.193  15.639  11.429
50782W        W19123   6.875  37.003  12.074
50783W        W19124   3.895  34.112  11.384
50784W        W19125  39.904  14.658  13.523
50785W        W19126  34.096  23.006   1.732
50786W        W19127   2.429   9.881   0.404
50787W        W19128  11.702  11.296   1.861
50788W        W19129  33.129  43.859  10.979
50789W        W19130  33.889  39.343   2.714
50790W        W19131  41.326  12.630  13.850
50791W        W19132   9.319   0.748  11.388
50792W        W19133  27.471   2.437  13.885
50793W        W19134  14.786   1.755   0.892
50794W        W19135  20.667  23.183  13.341
50795W        W19136   8.234   6.894   1.289
50796W        W19137  28.049  24.683   1.846
50797W        W19138  18.135  36.437  12.398
50798W        W19139  35.602  40.543   0.940
50799W        W19140  26.653  12.798  11.913
50800W        W19141   8.867  16.141   4.308
50801W        W19142  22.037  17.229   1.315
50802W        W19143  37.876  43.003  14.354
50803W        W19144  32.920  40.947  10.512
50804W        W19145  30.087  24.724   2.758
50805W        W19146  15.617   6.773  12.936
50806W        W19147  14.771  14.660  14.464
50807W        W19148  37.006  31.410   4.246
50808W        W19149  34.960  27.085   1.800
50809W        W19150  22.685  19.657   0.466
50810W        W19151  32.547  31.556   0.330
50811W        W19152  12.328  31.962   3.742
50812W        W19153  35.379  16.097   0.794
50813W        W19154  21.598  21.564  13.980
50814W        W19155  18.168   3.880  13.311
50815W        W19156  29.942   1.917  10.494
50816W        W19157   8.325  17.710  13.526
50817W        W19158  33.969  33.038   4.687
50818W        W19159   6.896   3.340   3.696
50819W        W19160  18.138   4.450   4.767
50820W        W19161  24.154  40.417   1.252
50821W        W19162  20.125  38.337   3.153
50822W        W19163  37.841  34.609   1.330
50823W        W19164   8.689   3.724   1.855
50824W        W19165  18.653   7.222  12.570
50825W        W19166   6.399  29.119  10.583
50826W        W19167  17.709  11.661   3.641
50827W        W19168   8.901   2.931  10.460
50828W        W19169   7.280   6.337   4.763
50829W        W19170   1.922  18.136  14.421
50830W        W19171   8.179   1.287  10.522
50831W        W19172  19.691   1.908   4.184
50832W        W19173  18.068   3.716  12.470
50833W        W19174  35.043  28.556  10.503
50834W        W19175  27.657  28.549   5.717
50835W        W19176  31.638  26.960   3.709
50836W        W19177  33.885  28.137  10.038
50837W        W19178   9.816  26.692   0.874
50838W        W19179   6.921   2.938  10.570
50839W        W19180  21.626  29.968   3.380
50840W        W19181  11.174   9.304  12.441
50841W        W19182  34.469   0.873  12.345
50842W        W19183  15.793   7.873  14.836
50843W        W19184  31.133  38.039  12.392
50844W        W19185  43.849   7.172   3.347
50845W        W19186  42.951  36.996   0.260
50846W        W19187  38.466  15.322  10.612
50847W        W19188   2.887  31.433  10.917
50848W        W19189   5.777  20.624   2.190
50849W        W19190   9.761  31.018   4.308
50850W        W19191  44.986  25.071   2.277
50851W        W19192  37.955  42.791  12.555
50852W        W19193  36.059  38.971   1.798
50853W        W19194  39.971  25.481   0.264
50854W        W19195  15.611  34.873  14.356
50855W        W19196  14.278  12.750   3.222
50856W        W19197  40.548  20.731  13.390
50857W        W19198   8.344  11.688   1.723
50858W        W19199  38.871   4.776   2.879
50859W        W19200  28.520  40.026  10.542
50860W        W19201  23.187  20.704  10.933
50861W        W19202   1.924  40.388  13.894
50862W        W19203   9.330  43.975   1.251
50863W        W19204  26.574  33.046  13.522
50864W        W19205  15.277  38.548   3.190
50865W        W19206  16.182   8.687  10.457
50866W        W19207   6.881  27.567   0.917
50867W        W19208  42.441  33.030  10.469
50868W        W19209  19.617  39.450   0.950
50869W        W19210   7.720   3.836  12.918
50870W        W19211  36.532  18.647   4.329
50871W        W19212  23.615  41.345  13.984
50872W        W19213  41.920   8.674   3.638
50873W        W19214  13.647  11.232  10.451
50874W        W19215  25.102   1.250  14.376
50875W        W19216  43.421  17.601  12.826
50876W        W19217  21.136  34.577   3.839
50877W        W19218  12.331  30.139   4.131
50878W        W19219  27.619  41.474   1.329
50879W        W19220  19.574  15.725  14.315
50880W        W19221  34.581   8.187   3.723
50881W        W19222  34.051  14.635  14.914
50882W        W19223  35.948  43.357  13.512
50883W        W19224  35.034  10.179  11.546
50884W        W19225   6.183  17.145  13.974
50885W        W19226   8.762  37.555  12.528
50886W        W19227  15.289   9.235   3.192
50887W        W19228  33.404  44.825  12.356
50888W        W19229  22.201  12.802   2.188
50889W        W19230  34.370  34.381  14.878
50890W        W19231  12.814  38.886   1.817
50891W        W19232   7.181  10.789   4.761
50892W        W19233  20.155   4.233  12.887
50893W        W19234  22.542   4.712   4.253
50894W        W19235  12.306  13.186   0.362
50895W        W19236  44.793  13.790  13.963
50896W        W19237  21.696  16.734   2.368
50897W        W19238  39.948  15.628  10.125
50898W        W19239  18.170  14.672   3.252
50899W        W19240  12.676  25.054  10.987
50900W        W19241  21.113  29.615   2.417
50901W        W19242  15.259   5.749   1.430
50902W        W19243   7.900  10.650  14.934
50903W        W19244   0.806  23.209  11.917
50904W        W19245  20.657  26.567  13.325
50905W        W19246  28.131   7.375  14.423
50906W        W19247  32.010  29.068   2.875
50907W        W19248  39.557  38.957  10.505
50908W        W19249  23.028  21.638  12.014
50909W        W19250  39.875   7.179  11.971
50910W        W19251  32.985  39.379   0.377
50911W        W19252  39.817  33.554   4.756
50912W        W19253  37.570  28.659   3.870
50913W        W19254  12.142  35.473   4.254
50914W        W19255  41.510  36.972   1.862
50915W        W19256   0.283  14.120  14.769
50916W        W19257  31.427  28.961  12.369
50917W        W19258  12.726  32.137   2.784
50918W        W19259  24.041  24.587  12.346
50919W        W19260   4.430  10.184  12.065
50920W        W19261  12.840  36.527  10.499
50921W        W19262  32.545  12.146  13.417
50922W        W19263   2.426  16.737  14.400
50923W        W19264  42.383   7.814  12.875
50924W        W19265   3.444  44.876   2.359
50925W        W19266   4.855  36.014  14.917
50926W        W19267   6.846  19.054  14.453
50927W        W19268  32.946  43.314  11.405
50928W        W19269  18.593  22.622   0.843
50929W        W19270  29.022  29.072   1.237
50930W        W19271  16.638  15.745   3.308
50931W        W19272   3.795  27.472   3.286
50932W        W19273   4.386  32.565   1.708
50933W        W19274  15.084  37.349   3.723
50934W        W19275  21.514  26.619  13.989
50935W        W19276  42.955   5.315  13.032
50936W        W19277  28.024  24.200  14.002
50937W        W19278  10.843  25.076  14.404
50938W        W19279   9.171  35.586   4.625
50939W        W19280  11.713  17.186  13.446
50940W        W19281  12.282  14.258  12.524
50941W        W19282  30.099  34.044  11.500
50942W        W19283   4.750  33.503  12.571
50943W        W19284   3.282  19.096  11.955
50944W        W19285  31.003  13.346   3.758
50945W        W19286  39.914  31.556   4.233
50946W        W19287  32.533  13.777   4.297
50947W        W19288   0.794  14.778   4.199
50948W        W19289  12.720  37.851  14.883
50949W        W19290   4.436   9.230   1.307
50950W        W19291  24.547  16.682   1.853
50951W        W19292  43.829  43.812   1.326
50952W        W19293  25.707  41.020  11.919
50953W        W19294  21.743  11.655   2.696
50954W        W19295  25.605  13.261  11.056
50955W        W19296  43.832  11.715   0.798
50956W        W19297  23.207  39.912   3.290
50957W        W19298  11.773  42.982   5.306
50958W        W19299  29.924  37.554   1.300
50959W        W19300  11.682  22.148   0.839
50960W        W19301  33.418  15.240   1.432
50961W        W19302  32.536   6.902   3.723
50962W        W19303  33.459  11.180   0.879
50963W        W19304   8.221  23.077  12.468
50964W        W19305  31.033  44.305  14.963
50965W        W19306   1.904   3.272   1.216
50966W        W19307  40.496  34.114  11.873
50967W        W19308  36.055  40.016  12.530
50968W        W19309  16.266  33.607  13.530
50969W        W19310  20.683  19.764  13.833
50970W        W19311  12.207  15.146   4.759
50971W        W19312  32.422  16.688  12.006
50972W        W19313  31.048  32.088   1.876
50973W        W19314  22.132  28.075  11.120
50974W        W19315  28.045  42.025  12.048
50975W        W19316  16.759   7.340  10.996
50976W        W19317  43.789  36.578  12.448
50977W        W19318  30.431  11.780   0.444
50978W        W19319  15.793  40.838  10.528
50979W        W19320  19.101  19.710   1.901
50980W        W19321  20.264  27.483   3.159
50981W        W19322  26.108  43.337   1.831
50982W        W19323   5.383  44.311   9.943
50983W        W19324   2.310   8.822   2.378
50984W        W19325  25.624  16.128   0.854
50985W        W19326  26.697   0.259   1.227
50986W        W19327   9.186  17.668   3.190
50987W        W19328  41.460  41.913   0.901
50988W        W19329  28.507   1.450   0.376
50989W        W19330   2.435  24.484   4.691
50990W        W19331   6.897  25.559  13.405
50991W        W19332  17.621   5.689  14.935
50992W        W19333  16.082  11.831  10.558
50993W        W19334  30.164  19.577  14.892
50994W        W19335  44.416  21.052   5.256
50995W        W19336  26.534  24.143   4.810
50996W        W19337  20.652  30.420   2.227
50997W        W19338  26.506  15.297  11.420
50998W        W19339  18.699  39.955  10.583
50999W        W19340  13.804  37.925  12.892
51000W        W19341  29.546  11.228   4.608
51001W        W19342  32.135  24.100   2.390
51002W        W19343   3.902  31.056   4.666
51003W        W19344  41.312  10.374   4.233
51004W        W19345   4.891  41.357   5.220
51005W        W19346  43.483  25.059  14.486
51006W        W19347  43.442  33.106  10.540
51007W        W19348   1.296  33.476   3.329
51008W        W19349  30.511  17.587   3.363
51009W        W19350  43.514   4.295  13.851
51010W        W19351  25.516  33.879   0.790
51011W        W19352   7.817  30.933   2.370
51012W        W19353   2.339  28.469  13.011
51013W        W19354  22.539  40.036  13.536
51014W        W19355  31.601  38.000  11.470
51015W        W19356  37.397  24.173   5.143
51016W        W19357  24.544  31.479   2.279
51017W        W19358  42.831  16.643   2.281
51018W        W19359  25.030  13.640  11.038
51019W        W19360  44.337  30.602   1.360
51020W        W19361  38.552  20.091   0.800
51021W        W19362  32.038  36.996  14.434
51022W        W19363  43.778  40.357   0.739
51023W        W19364  27.610   9.305   3.837
51024W        W19365   7.255  33.083  10.455
51025W        W19366  17.153  37.361   0.276
51026W        W19367  26.628   1.809  14.430
51027W        W19368  19.621  29.977  13.986
51028W        W19369  36.402  28.075  11.595
51029W        W19370  36.569  36.847   2.762
51030W        W19371  31.103  17.663   4.645
51031W        W19372  41.853  18.107  12.966
51032W        W19373  11.688   5.855  10.991
51033W        W19374  41.832   9.873  10.449
51034W        W19375   2.827  23.144  12.497
51035W        W19376   3.364  17.567   2.774
51036W        W19377   4.349   7.781  12.382
51037W        W19378  21.527  36.897   0.430
51038W        W19379  23.021  43.817  13.349
51039W        W19380  14.772  14.684  13.490
51040W        W19381  22.100  10.142   3.705
51041W        W19382  29.590  15.123  10.951
51042W        W19383  32.133   8.713   1.309
51043W        W19384  22.725  23.232  14.477
51044W        W19385   2.868  17.714   3.809
51045W        W19386  14.741   9.391   2.325
51046W        W19387  36.553  37.549   4.731
51047W        W19388  23.591  18.620  14.389
51048W        W19389  30.074  33.605   3.373
51049W        W19390  19.758   3.431  11.011
51050W        W19391  14.109  31.422  10.540
51051W        W19392   4.206  10.156  11.023
51052W        W19393  12.223  13.749  14.880
51053W        W19394  33.511   6.914   4.789
51054W        W19395   8.682  13.660   1.299
51055W        W19396   2.821  20.074  13.969
51056W        W19397  35.384  41.354  13.528
51057W        W19398  44.002  21.757  12.548
51058W        W19399  21.716   3.444   3.158
51059W        W19400  33.007  36.061  12.967
51060W        W19401  34.440  18.285   3.805
51061W        W19402  33.605   8.868   0.454
51062W        W19403  16.124  16.210   2.369
51063W        W19404  37.375  43.805   2.378
51064W        W19405  39.539  38.441   2.889
51065W        W19406   6.752  10.295   3.710
51066W        W19407   9.322  42.815   2.347
51067W        W19408  18.066  40.386   2.856
51068W        W19409   1.335  28.045  14.900
51069W        W19410  20.602  36.911   1.275
51070W        W19411  11.145   7.281   4.779
51071W        W19412  24.074  23.084  10.565
51072W        W19413  34.964  43.860  11.933
51073W        W19414  35.598  42.428   2.315
51074W        W19415  22.626  41.882  14.846
51075W        W19416  39.023  16.215   0.410
51076W        W19417  41.368   3.871  13.849
51077W        W19418  15.290  16.280   0.456
51078W        W19419   2.840   2.279  14.386
51079W        W19420  10.779   7.369  13.026
51080W        W19421  18.258  41.824  14.332
51081W        W19422  17.100  40.998   0.760
51082W        W19423  16.628  44.993   4.247
51083W        W19424  26.528   1.425   3.753
51084W        W19425   4.333  28.170  14.978
51085W        W19426  17.221  40.861  14.021
51086W        W19427  18.188  43.503   0.468
51087W        W19428   8.703  34.869   4.822
51088W        W19429  25.504   2.326   1.223
51089W        W19430   4.390  30.142   0.926
51090W        W19431  16.689  42.464   4.598
51091W        W19432   9.666  10.833   1.744
51092W        W19433   2.432   8.271  11.424
51093W        W19434  22.523  37.909   2.891
51094W        W19435  25.709  19.092  12.823
51095W        W19436   5.364   0.321  10.889
51096W        W19437  29.505  16.095  12.556
51097W        W19438  24.683  37.045  14.862
51098W        W19439  32.087  18.760  14.900
51099W        W19440  29.479  27.616   0.438
51100W        W19441  33.036  30.097  13.944
51101W        W19442  44.398   0.422   0.924
51102W        W19443  35.976   7.205  14.780
51103W        W19444  41.880   0.942  13.977
51104W        W19445  24.051  33.068  12.878
51105W        W19446  39.534  38.421   4.741
51106W        W19447   8.233   1.942   3.793
51107W        W19448   2.252  26.579   5.224
51108W        W19449  37.977  30.564   2.276
51109W        W19450  31.152   5.205   3.300
51110W        W19451  41.466  12.756   3.358
51111W        W19452  25.177  23.114  10.598
51112W        W19453  15.610  27.655   2.249
51113W        W19454  39.040  44.931  11.061
51114W        W19455   5.308  41.379   3.385
51115W        W19456  35.519   7.414   2.821
51116W        W19457  23.100  17.767  12.999
51117W        W19458   2.934  33.057   3.820
51118W        W19459  22.507  29.551  14.961
51119W        W19460  15.683  31.542  13.860
51120W        W19461  20.560   9.879   4.685
51121W        W19462   9.660  12.148  14.355
51122W        W19463   4.233  12.173   1.418
51123W        W19464  13.313   9.846  11.119
51124W        W19465   9.327  16.732   0.757
51125W        W19466  36.460  10.795  10.623
51126W        W19467  33.879  18.577  13.914
51127W        W19468  38.362  39.897   4.831
51128W        W19469  16.284  37.846  12.063
51129W        W19470  40.337   0.896  13.328
51130W        W19471  20.587  21.730   0.365
51131W        W19472  27.989  20.679  11.961
51132W        W19473  44.916   6.360  13.051
51133W        W19474  36.482   2.441  13.512
51134W        W19475   7.755  26.974   0.892
51135W        W19476  14.212   3.916   0.386
51136W        W19477  15.660  40.931  14.844
51137W        W19478   8.346  28.472   2.746
51138W        W19479  23.227   2.757  12.027
51139W        W19480  18.270  30.657  14.029
51140W        W19481  41.799  41.437  10.411
51141W        W19482  35.362  33.626   3.382
51142W        W19483   8.743  20.613   3.840
51143W        W19484   9.214  41.803  11.044
51144W        W19485  28.493  12.746   2.674
51145W        W19486  28.653  31.594   0.386
51146W        W19487  20.098  19.582  12.967
51147W        W19488  44.828  28.154  12.832
51148W        W19489  22.116  40.852   1.872
51149W        W19490  10.699  42.853  13.482
51150W        W19491  15.701   5.344  14.815
51151W        W19492  20.553   9.374   1.928
51152W        W19493  25.146  37.395   0.333
51153W        W19494  15.739  36.482   4.799
51154W        W19495  10.283  38.375  12.547
51155W        W19496   8.777  14.230   3.187
51156W        W19497  28.970  15.694  13.845
51157W        W19498  28.087   3.833  14.323
51158W        W19499   4.920  27.572   3.665
51159W        W19500  41.914   1.397   2.306
51160W        W19501  27.991   7.811   2.360
51161W        W19502  33.958  23.619  14.305
51162W        W19503  11.796  32.533  12.427
51163W        W19504  43.449  22.129  13.435
51164W        W19505  19.717  26.555  14.440
51165W        W19506  33.587  33.966   3.746
51166W        W19507  27.451  40.853  14.801
51167W        W19508  22.581  31.979   0.356
51168W        W19509  40.391  44.273   2.268
51169W        W19510  40.519  11.715  10.603
51170W        W19511  18.591  38.508   3.186
51171W        W19512  39.510  35.593  13.457
51172W        W19513  38.332   4.831   1.781
51173W        W19514  24.558   4.885  11.959
51174W        W19515  44.462  31.405  13.916
51175W        W19516  16.573   4.407  11.547
51176W        W19517  18.204   2.726   2.709
51177W        W19518  15.220   3.259  14.814
51178W        W19519  12.764  36.549  11.011
51179W        W19520   2.339  11.739  11.413
51180W        W19521  14.616  24.590  11.933
51181W        W19522   4.844  22.051  13.809
51182W        W19523  16.656  44.799  12.523
51183W        W19524  43.996   5.780   0.472
51184W        W19525  35.554  17.297  10.610
51185W        W19526  18.564  23.495  14.373
51186W        W19527   7.757  19.203  14.984
51187W        W19528  25.596  31.025   3.294
51188W        W19529  25.494   3.316   4.306
51189W        W19530  12.150   5.358   4.658
51190W        W19531  17.219  10.685   3.746
51191W        W19532  20.601   6.679   4.280
51192W        W19533   3.854  12.613   1.790
51193W        W19534  41.936  10.198   1.223
51194W        W19535  38.553  24.146  10.611
51195W        W19536  26.561  42.978   3.374
51196W        W19537  40.987  36.910   3.385
51197W        W19538  16.663  12.836   3.200
51198W        W19539   8.187  37.964   0.386
51199W        W19540  13.277  37.038  11.991
51200W        W19541   5.892  13.216   3.313
51201W        W19542   7.893   6.792   1.218
51202W        W19543  22.218  36.021   1.888
51203W        W19544  27.539  41.874   4.215
51204W        W19545  13.735   8.719   3.652
51205W        W19546  21.517   6.908  14.855
51206W        W19547  29.560  43.765  14.921
51207W        W19548  43.387  44.490   1.812
51208W        W19549  37.498   3.787   0.468
51209W        W19550  32.098  39.808   3.376
51210W        W19551  28.172  35.407  12.043
51211W        W19552   1.797   3.386  13.505
51212W        W19553  44.826  12.196  11.993
51213W        W19554  22.726  42.291  10.978
51214W        W19555  23.580  43.910   2.244
51215W        W19556  10.354  20.677   3.182
51216W        W19557  43.280  33.079  14.350
51217W        W19558  32.036  21.228   3.632
51218W        W19559  33.974  11.835   1.440
51219W        W19560  21.103  31.952  10.595
51220W        W19561  21.533  17.233  11.467
51221W        W19562   7.851  12.125  13.328
51222W        W19563  30.074  31.450   1.721
51223W        W19564   7.218  28.603   4.830
51224W        W19565  34.995  17.644   4.203
51225W        W19566  38.352  18.635  13.795
51226W        W19567  21.057  10.807   3.299
51227W        W19568  41.965  39.480  10.644
51228W        W19569  14.605  32.442  13.936
51229W        W19570   9.255  10.367   4.240
51230W        W19571  32.024  37.967  10.938
51231W        W19572  20.656  20.704   4.770
51232W        W19573  40.377  36.517   4.134
51233W        W19574   8.681  20.172  14.867
51234W        W19575   7.237  15.090   4.834
51235W        W19576  11.203  20.526  10.519
51236W        W19577  42.012  39.880   3.221
51237W        W19578  23.162  13.664  13.371
51238W        W19579  42.019  26.568  13.489
51239W        W19580  25.517   5.370   2.367
51240W        W19581  32.126   3.272  11.449
51241W        W19582   9.170  11.170  12.054
51242W        W19583  13.254  18.706   2.693
51243W        W19584  12.360  28.132  14.454
51244W        W19585  21.604  27.112   2.825
51245W        W19586  18.560  38.060   1.426
51246W        W19587   6.327  36.516   4.252
51247W        W19588  42.850  36.019  11.467
51248W        W19589  25.621  30.085   3.181
51249W        W19590   1.340  10.295   2.219
51250W        W19591  38.339   7.876  13.844
51251W        W19592  39.353  23.513  13.506
51252W        W19593  41.918  40.371  14.457
51253W        W19594  29.046  38.052  10.583
51254W        W19595   2.896  21.647   4.649
51255W        W19596   7.716  15.799  13.798
51256W        W19597  12.138  11.367   1.871
51257W        W19598  16.771  16.228  11.483
51258W        W19599  35.502  20.106  12.487
51259W        W19600  17.619  26.459  13.348
51260W        W19601  11.783  21.707  12.438
51261W        W19602  30.090  40.965  12.071
51262W        W19603   5.219  21.132   1.778
51263W        W19604  38.475   1.435   3.840
51264W        W19605  25.582   2.814  10.927
51265W        W19606  11.644  17.610   1.790
51266W        W19607  11.633  13.224   1.349
51267W        W19608  19.643  15.266   1.887
51268W        W19609  10.271   7.779  11.501
51269W        W19610  34.965  37.548   2.366
51270W        W19611  25.040  30.915   2.330
51271W        W19612  35.038  27.469   4.186
51272W        W19613   2.831  11.369  14.810
51273W        W19614  35.405   2.355  12.026
51274W        W19615  28.994  34.485   3.317
51275W        W19616  18.568  29.431   4.665
51276W        W19617  30.447  18.790   4.132
51277W        W19618  42.493  39.940   2.838
51278W        W19619  41.488  26.555   3.188
51279W        W19620  34.992   1.886   3.640
51280W        W19621  31.996  34.013   0.312
51281W        W19622  19.127  38.909  10.899
51282W        W19623   5.719  26.688   3.190
51283W        W19624  24.677  37.945   3.157
51284W        W19625  21.632  29.040  12.876
51285W        W19626  15.228  22.174   4.732
51286W        W19627  38.520  34.468  12.081
51287W        W19628  12.138  21.569  11.033
51288W        W19629  26.982  13.281  14.280
51289W        W19630  29.947  36.052  14.931
51290W        W19631  40.416   1.296   4.267
51291W        W19632   5.259  26.031  11.992
51292W        W19633  13.763   8.181  12.547
51293W        W19634  18.635  28.147  14.996
51294W        W19635  34.061  35.941  13.005
51295W        W19636  40.424  37.036   0.798
51296W        W19637   7.716  18.691   4.350
51297W        W19638  24.534  44.792  14.851
51298W        W19639  11.851   1.457   2.205
51299W        W19640  29.949  20.564   1.886
51300W        W19641  25.635  28.556   1.853
51301W        W19642   0.259  16.259  14.411
51302W        W19643  38.886  40.880   3.201
51303W        W19644  10.159   6.348   2.252
51304W        W19645  11.326  22.068   3.706
51305W        W19646  32.989   8.766   1.770
51306W        W19647  13.813  13.824  12.426
51307W        W19648  33.034  42.968  14.343
51308W        W19649   8.258   4.216  10.575
51309W        W19650  28.111  11.324  14.446
51310W        W19651  35.055  23.160   0.857
51311W        W19652  44.273  40.894   0.790
51312W        W19653   6.337  27.945  10.604
51313W        W19654  17.301  20.234  14.352
51314W        W19655   0.924  17.180  13.860
51315W        W19656  20.191  30.478  12.963
51316W        W19657   3.796  30.499  13.058
51317W        W19658  35.446  19.122   4.770
51318W        W19659  16.174   1.879   5.208
51319W        W19660  33.987   2.260  12.344
51320W        W19661  31.990  30.115  10.941
51321W        W19662  39.461  18.258   2.721
51322W        W19663  36.479   6.428   4.302
51323W        W19664  26.185  27.017  11.425
51324W        W19665  15.750  28.063   5.265
51325W        W19666  30.074   5.438   4.199
51326W        W19667  13.123  16.585  11.947
51327W        W19668   7.808  37.832   1.421
51328W        W19669  16.738  21.090   1.917
51329W        W19670  19.223   3.446  10.099
51330W        W19671  40.863   7.865   3.849
51331W        W19672  24.141  39.896   2.179
51332W        W19673  25.007  19.749  10.618
51333W        W19674  21.674  31.521  14.455
51334W        W19675  31.115  18.237  10.096
51335W        W19676  12.202  19.653  13.922
51336W        W19677  43.369  36.484   2.413
51337W        W19678  33.551  15.600   1.353
51338W        W19679   7.278  13.766   4.702
51339W        W19680  44.962  26.183  12.453
51340W        W19681  16.583  17.305  10.579
51341W        W19682  12.651   0.379  13.435
51342W        W19683  39.383  20.054   4.227
51343W        W19684  19.056  38.372  10.981
51344W        W19685  16.162  27.122   0.757
51345W        W19686   8.262   0.921   1.387
51346W        W19687  19.043  20.215   1.935
51347W        W19688   9.644  24.515  13.926
51348W        W19689  37.337  27.528  13.393
51349W        W19690   0.808  32.957  13.308
51350W        W19691  15.311  31.562   1.390
51351W        W19692  18.107   2.414   1.878
51352W        W19693  22.539  27.091   4.198
51353W        W19694  25.081  31.556   4.764
51354W        W19695  21.640  36.526   0.967
51355W        W19696   6.312  24.131   3.348
51356W        W19697  21.065  13.785   0.764
51357W        W19698  21.101  16.619   2.286
51358W        W19699  37.012  25.978  13.345
51359W        W19700  21.584  28.618  12.059
51360W        W19701  40.469  30.437  10.989
51361W        W19702  17.209  42.833  10.561
51362W        W19703  17.133  34.909  10.542
51363W        W19704  14.136  25.694   5.304
51364W        W19705  29.074   8.284  11.391
51365W        W19706  38.498  21.683  14.504
51366W        W19707  14.806   2.289  12.960
51367W        W19708  12.289   6.811   4.185
51368W        W19709  39.406  37.069   2.297
51369W        W19710  42.401  13.601  13.405
51370W        W19711  36.474  30.107  12.061
51371W        W19712  10.287  26.623   3.850
51372W        W19713  39.983  19.675   0.276
51373W        W19714  10.238  36.481  12.518
51374W        W19715  28.631  38.401  12.897
51375W        W19716  44.804   0.746   0.372
51376W        W19717  16.294  34.372  12.400
51377W        W19718  23.140  18.058   2.759
51378W        W19719  19.564  41.508  12.094
51379W        W19720   0.329  31.465  11.984
51380W        W19721  28.504   6.216   1.284
51381W        W19722  39.408  38.541   0.455
51382W        W19723   9.783  23.635   1.749
51383W        W19724   5.701  33.955   0.726
51384W        W19725  31.422  16.737  10.593
51385W        W19726   1.456  17.230  13.838
51386W        W19727  15.757  44.423  12.480
51387W        W19728   9.655  12.822  11.045
51388W        W19729  12.784  36.021  11.056
51389W        W19730  41.994   0.977  14.311
51390W        W19731  20.113  35.945   4.266
51391W        W19732   9.863  27.010   2.328
51392W        W19733   7.410   0.871   2.712
51393W        W19734  35.445  27.626  14.868
51394W        W19735  27.500  32.071   3.653
51395W        W19736  15.822  29.172  11.874
51396W        W19737  24.992   6.342  12.864
51397W        W19738  10.866  10.384  14.959
51398W        W19739  22.550   3.712  10.060
51399W        W19740  22.174  20.731  12.935
51400W        W19741   9.182  34.472   0.442
51401W        W19742   3.338  41.371   1.871
51402W        W19743  31.984  24.682   1.337
51403W        W19744  32.091  22.732  13.435
51404W        W19745  39.514  33.499  10.477
51405W        W19746   5.419  43.414  12.005
51406W        W19747  39.965   5.300  11.990
51407W        W19748  44.339  40.001   1.745
51408W        W19749  14.194  19.699  14.892
51409W        W19750  26.148  27.970   2.740
51410W        W19751  35.974  14.713  13.456
51411W        W19752  33.938  27.447   3.198
51412W        W19753  19.074  15.633  10.483
51413W        W19754  23.040  44.827  11.560
51414W        W19755   0.910  11.629   0.802
51415W        W19756   8.804  39.844   3.689
51416W        W19757  23.732  21.260  11.047
51417W        W19758  42.348  38.023   0.825
51418W        W19759   2.437  34.560   4.300
51419W        W19760   2.429  32.989  10.974
51420W        W19761  11.856  39.537   0.441
51421W        W19762  13.789   6.227  10.491
51422W        W19763  18.132  27.680   3.183
51423W        W19764   9.206  43.790  12.412
51424W        W19765  17.694   2.366   2.246
51425W        W19766  23.064  30.163   3.676
51426W        W19767  20.560  16.799   1.239
51427W        W19768  24.609  13.163  10.988
51428W        W19769   3.843  35.472   4.274
51429W        W19770  21.617  23.065   0.436
51430W        W19771  11.736  12.256   5.181
51431W        W19772  12.287   2.332   3.744
51432W        W19773  37.367  10.704  12.073
51433W        W19774  14.826  23.579  14.406
51434W        W19775  26.149  36.876   0.899
51435W        W19776  11.260  11.137  14.408
51436W        W19777  10.697  33.874  13.530
51437W        W19778   4.865  24.583  10.481
51438W        W19779  29.572  40.957   0.869
51439W        W19780  20.694  32.135  10.934
51440W        W19781  37.399  44.826   2.231
51441W        W19782  35.855   7.835   1.898
51442W        W19783  21.658  27.529  10.598
51443W        W19784  15.591  23.152   5.656
51444W        W19785  39.472  24.987  12.359
51445W        W19786  17.592  17.746  14.812
51446W        W19787   8.676   9.273  11.010
51447W        W19788  29.459  40.831  13.429
51448W        W19789  22.011  17.195  10.108
51449W        W19790  37.380  31.629   1.257
51450W        W19791  31.586  11.255   4.710
51451W        W19792  20.212  28.621  13.491
51452W        W19793  29.496  30.537  12.968
51453W        W19794  28.671  15.299  11.929
51454W        W19795  23.736  18.617   1.758
51455W        W19796  43.401  42.997  10.891
51456W        W19797   8.256   5.703  10.621
51457W        W19798  35.938  42.510   2.314
51458W        W19799  13.738   5.364   0.288
51459W        W19800  20.557   4.296  13.943
51460W        W19801  43.435  38.931  10.536
51461W        W19802  26.680  34.062  13.947
51462W        W19803  40.989   9.365   3.705
51463W        W19804  26.639  33.556   2.230
51464W        W19805  42.887  38.569   3.369
51465W        W19806  40.313  13.735  11.465
51466W        W19807  17.115   3.762   2.731
51467W        W19808  36.393   6.838   4.625
51468W        W19809  34.927  42.905   5.164
51469W        W19810  28.127   4.363   1.768
51470W        W19811  26.571  14.808  11.610
51471W        W19812  16.700  38.329   4.709
51472W        W19813  35.994   8.884   0.828
51473W        W19814  39.459  32.941   4.805
51474W        W19815  40.025  19.777  12.513
51475W        W19816  40.872  34.415  12.899
51476W        W19817   2.728  41.390   3.275
51477W        W19818  18.146  12.136  11.036
51478W        W19819   2.778  14.810  14.835
51479W        W19820  10.234  18.557  13.952
51480W        W19821  13.742  38.532   5.768
51481W        W19822  20.689  13.705  11.508
51482W        W19823  44.313  43.920  13.836
51483W        W19824  34.887  41.896   2.393
51484W        W19825  35.874  23.716   4.180
51485W        W19826  14.606  38.023   4.352
51486W        W19827  17.083  35.869  10.642
51487W        W19828   5.925  23.692  13.794
51488W        W19829   9.766  42.363   1.219
51489W        W19830  19.588  15.723  14.904
51490W        W19831  28.946  20.058   0.320
51491W        W19832   3.296  20.043  12.469
51492W        W19833   9.799  25.694  10.471
51493W        W19834  12.802   4.410  12.905
51494W        W19835  23.075  24.626   4.773
51495W        W19836  40.800   3.740   3.308
51496W        W19837   2.825   1.972  10.935
51497W        W19838  29.941  28.047   3.635
51498W        W19839  19.250  20.685  10.493
51499W        W19840  43.308  18.569   1.329
51500W        W19841   5.359  30.419  13.524
51501W        W19842  24.680   4.715  12.456
51502W        W19843  16.807  43.989  12.375
51503W        W19844  34.492   5.860  10.599
51504W        W19845  38.449  31.545  12.857
51505W        W19846  33.946  14.232   3.664
51506W        W19847  39.412   4.935  13.971
51507W        W19848  21.754  35.485  11.037
51508W        W19849  26.588  12.751  13.043
51509W        W19850  27.185  10.282  14.330
51510W        W19851   4.415   3.913   4.312
51511W        W19852   4.331  40.049  11.888
51512W        W19853  14.095  27.180  12.089
51513W        W19854  38.830   7.228  13.497
51514W        W19855   7.298   7.181  12.528
51515W        W19856  22.191   0.930   4.770
51516W        W19857   1.912   1.942   0.442
51517W        W19858  35.384  14.741  13.386
51518W        W19859   6.795   6.709  10.595
51519W        W19860  19.665  44.493   3.188
51520W        W19861   6.322  26.199  14.423
51521W        W19862  23.497  42.285   2.239
51522W        W19863  33.949  16.288  12.017
51523W        W19864  44.829  34.392   1.734
51524W        W19865  42.957   9.799  14.915
51525W        W19866  30.975  35.441   2.902
51526W        W19867  25.494   4.914  11.377
51527W        W19868   5.428   9.715   0.734
51528W        W19869  32.040  25.032  13.819
51529W        W19870   8.891  36.963   2.236
51530W        W19871  22.602  22.086   4.709
51531W        W19872  42.456  31.958  11.972
51532W        W19873  28.467  16.174   0.753
51533W        W19874  27.618  34.439   0.281
51534W        W19875  29.533  16.191   2.325
51535W        W19876  29.045   5.805   2.259
51536W        W19877  24.533  40.396  12.562
51537W        W19878  32.525  17.228   3.254
51538W        W19879  19.778  17.144   1.350
51539W        W19880  40.914  27.470  14.409
51540W        W19881  12.195  30.920  10.476
51541W        W19882  36.931   3.880  11.931
51542W        W19883  17.614  18.116  13.472
51543W        W19884  21.225   7.693  14.945
51544W        W19885  25.156  20.200  11.957
51545W        W19886  16.306  41.983  11.020
51546W        W19887  33.421  17.193  12.018
51547W        W19888  42.965  39.037   0.364
51548W        W19889  17.604  44.394   1.889
51549W        W19890  15.695   3.374   2.262
51550W        W19891  31.052  39.861  14.820
51551W        W19892  12.288  13.818   2.892
51552W        W19893  33.970  34.965   4.766
51553W        W19894  31.459  22.212   0.351
51554W        W19895  19.080  19.142  13.797
51555W        W19896  40.941  42.495   2.735
51556W        W19897   9.806  25.091  11.104
51557W        W19898   3.759  44.943   4.699
51558W        W19899   8.286  40.512  14.365
51559W        W19900  31.908  41.341   4.121
51560W        W19901  24.034   7.297  10.531
51561W        W19902  21.704  19.721  12.978
51562W        W19903   3.324   0.346   0.778
51563W        W19904  11.159  39.928   3.305
51564W        W19905   7.767   1.777   4.748
51565W        W19906  44.344  29.521  10.522
51566W        W19907   8.349  33.612   2.367
51567W        W19908  22.628  29.986  11.087
51568W        W19909  11.324  42.968  10.095
51569W        W19910  40.892  22.040   3.855
51570W        W19911  12.353  33.398   2.812
51571W        W19912   8.774  35.500   0.322
51572W        W19913  40.425  23.605  14.438
51573W        W19914  41.010  26.703  11.559
51574W        W19915  30.550  35.524   0.361
51575W        W19916  25.176  42.031   3.654
51576W        W19917  20.090  28.613  11.542
51577W        W19918  10.860  34.044   2.380
51578W        W19919  24.204  34.995   0.353
51579W        W19920   2.462   3.896  14.423
51580W        W19921  15.287  14.294  11.077
51581W        W19922   5.844   7.201  12.877
51582W        W19923  23.732  17.661   2.766
51583W        W19924  34.880  31.142   4.130
51584W        W19925  26.589  16.285   1.887
51585W        W19926   7.352   4.806  13.963
51586W        W19927  27.507  10.372   3.296
51587W        W19928  34.116  11.795  13.510
51588W        W19929  34.068  17.064  13.882
51589W        W19930  34.491  31.047  11.982
51590W        W19931  15.612   6.421  14.316
51591W        W19932  31.499   5.729  11.896
51592W        W19933  14.655  10.254  14.495
51593W        W19934  27.531   7.714   2.713
51594W        W19935  33.051  14.247  12.984
51595W        W19936  12.721  39.327   0.282
51596W        W19937   4.786  37.552   1.413
51597W        W19938  27.126  38.469   4.775
51598W        W19939  10.815  30.017  11.391
51599W        W19940  36.535  28.020   2.665
51600W        W19941  13.293  43.442   0.380
51601W        W19942  18.140  15.200   4.706
51602W        W19943  15.286   3.339   1.799
51603W        W19944   3.940  11.247  13.893
51604W        W19945   2.819  14.799  14.491
51605W        W19946  11.241  34.047   2.816
51606W        W19947   7.675  11.269  12.078
51607W        W19948  24.000  17.716  10.933
51608W        W19949  37.446  29.171   0.840
51609W        W19950  32.915   9.887   2.367
51610W        W19951   9.167  34.450  14.948
51611W        W19952  21.118  25.018  13.532
51612W        W19953  25.684  25.550   4.730
51613W        W19954  26.638   3.429   4.654
51614W        W19955  39.362  26.160  13.399
51615W        W19956  34.032  23.553   0.392
51616W        W19957  21.126  18.131   1.772
51617W        W19958   3.300  33.421   1.281
51618W        W19959  39.459   9.238   4.183
51619W        W19960   8.202  32.505   1.790
51620W        W19961  33.525  39.021   9.948
51621W        W19962  40.031  24.149  11.613
51622W        W19963   2.929   8.741  12.038
51623W        W19964  10.284   5.758  11.941
51624W        W19965  10.374  33.435  13.985
51625W        W19966  42.403  38.066   0.251
51626W        W19967  20.646   7.284  11.018
51627W        W19968  37.471  24.086   0.468
51628W        W19969  16.575   1.761   4.331
51629W        W19970   5.315  33.898  14.439
51630W        W19971  12.683  19.706   0.410
51631W        W19972   4.744  20.742   1.231
51632W        W19973  21.074  27.180  13.906
51633W        W19974  11.226  10.867  13.538
51634W        W19975   4.706  39.883   0.383
51635W        W19976  43.791  40.911  10.902
51636W        W19977  18.283  34.439  11.108
51637W        W19978  31.114  12.738  14.447
51638W        W19979   6.813  10.309   2.282
51639W        W19980  23.026   6.312   4.319
51640W        W19981  17.304   9.289  13.931
51641W        W19982   6.332  40.832  12.386
51642W        W19983  31.530  39.921   9.441
51643W        W19984  32.585  41.447   5.257
51644W        W19985  38.565  38.411  11.514
51645W        W19986   5.277  39.334  13.340
51646W        W19987  21.665  44.981   4.780
51647W        W19988  12.242  36.534  11.571
51648W        W19989   6.365  10.223   4.211
51649W        W19990   2.899   1.324  12.852
51650W        W19991  39.852   4.403   0.895
51651W        W19992  36.970  37.915  11.516
51652W        W19993   1.829   9.832  14.470
51653W        W19994  22.642  35.893   0.756
51654W        W19995  14.184   1.833   1.813
51655W        W19996  22.548  36.983  13.796
51656W        W19997  14.781   8.712   1.295
51657W        W19998   7.310  20.755  13.484
51658W        W19999  30.930  26.574   5.277
51659W        W20000   5.415  25.093  11.456
51660W        W20001   9.179  10.772   9.970
51661W        W20002  20.118  38.862  10.982
51662W        W20003   4.268   4.216   2.761
51663W        W20004  22.588  30.576  10.429
51664W        W20005  17.096   1.794   1.440
51665W        W20006  20.641  43.478  12.552
51666W        W20007   9.244  11.216  11.589
51667W        W20008  26.992  13.181  10.450
51668W        W20009  19.274  30.541   1.432
51669W        W20010  11.225  18.736  12.047
51670W        W20011   5.923  39.842  11.514
51671W        W20012  30.039  38.559   4.672
51672W        W20013   3.236  20.638   0.948
51673W        W20014   6.703  38.061   1.342
51674W        W20015  33.587  43.276  12.342
51675W        W20016  42.418  36.970   4.721
51676W        W20017   4.270  27.149   4.184
51677W        W20018  31.502   3.286   2.221
51678W        W20019  13.837  32.546  12.956
51679W        W20020  32.935  30.553  11.125
51680W        W20021  22.503   2.818  14.323
51681W        W20022  21.653  39.963  14.017
51682W        W20023  17.172  34.553  10.600
51683W        W20024   4.211  38.047  10.571
51684W        W20025  36.053  34.901   0.298
51685W        W20026   0.860  26.654  13.368
51686W        W20027   3.426  32.526  13.496
51687W        W20028  14.182  14.790   1.409
51688W        W20029  19.580  16.725  14.479
51689W        W20030  35.523  33.543   0.789
51690W        W20031  31.476  35.480   1.428
51691W        W20032  37.551  40.399   1.704
51692W        W20033   9.741   6.714  12.855
51693W        W20034  22.570  31.960  12.937
51694W        W20035  17.182  27.123   2.662
51695W        W20036  21.152  13.250   2.218
51696W        W20037   6.270  44.967   4.148
51697W        W20038  42.397  41.856  14.861
51698W        W20039  10.311  33.043  14.444
51699W        W20040   3.914   9.371   1.273
51700W        W20041  20.692  43.808  12.827
51701W        W20042  40.321   5.395  14.414
51702W        W20043  29.636  18.775   4.188
51703W        W20044  24.620  14.100   1.738
51704W        W20045   0.976  19.234   1.300
51705W        W20046  35.527  19.046  13.932
51706W        W20047   6.756  18.790  12.093
51707W        W20048  44.301  41.406   5.086
51708W        W20049  35.020  25.043  14.877
51709W        W20050  28.073  12.832  13.021
51710W        W20051  22.661   9.346   0.439
51711W        W20052   4.366  34.590  13.840
51712W        W20053  12.345  30.046  14.870
51713W        W20054  39.380  43.431   5.741
51714W        W20055  39.997  44.827  11.014
51715W        W20056   1.956  27.667   4.243
51716W        W20057   4.442  42.299   3.269
51717W        W20058   0.486   8.729   4.737
51718W        W20059  35.542   7.319   1.258
51719W        W20060  37.882  11.322   2.342
51720W        W20061  43.486  20.141  11.023
51721W        W20062  32.520  13.743   0.481
51722W        W20063  21.683  39.444  13.053
51723W        W20064  23.032  28.059  14.890
51724W        W20065   4.398   7.833   4.270
51725W        W20066  36.591   0.772   5.115
51726W        W20067  38.853  41.496  14.307
51727W        W20068  36.848  18.627   0.805
51728W        W20069  41.830  11.712   3.638
51729W        W20070  32.551  34.053  10.560
51730W        W20071  23.652  31.094   2.298
51731W        W20072   3.298  10.274  11.087
51732W        W20073   5.718  39.009  11.000
51733W        W20074  25.695  35.075  13.331
51734W        W20075  35.599  19.091  11.521
51735W        W20076  44.003  42.345  12.934
51736W        W20077   5.194  41.896   3.789
51737W        W20078  42.398  44.900   2.229
51738W        W20079  37.502  31.470   3.367
51739W        W20080  29.531   4.214   4.685
51740W        W20081   4.892  14.617   5.308
51741W        W20082   8.377  34.563   2.413
51742W        W20083  42.411  21.228   3.191
51743W        W20084   3.416  37.529  13.356
51744W        W20085   8.679  16.283  13.375
51745W        W20086   7.407  19.534   3.857
51746W        W20087  25.000  26.545   4.736
51747W        W20088  22.053   2.333  10.609
51748W        W20089  25.970  18.200  11.401
51749W        W20090   1.331  16.148  14.440
51750W        W20091  10.805  16.793   1.717
51751W        W20092   0.259  35.595   4.798
51752W        W20093   5.350  30.949  10.548
51753W        W20094  23.129  11.356  12.908
51754W        W20095  25.980  20.702   2.716
51755W        W20096   3.357  39.906   3.265
51756W        W20097  13.196  12.341   5.639
51757W        W20098  10.231  32.491  11.110
51758W        W20099  13.809  40.443  12.934
51759W        W20100   1.283  27.050  13.907
51760W        W20101  38.446  16.747  13.468
51761W        W20102  17.209  39.541  12.867
51762W        W20103  30.546  34.464   0.430
51763W        W20104  33.442  26.508  14.353
51764W        W20105  38.865  33.996   0.890
51765W        W20106  32.026   7.900   3.693
51766W        W20107  23.135  27.525   2.178
51767W        W20108  33.933  44.955  10.616
51768W        W20109  33.054  11.278  13.488
51769W        W20110  33.898  40.466   9.992
51770W        W20111  36.951  40.392  10.554
51771W        W20112  18.704  25.475   1.868
51772W        W20113  32.563  30.962  11.572
51773W        W20114   3.712  13.319   0.361
51774W        W20115   1.345   4.910  13.369
51775W        W20116  36.075  38.882   0.376
51776W        W20117   3.220   8.356  10.563
51777W        W20118  16.098  37.086  13.541
51778W        W20119  13.324  42.964   4.147
51779W        W20120  39.972  30.641   3.634
51780W        W20121  21.149  28.586  13.423
51781W        W20122  33.546  19.100  11.392
51782W        W20123  22.055  12.827   4.217
51783W        W20124  22.603  24.561   3.222
51784W        W20125  16.128  21.560   2.732
51785W        W20126   2.375  28.122  14.946
51786W        W20127  34.010  26.532  11.035
51787W        W20128  20.681  37.973  13.978
51788W        W20129  16.644  24.678  14.348
51789W        W20130   8.296  17.596  13.956
51790W        W20131  25.103  23.226   1.389
51791W        W20132  16.113  27.505  12.357
51792W        W20133  43.498  10.343   4.702
51793W        W20134  36.449  17.171   3.229
51794W        W20135  12.235  16.659   4.315
51795W        W20136  32.137  33.408   0.891
51796W        W20137   3.952  13.210  10.466
51797W        W20138  15.661  43.396  10.488
51798W        W20139   6.899  25.529  11.392
51799W        W20140  19.631  42.952  11.907
51800W        W20141  18.716   4.445   1.776
51801W        W20142  19.600   7.867  13.488
51802W        W20143  24.532  41.343   1.230
51803W        W20144  19.724  33.462   1.901
51804W        W20145  42.016  14.614   0.771
51805W        W20146  37.942  16.231   4.760
51806W        W20147  24.203  22.218  10.640
51807W        W20148  17.096   2.965   0.818
51808W        W20149  19.717  20.687  12.080
51809W        W20150  44.370  34.989   0.746
51810W        W20151  18.146  44.458   0.373
51811W        W20152   7.198  26.590   4.242
51812W        W20153  36.364   8.347  11.950
51813W        W20154   1.465  21.682  12.047
51814W        W20155  13.693  31.993   4.605
51815W        W20156  25.546  28.940   2.826
51816W        W20157  44.484  35.419  10.917
51817W        W20158  39.481  17.770  14.324
51818W        W20159  19.073  24.548  10.629
51819W        W20160  29.019   1.456  13.991
51820W        W20161  23.560   2.357  12.957
51821W        W20162  41.979  41.439   5.776
51822W        W20163  11.217  36.952   1.761
51823W        W20164  33.561   1.819  12.359
51824W        W20165  44.969  23.643  11.017
51825W        W20166   9.864   9.718  14.503
51826W        W20167  27.047   7.759   4.289
51827W        W20168  22.089  42.789   3.865
51828W        W20169  25.160  27.449   1.704
51829W        W20170  27.999  44.505  13.319
51830W        W20171  32.891   4.242  12.369
51831W        W20172  27.602  28.439   4.206
51832W        W20173  12.331   6.800   0.953
51833W        W20174  30.575  34.524   0.735
51834W        W20175  43.808  32.075  13.524
51835W        W20176  14.673  30.468   2.229
51836W        W20177  42.950   3.872   2.868
51837W        W20178  43.423  33.911   2.408
51838W        W20179  17.635  44.354  11.469
51839W        W20180   1.350  42.970   2.365
51840W        W20181  23.647   5.400  13.871
51841W        W20182  22.214  42.288   1.765
51842W        W20183   2.871  33.434   0.353
51843W        W20184  30.599  29.437  14.883
51844W        W20185  30.601  39.890   2.278
51845W        W20186  12.613  11.669  11.915
51846W        W20187  19.718  31.117   0.947
51847W        W20188  25.553  22.119   4.188
51848W        W20189  25.026  13.649   4.172
51849W        W20190   5.694  14.711  13.020
51850W        W20191   1.817  25.558   0.883
51851W        W20192  41.939  41.911   1.887
51852W        W20193  20.630   0.418  12.003
51853W        W20194   3.720   3.736   0.450
51854W        W20195  44.766  20.536   4.781
51855W        W20196  26.008  36.415   2.207
51856W        W20197  12.834  20.222  10.991
51857W        W20198  18.549  18.226  12.342
51858W        W20199  35.967  25.138   3.294
51859W        W20200   6.276   6.895  13.459
51860W        W20201  16.251   8.688   1.405
51861W        W20202  17.698  28.157  14.490
51862W        W20203  15.709  31.153   0.333
51863W        W20204   7.827   4.321  12.975
51864W        W20205  31.502  14.665  12.431
51865W        W20206  21.143  37.859  14.285
51866W        W20207   7.715  37.956  14.994
51867W        W20208  30.022  23.497  11.899
51868W        W20209   9.857  24.997   2.663
51869W        W20210  44.362  34.410  10.951
51870W        W20211  21.074  42.467  12.520
51871W        W20212  13.758  23.519  12.348
51872W        W20213  15.701   5.274   1.695
51873W        W20214  21.102  33.508   1.694
51874W        W20215   6.833   2.411   3.735
51875W        W20216   6.253   4.828  14.503
51876W        W20217  16.572   0.843   1.368
51877W        W20218  18.115   3.232   1.332
51878W        W20219  15.633  14.608   4.620
51879W        W20220   0.435   1.862   1.291
51880W        W20221  30.508  32.549   0.470
51881W        W20222   5.274  34.065  11.519
51882W        W20223   8.256  31.435   0.297
51883W        W20224  33.974  27.009   4.621
51884W        W20225   8.254  37.563   1.365
51885W        W20226  17.694  24.626   1.904
51886W        W20227  17.235  27.491   0.865
51887W        W20228  13.338   2.275   4.768
51888W        W20229   1.773  41.342   0.753
51889W        W20230  26.659  11.776  11.870
51890W        W20231  28.142  43.350  13.881
51891W        W20232  36.442   9.186  10.911
51892W        W20233  12.217  16.221  10.442
51893W        W20234   9.163  11.320  10.952
51894W        W20235  22.745  36.408   3.867
51895W        W20236  24.612   2.859   1.728
51896W        W20237  20.217  31.955  10.982
51897W        W20238   1.349   8.165  12.935
51898W        W20239  34.106   0.295  10.920
51899W        W20240  35.458  33.384  14.355
51900W        W20241  16.255  18.713   0.865
51901W        W20242  22.554  36.440   1.450
51902W        W20243   3.743   6.709  10.432
51903W        W20244  34.480  35.059  12.457
51904W        W20245  31.629  17.684  10.907
51905W        W20246  26.513  36.913  12.941
51906W        W20247  10.857  15.598  12.832
51907W        W20248  44.452  14.664  11.023
51908W        W20249  29.647  33.067  12.367
51909W        W20250   2.226  34.566   3.702
51910W        W20251  32.542  39.843  13.830
51911W        W20252  43.853  12.255  11.006
51912W        W20253  20.042  34.935   2.756
51913W        W20254  30.643  31.419  12.472
51914W        W20255  16.259  23.638  11.486
51915W        W20256  31.623  42.918   2.846
51916W        W20257  16.651   4.821   4.726
51917W        W20258  28.438  21.681  12.499
51918W        W20259  31.909  23.513  14.967
51919W        W20260  15.193   5.243   1.292
51920W        W20261  22.698  27.606  14.965
51921W        W20262  11.368  36.404  12.877
51922W        W20263  23.690  28.178  13.349
51923W        W20264   2.803   7.372   1.803
51924W        W20265  11.138  32.005   0.387
51925W        W20266   7.862   0.958  12.470
51926W        W20267  43.289  20.646  10.068
51927W        W20268  12.311  42.795  14.998
51928W        W20269   0.306  29.077  10.568
51929W        W20270  20.255   8.856  10.541
51930W        W20271  14.786  10.232   4.270
51931W        W20272   5.343   8.231   1.269
51932W        W20273  11.291  21.645  12.834
51933W        W20274  34.501  12.262   4.744
51934W        W20275  30.611  24.584  11.400
51935W        W20276   2.945  10.350   3.661
51936W        W20277  41.528  43.358  10.606
51937W        W20278   4.772  26.469  13.866
51938W        W20279  38.933  44.384  11.393
51939W        W20280  30.068   2.386   1.775
51940W        W20281  33.538   4.346  10.435
51941W        W20282  39.982   9.224   3.326
51942W        W20283   9.356  28.981   1.893
51943W        W20284  19.540   5.712  13.953
51944W        W20285   4.318  18.637  12.411
51945W        W20286   4.747  15.177   1.268
51946W        W20287  12.309  37.046   4.787
51947W        W20288  15.257  39.532  12.366
51948W        W20289   9.166   4.740   1.796
51949W        W20290  28.577  37.346   2.770
51950W        W20291  30.129  30.956   1.424
51951W        W20292  25.475  12.626  11.911
51952W        W20293  38.372   0.911  12.354
51953W        W20294  44.380  10.731  13.388
51954W        W20295  19.723  38.449  13.491
51955W        W20296  10.677  42.442  13.846
51956W        W20297  43.384  11.652  10.014
51957W        W20298  26.172  43.912  10.909
51958W        W20299  33.464  27.064  11.962
51959W        W20300  18.731  20.704  11.574
51960W        W20301   8.683  38.391  10.536
51961W        W20302   2.368  14.680  12.980
51962W        W20303  14.676  13.830   0.734
51963W        W20304   5.203  11.298  12.857
51964W        W20305  18.294   6.243  14.977
51965W        W20306  22.030  11.645  14.375
51966W        W20307  25.179   5.786   4.788
51967W        W20308  23.539   1.357  13.060
51968W        W20309   6.402  21.177  14.003
51969W        W20310   7.227   0.864  11.497
51970W        W20311   6.204  28.658  11.524
51971W        W20312  28.557  43.917  13.514
51972W        W20313  30.640  33.567   1.358
51973W        W20314  42.845  15.605  10.494
51974W        W20315  43.353  23.609   4.135
51975W        W20316   7.682  28.142   2.336
51976W        W20317  26.009  16.768  10.583
51977W        W20318  13.792   4.937  10.964
51978W        W20319  12.838  43.765   0.921
51979W        W20320  41.393  30.011  12.076
51980W        W20321  37.407  42.975  12.897
51981W        W20322  12.322  29.597  10.975
51982W        W20323  44.314  22.162  11.967
51983W        W20324  11.653   0.884  10.999
51984W        W20325  15.102   4.926   3.792
51985W        W20326  39.898  12.704   0.818
51986W        W20327  10.756  20.678   3.795
51987W        W20328  31.401  39.955  13.475
51988W        W20329  18.247  32.489   0.729
51989W        W20330  42.476  27.654   0.847
51990W        W20331  25.550  29.618   1.232
51991W        W20332   5.413  20.617   2.412
51992W        W20333  30.630  15.247   0.360
51993W        W20334  41.820   6.256  13.938
51994W        W20335   0.260  43.859   0.471
51995W        W20336  44.349   0.768   3.646
51996W        W20337  32.477   9.731  14.312
51997W        W20338  30.503  31.107  11.874
51998W        W20339  42.454  38.410  14.762
51999W        W20340   8.761  42.347  14.403
52000W        W20341   2.311   2.388   3.171
52001W        W20342  32.417  12.334  14.024
52002W        W20343  15.745  14.705  11.005
52003W        W20344  12.642  32.417   4.821
52004W        W20345   5.860  34.986   1.738
52005W        W20346  13.663   9.797   3.723
52006W        W20347   2.729   9.175   2.763
52007W        W20348  29.075  32.058   2.388
52008W        W20349  42.296  35.448   4.804
52009W        W20350   0.787  41.936   1.308
52010W        W20351   9.156  28.533   2.329
52011W        W20352  19.097  11.822   0.771
52012W        W20353  26.561   2.462  12.926
52013W        W20354  28.018  39.970  11.479
52014W        W20355  18.590  25.097   5.176
52015W        W20356  12.227  13.626   0.734
52016W        W20357  31.474   6.911  12.373
52017W        W20358  34.540  37.078   4.771
52018W        W20359  39.500  23.631  11.907
52019W        W20360  39.896   6.866  14.880
52020W        W20361   2.228  41.028   4.634
52021W        W20362   0.812  37.505   1.419
52022W        W20363  44.382   0.340   5.307
52023W        W20364  32.526  17.184   1.906
52024W        W20365  19.050  12.165   0.422
52025W        W20366  36.080  12.359   4.831
52026W        W20367   0.843  38.516   1.872
52027W        W20368  10.768  31.974   0.809
52028W        W20369  28.962  19.563   2.365
52029W        W20370  36.396  13.625   2.303
52030W        W20371  41.895  12.845   0.366
52031W        W20372  15.121  22.011   0.965
52032W        W20373  43.405   3.433   0.832
52033W        W20374  37.872  20.087   2.284
52034W        W20375  24.642  35.993  10.485
52035W        W20376  26.973  27.555   4.619
52036W        W20377   6.883  23.734  12.395
52037W        W20378  43.386  30.153  14.958
52038W        W20379  37.365  16.595  12.868
52039W        W20380  36.072  40.542  10.532
52040W        W20381  19.599   8.364   2.885
52041W        W20382  32.561  25.203   3.682
52042W        W20383   5.854   4.406   2.286
52043W        W20384  25.176  41.835   2.841
52044W        W20385  28.446  37.893  13.525
52045W        W20386  37.419  26.618  13.052
52046W        W20387  28.504  28.617   1.734
52047W        W20388  41.829  39.005  14.775
52048W        W20389  35.590  20.629  14.768
52049W        W20390  36.459  24.595  11.089
52050W        W20391   6.350  17.717  10.603
52051W        W20392   3.764  38.877  13.912
52052W        W20393  32.552  27.154   3.305
52053W        W20394   3.387  32.498   3.183
52054W        W20395  42.801  16.604  12.420
52055W        W20396  12.208  10.769  11.000
52056W        W20397  10.172  41.369   1.335
52057W        W20398  30.583  31.410  13.895
52058W        W20399   4.379  26.689   3.165
52059W        W20400  30.565  21.221  14.004
52060W        W20401  10.232   4.356  13.865
52061W        W20402   3.727  37.451   3.822
52062W        W20403   6.354  40.880   0.447
52063W        W20404   3.351  35.908   1.419
52064W        W20405  28.117   0.797   1.247
52065W        W20406   6.257  40.346   2.207
52066W        W20407  22.121   1.265   1.780
52067W        W20408  23.230  27.657  10.487
52068W        W20409  25.088   1.481   4.346
52069W        W20410  40.365  24.198   5.170
52070W        W20411  30.976  43.516  11.920
52071W        W20412  26.586   6.368   3.744
52072W        W20413  26.564  20.713   1.449
52073W        W20414  22.714  41.452   1.302
52074W        W20415  18.668  19.653   3.836
52075W        W20416   2.369  25.628   2.404
52076W        W20417  33.992  27.455  14.872
52077W        W20418  18.061  20.528  12.371
52078W        W20419  19.556  17.192  14.778
52079W        W20420  21.051   6.865  14.031
52080W        W20421  28.502  37.342   5.121
52081W        W20422  25.551  18.256  10.532
52082W        W20423   2.318  21.692  11.029
52083W        W20424  35.909  27.042  11.943
52084W        W20425  17.601  21.211  13.021
52085W        W20426  32.523   7.687   2.752
52086W        W20427  35.381  26.510   3.336
52087W        W20428  35.559  35.562   4.779
52088W        W20429  34.030  19.058  10.621
52089W        W20430  34.566   3.779  14.764
52090W        W20431  13.350   3.424  10.984
52091W        W20432  29.454  40.878   0.258
52092W        W20433  35.434   9.350  12.943
52093W        W20434  28.161   1.855   0.373
52094W        W20435  44.356   9.733   1.348
52095W        W20436  23.161   4.849  11.575
52096W        W20437   6.796   4.329  10.491
52097W        W20438  35.044  25.586  14.964
52098W        W20439  34.535  37.472  13.427
52099W        W20440   4.388   5.350   1.347
52100W        W20441   3.330  33.900   1.258
52101W        W20442   6.878   9.354   2.405
52102W        W20443  17.781  14.302   1.779
52103W        W20444  11.645  36.998   2.387
52104W        W20445  31.970  12.656  13.513
52105W        W20446  24.127  27.593   2.719
52106W        W20447  38.386  28.616   0.285
52107W        W20448  18.096  29.495   4.175
52108W        W20449  12.281   4.768   1.239
52109W        W20450  29.995  22.188  10.545
52110W        W20451   1.372   5.748   0.449
52111W        W20452   9.166  14.613  10.542
52112W        W20453  12.153  34.971  14.937
52113W        W20454  16.631  38.908   1.759
52114W        W20455   0.749   6.205  13.916
52115W        W20456   3.906  16.129  11.925
52116W        W20457  21.213  41.923   3.304
52117W        W20458  29.976   2.320   1.368
52118W        W20459  17.260  19.084  12.013
52119W        W20460  12.325  38.960   5.257
52120W        W20461   1.946   5.892  13.942
52121W        W20462  41.456  18.200  12.344
52122W        W20463  38.365   9.286  12.088
52123W        W20464  30.983  39.523   0.468
52124W        W20465  37.394  38.035  11.463
52125W        W20466  20.544  13.305   2.331
52126W        W20467  36.481   9.296  14.848
52127W        W20468  17.670  22.238   3.791
52128W        W20469  17.304  44.348  14.464
52129W        W20470  17.721  27.645  10.422
52130W        W20471  33.578  16.268   4.191
52131W        W20472  30.583  32.949  14.946
52132W        W20473   8.886  39.326   1.889
52133W        W20474   1.768   0.316  11.585
52134W        W20475  29.145  36.398  12.473
52135W        W20476   8.197   9.763   2.374
52136W        W20477  11.809  25.577   4.167
52137W        W20478  19.578   8.343  12.858
52138W        W20479  39.322  37.984  10.958
52139W        W20480  24.011  12.656   5.167
52140W        W20481   0.309  33.530   0.314
52141W        W20482  42.335  11.259   2.852
52142W        W20483  38.980  43.495  12.053
52143W        W20484   3.288  40.477  10.974
52144W        W20485   7.774   2.274   1.383
52145W        W20486   4.226   0.901   4.684
52146W        W20487  32.106   2.778  12.418
52147W        W20488   5.859  23.989  13.456
52148W        W20489   4.738  30.103   0.437
52149W        W20490  38.974  40.989   5.208
52150W        W20491  37.845  30.550  11.021
52151W        W20492  27.554  14.108  13.810
52152W        W20493  21.586  16.300   1.787
52153W        W20494  26.203  18.220   1.269
52154W        W20495  34.596  21.079  10.934
52155W        W20496   2.287  26.675   0.736
52156W        W20497  25.686  21.665  11.015
52157W        W20498   9.649  11.192   3.769
52158W        W20499   4.878   9.684   4.287
52159W        W20500  30.957  31.576  11.875
52160W        W20501   5.230  24.568  11.879
52161W        W20502  19.775  23.989   3.766
52162W        W20503  24.509  26.195   0.815
52163W        W20504  26.492  20.199   0.766
52164W        W20505  12.362  34.391  12.882
52165W        W20506   0.850  21.667   3.748
52166W        W20507  18.129  41.861  12.404
52167W        W20508   3.834   9.385   1.778
52168W        W20509  41.460  27.620  11.002
52169W        W20510  13.222  21.599  14.404
52170W        W20511   7.197   5.873  13.976
52171W        W20512  33.973  42.417   9.451
52172W        W20513  22.573  37.447  10.115
52173W        W20514   2.462  10.155   1.360
52174W        W20515   1.938  33.620  13.396
52175W        W20516  27.041  21.031   0.420
52176W        W20517  38.535  26.957  11.022
52177W        W20518  40.050  19.258   4.194
52178W        W20519   5.885  35.010  12.065
52179W        W20520  34.100   6.821   3.291
52180W        W20521   4.440  31.945   1.293
52181W        W20522  22.574   0.820  10.413
52182W        W20523  10.697  43.332  11.107
52183W        W20524  10.338  16.134   2.696
52184W        W20525  27.061  37.959   2.247
52185W        W20526  30.970  40.441  10.451
52186W        W20527  13.339   8.212   3.670
52187W        W20528  22.623  17.078   9.985
52188W        W20529  36.560  32.092  12.037
52189W        W20530   1.796  31.452   1.339
52190W        W20531  35.445  18.732   0.877
52191W        W20532  11.781  28.545  14.023
52192W        W20533  33.088  28.968  12.995
52193W        W20534  20.124   3.413   4.732
52194W        W20535  31.101  16.591   3.162
52195W        W20536  30.962  33.435  14.333
52196W        W20537  14.253   0.321  12.441
52197W        W20538  42.980  27.044   3.187
52198W        W20539  38.559  17.298  13.954
52199W        W20540  12.289  17.092   1.217
52200W        W20541   0.271  41.465  12.390
52201W        W20542   8.300  11.843   0.399
52202W        W20543   6.687  43.453   2.296
52203W        W20544  20.166  18.660   4.625
52204W        W20545   8.317   3.422  14.358
52205W        W20546  42.779  43.367  13.980
52206W        W20547  35.432  15.591   1.809
52207W        W20548   3.425  21.545   0.244
52208W        W20549  28.162  32.486  13.447
52209W        W20550  26.019  22.718  13.442
52210W        W20551  22.532  22.548   3.749
52211W        W20552  18.752  12.818   4.344
52212W        W20553  30.013  20.132  12.089
52213W        W20554  44.301  10.286   3.173
52214W        W20555  13.256  41.413  13.792
52215W        W20556  20.069   9.204   2.749
52216W        W20557  19.285  32.499   4.714
52217W        W20558  15.750  34.099   4.772
52218W        W20559  31.438  14.696  12.900
52219W        W20560  20.108   2.819  10.470
52220W        W20561   3.798   7.809  12.824
52221W        W20562  29.562  32.394   0.940
52222W        W20563  15.283  27.145   4.252
52223W        W20564  41.420  38.538   1.424
52224W        W20565  28.063  30.984  14.812
52225W        W20566  34.082  20.255  14.915
52226W        W20567   4.863  24.616  11.472
52227W        W20568  42.821  16.595   1.740
52228W        W20569  25.547  26.076  14.972
52229W        W20570  39.421  42.287   2.229
52230W        W20571  42.464  39.411   4.723
52231W        W20572  24.647  33.484  11.904
52232W        W20573   5.898  16.188  12.059
52233W        W20574  26.165  21.177   3.751
52234W        W20575  25.184  41.511  14.390
52235W        W20576  34.015   7.871  13.409
52236W        W20577  21.547  27.500   4.631
52237W        W20578  24.724  31.475   0.736
52238W        W20579   7.415  25.039   4.209
52239W        W20580  22.201   0.772   2.307
52240W        W20581  36.392  31.003   2.222
52241W        W20582  18.680   5.929   1.333
52242W        W20583   2.301  16.678   5.737
52243W        W20584   0.928  32.067  11.975
52244W        W20585  18.712  22.525  10.100
52245W        W20586  11.685  42.426  13.987
52246W        W20587  16.200  27.473  13.441
52247W        W20588   2.871  23.625   1.765
52248W        W20589   1.861   2.368  11.386
52249W        W20590  26.500   5.328   2.369
52250W        W20591  29.978  13.228   2.721
52251W        W20592  36.954  42.933   4.815
52252W        W20593  40.391  10.288  12.873
52253W        W20594  28.178  11.743  11.073
52254W        W20595  42.318   3.800  11.105
52255W        W20596   8.340  38.343  11.508
52256W        W20597   6.226   3.403  11.886
52257W        W20598  25.651   5.897   1.400
52258W        W20599  12.821   6.229   0.474
52259W        W20600  26.069  42.795   4.692
52260W        W20601   1.443  23.631  13.024
52261W        W20602  29.540  19.714  11.971
52262W        W20603  40.827   2.841   2.723
52263W        W20604  44.484  10.202  14.911
52264W        W20605  14.165  38.904   2.416
52265W        W20606  10.144   9.698   5.283
52266W        W20607  29.163  15.803   1.323
52267W        W20608  16.112   2.235   3.223
52268W        W20609  25.137  43.956  12.092
52269W        W20610  19.729   2.323  10.924
52270W        W20611   4.316   6.768  14.941
52271W        W20612   1.241   2.254   0.249
52272W        W20613  30.982   6.371  14.995
52273W        W20614  13.308  19.109  13.854
52274W        W20615  22.124  11.339   1.802
52275W        W20616  21.677  18.617   1.369
52276W        W20617  27.170  37.025  12.476
52277W        W20618  14.153   2.876  12.969
52278W        W20619  34.062   4.779  14.914
52279W        W20620  14.690   6.780   0.836
52280W        W20621  13.317  22.598   2.893
52281W        W20622  27.545  39.914  13.855
52282W        W20623  40.404  23.099   0.744
52283W        W20624  25.520  30.629   5.153
52284W        W20625  37.841  11.680  10.917
52285W        W20626   2.269  42.921  13.925
52286W        W20627  18.680  10.155   3.216
52287W        W20628  33.445  32.419  11.948
52288W        W20629  32.615  17.759   0.812
52289W        W20630  18.197  32.541   9.541
52290W        W20631   2.299  23.212   0.934
52291W        W20632  33.938  16.124   0.959
52292W        W20633  22.150  31.564   2.205
52293W        W20634  11.802   7.681   0.950
52294W        W20635   9.746  11.300   0.902
52295W        W20636  28.473  28.464   0.858
52296W        W20637  37.851   9.747   0.848
52297W        W20638  15.087   6.915   2.231
52298W        W20639   5.276   7.846  12.894
52299W        W20640  10.168  38.999  12.078
52300W        W20641   9.787  34.869  14.903
52301W        W20642  28.938  36.841   1.360
52302W        W20643  21.747  30.650  13.506
52303W        W20644  36.411  18.166   3.730
52304W        W20645  42.865   8.716  13.008
52305W        W20646  17.762   7.331  14.865
52306W        W20647  36.975  14.687  14.481
52307W        W20648  43.783   6.772  13.429
52308W        W20649  10.332  17.209  14.887
52309W        W20650  23.647  37.465  14.824
52310W        W20651   2.913  23.619   2.234
52311W        W20652   2.797  38.935  11.522
52312W        W20653   7.372  26.061   1.290
52313W        W20654  34.453   3.345   1.839
52314W        W20655  39.486  33.509   9.978
52315W        W20656   3.219   9.832  10.410
52316W        W20657  34.095  33.892  14.451
52317W        W20658  33.548  26.476  14.973
52318W        W20659   2.306  24.624  10.967
52319W        W20660   7.838  16.254  13.846
52320W        W20661   7.819  37.543   4.716
52321W        W20662  28.589  26.514  11.029
52322W        W20663  26.457  38.491   2.213
52323W        W20664  22.545   6.883   2.227
52324W        W20665   6.787   1.859  12.415
52325W        W20666  39.332  16.120  11.976
52326W        W20667  43.899   5.262   1.317
52327W        W20668  43.464  39.948  11.904
52328W        W20669  17.603  41.315  12.371
52329W        W20670  30.078   8.210  10.413
52330W        W20671  39.472  35.038  13.535
52331W        W20672   6.686   7.876   0.252
52332W        W20673   6.347  22.023  14.922
52333W        W20674  17.768  19.230  12.404
52334W        W20675  30.142   8.879   3.193
52335W        W20676  13.307  42.782  14.333
52336W        W20677  14.817  13.237  12.973
52337W        W20678  17.688  10.669   1.913
52338W        W20679   0.786  33.558  13.535
52339W        W20680  41.300  26.666  11.903
52340W        W20681  16.664  36.586  13.869
52341W        W20682  40.930  39.982  14.393
52342W        W20683  36.347  38.365   4.711
52343W        W20684  27.099  19.561  12.561
52344W        W20685   2.277  35.958   2.395
52345W        W20686  32.116  35.384  14.344
52346W        W20687   5.814  39.475  12.562
52347W        W20688  36.960   1.426  12.958
52348W        W20689   7.765  31.010  14.833
52349W        W20690  31.482  25.559   3.870
52350W        W20691  22.996   7.189  14.777
52351W        W20692  31.039  38.873   5.143
52352W        W20693  44.990  29.570   1.752
52353W        W20694  19.143  30.576  12.481
52354W        W20695  22.139  37.903   3.359
52355W        W20696   7.730   6.322  10.004
52356W        W20697   7.838  33.572   4.270
52357W        W20698   4.889  39.965  14.451
52358W        W20699  38.395  30.423   3.717
52359W        W20700  26.553  19.568   3.656
52360W        W20701   3.715  22.171   0.896
52361W        W20702   6.389   1.274  12.009
52362W        W20703  44.421   9.645  14.511
52363W        W20704  36.979  36.890  12.449
52364W        W20705  40.908   4.810   4.241
52365W        W20706  31.538  15.322  12.904
52366W        W20707   8.273  23.549  12.560
52367W        W20708  22.642   3.444   4.217
52368W        W20709   6.401  36.035  14.886
52369W        W20710  34.497  28.536  12.083
52370W        W20711  11.806  17.307  11.474
52371W        W20712   6.797  28.967  11.495
52372W        W20713  14.666  19.624  10.072
52373W        W20714  44.813  32.888  13.059
52374W        W20715   9.175  23.582  12.045
52375W        W20716   4.698  19.713   1.347
52376W        W20717  23.195  27.150  13.472
52377W        W20718  18.663  42.334   0.949
52378W        W20719   6.902  10.771   4.351
52379W        W20720  25.592  35.569  14.937
52380W        W20721  12.620  30.431   0.912
52381W        W20722  38.931  19.141  11.446
52382W        W20723  23.045  21.060   4.286
52383W        W20724  13.299  27.946  10.109
52384W        W20725  37.011  14.310   2.359
52385W        W20726  31.151  12.341  11.441
52386W        W20727  18.764  29.505   5.175
52387W        W20728  37.982  16.693   1.725
52388W        W20729  37.370  19.087   3.829
52389W        W20730  13.726  42.486  12.443
52390W        W20731  35.886   8.400   1.420
52391W        W20732   8.224  33.049   4.679
52392W        W20733   3.220  13.783  13.497
52393W        W20734  27.015  26.148   0.847
52394W        W20735  29.142  36.522  13.965
52395W        W20736  27.586  15.680   0.268
52396W        W20737  35.100  42.415  14.322
52397W        W20738  41.440   7.307   2.895
52398W        W20739   5.895  16.254  12.455
52399W        W20740  35.104  30.137   2.359
52400W        W20741  39.351   6.739  12.956
52401W        W20742  20.192  34.564  13.843
52402W        W20743  27.174  13.710   2.303
52403W        W20744  24.618  42.884  12.523
52404W        W20745  37.403  13.617   0.438
52405W        W20746  26.592   3.946   4.329
52406W        W20747  27.655  32.609  13.791
52407W        W20748  37.388  38.881   2.774
52408W        W20749   7.818  28.011   1.748
52409W        W20750  14.295   2.421   3.719
52410W        W20751  30.648   7.786   4.133
52411W        W20752   3.806  17.689   4.226
52412W        W20753   8.665  29.657  13.886
52413W        W20754  11.624  44.338  13.430
52414W        W20755  32.521  10.314   3.694
52415W        W20756  34.986  25.657   4.297
52416W        W20757  39.335  28.127   4.155
52417W        W20758   0.954   7.308   0.382
52418W        W20759  24.719  20.764   1.732
52419W        W20760  25.008  14.311   0.297
52420W        W20761  30.989  28.593  13.398
52421W        W20762  16.097  12.272   0.855
52422W        W20763  35.453   6.824  12.015
52423W        W20764   0.972  33.520  12.836
52424W        W20765  29.012  34.080   1.409
52425W        W20766  32.992  38.559   0.864
52426W        W20767   5.203   1.761   1.215
52427W        W20768  41.330  31.572  12.493
52428W        W20769  19.651  16.762  13.794
52429W        W20770  21.256  27.533   3.291
52430W        W20771  18.712  14.266   1.697
52431W        W20772  28.459  30.134  11.396
52432W        W20773  17.639  16.709  11.983
52433W        W20774  43.850  25.038   4.166
52434W        W20775  13.116  35.080  10.587
52435W        W20776   7.833  21.216   0.840
52436W        W20777  43.475   9.874   2.872
52437W        W20778  16.766  24.211   2.374
52438W        W20779  43.000  24.637   3.286
52439W        W20780  32.946   3.418  11.980
52440W        W20781  31.546  39.313   0.737
52441W        W20782  33.560  37.908  14.836
52442W        W20783   5.928  32.987  12.061
52443W        W20784  21.131  19.598  11.603
52444W        W20785  26.022  10.702   1.244
52445W        W20786  44.267  18.695   5.140
52446W        W20787   0.861   3.438   0.882
52447W        W20788  37.409   2.299   2.355
52448W        W20789  35.870  42.024  11.005
52449W        W20790  13.692  17.605  10.615
52450W        W20791  35.944   6.781   1.906
52451W        W20792  29.132   9.816  14.464
52452W        W20793  34.003  16.749  12.340
52453W        W20794   4.296  26.560   0.386
52454W        W20795  21.087  17.307   1.734
52455W        W20796  15.689  34.947   0.775
52456W        W20797  15.287  12.645  10.556
52457W        W20798  35.882  26.610   4.668
52458W        W20799  21.542  44.400   2.372
52459W        W20800  31.491  15.277   2.900
52460W        W20801  22.190   8.330   0.455
52461W        W20802  13.333  38.356  12.417
52462W        W20803  25.470  33.492   3.767
52463W        W20804  22.170  44.923   0.779
52464W        W20805  24.639  29.141  14.506
52465W        W20806  37.504  39.345  10.438
52466W        W20807   1.796  13.303  14.007
52467W        W20808  33.974   8.297  13.512
52468W        W20809  43.292  28.047  11.441
52469W        W20810  30.129  21.745   3.269
52470W        W20811  43.896  22.525  11.487
52471W        W20812  25.513  28.116  14.414
52472W        W20813  31.124  19.574   4.164
52473W        W20814  43.459  39.486   1.764
52474W        W20815  16.253  20.726   5.294
52475W        W20816  28.518  36.009   2.836
52476W        W20817   0.895  27.640  11.522
52477W        W20818  31.957  24.649  12.999
52478W        W20819  12.794  32.580  11.075
52479W        W20820  24.050  39.430  14.369
52480W        W20821  41.827  14.292  11.413
52481W        W20822  13.264  23.237   0.824
52482W        W20823   3.721  16.120  12.344
52483W        W20824  37.363  28.535  14.961
52484W        W20825  11.654  27.686  12.409
52485W        W20826  24.071   9.671  11.382
52486W        W20827  39.923  24.611   4.680
52487W        W20828  15.232  14.697  14.884
52488W        W20829  26.078  25.489  14.805
52489W        W20830  11.220  12.321   3.779
52490W        W20831  10.330  21.675   1.839
52491W        W20832   4.737  10.269   4.203
52492W        W20833  23.590  12.699  11.604
52493W        W20834  15.141  18.719  13.913
52494W        W20835  24.174   3.435  11.486
52495W        W20836  43.303  29.935  10.468
52496W        W20837  10.190  33.110   2.734
52497W        W20838  13.105  10.825   3.280
52498W        W20839  18.651  31.041  14.463
52499W        W20840  21.625  37.979  11.921
52500W        W20841  32.007  10.370   5.282
52501W        W20842  17.188  24.222   3.798
52502W        W20843   9.875  22.530   0.733
52503W        W20844  24.482   4.342   2.378
52504W        W20845   7.743  33.094  11.057
52505W        W20846  25.673   9.186  13.867
52506W        W20847  14.094  29.102  10.582
52507W        W20848  15.136  35.516  10.590
52508W        W20849  39.447   3.357   2.876
52509W        W20850  10.154  10.187  11.981
52510W        W20851  14.129  44.770   0.329
52511W        W20852   3.422  22.054  11.424
52512W        W20853  13.844  36.930  14.851
52513W        W20854  30.944  41.798   1.292
52514W        W20855  34.969  41.329  12.998
52515W        W20856   9.688  31.570   0.461
52516W        W20857  15.251  42.850  13.056
52517W        W20858  36.525   4.826   4.307
52518W        W20859  21.024  41.931  14.477
52519W        W20860  28.563  24.139   1.315
52520W        W20861   1.734  36.483   4.147
52521W        W20862  25.019  33.894  14.785
52522W        W20863   3.930   6.403  13.984
52523W        W20864  36.485  37.508   0.330
52524W        W20865  32.900  42.971   2.264
52525W        W20866  27.507  28.988   1.247
52526W        W20867  43.848  37.063  11.043
52527W        W20868  32.018  39.354  10.961
52528W        W20869  10.323  13.792  13.396
52529W        W20870  40.302  41.855   0.409
52530W        W20871  37.409  40.820   1.700
52531W        W20872   7.369  21.757   4.750
52532W        W20873  38.035   2.307   1.704
52533W        W20874  23.596  35.852  13.823
52534W        W20875  16.636  35.925   0.763
52535W        W20876  18.571  27.123  14.780
52536W        W20877   5.294  26.202  13.009
52537W        W20878  28.545  10.855   3.811
52538W        W20879  32.006  25.693   1.809
52539W        W20880  28.101  44.495  11.903
52540W        W20881  39.845   7.797  11.535
52541W        W20882  22.721  27.486   4.789
52542W        W20883  39.824   6.226   2.221
52543W        W20884  42.302  27.666   1.788
52544W        W20885  16.641  37.974   4.345
52545W        W20886  35.967  27.068  14.780
52546W        W20887  15.319  19.704   3.702
52547W        W20888  18.721   9.252  14.487
52548W        W20889  44.934  18.133   2.297
52549W        W20890  16.102   8.671  11.545
52550W        W20891  26.092  27.115  11.110
52551W        W20892  35.490  27.073  12.548
52552W        W20893   1.483   3.394  13.338
52553W        W20894   9.662  42.383  11.489
52554W        W20895  35.066   0.342   0.933
52555W        W20896  29.544  34.939   0.420
52556W        W20897  13.248  18.547  13.493
52557W        W20898  37.844  32.508  13.806
52558W        W20899  34.526  15.676   2.211
52559W        W20900  24.675  39.397   1.289
52560W        W20901  35.389   8.344  12.824
52561W        W20902  32.605   3.385   3.190
52562W        W20903  43.410   3.745  10.414
52563W        W20904   3.271  27.097  11.952
52564W        W20905  21.705  10.684   1.709
52565W        W20906  23.519  31.934  14.980
52566W        W20907  31.113   1.376   4.802
52567W        W20908  28.142   4.272  13.033
52568W        W20909  43.443  41.935   0.364
52569W        W20910  29.937  42.885  10.941
52570W        W20911  12.161  29.639  10.559
52571W        W20912  43.016   5.791  14.760
52572W        W20913  11.681  34.983  11.605
52573W        W20914  24.486  14.691  14.887
52574W        W20915  33.980  21.197   0.796
52575W        W20916   4.210  23.179  11.088
52576W        W20917  10.277  17.646   2.419
52577W        W20918  21.744  36.554  13.429
52578W        W20919   6.307  32.995  11.937
52579W        W20920  10.698  35.057   1.282
52580W        W20921  40.878  10.355   4.809
52581W        W20922  10.223  23.526  13.329
52582W        W20923  42.352  29.135   0.386
52583W        W20924  16.767  12.830   2.723
52584W        W20925  31.921  40.984   0.369
52585W        W20926  12.138  31.444  14.796
52586W        W20927  43.904   3.448  11.424
52587W        W20928  17.771  42.339   3.296
52588W        W20929   8.333  27.977   2.204
52589W        W20930  33.569   5.712  12.835
52590W        W20931  42.516   7.790   1.915
52591W        W20932  30.611   5.322   2.813
52592W        W20933  37.529  26.127  10.455
52593W        W20934  40.491   9.328  14.473
52594W        W20935  42.300  36.060   0.927
52595W        W20936  34.420  41.329   2.690
52596W        W20937   8.798  44.276  13.419
52597W        W20938  23.675  21.113   2.855
52598W        W20939  19.718  14.740   1.743
52599W        W20940  23.128  10.384  11.509
52600W        W20941   5.319   8.186   0.411
52601W        W20942  14.264  11.347  12.966
52602W        W20943  29.462  26.157   1.852
52603W        W20944   1.352   2.322  11.494
52604W        W20945  13.293  37.371   5.180
52605W        W20946  18.659   3.421  10.901
52606W        W20947  30.422  43.918   1.722
52607W        W20948  20.525  20.748   0.464
52608W        W20949  39.411  32.975  13.393
52609W        W20950  31.558  40.903   3.668
52610W        W20951  18.619   9.807  13.409
52611W        W20952   9.361  28.666  12.523
52612W        W20953  20.650  11.288  13.031
52613W        W20954  29.591  13.290   2.839
52614W        W20955  39.043  33.407   1.931
52615W        W20956  37.349   7.395   4.194
52616W        W20957  14.768  37.070  12.032
52617W        W20958  41.367  42.321  12.357
52618W        W20959   1.248  15.198   3.858
52619W        W20960  24.531  22.153  14.777
52620W        W20961  24.002   2.905   2.289
52621W        W20962   3.368  20.609  13.429
52622W        W20963  29.128  15.600   2.328
52623W        W20964   3.375   0.356  13.888
52624W        W20965  42.391  23.117  13.932
52625W        W20966  35.466  18.292  11.516
52626W        W20967  28.498  37.460  13.941
52627W        W20968   3.266  28.610   2.233
52628W        W20969  32.963  10.242  13.856
52629W        W20970  39.499  41.807   3.843
52630W        W20971  34.099  41.305  14.949
52631W        W20972  38.523  10.219  11.415
52632W        W20973  41.818  29.039  13.014
52633W        W20974  40.315  34.919   2.213
52634W        W20975   9.343  20.103   1.729
52635W        W20976  19.669  23.207  12.409
52636W        W20977  27.614  29.526  11.041
52637W        W20978  12.760   7.298  14.875
52638W        W20979  15.263  41.934   4.813
52639W        W20980  23.663  24.989  12.539
52640W        W20981  42.800  24.041  12.085
52641W        W20982  26.579  17.658  11.378
52642W        W20983  40.996  38.841  10.620
52643W        W20984  18.755   6.286   1.395
52644W        W20985   0.745  38.566   0.921
52645W        W20986  28.550  12.794  10.463
52646W        W20987  27.047  16.072  12.862
52647W        W20988   2.255  35.399  14.381
52648W        W20989  17.721   7.675  11.435
52649W        W20990  29.493  32.924  10.613
52650W        W20991  15.187  28.487  13.016
52651W        W20992  36.897  36.955   0.809
52652W        W20993  19.214   1.818   4.606
52653W        W20994  25.557  13.229  11.411
52654W        W20995   6.919   6.900   2.754
52655W        W20996  15.605   4.424  12.978
52656W        W20997  19.656   2.851   1.789
52657W        W20998  35.376  33.420   0.448
52658W        W20999   6.693  29.620  12.449
52659W        W21000   7.180  37.535   0.737
52660W        W21001  25.523   7.270   1.328
52661W        W21002  15.773  42.028  13.416
52662W        W21003   5.350  14.667  10.926
52663W        W21004  16.575  33.492  14.442
52664W        W21005   4.267  11.163   2.750
52665W        W21006   2.364   3.854  11.932
52666W        W21007   1.317  26.147  12.547
52667W        W21008   2.894  42.985   0.263
52668W        W21009   1.242  41.917   4.822
52669W        W21010  14.648  21.121   4.276
52670W        W21011   1.385  20.537   3.178
52671W        W21012  41.492   0.269   0.321
52672W        W21013  42.789  16.692  13.918
52673W        W21014  37.077  35.402  12.933
52674W        W21015   1.253   9.235  14.964
52675W        W21016  16.770  18.222  13.314
52676W        W21017  19.272  43.858   0.393
52677W        W21018  18.619  12.132   3.261
52678W        W21019  31.550   1.961  10.938
52679W        W21020  30.159  28.986   3.778
52680W        W21021  12.254   6.875  12.379
52681W        W21022  36.011  18.611  11.528
52682W        W21023  43.866  21.696  10.932
52683W        W21024  25.577  43.430  13.342
52684W        W21025   2.470  41.304   4.761
52685W        W21026   2.370  41.862   4.796
52686W        W21027  32.064  26.596  10.122
52687W        W21028  36.372  39.535  14.360
52688W        W21029  30.061  24.101   0.865
52689W        W21030  42.511  27.957  14.767
52690W        W21031  39.461  33.029   2.765
52691W        W21032  39.923  21.570  11.128
52692W        W21033   2.381  37.433   4.742
52693W        W21034  32.561  27.551   4.296
52694W        W21035  20.130  12.331  14.773
52695W        W21036  40.324  34.055   2.811
52696W        W21037  32.616  20.258  13.002
52697W        W21038  14.293  22.574  12.367
52698W        W21039   0.935  14.169   0.845
52699W        W21040  24.697  35.043  13.833
52700W        W21041  34.102   0.278  11.498
52701W        W21042  16.659   2.953  14.798
52702W        W21043   8.311  28.019   4.791
52703W        W21044  33.050   9.241  12.539
52704W        W21045  10.174  41.918  10.930
52705W        W21046   2.841  18.198  11.127
52706W        W21047  40.924  30.456  12.533
52707W        W21048  30.583   7.412   3.270
52708W        W21049  22.221  37.044   3.250
52709W        W21050  15.129  10.311   0.470
52710W        W21051  24.569  14.241   0.940
52711W        W21052  31.136  23.646  12.367
52712W        W21053  38.422   1.460   1.284
52713W        W21054   4.447  26.486  11.035
52714W        W21055  23.608  11.855   0.337
52715W        W21056  29.495   7.848  10.622
52716W        W21057  35.934  20.211  14.931
52717W        W21058  21.223  12.145  10.467
52718W        W21059  22.136  27.604  11.420
52719W        W21060   5.925  33.624   4.648
52720W        W21061   1.369   7.679  13.401
52721W        W21062  26.582  36.862  14.021
52722W        W21063   8.163  20.120  11.903
52723W        W21064  32.414   1.396   0.858
52724W        W21065  30.582   8.688   2.854
52725W        W21066   7.205   2.958  10.564
52726W        W21067   5.806  17.728   4.113
52727W        W21068  22.997  15.282  11.389
52728W        W21069  16.722   9.372  11.063
52729W        W21070  44.756  36.034  13.852
52730W        W21071  36.428  41.942  12.524
52731W        W21072   6.268  21.533   1.325
52732W        W21073   8.665  35.024   0.955
52733W        W21074   8.674   0.470   1.695
52734W        W21075  29.467  10.202   4.119
52735W        W21076  29.024  26.052   0.811
52736W        W21077  17.728  23.534   3.829
52737W        W21078  28.601  43.854   1.433
52738W        W21079  18.586  34.999  12.861
52739W        W21080  33.987   7.876  12.466
52740W        W21081  11.682  19.564   9.993
52741W        W21082  44.420  44.371  11.436
52742W        W21083  41.998   9.228  11.413
52743W        W21084  29.580  38.440   1.365
52744W        W21085   7.796  11.750   1.867
52745W        W21086  25.027  33.496  14.765
52746W        W21087  10.273  34.423   2.344
52747W        W21088   6.416  25.645   2.747
52748W        W21089  40.800   5.256   3.645
52749W        W21090   5.739   8.353  13.049
52750W        W21091  36.430  25.581  14.970
52751W        W21092  34.392  17.130   4.116
52752W        W21093  16.720  29.628   2.716
52753W        W21094  21.739  42.484  14.465
52754W        W21095  12.274  11.631   5.572
52755W        W21096   5.332  20.648   4.150
52756W        W21097  30.617  42.449  10.502
52757W        W21098  14.806  30.984  11.411
52758W        W21099  16.569   0.958  11.578
52759W        W21100  20.765  26.463  13.033
52760W        W21101   3.344   1.874  12.960
52761W        W21102  17.289   7.312  11.971
52762W        W21103   8.896  41.453   2.394
52763W        W21104  15.688  34.424   1.332
52764W        W21105  26.971  11.683  10.150
52765W        W21106  33.586   7.393   2.665
52766W        W21107   8.367  36.060   2.899
52767W        W21108  28.173  32.498  14.389
52768W        W21109  24.135  36.935   4.254
52769W        W21110  33.029  26.070  13.917
52770W        W21111  10.782  19.767  13.844
52771W        W21112  26.189   5.929   0.831
52772W        W21113   1.958  17.252   5.308
52773W        W21114  37.991  42.985   2.670
52774W        W21115  43.337  28.182  12.476
52775W        W21116  20.207  16.155  12.413
52776W        W21117   5.712   3.926  14.943
52777W        W21118  43.429   9.824   4.134
52778W        W21119  37.545   2.248   4.163
52779W        W21120  40.441  40.028  11.387
52780W        W21121  15.130  11.317   1.260
52781W        W21122  16.647  35.394   4.635
52782W        W21123  13.765   6.898   4.198
52783W        W21124  30.591  43.994  12.431
52784W        W21125   5.259   4.329   0.449
52785W        W21126  31.962  35.019   4.721
52786W        W21127   8.682  36.557   5.309
52787W        W21128  15.325  41.037  12.452
52788W        W21129  34.079  38.016   4.355
52789W        W21130   3.935  26.581   4.353
52790W        W21131  25.077   3.259  12.481
52791W        W21132  40.435  13.233   0.457
52792W        W21133  19.729  25.113  10.921
52793W        W21134  30.495  43.357   0.389
52794W        W21135  21.654  22.029   1.392
52795W        W21136  39.031  10.665   2.178
52796W        W21137  34.086  35.904   0.864
52797W        W21138   6.265  25.091  11.127
52798W        W21139  24.076  11.667   3.215
52799W        W21140  41.524  13.279  11.074
52800W        W21141  34.051   5.879  14.015
52801W        W21142  15.163  26.156  10.938
52802W        W21143  11.674  38.913  13.358
52803W        W21144  31.629   7.317   4.815
52804W        W21145  34.568  29.609   4.230
52805W        W21146   5.256  19.755   4.755
52806W        W21147   8.712  19.169  12.844
52807W        W21148  42.444  38.395   1.406
52808W        W21149   0.477  32.915   0.829
52809W        W21150   4.377  12.750  12.518
52810W        W21151  20.138  25.705  14.925
52811W        W21152  42.398  44.828   0.467
52812W        W21153   9.697   8.893   4.612
52813W        W21154  24.086  31.913   3.244
52814W        W21155  15.611  36.422  11.396
52815W        W21156   4.439  32.928  13.058
52816W        W21157  29.990  11.850  11.457
52817W        W21158  31.440  27.079  14.393
52818W        W21159  11.820   5.245  12.900
52819W        W21160  11.783  25.126   0.337
52820W        W21161  23.565  32.941   3.671
52821W        W21162  11.284  33.022  11.060
52822W        W21163  30.922  28.039  12.915
52823W        W21164  26.481  17.658   4.287
52824W        W21165  13.332  26.524  12.479
52825W        W21166  22.528   2.763   1.371
52826W        W21167  44.468   1.336  11.612
52827W        W21168  15.809  32.571  14.836
52828W        W21169  40.482  40.486  14.481
52829W        W21170  19.750  43.005   1.827
52830W        W21171   1.376  11.202   4.817
52831W        W21172  19.761  20.222  13.520
52832W        W21173  19.056   6.215  10.977
52833W        W21174  16.795   8.203  13.404
52834W        W21175   5.267  23.145   4.813
52835W        W21176   7.308  38.838  11.058
52836W        W21177  30.610  21.581  13.309
52837W        W21178  42.992  30.058   3.632
52838W        W21179  33.939  30.108  12.526
52839W        W21180  36.550   5.213  13.909
52840W        W21181   1.368   0.351  13.497
52841W        W21182  17.797   6.383  11.605
52842W        W21183  33.055  23.648   1.211
52843W        W21184  26.596  15.742  10.567
52844W        W21185  41.008  16.773   1.732
52845W        W21186  26.539   6.357  11.578
52846W        W21187  30.158  40.433  12.379
52847W        W21188   0.834  25.134   3.796
52848W        W21189  25.598  20.273   3.637
52849W        W21190  30.076  17.737  13.828
52850W        W21191  28.449   6.236  14.474
52851W        W21192  33.073  26.984  14.818
52852W        W21193  20.528  21.755   0.950
52853W        W21194  32.452  42.522   3.245
52854W        W21195   5.256   9.224   2.683
52855W        W21196   5.802  36.051   1.803
52856W        W21197  29.085  33.928  14.026
52857W        W21198  14.228  40.467  13.855
52858W        W21199  40.407  11.742  13.966
52859W        W21200  44.007  13.777   0.291
52860W        W21201  15.198   6.227  13.880
52861W        W21202  16.101  21.119   0.371
52862W        W21203  33.407   8.278  14.415
52863W        W21204   3.898  39.929  12.551
52864W        W21205  25.156  10.216  13.443
52865W        W21206  26.633  38.348   3.749
52866W        W21207   6.901   3.741  10.540
52867W        W21208  16.637  17.289   2.410
52868W        W21209  12.235   0.482  13.000
52869W        W21210  35.510  20.226   2.839
52870W        W21211  16.706   7.827  12.864
52871W        W21212  41.995  43.001  13.806
52872W        W21213  21.728  11.793  10.951
52873W        W21214  29.034  33.386  11.093
52874W        W21215  25.157  33.989   0.277
52875W        W21216  26.008   4.342   4.182
52876W        W21217  39.019   1.295  11.892
52877W        W21218  12.138  24.562   3.202
52878W        W21219  35.866  32.026   5.093
52879W        W21220  29.175  44.782  10.408
52880W        W21221   0.925  38.476   4.642
52881W        W21222  19.546  42.994  13.519
52882W        W21223  38.876  23.035   0.264
52883W        W21224   9.350  20.749  10.937
52884W        W21225  23.544   8.196  11.983
52885W        W21226  32.489  24.523  11.459
52886W        W21227  17.664  11.232  12.444
52887W        W21228  14.307   3.397   3.773
52888W        W21229  29.574  29.990  14.769
52889W        W21230   0.784  27.549   4.758
52890W        W21231  43.335   9.311   3.263
52891W        W21232  37.961  43.894   3.644
52892W        W21233   3.410  40.037   9.972
52893W        W21234  26.626   1.866   3.846
52894W        W21235  15.810  11.144   4.302
52895W        W21236   5.749   6.680  14.507
52896W        W21237   7.730  29.591   0.417
52897W        W21238  31.629  24.175  13.900
52898W        W21239   2.394  25.601   2.724
52899W        W21240  37.555   3.794  12.443
52900W        W21241  43.345  20.256   4.649
52901W        W21242  37.374  37.029  14.378
52902W        W21243  12.753   1.482  11.395
52903W        W21244  22.545  12.795   3.816
52904W        W21245  37.034  19.583  14.411
52905W        W21246  44.379   9.344  11.896
52906W        W21247   2.733   0.412   0.360
52907W        W21248  25.182   1.325  12.462
52908W        W21249   5.418   7.353  13.819
52909W        W21250  16.659  16.632   3.212
52910W        W21251  11.788  28.492  13.525
52911W        W21252   4.410  44.421   1.354
52912W        W21253  30.538  30.098   4.249
52913W        W21254  16.240  16.682   4.723
52914W        W21255  20.672  36.990   3.211
52915W        W21256  13.650  40.866   4.824
52916W        W21257  10.280  30.022   1.389
52917W        W21258  11.339  33.052  12.974
52918W        W21259  29.095  18.733   0.314
52919W        W21260  35.005  31.594   3.783
52920W        W21261  35.547  41.293   1.214
52921W        W21262  36.365   3.898   4.648
52922W        W21263  27.062   3.300  14.428
52923W        W21264   0.346  20.721  13.893
52924W        W21265  17.130  29.103  14.802
52925W        W21266  26.696  44.399  12.907
52926W        W21267  30.119  43.768   3.378
52927W        W21268  18.195  21.093  14.842
52928W        W21269   9.646  28.671   2.875
52929W        W21270  40.864   4.215   1.735
52930W        W21271  14.801  14.274  10.957
52931W        W21272  17.648  19.043  11.572
52932W        W21273  14.285   8.848   0.400
52933W        W21274  44.271  33.978  12.402
52934W        W21275  34.373   7.305  14.361
52935W        W21276  44.501  19.091   3.818
52936W        W21277  14.095  43.882  11.891
52937W        W21278  24.976  31.989   1.436
52938W        W21279   0.326  25.197  13.798
52939W        W21280  31.133  32.996   2.866
52940W        W21281   9.242  37.344   3.693
52941W        W21282   9.199   5.261   0.939
52942W        W21283  42.512   7.805   2.304
52943W        W21284  27.032  25.213  10.415
52944W        W21285  33.384  18.595  11.383
52945W        W21286  13.173  41.479   4.777
52946W        W21287  10.724  44.460  12.862
52947W        W21288  23.661  19.682   3.210
52948W        W21289  18.703  42.311  11.594
52949W        W21290   8.395  24.584   4.813
52950W        W21291   1.870   9.285   1.735
52951W        W21292  42.479  10.342   2.275
52952W        W21293  25.009  18.655   3.253
52953W        W21294  33.387   8.732  14.464
52954W        W21295  41.512  22.641  12.414
52955W        W21296  44.296  38.362   2.399
52956W        W21297  10.219  36.090  10.056
52957W        W21298  17.106  41.800   4.806
52958W        W21299  10.291   3.308   1.419
52959W        W21300  20.741  26.109  14.764
52960W        W21301  41.356  31.896  11.492
52961W        W21302  35.426  40.832  11.870
52962W        W21303  19.760  23.022   3.799
52963W        W21304   8.802  17.234  11.566
52964W        W21305   0.944  16.201  10.924
52965W        W21306  10.713   4.246   3.721
52966W        W21307  19.732  41.515  14.347
52967W        W21308  28.645  44.479   1.283
52968W        W21309  18.149   8.865   2.806
52969W        W21310  23.988   2.268  10.986
52970W        W21311  40.515  35.903   4.740
52971W        W21312  42.481  41.790  14.454
52972W        W21313  21.557  43.957   2.182
52973W        W21314  33.036  29.090  12.088
52974W        W21315  10.747  24.051  13.320
52975W        W21316  43.928  16.257   0.334
52976W        W21317  27.640   5.230   4.756
52977W        W21318  34.555  20.057   0.786
52978W        W21319  15.204   7.826  12.874
52979W        W21320  14.329   7.270  14.913
52980W        W21321  13.219  24.224   5.087
52981W        W21322  33.019  19.281  12.982
52982W        W21323  36.506   3.719   2.754
52983W        W21324   3.393  28.599   1.237
52984W        W21325  20.264  14.252   4.670
52985W        W21326  35.038  23.668   2.213
52986W        W21327   7.217  33.067   0.468
52987W        W21328   1.787  35.873  13.339
52988W        W21329  43.354  27.994  13.494
52989W        W21330  43.979  14.757  13.927
52990W        W21331  12.757  36.098   4.744
52991W        W21332  34.024  27.128   1.249
52992W        W21333   9.333   0.317  11.035
52993W        W21334  29.618  44.832  13.378
52994W        W21335   4.333   2.247  13.495
52995W        W21336  30.946  41.447  10.469
52996W        W21337   1.881  41.982   3.199
52997W        W21338  37.839  23.238   1.705
52998W        W21339   7.847   8.768   3.768
52999W        W21340  41.867   8.713   0.384
53000W        W21341  39.419  38.872   0.315
53001W        W21342  35.563  30.161  11.496
53002W        W21343  32.569  23.536   2.287
53003W        W21344  26.659  44.838  12.926
53004W        W21345  16.688  26.628   1.354
53005W        W21346  42.424  10.838  11.536
53006W        W21347  29.526  13.616   1.838
53007W        W21348   9.259  25.157   2.726
53008W        W21349   3.373  43.899   2.396
53009W        W21350   5.871  32.417   0.314
53010W        W21351   8.779   1.364  14.437
53011W        W21352  17.198  23.731   2.266
53012W        W21353   5.704   8.691  11.893
53013W        W21354  37.562  28.595  14.472
53014W        W21355  26.599  34.913  13.948
53015W        W21356  24.180  12.720  14.940
53016W        W21357  27.472  39.467   4.298
53017W        W21358  27.471   1.369   2.849
53018W        W21359  11.181  39.845  13.799
53019W        W21360  10.306  29.919   0.362
53020W        W21361   4.389   6.184  14.872
53021W        W21362  22.247  11.195  14.419
53022W        W21363  24.496  24.113   3.783
53023W        W21364  18.254  14.179  12.871
53024W        W21365  40.415  39.005  13.363
53025W        W21366   3.338  14.117  11.857
53026W        W21367  35.533  11.282  12.367
53027W        W21368  34.393  40.483   1.426
53028W        W21369  21.726   0.284   1.240
53029W        W21370  30.506  24.663  13.413
53030W        W21371   3.460  38.969   1.850
53031W        W21372   5.208  10.722  14.811
53032W        W21373  14.727  15.805   0.752
53033W        W21374  44.432   5.706   0.327
53034W        W21375   9.708   0.468  10.441
53035W        W21376  40.355  21.643  11.417
53036W        W21377  16.743  42.367  14.491
53037W        W21378  42.915  17.569  11.422
53038W        W21379  33.543  44.386   2.857
53039W        W21380  30.118  24.200  12.454
53040W        W21381  31.007   0.407  13.017
53041W        W21382   5.789   0.934  13.498
53042W        W21383  44.313   6.753   2.779
53043W        W21384  43.443  10.863  12.026
53044W        W21385  39.823  15.290  14.502
53045W        W21386   0.266  16.676  13.048
53046W        W21387  24.149   3.352  10.067
53047W        W21388  39.810  14.752  14.798
53048W        W21389   4.779  15.815   5.304
53049W        W21390  18.719  21.078   0.895
53050W        W21391   3.293  28.118  13.889
53051W        W21392  41.506   4.220   3.795
53052W        W21393   4.905   0.322  10.637
53053W        W21394  33.411  41.949  10.100
53054W        W21395  41.364  12.348   4.789
53055W        W21396  44.492   9.211  14.376
53056W        W21397  29.594  28.628  14.496
53057W        W21398  44.353  13.284  11.008
53058W        W21399  11.286  31.908  11.974
53059W        W21400  22.109  23.993   3.278
53060W        W21401  44.964  20.729   9.956
53061W        W21402  29.432   7.389  10.596
53062W        W21403  43.495   9.228  12.863
53063W        W21404  14.667  22.122  13.795
53064W        W21405  25.516  17.232  10.511
53065W        W21406  21.540   1.367   2.178
53066W        W21407  42.826  28.437   3.653
53067W        W21408   0.983   2.777  14.962
53068W        W21409  40.362  19.563   4.763
53069W        W21410  42.418  20.060  11.492
53070W        W21411  24.074   9.295   3.326
53071W        W21412  24.535  41.403   0.442
53072W        W21413  34.427  15.306   0.872
53073W        W21414  12.637  29.653   3.744
53074W        W21415  40.541  15.319  10.406
53075W        W21416   1.428   5.410   2.181
53076W        W21417  26.646  40.900  11.519
53077W        W21418  38.501  19.567  10.543
53078W        W21419  16.782  20.627  14.766
53079W        W21420  11.688  44.393   4.614
53080W        W21421  20.705  12.202   0.771
53081W        W21422  42.515  29.644  10.639
53082W        W21423  13.258   1.279   1.447
53083W        W21424  16.161  21.040   5.769
53084W        W21425  23.214  17.123   9.924
53085W        W21426  17.247  24.529  13.948
53086W        W21427  33.579  16.252  13.019
53087W        W21428   3.376  10.745  14.011
53088W        W21429  12.666  33.429   4.188
53089W        W21430  22.186  15.143   1.811
53090W        W21431  25.643  14.777  11.606
53091W        W21432  34.555  12.131  11.049
53092W        W21433  43.861  32.082   0.797
53093W        W21434  40.393   5.908   0.802
53094W        W21435  32.497  39.556   4.276
53095W        W21436  32.958   0.264  13.005
53096W        W21437  30.567   8.853   0.786
53097W        W21438  22.195  18.262   0.761
53098W        W21439  34.969  42.904   1.797
53099W        W21440  36.952   5.867  12.572
53100W        W21441  42.822  34.965  14.281
53101W        W21442  24.075  14.820   1.227
53102W        W21443  29.009  43.300   0.319
53103W        W21444  11.797  34.443   2.323
53104W        W21445  14.777  16.092  11.476
53105W        W21446   5.835  10.138   3.325
53106W        W21447  17.237   0.294  14.828
53107W        W21448  25.509   1.317   4.133
53108W        W21449   5.429  27.013  11.877
53109W        W21450  39.403  20.609  11.396
53110W        W21451   3.280  30.541   0.255
53111W        W21452  39.481  22.587  14.876
53112W        W21453  26.494   2.824   1.824
53113W        W21454   9.250  40.948   0.762
53114W        W21455  19.698  14.324   1.441
53115W        W21456  16.222  22.629   3.663
53116W        W21457   7.871  42.989  12.375
53117W        W21458  13.717  27.628  12.371
53118W        W21459  40.451   7.846  13.355
53119W        W21460  12.821  28.053   2.781
53120W        W21461  29.008  41.995   4.122
53121W        W21462  38.351   1.962  10.596
53122W        W21463  14.136  18.560  12.551
53123W        W21464   9.764   8.261   4.180
53124W        W21465  41.375  25.656  11.954
53125W        W21466  33.881   5.388  10.438
53126W        W21467  20.130   2.888  11.600
53127W        W21468  39.878  22.006  10.560
53128W        W21469  42.456   8.392  13.943
53129W        W21470  13.782  42.472   4.800
53130W        W21471  38.409  16.763   3.785
53131W        W21472  21.180  43.775  14.997
53132W        W21473  11.865  36.456   0.472
53133W        W21474   7.288  38.513   1.884
53134W        W21475  31.568  10.750  11.042
53135W        W21476   6.364  31.413   9.945
53136W        W21477  25.070  18.590  13.985
53137W        W21478  12.359  27.954  12.346
53138W        W21479  33.494  22.640   0.909
53139W        W21480   3.794  26.141  14.416
53140W        W21481  22.211  31.149   1.425
53141W        W21482  37.043  44.267  14.030
53142W        W21483  27.017  30.549  14.838
53143W        W21484  15.747  37.968  10.575
53144W        W21485  18.599  25.097   0.769
53145W        W21486   5.873  23.027  11.973
53146W        W21487  22.626   6.322  14.443
53147W        W21488  43.867   8.321   4.675
53148W        W21489   7.726   2.904  13.454
53149W        W21490  35.601   9.306  11.877
53150W        W21491  21.157  42.887   3.759
53151W        W21492  34.096  42.910  11.896
53152W        W21493  31.148  42.392   2.318
53153W        W21494  26.199  21.179  12.492
53154W        W21495  10.155   4.421   3.371
53155W        W21496  12.678  18.756   3.174
53156W        W21497  13.175  23.570   0.850
53157W        W21498  14.196   0.353   4.117
53158W        W21499  20.271  29.640  12.366
53159W        W21500  22.650  35.419   3.278
53160W        W21501  30.524  26.458  13.821
53161W        W21502  32.063  35.052   3.147
53162W        W21503  12.693  30.086   2.288
53163W        W21504   4.314  21.036   1.316
53164W        W21505  27.505  32.132   1.855
53165W        W21506   2.233  17.119  14.785
53166W        W21507   5.875  29.461  13.491
53167W        W21508  29.518   3.275  12.824
53168W        W21509  11.261  21.522  10.644
53169W        W21510  10.314   7.223  14.274
53170W        W21511  37.032  22.709  14.927
53171W        W21512  20.633  16.184   3.216
53172W        W21513  25.020  14.629   2.696
53173W        W21514  29.001  28.149   4.190
53174W        W21515  26.125  38.339   4.209
53175W        W21516  27.997   9.335  14.959
53176W        W21517   2.912  12.677   3.724
53177W        W21518   5.411   9.765   3.750
53178W        W21519  15.286  31.008  12.469
53179W        W21520  36.904  42.926   2.756
53180W        W21521  37.369  35.936   2.771
53181W        W21522  10.281  24.707   3.176
53182W        W21523   4.830  40.797   0.839
53183W        W21524  43.300  44.989   2.399
53184W        W21525  23.543  41.440  10.446
53185W        W21526  25.092  34.536   4.212
53186W        W21527   5.900  40.936  11.568
53187W        W21528   7.239   5.810   4.670
53188W        W21529  40.943  32.513   3.837
53189W        W21530   2.235   8.213  13.489
53190W        W21531  20.642  26.686  12.460
53191W        W21532  39.514   0.971   4.720
53192W        W21533  23.720   3.396   2.771
53193W        W21534  27.526  42.885  11.041
53194W        W21535  13.787  15.821  10.898
53195W        W21536  42.937  26.486   2.396
53196W        W21537  26.458  26.551   0.401
53197W        W21538   6.212  26.586   3.147
53198W        W21539  29.066  19.725   0.285
53199W        W21540  10.155   2.739  13.040
53200W        W21541  35.024  23.591   3.273
53201W        W21542  11.746  39.884  12.459
53202W        W21543  34.072  15.198   0.465
53203W        W21544  25.471  30.435  14.284
53204W        W21545  12.319  42.518  10.554
53205W        W21546  27.154  14.666   0.435
53206W        W21547   9.279  41.860  13.384
53207W        W21548   8.657  40.518  14.938
53208W        W21549  27.477  38.979  13.494
53209W        W21550  15.232  14.259  12.393
53210W        W21551  41.906  43.342   5.162
53211W        W21552  10.849  37.957  13.492
53212W        W21553   2.804   9.701  14.469
53213W        W21554  33.620  37.387   3.233
53214W        W21555  23.595  21.131  14.385
53215W        W21556   0.854  10.264  14.351
53216W        W21557  26.123   7.865   2.340
53217W        W21558  34.555   7.277   2.411
53218W        W21559  12.359  40.537  12.823
53219W        W21560  36.849   1.479   4.266
53220W        W21561  19.723  40.324   0.841
53221W        W21562  16.576  40.414  14.015
53222W        W21563  38.334  32.601   4.160
53223W        W21564  35.365   9.714  11.015
53224W        W21565  17.676   5.193   3.744
53225W        W21566  36.450  31.604   3.354
53226W        W21567   9.802  37.566  10.568
53227W        W21568  14.340  15.629   4.653
53228W        W21569  16.111  16.270  12.086
53229W        W21570  14.316   2.448  12.391
53230W        W21571  10.698  26.574   1.412
53231W        W21572   9.807  16.724   4.208
53232W        W21573  16.809  24.106   1.240
53233W        W21574  21.113  10.298   2.724
53234W        W21575  16.747  16.581   0.253
53235W        W21576  14.198  19.244   2.809
53236W        W21577  34.001   7.253   0.310
53237W        W21578  13.159  36.551   2.747
53238W        W21579  24.010  34.615   4.652
53239W        W21580   8.297  12.774   2.895
53240W        W21581  37.481  22.211   0.906
53241W        W21582  24.611  38.861  12.536
53242W        W21583  36.052  23.707   4.645
53243W        W21584  38.005  18.093   2.795
53244W        W21585  38.557   2.288   0.465
53245W        W21586  34.978   2.819   3.808
53246W        W21587  42.857   5.424   3.343
53247W        W21588  42.319  28.648  12.427
53248W        W21589  17.084  35.009  10.954
53249W        W21590  23.197  16.132  10.146
53250W        W21591  22.015   1.376   2.886
53251W        W21592  29.660  44.889  10.988
53252W        W21593  10.215   9.332   0.898
53253W        W21594  31.144  27.466  11.610
53254W        W21595  26.086   0.470   2.882
53255W        W21596  24.052  23.075   3.668
53256W        W21597  39.054  19.171  12.854
53257W        W21598   1.801  15.178   2.419
53258W        W21599  26.078  22.131  14.964
53259W        W21600   1.410   1.970   1.714
53260W        W21601  19.114  24.552   0.755
53261W        W21602  29.652  19.745   0.303
53262W        W21603  14.313  44.291  10.535
53263W        W21604  22.728   8.180  14.411
53264W        W21605  24.212   4.259  12.989
53265W        W21606   1.396  10.295  12.937
53266W        W21607  30.640   1.777   3.362
53267W        W21608  14.606  14.096   1.839
53268W        W21609  15.732  39.336  11.871
53269W        W21610  39.373  24.638   4.637
53270W        W21611  25.054   3.722  14.028
53271W        W21612  33.547  13.233   1.412
53272W        W21613  28.640   4.802  12.886
53273W        W21614  38.357  18.295  14.410
53274W        W21615  36.394  44.822  13.381
53275W        W21616  23.172  28.679  13.876
53276W        W21617  34.100  15.229  13.885
53277W        W21618  17.733  21.075   0.319
53278W        W21619  21.728  29.066   1.745
53279W        W21620  18.597   5.379  14.948
53280W        W21621   3.344  37.486   1.840
53281W        W21622  10.735  36.951   0.830
53282W        W21623  12.772   4.923  12.916
53283W        W21624  26.196  37.523   2.745
53284W        W21625   3.440  29.472   2.333
53285W        W21626  31.601  37.052  14.395
53286W        W21627   4.290  37.453   3.336
53287W        W21628  41.538   1.937   1.923
53288W        W21629  39.906   5.756   4.303
53289W        W21630  14.182  18.765   0.901
53290W        W21631  42.943  13.778  11.579
53291W        W21632  26.473   6.744  14.824
53292W        W21633   9.209  29.083   3.384
53293W        W21634  26.081  17.248   1.401
53294W        W21635  18.554  18.574   3.235
53295W        W21636   2.355  22.058   0.414
53296W        W21637   4.737  23.607  12.378
53297W        W21638   3.805  29.583   3.215
53298W        W21639  18.618  26.473  12.418
53299W        W21640   2.351  13.284   1.891
53300W        W21641  40.006  42.397   1.857
53301W        W21642  30.052  23.104  11.398
53302W        W21643  10.717   3.259  12.365
53303W        W21644  43.342   6.249   0.742
53304W        W21645  31.115  14.095   2.255
53305W        W21646   1.369  26.576  14.031
53306W        W21647   5.227  41.337   1.720
53307W        W21648   8.352  32.573   1.442
53308W        W21649  38.947  36.040  13.483
53309W        W21650   7.808  43.508  13.468
53310W        W21651  15.327  20.153  11.086
53311W        W21652   9.689  30.657  14.898
53312W        W21653   7.278  23.518   3.661
53313W        W21654  36.521  17.112  11.006
53314W        W21655  39.472  40.320  10.929
53315W        W21656  11.356  40.370   4.619
53316W        W21657  36.401  16.242   1.314
53317W        W21658  25.571  22.073  13.899
53318W        W21659  15.298   1.880  13.934
53319W        W21660  43.886  34.474   1.421
53320W        W21661   5.889  21.588   4.828
53321W        W21662  14.702  33.059  14.866
53322W        W21663  43.901  13.740  11.991
53323W        W21664  10.841   2.239  10.489
53324W        W21665  27.069   2.348   4.612
53325W        W21666  20.072  44.440  10.555
53326W        W21667  13.257  18.245   1.729
53327W        W21668  42.423   3.340  10.490
53328W        W21669  39.993  31.981  14.457
53329W        W21670  23.004  24.502  14.406
53330W        W21671  33.556  28.029  11.597
53331W        W21672  20.692   3.854  10.549
53332W        W21673  18.220  12.783   4.284
53333W        W21674  26.202  35.098  12.499
53334W        W21675  36.077   8.757   2.766
53335W        W21676  36.940  38.555   1.439
53336W        W21677   0.446  13.624   1.879
53337W        W21678  31.099   2.292  14.461
53338W        W21679  23.612  29.026   2.896
53339W        W21680  30.587  40.053  12.528
53340W        W21681  25.468  18.585   0.933
53341W        W21682  40.329   4.722   1.327
53342W        W21683  33.035   4.768  12.910
53343W        W21684  44.831  27.550  11.380
53344W        W21685  40.898  13.625  13.371
53345W        W21686   4.414  17.621  10.529
53346W        W21687  14.689  31.600  11.047
53347W        W21688  14.306   2.429   3.254
53348W        W21689  38.009   0.973  10.547
53349W        W21690  35.104  37.997   4.778
53350W        W21691  31.575  19.749   2.390
53351W        W21692  16.190  28.440   3.751
53352W        W21693  16.198   7.292   0.778
53353W        W21694  15.605   1.848  11.390
53354W        W21695  12.668   6.360  14.987
53355W        W21696  38.511  22.032  11.897
53356W        W21697  32.023   4.807   4.598
53357W        W21698  32.482  35.427   2.382
53358W        W21699  18.153  33.123  12.404
53359W        W21700  10.248  35.009  13.852
53360W        W21701  42.407   9.330  10.558
53361W        W21702  35.563  26.206  13.315
53362W        W21703  22.544  21.722  14.402
53363W        W21704  32.967  28.055   4.598
53364W        W21705  33.124  20.204  10.994
53365W        W21706  26.068   6.327   4.306
53366W        W21707  24.093  43.789   0.818
53367W        W21708  10.313  31.517  10.028
53368W        W21709  39.015  12.314   0.815
53369W        W21710  30.435  36.365  12.947
53370W        W21711   1.781  31.483   1.796
53371W        W21712  44.301  33.093  12.547
53372W        W21713  21.181  20.651  12.027
53373W        W21714   5.696   2.384  12.890
53374W        W21715   2.286  24.690  12.084
53375W        W21716  21.734   6.283  11.873
53376W        W21717  22.077  32.542   3.239
53377W        W21718  21.147   5.222  12.010
53378W        W21719   7.779  18.552  11.097
53379W        W21720   4.938  33.968   1.799
53380W        W21721   0.343   8.186  13.435
53381W        W21722  37.437  31.966   3.175
53382W        W21723  27.609  15.767  14.972
53383W        W21724  31.009  29.499  14.027
53384W        W21725   7.904  36.052   3.246
53385W        W21726   6.410  28.025  12.085
53386W        W21727  16.637  28.987   3.357
53387W        W21728  24.687  38.829   3.213
53388W        W21729  23.612  13.297  14.896
53389W        W21730   2.784   6.767   2.715
53390W        W21731  19.136  18.230  12.025
53391W        W21732  43.939  30.999   0.265
53392W        W21733   7.356  23.152  13.480
53393W        W21734   9.872  22.213  14.308
53394W        W21735   9.680  16.270  12.068
53395W        W21736  41.794  24.070  14.445
53396W        W21737  10.280  42.372   0.816
53397W        W21738  31.129  30.039  11.596
53398W        W21739  18.743  42.282  12.550
53399W        W21740  23.528  24.228  13.972
53400W        W21741  30.592  25.143   3.150
53401W        W21742  28.482  27.463   0.775
53402W        W21743   0.936   7.217  14.471
53403W        W21744  42.491   4.246  12.870
53404W        W21745  39.839   7.797   2.187
53405W        W21746  35.464  20.663   4.682
53406W        W21747  40.446  11.656  13.320
53407W        W21748   8.846  12.849  11.401
53408W        W21749   1.423  43.373   3.632
53409W        W21750  25.532  28.644  10.993
53410W        W21751   2.287  12.775  14.358
53411W        W21752  40.381  26.481  10.068
53412W        W21753   4.773  39.459   3.844
53413W        W21754  17.791  42.380  13.887
53414W        W21755   9.243   6.852  11.126
53415W        W21756  22.121   0.336  11.118
53416W        W21757  39.522  33.946  13.809
53417W        W21758  10.688   2.844  14.852
53418W        W21759   6.183  14.164  13.492
53419W        W21760  23.067  11.675   1.385
53420W        W21761   7.292   6.766   1.265
53421W        W21762  28.070  36.869   4.811
53422W        W21763  25.033   5.727  13.972
53423W        W21764   6.403  21.248  10.024
53424W        W21765  43.866   5.389  11.879
53425W        W21766  25.556  33.607  10.445
53426W        W21767  40.408  33.994   0.762
53427W        W21768  31.979   1.399  14.339
53428W        W21769  31.949  16.578   1.781
53429W        W21770  14.294  24.097   1.360
53430W        W21771   8.299  36.483  12.869
53431W        W21772  12.686  35.995   3.309
53432W        W21773   2.895  22.564   0.423
53433W        W21774   7.788  17.246  10.912
53434W        W21775   1.764  42.429   2.794
53435W        W21776  11.837  10.159   1.419
53436W        W21777  41.887   5.709  10.147
53437W        W21778  23.685  40.878   2.346
53438W        W21779  14.165  41.482  12.394
53439W        W21780  31.465   1.470   1.752
53440W        W21781  41.900  30.603   2.256
53441W        W21782   7.379  27.586  14.333
53442W        W21783  44.883  35.475   4.832
53443W        W21784  30.133  27.678  13.941
53444W        W21785  17.574   5.869   0.405
53445W        W21786  13.199  27.996   3.808
53446W        W21787  28.074   8.247  14.348
53447W        W21788  42.001  27.951   0.385
53448W        W21789   3.750  26.120   3.692
53449W        W21790  40.318   0.260  14.791
53450W        W21791  20.072  24.122   3.288
53451W        W21792   2.461  27.120   3.740
53452W        W21793  25.198   1.353   2.247
53453W        W21794  14.320  37.405  12.029
53454W        W21795  40.815   3.797   4.669
53455W        W21796   3.885  22.216  10.915
53456W        W21797  27.074  18.692  13.795
53457W        W21798  22.250   3.380  11.864
53458W        W21799   2.357  21.205   2.762
53459W        W21800  42.502  23.722  14.512
53460W        W21801  17.579   7.255  11.390
53461W        W21802  31.490  37.582  11.865
53462W        W21803   7.720  40.964   0.481
53463W        W21804   0.474   0.985   3.667
53464W        W21805   9.264   2.755   0.469
53465W        W21806  10.748  27.053   3.778
53466W        W21807  41.317  33.501   4.192
53467W        W21808  22.563  40.933   4.734
53468W        W21809  35.024  13.834   2.883
53469W        W21810   7.826   1.901   5.316
53470W        W21811   2.412  34.569   2.684
53471W        W21812  32.467   5.931   1.359
53472W        W21813   7.358  42.864  10.608
53473W        W21814  17.303  21.635   2.858
53474W        W21815  36.914   7.819  11.397
53475W        W21816  43.375  10.203  10.531
53476W        W21817   5.242  17.767   3.268
53477W        W21818  29.968   3.899   2.744
53478W        W21819   1.916  12.271  12.518
53479W        W21820  32.042   5.910   0.423
53480W        W21821  31.975   5.920   2.887
53481W        W21822  40.410  28.023  11.446
53482W        W21823  26.590   1.454   2.731
53483W        W21824  24.110  11.263   1.832
53484W        W21825  23.528  41.935  11.447
53485W        W21826  12.188  17.190  12.964
53486W        W21827  22.621   6.783  11.562
53487W        W21828  11.752  41.007   4.183
53488W        W21829  25.699  12.156   3.719
53489W        W21830  43.777  19.664  14.368
53490W        W21831  44.777  28.435   1.370
53491W        W21832   4.809  22.648   3.236
53492W        W21833  17.163  10.690  11.427
53493W        W21834  25.687  12.210   3.352
53494W        W21835  25.083   6.717   3.166
53495W        W21836  20.107  32.483  13.991
53496W        W21837  20.628  13.616  12.465
53497W        W21838  34.568  35.515   1.260
53498W        W21839  43.361   2.353  13.911
53499W        W21840  38.374  18.122  12.498
53500W        W21841  25.127  21.217   3.232
53501W        W21842  33.523   2.726  14.848
53502W        W21843  40.892  30.428  14.863
53503W        W21844  40.513  22.153  11.863
53504W        W21845   4.234  38.847  11.990
53505W        W21846  15.725   2.741   0.327
53506W        W21847  17.773  35.058  10.112
53507W        W21848  28.463   6.691  10.601
53508W        W21849  12.170   9.323   4.698
53509W        W21850  25.103  21.051   1.290
53510W        W21851  27.030  33.390  13.874
53511W        W21852   5.725  38.439  13.872
53512W        W21853  30.448   2.723   2.259
53513W        W21854  36.055  13.738  11.409
53514W        W21855  41.858   0.798  11.497
53515W        W21856  19.082   1.451   0.446
53516W        W21857  19.049  12.306  12.506
53517W        W21858  11.261   8.742  14.506
53518W        W21859  15.200  18.556   4.741
53519W        W21860  24.084  31.433   4.769
53520W        W21861   1.351  24.584   4.348
53521W        W21862   1.399   3.884  10.457
53522W        W21863  40.033  35.552   2.400
53523W        W21864  27.450   3.789  12.494
53524W        W21865  36.452  34.085   4.256
53525W        W21866  35.911  43.970   0.729
53526W        W21867  41.036  27.674  14.984
53527W        W21868   0.799   1.332   0.344
53528W        W21869  13.829  11.841  12.888
53529W        W21870  10.185  37.895   2.862
53530W        W21871   2.272  40.948   2.373
53531W        W21872  38.405  18.712   3.329
53532W        W21873   4.366  35.005  13.502
53533W        W21874  22.124  40.402   3.356
53534W        W21875   5.291  10.379   0.928
53535W        W21876  34.596  10.632  10.405
53536W        W21877  22.634  41.890   2.211
53537W        W21878  29.945  40.508   4.300
53538W        W21879   9.806  22.007   4.350
53539W        W21880  23.059  42.853  14.275
53540W        W21881  19.180   0.387  13.840
53541W        W21882  10.363  29.129  12.024
53542W        W21883  27.525  21.536  11.546
53543W        W21884  27.677  31.015  14.288
53544W        W21885  40.394  31.952   4.662
53545W        W21886  36.437   8.793   3.269
53546W        W21887  12.788   9.707  12.468
53547W        W21888  25.501  34.011   4.838
53548W        W21889  36.585  28.084   0.823
53549W        W21890  39.019  15.735  11.069
53550W        W21891   9.847  38.846   4.167
53551W        W21892   1.977  18.171   0.742
53552W        W21893  40.855  17.733   0.262
53553W        W21894  40.017  21.246   2.334
53554W        W21895  29.445  15.716  14.026
53555W        W21896  18.619  26.047  10.643
53556W        W21897  30.147  25.148   4.344
53557W        W21898   7.843  38.420  11.884
53558W        W21899  16.579  18.236  10.596
53559W        W21900   9.669  39.853  12.456
53560W        W21901  14.649  42.358   2.887
53561W        W21902  25.999  33.388   2.207
53562W        W21903   6.817  30.006   1.210
53563W        W21904  15.120   3.321  13.540
53564W        W21905  38.568  38.356  12.390
53565W        W21906  39.929  14.260   0.301
53566W        W21907  10.202   9.246  11.045
53567W        W21908   8.710  27.547  11.554
53568W        W21909  24.582  44.893  12.087
53569W        W21910  39.330  28.115  10.001
53570W        W21911  31.078   9.329   1.900
53571W        W21912  25.161  33.053   0.729
53572W        W21913  29.023  16.647   2.340
53573W        W21914   5.723  12.665   2.313
53574W        W21915   6.787  14.335  13.062
53575W        W21916  36.413  43.473  13.959
53576W        W21917  30.527  44.864   4.713
53577W        W21918  40.935   0.761   3.385
53578W        W21919   8.348  43.780  10.605
53579W        W21920  32.914  33.022  13.367
53580W        W21921   0.829  18.212   4.206
53581W        W21922  21.120  38.377   3.693
53582W        W21923  11.154  16.260   4.131
53583W        W21924  18.569   1.954  10.925
53584W        W21925  17.720  25.566   0.305
53585W        W21926   3.826  29.552  12.999
53586W        W21927  28.990  42.313   4.289
53587W        W21928  38.438  36.870  13.838
53588W        W21929  12.208   1.932   1.810
53589W        W21930   0.832   5.739  10.479
53590W        W21931  29.111  15.119   1.925
53591W        W21932  19.117  16.568   2.386
53592W        W21933  31.563   5.428  14.296
53593W        W21934  24.598  28.025   2.677
53594W        W21935  22.720  14.229  10.543
53595W        W21936  30.961  29.448   2.864
53596W        W21937  36.924  35.912   4.296
53597W        W21938   0.944  25.607  10.556
53598W        W21939  39.897  30.088   3.699
53599W        W21940   8.288  42.911  13.421
53600W        W21941   4.331  30.044  11.507
53601W        W21942   7.735  24.167  10.527
53602W        W21943   9.839  12.164  10.903
53603W        W21944  27.589  23.034  11.380
53604W        W21945  23.656  10.690   1.703
53605W        W21946  33.920  17.308  11.586
53606W        W21947  18.113  25.487  12.910
53607W        W21948  20.143  41.393   1.906
53608W        W21949  21.657  20.094  11.963
53609W        W21950   1.858  35.930   0.817
53610W        W21951  21.100  24.642   1.294
53611W        W21952  34.930  10.164  13.044
53612W        W21953  24.225   6.820   0.894
53613W        W21954   2.785  18.546  11.382
53614W        W21955  29.057  40.044   3.324
53615W        W21956  19.143  13.149  12.392
53616W        W21957   9.732  40.828  12.354
53617W        W21958   0.803   7.343  10.426
53618W        W21959  40.470  28.006   2.278
53619W        W21960  15.747  19.076  14.847
53620W        W21961  35.907   4.821  14.952
53621W        W21962  12.617  17.674   3.176
53622W        W21963  22.064  33.122  11.436
53623W        W21964  28.166  32.005   0.416
53624W        W21965   2.919  13.647   1.827
53625W        W21966  21.242   0.852  10.550
53626W        W21967  19.164  34.428   1.710
53627W        W21968  44.861  39.351  13.365
53628W        W21969  25.208  41.518  11.994
53629W        W21970  10.287  18.645   3.725
53630W        W21971  21.595  28.934   3.689
53631W        W21972  40.367   4.790   1.760
53632W        W21973  11.183   6.218   1.267
53633W        W21974  41.946   8.811   0.740
53634W        W21975   0.875  40.832  12.092
53635W        W21976  40.398  35.932  14.025
53636W        W21977  23.182  37.058  11.570
53637W        W21978  21.144  14.754   2.280
53638W        W21979  32.529   7.773   4.138
53639W        W21980  10.201  16.588  11.606
53640W        W21981   1.899   1.444   2.740
53641W        W21982  42.285  24.605  13.846
53642W        W21983   2.961  38.498  13.940
53643W        W21984   1.901   9.320   0.910
53644W        W21985  32.433  11.352   3.691
53645W        W21986  40.507  23.059  14.500
53646W        W21987   9.709  43.964  14.837
53647W        W21988  40.389  37.014   3.165
53648W        W21989  21.215  17.576   3.239
53649W        W21990   3.728  32.107  11.408
53650W        W21991  21.039   0.485   0.483
53651W        W21992   9.713  30.434  13.524
53652W        W21993   2.962  40.457  14.850
53653W        W21994  43.792  18.738  10.540
53654W        W21995  10.683  13.271   1.759
53655W        W21996  20.228  16.646  13.331
53656W        W21997  14.275   3.243  10.888
53657W        W21998  30.424   8.353  11.397
53658W        W21999   9.233  30.129  13.809
53659W        W22000   8.253  23.518  11.535
53660W        W22001  15.218   7.715   4.647
53661W        W22002   0.342  30.141   1.425
53662W        W22003  42.798  25.072  11.103
53663W        W22004   5.369  14.275   2.265
53664W        W22005  39.983  28.475   1.885
53665W        W22006   4.710   4.908   0.434
53666W        W22007  21.114  44.435  12.359
53667W        W22008  38.962  40.930  12.880
53668W        W22009   8.402  20.048   3.232
53669W        W22010  15.116  25.102  10.944
53670W        W22011   5.703  10.178   2.818
53671W        W22012  40.839  28.123  14.909
53672W        W22013   3.868  31.528  12.457
53673W        W22014  26.679  16.313  12.054
53674W        W22015  20.583   4.758   4.720
53675W        W22016  44.780   9.826  12.494
53676W        W22017  22.736  41.397   4.650
53677W        W22018  31.627  44.849  10.979
53678W        W22019   2.878  27.491  12.895
53679W        W22020   7.708  11.329  12.438
53680W        W22021   9.263   6.397  11.120
53681W        W22022  18.067  23.593  13.982
53682W        W22023  26.613   1.754   5.132
53683W        W22024   0.760  11.338  10.923
53684W        W22025   2.344  39.554   2.662
53685W        W22026  25.559  36.015  12.432
53686W        W22027  21.169  44.867  11.913
53687W        W22028   0.393  14.727  11.904
53688W        W22029   8.352  38.903  13.866
53689W        W22030  13.697  33.463   0.257
53690W        W22031  34.940  40.018  10.574
53691W        W22032  20.556  14.649  14.395
53692W        W22033  14.832  35.518  11.948
53693W        W22034   2.349  38.452   0.863
53694W        W22035  27.099  11.213   2.342
53695W        W22036  24.482  14.674  13.512
53696W        W22037  29.110  11.127  10.426
53697W        W22038   1.397  30.039  14.791
53698W        W22039  11.807   5.932  12.859
53699W        W22040  19.083   1.901  12.086
53700W        W22041  34.121  37.029  14.923
53701W        W22042  44.790  32.033   0.480
53702W        W22043  11.255  15.238   0.959
53703W        W22044   7.291  35.078  11.053
53704W        W22045  27.057  34.886  14.442
53705W        W22046  20.050  28.178   1.907
53706W        W22047  12.316   2.963  13.888
53707W        W22048  40.494  30.477   0.385
53708W        W22049  33.570  30.133   3.278
53709W        W22050  25.177   3.325  12.987
53710W        W22051  19.133  12.164   4.828
53711W        W22052  33.396  42.371   9.568
53712W        W22053  29.669  34.046   0.464
53713W        W22054  39.343   6.743   2.682
53714W        W22055  32.890  15.768  10.514
53715W        W22056  37.452  19.570   3.288
53716W        W22057   0.348   0.419  14.822
53717W        W22058   1.887  15.139  14.399
53718W        W22059  29.626  44.879  13.807
53719W        W22060  39.364  11.180   0.735
53720W        W22061  21.584  23.620  13.533
53721W        W22062  25.522  13.704   4.601
53722W        W22063  20.033  26.988  13.513
53723W        W22064   1.402  16.642  13.502
53724W        W22065   8.403  27.525  12.508
53725W        W22066   0.809  43.845  13.796
53726W        W22067  18.733  21.748   5.682
53727W        W22068  20.533  22.056  11.483
53728W        W22069  12.702  40.471   9.945
53729W        W22070  43.831  25.664   2.417
53730W        W22071  41.944  24.099  13.500
53731W        W22072  23.534  40.901   0.291
53732W        W22073   0.975  24.484   2.782
53733W        W22074   5.795  41.338   4.221
53734W        W22075  11.364  19.083   1.795
53735W        W22076  21.260   2.396  13.810
53736W        W22077  39.843  28.464  10.436
53737W        W22078   6.394  35.538   3.679
53738W        W22079  27.567  19.720  11.944
53739W        W22080   5.275  35.914   3.689
53740W        W22081  23.617  43.373   2.699
53741W        W22082   0.866   8.258  10.484
53742W        W22083  41.908   5.922   1.873
53743W        W22084  15.689  27.462  11.417
53744W        W22085   1.441  31.096   0.320
53745W        W22086  40.502  35.569   1.854
53746W        W22087  41.918  42.340   0.928
53747W        W22088  36.443  41.394  12.391
53748W        W22089  29.144  31.639  11.979
53749W        W22090  38.063  41.363  13.309
53750W        W22091  30.056  11.747  12.989
53751W        W22092   3.789   3.903   4.158
53752W        W22093  34.372  36.027   2.206
53753W        W22094  34.482  42.840   2.316
53754W        W22095  17.775  23.213   5.181
53755W        W22096  22.218  35.361   4.213
53756W        W22097  12.275  36.841   2.186
53757W        W22098   8.311  37.566   5.237
53758W        W22099  37.844   4.263  10.620
53759W        W22100  14.644  21.705   2.761
53760W        W22101   0.985   2.460   1.323
53761W        W22102  21.557  23.559  14.334
53762W        W22103  22.659  26.160  12.419
53763W        W22104  21.212  41.343  12.907
53764W        W22105  20.114  10.271   0.273
53765W        W22106  22.522  14.322   0.355
53766W        W22107   9.341  39.429  12.868
53767W        W22108  43.843   1.354  10.408
53768W        W22109  42.842  12.724  13.973
53769W        W22110  17.785  33.460  10.579
53770W        W22111  11.345   6.819  12.408
53771W        W22112   0.254  43.013   1.868
53772W        W22113  27.553  38.493  13.912
53773W        W22114  39.397   2.399   1.269
53774W        W22115  27.474  15.236   4.240
53775W        W22116  42.917   8.313   1.837
53776W        W22117  20.710  36.997  11.962
53777W        W22118  34.024  25.211   1.884
53778W        W22119  37.378  15.599   4.794
53779W        W22120  34.085   4.360   4.685
53780W        W22121  23.217  26.595   0.843
53781W        W22122  17.204  20.732  12.905
53782W        W22123  42.435   0.364  14.028
53783W        W22124  20.086  36.080  11.372
53784W        W22125  38.371  31.582  14.949
53785W        W22126   5.274  38.346  13.867
53786W        W22127  37.459  41.510  12.927
53787W        W22128  15.775  15.615   2.183
53788W        W22129  16.159  23.708  13.462
53789W        W22130  37.077  23.619   3.649
53790W        W22131  32.891   2.330  14.515
53791W        W22132   3.899  19.156   5.701
53792W        W22133  10.638  19.697   0.395
53793W        W22134  34.585  26.565  10.071
53794W        W22135  13.225  14.219   0.756
53795W        W22136  25.590  19.772  10.996
53796W        W22137  36.576  21.663  13.514
53797W        W22138  12.782  38.495   1.319
53798W        W22139  31.037   7.910  14.891
53799W        W22140  19.074  10.693  13.524
53800W        W22141  26.611   7.257  13.448
53801W        W22142  39.481   4.929  12.017
53802W        W22143  27.636   2.867   4.148
53803W        W22144  10.338  18.159   5.099
53804W        W22145  11.227  24.554   3.159
53805W        W22146  14.200  30.947   2.667
53806W        W22147  31.524  42.281  14.005
53807W        W22148  15.168  31.118   1.721
53808W        W22149  18.221  41.406   4.190
53809W        W22150  36.479  23.199   2.857
53810W        W22151  35.051  26.591   1.236
53811W        W22152  16.710  32.121   1.267
53812W        W22153  18.689  22.671   5.118
53813W        W22154   8.881  37.841  14.901
53814W        W22155  37.375  29.003  12.865
53815W        W22156  28.524  19.573  13.960
53816W        W22157  18.712  36.440  11.532
53817W        W22158  34.926  11.251   3.634
53818W        W22159   3.817  40.055  12.096
53819W        W22160  18.212  42.896  11.858
53820W        W22161  11.351  14.681  14.954
53821W        W22162  38.068  17.228   2.356
53822W        W22163  13.702  20.181   3.364
53823W        W22164  17.670  22.125  14.908
53824W        W22165   3.402  28.680   4.740
53825W        W22166  22.709  31.906   4.658
53826W        W22167  18.772  20.767   1.830
53827W        W22168   4.736  33.383   1.428
53828W        W22169  20.691  35.492   4.693
53829W        W22170  29.053  36.392   3.153
53830W        W22171  15.709  19.097  13.436
53831W        W22172  31.075  31.413   4.280
53832W        W22173  40.449  39.824   0.930
53833W        W22174  35.053   0.900  12.087
53834W        W22175  17.748  24.193  13.940
53835W        W22176  24.674  30.007  13.332
53836W        W22177   3.249  19.751  12.058
53837W        W22178  16.267  40.837  12.495
53838W        W22179  16.569   1.769   0.306
53839W        W22180  36.082  40.303   2.237
53840W        W22181  38.518  23.226  12.480
53841W        W22182  14.641  37.561   3.715
53842W        W22183  29.452  24.119  13.006
53843W        W22184  33.438   0.815  12.060
53844W        W22185   0.801  20.174   1.348
53845W        W22186  33.383  17.201  11.453
53846W        W22187  40.041  37.492   3.864
53847W        W22188  17.632  13.694   3.241
53848W        W22189  42.942  30.598   0.790
53849W        W22190  10.266   0.843   1.703
53850W        W22191  35.437  11.687   1.784
53851W        W22192  22.535  24.706  14.889
53852W        W22193  44.293  30.148  11.860
53853W        W22194  25.069  29.557   5.664
53854W        W22195   4.383  19.280  13.309
53855W        W22196   1.772  19.697   1.705
53856W        W22197  16.212   2.853   3.794
53857W        W22198  35.585  41.979   4.308
53858W        W22199  29.999  21.249   2.802
53859W        W22200  29.142  23.615  11.405
53860W        W22201  37.342   6.242   0.343
53861W        W22202  16.185  29.013  12.914
53862W        W22203  14.776  38.343  14.290
53863W        W22204  39.366  32.571   0.358
53864W        W22205  10.800   6.707   3.836
53865W        W22206   1.902  18.611  14.839
53866W        W22207  24.190  18.264  12.556
53867W        W22208  30.437  34.026  12.940
53868W        W22209  41.896  36.479   0.741
53869W        W22210  31.004  16.115   1.854
53870W        W22211  42.865  40.028   1.309
53871W        W22212   7.241   8.160   0.456
53872W        W22213  37.503  15.143  11.071
53873W        W22214  10.735   0.757  14.880
53874W        W22215  40.856   5.253  13.887
53875W        W22216  32.506  33.913   4.187
53876W        W22217  22.197   1.769  12.576
53877W        W22218  35.891  13.258   0.419
53878W        W22219  42.288   3.268  11.427
53879W        W22220  27.594  20.253   0.273
53880W        W22221  37.546   3.242   2.322
53881W        W22222  23.508  35.474  11.051
53882W        W22223  32.101  22.176   2.669
53883W        W22224  39.368  43.330  13.529
53884W        W22225  30.027  16.657  10.503
53885W        W22226  13.809  28.061  11.377
53886W        W22227  20.046  28.559   2.303
53887W        W22228  34.974  14.674   3.267
53888W        W22229  27.988  34.874   0.410
53889W        W22230  40.990  37.503   3.373
53890W        W22231   8.897  20.604   1.700
53891W        W22232  29.437  38.834   2.387
53892W        W22233   9.244   6.404   4.622
53893W        W22234  36.457  33.995  12.933
53894W        W22235  11.814   2.895   4.178
53895W        W22236  29.615  41.439  10.485
53896W        W22237  36.394  28.524  11.444
53897W        W22238  15.586  14.693  13.541
53898W        W22239  40.936  29.592   4.154
53899W        W22240  20.106  31.523  13.981
53900W        W22241   5.408   9.780  10.537
53901W        W22242  12.285  41.973  13.331
53902W        W22243  36.086   6.902   2.848
53903W        W22244   6.898  17.701   3.277
53904W        W22245  40.399   3.310  13.814
53905W        W22246  32.452  34.418  13.890
53906W        W22247  37.940  29.583  12.874
53907W        W22248  28.107  44.868  10.901
53908W        W22249  24.186  44.320   4.204
53909W        W22250  21.159   3.823  11.986
53910W        W22251  24.010  36.849   0.243
53911W        W22252  16.128  36.874   0.754
53912W        W22253   6.193  41.824  12.898
53913W        W22254  22.521  31.576  14.985
53914W        W22255  38.880  41.862   1.893
53915W        W22256  44.339   3.229  11.968
53916W        W22257   3.855   4.807   4.238
53917W        W22258  16.252  29.935   0.960
53918W        W22259   4.355  27.061   2.890
53919W        W22260  13.333   2.264   4.199
53920W        W22261  25.514  23.133   0.795
53921W        W22262  15.107  30.981   2.685
53922W        W22263   5.271  13.716  12.043
53923W        W22264  18.180  14.740   0.883
53924W        W22265  43.936  30.132   1.870
53925W        W22266   7.413  15.314   2.187
53926W        W22267  28.018  16.723  11.371
53927W        W22268  32.913  32.141   2.336
53928W        W22269  41.476  23.618   1.732
53929W        W22270  16.147   6.796   3.235
53930W        W22271  15.581  40.398   3.686
53931W        W22272  41.944  30.501   3.658
53932W        W22273  20.257  44.923  13.524
53933W        W22274  34.108  20.754   1.725
53934W        W22275  30.934  20.119  10.981
53935W        W22276  44.946  18.677  14.952
53936W        W22277  21.523  37.404   4.328
53937W        W22278  15.707  31.468  14.900
53938W        W22279  12.791  25.219   2.179
53939W        W22280   0.256  26.029   2.815
53940W        W22281  22.540  20.654   3.721
53941W        W22282  37.367  42.839   0.865
53942W        W22283  19.173  39.817  10.470
53943W        W22284  44.317  35.005  12.448
53944W        W22285  25.640  13.719  13.316
53945W        W22286  27.461   2.778  14.361
53946W        W22287  32.035  11.185   3.285
53947W        W22288  28.993   3.398   0.444
53948W        W22289  21.110  18.734  13.343
53949W        W22290  38.929   6.278  12.344
53950W        W22291  21.241  17.096  13.893
53951W        W22292  21.079  26.085   1.448
53952W        W22293  40.492  29.603   0.289
53953W        W22294   6.758   2.953   2.787
53954W        W22295  17.707  37.992  13.917
53955W        W22296  42.969  43.799   4.245
53956W        W22297  27.022  37.066  13.534
53957W        W22298  42.413  21.153  14.379
53958W        W22299  28.677   3.385   0.849
53959W        W22300  43.883  20.567  10.132
53960W        W22301   9.865   5.707   4.801
53961W        W22302  16.806  29.644  14.842
53962W        W22303  18.767  17.208  10.978
53963W        W22304  36.432   3.461  10.001
53964W        W22305  22.231   7.268  12.907
53965W        W22306  29.028   4.431   1.234
53966W        W22307  38.923  10.141  11.887
53967W        W22308   5.351  30.989  12.432
53968W        W22309  22.019  15.094  12.953
53969W        W22310  20.263   5.279  14.009
53970W        W22311   8.757  24.676   0.806
53971W        W22312  41.808  44.865  10.602
53972W        W22313  26.137   2.443  11.517
53973W        W22314  44.790  25.992  11.859
53974W        W22315   7.875   4.785   4.607
53975W        W22316   0.474  12.269   1.349
53976W        W22317  24.585  39.513   0.867
53977W        W22318  20.744  39.832  14.841
53978W        W22319  10.817  32.598  12.005
53979W        W22320  33.076  36.062   1.752
53980W        W22321  17.619  23.172   3.329
53981W        W22322  11.658  31.403  12.037
53982W        W22323  40.893  44.278  11.999
53983W        W22324  10.319  18.147  11.101
53984W        W22325  43.324  35.920   0.914
53985W        W22326  13.188  41.795  11.905
53986W        W22327  12.760   0.459  11.502
53987W        W22328  33.973  28.131   2.815
53988W        W22329  26.204  18.270   0.471
53989W        W22330  13.318  19.542  12.537
53990W        W22331  29.977  31.008   1.771
53991W        W22332  40.006  22.151  14.379
53992W        W22333  16.693  19.534  13.447
53993W        W22334   0.332  11.250   1.412
53994W        W22335  40.022  14.699   4.624
53995W        W22336   2.420  13.340  12.529
53996W        W22337  23.682  15.220   0.312
53997W        W22338  11.653   6.350   4.721
53998W        W22339  33.549  34.544  14.376
53999W        W22340  20.220  36.030  14.404
54000W        W22341   9.233  15.217  11.128
54001W        W22342   1.774  17.091  14.307
54002W        W22343  29.094  44.916  14.394
54003W        W22344  34.921  27.592  13.028
54004W        W22345  19.681  37.422   1.806
54005W        W22346   5.916  40.030  13.012
54006W        W22347  19.619  35.368  14.431
54007W        W22348   8.238  22.670  12.068
54008W        W22349  20.037   5.227   0.816
54009W        W22350  18.784   0.907  11.880
54010W        W22351  16.766  28.527  13.434
54011W        W22352  15.285  33.943  10.108
54012W        W22353  32.069  21.690   4.712
54013W        W22354  27.095  15.660  14.478
54014W        W22355  17.216   0.766   3.164
54015W        W22356  20.105  20.702   0.314
54016W        W22357  35.031   6.734   3.231
54017W        W22358  43.507   3.297   4.263
54018W        W22359  14.109  32.620   4.350
54019W        W22360  28.463   0.744  12.933
54020W        W22361  13.328  26.595  13.328
54021W        W22362  23.565  21.125   1.825
54022W        W22363  44.998  42.821   3.670
54023W        W22364   1.808   4.302  11.941
54024W        W22365   2.441  14.334   3.833
54025W        W22366  41.492   3.422  13.410
54026W        W22367   2.299  10.274  12.371
54027W        W22368  41.336  30.994  10.953
54028W        W22369  16.580  19.773   0.945
54029W        W22370  22.053  43.939   1.245
54030W        W22371   3.937  13.285  14.324
54031W        W22372  26.535  33.122  12.563
54032W        W22373  12.283  21.145  11.598
54033W        W22374  31.538   3.234   1.446
54034W        W22375  40.322  25.664   0.754
54035W        W22376  26.120   8.729  12.023
54036W        W22377  20.603   4.738  10.432
54037W        W22378  28.663  26.055  12.518
54038W        W22379   0.371  17.660   1.368
54039W        W22380  42.290  16.607   3.780
54040W        W22381  37.378  29.569   2.843
54041W        W22382  39.899  10.748  11.379
54042W        W22383  18.564  16.130  14.426
54043W        W22384  27.136  43.324   3.719
54044W        W22385  26.688   1.866   4.665
54045W        W22386  15.107  44.779   0.472
54046W        W22387  32.608   9.759   4.141
54047W        W22388  43.868   8.852  11.534
54048W        W22389  18.296  35.011   3.184
54049W        W22390   0.439   2.371  11.492
54050W        W22391  32.514  25.073   4.184
54051W        W22392  25.176  20.082   0.942
54052W        W22393  23.549  12.285  12.926
54053W        W22394  12.821  23.069   2.866
54054W        W22395  30.944  21.047  14.904
54055W        W22396  40.463  40.032   9.486
54056W        W22397  25.200   6.331  10.412
54057W        W22398  23.630  13.642  11.514
54058W        W22399  38.353  25.630   0.835
54059W        W22400  32.915  34.573   1.290
54060W        W22401  22.186  27.989   0.794
54061W        W22402   4.245   6.204  13.489
54062W        W22403  26.183  29.159  11.880
54063W        W22404  39.455  41.486   4.752
54064W        W22405   7.174  35.056  13.896
54065W        W22406  26.581  15.711   5.258
54066W        W22407  16.759  33.912   2.286
54067W        W22408  37.361  13.122   2.405
54068W        W22409  10.321  29.479  14.275
54069W        W22410  37.462  20.082   2.816
54070W        W22411   5.893  40.484  12.897
54071W        W22412   1.341  43.802  13.407
54072W        W22413   3.840  16.092  13.847
54073W        W22414  43.503  39.893   1.409
54074W        W22415   4.393   6.845   1.697
54075W        W22416  15.676   3.441   4.329
54076W        W22417  39.485   8.249  12.416
54077W        W22418  13.310  44.846  10.414
54078W        W22419   7.720  42.775   3.172
54079W        W22420   9.322  25.701   3.737
54080W        W22421   9.335  39.488   1.792
54081W        W22422   6.697  36.966   0.311
54082W        W22423  34.441  16.209   2.222
54083W        W22424  40.416  39.381   3.789
54084W        W22425  32.525  27.115  12.878
54085W        W22426  28.107  29.141  14.906
54086W        W22427   5.759  12.250  11.589
54087W        W22428  25.156  18.094   3.148
54088W        W22429  42.461  44.963  12.483
54089W        W22430  20.070  21.670   3.275
54090W        W22431  37.007  27.973  13.887
54091W        W22432  38.479  21.582   4.140
54092W        W22433   5.310  17.641  14.015
54093W        W22434  12.660  40.951   2.782
54094W        W22435  17.744   4.395   1.278
54095W        W22436  37.079  26.564   2.302
54096W        W22437  24.687   2.896   2.884
54097W        W22438  19.160  34.072   1.899
54098W        W22439   7.412  43.322  10.931
54099W        W22440  32.925   3.900   2.190
54100W        W22441   5.804  31.056   0.326
54101W        W22442  24.982  34.579   2.679
54102W        W22443   3.925  12.834   2.380
54103W        W22444  17.125   8.752  11.458
54104W        W22445  26.565  16.184   2.731
54105W        W22446  23.685  28.505   0.847
54106W        W22447  41.862  29.069   1.760
54107W        W22448  11.692  24.044  13.496
54108W        W22449  32.090   2.809  14.929
54109W        W22450   0.928  13.774  14.837
54110W        W22451  29.564  14.133  14.928
54111W        W22452  34.920   9.372  14.506
54112W        W22453  17.081  25.034  13.338
54113W        W22454   8.834   5.293   1.815
54114W        W22455   6.724  17.613   4.240
54115W        W22456  30.516   7.899   4.623
54116W        W22457  25.477  21.050  12.550
54117W        W22458   7.751   1.873   3.721
54118W        W22459   4.246  35.091  10.515
54119W        W22460  44.782  34.606   4.198
54120W        W22461  44.401  39.397   0.820
54121W        W22462  22.509  29.538   0.759
54122W        W22463  12.214   7.872   2.751
54123W        W22464   1.265  38.939  12.011
54124W        W22465  10.328  34.556  12.977
54125W        W22466   5.849  30.960   4.711
54126W        W22467  37.566   3.319  13.934
54127W        W22468  33.540  30.414   2.795
54128W        W22469  11.182  35.486   4.178
54129W        W22470   3.775  29.600  11.532
54130W        W22471  39.955  18.768  14.841
54131W        W22472  17.647  17.651  11.399
54132W        W22473   3.864  40.909  10.927
54133W        W22474  11.164  39.460   9.491
54134W        W22475  19.141  19.722  14.461
54135W        W22476  32.606  13.633   0.730
54136W        W22477  24.537  28.099  14.376
54137W        W22478   1.790  33.900   1.298
54138W        W22479   6.683  26.536   1.731
54139W        W22480   9.330  20.655  12.902
54140W        W22481  15.280   9.779  14.951
54141W        W22482  30.163  14.266   0.860
54142W        W22483  39.889   0.464   4.242
54143W        W22484   8.668  25.690   4.219
54144W        W22485   1.434   4.234  10.584
54145W        W22486  37.537  14.118  11.392
54146W        W22487  11.717   6.325  12.548
54147W        W22488  11.228  33.127  12.569
54148W        W22489  10.381  38.850  11.524
54149W        W22490  29.092  42.022  13.522
54150W        W22491  38.498  18.638   1.895
54151W        W22492  28.169  38.401  11.999
54152W        W22493  13.136   2.469   0.965
54153W        W22494  32.576   0.345  12.868
54154W        W22495  29.104  12.235   1.342
54155W        W22496  25.096  22.500   2.829
54156W        W22497   3.253   2.339   0.948
54157W        W22498  37.527   9.877  11.415
54158W        W22499  19.259  14.646   3.632
54159W        W22500  27.139  19.259  10.582
54160W        W22501   8.325   6.333  13.855
54161W        W22502   3.335  19.182   2.355
54162W        W22503  29.550  21.150   0.884
54163W        W22504  21.680  11.689   4.140
54164W        W22505  36.398  15.304  13.343
54165W        W22506  32.039   0.951  10.511
54166W        W22507  43.921  40.832   2.310
54167W        W22508   4.395   4.220  11.555
54168W        W22509  25.643  24.680   0.839
54169W        W22510  20.171  11.694  10.420
54170W        W22511  19.673  38.977   1.376
54171W        W22512  19.198  39.841  11.562
54172W        W22513  26.194   2.890   0.865
54173W        W22514   9.379  12.624  10.026
54174W        W22515   6.373  10.738   3.283
54175W        W22516  31.094  44.782  13.345
54176W        W22517  41.440  18.201   1.331
54177W        W22518  11.311  23.125  14.447
54178W        W22519  10.870  24.115   0.768
54179W        W22520   1.381  16.650  11.382
54180W        W22521  44.855  10.822   0.895
54181W        W22522  42.025   7.829  14.405
54182W        W22523  32.892  23.095  11.042
54183W        W22524   1.385   8.743  12.413
54184W        W22525  38.411  28.066   0.376
54185W        W22526  40.377  34.008  13.813
54186W        W22527  35.381  25.131  12.494
54187W        W22528  19.116   9.337  13.835
54188W        W22529  40.303   7.726   3.246
54189W        W22530  39.047  13.765  13.438
54190W        W22531  11.734  37.984  10.554
54191W        W22532  40.000  42.908  13.980
54192W        W22533  16.083  28.178   2.378
54193W        W22534  22.079  38.032   0.282
54194W        W22535  32.966  33.493  14.796
54195W        W22536  38.509  36.927  13.058
54196W        W22537  34.066  36.364   3.864
54197W        W22538   5.307  28.451   0.939
54198W        W22539   5.196  10.199  13.533
54199W        W22540  38.399  28.500   3.378
54200W        W22541  41.998   3.218  11.987
54201W        W22542  36.465  34.976   0.289
54202W        W22543  15.178  44.450  11.541
54203W        W22544  20.269   2.759   3.153
54204W        W22545   6.348   3.778   1.837
54205W        W22546  30.982  20.595   4.333
54206W        W22547  12.709  15.236   3.803
54207W        W22548   7.309  28.992   2.235
54208W        W22549   3.880  29.981  12.427
54209W        W22550  26.143  36.955   3.236
54210W        W22551  17.688  21.241   4.745
54211W        W22552   8.859  37.880   1.929
54212W        W22553   5.696   3.329  10.022
54213W        W22554  35.409  35.446  11.013
54214W        W22555   9.175  40.030  10.633
54215W        W22556   2.889  16.157  10.917
54216W        W22557  42.788  31.934   2.815
54217W        W22558  16.073  15.745   0.422
54218W        W22559   9.715  28.980   1.810
54219W        W22560   6.351  42.982   0.839
54220W        W22561  39.357   1.480  11.024
54221W        W22562  11.251  40.845  14.932
54222W        W22563  18.110  28.645   2.305
54223W        W22564  38.047   3.342   1.272
54224W        W22565   9.308   4.939   0.449
54225W        W22566  29.453  26.159  11.041
54226W        W22567  37.876  12.611  13.054
54227W        W22568   5.378  16.116   0.949
54228W        W22569  11.266   4.325  14.466
54229W        W22570  28.045   7.310   3.663
54230W        W22571  10.694   9.753   9.474
54231W        W22572   2.756  36.979   3.204
54232W        W22573  26.597   5.872  12.440
54233W        W22574  23.583  30.441  11.880
54234W        W22575  26.480  38.390   4.663
54235W        W22576  26.961  15.129  13.935
54236W        W22577  30.457  23.580   4.294
54237W        W22578  44.379  23.699   3.357
54238W        W22579  15.159   4.720   2.830
54239W        W22580  42.448  34.919  14.781
54240W        W22581  24.537  23.092  12.465
54241W        W22582   9.223  11.371  12.554
54242W        W22583  13.822  37.577  10.494
54243W        W22584   6.421  13.646   3.810
54244W        W22585  31.537  40.016   4.822
54245W        W22586  41.853  10.674  10.607
54246W        W22587  36.508  34.027   1.891
54247W        W22588  18.285  25.128  12.499
54248W        W22589  44.983  25.148   5.257
54249W        W22590  43.273  36.558   4.697
54250W        W22591  27.135  18.246   3.319
54251W        W22592   8.875  34.974  10.443
54252W        W22593  10.373   6.738  10.502
54253W        W22594  10.698  12.124   3.228
54254W        W22595   7.775  13.147  11.505
54255W        W22596  39.532  25.008  12.045
54256W        W22597  14.831  20.539  11.572
54257W        W22598  12.759  43.977  12.970
54258W        W22599  15.592  30.056  10.470
54259W        W22600   3.723  28.939   2.369
54260W        W22601  23.529  24.536  11.862
54261W        W22602  33.467  27.616  13.832
54262W        W22603  29.555   7.881   4.310
54263W        W22604  34.099  26.541   4.148
54264W        W22605  32.469  42.522  10.009
54265W        W22606  39.394  12.343  13.464
54266W        W22607  40.323  33.596   4.767
54267W        W22608  29.438  34.976  12.989
54268W        W22609   3.227  39.508   2.835
54269W        W22610  20.563  38.977   1.451
54270W        W22611   4.704  10.852  14.490
54271W        W22612  44.488   9.673  10.605
54272W        W22613  44.477  11.364  10.635
54273W        W22614  36.019  39.464  14.964
54274W        W22615  43.377  30.471  14.007
54275W        W22616  36.585  35.898  13.488
54276W        W22617  33.423   5.257  13.437
54277W        W22618  16.687   2.950  10.558
54278W        W22619  23.657  40.990   1.368
54279W        W22620   3.423   8.816  13.442
54280W        W22621  27.587  24.677  11.488
54281W        W22622  30.977  16.153   0.407
54282W        W22623   8.712  20.733  13.956
54283W        W22624  18.175  24.569  14.910
54284W        W22625   0.790  39.349   3.738
54285W        W22626  15.672  22.116  11.003
54286W        W22627  29.918  27.978   4.246
54287W        W22628  27.631  19.594   2.739
54288W        W22629  24.095  21.534   3.826
54289W        W22630  10.878  12.190  13.522
54290W        W22631  38.434  24.020   1.733
54291W        W22632  15.588   3.847  11.093
54292W        W22633  19.265  10.248   0.270
54293W        W22634  26.678   0.331   2.322
54294W        W22635  12.853  19.772  12.846
54295W        W22636  21.752   7.318   1.744
54296W        W22637   2.417  14.197   1.737
54297W        W22638   2.814  16.607  13.306
54298W        W22639   7.316  13.653  13.390
54299W        W22640  24.172  38.908  13.809
54300W        W22641  33.500   6.735  14.949
54301W        W22642  44.861   5.765  13.853
54302W        W22643  42.030  15.653  14.359
54303W        W22644   1.317  37.848  14.419
54304W        W22645  13.715  35.986   2.785
54305W        W22646   5.418  32.562   0.288
54306W        W22647  34.995   5.688   0.244
54307W        W22648  30.593  14.612  11.555
54308W        W22649   2.269   5.699   4.161
54309W        W22650  19.663  23.698  13.323
54310W        W22651   2.842  17.712  11.569
54311W        W22652  10.331  42.824  11.983
54312W        W22653  34.868  27.999   3.832
54313W        W22654  34.539  27.028  14.513
54314W        W22655   5.403   3.386  12.382
54315W        W22656  14.307  31.149  14.869
54316W        W22657  11.247  15.595  11.551
54317W        W22658  23.534   6.720   4.329
54318W        W22659  15.796  30.062  12.031
54319W        W22660  25.577   1.376   2.300
54320W        W22661  21.579  15.634  14.915
54321W        W22662  10.278  14.716  12.435
54322W        W22663  22.052  19.249  11.066
54323W        W22664  44.381   7.702   0.793
54324W        W22665  16.121  24.502   3.673
54325W        W22666  23.098  20.190   1.822
54326W        W22667   9.185  10.343  14.019
54327W        W22668  26.471  12.140   4.299
54328W        W22669   6.701  26.533   0.397
54329W        W22670  33.391  17.195   2.677
54330W        W22671   7.735  43.377  14.458
54331W        W22672  35.032  37.460  14.009
54332W        W22673  30.082  34.609   0.788
54333W        W22674   6.879  41.451  10.486
54334W        W22675  43.460  24.587   3.658
54335W        W22676  20.558  44.414  10.487
54336W        W22677   1.263  39.940   0.476
54337W        W22678  34.074  35.402   0.345
54338W        W22679  26.673  13.842   4.805
54339W        W22680  26.459  43.335  11.982
54340W        W22681  14.242  21.561   2.890
54341W        W22682  24.101  26.529   0.766
54342W        W22683  39.047  35.867  11.055
54343W        W22684  41.422  43.313   5.237
54344W        W22685   6.279  32.138  13.945
54345W        W22686  21.258  41.326  10.548
54346W        W22687  39.832  38.039  13.985
54347W        W22688  38.820  41.521   3.162
54348W        W22689  28.498  18.236  14.398
54349W        W22690  11.277  40.549  10.889
54350W        W22691  12.738  39.429  11.084
54351W        W22692  27.458  23.032  12.867
54352W        W22693   6.843  28.955  12.062
54353W        W22694   4.216  18.145  11.535
54354W        W22695  41.796  12.754   2.415
54355W        W22696  15.769  14.327  13.380
54356W        W22697   7.692  17.147  11.925
54357W        W22698  18.683  36.048  13.884
54358W        W22699   6.335  42.832  11.603
54359W        W22700  15.139   5.280  10.994
54360W        W22701  27.576   7.317   1.694
54361W        W22702   7.680  22.665  10.999
54362W        W22703  42.452  19.742   0.766
54363W        W22704  26.663  42.358  13.799
54364W        W22705  34.470  28.603  10.939
54365W        W22706  11.845  40.509  14.954
54366W        W22707  41.920  38.395   3.357
54367W        W22708   2.957  11.235   4.142
54368W        W22709  22.510  39.468  13.864
54369W        W22710  35.556  37.376   3.656
54370W        W22711  38.820   6.255  10.632
54371W        W22712  10.369   7.669   1.896
54372W        W22713   9.223   3.798   3.661
54373W        W22714  37.909  13.605   1.265
54374W        W22715  26.109   4.286  11.947
54375W        W22716  11.715   0.374   3.225
54376W        W22717   5.273   4.250  14.337
54377W        W22718  32.005  28.035   3.349
54378W        W22719  19.284   1.271  13.794
54379W        W22720  16.251  21.649  10.921
54380W        W22721   5.742  29.587   2.837
54381W        W22722  36.053  36.082   3.152
54382W        W22723  38.932  21.076   3.264
54383W        W22724  32.010   0.770   4.243
54384W        W22725  44.494  34.574   0.909
54385W        W22726  26.087  42.851  14.937
54386W        W22727  17.637  25.662   3.849
54387W        W22728  27.029  23.661   0.416
54388W        W22729  34.026  40.415   0.773
54389W        W22730  43.830  42.014  11.049
54390W        W22731  28.452   0.906   3.325
54391W        W22732  23.660  17.563   2.291
54392W        W22733   0.433  30.623  13.320
54393W        W22734  26.590  27.146   4.661
54394W        W22735  36.472  42.934   2.278
54395W        W22736  42.951  35.942   0.468
54396W        W22737  36.373  12.757   4.179
54397W        W22738   2.437  13.249  13.868
54398W        W22739  14.173  27.522  14.325
54399W        W22740   3.311   3.755   4.218
54400W        W22741  26.655  37.031   4.183
54401W        W22742   3.333  21.120   2.331
54402W        W22743  37.914  39.342   1.844
54403W        W22744  37.013  30.425  12.033
54404W        W22745  15.758  28.609  11.581
54405W        W22746  22.008  24.196  10.978
54406W        W22747  41.911  41.537  14.976
54407W        W22748  13.253  26.656   5.217
54408W        W22749   7.789  38.867  11.986
54409W        W22750   0.865  10.726  10.520
54410W        W22751  21.255  16.748   1.752
54411W        W22752  14.101  13.130   2.779
54412W        W22753   3.425  12.171  10.468
54413W        W22754  30.007   0.795   1.402
54414W        W22755  20.125  32.436   4.267
54415W        W22756  22.035  34.993  14.486
54416W        W22757  31.061   2.330   2.233
54417W        W22758  21.714  42.856   1.814
54418W        W22759  20.197  24.575   2.407
54419W        W22760   9.356  16.153  10.412
54420W        W22761   0.974   9.750  13.960
54421W        W22762  38.918  14.194   4.169
54422W        W22763  38.995  15.685   5.253
54423W        W22764  37.901  21.257   4.310
54424W        W22765  29.162  19.729  11.392
54425W        W22766  39.030  18.072   0.312
54426W        W22767  19.687  12.797   3.203
54427W        W22768  25.545  24.988   3.175
54428W        W22769  16.721  12.274   4.682
54429W        W22770  10.139  41.803  11.867
54430W        W22771  15.222  28.512  11.465
54431W        W22772  22.054   7.749  13.467
54432W        W22773   5.287  43.991   1.828
54433W        W22774   6.712  18.264   0.765
54434W        W22775   9.198   7.788   3.678
54435W        W22776  14.186  24.485   3.258
54436W        W22777  30.457  16.657   1.349
54437W        W22778  30.606  37.413  12.502
54438W        W22779  33.082   2.782  10.615
54439W        W22780   1.896  24.538  11.914
54440W        W22781  17.233  20.649   0.853
54441W        W22782  32.056  22.733   5.216
54442W        W22783   4.782  13.600   1.410
54443W        W22784  30.158   4.746   0.347
54444W        W22785  43.856  35.479   2.196
54445W        W22786  19.743  36.418   5.157
54446W        W22787  41.951  41.032   3.736
54447W        W22788  24.015  44.364   3.172
54448W        W22789  16.154   8.821  13.879
54449W        W22790   4.876  44.420  12.933
54450W        W22791  42.289  41.988  12.034
54451W        W22792  15.729  30.500  13.519
54452W        W22793  29.647  44.854   1.336
54453W        W22794  36.518  18.628   0.370
54454W        W22795   5.383  24.098  11.040
54455W        W22796  35.939  34.016   2.334
54456W        W22797  31.509   9.882  14.964
54457W        W22798   0.924   3.890  11.859
54458W        W22799  13.671  31.931  10.513
54459W        W22800  30.456  20.213   4.625
54460W        W22801  27.992   8.309  10.635
54461W        W22802  44.958  29.601  12.860
54462W        W22803  33.380   8.780   3.750
54463W        W22804  39.922  39.946   4.174
54464W        W22805  37.405  22.159   3.193
54465W        W22806  33.959  31.019   1.855
54466W        W22807  23.537   3.428  10.424
54467W        W22808   3.240   0.818  12.856
54468W        W22809  10.714   4.836   2.247
54469W        W22810  39.447  36.508  14.791
54470W        W22811  16.679  43.500  11.053
54471W        W22812  31.927   8.798  11.883
54472W        W22813  31.917  44.774  10.573
54473W        W22814  26.684  14.791   3.217
54474W        W22815  12.191   9.838   0.319
54475W        W22816   1.443  36.584   0.825
54476W        W22817  42.381  26.463  13.354
54477W        W22818  13.337  23.039  12.468
54478W        W22819  43.462  34.964  13.862
54479W        W22820  35.428  29.954  11.980
54480W        W22821   6.776   6.757   0.448
54481W        W22822  39.501  25.538   4.796
54482W        W22823  43.296   2.249  13.548
54483W        W22824  37.856  25.147   1.891
54484W        W22825  15.278  35.072  12.488
54485W        W22826   9.150  23.580   1.389
54486W        W22827  21.228  20.670  12.343
54487W        W22828  30.529  19.549  10.425
54488W        W22829  13.202  16.178   3.859
54489W        W22830   6.244  11.244   2.358
54490W        W22831  34.549  39.489  11.962
54491W        W22832   1.832  40.494  14.938
54492W        W22833   0.776  40.508   0.403
54493W        W22834  39.834  13.192   1.703
54494W        W22835  15.782  27.172  13.486
54495W        W22836  15.191  14.709  11.044
54496W        W22837   0.865  42.911   1.733
54497W        W22838   1.804  16.708  14.919
54498W        W22839  35.466  36.575   1.288
54499W        W22840   9.292  29.511   4.719
54500W        W22841  31.020  10.179  11.510
54501W        W22842  19.188   5.232  12.397
54502W        W22843  29.004  23.233   1.902
54503W        W22844  14.664  32.497   1.866
54504W        W22845  11.663  22.640  14.302
54505W        W22846   4.250  15.632   1.929
54506W        W22847  21.132  16.716   1.212
54507W        W22848  24.581  25.606   0.908
54508W        W22849  13.287   4.938   5.245
54509W        W22850  16.656  23.681   1.877
54510W        W22851   7.224  37.039   4.118
54511W        W22852  36.461  32.072   5.228
54512W        W22853  41.956   5.783  13.477
54513W        W22854  39.376  31.045  13.402
54514W        W22855  32.418  23.199   4.172
54515W        W22856  43.777  13.747  14.446
54516W        W22857   5.834  33.987   4.700
54517W        W22858   7.800  36.078   4.820
54518W        W22859  43.435   3.844   1.695
54519W        W22860  21.042  29.069  10.097
54520W        W22861  25.024  29.131  13.831
54521W        W22862  16.194  30.487  13.338
54522W        W22863  29.438   1.241  13.922
54523W        W22864  25.509   5.324  12.069
54524W        W22865  23.201  17.685  10.543
54525W        W22866  18.731  29.985   3.201
54526W        W22867  31.955   2.730  10.505
54527W        W22868  10.852  13.274  10.952
54528W        W22869  29.171   2.771  13.445
54529W        W22870  20.543  13.696   2.819
54530W        W22871  14.722  22.127  11.908
54531W        W22872  21.555  14.192  11.996
54532W        W22873  26.640  11.218  14.435
54533W        W22874  41.468  40.375  11.007
54534W        W22875   1.465  31.469   3.773
54535W        W22876   8.388  44.940  11.390
54536W        W22877  42.908  10.383   1.391
54537W        W22878  17.140  44.386  13.404
54538W        W22879  14.809   4.221  13.374
54539W        W22880  29.158   2.238  14.761
54540W        W22881  12.792   2.799  11.519
54541W        W22882  34.990   6.339  13.891
54542W        W22883  28.612  32.589  13.957
54543W        W22884  44.395   6.841   3.366
54544W        W22885  15.185  31.071  13.023
54545W        W22886  19.280  18.578   4.694
54546W        W22887  11.259  12.802  14.780
54547W        W22888   5.821  26.659  12.866
54548W        W22889  36.960  23.035   4.351
54549W        W22890  11.769  29.038   2.886
54550W        W22891  36.399   3.282   1.911
54551W        W22892  16.567  19.645  13.051
54552W        W22893  18.778  33.490   1.344
54553W        W22894  40.952  36.076  14.337
54554W        W22895  31.643  11.706  13.854
54555W        W22896   6.876  34.512   3.304
54556W        W22897  29.511  42.460   0.342
54557W        W22898  16.710  20.081   2.775
54558W        W22899  17.208  30.052   3.722
54559W        W22900  24.149  24.149  14.830
54560W        W22901   9.864  17.180   2.752
54561W        W22902   8.266  15.602   0.324
54562W        W22903  18.118   6.228   4.331
54563W        W22904  38.034   3.238   1.840
54564W        W22905  18.608   5.758  12.345
54565W        W22906   8.875  44.779   4.740
54566W        W22907  32.928  14.715  12.488
54567W        W22908   2.808  36.938  12.889
54568W        W22909  31.910  34.897  11.527
54569W        W22910  12.852  31.512  13.827
54570W        W22911  30.095   2.733   0.872
54571W        W22912  32.079  17.769   4.276
54572W        W22913  26.643  34.554  10.590
54573W        W22914  13.200  24.219   2.350
54574W        W22915  18.212  34.013   5.133
54575W        W22916  30.982   0.869  14.795
54576W        W22917  30.570  25.534  12.526
54577W        W22918  23.577  19.219  13.998
54578W        W22919  23.063   1.440  10.422
54579W        W22920  22.740  29.587   2.757
54580W        W22921  25.581  28.550   0.312
54581W        W22922  16.580   0.818   0.312
54582W        W22923  34.505  28.967  13.997
54583W        W22924  38.863  14.633  12.518
54584W        W22925  29.476  10.205  10.625
54585W        W22926  14.623  43.280  14.813
54586W        W22927  41.009  37.495  14.926
54587W        W22928   3.401   6.736  11.576
54588W        W22929   7.277  36.358   1.930
54589W        W22930  11.158  15.268   4.673
54590W        W22931  15.214  11.842   2.375
54591W        W22932  27.524   8.355   1.782
54592W        W22933   5.238  24.633   1.702
54593W        W22934  24.490   6.282  12.567
54594W        W22935  11.643  16.651  13.037
54595W        W22936  30.414   6.294   5.234
54596W        W22937   7.179   2.282  11.956
54597W        W22938   7.829  27.161   4.812
54598W        W22939  37.996   7.745  12.392
54599W        W22940  28.148  14.823   0.783
54600W        W22941  17.774  20.544  13.498
54601W        W22942  15.760   5.316   4.634
54602W        W22943  13.767  19.607   2.898
54603W        W22944  16.077  10.230   4.636
54604W        W22945  29.080  13.195  12.397
54605W        W22946   2.848   1.316   3.319
54606W        W22947  41.919  30.463  11.973
54607W        W22948  19.691  10.775   1.225
54608W        W22949   5.260  29.567   0.392
54609W        W22950  43.512  34.902   1.826
54610W        W22951  17.710  33.460   4.671
54611W        W22952  15.237  30.569  14.855
54612W        W22953  36.371  40.905   0.849
54613W        W22954  15.182  10.323   4.344
54614W        W22955  39.527   3.248  14.012
54615W        W22956  42.783  41.800  11.563
54616W        W22957  20.091  40.490   0.360
54617W        W22958  43.917   4.367  10.501
54618W        W22959  38.951  39.812  13.002
54619W        W22960   3.361  18.579   3.322
54620W        W22961  10.750  24.697   4.726
54621W        W22962   6.277  12.119   4.691
54622W        W22963  14.223  38.022  14.466
54623W        W22964   8.798   9.211   1.748
54624W        W22965   2.244  18.147   1.715
54625W        W22966  10.270   0.880   4.337
54626W        W22967  27.683  42.439  12.856
54627W        W22968  43.296  19.673  12.414
54628W        W22969  38.446  33.522  13.321
54629W        W22970   1.848  18.617   3.200
54630W        W22971  36.988  25.699   0.825
54631W        W22972  11.789  11.637  10.127
54632W        W22973  44.371   6.375   4.631
54633W        W22974  39.496  35.922   3.739
54634W        W22975  13.265  42.819  12.453
54635W        W22976  33.438   1.481  11.992
54636W        W22977  16.256  37.343   0.470
54637W        W22978   5.345  12.345  14.405
54638W        W22979   9.876  22.195  12.983
54639W        W22980  17.186  24.227   9.622
54640W        W22981  39.950  17.195   3.298
54641W        W22982  43.396   3.339   2.414
54642W        W22983   8.702  22.508  13.894
54643W        W22984  38.069   0.330  10.443
54644W        W22985   2.892  26.087  11.006
54645W        W22986  34.912  44.397  12.075
54646W        W22987   2.281  30.442  13.971
54647W        W22988  35.369  33.028  13.533
54648W        W22989  22.076  15.717   2.359
54649W        W22990  33.598  21.225   4.284
54650W        W22991  17.586  22.519  12.400
54651W        W22992  22.628   1.757   2.269
54652W        W22993   8.265  36.476  12.077
54653W        W22994   2.857  20.057  11.028
54654W        W22995  40.913  38.348  13.497
54655W        W22996  29.989  15.664  14.802
54656W        W22997  11.152  29.013   1.743
54657W        W22998  41.362  24.148   0.401
54658W        W22999  11.701  41.018  14.982
54659W        W23000   7.754  10.864  12.986
54660W        W23001  32.932  28.124  14.406
54661W        W23002  19.084  15.102  12.412
54662W        W23003  41.427  31.574   1.820
54663W        W23004  18.710  16.102   0.865
54664W        W23005  36.951   4.296  14.994
54665W        W23006  29.074  34.006   4.769
54666W        W23007   0.836  32.098  12.578
54667W        W23008   0.450  32.970  13.063
54668W        W23009  28.150  29.540  11.485
54669W        W23010  28.438  34.885   3.160
54670W        W23011  15.083  24.096  13.849
54671W        W23012  17.222  35.485   3.720
54672W        W23013   7.754  35.100   3.318
54673W        W23014  23.604  36.436  10.423
54674W        W23015  40.431  31.553   2.782
54675W        W23016   6.695   5.407   0.934
54676W        W23017   6.845  11.813  11.429
54677W        W23018   1.949  28.028   1.419
54678W        W23019  33.601  13.746   3.859
54679W        W23020  41.934  21.712   3.647
54680W        W23021  41.830  24.076   4.212
54681W        W23022  37.861  14.332   0.827
54682W        W23023  15.298   5.910   2.679
54683W        W23024  28.006  25.592  14.378
54684W        W23025  24.627   1.298  10.960
54685W        W23026   8.672   3.755   3.378
54686W        W23027   1.816  32.450   2.344
54687W        W23028  32.622  12.279  10.637
54688W        W23029   4.914   1.269  13.863
54689W        W23030  29.626  18.565   3.154
54690W        W23031   4.769  21.222   4.256
54691W        W23032  26.585  37.389   4.718
54692W        W23033  15.723  39.957  12.532
54693W        W23034  41.894  23.532   3.691
54694W        W23035  18.084  26.039   2.748
54695W        W23036  24.186   0.393   4.137
54696W        W23037  41.008  26.110  10.582
54697W        W23038  22.705   8.397   1.334
54698W        W23039  10.166   8.302  10.892
54699W        W23040  38.509   8.325  11.913
54700W        W23041   8.170  20.556   1.926
54701W        W23042  10.844  36.974   3.727
54702W        W23043  32.531   6.824  14.340
54703W        W23044  31.566  42.018  13.378
54704W        W23045   7.852  30.136   1.298
54705W        W23046  13.208  43.773  10.580
54706W        W23047  42.998  16.664  10.900
54707W        W23048  35.431  18.087   3.837
54708W        W23049   9.327  35.098   3.637
54709W        W23050  13.777   4.324  14.984
54710W        W23051  14.264  34.864   2.380
54711W        W23052  16.149   6.390   4.276
54712W        W23053  36.581  27.689  14.486
54713W        W23054  28.448   5.793   0.790
54714W        W23055  20.665   3.256   1.371
54715W        W23056  18.156  30.413   4.612
54716W        W23057  42.414  11.315   2.342
54717W        W23058  21.249  19.125  10.550
54718W        W23059  10.863  28.538   2.378
54719W        W23060  13.737  39.441  14.294
54720W        W23061   3.301  34.535  13.394
54721W        W23062   1.761  24.984  14.028
54722W        W23063  14.704  33.444   0.431
54723W        W23064  12.139  31.499  12.355
54724W        W23065  31.523  19.561   3.291
54725W        W23066  18.596  43.983   0.398
54726W        W23067   8.720  11.770   1.330
54727W        W23068   6.725   5.434  13.818
54728W        W23069  25.591  17.561   1.328
54729W        W23070  19.672  10.667   3.697
54730W        W23071  36.471  13.255   3.343
54731W        W23072  40.380   5.879  13.824
54732W        W23073  15.782  22.199  13.438
54733W        W23074   5.424   2.337  14.345
54734W        W23075  27.178  17.650  12.978
54735W        W23076  34.975  33.121  13.534
54736W        W23077  42.354  43.943  11.856
54737W        W23078  15.608  23.089   3.784
54738W        W23079  18.620  29.655   3.299
54739W        W23080  22.601  44.411  11.474
54740W        W23081  12.307  36.009   2.386
54741W        W23082  18.696  42.479  13.450
54742W        W23083   5.273   5.439  11.880
54743W        W23084  14.158   5.341  12.872
54744W        W23085  17.177   9.804   0.338
54745W        W23086  35.551  15.734  13.532
54746W        W23087  37.955  30.095  11.446
54747W        W23088  13.840  12.167  14.786
54748W        W23089  26.682  32.074   1.879
54749W        W23090  15.242  17.242  10.952
54750W        W23091  11.687  11.371   2.873
54751W        W23092  34.989  41.471  11.862
54752W        W23093  24.531  42.300  12.937
54753W        W23094  14.626  31.099   0.456
54754W        W23095   3.710  36.530  12.890
54755W        W23096  31.957  17.276  11.040
54756W        W23097   0.940   6.790  12.401
54757W        W23098  37.468  39.334   4.177
54758W        W23099  41.876  34.533  10.107
54759W        W23100  13.724  18.206   1.786
54760W        W23101  13.197  21.078   2.818
54761W        W23102  17.785  43.300  14.874
54762W        W23103   7.225  25.531  14.013
54763W        W23104  35.098   7.300  11.446
54764W        W23105  28.172  44.944   4.808
54765W        W23106  27.129  34.576  10.996
54766W        W23107  21.654   9.161   0.819
54767W        W23108  22.024  37.982   2.260
54768W        W23109  14.096  17.264   4.140
54769W        W23110  17.749  14.188   2.753
54770W        W23111  30.457  14.143  14.762
54771W        W23112  29.109   0.856   2.211
54772W        W23113  23.209  13.640  14.842
54773W        W23114  13.174  14.621   2.366
54774W        W23115   2.724   3.396  12.047
54775W        W23116   8.216  38.489  12.580
54776W        W23117   0.275  30.067   4.137
54777W        W23118   3.374  15.594   2.190
54778W        W23119  43.013  43.920  14.999
54779W        W23120  18.121   6.791   1.372
54780W        W23121  10.749   0.396  11.510
54781W        W23122  25.668  30.632   3.771
54782W        W23123  13.645  20.622  11.046
54783W        W23124  35.873   9.814  14.488
54784W        W23125  28.977  44.299   3.289
54785W        W23126  43.277  32.913   3.756
54786W        W23127  18.138  32.486  13.969
54787W        W23128  32.524  23.986   2.837
54788W        W23129  25.068  10.206   4.331
54789W        W23130  12.642   8.807  14.922
54790W        W23131   8.200  35.540  12.058
54791W        W23132  26.501   1.247  11.101
54792W        W23133  21.171  12.265  12.352
54793W        W23134  27.159  20.634  14.814
54794W        W23135  16.725  41.306   2.767
54795W        W23136  13.829  35.933   3.730
54796W        W23137   9.775  19.242  13.482
54797W        W23138  26.570  21.078   2.236
54798W        W23139  11.199  43.922   3.641
54799W        W23140  17.087  33.384   4.286
54800W        W23141  23.526  38.526  12.021
54801W        W23142  11.243  32.897   3.383
54802W        W23143  36.911  31.086  13.928
54803W        W23144  13.158  21.555   1.818
54804W        W23145  39.044  34.981  11.501
54805W        W23146  18.257   9.667   0.340
54806W        W23147  19.753  41.436   0.476
54807W        W23148  43.318  40.405   4.200
54808W        W23149  36.416  43.971  10.927
54809W        W23150  21.256   2.796  12.552
54810W        W23151  35.964  29.074   3.797
54811W        W23152  22.069  35.998   0.243
54812W        W23153  35.390  22.530   4.331
54813W        W23154   0.445  36.843   1.247
54814W        W23155   2.941  36.915  14.457
54815W        W23156   7.786   4.837   2.884
54816W        W23157   3.796   4.346  10.405
54817W        W23158   5.715  44.365   0.853
54818W        W23159   9.245  16.743  10.508
54819W        W23160  25.481   7.288  12.492
54820W        W23161  33.947  20.049   1.415
54821W        W23162  17.282  37.891   2.363
54822W        W23163  36.874   0.307  13.013
54823W        W23164  29.461   9.818   3.699
54824W        W23165  32.447   6.850   4.294
54825W        W23166  37.376  29.655   2.362
54826W        W23167  13.804  27.501  11.465
54827W        W23168  15.138   1.275  13.520
54828W        W23169   3.909  38.918  13.451
54829W        W23170  33.600  30.930   3.700
54830W        W23171   9.393  19.160  14.931
54831W        W23172  12.254  29.630   3.803
54832W        W23173  38.880  36.922   4.791
54833W        W23174  27.567  20.063   3.760
54834W        W23175  27.555  24.013  12.066
54835W        W23176  28.643  40.368   1.436
54836W        W23177  29.101  44.478  12.365
54837W        W23178   7.405  12.167   2.719
54838W        W23179  12.799  35.380   3.839
54839W        W23180  11.826  12.665  12.086
54840W        W23181  18.697  21.176  10.625
54841W        W23182  31.401  17.122  13.899
54842W        W23183   9.215   6.423   1.872
54843W        W23184  38.476  25.079  14.418
54844W        W23185  14.637  22.220  13.482
54845W        W23186   9.163  31.998  14.495
54846W        W23187  43.444  14.288  12.899
54847W        W23188  35.863  41.396   0.943
54848W        W23189  44.873  19.770   3.685
54849W        W23190   7.868   9.268   1.751
54850W        W23191   2.251  42.900  11.472
54851W        W23192   6.238  12.610  14.378
54852W        W23193   5.439   7.813   2.228
54853W        W23194  16.715  18.620   3.250
54854W        W23195   4.404  18.238  12.577
54855W        W23196  32.413  17.253  12.350
54856W        W23197  23.187   4.280   2.804
54857W        W23198   4.297  24.701   2.415
54858W        W23199   0.849  29.478  14.483
54859W        W23200   3.307  44.841  14.472
54860W        W23201  14.339  17.608   3.636
54861W        W23202  20.194  12.256  10.988
54862W        W23203  35.592  25.630  14.969
54863W        W23204   8.178  40.519  14.876
54864W        W23205  20.089   8.381  13.981
54865W        W23206   6.232  17.559   2.363
54866W        W23207  44.349   4.891   0.258
54867W        W23208  12.183  36.359   3.702
54868W        W23209  21.127  25.970  11.584
54869W        W23210  19.592  31.977   4.748
54870W        W23211   4.772  42.980   2.275
54871W        W23212  12.775  14.632  13.501
54872W        W23213  22.141   5.808  13.399
54873W        W23214   9.802  36.950  12.540
54874W        W23215  38.065   9.839   1.228
54875W        W23216  12.330   1.859   3.235
54876W        W23217  44.829  18.067  13.327
54877W        W23218  29.475  11.159  13.808
54878W        W23219  18.574  33.534  14.509
54879W        W23220  20.087   9.696  14.506
54880W        W23221  26.098   4.342  11.062
54881W        W23222  42.855  32.008   1.314
54882W        W23223  13.788  11.144  11.124
54883W        W23224  41.905  37.860   1.338
54884W        W23225   2.397  21.225  12.962
54885W        W23226  26.588   3.815  13.334
54886W        W23227  19.760  15.269  12.052
54887W        W23228  44.465  21.047  13.915
54888W        W23229  19.635   0.941   5.085
54889W        W23230  12.846  39.014  14.001
54890W        W23231  32.902   6.342   1.282
54891W        W23232  29.013  14.142  13.806
54892W        W23233  21.075   9.360   1.247
54893W        W23234  12.851  35.860  10.585
54894W        W23235   8.234  28.140  10.599
54895W        W23236  17.774  44.889   4.337
54896W        W23237  16.662  40.471  12.534
54897W        W23238  29.103  26.559  12.006
54898W        W23239  26.127   0.305   1.264
54899W        W23240  32.021  28.454   3.199
54900W        W23241  10.356  38.942   0.413
54901W        W23242  38.061  26.541  10.895
54902W        W23243  20.644   1.284   1.921
54903W        W23244   0.896  43.432  12.994
54904W        W23245  27.097  41.338  10.500
54905W        W23246  35.496   9.793  13.893
54906W        W23247  23.638  26.201   4.670
54907W        W23248   8.277  26.639   1.231
54908W        W23249  18.107  27.482  13.452
54909W        W23250  19.767  25.968   1.280
54910W        W23251  20.685  16.605  10.591
54911W        W23252  28.669  40.935   3.344
54912W        W23253  21.261  13.308  13.500
54913W        W23254  13.150  26.472   1.400
54914W        W23255  16.575  38.335  11.506
54915W        W23256  32.424   3.893  14.322
54916W        W23257  11.321  30.947   2.693
54917W        W23258  32.546   2.444  13.948
54918W        W23259  18.608  39.497  12.939
54919W        W23260  16.704  20.051  14.451
54920W        W23261  36.400  39.430  12.449
54921W        W23262  26.171  43.509   0.878
54922W        W23263  13.738  13.699  10.606
54923W        W23264  39.063  27.161   0.873
54924W        W23265  16.130  27.004  14.454
54925W        W23266  40.337  43.857  11.923
54926W        W23267  31.934  28.011   4.682
54927W        W23268  23.985  30.139   4.307
54928W        W23269  28.118  34.866  13.923
54929W        W23270  14.274  36.054   0.263
54930W        W23271  38.453  11.711   4.602
54931W        W23272  41.844  16.687   1.801
54932W        W23273  36.450   5.421  14.371
54933W        W23274   7.407  38.327   0.481
54934W        W23275  26.491  30.542   2.304
54935W        W23276  43.013  18.583   1.216
54936W        W23277  40.901  10.255  14.391
54937W        W23278  23.593   6.302  14.404
54938W        W23279  38.039  23.068  14.026
54939W        W23280   7.264   5.322  11.492
54940W        W23281  38.904  16.153   3.329
54941W        W23282  23.105   2.935  14.834
54942W        W23283  27.100  18.212  12.059
54943W        W23284  11.209  21.686  14.977
54944W        W23285  31.576  40.907  13.511
54945W        W23286  32.115  17.683  13.825
54946W        W23287  13.839  23.156  14.911
54947W        W23288   4.847  16.188   3.869
54948W        W23289  34.443  36.068  14.363
54949W        W23290  40.887  31.985  11.086
54950W        W23291  29.633  23.150   4.156
54951W        W23292  29.589   2.305   4.193
54952W        W23293   5.839  42.028   2.893
54953W        W23294  42.365   4.404  11.465
54954W        W23295  34.112  35.570   1.410
54955W        W23296   5.887   4.761  12.347
54956W        W23297  33.601  22.162  14.290
54957W        W23298  11.688  33.562   2.243
54958W        W23299   4.411  25.103   2.252
54959W        W23300  18.758  36.994  12.528
54960W        W23301  19.762  32.573  13.505
54961W        W23302  44.876  24.126  11.518
54962W        W23303  13.333  41.444   4.278
54963W        W23304   6.362   1.776   2.275
54964W        W23305   8.728  31.961   0.966
54965W        W23306  43.492  31.910   2.773
54966W        W23307  22.695  25.510   2.382
54967W        W23308  10.721  39.050   0.321
54968W        W23309  37.375   3.249   0.447
54969W        W23310   7.265   1.911  11.044
54970W        W23311  17.296  22.689   4.334
54971W        W23312  30.142  24.105   1.236
54972W        W23313   7.895  44.374   4.698
54973W        W23314   7.901  17.647   2.755
54974W        W23315  30.015  26.602   2.745
54975W        W23316  16.286   5.353  10.407
54976W        W23317   7.380  15.710  14.916
54977W        W23318  15.692   9.860   3.658
54978W        W23319  12.720  12.242   2.345
54979W        W23320  14.319  10.733  10.414
54980W        W23321  17.292  43.358   2.745
54981W        W23322  18.753  12.621  10.952
54982W        W23323   4.896   2.743  11.533
54983W        W23324  37.382  30.085  14.834
54984W        W23325  22.672  10.724  10.905
54985W        W23326  23.029  14.668  10.592
54986W        W23327  39.495  39.366  13.994
54987W        W23328  39.447  27.641  13.330
54988W        W23329  25.650  18.207  10.130
54989W        W23330  16.629  27.163   1.934
54990W        W23331  27.446  23.606  11.103
54991W        W23332  22.246  34.544  14.318
54992W        W23333  17.681  36.025  13.330
54993W        W23334  23.180  37.041  11.020
54994W        W23335  14.189  44.284  14.397
54995W        W23336  40.996  36.912  12.448
54996W        W23337  41.478  42.325   9.570
54997W        W23338  34.448  10.784   4.308
54998W        W23339  22.188  12.300   2.397
54999W        W23340  25.596   7.392  10.899
55000W        W23341   6.783  32.597   2.416
55001W        W23342   4.330  41.954   0.430
55002W        W23343   9.848  38.470  10.580
55003W        W23344  18.218   4.865   0.298
55004W        W23345  25.074  25.546   1.769
55005W        W23346  43.293  12.338  12.013
55006W        W23347  28.999  10.825  10.565
55007W        W23348  33.401   5.711  12.444
55008W        W23349   9.175   4.891   2.804
55009W        W23350  18.291  38.492  14.463
55010W        W23351  20.230  15.608   4.755
55011W        W23352  12.335  20.611   1.710
55012W        W23353  21.114   1.799  12.956
55013W        W23354  32.076  26.661  13.886
55014W        W23355  27.008  44.344   0.872
55015W        W23356  39.969  27.994  12.453
55016W        W23357  27.521  27.991   9.467
55017W        W23358  15.120  29.055   1.756
55018W        W23359  12.340  27.454   3.367
55019W        W23360  18.287  16.104   1.322
55020W        W23361  24.543  29.110   9.976
55021W        W23362  11.163  44.403  11.535
55022W        W23363  26.050  16.572  13.002
55023W        W23364  28.532  23.113  12.031
55024W        W23365  22.239  11.302   0.449
55025W        W23366  11.348  23.650   3.160
55026W        W23367  43.273  35.388  11.590
55027W        W23368  35.865   8.695  12.423
55028W        W23369  30.966  15.159  12.471
55029W        W23370   1.430  10.217  14.296
55030W        W23371  32.969  23.701   2.715
55031W        W23372  20.553  10.753  14.471
55032W        W23373  28.453  15.701   3.807
55033W        W23374   7.725   6.750   4.297
55034W        W23375  23.552  29.652   0.348
55035W        W23376  32.556  25.171   1.312
55036W        W23377  42.444  42.818  11.548
55037W        W23378  36.510  43.351   2.808
55038W        W23379  36.078  25.708  12.388
55039W        W23380  19.203  43.283   1.322
55040W        W23381  21.533  28.142   0.887
55041W        W23382  30.938   5.927  13.925
55042W        W23383  41.951  16.809  12.373
55043W        W23384  34.463  10.305  14.359
55044W        W23385   1.401  36.997   1.929
55045W        W23386   4.774   0.337   3.658
55046W        W23387   8.215  41.889   4.338
55047W        W23388  32.071  39.528   3.755
55048W        W23389  16.204  18.263   0.256
55049W        W23390  31.613  26.958  13.427
55050W        W23391  23.679  42.013  10.518
55051W        W23392   1.862   6.777   2.335
55052W        W23393  11.772   2.865  10.891
55053W        W23394  28.947   1.875   1.761
55054W        W23395   0.964  32.459  12.974
55055W        W23396  43.466   1.879   1.839
55056W        W23397  15.168   7.836   0.316
55057W        W23398  37.930  15.090   0.809
55058W        W23399   4.838  25.040   2.295
55059W        W23400  11.149  15.222  11.887
55060W        W23401  31.960   7.908  11.503
55061W        W23402  10.701  42.817   3.756
55062W        W23403  20.647  44.958  14.996
55063W        W23404   0.988  19.076   3.808
55064W        W23405   9.652  36.482  12.365
55065W        W23406  11.371  38.363   0.757
55066W        W23407  35.417   6.253  12.836
55067W        W23408  42.828   6.902   2.664
55068W        W23409  33.503   1.249   2.297
55069W        W23410  13.675  20.608  14.824
55070W        W23411   7.746  41.389   1.807
55071W        W23412  43.835   3.859  10.898
55072W        W23413  21.040   1.836   2.226
55073W        W23414  37.568  31.599   3.815
55074W        W23415  42.425  14.719  13.943
55075W        W23416  37.402  37.566   4.805
55076W        W23417  14.255  26.036  14.370
55077W        W23418   8.334  43.456   2.760
55078W        W23419  19.698  19.133   4.698
55079W        W23420  40.853  11.810   3.340
55080W        W23421  39.823  28.441   0.744
55081W        W23422  31.081  21.633   3.218
55082W        W23423   7.768  23.707  14.848
55083W        W23424  16.709  21.044   4.652
55084W        W23425   4.777  33.414  12.863
55085W        W23426   1.795   4.739   2.282
55086W        W23427  38.441   8.766   1.707
55087W        W23428  13.601   8.328   3.797
55088W        W23429  19.055  33.909   3.274
55089W        W23430  29.110  20.671  12.829
55090W        W23431  36.582  11.662  10.434
55091W        W23432   8.736  38.021   3.771
55092W        W23433  43.812  44.761  12.525
55093W        W23434  16.135  13.296  10.889
55094W        W23435   4.788  41.450   4.169
55095W        W23436   2.435  35.400  12.556
55096W        W23437  23.045  10.304   0.726
55097W        W23438  26.500   1.869  11.599
55098W        W23439  43.000  40.812  14.316
55099W        W23440  37.463  44.379   1.214
55100W        W23441  34.419  18.768  13.808
55101W        W23442  34.490  16.779   0.458
55102W        W23443  25.671  41.505   0.802
55103W        W23444  35.093  36.401   4.833
55104W        W23445  26.685  13.178   5.314
55105W        W23446  14.094   4.251  13.896
55106W        W23447  26.611   2.792  13.463
55107W        W23448   3.786  17.133   0.804
55108W        W23449  16.668  24.527   3.257
55109W        W23450  23.522  38.966   2.184
55110W        W23451  22.726  36.869  12.455
55111W        W23452  27.582  29.173  13.013
55112W        W23453   3.286  36.410   1.760
55113W        W23454  13.213   3.291   2.192
55114W        W23455   4.889  26.087  11.603
55115W        W23456  37.542  33.107   3.747
55116W        W23457  32.016  21.687  10.971
55117W        W23458  13.329   3.891   2.733
55118W        W23459   0.976  42.365  13.014
55119W        W23460   9.164  32.088   0.391
55120W        W23461  16.643   3.828  10.514
55121W        W23462  20.164  25.073   2.326
55122W        W23463  44.296   3.805  10.546
55123W        W23464   7.778  32.609   0.444
55124W        W23465  12.293  36.425  12.358
55125W        W23466  19.655  30.069  10.465
55126W        W23467  22.111  31.511   2.774
55127W        W23468   8.391  26.539   2.834
55128W        W23469   5.338  24.192  14.779
55129W        W23470   9.692  26.478  10.640
55130W        W23471  11.130   2.327   4.645
55131W        W23472  19.149  11.297   2.713
55132W        W23473  40.424  12.758  11.870
55133W        W23474  24.176  35.468   0.964
55134W        W23475   3.279   8.881   5.319
55135W        W23476  43.388   0.418  11.869
55136W        W23477   0.303  26.113  11.915
55137W        W23478   9.732  43.966   3.743
55138W        W23479  11.300  40.892  13.516
55139W        W23480  37.881  12.137   2.404
55140W        W23481  29.158  18.694   0.850
55141W        W23482  31.440   0.906  13.046
55142W        W23483  22.070  27.155   2.899
55143W        W23484  34.025  43.918   1.325
55144W        W23485  36.002   8.350   2.189
55145W        W23486  16.693  18.622  10.967
55146W        W23487   4.302   3.298   0.939
55147W        W23488  39.516  22.138  13.015
55148W        W23489  36.855  14.770  12.891
55149W        W23490  42.956  41.306  12.847
55150W        W23491  18.151  27.536   1.340
55151W        W23492  43.314  40.860   3.805
55152W        W23493  35.049  16.233   2.326
55153W        W23494  20.749   0.491   1.431
55154W        W23495  30.547  12.783   3.706
55155W        W23496  33.987  27.123   2.680
55156W        W23497   3.771  16.805  12.003
55157W        W23498  35.395  42.470  11.428
55158W        W23499  24.111  25.617  11.450
55159W        W23500  14.777   3.720  11.446
55160W        W23501  17.247  19.130  13.826
55161W        W23502  26.097   0.297   1.800
55162W        W23503  24.625  19.087  10.097
55163W        W23504  37.526  39.058   0.771
55164W        W23505  34.069  14.278  11.013
55165W        W23506   7.749  37.397  14.311
55166W        W23507   5.781  43.437  14.294
55167W        W23508  38.542  28.585   4.118
55168W        W23509   6.778   4.849   1.393
55169W        W23510  38.445  12.145   0.811
55170W        W23511  25.077  28.095  13.366
55171W        W23512  23.223  15.269  12.507
55172W        W23513  29.090  18.063  13.516
55173W        W23514  19.714   8.287  11.881
55174W        W23515   9.705  28.648  13.428
55175W        W23516  34.894  19.543  10.155
55176W        W23517  40.420  18.630   2.693
55177W        W23518  33.919  29.949   4.772
55178W        W23519  19.681  18.273  12.439
55179W        W23520   9.219  44.406   3.788
55180W        W23521  30.639  40.480   2.343
55181W        W23522  42.467  31.416   4.827
55182W        W23523  14.816  23.693   3.189
55183W        W23524  37.574  29.924   4.781
55184W        W23525  39.916   6.350   3.249
55185W        W23526  11.240  23.172   2.330
55186W        W23527  15.591   5.298   3.753
55187W        W23528  44.360  17.598   9.578
55188W        W23529  11.812  13.696   1.851
55189W        W23530  20.261  13.763  13.938
55190W        W23531  16.732  42.876   1.892
55191W        W23532  17.185   5.309   3.180
55192W        W23533  32.585   3.730  12.038
55193W        W23534   2.322  41.867   4.182
55194W        W23535  13.704  31.102  13.913
55195W        W23536  27.108  30.425   0.290
55196W        W23537  21.164  33.035   1.412
55197W        W23538  37.976  22.538  12.346
55198W        W23539  33.428   2.306   3.307
55199W        W23540  36.853  13.781   2.347
55200W        W23541  34.505  41.878   2.717
55201W        W23542  25.608  40.848   2.813
55202W        W23543  22.555  16.569  10.072
55203W        W23544  39.048  42.284  12.551
55204W        W23545  40.031  12.275  13.918
55205W        W23546  16.089  16.773   1.391
55206W        W23547   5.306  25.671   4.781
55207W        W23548  39.469  14.125   4.118
55208W        W23549  18.202  10.356   0.348
55209W        W23550   3.944   0.907   1.737
55210W        W23551  43.405  16.111   2.895
55211W        W23552  38.558   9.203   4.815
55212W        W23553  31.008  40.871  10.540
55213W        W23554  14.303  28.052   0.404
55214W        W23555   5.342  20.658   0.349
55215W        W23556  36.007   0.348   0.924
55216W        W23557  35.457  37.456  12.532
55217W        W23558  35.079  39.825   3.635
55218W        W23559  38.463  29.608  13.029
55219W        W23560  32.911  23.589  14.948
55220W        W23561  24.159   4.346  11.543
55221W        W23562   0.439   5.404   3.218
55222W        W23563  18.584  39.019   0.791
55223W        W23564  37.551  32.082   1.744
55224W        W23565  35.585  36.064  10.976
55225W        W23566  44.439  10.308  10.984
55226W        W23567   5.406  28.046   4.131
55227W        W23568  39.025   6.799   1.317
55228W        W23569   9.371  25.998   0.801
55229W        W23570  15.101  26.517   1.769
55230W        W23571  14.630  41.420   2.846
55231W        W23572  31.622  11.253  10.905
55232W        W23573  44.770  25.650  10.509
55233W        W23574   9.847  20.535  12.894
55234W        W23575  30.483  10.779   4.289
55235W        W23576  22.194  29.998   4.256
55236W        W23577  10.653  43.862  12.055
55237W        W23578  43.419  36.097  11.488
55238W        W23579   3.904   4.434  14.982
55239W        W23580  15.738  34.548  12.045
55240W        W23581   7.177  39.356   3.269
55241W        W23582  11.829  38.458   0.412
55242W        W23583  37.970  14.596  13.530
55243W        W23584  28.463  34.556   1.410
55244W        W23585  42.303  11.201   4.231
55245W        W23586  15.104   1.971   1.806
55246W        W23587  26.197  30.596  12.475
55247W        W23588  36.863  17.090   3.794
55248W        W23589  13.809  38.077   2.234
55249W        W23590  11.799  44.847  10.970
55250W        W23591  20.137  17.070   2.375
55251W        W23592  20.116  26.492  10.100
55252W        W23593  11.212  13.808  11.508
55253W        W23594  32.989   7.310   1.787
55254W        W23595  38.532  26.175   2.753
55255W        W23596  43.341   5.207  14.966
55256W        W23597  16.593   4.338   0.886
55257W        W23598  31.969  34.024   4.717
55258W        W23599  37.567  34.401  13.032
55259W        W23600  12.630  43.897   0.373
55260W        W23601  11.242  33.540   1.241
55261W        W23602  24.222  38.834  11.441
55262W        W23603   7.788  36.372   3.267
55263W        W23604  24.035  29.958  11.552
55264W        W23605  35.943  36.353  11.886
55265W        W23606  37.845   4.838   4.257
55266W        W23607  40.932  18.574   4.279
55267W        W23608  18.211   6.242   2.762
55268W        W23609   8.879  33.482   5.210
55269W        W23610  35.394  18.596  13.432
55270W        W23611  16.239  27.946  10.588
55271W        W23612   1.298  36.347   3.277
55272W        W23613  32.469  15.203  11.033
55273W        W23614   8.719  27.604   2.322
55274W        W23615  27.940  23.638   3.291
55275W        W23616  29.468   6.859  14.887
55276W        W23617   5.917  40.862   0.857
55277W        W23618  33.504  25.965   4.218
55278W        W23619  25.581  13.167   4.246
55279W        W23620   0.373  27.040   4.706
55280W        W23621   6.354  18.076   1.362
55281W        W23622  17.096  36.843   3.629
55282W        W23623  27.539  16.665   0.962
55283W        W23624  26.601  44.911   3.743
55284W        W23625  30.992   9.343   4.305
55285W        W23626  18.604  13.191   3.372
55286W        W23627  19.779  10.733  12.946
55287W        W23628  40.484  26.554  13.820
55288W        W23629  41.924  27.579   3.719
55289W        W23630   9.732  35.880  14.916
55290W        W23631  44.753   0.837  14.945
55291W        W23632  22.173  18.771   1.879
55292W        W23633  40.949  35.106  14.897
55293W        W23634  24.676  36.072   2.251
55294W        W23635  12.666  11.663  13.373
55295W        W23636  39.404   1.358   3.706
55296W        W23637  17.169  36.859  12.476
55297W        W23638   9.669  44.776  14.499
55298W        W23639  36.426   5.779  13.925
55299W        W23640  36.899  15.163  12.011
55300W        W23641  12.673  20.253  12.515
55301W        W23642   1.394   1.770  13.849
55302W        W23643  10.167   7.891  11.045
55303W        W23644  20.108  11.790   2.880
55304W        W23645  34.541   1.753  11.857
55305W        W23646   8.208  40.360  11.002
55306W        W23647   3.261  36.484   0.966
55307W        W23648  38.037  34.476  14.383
55308W        W23649   5.272  15.782   3.852
55309W        W23650  10.762  29.166  11.396
55310W        W23651   6.688  19.217  10.912
55311W        W23652  42.911  36.441  12.455
55312W        W23653  16.072   1.740  12.364
55313W        W23654  19.097   6.843   0.480
55314W        W23655  18.154  41.491  11.418
55315W        W23656  37.375  43.293   2.695
55316W        W23657  31.421  22.643   1.317
55317W        W23658  28.529  44.472  11.976
55318W        W23659   1.291  44.892   0.880
55319W        W23660  18.705  18.157   1.932
55320W        W23661  32.500   4.251   0.326
55321W        W23662   0.480  22.019  10.626
55322W        W23663  10.814  36.569   3.371
55323W        W23664  12.312  26.484  11.934
55324W        W23665  42.997  26.952  12.049
55325W        W23666  44.278  35.403   2.760
55326W        W23667  21.181   4.339   2.178
55327W        W23668  17.257  30.154  14.980
55328W        W23669  26.039   7.666  12.077
55329W        W23670   7.883   1.913   1.731
55330W        W23671  27.486  33.984  14.499
55331W        W23672  13.272  15.792   5.302
55332W        W23673  16.194  31.486   0.956
55333W        W23674  14.164   6.693   2.673
55334W        W23675  24.584   1.315  12.913
55335W        W23676  16.682  15.124  12.346
55336W        W23677   1.920  34.521  13.503
55337W        W23678  44.767  39.998   3.186
55338W        W23679   6.714  38.421  10.444
55339W        W23680   6.747   4.736   0.338
55340W        W23681  41.001  10.811  13.025
55341W        W23682  20.151  34.394   4.130
55342W        W23683  30.470  31.986   1.252
55343W        W23684  24.669   6.714   0.770
55344W        W23685  44.824  26.102   2.826
55345W        W23686  15.654  23.597  12.850
55346W        W23687  28.452  20.059   3.325
55347W        W23688  29.966  25.653   3.286
55348W        W23689   3.455  11.787   2.201
55349W        W23690   7.809  13.341   0.312
55350W        W23691  38.031  23.120   4.326
55351W        W23692  25.675  24.693   0.314
55352W        W23693  23.170   0.436   0.927
55353W        W23694  37.511  17.283  11.076
55354W        W23695  16.281   5.872  11.533
55355W        W23696  38.425  13.163   0.932
55356W        W23697  17.154  38.959   1.225
55357W        W23698  11.820  42.874  12.051
55358W        W23699   3.266   3.882  11.126
55359W        W23700  35.373  34.938  10.536
55360W        W23701  42.822  43.504   1.917
55361W        W23702   0.482  11.652  12.075
55362W        W23703  33.491  12.771  12.540
55363W        W23704   1.759   8.825  10.497
55364W        W23705  36.857  24.015   3.749
55365W        W23706  42.876  22.599  11.920
55366W        W23707  13.846  10.814  12.561
55367W        W23708  17.676  35.453  13.951
55368W        W23709  29.174  11.715   2.380
55369W        W23710  24.194   3.734   1.389
55370W        W23711   4.942  42.471   3.781
55371W        W23712  28.022  17.260   3.157
55372W        W23713  20.105   3.432   1.826
55373W        W23714  15.803  30.923   3.847
55374W        W23715  17.702  15.253   4.679
55375W        W23716  20.721  29.016  13.829
55376W        W23717  24.595  42.988   1.841
55377W        W23718  19.604  21.515   0.324
55378W        W23719  12.251  43.863  10.614
55379W        W23720  16.092  24.559   3.330
55380W        W23721  11.829  16.679  10.489
55381W        W23722  40.484  33.998  10.500
55382W        W23723  43.794  17.751   0.961
55383W        W23724  21.197  29.955  14.361
55384W        W23725  10.645  15.303  11.495
55385W        W23726   3.767  12.636  13.374
55386W        W23727  40.389  36.481  12.969
55387W        W23728  28.119  10.741   1.861
55388W        W23729  34.100   8.380  12.529
55389W        W23730   5.745  16.237   1.326
55390W        W23731  32.535  39.464  10.045
55391W        W23732  13.112  37.465  11.404
55392W        W23733   2.847  39.493   0.472
55393W        W23734  21.635  37.462  12.429
55394W        W23735  29.522  27.560  12.449
55395W        W23736  19.776  20.721  10.612
55396W        W23737  17.617  16.630   4.681
55397W        W23738  35.986   9.745   2.245
55398W        W23739  29.654  10.843   1.323
55399W        W23740  43.958  31.564  13.862
55400W        W23741   0.811  22.536   5.231
55401W        W23742  43.767  30.150  11.890
55402W        W23743  33.382  28.556  14.384
55403W        W23744  18.636  19.714  14.787
55404W        W23745   5.711  34.103   3.836
55405W        W23746  34.523  29.008   0.920
55406W        W23747  35.959  35.895  10.465
55407W        W23748  10.234   6.312  12.955
55408W        W23749  10.699  19.708  13.013
55409W        W23750  11.657  42.956  14.942
55410W        W23751  10.266  36.949   0.831
55411W        W23752  43.353  20.646   3.796
55412W        W23753   3.308  10.768  11.565
55413W        W23754  35.046   4.368   0.849
55414W        W23755  30.505  23.082  12.891
55415W        W23756  43.388  17.643   1.749
55416W        W23757   0.773  36.441   4.183
55417W        W23758   9.156  38.074   4.123
55418W        W23759  32.504  31.528  12.939
55419W        W23760  41.435   9.327  10.406
55420W        W23761  33.542  10.768  12.052
55421W        W23762  39.889  10.828  10.984
55422W        W23763  26.078  29.475  11.560
55423W        W23764  14.635  26.194  11.116
55424W        W23765   9.215  43.380   2.776
55425W        W23766   7.884   1.859   2.815
55426W        W23767  40.887  32.032   1.826
55427W        W23768   4.723  27.492  10.496
55428W        W23769  21.101  40.865   4.245
55429W        W23770  27.616  17.597   0.409
55430W        W23771   8.788  30.067   4.312
55431W        W23772  28.505  22.589   0.898
55432W        W23773  42.908  25.526  11.467
55433W        W23774  15.639  10.231   4.620
55434W        W23775  26.662  19.174  13.501
55435W        W23776  42.784  32.953  11.510
55436W        W23777  40.839   4.747   1.908
55437W        W23778  10.715  32.541  12.446
55438W        W23779  27.061  14.265   0.399
55439W        W23780  26.531  37.451   2.820
55440W        W23781   5.313  15.134   3.375
55441W        W23782   9.818   1.314   2.723
55442W        W23783   5.373  32.921   1.369
55443W        W23784  10.664  37.939  10.469
55444W        W23785  44.336  27.056  12.376
55445W        W23786  42.493  33.467   3.203
55446W        W23787   9.719  38.534   0.776
55447W        W23788  10.767  28.506  12.885
55448W        W23789   8.759   3.293  14.983
55449W        W23790  28.591  20.203  10.911
55450W        W23791  37.990   5.360   1.841
55451W        W23792  14.689  11.709  10.942
55452W        W23793  33.541  13.180  12.880
55453W        W23794  32.509  42.819  13.330
55454W        W23795  40.547  11.789  11.416
55455W        W23796   2.877  30.964   4.123
55456W        W23797  34.924  33.485   4.255
55457W        W23798  43.836   4.824  11.085
55458W        W23799  14.759   1.259  14.417
55459W        W23800  18.703   7.840  10.616
55460W        W23801  19.566  10.238   2.395
55461W        W23802  18.771   8.692   4.813
55462W        W23803  34.489  13.713  10.550
55463W        W23804  36.576  17.247   4.668
55464W        W23805  16.105  14.748  12.525
55465W        W23806  18.170   9.801  11.907
55466W        W23807  31.059   5.394  12.086
55467W        W23808  21.182  42.792   0.271
55468W        W23809   9.714  16.783  11.420
55469W        W23810  36.971  36.912  11.410
55470W        W23811  23.190  16.164  12.571
55471W        W23812  26.594  33.617  10.513
55472W        W23813   6.201  38.873   1.380
55473W        W23814  35.989  16.265  10.985
55474W        W23815   1.312  16.626   3.722
55475W        W23816   5.349   5.725   1.369
55476W        W23817  32.633  43.372   3.646
55477W        W23818  20.550  21.696  14.380
55478W        W23819   9.264  34.425   2.413
55479W        W23820  41.790  44.472   5.200
55480W        W23821  38.927   1.773  10.924
55481W        W23822   6.749   4.726  12.364
55482W        W23823   2.724   0.276  12.051
55483W        W23824   2.374   8.710   1.912
55484W        W23825   1.289   6.732   4.184
55485W        W23826  29.028  31.046  12.891
55486W        W23827  37.975  30.464   4.811
55487W        W23828  28.989   8.731   1.855
55488W        W23829  31.998  23.661  11.954
55489W        W23830   7.729   6.744   2.260
55490W        W23831  41.853   5.742   4.194
55491W        W23832  29.543   5.355  11.941
55492W        W23833  20.064  39.896   3.702
55493W        W23834  10.653   1.244  12.469
55494W        W23835  22.212  25.555   4.784
55495W        W23836   8.851  38.063  10.414
55496W        W23837   2.883  20.767  11.544
55497W        W23838  28.946  40.991  12.960
55498W        W23839  19.132  20.713  13.324
55499W        W23840  32.991  26.636   2.314
55500W        W23841  15.673  25.033   9.957
55501W        W23842  18.550  29.017   2.202
55502W        W23843  38.483   6.419   1.882
55503W        W23844  13.745  30.485  12.077
55504W        W23845  11.226   6.860   3.758
55505W        W23846  20.178  24.488   1.805
55506W        W23847  38.489  16.632   4.703
55507W        W23848   4.788  32.072  12.352
55508W        W23849  40.421  33.422   3.296
55509W        W23850  16.314  33.996   1.931
55510W        W23851  13.681  34.045  11.523
55511W        W23852  14.107  32.927  12.057
55512W        W23853  41.849   5.780  13.830
55513W        W23854  27.147  40.879  12.070
55514W        W23855  12.826  31.114   4.160
55515W        W23856  13.622  34.560   1.412
55516W        W23857  31.036  21.559   4.243
55517W        W23858  23.241   7.676  13.055
55518W        W23859  34.985  34.114   2.856
55519W        W23860   3.717  16.262  10.950
55520W        W23861   4.305  29.946   1.852
55521W        W23862   0.830  28.547  12.509
55522W        W23863  21.737  25.672  10.991
55523W        W23864   8.378  36.014  10.957
55524W        W23865   7.778   0.964   2.373
55525W        W23866  39.040   6.840   0.269
55526W        W23867  39.492  26.513   4.146
55527W        W23868  22.097  22.223  11.922
55528W        W23869  42.399  14.632  13.382
55529W        W23870  41.382  29.655   2.893
55530W        W23871  21.538   8.779   4.189
55531W        W23872  41.820  38.033  10.991
55532W        W23873   7.341  33.984  14.426
55533W        W23874   5.776  17.307   0.248
55534W        W23875  17.267  34.612   1.346
55535W        W23876  11.368   7.295   1.793
55536W        W23877  15.751  28.488  12.477
55537W        W23878  12.170   1.269   4.716
55538W        W23879  27.623  21.092   0.327
55539W        W23880  16.699  34.407  10.101
55540W        W23881  14.261  36.361   1.290
55541W        W23882   2.838  13.666   4.704
55542W        W23883   7.388  14.262   1.756
55543W        W23884  35.521   0.951  14.292
55544W        W23885  39.049  18.561  12.497
55545W        W23886   8.775   3.949   2.821
55546W        W23887  14.665  25.698   2.364
55547W        W23888  42.482  27.495   0.397
55548W        W23889  17.580  36.994   4.700
55549W        W23890  28.091  36.062   1.774
55550W        W23891   9.386  40.512   0.426
55551W        W23892  40.536   3.444   0.792
55552W        W23893  34.002  31.511   1.892
55553W        W23894  36.888   3.823  12.882
55554W        W23895  25.676   4.874   3.734
55555W        W23896  17.764  29.016   2.869
55556W        W23897  39.474   7.395  11.561
55557W        W23898  23.679  30.153   1.309
55558W        W23899  23.706  12.309   1.441
55559W        W23900   1.810  25.483   3.716
55560W        W23901  43.942  28.518   2.699
55561W        W23902   3.422  27.073  10.624
55562W        W23903  27.448   5.770   1.363
55563W        W23904  27.599  10.836   1.906
55564W        W23905  21.623  41.479   2.731
55565W        W23906  27.145  25.149   0.360
55566W        W23907  21.220  19.233   5.123
55567W        W23908  19.707   4.839  12.986
55568W        W23909  13.620  18.210  11.531
55569W        W23910  13.668  23.704   3.171
55570W        W23911   4.326  43.780  11.547
55571W        W23912  14.176  34.946   5.142
55572W        W23913  35.077  34.987   3.228
55573W        W23914  16.615   9.313   2.234
55574W        W23915  28.538  17.235   1.363
55575W        W23916   7.184  36.966  12.497
55576W        W23917  10.147  13.278  13.392
55577W        W23918  15.266  36.989   1.806
55578W        W23919  32.502  22.044  12.917
55579W        W23920  11.861   9.737   1.381
55580W        W23921  20.105  20.599   3.783
55581W        W23922  28.465   3.742   0.363
55582W        W23923   8.756  15.091   1.365
55583W        W23924  24.187   7.305   4.837
55584W        W23925  37.459  12.776  11.406
55585W        W23926   9.690  40.823   1.713
55586W        W23927   1.412   6.405  12.508
55587W        W23928  36.426  14.194   4.643
55588W        W23929  25.512   8.696   3.293
55589W        W23930  31.963  42.493   4.809
55590W        W23931  27.113   6.844   2.772
55591W        W23932  34.499  28.479   1.241
55592W        W23933  14.806  38.536  11.004
55593W        W23934  11.157  19.743  13.811
55594W        W23935  31.964  10.287   3.380
55595W        W23936  29.053  42.467  12.521
55596W        W23937  13.740  38.380  12.015
55597W        W23938  27.672  30.082  11.604
55598W        W23939  43.454  25.654   0.254
55599W        W23940  23.527  29.051   1.819
55600W        W23941  15.196  23.080   4.282
55601W        W23942  33.598  13.123  11.109
55602W        W23943  33.062   5.403  14.319
55603W        W23944   0.326  44.451  11.982
55604W        W23945  19.587  29.097   0.261
55605W        W23946  18.714  38.471   0.921
55606W        W23947   5.346  20.042   2.226
55607W        W23948  19.626   5.717  10.453
55608W        W23949  31.949  42.851   3.348
55609W        W23950   7.805  36.497  13.420
55610W        W23951  36.993  42.317   2.797
55611W        W23952  13.740  34.528   3.181
55612W        W23953   8.841   0.351  14.868
55613W        W23954   2.754  16.265   4.284
55614W        W23955   8.694  21.585  14.420
55615W        W23956  13.681  23.036   0.379
55616W        W23957   9.188  10.202  13.336
55617W        W23958  35.919   2.721   4.663
55618W        W23959  30.033  18.062   0.309
55619W        W23960  42.318  12.284  12.957
55620W        W23961  40.476  26.054   2.734
55621W        W23962  31.945  37.047   4.136
55622W        W23963  13.215  30.498   4.323
55623W        W23964  26.665  27.481  11.048
55624W        W23965  21.743  29.635   3.262
55625W        W23966  23.562   0.386   0.391
55626W        W23967  31.634  13.311  11.094
55627W        W23968   1.786   1.475   0.433
55628W        W23969  42.823  36.586   1.346
55629W        W23970  42.304  21.659   4.318
55630W        W23971   7.354  20.205   4.658
55631W        W23972   9.241   2.767  11.003
55632W        W23973  43.017   7.806   5.153
55633W        W23974  32.089  19.697   0.801
55634W        W23975  37.530   0.442  11.487
55635W        W23976  36.905   5.244  13.516
55636W        W23977  27.573   5.246   4.226
55637W        W23978  33.966  33.896   0.741
55638W        W23979  14.250  16.701  11.520
55639W        W23980  15.797  13.838   1.848
55640W        W23981  29.122  12.813   1.357
55641W        W23982  16.246  42.993  14.921
55642W        W23983  12.321  32.537   4.298
55643W        W23984  39.826  32.542  13.874
55644W        W23985   1.849   1.965  14.428
55645W        W23986   7.693  13.125   4.683
55646W        W23987  42.012  44.753   2.694
55647W        W23988  31.035  44.390   0.785
55648W        W23989   2.380  23.630  14.990
55649W        W23990   8.900   4.418   1.868
55650W        W23991  40.326  37.480  10.925
55651W        W23992  34.577  35.580  13.798
55652W        W23993  12.193  36.573   1.338
55653W        W23994  22.744  22.533   0.952
55654W        W23995  11.857  12.814  12.470
55655W        W23996   6.758  20.149   3.289
55656W        W23997  13.325  26.620   0.417
55657W        W23998  19.231  36.567   0.742
55658W        W23999  42.453  25.645   0.737
55659W        W24000  12.327  28.046  14.774
55660W        W24001   7.186  36.079   3.787
55661W        W24002  28.014  15.274  13.856
55662W        W24003  34.931  29.934   4.664
55663W        W24004  29.606  21.074   3.292
55664W        W24005  40.946  20.194  11.904
55665W        W24006   3.922  22.686  10.410
55666W        W24007  32.060   7.234  14.983
55667W        W24008   1.972  42.440  13.877
55668W        W24009   4.942   7.812   3.695
55669W        W24010  27.527  28.538  10.455
55670W        W24011  14.612  30.059  12.976
55671W        W24012  35.989  14.656  11.098
55672W        W24013  31.524   5.214  13.339
55673W        W24014  15.633  44.498  14.335
55674W        W24015   6.221  38.465   2.788
55675W        W24016   4.377  42.974  13.843
55676W        W24017  29.628  39.494   0.824
55677W        W24018  25.146   7.192   3.183
55678W        W24019   1.816  19.538  11.510
55679W        W24020  12.743  36.978   0.284
55680W        W24021  19.685   0.765   3.652
55681W        W24022  26.533  18.091   1.232
55682W        W24023   7.719  30.935  14.308
55683W        W24024  44.829  38.559  14.471
55684W        W24025  29.657   8.854  11.071
55685W        W24026  42.366  28.125   3.349
55686W        W24027  38.529  33.528   3.870
55687W        W24028  23.708  42.986   0.802
55688W        W24029   4.749  34.504  12.883
55689W        W24030  35.525  22.063  12.979
55690W        W24031  33.610  26.976   2.324
55691W        W24032  29.170   3.416   2.681
55692W        W24033  25.622   8.712   4.320
55693W        W24034  43.909  26.671   2.752
55694W        W24035  40.364  39.449   2.273
55695W        W24036  36.522  34.452  12.026
55696W        W24037   8.795  12.245  10.022
55697W        W24038  15.670  15.092  13.011
55698W        W24039  35.601  38.051  11.988
55699W        W24040  38.473   0.951   3.360
55700W        W24041   0.283  31.096   4.698
55701W        W24042  19.167  33.926   0.442
55702W        W24043  19.069   3.235   2.716
55703W        W24044  32.908  10.356   4.135
55704W        W24045  24.657  24.602   4.303
55705W        W24046  13.710  13.788  12.944
55706W        W24047  42.812  21.698  14.870
55707W        W24048  33.126  34.556   1.893
55708W        W24049  12.741  39.951   1.235
55709W        W24050  25.158   7.891   2.795
55710W        W24051   2.904  17.736   2.812
55711W        W24052  17.770   5.827   3.308
55712W        W24053   2.767  41.816   2.697
55713W        W24054  37.386  18.764   2.738
55714W        W24055  13.832  20.176   1.310
55715W        W24056  20.261  25.708   4.604
55716W        W24057  41.964  44.499  14.863
55717W        W24058   6.774  38.353  12.908
55718W        W24059  43.294   8.832   3.255
55719W        W24060  25.620  21.187   3.635
55720W        W24061  15.279  28.513   3.273
55721W        W24062  18.121  35.516  12.918
55722W        W24063  42.964  14.241  10.638
55723W        W24064   6.838  14.231  14.438
55724W        W24065  11.760  19.110   0.787
55725W        W24066   7.910  31.481   4.304
55726W        W24067  26.951  40.824   0.301
55727W        W24068  33.414  24.174  11.469
55728W        W24069  42.800   2.758   0.828
55729W        W24070   5.865  10.268  13.826
55730W        W24071  17.659  22.164  12.861
55731W        W24072  10.877   0.471   0.739
55732W        W24073   3.924  18.728  14.813
55733W        W24074  32.633  43.478  11.858
55734W        W24075  40.549  38.558   3.655
55735W        W24076  21.536  27.030   1.239
55736W        W24077  34.006   0.419  12.871
55737W        W24078   3.398  28.179   2.740
55738W        W24079  14.632   2.830  10.530
55739W        W24080   4.272  38.823   1.836
55740W        W24081  33.882  19.617  13.484
55741W        W24082  41.507  17.745  12.843
55742W        W24083   1.284   2.232  12.977
55743W        W24084   7.367  15.104   0.961
55744W        W24085  14.294  33.046   4.285
55745W        W24086  30.096  43.833  14.890
55746W        W24087   1.323  33.010  12.433
55747W        W24088  32.455  16.733   4.663
55748W        W24089  21.523  24.687  12.396
55749W        W24090   0.917  34.604   3.379
55750W        W24091  20.053  31.620   3.362
55751W        W24092  41.329  30.526   2.732
55752W        W24093  19.201  16.160  11.510
55753W        W24094  39.870  43.444   3.321
55754W        W24095   0.897  19.665   1.313
55755W        W24096  26.589  38.412  14.026
55756W        W24097   1.479  18.135  12.865
55757W        W24098   6.184   3.359  14.952
55758W        W24099   4.853  30.534   0.364
55759W        W24100  23.096  19.145  14.374
55760W        W24101   3.791  38.365  13.814
55761W        W24102  15.668  14.748  14.371
55762W        W24103  16.649   3.823   4.250
55763W        W24104   0.307  10.844   4.245
55764W        W24105  20.161  34.383  10.000
55765W        W24106   8.790  18.588  13.355
55766W        W24107  41.337  44.794   1.856
55767W        W24108  25.094  20.200  12.362
55768W        W24109   3.731  11.837   0.372
55769W        W24110   1.278  21.231   3.690
55770W        W24111  17.616  29.618   2.895
55771W        W24112   4.326   9.845   3.215
55772W        W24113  13.721  38.353   9.964
55773W        W24114  42.847   4.266   1.725
55774W        W24115  34.111  21.087   2.851
55775W        W24116  29.959  26.187   2.773
55776W        W24117   3.330   9.369   4.745
55777W        W24118  24.517  25.713  13.506
55778W        W24119  26.652   8.829  14.501
55779W        W24120  39.512  11.781   1.222
55780W        W24121  44.770   7.757  10.570
55781W        W24122  36.946  16.683   4.630
55782W        W24123  23.694  25.656  11.382
55783W        W24124  15.689  14.172  13.869
55784W        W24125  29.011  40.811  14.411
55785W        W24126  30.566  24.973   2.216
55786W        W24127  11.190  10.878  12.441
55787W        W24128   7.376  28.659   0.371
55788W        W24129  17.562  42.375   4.335
55789W        W24130  16.619   7.341   3.155
55790W        W24131  26.027  29.521   3.831
55791W        W24132  36.407   8.723   3.820
55792W        W24133  32.002  18.643   3.803
55793W        W24134  33.597  26.063   1.385
55794W        W24135  15.586   4.338  14.840
55795W        W24136  21.605  36.579  11.939
55796W        W24137  31.488  25.084  10.972
55797W        W24138  29.144  36.000   2.313
55798W        W24139  29.423  23.154   0.458
55799W        W24140  22.065  41.945   1.923
55800W        W24141  32.405  26.503   1.446
55801W        W24142   5.308  38.494  14.424
55802W        W24143  28.952  35.539   0.931
55803W        W24144   4.732  11.623  14.953
55804W        W24145   0.318  24.117  11.880
55805W        W24146  26.065  12.217  12.080
55806W        W24147  42.392   0.953  12.964
55807W        W24148  28.959  17.178  13.363
55808W        W24149  30.616   9.379   0.308
55809W        W24150  25.082  16.573  14.431
55810W        W24151   9.335  43.333  14.463
55811W        W24152  41.937  35.926  11.510
55812W        W24153  39.831  10.864  14.948
55813W        W24154  14.820  18.702   4.334
55814W        W24155  20.600  14.130  12.974
55815W        W24156  34.384   5.314  10.596
55816W        W24157  11.321  26.678   3.286
55817W        W24158  39.322  30.470  12.953
55818W        W24159  30.617  16.649   0.393
55819W        W24160  41.513  14.308  13.309
55820W        W24161  25.645  41.876   1.754
55821W        W24162   1.461  26.958   2.842
55822W        W24163  26.967   2.780  14.793
55823W        W24164  27.577  24.542   4.750
55824W        W24165  20.132  39.527   1.909
55825W        W24166  10.634  38.991   2.673
55826W        W24167  21.161  14.637  12.911
55827W        W24168  11.819  16.102  13.363
55828W        W24169  35.530  15.122   0.964
55829W        W24170   0.851  17.663  13.854
55830W        W24171  42.526   9.292  11.520
55831W        W24172  23.048  27.123  12.545
55832W        W24173  23.726  10.348  11.963
55833W        W24174   0.931  14.797   4.662
55834W        W24175  33.044   0.918   2.238
55835W        W24176  17.246   5.724   2.893
55836W        W24177  15.262   5.932   0.402
55837W        W24178  17.664   3.766   4.347
55838W        W24179  20.683  10.318  12.345
55839W        W24180  11.748  16.590   2.400
55840W        W24181  26.110  34.994   0.425
55841W        W24182  18.674  30.645  13.447
55842W        W24183  27.151  18.203   2.413
55843W        W24184   3.427  34.000   3.342
55844W        W24185  36.474  24.677   4.296
55845W        W24186  13.193  32.122  13.456
55846W        W24187  43.787  13.236  11.908
55847W        W24188  20.122  20.677  11.544
55848W        W24189  42.478  17.064   4.260
55849W        W24190  17.737  26.641   9.963
55850W        W24191  15.225  24.154  11.009
55851W        W24192   8.679   4.746  10.501
55852W        W24193  19.248  20.112   0.395
55853W        W24194  37.433  40.919  11.446
55854W        W24195  28.022  19.198  12.345
55855W        W24196  33.062   9.164   2.269
55856W        W24197   3.781   9.765  14.379
55857W        W24198  21.232  42.894  14.959
55858W        W24199  33.383  31.131  13.331
55859W        W24200  34.582  28.929   4.704
55860W        W24201   3.910  37.541  13.826
55861W        W24202  17.768   2.967   2.419
55862W        W24203   5.313  18.713  10.614
55863W        W24204  34.446  38.886  11.110
55864W        W24205  42.321  28.154   0.389
55865W        W24206  38.916  13.681   1.894
55866W        W24207  16.123  16.229   2.667
55867W        W24208  20.215   1.381  11.913
55868W        W24209  22.061   6.723   1.352
55869W        W24210  15.110  19.166   1.374
55870W        W24211  15.317  16.156   4.629
55871W        W24212  39.379   6.302   3.384
55872W        W24213  19.224  25.012  11.869
55873W        W24214  18.733  17.704  11.859
55874W        W24215  22.105   6.234   2.764
55875W        W24216   7.910  44.930  13.323
55876W        W24217  30.155  20.598  14.398
55877W        W24218  20.741  31.903   1.286
55878W        W24219  17.228   8.727   0.378
55879W        W24220  40.394  35.050   2.691
55880W        W24221  18.120  44.355  12.356
55881W        W24222   3.846   3.433  14.471
55882W        W24223   4.707   5.256   2.230
55883W        W24224   4.756  31.539  12.350
55884W        W24225  29.630   9.375   1.836
55885W        W24226   0.832  40.443  14.910
55886W        W24227  39.535  33.036  14.763
55887W        W24228  31.614  15.201   3.764
55888W        W24229  31.555   7.700  13.370
55889W        W24230  10.786   1.453  11.917
55890W        W24231  11.784  33.399  11.912
55891W        W24232  37.041  29.511   2.721
55892W        W24233  30.145   0.468   2.307
55893W        W24234  17.121  16.116  10.025
55894W        W24235  27.607  19.079   4.638
55895W        W24236   5.923   4.754  12.840
55896W        W24237  34.880  38.851  14.936
55897W        W24238  16.117   8.839  14.849
55898W        W24239  16.660   3.431  10.974
55899W        W24240  29.539  35.001   5.108
55900W        W24241   6.347  34.577  13.474
55901W        W24242  42.417  17.073  11.904
55902W        W24243  25.041  28.507   3.159
55903W        W24244   2.286  37.024  10.950
55904W        W24245  36.582   6.839  13.859
55905W        W24246   9.302  40.884   2.287
55906W        W24247  37.063  35.865   1.348
55907W        W24248  40.343  32.466   2.284
55908W        W24249   4.267  44.453   0.809
55909W        W24250  28.524  43.774  11.898
55910W        W24251   5.268  35.508   3.735
55911W        W24252  25.496  39.002  14.990
55912W        W24253  44.317   1.349   3.757
55913W        W24254  15.683  34.439   2.845
55914W        W24255  44.005   8.677  12.945
55915W        W24256   4.829  17.232   0.393
55916W        W24257  34.377  26.681   2.212
55917W        W24258  39.898   0.789   1.933
55918W        W24259  26.595  43.793   1.931
55919W        W24260  32.628   7.213  12.835
55920W        W24261  27.029  37.918  13.901
55921W        W24262  30.646   3.264  13.043
55922W        W24263   0.830  26.997   3.314
55923W        W24264  19.238  21.158   1.919
55924W        W24265  13.734  41.292   1.892
55925W        W24266  32.115   8.788  13.938
55926W        W24267  42.926  11.783  13.345
55927W        W24268  21.570   0.446  11.512
55928W        W24269  39.543  32.487   1.908
55929W        W24270  30.038  21.673  10.610
55930W        W24271  41.891  26.059  11.018
55931W        W24272   7.172  28.122   0.303
55932W        W24273  24.605  27.655   5.217
55933W        W24274  38.510  17.256  12.466
55934W        W24275   9.869  23.141   2.718
55935W        W24276  27.950  32.902  14.932
55936W        W24277  29.484  39.849  13.878
55937W        W24278  12.713   5.333   2.294
55938W        W24279  42.021  44.877   4.637
55939W        W24280   7.710  15.228  10.510
55940W        W24281  16.792  34.927   0.967
55941W        W24282  26.970  13.737   2.848
55942W        W24283   5.253  33.427  13.985
55943W        W24284  34.100   4.435  13.406
55944W        W24285   0.286  44.009   1.316
55945W        W24286  10.227  18.631  14.298
55946W        W24287  27.524   2.746   1.232
55947W        W24288  24.999  10.699   3.175
55948W        W24289   1.975  39.339   0.735
55949W        W24290   3.884  26.099  12.422
55950W        W24291  38.570  37.469  13.431
55951W        W24292   2.414  29.112   2.745
55952W        W24293  40.438  29.550   1.828
55953W        W24294  22.121   4.307  14.921
55954W        W24295   7.801   6.315  14.854
55955W        W24296   0.288  34.870   3.712
55956W        W24297  14.095  24.163  13.953
55957W        W24298  11.350  33.477   0.899
55958W        W24299  21.154  36.081  12.825
55959W        W24300  44.375  38.535  13.808
55960W        W24301  29.552  29.924   4.137
55961W        W24302  27.532  15.157  10.505
55962W        W24303  16.188  31.533  12.374
55963W        W24304  31.423   1.851   0.436
55964W        W24305  34.465  13.698  12.914
55965W        W24306  14.141  26.050   4.277
55966W        W24307  24.651  42.928   3.701
55967W        W24308  21.745   2.936  10.485
55968W        W24309  17.718  22.580  10.536
55969W        W24310   2.896  32.471  14.025
55970W        W24311  36.889  11.227  14.008
55971W        W24312   2.879   6.282   1.875
55972W        W24313  25.166  12.770  12.559
55973W        W24314  38.571   2.913  12.846
55974W        W24315  36.370  10.144   1.246
55975W        W24316  36.431  18.607  12.552
55976W        W24317  10.251  18.131  11.461
55977W        W24318   6.203  29.605   4.687
55978W        W24319   6.892  12.776   0.796
55979W        W24320  40.407  38.503  12.867
55980W        W24321   9.718   9.341  12.938
55981W        W24322   9.740  22.725   1.846
55982W        W24323   9.394  33.396   2.337
55983W        W24324  42.907  14.250  14.026
55984W        W24325  11.826  35.496   1.803
55985W        W24326  18.284   6.774  13.797
55986W        W24327   2.370  26.603   0.424
55987W        W24328  36.364   4.318  11.500
55988W        W24329  37.871  29.081   1.893
55989W        W24330  36.401   3.265   2.821
55990W        W24331   7.303   6.695  12.860
55991W        W24332  17.615  17.232   2.668
55992W        W24333  30.997  16.591   1.256
55993W        W24334  41.506   0.986   3.235
55994W        W24335  42.475  11.680  11.127
55995W        W24336  14.746  31.028   1.931
55996W        W24337  37.037  38.996   4.162
55997W        W24338  29.130  13.682   1.741
55998W        W24339   0.347  13.265   2.718
55999W        W24340  21.686  11.741  12.980
56000W        W24341  29.432  13.120   3.188
56001W        W24342  41.294   1.961   4.649
56002W        W24343  22.032   8.259  10.919
56003W        W24344   1.817  12.704   4.811
56004W        W24345  38.823  43.875   0.799
56005W        W24346  29.427  25.613   0.959
56006W        W24347  36.945  25.701   1.425
56007W        W24348  39.884  35.489  10.437
56008W        W24349   2.317  12.116   3.748
56009W        W24350   2.320  27.114   4.623
56010W        W24351  22.532  23.537  10.443
56011W        W24352   9.668  38.946  12.468
56012W        W24353  17.679  36.592   0.829
56013W        W24354  21.645  23.522  12.029
56014W        W24355  12.671  16.778   1.698
56015W        W24356   2.754  43.966  11.457
56016W        W24357  17.176  23.595   4.654
56017W        W24358   9.743  29.100  10.408
56018W        W24359  40.374   1.928  12.354
56019W        W24360  35.586  39.843  11.527
56020W        W24361  27.574   5.334   0.855
56021W        W24362  22.637  44.886   1.927
56022W        W24363  38.481  15.175  14.488
56023W        W24364  31.444   6.221   0.808
56024W        W24365  20.032  28.008   1.343
56025W        W24366  12.629  14.231   3.768
56026W        W24367  13.681  22.128   0.968
56027W        W24368  29.428  14.798  11.449
56028W        W24369  31.574  25.503   4.788
56029W        W24370  27.035  11.743   3.704
56030W        W24371  26.633   2.856  12.831
56031W        W24372   2.442  19.652  10.073
56032W        W24373   8.321  13.800  12.023
56033W        W24374  31.115   1.355  10.949
56034W        W24375  41.801  36.454  14.496
56035W        W24376  24.564  18.120   5.094
56036W        W24377   6.772  41.456  12.955
56037W        W24378  20.570  39.940  13.055
56038W        W24379  41.396  21.527  13.907
56039W        W24380  24.640   9.695  11.425
56040W        W24381   0.303   2.910  13.438
56041W        W24382  14.169   4.811   1.771
56042W        W24383  20.585  21.707  13.518
56043W        W24384   1.270  24.205   3.210
56044W        W24385  37.369  33.551  12.365
56045W        W24386  42.940  39.556  11.104
56046W        W24387  15.129  37.438   2.755
56047W        W24388   7.903  30.632  12.903
56048W        W24389  29.000  31.093  11.069
56049W        W24390  17.697   2.357   2.682
56050W        W24391  34.000  33.928   1.718
56051W        W24392  40.316   1.862   2.675
56052W        W24393   5.227  14.753  12.053
56053W        W24394   4.306  23.519   0.810
56054W        W24395   0.403  20.163   3.255
56055W        W24396  32.939   1.421   2.737
56056W        W24397  25.606  20.563  10.932
56057W        W24398  17.206  15.169   0.332
56058W        W24399  23.609   7.675  14.418
56059W        W24400  40.501   0.929   0.749
56060W        W24401  25.962  28.440  12.438
56061W        W24402  16.158   8.768   3.791
56062W        W24403  16.236   5.288  14.935
56063W        W24404  33.409  19.638  12.926
56064W        W24405  32.621  26.989   1.372
56065W        W24406   6.919  44.920   2.197
56066W        W24407   2.384  33.066   3.789
56067W        W24408  28.064  40.970   1.450
56068W        W24409   2.364  16.286  11.546
56069W        W24410  19.724   1.246  14.423
56070W        W24411  22.703  12.718   3.340
56071W        W24412   4.203  31.977   4.169
56072W        W24413  12.348  36.558  12.853
56073W        W24414  10.849   1.801   5.291
56074W        W24415  10.675   2.726   4.125
56075W        W24416  40.914  43.885   0.752
56076W        W24417  20.185  25.059  13.002
56077W        W24418  42.818  38.846  12.052
56078W        W24419  17.067  37.978  10.420
56079W        W24420   8.365  34.552  13.886
56080W        W24421   5.371  33.887  12.939
56081W        W24422  20.523  26.035   0.837
56082W        W24423  14.693  17.144  13.505
56083W        W24424  30.521  28.060   0.877
56084W        W24425  43.383  13.649   4.826
56085W        W24426  32.058   3.428  10.014
56086W        W24427  37.467  33.021  12.828
56087W        W24428  41.306  32.053   3.820
56088W        W24429  16.655  37.078   4.209
56089W        W24430  12.301   3.954   3.845
56090W        W24431  34.905   4.432   1.760
56091W        W24432  16.264  35.048  11.448
56092W        W24433  18.234  29.951  10.917
56093W        W24434  16.140  36.929   4.749
56094W        W24435   4.270  27.647  13.453
56095W        W24436  21.214  32.992   9.942
56096W        W24437  20.228  37.895   1.446
56097W        W24438  20.595  25.991   3.820
56098W        W24439   5.288  13.759   4.611
56099W        W24440   0.421   7.910   2.737
56100W        W24441  28.936  36.510  12.849
56101W        W24442   1.426  10.673   3.370
56102W        W24443   9.672  13.716  11.393
56103W        W24444  14.262  14.751  13.928
56104W        W24445  23.589  14.592   4.617
56105W        W24446  29.552  40.843  10.504
56106W        W24447   7.806  34.098  14.392
56107W        W24448   7.246   6.252   0.311
56108W        W24449  16.184  41.025  14.394
56109W        W24450   3.297  40.999  11.612
56110W        W24451  40.872  44.443   4.161
56111W        W24452   9.171  20.607   4.672
56112W        W24453   1.888  40.339  14.333
56113W        W24454  20.732  26.087   1.428
56114W        W24455  15.176   7.309  11.891
56115W        W24456   0.859  31.496  13.420
56116W        W24457  14.756  35.595   0.792
56117W        W24458  24.563   9.757  14.834
56118W        W24459  25.074  16.160   2.865
56119W        W24460  20.557   0.321   4.202
56120W        W24461  39.454  28.501   3.282
56121W        W24462  35.452  24.637   2.797
56122W        W24463   1.787  35.880  14.286
56123W        W24464   0.460  22.665   1.246
56124W        W24465  34.021  14.252   1.856
56125W        W24466  22.534  37.865   4.698
56126W        W24467   7.833   3.855   2.821
56127W        W24468  26.971  39.951  12.010
56128W        W24469  14.243  35.557  11.935
56129W        W24470  26.486  34.614   1.696
56130W        W24471  35.552  31.620  14.993
56131W        W24472  30.989  42.877  12.488
56132W        W24473   1.827  14.292  10.972
56133W        W24474  44.377   7.241   5.287
56134W        W24475  30.987  18.241  10.613
56135W        W24476  12.218  42.313   1.237
56136W        W24477  33.119  41.929   9.946
56137W        W24478  38.533  29.571   3.178
56138W        W24479   7.232  30.432   4.220
56139W        W24480  27.653  36.386  13.881
56140W        W24481  23.144  14.682   1.363
56141W        W24482   0.434  17.259  13.536
56142W        W24483   6.188  10.160  10.945
56143W        W24484  13.283  16.717  14.786
56144W        W24485  12.793  23.127  14.429
56145W        W24486   5.346  37.343  13.818
56146W        W24487   9.694  39.919   4.838
56147W        W24488  39.552  37.529  14.854
56148W        W24489  40.456  16.099  12.385
56149W        W24490   4.836  28.102  11.966
56150W        W24491  34.561  35.601  10.969
56151W        W24492  43.307  13.838   1.220
56152W        W24493  44.304  35.953   5.199
56153W        W24494  36.934  18.168   2.842
56154W        W24495  23.679  43.453   0.416
56155W        W24496  21.225  14.123  14.002
56156W        W24497  17.724   2.770  11.398
56157W        W24498  27.014  10.270   1.820
56158W        W24499   9.156   3.294   4.151
56159W        W24500  37.060  21.549  14.390
56160W        W24501  11.633  29.131  12.894
56161W        W24502   4.840  31.949  14.913
56162W        W24503  30.499  22.024   2.386
56163W        W24504  20.665  28.540  12.897
56164W        W24505  25.503  27.645  13.355
56165W        W24506   6.800  26.579  14.819
56166W        W24507  20.631  12.341  13.922
56167W        W24508  20.106  19.738  12.010
56168W        W24509   8.187  12.147  13.047
56169W        W24510  32.892  19.063  13.992
56170W        W24511  24.528  38.507   3.210
56171W        W24512  25.065   3.850  11.459
56172W        W24513  33.108  21.573   3.375
56173W        W24514   3.723  29.075  12.399
56174W        W24515  37.008  32.560   3.278
56175W        W24516  44.394  36.589   4.348
56176W        W24517  17.588  12.814  14.458
56177W        W24518  41.871   8.287  10.616
56178W        W24519  37.997  38.848   3.702
56179W        W24520  12.622   6.740  11.501
56180W        W24521  35.436  19.111   0.410
56181W        W24522   4.314  38.547   4.173
56182W        W24523  22.151  43.279  11.610
56183W        W24524  12.774  34.386   2.817
56184W        W24525   2.423  29.022   1.377
56185W        W24526   7.834  36.370   3.754
56186W        W24527  28.126  22.091  14.439
56187W        W24528   0.305   0.437   4.691
56188W        W24529  14.803  11.766  13.995
56189W        W24530   4.730   3.819   2.747
56190W        W24531  17.128  35.905   0.351
56191W        W24532  29.521  18.206  14.018
56192W        W24533  14.825  40.849  12.968
56193W        W24534   5.199   8.879  11.922
56194W        W24535   1.362  30.153  11.905
56195W        W24536  24.606  42.893   3.162
56196W        W24537  41.467   9.817  10.471
56197W        W24538  38.909  22.570   0.813
56198W        W24539  42.292  36.518   1.314
56199W        W24540  16.612   2.323  11.980
56200W        W24541  11.743   7.809  12.829
56201W        W24542  38.904  16.686   0.743
56202W        W24543  35.552  33.935  12.450
56203W        W24544  19.744  44.365   3.636
56204W        W24545  30.028  28.457   1.289
56205W        W24546   0.420  40.910  11.079
56206W        W24547  42.780  30.971   0.269
56207W        W24548  21.183  34.095   4.281
56208W        W24549  19.613   9.186   2.349
56209W        W24550  21.065  26.989   1.412
56210W        W24551  24.105  33.587  10.490
56211W        W24552  18.729  29.984  11.580
56212W        W24553  33.882  40.324  12.381
56213W        W24554  19.054  30.127   0.418
56214W        W24555  32.066   4.933   2.351
56215W        W24556  25.179  25.970  12.005
56216W        W24557  42.482  29.926   1.730
56217W        W24558  13.205  24.074  14.007
56218W        W24559  12.122  32.063  10.423
56219W        W24560  42.508  18.063   4.147
56220W        W24561   2.427  39.062  12.570
56221W        W24562   7.701   5.378   4.642
56222W        W24563   5.774   8.399  13.866
56223W        W24564  33.504  42.370   0.311
56224W        W24565  21.074  20.760  14.441
56225W        W24566  16.654  38.451  14.440
56226W        W24567  35.434  21.731  14.479
56227W        W24568  36.355  17.667  11.439
56228W        W24569  39.850  17.746   4.648
56229W        W24570  34.076  23.679   3.262
56230W        W24571  24.516  38.830  13.046
56231W        W24572  13.172  20.155  11.957
56232W        W24573   2.231  15.743   3.815
56233W        W24574  18.764   9.312   3.638
56234W        W24575  13.709  25.987   4.231
56235W        W24576  37.523  13.634  12.483
56236W        W24577  32.898  38.417   4.256
56237W        W24578  31.081  36.073   1.286
56238W        W24579   3.775  30.634   1.821
56239W        W24580  28.470  34.476  13.501
56240W        W24581  10.298  27.141   1.911
56241W        W24582  33.968   0.451   1.270
56242W        W24583   6.366  24.063  11.392
56243W        W24584  31.932  39.029   3.303
56244W        W24585   8.867  31.983  12.394
56245W        W24586  24.695  38.882  11.489
56246W        W24587  13.816  21.601   1.857
56247W        W24588  43.321  34.597   4.783
56248W        W24589  16.601  11.716  13.931
56249W        W24590   9.317  44.492  12.515
56250W        W24591  12.677  24.203   2.681
56251W        W24592   5.282  28.560   4.150
56252W        W24593  40.857  42.802  12.868
56253W        W24594  43.816  22.130  13.830
56254W        W24595  27.008  38.990  11.971
56255W        W24596   7.329  20.190  10.579
56256W        W24597   6.918  43.809   4.216
56257W        W24598  26.670   8.391  13.985
56258W        W24599  25.039  18.698   9.991
56259W        W24600  27.531  39.463  11.075
56260W        W24601   3.299  24.494   0.802
56261W        W24602   3.334  15.696  11.868
56262W        W24603  24.117  29.508   3.221
56263W        W24604  44.923  30.157   4.338
56264W        W24605   7.196  32.580   4.680
56265W        W24606  19.232  13.828  14.927
56266W        W24607  30.627   9.771  11.381
56267W        W24608  24.166   2.858   2.727
56268W        W24609   2.237  40.843  10.972
56269W        W24610  17.757  15.661  14.316
56270W        W24611   3.283   2.884  13.364
56271W        W24612   4.911   5.702  13.818
56272W        W24613   4.244  28.442   0.481
56273W        W24614  29.118  37.337   0.774
56274W        W24615  35.912  30.143   2.329
56275W        W24616  24.687  43.849   4.336
56276W        W24617  10.670  23.080  11.592
56277W        W24618  14.334  25.028  13.991
56278W        W24619  31.111   4.295  12.433
56279W        W24620  32.973  34.958  13.469
56280W        W24621   8.297   6.391  14.419
56281W        W24622  18.771  31.449   1.719
56282W        W24623  27.514  39.876   4.790
56283W        W24624  25.542  10.874   3.315
56284W        W24625  26.183   6.878  13.047
56285W        W24626  40.390  36.006  10.491
56286W        W24627  13.781  30.576   0.962
56287W        W24628  30.112  31.571   2.796
56288W        W24629  24.181  14.807  13.830
56289W        W24630   6.721  31.906   0.312
56290W        W24631  27.641   0.858   4.239
56291W        W24632  19.777  37.453  10.520
56292W        W24633  18.760  18.554  11.883
56293W        W24634   7.291   4.868  12.404
56294W        W24635  15.740  21.123  14.318
56295W        W24636  11.810  24.701   2.314
56296W        W24637  29.050  16.582  11.531
56297W        W24638  44.496  38.830   2.708
56298W        W24639  42.469  37.493  11.121
56299W        W24640  30.026   7.901  13.461
56300W        W24641  42.856  34.058   4.295
56301W        W24642  36.067   0.270   0.400
56302W        W24643  44.491  28.632  13.974
56303W        W24644   9.316  42.886   5.204
56304W        W24645  30.999  27.457  10.915
56305W        W24646  44.769  35.382  11.085
56306W        W24647  24.042  41.378  11.035
56307W        W24648  44.447  20.042  13.874
56308W        W24649  27.066  19.225   2.273
56309W        W24650  22.535   4.218  11.866
56310W        W24651  17.726  29.570  14.779
56311W        W24652  33.586  15.215  10.972
56312W        W24653  31.413   1.416   2.800
56313W        W24654  28.071  25.567   1.401
56314W        W24655   4.731  41.472   1.237
56315W        W24656  15.793   3.267   5.147
56316W        W24657  23.018  43.272  14.811
56317W        W24658  28.575  42.918   0.352
56318W        W24659  24.009  10.277  13.941
56319W        W24660  34.583  20.578  12.057
56320W        W24661  29.652   8.853   1.245
56321W        W24662  26.122  19.706  11.531
56322W        W24663   5.380  13.341   3.673
56323W        W24664  24.510  27.995  14.972
56324W        W24665  25.972   8.764  10.995
56325W        W24666   9.175  12.688   0.956
56326W        W24667  34.415  15.222   4.664
56327W        W24668  27.035  14.815  14.424
56328W        W24669  43.441   8.323  11.984
56329W        W24670  28.481   9.296   0.278
56330W        W24671  29.989  16.268  11.506
56331W        W24672  42.004  23.127  13.957
56332W        W24673   1.745  19.042   2.217
56333W        W24674   3.914  31.497  11.595
56334W        W24675  25.577  39.336   0.818
56335W        W24676   4.857   4.784   2.899
56336W        W24677  42.866  39.448   3.319
56337W        W24678  34.951  23.622   9.962
56338W        W24679   2.789   5.321  14.823
56339W        W24680  25.508  22.546  10.613
56340W        W24681  35.023  41.454   3.783
56341W        W24682  26.567  37.381   1.351
56342W        W24683  20.563  23.144   3.866
56343W        W24684  11.727  44.877   4.836
56344W        W24685  31.973  22.164   2.331
56345W        W24686  38.551  12.813   3.254
56346W        W24687  33.099  30.967   4.641
56347W        W24688  42.412  43.485  12.929
56348W        W24689  27.004  25.146   3.240
56349W        W24690   0.393  15.749  13.911
56350W        W24691   5.812   3.802  10.549
56351W        W24692  28.102  33.886  10.505
56352W        W24693   2.862   7.223  11.593
56353W        W24694  22.116   3.920   1.247
56354W        W24695  36.018  18.593   4.305
56355W        W24696  22.027  33.120  14.898
56356W        W24697   3.713   0.825  11.974
56357W        W24698  10.713  23.050  13.808
56358W        W24699  35.540   6.771   0.432
56359W        W24700  30.997  26.657   2.351
56360W        W24701  20.663   7.775   0.764
56361W        W24702  22.171  43.339   0.790
56362W        W24703  37.384  27.027   3.278
56363W        W24704  44.463  13.179   3.187
56364W        W24705  30.577  44.791  13.004
56365W        W24706  31.425  23.129   0.744
56366W        W24707  14.335  36.459  13.491
56367W        W24708  27.096  21.188  11.500
56368W        W24709  38.463  35.003   0.778
56369W        W24710  25.155   8.364  11.883
56370W        W24711  27.017   0.288   4.343
56371W        W24712  29.663  28.547   1.372
56372W        W24713  29.918  14.235  11.880
56373W        W24714   4.203   6.207   0.952
56374W        W24715  40.945  36.035  11.464
56375W        W24716  34.927   7.902  13.913
56376W        W24717  32.034  43.848  14.466
56377W        W24718   1.266  31.409   4.666
56378W        W24719  19.167  36.366  11.519
56379W        W24720  17.729  25.962   1.348
56380W        W24721  19.209   5.859  10.954
56381W        W24722  20.081  43.985  12.474
56382W        W24723   7.768  37.969   4.645
56383W        W24724  33.035  16.715   4.186
56384W        W24725   3.781  13.684   1.705
56385W        W24726  17.630   0.361   3.368
56386W        W24727  39.918  10.270  11.919
56387W        W24728   1.450  44.472  10.539
56388W        W24729  23.605  27.506   3.841
56389W        W24730  31.964  11.172  11.077
56390W        W24731  30.144   1.946   0.342
56391W        W24732  17.260  41.382  14.412
56392W        W24733  37.962   9.395  14.962
56393W        W24734  29.501   4.249   2.804
56394W        W24735   8.328  39.396   1.415
56395W        W24736  11.281  28.536   3.217
56396W        W24737   5.212   3.388  14.014
56397W        W24738  42.846   3.758  12.509
56398W        W24739  23.050   1.867   1.420
56399W        W24740  20.546  30.973   4.257
56400W        W24741  31.410  43.963  12.852
56401W        W24742  44.877  42.321  10.598
56402W        W24743   0.809  21.253   4.344
56403W        W24744   8.718  40.434  10.613
56404W        W24745  37.021   0.768  13.472
56405W        W24746  41.504  13.627  12.046
56406W        W24747  24.187   4.784  11.418
56407W        W24748  31.986   3.809  14.910
56408W        W24749  21.224  22.612   4.354
56409W        W24750  44.998  39.017   4.229
56410W        W24751  29.021   5.849  13.930
56411W        W24752  18.218  29.494   3.744
56412W        W24753  43.443   0.759   1.933
56413W        W24754  13.752  16.312  14.392
56414W        W24755  15.813  25.977  12.350
56415W        W24756  10.266  28.034  11.546
56416W        W24757   2.864  12.320   3.293
56417W        W24758  34.574  13.137  12.348
56418W        W24759  13.136  38.956   9.995
56419W        W24760  37.009  32.978  12.837
56420W        W24761  31.617  42.461   5.578
56421W        W24762   9.333  15.672  13.434
56422W        W24763   5.268  27.110   2.314
56423W        W24764  42.833  44.382   3.193
56424W        W24765  27.571  30.559  14.331
56425W        W24766  30.992   9.296  13.472
56426W        W24767  29.120  30.976  11.463
56427W        W24768  10.242   8.877   0.367
56428W        W24769  24.635  37.885  13.375
56429W        W24770  30.021  44.467   2.329
56430W        W24771   1.245  12.686   2.789
56431W        W24772  21.625  19.156  13.971
56432W        W24773  29.120  15.601  13.423
56433W        W24774  40.371  43.439  10.428
56434W        W24775  42.856  32.037  13.002
56435W        W24776  33.111  17.602  13.423
56436W        W24777  23.158  39.442  12.448
56437W        W24778  27.469  10.293  13.883
56438W        W24779  44.268  34.557  13.469
56439W        W24780  37.357  27.148   0.430
56440W        W24781  18.633  41.922   2.869
56441W        W24782  19.712  12.855   1.783
56442W        W24783   2.774  25.654   4.651
56443W        W24784  41.012  40.988   0.383
56444W        W24785  25.109  13.669  13.527
56445W        W24786  20.755  41.033  11.541
56446W        W24787   8.836  23.137   1.884
56447W        W24788  43.329  44.413   2.251
56448W        W24789  12.117  29.001  14.275
56449W        W24790  37.566   7.196   4.665
56450W        W24791  41.989  22.540  12.080
56451W        W24792  24.988  21.095  11.100
56452W        W24793  38.012   3.323   4.291
56453W        W24794  23.530  29.635   3.719
56454W        W24795  26.156  34.399  14.973
56455W        W24796  42.492  16.285  13.359
56456W        W24797  33.408   0.873  10.085
56457W        W24798  26.618   0.775   4.354
56458W        W24799   8.237  24.675  10.472
56459W        W24800  36.550  12.718   3.693
56460W        W24801   4.848  42.911   0.903
56461W        W24802  24.614   1.367   2.812
56462W        W24803  39.455  35.428  13.888
56463W        W24804  10.859  10.873  13.880
56464W        W24805  16.257  33.001  14.363
56465W        W24806  33.077  32.505   4.757
56466W        W24807  38.849   9.689  13.824
56467W        W24808  26.203  29.145   1.773
56468W        W24809  20.249   2.893   1.702
56469W        W24810  38.066  23.002   4.745
56470W        W24811   8.858  23.065  14.503
56471W        W24812  25.703  34.551  12.965
56472W        W24813   3.717  12.677  11.485
56473W        W24814  24.574  26.567  13.377
56474W        W24815  41.899  13.235  11.520
56475W        W24816  26.574  10.673   0.277
56476W        W24817   0.766   0.492  13.334
56477W        W24818  15.804  25.550   3.678
56478W        W24819  28.549  42.888   0.820
56479W        W24820  33.921  19.058   4.766
56480W        W24821  38.851  35.562   0.849
56481W        W24822  30.153  17.708   4.299
56482W        W24823   6.760   3.259  12.023
56483W        W24824  39.896  41.406   3.683
56484W        W24825   9.347  20.202   1.280
56485W        W24826   9.334   0.744  10.406
56486W        W24827  28.122  19.758  14.351
56487W        W24828  41.499  41.426   9.622
56488W        W24829  38.513  13.340  12.430
56489W        W24830  39.532  11.264  13.045
56490W        W24831   2.793  32.518  11.951
56491W        W24832  36.033  18.287   0.913
56492W        W24833  20.040  28.988  12.539
56493W        W24834   5.775  19.217  11.577
56494W        W24835  30.658  16.739  12.931
56495W        W24836  32.404   9.837   0.254
56496W        W24837  24.191   3.832  13.390
56497W        W24838  13.830  15.104   0.947
56498W        W24839  24.217  36.477  12.095
56499W        W24840   4.264   3.359   2.847
56500W        W24841  30.563  12.282  12.556
56501W        W24842  12.264  32.999   0.745
56502W        W24843   1.272  27.064   0.882
56503W        W24844  37.935   6.794  11.509
56504W        W24845  42.953  21.656  10.501
56505W        W24846  40.859   8.162   0.937
56506W        W24847   2.871  12.803  14.405
56507W        W24848  36.501  42.792  14.358
56508W        W24849   0.846  35.934   4.620
56509W        W24850  29.506  40.416   5.161
56510W        W24851   6.911   1.316   0.790
56511W        W24852  27.558  23.662   3.152
56512W        W24853  42.011   6.687   4.304
56513W        W24854   6.757  21.105   2.693
56514W        W24855  22.686   9.696  10.511
56515W        W24856   9.362  19.737   4.614
56516W        W24857   3.373  24.693  12.565
56517W        W24858   2.310  24.563   1.769
56518W        W24859  44.299  37.503  11.065
56519W        W24860  24.080  41.043  12.028
56520W        W24861  23.015  26.633   1.383
56521W        W24862  43.305  10.732  12.882
56522W        W24863  27.190   7.817  13.989
56523W        W24864  30.442  37.551  13.906
56524W        W24865   4.430  14.656  12.403
56525W        W24866  40.920  17.226  13.482
56526W        W24867   5.419   8.197  14.831
56527W        W24868  24.044  17.644   2.201
56528W        W24869  43.461   5.230  14.495
56529W        W24870  28.971  27.605   1.428
56530W        W24871  25.035  14.625  13.955
56531W        W24872  31.422  30.971  12.384
56532W        W24873  23.533  30.100   0.414
56533W        W24874  32.411  12.738   2.319
56534W        W24875  25.216  11.820   0.377
56535W        W24876  32.086   1.954  12.480
56536W        W24877  33.884   1.436  12.093
56537W        W24878   6.184  24.521  14.918
56538W        W24879   3.453  17.679  14.904
56539W        W24880   3.727  27.049   2.749
56540W        W24881   8.764  16.314  14.372
56541W        W24882  31.992  44.341   3.675
56542W        W24883  39.900  23.174  11.506
56543W        W24884   0.314  18.724  12.912
56544W        W24885  18.680   0.965   3.710
56545W        W24886  25.185   9.796   3.645
56546W        W24887  31.985  44.367  11.474
56547W        W24888  13.751  27.673  14.433
56548W        W24889   2.435  26.502   4.744
56549W        W24890  39.540  31.025  11.426
56550W        W24891  32.504  26.602  12.468
56551W        W24892  38.869  37.474  12.016
56552W        W24893  38.330  14.707   3.264
56553W        W24894  15.629   7.172   1.744
56554W        W24895  16.169   9.375  12.949
56555W        W24896  34.372   2.743   4.686
56556W        W24897   3.353  28.506  11.896
56557W        W24898  29.976  25.082   3.637
56558W        W24899  37.918  27.975  13.841
56559W        W24900  30.107   1.873   4.280
56560W        W24901   0.827   8.339   4.670
56561W        W24902  16.138  17.266  10.974
56562W        W24903   3.404  34.899   4.226
56563W        W24904  21.157  23.202  11.102
56564W        W24905  38.380  24.226  14.017
56565W        W24906  17.711  10.839   2.294
56566W        W24907  13.242  36.547   1.260
56567W        W24908  11.225  34.600  13.919
56568W        W24909   4.796  23.507   3.851
56569W        W24910  17.099  29.602   5.187
56570W        W24911  27.057  18.075  14.797
56571W        W24912  30.935  24.191   4.639
56572W        W24913  36.492   8.388   4.276
56573W        W24914  19.262  33.010   2.319
56574W        W24915  11.675   1.420   2.736
56575W        W24916  39.329   5.802   1.244
56576W        W24917  43.764  36.991  12.973
56577W        W24918   6.774  15.609  12.059
56578W        W24919  17.265  10.665  13.502
56579W        W24920  12.157   1.372  10.456
56580W        W24921  36.513   7.343  13.344
56581W        W24922  12.635  15.797   4.293
56582W        W24923  21.219  37.478   2.349
56583W        W24924   4.896  29.605  12.389
56584W        W24925   7.293   8.308  11.037
56585W        W24926  25.674  18.118  14.933
56586W        W24927  11.760  39.376   3.825
56587W        W24928   9.362  21.735  13.330
56588W        W24929   4.723  28.018   2.792
56589W        W24930  11.687   0.829   0.783
56590W        W24931  21.699  18.720   0.923
56591W        W24932  42.940  30.487   3.149
56592W        W24933  16.096   6.732   3.836
56593W        W24934  28.554  42.447  11.554
56594W        W24935  10.148   6.718   5.093
56595W        W24936   5.823  25.479  10.540
56596W        W24937  22.635  44.007  10.067
56597W        W24938  22.174   2.886   4.714
56598W        W24939  10.213  30.141  11.106
56599W        W24940  29.662  32.960   3.319
56600W        W24941  25.673   7.315   2.882
56601W        W24942   4.771  13.227   3.360
56602W        W24943  10.656   5.833  12.971
56603W        W24944  41.828  28.435  14.832
56604W        W24945  36.522  39.516  14.023
56605W        W24946  16.689  18.073   4.143
56606W        W24947  11.679   1.819  12.355
56607W        W24948  13.692  29.014   2.726
56608W        W24949  22.024   2.780   3.212
56609W        W24950   0.789  12.780  12.827
56610W        W24951  11.855   7.720   3.646
56611W        W24952  34.895   4.800   1.428
56612W        W24953   0.917  21.028   0.893
56613W        W24954  44.320  36.462   3.667
56614W        W24955  16.686  11.736   0.821
56615W        W24956  16.672  16.259   1.289
56616W        W24957   9.386  23.103   1.347
56617W        W24958   2.416  26.996  12.470
56618W        W24959  34.459  42.829   4.602
56619W        W24960  26.470   7.238  13.003
56620W        W24961  35.878  33.532   3.279
56621W        W24962  12.692  43.872  12.010
56622W        W24963  35.401  41.386   0.470
56623W        W24964   0.878  10.184  13.802
56624W        W24965  38.496  12.208   2.884
56625W        W24966  18.623  12.838   1.324
56626W        W24967  20.247  42.957   0.290
56627W        W24968  11.139  29.494  10.916
56628W        W24969  25.626  23.194   0.390
56629W        W24970  41.948  41.534   9.948
56630W        W24971   9.759  36.001  11.115
56631W        W24972  43.447  31.556  14.457
56632W        W24973  29.162  16.092  14.019
56633W        W24974  13.717   0.489   4.724
56634W        W24975  34.597  40.398   5.684
56635W        W24976  18.205  32.138  11.448
56636W        W24977  19.110  36.400   3.789
56637W        W24978  16.288  35.580   5.086
56638W        W24979  21.618  25.129  12.894
56639W        W24980   7.725  37.484  10.486
56640W        W24981  40.383  36.862   4.244
56641W        W24982  33.903  29.455  13.545
56642W        W24983  13.107  15.602   3.630
56643W        W24984  23.573   8.230  11.408
56644W        W24985   9.782  15.764   0.457
56645W        W24986  25.092   0.299   2.689
56646W        W24987   1.416  14.812   3.722
56647W        W24988  28.073  28.092   2.798
56648W        W24989   7.306  28.438   2.740
56649W        W24990  13.782  13.219  14.489
56650W        W24991  22.103  23.584  13.038
56651W        W24992  20.585  32.892  11.501
56652W        W24993  24.561  17.604   4.710
56653W        W24994  38.460  21.589  11.473
56654W        W24995   9.348  42.980   4.315
56655W        W24996   5.767  33.947   1.371
56656W        W24997  27.677  38.568  10.432
56657W        W24998   7.736  32.610  11.978
56658W        W24999  42.332  17.171   0.850
56659W        W25000  17.156  14.288  10.059
56660W        W25001  23.125  29.103  10.529
56661W        W25002  32.430  17.708  14.825
56662W        W25003  34.459   8.663  13.984
56663W        W25004   2.868  44.393   2.819
56664W        W25005  35.862  37.061  10.891
56665W        W25006  24.592  36.446   2.208
56666W        W25007  12.198   9.213   0.320
56667W        W25008  15.622   6.854   2.778
56668W        W25009  28.159  31.102  14.357
56669W        W25010  21.581  41.499  13.006
56670W        W25011  42.794  25.056  11.570
56671W        W25012  35.584  43.936   1.909
56672W        W25013  23.163  39.024   9.985
56673W        W25014   7.311  34.562  14.799
56674W        W25015  34.387   5.701   1.211
56675W        W25016  34.874   0.801   4.731
56676W        W25017  25.128  30.910  11.526
56677W        W25018  15.143  39.952  10.991
56678W        W25019  34.416  39.050   4.211
56679W        W25020  14.331  42.778  14.007
56680W        W25021  36.868   2.912   4.767
56681W        W25022  10.744   0.969  11.609
56682W        W25023  21.537   5.830   1.315
56683W        W25024  31.966  39.854  14.916
56684W        W25025   6.685  28.555   4.723
56685W        W25026  20.536  16.277   1.748
56686W        W25027   9.257   5.198   1.273
56687W        W25028  12.649   0.770  13.398
56688W        W25029  27.658  29.527   0.339
56689W        W25030  43.833  43.511  12.460
56690W        W25031  43.880  19.731   1.362
56691W        W25032  14.258  13.669  10.643
56692W        W25033   3.393  20.537  11.599
56693W        W25034   7.220   7.910   2.184
56694W        W25035  37.482  41.312  14.971
56695W        W25036  34.372  39.825  13.952
56696W        W25037  37.975  31.565  11.543
56697W        W25038  29.602  41.018   1.331
56698W        W25039   0.411  28.540   2.385
56699W        W25040   9.847  21.555  10.420
56700W        W25041  39.424  40.963  12.344
56701W        W25042  10.677  11.196   3.303
56702W        W25043   4.280  26.634  14.899
56703W        W25044  34.394   3.394   0.757
56704W        W25045  29.456  43.928   1.748
56705W        W25046  29.534  21.659   1.224
56706W        W25047   7.811  33.457  14.897
56707W        W25048  19.593  20.703  13.339
56708W        W25049  10.645   2.322   2.220
56709W        W25050   1.316  41.014  13.022
56710W        W25051  40.333  11.187   2.674
56711W        W25052  27.451   4.847  12.989
56712W        W25053  44.939   0.405   1.253
56713W        W25054  23.554  12.674   3.180
56714W        W25055  24.714  20.205  11.999
56715W        W25056  44.964  31.613  11.509
56716W        W25057   3.714  44.859  14.316
56717W        W25058  10.687  24.000   2.377
56718W        W25059  31.934  12.138   4.818
56719W        W25060  44.346   3.739  13.359
56720W        W25061  41.888  17.692  14.432
56721W        W25062  24.026  23.109   2.322
56722W        W25063  30.425  31.432   1.757
56723W        W25064  30.911  29.058   4.132
56724W        W25065  21.128  17.779  10.503
56725W        W25066   6.904   4.254   4.666
56726W        W25067  12.664  43.880   3.858
56727W        W25068  31.627   7.752   3.863
56728W        W25069  16.628  22.190   4.162
56729W        W25070   6.803   3.952  10.933
56730W        W25071  29.639  39.508   2.298
56731W        W25072  28.508  17.196  13.364
56732W        W25073  32.004   7.345  12.552
56733W        W25074  14.609  39.423   4.266
56734W        W25075  19.578  19.267  13.933
56735W        W25076  35.436   0.812   4.286
56736W        W25077   4.718   1.338  14.851
56737W        W25078  35.969  30.516  11.610
56738W        W25079  35.921  24.980   0.802
56739W        W25080   2.297   3.426  11.513
56740W        W25081  11.740  20.684  12.565
56741W        W25082  15.705   0.880   3.324
56742W        W25083  14.603  33.581   3.147
56743W        W25084  26.525  24.976  14.299
56744W        W25085  31.067  39.493   4.649
56745W        W25086  21.094  41.928   1.450
56746W        W25087  15.283  27.674   4.340
56747W        W25088   7.899  24.015  13.796
56748W        W25089  36.050  28.668   2.855
56749W        W25090   1.474  44.895   3.702
56750W        W25091  24.981   0.322   1.298
56751W        W25092  42.911  10.138   2.400
56752W        W25093  37.982  23.724   4.263
56753W        W25094  31.090   5.891   2.892
56754W        W25095  13.261  21.204   0.326
56755W        W25096  15.254   2.852   2.350
56756W        W25097  14.133  10.638  11.057
56757W        W25098   6.240  25.634  11.873
56758W        W25099  22.609  27.530   0.389
56759W        W25100  37.944  23.607   1.817
56760W        W25101  31.059  17.622  11.407
56761W        W25102   6.729  41.914   0.732
56762W        W25103  12.208  12.686  11.936
56763W        W25104  32.572  41.968  10.633
56764W        W25105  25.090  26.051   4.310
56765W        W25106  20.747  12.847   1.365
56766W        W25107  41.904  16.199  12.842
56767W        W25108  15.781  43.861  10.066
56768W        W25109  42.483  13.703  12.826
56769W        W25110  13.712  18.788  12.537
56770W        W25111  19.639  28.580   0.808
56771W        W25112   9.343  35.444   3.677
56772W        W25113   4.381  15.691   1.245
56773W        W25114  41.827  27.165  14.869
56774W        W25115  38.948   2.327  13.863
56775W        W25116  37.533  37.935   2.301
56776W        W25117  44.873   8.861  13.324
56777W        W25118  16.576  23.720   3.179
56778W        W25119  41.403  19.042   4.235
56779W        W25120  34.374   4.910   4.127
56780W        W25121  11.756   7.221   4.815
56781W        W25122  29.619  15.591   1.804
56782W        W25123  19.096  27.992   0.967
56783W        W25124   1.415  16.706  10.997
56784W        W25125  35.863  18.623   3.824
56785W        W25126  28.145  26.461  11.010
56786W        W25127  31.556  23.073  14.960
56787W        W25128  44.444  31.545   2.237
56788W        W25129  22.239  28.104  13.522
56789W        W25130  10.752  30.431   4.677
56790W        W25131  21.553  27.966   1.931
56791W        W25132  35.519   5.321   2.672
56792W        W25133  24.563  34.943  12.083
56793W        W25134  13.268  34.608  10.045
56794W        W25135  44.275  12.149   3.208
56795W        W25136  13.690  19.640  11.857
56796W        W25137  16.724  29.099  13.379
56797W        W25138  21.552   0.908  14.919
56798W        W25139  31.998  37.034   0.777
56799W        W25140  37.911  32.068  10.547
56800W        W25141   0.882  23.566  12.860
56801W        W25142   7.851  39.353   4.141
56802W        W25143  44.414  20.617   5.209
56803W        W25144  14.813   5.836   4.334
56804W        W25145  11.696  30.158  11.593
56805W        W25146  42.922  29.615   3.213
56806W        W25147  43.467  37.908  12.439
56807W        W25148  19.713  10.185   1.822
56808W        W25149   9.270  11.349  12.964
56809W        W25150  31.603  40.526  10.559
56810W        W25151   1.843  22.519  13.446
56811W        W25152  13.237  35.401   4.174
56812W        W25153  28.107  33.575   5.102
56813W        W25154  40.452  19.764  11.075
56814W        W25155  34.120  19.590   3.870
56815W        W25156  26.014   0.256   3.779
56816W        W25157   6.709  28.074  13.928
56817W        W25158  14.274   6.269  14.937
56818W        W25159  19.057  10.858   4.623
56819W        W25160  25.984   0.795  13.844
56820W        W25161  21.043  25.515  11.540
56821W        W25162   1.250   5.923  13.911
56822W        W25163  38.471  14.820  10.890
56823W        W25164   8.198  29.523  13.024
56824W        W25165   0.984   4.228  13.368
56825W        W25166  10.326  13.196  14.372
56826W        W25167  34.596  21.019  14.516
56827W        W25168   8.338  36.380   2.749
56828W        W25169  16.692  36.346   4.715
56829W        W25170   0.354  37.402   4.244
56830W        W25171  12.362  14.737  12.990
56831W        W25172  24.542  29.012  14.009
56832W        W25173   1.975   5.857  11.534
56833W        W25174  15.792  32.617  12.402
56834W        W25175  25.173  14.219   4.617
56835W        W25176  14.649  35.854  13.405
56836W        W25177  38.416  28.452   2.419
56837W        W25178   1.400  39.314   4.295
56838W        W25179  29.921  22.641   4.189
56839W        W25180  19.546   6.264   2.870
56840W        W25181   3.888  31.141   4.143
56841W        W25182   3.867   9.761  12.500
56842W        W25183   8.767  36.487   4.211
56843W        W25184   1.375   7.196   3.668
56844W        W25185  12.284  34.497   4.637
56845W        W25186  32.463  35.060  11.492
56846W        W25187  33.128  40.414   4.148
56847W        W25188  31.624  35.020   3.670
56848W        W25189   3.909  42.390   0.864
56849W        W25190  12.281  42.904  13.422
56850W        W25191  18.778   1.255   3.693
56851W        W25192  22.631  22.250   0.292
56852W        W25193  10.172   5.277   2.270
56853W        W25194   9.376  33.519   3.225
56854W        W25195  16.112   6.329  10.493
56855W        W25196   0.486   9.179   0.810
56856W        W25197  24.201  43.018  12.913
56857W        W25198   0.939  39.930  10.541
56858W        W25199  30.650  39.417  13.453
56859W        W25200  38.947  41.534   0.409
56860W        W25201   0.412  44.400  10.913
56861W        W25202  30.018  40.982   0.923
56862W        W25203  10.248  18.573   1.790
56863W        W25204   1.250  37.359   3.324
56864W        W25205  38.459  13.697  10.898
56865W        W25206  19.079  22.160   3.380
56866W        W25207  16.170  12.173   0.482
56867W        W25208  33.082  36.390   1.326
56868W        W25209  32.908   1.742  11.955
56869W        W25210  40.321  33.530   0.759
56870W        W25211  44.956  20.744  13.399
56871W        W25212  33.049  43.978   0.731
56872W        W25213   9.788  33.613   1.881
56873W        W25214   7.365   2.893  14.456
56874W        W25215  20.214  35.594   2.346
56875W        W25216  35.362  32.947  10.444
56876W        W25217   2.242   0.262  14.010
56877W        W25218  40.823  22.123  14.990
56878W        W25219  41.375  33.096   4.128
56879W        W25220  17.114   5.367  12.433
56880W        W25221  13.699  41.853   9.494
56881W        W25222  30.981  35.855   4.344
56882W        W25223  10.765  39.409  11.880
56883W        W25224   7.689   8.324   4.714
56884W        W25225  19.701  13.762  12.887
56885W        W25226   6.720   5.924   4.669
56886W        W25227  16.789   7.772   1.263
56887W        W25228  14.751   8.735  11.991
56888W        W25229  29.546  14.269  13.858
56889W        W25230  37.344  33.924   3.855
56890W        W25231  38.466  14.298   1.263
56891W        W25232  30.466  30.930  12.987
56892W        W25233   3.921  24.014  14.964
56893W        W25234  20.195  27.121   2.299
56894W        W25235   6.851  16.812  12.879
56895W        W25236  30.055  16.621  11.961
56896W        W25237  12.189   2.929   3.387
56897W        W25238  10.697   0.411  12.828
56898W        W25239  40.414  26.143  10.417
56899W        W25240   9.310  21.236   2.402
56900W        W25241  32.945  10.153   1.212
56901W        W25242  42.326  20.691   3.808
56902W        W25243   9.723  12.614  10.148
56903W        W25244   7.239   1.857  13.907
56904W        W25245  39.354  44.793  11.049
56905W        W25246  27.175   9.283  12.559
56906W        W25247  22.661   8.738  12.580
56907W        W25248  42.302  16.611  12.882
56908W        W25249  37.049  15.131  14.958
56909W        W25250  39.453  22.690  13.423
56910W        W25251  37.074  32.557   2.361
56911W        W25252  40.968  18.676  13.509
56912W        W25253  34.062  13.832  11.380
56913W        W25254  41.822  33.550  11.431
56914W        W25255  19.125  22.661   3.282
56915W        W25256  41.449  35.380   4.663
56916W        W25257  33.558  36.892   4.255
56917W        W25258   0.271  27.190   1.883
56918W        W25259  10.168  27.475  12.544
56919W        W25260   3.713  22.999   4.661
56920W        W25261   5.915   6.704  13.828
56921W        W25262  30.605  39.361  10.628
56922W        W25263  40.425  15.125   3.174
56923W        W25264  42.305   4.740  11.476
56924W        W25265  27.504  40.916   2.310
56925W        W25266  28.167  36.975   1.827
56926W        W25267  19.108  15.153   3.347
56927W        W25268  26.160  26.150  13.862
56928W        W25269  33.918   8.175   2.697
56929W        W25270  32.921  19.616  12.860
56930W        W25271  43.892  42.396   0.761
56931W        W25272  17.240  41.363   3.754
56932W        W25273  43.440  24.986   3.338
56933W        W25274  27.158  16.760   2.880
56934W        W25275   5.248  32.961  13.023
56935W        W25276   2.880  18.638   4.266
56936W        W25277  41.955   0.406  12.422
56937W        W25278   8.388  24.517  14.960
56938W        W25279  44.004  37.336  12.465
56939W        W25280  15.196  25.552   0.946
56940W        W25281   5.399  12.212   1.817
56941W        W25282  40.959   1.281  11.451
56942W        W25283  38.928  35.072  10.575
56943W        W25284  38.357  31.097   2.776
56944W        W25285  22.009   1.373   0.465
56945W        W25286  43.944   7.372  14.942
56946W        W25287  34.955  37.485   0.824
56947W        W25288  16.635  28.585  13.883
56948W        W25289  32.933  37.424   2.303
56949W        W25290  12.723  18.105   1.907
56950W        W25291   5.318  15.768  13.352
56951W        W25292  15.089  13.636  13.985
56952W        W25293  18.127  23.679   0.884
56953W        W25294  14.110  15.168  14.352
56954W        W25295  23.671  30.120  11.441
56955W        W25296   1.444  25.021  14.358
56956W        W25297  29.620  25.662  13.810
56957W        W25298  32.515  21.651  13.856
56958W        W25299  41.535   2.794  14.965
56959W        W25300  23.614   2.789   0.922
56960W        W25301  27.490  40.929  12.529
56961W        W25302  36.932  35.399  11.023
56962W        W25303  20.719  20.596   1.278
56963W        W25304  20.112  12.683  13.353
56964W        W25305  29.638  16.606  11.096
56965W        W25306  20.755  35.884   2.407
56966W        W25307  20.146  26.478   4.176
56967W        W25308  37.058  40.883  10.470
56968W        W25309   9.686  27.483   2.206
56969W        W25310  44.836  15.747   0.960
56970W        W25311   0.452  24.018   4.751
56971W        W25312  13.701  12.799   0.730
56972W        W25313  14.124   6.332  13.000
56973W        W25314  27.548  17.778  12.885
56974W        W25315  44.291  23.043  12.953
56975W        W25316   3.733  41.373  11.403
56976W        W25317  41.365  30.022  13.006
56977W        W25318  31.078   0.300   1.353
56978W        W25319  24.632  29.510   2.667
56979W        W25320   8.244  39.381   1.759
56980W        W25321   6.795  26.143   3.656
56981W        W25322  24.988  29.630   3.767
56982W        W25323  35.889  40.014  14.487
56983W        W25324  10.239  18.557  10.408
56984W        W25325  14.670  35.977   3.379
56985W        W25326  18.190  30.997  12.541
56986W        W25327  39.367  43.010   2.873
56987W        W25328  39.362  21.650  13.794
56988W        W25329  41.473   0.875   1.426
56989W        W25330  28.109   2.272   0.341
56990W        W25331  38.983  12.836   2.727
56991W        W25332   8.654  31.093   2.809
56992W        W25333   5.216  34.888   2.197
56993W        W25334  18.740  30.067  10.960
56994W        W25335  35.562  12.723   1.295
56995W        W25336  12.660   8.815   3.302
56996W        W25337   4.768  18.055  12.367
56997W        W25338  23.190  32.577  13.511
56998W        W25339  27.044  41.816  13.010
56999W        W25340   3.274  17.212  11.000
57000W        W25341  12.742  17.230   1.761
57001W        W25342  28.129  14.245   1.868
57002W        W25343  27.525  39.953   1.838
57003W        W25344  35.436  44.947  11.485
57004W        W25345  14.649  37.348  13.826
57005W        W25346  37.901   8.204  10.566
57006W        W25347  11.333  38.911   3.254
57007W        W25348  33.471   6.301  14.784
57008W        W25349  34.943  28.582   2.798
57009W        W25350  31.143   0.756   0.808
57010W        W25351  10.268   4.715   1.346
57011W        W25352  16.731  21.106   3.694
57012W        W25353  22.708   2.874  12.471
57013W        W25354   6.263  28.486  14.307
57014W        W25355  18.054  19.556  12.449
57015W        W25356   5.308   5.206   0.412
57016W        W25357  21.594  37.407  12.076
57017W        W25358  32.900   2.427  14.848
57018W        W25359  15.652  39.898  13.498
57019W        W25360  37.978  10.800   1.721
57020W        W25361  21.177  44.320   3.318
57021W        W25362  11.676   6.800  12.393
57022W        W25363  34.098  41.884   1.862
57023W        W25364   0.908  19.570   0.806
57024W        W25365  38.964  10.155   5.198
57025W        W25366  43.777  18.739  10.910
57026W        W25367  29.425  10.758  12.577
57027W        W25368  11.796  38.989  12.043
57028W        W25369  34.911  32.955  12.057
57029W        W25370   3.253  41.355   2.801
57030W        W25371  30.419   2.366  14.970
57031W        W25372  23.551  34.409  14.785
57032W        W25373  35.423  37.844  10.406
57033W        W25374  29.927   9.676  11.898
57034W        W25375   6.341  12.833   0.747
57035W        W25376   6.389  22.689  14.472
57036W        W25377   9.778  31.453  13.824
57037W        W25378  29.662  24.157  10.503
57038W        W25379   9.810  17.102  10.644
57039W        W25380  33.882   0.330   2.181
57040W        W25381   5.737  32.467  12.468
57041W        W25382  31.542  33.513  14.824
57042W        W25383  13.275  21.749   1.415
57043W        W25384  35.096  39.011   1.212
57044W        W25385  15.225  43.449  10.449
57045W        W25386  20.158  32.989   2.367
57046W        W25387  19.721  16.722   3.357
57047W        W25388  12.617  36.089   2.178
57048W        W25389  40.859  41.805   5.176
57049W        W25390   3.857  32.449  11.468
57050W        W25391  28.975  25.639  13.802
57051W        W25392  25.079  29.961   3.752
57052W        W25393  23.661  22.656  12.917
57053W        W25394  29.647   6.241   1.893
57054W        W25395  17.780  38.948  13.527
57055W        W25396   3.842  40.456  13.927
57056W        W25397  23.061  37.987   2.777
57057W        W25398   9.712   0.781   1.787
57058W        W25399  37.539  22.207  12.505
57059W        W25400  23.619   5.752   4.777
57060W        W25401  29.461  10.780   0.794
57061W        W25402  35.388   6.371  14.992
57062W        W25403  34.454   4.832   4.741
57063W        W25404   1.743  13.206  14.303
57064W        W25405   8.795  11.150   4.328
57065W        W25406  42.492  24.102   4.814
57066W        W25407  25.527  23.185  13.036
57067W        W25408   3.861  24.111   4.307
57068W        W25409   9.823   0.303   0.251
57069W        W25410  36.917   2.891   1.355
57070W        W25411  30.561  29.014   1.821
57071W        W25412  42.286  23.569   3.257
57072W        W25413  31.091  29.174  14.764
57073W        W25414   4.247  19.077   2.220
57074W        W25415  27.450  18.699   3.723
57075W        W25416   9.722  33.590  12.999
57076W        W25417  40.932  12.732  13.394
57077W        W25418  33.012  28.951  12.559
57078W        W25419  23.101   1.811   0.360
57079W        W25420  36.584  20.608  14.946
57080W        W25421  19.083  23.066  14.786
57081W        W25422   7.233  20.063  12.494
57082W        W25423  12.783   4.231   0.444
57083W        W25424  32.089  43.511  11.601
57084W        W25425  27.091  38.502  12.946
57085W        W25426   8.268  38.863   4.203
57086W        W25427  40.860  10.677   3.870
57087W        W25428  39.521  21.080   3.254
57088W        W25429  35.878  42.881  12.884
57089W        W25430   7.257  14.227  13.973
57090W        W25431  39.517   2.434   3.848
57091W        W25432  24.230  42.891  12.544
57092W        W25433  37.355  11.199  10.092
57093W        W25434  41.843   3.252   3.773
57094W        W25435   3.284  13.654  13.031
57095W        W25436  31.976   5.289  10.936
57096W        W25437  35.585  15.126   0.419
57097W        W25438  29.561  20.127   2.404
57098W        W25439  36.010  35.894   0.379
57099W        W25440  24.088  34.065  11.588
57100W        W25441   2.926  18.753  11.047
57101W        W25442  15.312  30.089   0.839
57102W        W25443  13.622  31.472   1.330
57103W        W25444  11.312  26.189   0.329
57104W        W25445  24.659   6.908   2.280
57105W        W25446   9.185  40.939   1.449
57106W        W25447  18.214  10.867   2.741
57107W        W25448  14.306  15.797   0.744
57108W        W25449   0.968   5.764  13.432
57109W        W25450   0.890  14.699  13.929
57110W        W25451  12.251  10.825   4.299
57111W        W25452   8.896  30.017  14.305
57112W        W25453  35.391  17.765  14.408
57113W        W25454  37.053  28.523   4.706
57114W        W25455  18.079  27.573   1.790
57115W        W25456  30.137  11.736   4.656
57116W        W25457  24.575  40.513  13.358
57117W        W25458  26.055   0.463  14.315
57118W        W25459  33.507  35.054   0.799
57119W        W25460  40.319  34.535  12.477
57120W        W25461  32.519   9.858  13.985
57121W        W25462  37.059  37.875   1.758
57122W        W25463  42.338   9.863  12.075
57123W        W25464  43.337  13.291   4.740
57124W        W25465  18.185  19.694   3.720
57125W        W25466  20.260  27.468   0.345
57126W        W25467  31.645  23.154  13.041
57127W        W25468   0.899  25.562  14.350
57128W        W25469  43.009  19.561  14.378
57129W        W25470   7.278   0.299  13.831
57130W        W25471   9.764  25.994   2.807
57131W        W25472  37.470  12.136   0.360
57132W        W25473  14.288  14.114  10.484
57133W        W25474  27.990  23.064   4.777
57134W        W25475   7.874  35.864  10.142
57135W        W25476  33.597   5.905   2.730
57136W        W25477   9.747  39.833  11.902
57137W        W25478   0.955  40.044   4.306
57138W        W25479   7.684  15.186   0.421
57139W        W25480  42.333  28.473   0.389
57140W        W25481  15.127   1.922   1.217
57141W        W25482  39.949  24.599   2.339
57142W        W25483  36.359  41.979   1.755
57143W        W25484  11.225  37.539   2.251
57144W        W25485  31.432  15.192  13.987
57145W        W25486  35.553  10.314  14.277
57146W        W25487  27.507  32.413  13.428
57147W        W25488  25.974  42.467   3.853
57148W        W25489  10.874   1.810  11.010
57149W        W25490  23.173  43.821  11.949
57150W        W25491  30.482  26.615  13.043
57151W        W25492  23.013  41.816   3.776
57152W        W25493  23.225  24.528  10.945
57153W        W25494  12.785  32.989   4.638
57154W        W25495  27.515  41.014   4.148
57155W        W25496  13.686  44.262   0.462
57156W        W25497   4.290  32.636  10.605
57157W        W25498  28.948   1.823  13.413
57158W        W25499  33.432  24.553   2.317
57159W        W25500  11.205  38.041  12.341
57160W        W25501   5.197  32.887  13.370
57161W        W25502  35.510  42.825   0.846
57162W        W25503  12.168  38.997   5.642
57163W        W25504  19.605  13.831   1.742
57164W        W25505  11.789  22.198  12.943
57165W        W25506  18.133  26.682   1.916
57166W        W25507  42.416  21.683   0.270
57167W        W25508   6.243  21.559  12.498
57168W        W25509  34.955  32.064  12.446
57169W        W25510   6.210  18.245  13.484
57170W        W25511   5.932  11.700  13.966
57171W        W25512  25.691  28.111  13.965
57172W        W25513  12.145  25.055   0.794
57173W        W25514  34.421  33.464   3.330
57174W        W25515  34.080  16.304   3.215
57175W        W25516  28.670   2.311   1.922
57176W        W25517  37.357  17.641   3.828
57177W        W25518  26.107  31.980  14.302
57178W        W25519  16.140  39.991   1.832
57179W        W25520   1.410  43.012   0.388
57180W        W25521  43.326  17.642  10.919
57181W        W25522  39.065  15.794  11.914
57182W        W25523  32.611  43.374  10.432
57183W        W25524  43.009  12.713   0.288
57184W        W25525  40.993  10.332  10.464
57185W        W25526  11.312   5.369   2.842
57186W        W25527   1.884  13.718  10.979
57187W        W25528   5.375  10.145  14.949
57188W        W25529   9.365   6.837  12.372
57189W        W25530  21.671  33.598   0.361
57190W        W25531  21.026  37.495  12.060
57191W        W25532  27.966  18.251   2.711
57192W        W25533  16.729  35.991  14.920
57193W        W25534  19.106  40.952  14.948
57194W        W25535   2.936  15.669  14.010
57195W        W25536  27.117  24.594   4.628
57196W        W25537  40.412   1.397   3.187
57197W        W25538  11.284  26.695   2.375
57198W        W25539  21.708  42.491   0.322
57199W        W25540   7.398   8.225  13.481
57200W        W25541  15.687  32.394   0.436
57201W        W25542  14.777   6.334   0.340
57202W        W25543  10.164  12.217  10.620
57203W        W25544  27.983  29.512   4.694
57204W        W25545  18.735  19.617   2.817
57205W        W25546  42.334  18.715  11.058
57206W        W25547  24.201  14.774  11.420
57207W        W25548   0.766   8.331   3.815
57208W        W25549  24.587  10.328   0.757
57209W        W25550  25.216  19.624  12.428
57210W        W25551  38.555   4.708  13.377
57211W        W25552  43.270  22.508   1.753
57212W        W25553  27.035  17.200  14.948
57213W        W25554   5.832  23.075  13.521
57214W        W25555  39.843  20.585  12.468
57215W        W25556  36.347  15.607   4.115
57216W        W25557  37.500  11.814   1.210
57217W        W25558   3.723   8.186   0.303
57218W        W25559  21.625  27.483   2.774
57219W        W25560  42.359  37.426   4.616
57220W        W25561  31.972  23.065   4.169
57221W        W25562   2.964  34.050   2.662
57222W        W25563  23.189   5.896  10.897
57223W        W25564  20.087  15.741   1.826
57224W        W25565  19.147  18.766  12.836
57225W        W25566  20.029  21.542   1.397
57226W        W25567  10.670   3.334   1.422
57227W        W25568  13.199  29.520  11.112
57228W        W25569  17.205  24.002  11.108
57229W        W25570  20.627   2.758   1.843
57230W        W25571  29.462  15.176   2.380
57231W        W25572   7.735  37.058   2.746
57232W        W25573  44.459  10.201   0.322
57233W        W25574   6.736  29.937  13.039
57234W        W25575  37.391  27.504   0.962
57235W        W25576  13.661  39.532   4.634
57236W        W25577  33.437   0.277   4.837
57237W        W25578  25.704  30.164  12.923
57238W        W25579  42.470   9.371  13.931
57239W        W25580  38.332  11.366   1.217
57240W        W25581  38.889  33.481   4.314
57241W        W25582   1.331  18.616   2.292
57242W        W25583  21.614  43.868   4.673
57243W        W25584   7.844   1.391  13.837
57244W        W25585   7.224  37.487  13.478
57245W        W25586  33.565  26.484   3.753
57246W        W25587   5.924  25.589   4.285
57247W        W25588  42.979   1.462   3.634
57248W        W25589  26.170  20.197   1.892
57249W        W25590   3.335  43.874   2.792
57250W        W25591   7.708  17.710  11.079
57251W        W25592  18.077   0.796  14.285
57252W        W25593  16.261  40.917  10.486
57253W        W25594  20.605  13.219  11.555
57254W        W25595  40.428  33.087  14.898
57255W        W25596  11.370  33.058   2.845
57256W        W25597  11.629  37.853  13.820
57257W        W25598  10.285   8.242   3.719
57258W        W25599   0.790  17.783   2.881
57259W        W25600   3.424  37.994   4.696
57260W        W25601  35.919  34.055  10.917
57261W        W25602  40.842  32.010  13.380
57262W        W25603  14.250  44.263   3.745
57263W        W25604  30.908  21.263   1.720
57264W        W25605  43.386  21.136   1.421
57265W        W25606  25.097  17.790  11.879
57266W        W25607  30.507  33.523   0.274
57267W        W25608  34.592   0.796  12.842
57268W        W25609   0.446   5.803  14.969
57269W        W25610  27.539  26.670  14.394
57270W        W25611   2.240  17.729   5.117
57271W        W25612   1.246  37.987   4.306
57272W        W25613   9.657  12.803  11.979
57273W        W25614  22.196  11.198   2.316
57274W        W25615  19.563   4.338   1.926
57275W        W25616  10.847  22.140  11.921
57276W        W25617  24.106  24.663   0.770
57277W        W25618  18.161  23.121   2.890
57278W        W25619  15.119  43.315  13.946
57279W        W25620  33.497  24.635   3.313
57280W        W25621  43.920  11.316   4.169
57281W        W25622  22.157   5.270  13.795
57282W        W25623  11.661   9.237  14.881
57283W        W25624  22.633  14.173  13.891
57284W        W25625  17.113  41.867   3.320
57285W        W25626  36.372  26.088  12.036
57286W        W25627  35.046  15.124  10.551
57287W        W25628  18.251  31.442   2.767
57288W        W25629  33.584   2.278  14.032
57289W        W25630  38.443  42.917  14.964
57290W        W25631  17.720  18.095  12.929
57291W        W25632  34.382  30.076  10.989
57292W        W25633  30.493   5.778   3.351
57293W        W25634   8.319  41.788  13.357
57294W        W25635   7.245  13.615  11.433
57295W        W25636  28.006   9.344   0.764
57296W        W25637  39.360  34.930  12.532
57297W        W25638  19.593  17.566   2.415
57298W        W25639  22.546  22.120  11.054
57299W        W25640   0.253  44.362   0.281
57300W        W25641   5.367   8.743   3.866
57301W        W25642  15.778  24.592   1.446
57302W        W25643   2.298  36.941  11.424
57303W        W25644  11.753  26.013   2.888
57304W        W25645  19.589  41.941   1.392
57305W        W25646  10.260  16.766  14.333
57306W        W25647   8.821  20.531  11.895
57307W        W25648   9.676  40.406   4.251
57308W        W25649  25.188  39.389   3.289
57309W        W25650  25.065   9.354  11.970
57310W        W25651  32.063   4.823  14.878
57311W        W25652  19.056   3.901  14.892
57312W        W25653  25.676  16.715  12.057
57313W        W25654   7.414  19.655   1.778
57314W        W25655  44.921   1.294   0.899
57315W        W25656  44.947  35.595  12.985
57316W        W25657  21.532  34.072  10.602
57317W        W25658   2.269  38.532  14.992
57318W        W25659  22.018  10.661   1.371
57319W        W25660  33.901  29.504  11.424
57320W        W25661   9.285   1.905   4.686
57321W        W25662  32.134  34.971   3.828
57322W        W25663  35.958  34.889  12.452
57323W        W25664  23.626  25.102  13.409
57324W        W25665  11.279  34.951  12.359
57325W        W25666  24.149  40.309  11.548
57326W        W25667  33.520  33.548   2.779
57327W        W25668  17.080  18.053   1.873
57328W        W25669  11.678  36.021  14.470
57329W        W25670  29.052  44.848   0.314
57330W        W25671  11.322  10.207  12.518
57331W        W25672  15.629  15.591  14.882
57332W        W25673  22.613  39.537   0.744
57333W        W25674   4.809  27.190  11.052
57334W        W25675   8.748  20.754  10.614
57335W        W25676  15.323  17.086   2.853
57336W        W25677  40.545   4.808   3.784
57337W        W25678  21.743  24.662   3.356
57338W        W25679   3.784  18.662   4.324
57339W        W25680  43.287  19.086  10.633
57340W        W25681  24.027  39.935  10.413
57341W        W25682  21.564   7.359  13.863
57342W        W25683  19.720  34.609   2.773
57343W        W25684  40.521   0.408   0.447
57344W        W25685  39.834  28.035  11.916
57345W        W25686  21.044   9.742   1.313
57346W        W25687  44.284   6.364   1.416
57347W        W25688  26.469   1.302  11.551
57348W        W25689  27.170  43.995  14.993
57349W        W25690   0.421  28.581   3.248
57350W        W25691  15.791  21.642   5.646
57351W        W25692  37.041  21.098  11.876
57352W        W25693   9.212  21.220   5.314
57353W        W25694   2.902   5.868  10.616
57354W        W25695  12.155  34.994  11.513
57355W        W25696   2.824   5.786   0.820
57356W        W25697  35.384   0.791  14.822
57357W        W25698  25.161  35.472  12.502
57358W        W25699  24.505  33.623  11.018
57359W        W25700  34.500  14.137   3.724
57360W        W25701   1.801  43.311  12.397
57361W        W25702  35.460  17.129   2.731
57362W        W25703  17.149  42.428   0.733
57363W        W25704  10.735  16.748  12.852
57364W        W25705  20.761  15.241   2.399
57365W        W25706   3.250  21.690   2.392
57366W        W25707  28.553  33.497   2.357
57367W        W25708  20.543  10.647   1.720
57368W        W25709  31.059   4.859  12.835
57369W        W25710   8.786  14.251   4.725
57370W        W25711  34.895  43.361  10.414
57371W        W25712  11.234  38.431  14.303
57372W        W25713  34.892  35.516   1.348
57373W        W25714  38.046  34.926   3.181
57374W        W25715   0.946  32.973  14.770
57375W        W25716  44.413   9.773  14.999
57376W        W25717   3.763  32.517  10.988
57377W        W25718  33.111  14.625   3.715
57378W        W25719  36.976  38.974  12.366
57379W        W25720  25.131  29.928   1.243
57380W        W25721  11.678  29.565  12.529
57381W        W25722  17.134  35.008   1.406
57382W        W25723  35.432  44.464  12.474
57383W        W25724  19.272   2.794  12.462
57384W        W25725  39.419  11.289   0.326
57385W        W25726  25.200  40.320  14.333
57386W        W25727  35.043  22.243  10.609
57387W        W25728  16.599  35.499  13.418
57388W        W25729   9.349  40.334   4.181
57389W        W25730  17.695   9.876  14.799
57390W        W25731  40.525  14.800   0.365
57391W        W25732  23.144  24.574   2.836
57392W        W25733  32.411  12.219   4.168
57393W        W25734  44.402   7.380   1.729
57394W        W25735  21.657  37.562   3.689
57395W        W25736   0.364  17.756  10.461
57396W        W25737  43.795  37.831   2.178
57397W        W25738  27.052  13.177  13.468
57398W        W25739  12.174  17.201   2.766
57399W        W25740  12.625  27.047  14.875
57400W        W25741   0.978  16.109  12.478
57401W        W25742  40.319   4.368  14.415
57402W        W25743  33.598   5.302  10.911
57403W        W25744  10.745  22.549   3.254
57404W        W25745  29.424  17.128  10.474
57405W        W25746   8.305   1.919   3.255
57406W        W25747   6.842   4.700   2.180
57407W        W25748  18.621  34.543  13.831
57408W        W25749  10.796  29.047  14.318
57409W        W25750  42.921   3.308   0.851
57410W        W25751  43.507  25.579   2.806
57411W        W25752   7.677  11.656  10.607
57412W        W25753  35.060  30.939  14.789
57413W        W25754  26.652  32.127  12.512
57414W        W25755   9.202   8.389  13.054
57415W        W25756  20.031  44.269  14.484
57416W        W25757  42.353  35.962   4.790
57417W        W25758  31.481  39.538  14.393
57418W        W25759  11.227   3.437   4.689
57419W        W25760  44.277  32.923  10.505
57420W        W25761  40.457   0.474   0.729
57421W        W25762  39.448  29.630  13.946
57422W        W25763   0.259  26.501  10.472
57423W        W25764  30.055  19.696   1.918
57424W        W25765  16.225  33.950   0.302
57425W        W25766  29.175  19.700   4.220
57426W        W25767  32.088  12.285  11.524
57427W        W25768  26.469  33.920   2.338
57428W        W25769   0.970  18.214  13.384
57429W        W25770   6.193  22.013  11.045
57430W        W25771   7.399   6.363  14.936
57431W        W25772  38.993  28.577  11.450
57432W        W25773  24.650  19.081  11.389
57433W        W25774  41.439  12.240  14.008
57434W        W25775  30.521  14.224   0.924
57435W        W25776  19.733  18.071  14.339
57436W        W25777  12.192  41.437  10.524
57437W        W25778  12.852  15.102   0.445
57438W        W25779  19.734  22.542  10.932
57439W        W25780  43.802  14.286   4.710
57440W        W25781  25.575  14.723  13.010
57441W        W25782  20.155   3.771   3.264
57442W        W25783  43.844   7.297  13.891
57443W        W25784  18.683  13.685  13.414
57444W        W25785  20.747  44.937   2.373
57445W        W25786  13.742  19.671   2.353
57446W        W25787  42.494   7.251  10.928
57447W        W25788   4.805  14.668   4.325
57448W        W25789   3.866  23.032  14.391
57449W        W25790   4.702  12.206   4.251
57450W        W25791   8.284  29.156   2.257
57451W        W25792  15.634  39.473  12.521
57452W        W25793  42.496  18.631   1.724
57453W        W25794   8.340  23.074  10.413
57454W        W25795  40.943  38.988  14.283
57455W        W25796   3.326  44.902  13.014
57456W        W25797  31.921  34.933   4.179
57457W        W25798   8.315   4.930  10.481
57458W        W25799   0.421  15.717   2.897
57459W        W25800  34.922  15.728  10.896
57460W        W25801  29.607  36.037  13.007
57461W        W25802  41.835  16.183  13.474
57462W        W25803   5.921  44.940   0.296
57463W        W25804  16.697  17.793   0.818
57464W        W25805  37.508  28.436   1.440
57465W        W25806  38.026   9.731   3.327
57466W        W25807  39.033  27.672   0.338
57467W        W25808   4.791  12.664   4.338
57468W        W25809  12.624   9.817   4.199
57469W        W25810  13.667   9.307  14.300
57470W        W25811   9.258  12.649  14.032
57471W        W25812  14.202  13.271  14.779
57472W        W25813  29.431   0.390  10.490
57473W        W25814  30.074   6.307   2.856
57474W        W25815  44.296  17.091   3.309
57475W        W25816   3.274  29.532   3.326
57476W        W25817  28.572   5.240  13.490
57477W        W25818  31.575  29.023  14.864
57478W        W25819  17.121   5.761  11.107
57479W        W25820  33.901  19.125   3.776
57480W        W25821  33.578  13.713  10.602
57481W        W25822  12.206  16.125  12.496
57482W        W25823  23.515  15.727  12.404
57483W        W25824  32.510  42.885   3.381
57484W        W25825  36.874   8.389   0.812
57485W        W25826  39.912  35.412  14.987
57486W        W25827  41.467  31.488  13.373
57487W        W25828  24.154  40.012  10.889
57488W        W25829  16.307   2.350  13.827
57489W        W25830  15.648  19.643   3.209
57490W        W25831  31.020  27.568   3.166
57491W        W25832  41.877  16.786   2.281
57492W        W25833  31.999  36.558   3.652
57493W        W25834  22.704  25.670  12.972
57494W        W25835  28.472  25.069   4.298
57495W        W25836  37.374  12.254   1.297
57496W        W25837  23.624   9.391  12.024
57497W        W25838  35.446  20.769   3.834
57498W        W25839  31.482  34.061   4.646
57499W        W25840  34.113  18.658   2.901
57500W        W25841  43.764  19.770   0.344
57501W        W25842  20.625  22.727   0.927
57502W        W25843  20.215   0.906   2.233
57503W        W25844   5.272  40.432   4.751
57504W        W25845  31.461  41.517  12.074
57505W        W25846   0.407  28.627   1.399
57506W        W25847  33.438  43.281  14.762
57507W        W25848  35.858  33.476   4.781
57508W        W25849  35.514   9.197   1.265
57509W        W25850  27.623  27.625   5.198
57510W        W25851  32.111  11.783   5.288
57511W        W25852   4.934  26.543  11.410
57512W        W25853   7.844   3.394   5.086
57513W        W25854  10.727   3.275   3.198
57514W        W25855  24.524   5.858   1.808
57515W        W25856  32.132  41.378  10.984
57516W        W25857  16.085  29.665  10.577
57517W        W25858  40.403   9.677  14.910
57518W        W25859  29.668  16.250   1.410
57519W        W25860  12.191   3.766  11.880
57520W        W25861  20.560  18.121  11.967
57521W        W25862   4.772  25.177  10.962
57522W        W25863  14.769  13.662  11.508
57523W        W25864  23.045   8.791  11.610
57524W        W25865   1.940   4.711   3.761
57525W        W25866  44.841   6.241  14.353
57526W        W25867  30.031  10.714   2.256
57527W        W25868  43.933  15.148   4.611
57528W        W25869  37.881  10.703  14.916
57529W        W25870  15.707  26.615  13.982
57530W        W25871  29.577  39.319  13.871
57531W        W25872  10.200   4.362  14.419
57532W        W25873  18.659  21.026  14.340
57533W        W25874  36.986  22.681  13.798
57534W        W25875  15.111  38.866   2.234
57535W        W25876   1.830  26.162  12.084
57536W        W25877   9.702  23.500  10.461
57537W        W25878  23.236  31.519  14.782
57538W        W25879  24.696  43.415  13.013
57539W        W25880  24.010  27.626  11.594
57540W        W25881  14.794  43.369   4.803
57541W        W25882  17.178   2.737   1.791
57542W        W25883  12.759  28.503   2.842
57543W        W25884  31.032  38.882   3.196
57544W        W25885  32.408  36.543   1.409
57545W        W25886   9.793  17.786   0.325
57546W        W25887   7.833  40.855   2.335
57547W        W25888  20.679  43.940   1.323
57548W        W25889  18.215  12.158  14.776
57549W        W25890   9.651   4.303  10.888
57550W        W25891   7.688  43.285   2.351
57551W        W25892  22.510   8.278  10.442
57552W        W25893  13.109  19.547   5.249
57553W        W25894  29.038  38.954   0.789
57554W        W25895   4.921  21.636   1.330
57555W        W25896  38.861  20.133  12.825
57556W        W25897   8.193  18.765  12.569
57557W        W25898   4.710  34.079  12.489
57558W        W25899   2.464  34.985   4.286
57559W        W25900  43.850  39.465   3.747
57560W        W25901   6.852   8.331   4.637
57561W        W25902   0.290  17.791  10.987
57562W        W25903  42.840  20.663  10.557
57563W        W25904   4.209   5.905   1.777
57564W        W25905  15.743  28.568   0.767
57565W        W25906   6.838  23.675   0.302
57566W        W25907  36.907  39.455   1.745
57567W        W25908  24.045  13.807   4.231
57568W        W25909  22.561  43.900  12.864
57569W        W25910  19.099  44.502   1.786
57570W        W25911  10.734  25.048   2.267
57571W        W25912   8.201  11.744   4.760
57572W        W25913  22.572  20.196   4.273
57573W        W25914  34.937  37.362   3.259
57574W        W25915  31.430   8.731   1.904
57575W        W25916  20.184   5.275  12.567
57576W        W25917  16.660  25.645   2.378
57577W        W25918  14.330   2.437   2.380
57578W        W25919  11.198  19.102   0.759
57579W        W25920   5.207   6.713  11.544
57580W        W25921   5.366  41.461   3.791
57581W        W25922  35.973  24.208   1.883
57582W        W25923   5.314  30.018  10.492
57583W        W25924  30.907  20.046   0.286
57584W        W25925  43.329  10.279  14.341
57585W        W25926  35.400  18.728  14.869
57586W        W25927  21.697  13.696  14.434
57587W        W25928  17.097   0.809   4.798
57588W        W25929   8.329  19.678  13.516
57589W        W25930   0.493   1.798  12.346
57590W        W25931  18.664  18.745  10.901
57591W        W25932  10.719  39.513  12.475
57592W        W25933   3.337  42.922   0.463
57593W        W25934   2.892   3.403   4.770
57594W        W25935  17.655  24.710  10.516
57595W        W25936  26.127  20.609   0.380
57596W        W25937  28.555  19.724   1.751
57597W        W25938   2.309   0.951  11.606
57598W        W25939  43.292  28.552   3.321
57599W        W25940  37.532  34.898  11.605
57600W        W25941   4.840  14.660   1.342
57601W        W25942  12.632  37.878  11.959
57602W        W25943  18.708  30.470  10.112
57603W        W25944  34.541  37.034  11.589
57604W        W25945  22.633  10.379   5.300
57605W        W25946   4.937  24.561  12.951
57606W        W25947   0.949  12.353  12.365
57607W        W25948   0.895  19.207  14.018
57608W        W25949   7.394  42.501   0.942
57609W        W25950  13.643  32.440  13.932
57610W        W25951  14.711  19.676   2.343
57611W        W25952  33.104  34.074   1.750
57612W        W25953  30.083  43.877  12.085
57613W        W25954  32.090   3.267  11.862
57614W        W25955  29.174  37.068  14.278
57615W        W25956  18.095  36.488   4.605
57616W        W25957  34.105  33.420  11.126
57617W        W25958  23.042  20.182   4.137
57618W        W25959  31.043  43.871   2.823
57619W        W25960  40.899  33.123  14.912
57620W        W25961   9.834  13.738  13.036
57621W        W25962   7.673  17.169  14.499
57622W        W25963  36.906  30.490  13.995
57623W        W25964   0.905  10.176  11.995
57624W        W25965  16.718  31.912   2.246
57625W        W25966  12.793  40.489   0.950
57626W        W25967  19.750  16.751  14.994
57627W        W25968  26.095  19.710  14.492
57628W        W25969  31.605  41.412   0.915
57629W        W25970  23.618   2.861  10.458
57630W        W25971  35.466  41.870   0.873
57631W        W25972  15.769  24.578  11.455
57632W        W25973  16.756  13.623   0.404
57633W        W25974  34.379  20.097   3.784
57634W        W25975  22.547   1.758   5.249
57635W        W25976   4.443  23.054   2.682
57636W        W25977   3.299  33.499  14.893
57637W        W25978  29.542  21.666   0.919
57638W        W25979  40.962  38.557   1.243
57639W        W25980  26.989  16.723  11.095
57640W        W25981  33.019  27.688   3.148
57641W        W25982  15.295   3.442  13.844
57642W        W25983  35.023  37.369   3.768
57643W        W25984   8.822  40.332  13.442
57644W        W25985  39.884  37.050  13.840
57645W        W25986  17.219   0.468   9.973
57646W        W25987  41.043  42.411   3.347
57647W        W25988  13.701   3.452  10.483
57648W        W25989  32.614   0.799   4.756
57649W        W25990  21.150  31.630   2.298
57650W        W25991  23.626  25.556  10.426
57651W        W25992  31.945   7.317  14.511
57652W        W25993   0.754  16.784  10.521
57653W        W25994  31.580   9.804  10.415
57654W        W25995  41.872  32.141  14.938
57655W        W25996   4.935  30.484  12.927
57656W        W25997  43.813  11.789   4.169
57657W        W25998  11.773  15.106  14.509
57658W        W25999  37.512  12.656   4.599
57659W        W26000  26.153   5.293  12.450
57660W        W26001   6.223  14.175   4.687
57661W        W26002  13.131  32.136  10.080
57662W        W26003  15.268  30.487   1.874
57663W        W26004  19.058   9.351  13.333
57664W        W26005  32.932  29.039  13.342
57665W        W26006  16.119  20.760   1.797
57666W        W26007  23.526  16.613   1.879
57667W        W26008  17.221  16.235   1.400
57668W        W26009  17.100  15.740   5.267
57669W        W26010  11.621   3.709  11.860
57670W        W26011  30.633  18.216  13.504
57671W        W26012  36.065  37.996   2.363
57672W        W26013  42.368  28.020  13.390
57673W        W26014   1.836   0.911   2.397
57674W        W26015   6.809   5.770  12.999
57675W        W26016   8.861   7.240   4.813
57676W        W26017  17.232   1.447   3.205
57677W        W26018  32.096  43.930  12.005
57678W        W26019  22.719  24.520   3.681
57679W        W26020  32.116  16.594   3.257
57680W        W26021  39.437   9.810  10.475
57681W        W26022  25.112  25.118   3.788
57682W        W26023   4.302  11.818   1.302
57683W        W26024  24.624  24.649   0.418
57684W        W26025  31.435  11.166   3.653
57685W        W26026   0.332   8.271  12.887
57686W        W26027  12.850   3.887  12.415
57687W        W26028  17.293   5.293   4.195
57688W        W26029   5.923  14.189   3.281
57689W        W26030  25.059  33.075   2.354
57690W        W26031  24.091  38.334  10.903
57691W        W26032   6.427  10.271   2.369
57692W        W26033  17.290  18.248   0.406
57693W        W26034  28.666  23.718  10.465
57694W        W26035  27.476  20.261  14.457
57695W        W26036  26.659   2.846  10.557
57696W        W26037   1.312  31.522  13.515
57697W        W26038  36.853  12.173  13.985
57698W        W26039  38.426  36.850   0.428
57699W        W26040  28.938  16.709  14.492
57700W        W26041  36.371  36.397  12.988
57701W        W26042   2.339  19.593  14.439
57702W        W26043   6.387  16.712   4.793
57703W        W26044  23.212  44.505  11.607
57704W        W26045  35.566  43.389   2.875
57705W        W26046  41.823  13.324  12.047
57706W        W26047  32.940  14.787  11.388
57707W        W26048   1.293  31.905   4.787
57708W        W26049  15.160   9.718  11.070
57709W        W26050  39.492  14.308   2.855
57710W        W26051  14.733  42.329   4.237
57711W        W26052   9.318  38.058  10.895
57712W        W26053  13.118  43.843  11.387
57713W        W26054  24.556  44.929  11.517
57714W        W26055  44.904  29.013  13.463
57715W        W26056  11.819  26.114  12.450
57716W        W26057  43.789   2.855  14.844
57717W        W26058  28.095  24.554   0.890
57718W        W26059   4.753  27.074   2.691
57719W        W26060  34.972   8.755  10.469
57720W        W26061  43.426  21.033   0.894
57721W        W26062  30.450  13.651  11.417
57722W        W26063   4.805  40.912  12.009
57723W        W26064  44.465  42.832   2.324
57724W        W26065  37.472  27.951  11.076
57725W        W26066  18.625   0.753  14.030
57726W        W26067  40.833  41.824  12.994
57727W        W26068  15.814  41.992   0.873
57728W        W26069  39.452  22.029   0.369
57729W        W26070  38.380   4.823   1.381
57730W        W26071  14.597  42.951   4.125
57731W        W26072  15.152   2.911   0.755
57732W        W26073  31.594  42.369   1.720
57733W        W26074  13.153   1.400   4.266
57734W        W26075  30.982  13.822   3.329
57735W        W26076   9.298   4.396  12.868
57736W        W26077  42.908  21.699   2.835
57737W        W26078  36.006  25.559   3.173
57738W        W26079  11.335  39.478  10.609
57739W        W26080  32.131  27.495   2.308
57740W        W26081  21.670  42.829   0.448
57741W        W26082  12.265  14.791  10.901
57742W        W26083  13.285   8.372  14.896
57743W        W26084  17.169  22.721  14.350
57744W        W26085   4.758   3.273   4.748
57745W        W26086   5.400  24.155  13.985
57746W        W26087  12.159  38.345   1.411
57747W        W26088  35.474  20.182   2.293
57748W        W26089  14.615  20.172   4.813
57749W        W26090  10.632   7.391  11.411
57750W        W26091  22.673  11.226   0.948
57751W        W26092  38.464  30.071   4.654
57752W        W26093  43.798   1.760  11.072
57753W        W26094  36.409  20.061   3.338
57754W        W26095   2.904  17.101  11.082
57755W        W26096   1.381  32.075   1.783
57756W        W26097  32.981  33.481   3.208
57757W        W26098  37.459  39.952   2.292
57758W        W26099   4.870   7.226  14.908
57759W        W26100   3.925  10.273   2.790
57760W        W26101  24.176  42.905   0.393
57761W        W26102  44.860  35.890  11.377
57762W        W26103  13.801   3.370   1.439
57763W        W26104  26.167  19.200  11.989
57764W        W26105  12.329  34.419   0.905
57765W        W26106  24.616  33.967  11.946
57766W        W26107  22.546  32.553   2.280
57767W        W26108  34.994  11.662   2.677
57768W        W26109  35.419  29.960   1.420
57769W        W26110  44.330  33.061  13.003
57770W        W26111  28.990   8.279  13.523
57771W        W26112  32.534  37.002  11.062
57772W        W26113  26.082   0.936   2.699
57773W        W26114  29.113   3.896  10.497
57774W        W26115  42.032   3.291   5.247
57775W        W26116  38.561  30.912   1.358
57776W        W26117  21.163   2.339   2.705
57777W        W26118  41.467  27.617   4.145
57778W        W26119  36.944  44.263  12.381
57779W        W26120  31.582  24.988   3.167
57780W        W26121  37.481   8.212   4.638
57781W        W26122   0.980   8.674   4.835
57782W        W26123  36.033  13.236   4.716
57783W        W26124  23.114  37.532   1.919
57784W        W26125  13.830  40.472   0.851
57785W        W26126  19.239  11.852   1.421
57786W        W26127  20.640  24.108  13.853
57787W        W26128   2.435  34.074   1.694
57788W        W26129  18.296   3.328   2.329
57789W        W26130  25.570  20.169  14.427
57790W        W26131  23.619   4.308   1.776
57791W        W26132  19.654  13.125   1.271
57792W        W26133  39.039  36.459   3.790
57793W        W26134  11.191  28.547  12.055
57794W        W26135  41.796  36.452  12.429
57795W        W26136   3.307  38.339   3.760
57796W        W26137  35.997  28.639   1.446
57797W        W26138  23.617   7.207  10.988
57798W        W26139  32.993  39.976   3.324
57799W        W26140  35.469  20.200   3.384
57800W        W26141  24.981  16.220  11.476
57801W        W26142  19.558  19.122   2.346
57802W        W26143   9.324  10.878   3.700
57803W        W26144  17.079  14.644  10.898
57804W        W26145  13.286  39.439  14.000
57805W        W26146   5.927   0.937   2.287
57806W        W26147  12.782  42.366   0.361
57807W        W26148  40.421  12.205  10.532
57808W        W26149   7.316   7.350   3.196
57809W        W26150   0.808  15.661  14.293
57810W        W26151  13.245  33.486  12.919
57811W        W26152  16.713  29.594  13.325
57812W        W26153  29.512   9.223   2.276
57813W        W26154  23.086  17.746   3.657
57814W        W26155  42.857   0.945  11.381
57815W        W26156  34.095  26.123   1.694
57816W        W26157  13.274   1.380  12.560
57817W        W26158   1.801   1.794   1.861
57818W        W26159  18.761   5.838   1.865
57819W        W26160  43.985  36.974   4.831
57820W        W26161   2.925   0.436  10.979
57821W        W26162  44.494  10.140   0.874
57822W        W26163  25.181  39.009  12.005
57823W        W26164  34.959  32.460  12.933
57824W        W26165  23.099   6.416   0.925
57825W        W26166  32.558   4.760   3.360
57826W        W26167  33.550  31.982  12.827
57827W        W26168  31.628  19.095   2.371
57828W        W26169   4.373   0.422  12.872
57829W        W26170  24.702  36.090  11.068
57830W        W26171  28.023  22.028  11.564
57831W        W26172  14.717  38.369  10.040
57832W        W26173  15.285  13.793  13.029
57833W        W26174   2.274  36.097   4.211
57834W        W26175   4.737  12.838  11.920
57835W        W26176  44.399  42.325   4.614
57836W        W26177  21.045   4.404  14.807
57837W        W26178  42.453  20.067  12.570
57838W        W26179  32.944  44.490   4.277
57839W        W26180  25.131  25.586  11.020
57840W        W26181   5.273  38.495  10.619
57841W        W26182  36.884  26.507  10.922
57842W        W26183  24.103   3.434   4.148
57843W        W26184  17.073  31.017   4.281
57844W        W26185  25.663  10.374   0.317
57845W        W26186  10.658  29.521  12.462
57846W        W26187   8.220  40.854  11.393
57847W        W26188  21.732  35.977  12.339
57848W        W26189  13.226  12.763  13.998
57849W        W26190   4.224  32.565  13.379
57850W        W26191  28.650  43.366  11.087
57851W        W26192  42.345  39.490   0.908
57852W        W26193   1.391  33.461  14.898
57853W        W26194   1.749  38.559   2.352
57854W        W26195  35.892  32.026  10.919
57855W        W26196  10.741  43.304   1.220
57856W        W26197  27.971  34.904  12.070
57857W        W26198   0.850   7.210  14.905
57858W        W26199   5.778   7.397   3.850
57859W        W26200  22.580   9.290   4.118
57860W        W26201   2.454   1.772  11.928
57861W        W26202  21.558  28.147   9.959
57862W        W26203   9.205  29.548   3.321
57863W        W26204  13.650   4.752   1.227
57864W        W26205  15.124   3.255  12.058
57865W        W26206   0.280  37.928  14.329
57866W        W26207  34.427  33.986   1.785
57867W        W26208  30.070  28.130  12.537
57868W        W26209  23.719  17.595  12.993
57869W        W26210   8.662  29.519   5.197
57870W        W26211  18.068  37.401   4.232
57871W        W26212  27.015  26.998  12.875
57872W        W26213  32.082  39.530   1.218
57873W        W26214  14.825   0.471  13.010
57874W        W26215  29.088   2.751  12.488
57875W        W26216  40.392  42.811  12.349
57876W        W26217   4.774  24.997  12.092
57877W        W26218  30.534   6.864   4.351
57878W        W26219  25.521  30.493   1.776
57879W        W26220  42.820  12.210   2.765
57880W        W26221  39.027  28.553  10.910
57881W        W26222   0.797   1.894   3.799
57882W        W26223  40.338  34.377  11.513
57883W        W26224   2.345  30.589   1.809
57884W        W26225   2.813  18.213   3.647
57885W        W26226  35.394  18.222  12.908
57886W        W26227  41.952   4.205   1.756
57887W        W26228  34.407  21.251   9.950
57888W        W26229  44.782  26.659   4.643
57889W        W26230  17.262  40.039   1.449
57890W        W26231  43.406  11.135   3.316
57891W        W26232  37.476  17.278   1.438
57892W        W26233  10.747   8.251  11.502
57893W        W26234  18.120  25.581   4.681
57894W        W26235  12.789  14.298  10.428
57895W        W26236  40.843   1.338   2.258
57896W        W26237  37.445   6.899   2.771
57897W        W26238  39.335  36.907  13.897
57898W        W26239  41.906  16.693   3.188
57899W        W26240   9.664  25.530   4.704
57900W        W26241  44.762  44.476  14.880
57901W        W26242  30.937  42.378  11.372
57902W        W26243  26.127  23.682  11.388
57903W        W26244  24.596  37.845   2.243
57904W        W26245  27.629   0.323  12.443
57905W        W26246  40.846  14.755  12.560
57906W        W26247  22.666  20.576   2.388
57907W        W26248  21.024  38.061   1.300
57908W        W26249  41.026  32.417   2.275
57909W        W26250  20.665   9.194   0.803
57910W        W26251  40.847  11.703   4.186
57911W        W26252  37.337  20.684  11.505
57912W        W26253  39.545   8.313   0.465
57913W        W26254  34.464  36.360  13.908
57914W        W26255  13.748  19.741  14.332
57915W        W26256  35.935  39.048  14.016
57916W        W26257  16.796  17.562  12.953
57917W        W26258  34.392  31.557  13.047
57918W        W26259  26.081  43.883  11.579
57919W        W26260  31.438  30.080   3.704
57920W        W26261  40.921  39.484  13.994
57921W        W26262  42.418   8.299   2.852
57922W        W26263  25.217  36.549   2.306
57923W        W26264   2.847  32.014  10.890
57924W        W26265   9.846   1.772  12.019
57925W        W26266  41.467   0.371  11.893
57926W        W26267  44.922  10.231   4.151
57927W        W26268   4.360  31.434  10.562
57928W        W26269  19.081   8.339   4.615
57929W        W26270   7.886  26.487   1.340
57930W        W26271  14.786   4.237  10.905
57931W        W26272  40.975   9.234  14.790
57932W        W26273  28.170  15.678   5.150
57933W        W26274  31.445  31.611   1.711
57934W        W26275  37.906  36.586  13.400
57935W        W26276  36.989  18.135   0.841
57936W        W26277  36.525  29.486  11.612
57937W        W26278  10.370   0.447  10.451
57938W        W26279  32.543  22.519   0.857
57939W        W26280  16.610  44.786   0.844
57940W        W26281  13.743   9.850   0.944
57941W        W26282  42.366  11.197  11.120
57942W        W26283  33.624  42.987   9.923
57943W        W26284   8.734  29.546  13.051
57944W        W26285   7.799  24.492   1.380
57945W        W26286  20.606  28.647   0.289
57946W        W26287  21.077   1.902  11.979
57947W        W26288  38.492  15.217  12.039
57948W        W26289  37.507  19.259   0.803
57949W        W26290   9.876  19.285   3.339
57950W        W26291  43.308  11.254   2.863
57951W        W26292  18.216   1.933   2.699
57952W        W26293   5.905  15.620  12.918
57953W        W26294  36.446  38.466   0.844
57954W        W26295   8.337  30.539   2.226
57955W        W26296  29.437  24.036  13.857
57956W        W26297  16.783  15.262  14.366
57957W        W26298  13.650  17.718   4.177
57958W        W26299  26.573  34.503  10.018
57959W        W26300  43.438   9.151  12.549
57960W        W26301  14.222  32.406   2.680
57961W        W26302  40.379  14.213  10.613
57962W        W26303  15.207   6.857  14.353
57963W        W26304  10.160  20.055   1.864
57964W        W26305  42.000  44.849   4.247
57965W        W26306   2.387  27.988   2.283
57966W        W26307   7.205  38.967   1.722
57967W        W26308  30.078   9.875   3.309
57968W        W26309   6.878  30.938   3.857
57969W        W26310  11.751  27.547   4.667
57970W        W26311  22.504  35.085  14.451
57971W        W26312  41.917   3.410  12.413
57972W        W26313  31.464  20.063  10.554
57973W        W26314   4.761  15.757  14.304
57974W        W26315  34.111  43.486  14.439
57975W        W26316   2.944  33.471   1.886
57976W        W26317  36.910  44.010   2.372
57977W        W26318  29.655   2.777   0.441
57978W        W26319  13.682   5.814  12.463
57979W        W26320  21.046  11.198  11.915
57980W        W26321  15.731  21.214   1.832
57981W        W26322  37.571  29.552   0.769
57982W        W26323  20.539  31.913   2.875
57983W        W26324   7.692  40.342  11.476
57984W        W26325  40.847  21.158  12.567
57985W        W26326   4.277   5.255   3.265
57986W        W26327   3.895  26.475   4.624
57987W        W26328  15.272   3.294  14.431
57988W        W26329   6.798   9.716   3.297
57989W        W26330  24.205  13.113  12.050
57990W        W26331  12.829   8.360  11.961
57991W        W26332  11.822  15.198  12.545
57992W        W26333  13.337  40.872   0.252
57993W        W26334  41.341  25.049  12.344
57994W        W26335  10.330   6.185  11.006
57995W        W26336  32.459  38.518  13.456
57996W        W26337  17.215  20.613   2.901
57997W        W26338  43.325   6.810   2.681
57998W        W26339  17.696  24.164   9.932
57999W        W26340  36.946  19.247   3.207
58000W        W26341  43.779  15.612  12.375
58001W        W26342  15.113   4.926   0.808
58002W        W26343   8.817  16.134   0.816
58003W        W26344  43.785  43.829  10.436
58004W        W26345  27.132   4.399  12.485
58005W        W26346   2.352   7.185  14.423
58006W        W26347  29.047  34.039   4.132
58007W        W26348   0.842  28.022  11.024
58008W        W26349  17.780  39.463  13.015
58009W        W26350  20.665  44.453   0.824
58010W        W26351  35.445  41.385  11.952
58011W        W26352   0.901  42.940  12.837
58012W        W26353  40.857   5.899  14.975
58013W        W26354   9.257  12.806   1.853
58014W        W26355   2.426  33.054   2.821
58015W        W26356  14.258  32.565   1.827
58016W        W26357  31.638  27.998   3.729
58017W        W26358  42.928  21.656  13.001
58018W        W26359   3.786  29.433  11.977
58019W        W26360  42.344  12.638  13.063
58020W        W26361  42.403  27.468  10.978
58021W        W26362  19.138  38.980   0.939
58022W        W26363  14.718  20.719   4.838
58023W        W26364  28.537  35.547   2.419
58024W        W26365   4.917  39.813   1.354
58025W        W26366  32.917  41.858   1.280
58026W        W26367  32.525  22.512  10.014
58027W        W26368  11.186  39.024   0.470
58028W        W26369   2.361  35.397  11.503
58029W        W26370  38.860  32.464  10.617
58030W        W26371   7.866  23.673  10.639
58031W        W26372   9.286  39.362   0.735
58032W        W26373  23.515   1.281  14.954
58033W        W26374  15.214  41.353   3.857
58034W        W26375  27.594  39.444  11.428
58035W        W26376  12.148  35.937   3.261
58036W        W26377  18.590  37.501  12.439
58037W        W26378   5.728  39.397  13.315
58038W        W26379  17.136  30.636   1.412
58039W        W26380  34.053  17.173  14.381
58040W        W26381  26.639   8.234   0.934
58041W        W26382  39.978  30.456  10.587
58042W        W26383  42.869  23.146   1.328
58043W        W26384  34.976  24.478   2.209
58044W        W26385   0.397  32.933   1.408
58045W        W26386  16.239  40.505  10.962
58046W        W26387  27.681  21.204  13.880
58047W        W26388  44.786  35.035  11.388
58048W        W26389  11.365  16.573   0.829
58049W        W26390  31.944  19.131   1.781
58050W        W26391  36.978   6.377   1.907
58051W        W26392   0.435  38.870  10.894
58052W        W26393  18.768  40.531  11.977
58053W        W26394  17.177  10.304   0.801
58054W        W26395  10.150  36.088  12.940
58055W        W26396  39.913  13.212  12.847
58056W        W26397  16.773  20.119  11.912
58057W        W26398  35.569  26.522   0.927
58058W        W26399  35.067  23.508   3.831
58059W        W26400  37.011  23.989  14.347
58060W        W26401  38.535  30.017   0.768
58061W        W26402  30.908   7.823   4.124
58062W        W26403  16.216  25.063  10.600
58063W        W26404  33.495  17.250   3.385
58064W        W26405  13.638  36.027  14.898
58065W        W26406  31.078  26.651  12.436
58066W        W26407  40.944  40.941  12.525
58067W        W26408   5.799  32.007   2.225
58068W        W26409  44.859  21.548  12.461
58069W        W26410  39.488  33.586   2.317
58070W        W26411  26.094  37.352   1.259
58071W        W26412  12.224  42.031  14.388
58072W        W26413  36.070   3.271   1.912
58073W        W26414  32.596   7.723  13.465
58074W        W26415  28.439  43.327   2.362
58075W        W26416  41.326  40.810   5.293
58076W        W26417  11.331  20.215  11.447
58077W        W26418   0.798  26.208  10.411
58078W        W26419  21.020  31.993   2.684
58079W        W26420  10.670  28.022  10.435
58080W        W26421   7.218   4.897  13.342
58081W        W26422  25.088  29.554   2.736
58082W        W26423  43.437  15.192  13.463
58083W        W26424  43.512  37.550   3.730
58084W        W26425  25.478  24.204  14.790
58085W        W26426  27.611  35.592  11.073
58086W        W26427  10.811  21.217   1.861
58087W        W26428  15.200  40.359   3.387
58088W        W26429  18.759  19.577   1.835
58089W        W26430  23.593  33.085   0.942
58090W        W26431  12.301  43.994  14.280
58091W        W26432  17.581   2.269  14.819
58092W        W26433  36.870   4.727  11.538
58093W        W26434  30.986  24.713  13.872
58094W        W26435  40.398  41.378   2.799
58095W        W26436  19.645  25.646  11.071
58096W        W26437  34.990   6.409  14.767
58097W        W26438  26.693  15.112   3.260
58098W        W26439  15.212  25.658   1.420
58099W        W26440   8.338  13.708  12.915
58100W        W26441   2.329  36.403  10.954
58101W        W26442   7.176  24.688  14.807
58102W        W26443  31.024  44.895   3.669
58103W        W26444   3.413  36.072   2.857
58104W        W26445  34.463  30.120   4.796
58105W        W26446  36.425   6.337  14.805
58106W        W26447  19.565  40.843  11.062
58107W        W26448  12.144   1.406   1.797
58108W        W26449   1.341  32.596  11.602
58109W        W26450   5.205  16.581   2.668
58110W        W26451  24.610  22.585   2.794
58111W        W26452  25.163  32.401   0.338
58112W        W26453  29.627  27.148   0.733
58113W        W26454  38.387  35.047   3.827
58114W        W26455  43.807  12.839   1.735
58115W        W26456  15.104  41.337  13.537
58116W        W26457  12.283  10.798   5.134
58117W        W26458  22.063  19.733  12.392
58118W        W26459  21.653  37.410  13.486
58119W        W26460   7.356  30.909   4.323
58120W        W26461   0.451   3.908   0.952
58121W        W26462  39.926  44.332  10.947
58122W        W26463  41.534  41.805   2.309
58123W        W26464  10.647  10.179  12.832
58124W        W26465   6.741  28.174   1.798
58125W        W26466  31.929  36.507  12.083
58126W        W26467  20.229  43.435   2.777
58127W        W26468  10.858   2.387  11.528
58128W        W26469  16.163  26.678  12.862
58129W        W26470   9.189   8.663  11.526
58130W        W26471  10.638  22.600  11.962
58131W        W26472  41.447  43.846   3.647
58132W        W26473  35.108  29.535  13.319
58133W        W26474  22.134  40.851   0.963
58134W        W26475  20.553  43.773   0.737
58135W        W26476   6.183   5.888   4.147
58136W        W26477  27.042  37.528   0.735
58137W        W26478  37.083  30.108   2.337
58138W        W26479   5.390  26.511   4.702
58139W        W26480  34.921  44.944   3.373
58140W        W26481  24.546  28.508   1.349
58141W        W26482  24.073  20.146   9.975
58142W        W26483  43.434  22.703  13.321
58143W        W26484  14.630  24.094   1.710
58144W        W26485  16.171  28.038   4.213
58145W        W26486  27.494  34.017   4.136
58146W        W26487  39.328  37.414   1.391
58147W        W26488  15.319  37.832   2.664
58148W        W26489   6.718  33.571   3.215
58149W        W26490   9.825  33.572  11.020
58150W        W26491  26.521  23.536  11.127
58151W        W26492  37.085  37.946  14.765
58152W        W26493   0.775  31.502   2.311
58153W        W26494   9.741   2.903   2.226
58154W        W26495  20.174  10.236   2.665
58155W        W26496  20.654  17.173   1.915
58156W        W26497  21.594  39.043  10.906
58157W        W26498  22.164  10.143   2.894
58158W        W26499  37.941  10.765  10.927
58159W        W26500  14.807  32.051  14.482
58160W        W26501   7.322   5.761   1.219
58161W        W26502  33.584   5.869  10.987
58162W        W26503  12.186  16.596   3.747
58163W        W26504  21.222   3.883  12.390
58164W        W26505  19.207  15.324  14.913
58165W        W26506  42.390  40.901   3.185
58166W        W26507   6.194  24.545   4.340
58167W        W26508  32.616  41.538  12.963
58168W        W26509  14.305  30.475   3.660
58169W        W26510  13.601  23.094   1.344
58170W        W26511  25.079  27.005   4.141
58171W        W26512  21.671  37.455  14.505
58172W        W26513  22.713  28.521  14.001
58173W        W26514  26.053  19.052  11.088
58174W        W26515   5.412  27.633  13.457
58175W        W26516   3.944  17.254   3.690
58176W        W26517  24.594   5.928  11.524
58177W        W26518  36.416  24.029   2.812
58178W        W26519   2.274  21.150   3.196
58179W        W26520  34.538  16.584   1.415
58180W        W26521  39.433  15.775   0.884
58181W        W26522  13.693  40.540  14.441
58182W        W26523  21.550  24.015   2.230
58183W        W26524  16.596  16.748   4.813
58184W        W26525  22.513  43.869   4.148
58185W        W26526  21.097  30.022  13.499
58186W        W26527  27.030  43.883  11.107
58187W        W26528   7.404  41.891   0.398
58188W        W26529  21.673  30.415   1.841
58189W        W26530  17.592  15.222  11.942
58190W        W26531  32.895  13.279  13.916
58191W        W26532   3.725  22.720   4.214
58192W        W26533  20.693  42.856   1.695
58193W        W26534  23.112   2.812  14.289
58194W        W26535  41.536   2.846  12.967
58195W        W26536   0.393   7.367  13.319
58196W        W26537  21.603  43.440   1.270
58197W        W26538  22.689  24.153   5.264
58198W        W26539   2.357  37.465  11.572
58199W        W26540   9.815  42.885  13.414
58200W        W26541  12.842  23.086   3.640
58201W        W26542   7.869   9.797   2.749
58202W        W26543  38.040  16.245   4.272
58203W        W26544   9.858  32.088  11.971
58204W        W26545   7.403  39.935   3.355
58205W        W26546  31.630   8.806  11.476
58206W        W26547   8.399  22.250  13.364
58207W        W26548  38.899  15.709  12.944
58208W        W26549  15.633  31.589   0.899
58209W        W26550   8.748  11.352  13.444
58210W        W26551   3.754  33.111  12.413
58211W        W26552  10.644  19.074   2.747
58212W        W26553  26.519   6.802   0.294
58213W        W26554   3.746  19.241  10.529
58214W        W26555   1.893   9.694   4.618
58215W        W26556  26.700  35.372  11.104
58216W        W26557   4.854  13.617  12.563
58217W        W26558  42.420  26.115  13.516
58218W        W26559   9.686  14.153   4.798
58219W        W26560  42.517  22.112   1.891
58220W        W26561  38.973   2.436  10.623
58221W        W26562  42.827  12.306  12.571
58222W        W26563  22.522  13.258   2.182
58223W        W26564  22.631  34.432  11.949
58224W        W26565  40.983  36.078   4.629
58225W        W26566  42.368  30.645   0.360
58226W        W26567  32.139  40.034   4.282
58227W        W26568  23.574  20.212  13.322
58228W        W26569  35.488  24.584  14.386
58229W        W26570  37.431  42.024   0.402
58230W        W26571   2.839  28.497  13.867
58231W        W26572  31.066  11.712   4.670
58232W        W26573  44.450  26.558  14.286
58233W        W26574  26.553   6.318  10.581
58234W        W26575  43.483  28.564   2.877
58235W        W26576  12.661  21.076   3.661
58236W        W26577   5.896  19.256  12.414
58237W        W26578  15.206  16.280  12.061
58238W        W26579  37.574  29.101  10.601
58239W        W26580  35.555  38.881  11.966
58240W        W26581  40.944  10.152   1.418
58241W        W26582  37.509   7.850  13.869
58242W        W26583   6.808  31.480  12.072
58243W        W26584  20.727  20.109  14.968
58244W        W26585   8.351  27.681  11.080
58245W        W26586  18.242  36.936  13.895
58246W        W26587  20.108  18.695  10.444
58247W        W26588  10.259  42.888   0.878
58248W        W26589  13.308  39.432   3.359
58249W        W26590  20.166  15.154  11.525
58250W        W26591  29.544   0.403   1.261
58251W        W26592  26.487  30.457   4.183
58252W        W26593  19.708  40.426  13.406
58253W        W26594  36.888  41.039   2.763
58254W        W26595  32.590  24.526   4.635
58255W        W26596  18.060  18.069   3.167
58256W        W26597  22.507   8.287   3.178
58257W        W26598  26.470  12.610  11.413
58258W        W26599  35.520  11.158  12.972
58259W        W26600  32.908  17.225   0.454
58260W        W26601   4.808  44.800  10.414
58261W        W26602  23.620  26.165  10.427
58262W        W26603   6.379  34.389  11.955
58263W        W26604  14.660  13.714   3.309
58264W        W26605  11.722  21.161   3.723
58265W        W26606  32.052   6.256   3.359
58266W        W26607  28.536   2.836  12.441
58267W        W26608  39.539  43.322   1.218
58268W        W26609  23.562  29.947  14.807
58269W        W26610   6.342  20.673  10.570
58270W        W26611  17.726  42.355  13.349
58271W        W26612  18.246  23.514   4.179
58272W        W26613   4.309  43.284  13.860
58273W        W26614  38.336  39.937   2.837
58274W        W26615   3.787  19.701  11.447
58275W        W26616  20.730   8.310  11.531
58276W        W26617   9.152  44.836  13.957
58277W        W26618   0.344  39.438   4.188
58278W        W26619  17.576   8.245  12.924
58279W        W26620   2.256   0.904  11.998
58280W        W26621  39.505   7.708   3.783
58281W        W26622   2.396  30.062   2.780
58282W        W26623  41.524  17.715  14.912
58283W        W26624  36.377  19.746   3.804
58284W        W26625  11.855  23.707   4.619
58285W        W26626  33.521  18.065  14.904
58286W        W26627  35.520  39.896  12.989
58287W        W26628   6.370   3.851   3.833
58288W        W26629  36.964  30.052  10.590
58289W        W26630  12.824   1.969   4.187
58290W        W26631  10.257   6.839  14.508
58291W        W26632   8.284  13.780   1.928
58292W        W26633  42.497  22.643  14.400
58293W        W26634  40.809  33.607   0.396
58294W        W26635  36.026   8.209  11.955
58295W        W26636  38.938  19.617  14.287
58296W        W26637   3.830  35.466   4.836
58297W        W26638   7.801   8.338  12.905
58298W        W26639  27.650  42.794   0.920
58299W        W26640   2.801  25.642  11.389
58300W        W26641  40.966   8.186  11.128
58301W        W26642   9.290  38.966  14.925
58302W        W26643   9.888  37.082   0.827
58303W        W26644  34.447  22.582  14.963
58304W        W26645  33.031  27.060  12.076
58305W        W26646   3.416  25.206   0.967
58306W        W26647  42.858   4.209   2.741
58307W        W26648  13.196  39.904   4.632
58308W        W26649  21.730  32.061   2.684
58309W        W26650   9.874  10.344  12.345
58310W        W26651  29.028  21.541  13.857
58311W        W26652   3.890  39.512  13.833
58312W        W26653  31.144  12.126  14.334
58313W        W26654   2.743   4.409   2.752
58314W        W26655  41.513   9.317   2.787
58315W        W26656  25.005  40.332   4.818
58316W        W26657  19.635   8.358  14.858
58317W        W26658  33.000   9.273  13.460
58318W        W26659  27.664  14.765  11.061
58319W        W26660  17.799  35.097   5.264
58320W        W26661  37.551  23.571   2.711
58321W        W26662  37.001   4.776  12.947
58322W        W26663  29.628   6.321   2.668
58323W        W26664   0.898  42.912  10.545
58324W        W26665  22.621  34.477  14.761
58325W        W26666  39.531  29.969  14.986
58326W        W26667  16.178   5.223   2.737
58327W        W26668  44.865  12.259  14.460
58328W        W26669  35.109  24.203  10.623
58329W        W26670   5.722  24.069   0.778
58330W        W26671   3.264  44.418  11.924
58331W        W26672  11.789  16.134   3.714
58332W        W26673   6.232  26.170  12.871
58333W        W26674  39.863  22.132   3.351
58334W        W26675   4.866  12.353   2.254
58335W        W26676  40.531  43.446   0.865
58336W        W26677  27.487  22.211  10.536
58337W        W26678   9.683  36.355  10.993
58338W        W26679   2.795   4.892  12.940
58339W        W26680   9.283  10.815   0.905
58340W        W26681  21.589  31.415  11.512
58341W        W26682  34.976  23.492   2.790
58342W        W26683  21.090  20.231   2.183
58343W        W26684  31.022   8.747  12.482
58344W        W26685  43.327   2.420   0.916
58345W        W26686  18.569  15.163  13.021
58346W        W26687  35.038  20.255  13.455
58347W        W26688  18.746  40.467  10.606
58348W        W26689   8.784  17.574   0.786
58349W        W26690  28.503   3.822   2.217
58350W        W26691  26.119  24.209  14.987
58351W        W26692  24.993  25.966  10.092
58352W        W26693   9.879  26.992  10.522
58353W        W26694   7.299  18.226  10.573
58354W        W26695  20.082  24.005  12.443
58355W        W26696  16.165  10.271  14.872
58356W        W26697  25.012  25.638   1.357
58357W        W26698  30.639   9.784  12.518
58358W        W26699  20.744  35.074   2.753
58359W        W26700   9.235  43.468  10.492
58360W        W26701   2.310   1.467   4.164
58361W        W26702   7.700  21.604  11.508
58362W        W26703  22.195  28.567   1.315
58363W        W26704   2.282  42.896  10.616
58364W        W26705  11.761  44.423   0.839
58365W        W26706  29.977  13.242   0.259
58366W        W26707  16.636  10.295  10.926
58367W        W26708  14.682   7.895  10.922
58368W        W26709   5.866  18.571  10.917
58369W        W26710  34.099  32.434   0.364
58370W        W26711   6.344   1.756   3.755
58371W        W26712  37.491  23.506  14.507
58372W        W26713  15.794  20.198   3.232
58373W        W26714   0.440  24.201  13.426
58374W        W26715  22.613  33.438   3.348
58375W        W26716   0.394   3.808   4.241
58376W        W26717  40.422  39.375  10.583
58377W        W26718   7.326  31.630   4.153
58378W        W26719  28.025   0.764   3.867
58379W        W26720  33.602   8.370  13.371
58380W        W26721  24.526  25.137  12.853
58381W        W26722  19.238  44.307  13.520
58382W        W26723  15.211  43.861   2.320
58383W        W26724  35.435  36.854   0.334
58384W        W26725  24.555  23.997  13.427
58385W        W26726  17.691  12.301  14.790
58386W        W26727  24.063  11.184   2.844
58387W        W26728  30.415  32.969   4.165
58388W        W26729  41.330  35.924   4.163
58389W        W26730  22.099  24.004   1.265
58390W        W26731  40.466  44.432  11.860
58391W        W26732  38.836  34.863  14.891
58392W        W26733  26.565  28.442   5.113
58393W        W26734  38.541  40.832   2.249
58394W        W26735  36.003  30.447   2.262
58395W        W26736  33.560  16.308  13.507
58396W        W26737   6.258   5.342  11.859
58397W        W26738   2.389   8.886  13.902
58398W        W26739  41.822  35.042   4.635
58399W        W26740  30.933  29.616  12.497
58400W        W26741   1.769  17.602   3.342
58401W        W26742   2.263  26.998  13.857
58402W        W26743   4.701  10.788  12.965
58403W        W26744  36.417  19.747  11.951
58404W        W26745   3.261   2.882   2.238
58405W        W26746  25.160  21.553   3.178
58406W        W26747  11.678  28.003   4.837
58407W        W26748  17.102  15.204   4.831
58408W        W26749  16.770  22.639  10.463
58409W        W26750  13.728  23.575   2.180
58410W        W26751  36.931  27.033  11.970
58411W        W26752  39.061   0.900  14.017
58412W        W26753  25.666  17.275   0.745
58413W        W26754  37.856  11.793   3.263
58414W        W26755  37.468  18.763   1.253
58415W        W26756  39.363  30.549   4.790
58416W        W26757  32.954   7.375   3.695
58417W        W26758  43.869  20.573   1.885
58418W        W26759  21.079  35.899   4.647
58419W        W26760  29.519  26.466   5.299
58420W        W26761   1.341  35.532  10.515
58421W        W26762  29.934  23.023   0.441
58422W        W26763  21.028  18.073   0.258
58423W        W26764  42.809  29.618  14.400
58424W        W26765  16.175   0.318  13.054
58425W        W26766   2.416  39.525   0.410
58426W        W26767  36.357  18.644   3.236
58427W        W26768  28.589  42.377  10.608
58428W        W26769  39.945  21.729  11.595
58429W        W26770   5.205  29.976  14.329
58430W        W26771   9.288  42.317  14.424
58431W        W26772  28.135   9.768  13.319
58432W        W26773  22.650  38.503  10.476
58433W        W26774  41.302   5.748  13.046
58434W        W26775   3.228  26.530   1.930
58435W        W26776  39.900   4.728  13.434
58436W        W26777  42.354  12.247  10.577
58437W        W26778  31.101  41.787   4.623
58438W        W26779   6.839   3.800   0.305
58439W        W26780  16.143  44.306   0.295
58440W        W26781   6.220  24.532  10.635
58441W        W26782  40.390   2.446   4.786
58442W        W26783  24.976   2.404   4.300
58443W        W26784  13.744  39.950  12.458
58444W        W26785  28.051  24.053  12.976
58445W        W26786  32.921  26.645  13.423
58446W        W26787   4.426  41.490   1.281
58447W        W26788  29.475  32.916   4.808
58448W        W26789  34.866  32.621  10.608
58449W        W26790  27.167   8.860   9.961
58450W        W26791  30.958  36.933  10.940
58451W        W26792  21.208  11.830  11.399
58452W        W26793   4.423  12.656   4.230
58453W        W26794  27.580  38.539  12.393
58454W        W26795   0.825  19.613   0.343
58455W        W26796  14.598  21.179   0.747
58456W        W26797   2.796  21.656   0.787
58457W        W26798  29.642  27.941  12.961
58458W        W26799  16.579  43.317   4.660
58459W        W26800  15.605  11.722   2.325
58460W        W26801  10.806  29.927  14.355
58461W        W26802  40.876  43.969  13.404
58462W        W26803   6.266  22.118   3.341
58463W        W26804  22.164   6.209  13.392
58464W        W26805  33.468  26.594   0.418
58465W        W26806  29.666   4.413  13.320
58466W        W26807  38.836  30.039   3.289
58467W        W26808  12.256   8.722  11.890
58468W        W26809  16.605  23.650   9.436
58469W        W26810   5.256  11.300  11.516
58470W        W26811  22.078  11.199   3.769
58471W        W26812  29.553  37.054  14.294
58472W        W26813  16.271  35.892   2.220
58473W        W26814  27.640  32.565  14.444
58474W        W26815  21.091  35.864   1.702
58475W        W26816  14.826  35.103  14.837
58476W        W26817  35.555   0.862  11.070
58477W        W26818   9.271  26.154  10.922
58478W        W26819  38.958  18.711   4.202
58479W        W26820  14.211  29.476   0.385
58480W        W26821  27.640   1.322   2.317
58481W        W26822  20.609  24.642   2.303
58482W        W26823  35.947  14.679   3.265
58483W        W26824  17.290   5.787   2.324
58484W        W26825  37.856  22.532  13.474
58485W        W26826  17.792  27.094   4.144
58486W        W26827  36.466   3.325  11.102
58487W        W26828  38.434  32.628   1.933
58488W        W26829   1.907  36.541   0.828
58489W        W26830  38.452  44.955  12.572
58490W        W26831  43.910  28.937  11.600
58491W        W26832  12.850  43.370  13.794
58492W        W26833  33.572  14.234   0.956
58493W        W26834  38.859   9.667   3.202
58494W        W26835  39.538  31.541  13.334
58495W        W26836  13.763   6.768   2.208
58496W        W26837  41.986  22.149   0.279
58497W        W26838  33.130  41.476   1.924
58498W        W26839  16.705  32.574  14.982
58499W        W26840  42.022   6.223   1.419
58500W        W26841  25.478   1.290  13.803
58501W        W26842  14.697  24.207  13.333
58502W        W26843  32.499  43.443   2.400
58503W        W26844  26.042   4.213  12.884
58504W        W26845  37.076   1.429  13.900
58505W        W26846   0.489  15.817  11.488
58506W        W26847   9.748   3.826  14.276
58507W        W26848   9.292   6.892  14.303
58508W        W26849   5.340   4.880   4.607
58509W        W26850  19.065  34.882  12.381
58510W        W26851   7.740  42.408  12.865
58511W        W26852  19.092  44.825   3.259
58512W        W26853  15.241  17.613  11.975
58513W        W26854   1.289  15.271   4.677
58514W        W26855  32.488   9.742   4.726
58515W        W26856  31.149  25.976   2.842
58516W        W26857   5.842  20.030   3.374
58517W        W26858  33.405  14.833  13.355
58518W        W26859  14.094  36.051   2.340
58519W        W26860  19.703  25.490  11.425
58520W        W26861  17.117  39.319  11.428
58521W        W26862  39.393  18.668   1.320
58522W        W26863  26.005  21.257  14.829
58523W        W26864   6.242  38.065   1.800
58524W        W26865  31.003  39.916  13.922
58525W        W26866  28.441  43.361   3.710
58526W        W26867  14.610  30.163   2.829
58527W        W26868  15.231  22.517  10.567
58528W        W26869  17.800  14.695  10.519
58529W        W26870  38.456  28.970   1.265
58530W        W26871  41.523  20.126   3.719
58531W        W26872  22.239  16.788   3.700
58532W        W26873  27.565  21.548  12.839
58533W        W26874  17.150  28.012   3.198
58534W        W26875  31.925  23.585  13.339
58535W        W26876   0.319  32.627  13.800
58536W        W26877  20.703  43.341   2.860
58537W        W26878  10.196   1.841   0.337
58538W        W26879  34.072   7.873  14.017
58539W        W26880  14.653  12.354   2.717
58540W        W26881  11.258  34.910  10.579
58541W        W26882  17.737  41.952  14.804
58542W        W26883  29.117  40.342   2.796
58543W        W26884  10.351  25.672   0.315
58544W        W26885  37.495   8.667   9.994
58545W        W26886  24.104  43.888   2.807
58546W        W26887  40.359  44.925   3.822
58547W        W26888  17.294  31.140   3.330
58548W        W26889   9.309  32.493  13.045
58549W        W26890   8.770  37.917  12.029
58550W        W26891   2.400  30.487   3.371
58551W        W26892  40.859  30.600  12.945
58552W        W26893   5.386  14.307   0.425
58553W        W26894   0.436  27.154   1.384
58554W        W26895  29.933  37.474   2.703
58555W        W26896  31.079  38.021  13.425
58556W        W26897  26.106  34.093   4.283
58557W        W26898  22.662  41.917   2.829
58558W        W26899  35.476  11.772  14.798
58559W        W26900   3.902  17.754  10.061
58560W        W26901   9.332  42.332   0.785
58561W        W26902  35.365  32.924   0.469
58562W        W26903  16.134  39.341  11.461
58563W        W26904  28.074  41.320  12.959
58564W        W26905  43.982  31.470  14.445
58565W        W26906  29.504  21.628   2.813
58566W        W26907  30.578  26.952  13.976
58567W        W26908  23.664  22.695  14.818
58568W        W26909  25.589   5.422   3.636
58569W        W26910  35.395  26.551  14.988
58570W        W26911   5.883  15.814   3.793
58571W        W26912  31.510  37.355  13.345
58572W        W26913  10.312  40.908  14.418
58573W        W26914   0.943  26.620  13.884
58574W        W26915  24.542  27.598   3.292
58575W        W26916  37.954  38.888  11.041
58576W        W26917  19.181   9.667  12.406
58577W        W26918  39.421  33.019   1.890
58578W        W26919   2.469  28.135  12.425
58579W        W26920  17.727   1.878  10.616
58580W        W26921  33.957  13.773  12.984
58581W        W26922  21.030  14.292  11.475
58582W        W26923  35.404  25.146  13.820
58583W        W26924  30.653  36.413   1.915
58584W        W26925  19.764   1.310  11.040
58585W        W26926  37.385  33.086   0.279
58586W        W26927  26.531  27.556  10.512
58587W        W26928  12.147  25.573   1.331
58588W        W26929  31.091  29.175   2.761
58589W        W26930  37.507  26.956  12.826
58590W        W26931  36.006  14.696   3.864
58591W        W26932  23.205  33.461   0.910
58592W        W26933  25.473  25.022   4.273
58593W        W26934  29.626  40.501  11.412
58594W        W26935  12.663  34.606   1.912
58595W        W26936  19.612  15.711  10.060
58596W        W26937  19.110   9.769   4.835
58597W        W26938  26.100   9.728  13.933
58598W        W26939  23.186  35.996  12.078
58599W        W26940  13.308   7.222   1.287
58600W        W26941  15.228  31.625   2.306
58601W        W26942  38.568  26.139  10.981
58602W        W26943   9.176   9.716  14.428
58603W        W26944  20.613  23.669  13.438
58604W        W26945  44.793   6.753  10.894
58605W        W26946  42.508  19.546   4.808
58606W        W26947  26.655  36.011   4.309
58607W        W26948  29.082  39.476   3.246
58608W        W26949  10.315  20.714   0.752
58609W        W26950  31.463  12.264   1.867
58610W        W26951  23.619   6.287  11.934
58611W        W26952  41.887  11.236  14.376
58612W        W26953  35.906  32.573  10.993
58613W        W26954  21.129  40.307  12.984
58614W        W26955  18.674  12.702  14.770
58615W        W26956  38.339  43.452  13.038
58616W        W26957  16.676  10.681  11.909
58617W        W26958  20.640   3.878  12.461
58618W        W26959  11.719  11.256  12.417
58619W        W26960  24.172  24.087   2.303
58620W        W26961  31.143  17.636   0.291
58621W        W26962  17.147  35.047   4.170
58622W        W26963  10.664   7.850   1.843
58623W        W26964  15.146  43.384  11.086
58624W        W26965  13.264  22.204  13.804
58625W        W26966  34.427  11.241  14.842
58626W        W26967  37.887   5.737  13.432
58627W        W26968  27.006  28.983   4.150
58628W        W26969  29.986  29.525  14.430
58629W        W26970  27.111  27.068  11.993
58630W        W26971  25.162  21.650   2.209
58631W        W26972   2.407  23.709   1.730
58632W        W26973  36.512   2.850   3.267
58633W        W26974  40.448   6.182   0.964
58634W        W26975  15.749  36.387   4.325
58635W        W26976  34.948  14.830   2.882
58636W        W26977  14.141   8.788   1.309
58637W        W26978  20.597  26.030  13.480
58638W        W26979  17.769  20.125   1.747
58639W        W26980  12.206  25.055  14.785
58640W        W26981  36.063  43.396   3.708
58641W        W26982  14.771  14.621   0.938
58642W        W26983  39.964  40.426   1.700
58643W        W26984   3.782  12.157   3.677
58644W        W26985   1.408   5.395  11.006
58645W        W26986  30.512  29.161   4.196
58646W        W26987  24.677  18.152  11.956
58647W        W26988  32.975  17.744  10.404
58648W        W26989  20.139  35.596  10.521
58649W        W26990  24.076  30.492   4.784
58650W        W26991  16.749  38.865  10.601
58651W        W26992   7.208   8.325  14.433
58652W        W26993   4.434   1.975   1.239
58653W        W26994  31.632  23.055   4.824
58654W        W26995  35.884   3.895  14.926
58655W        W26996  35.519  16.313   1.400
58656W        W26997  29.085  42.002   0.872
58657W        W26998  16.574   1.785   1.719
58658W        W26999  32.579   4.932   2.871
58659W        W27000  40.834  15.239  11.397
58660W        W27001  39.883  44.769  12.530
58661W        W27002  15.736  13.670  11.042
58662W        W27003  39.031  21.104   1.859
58663W        W27004   9.843  37.505   3.365
58664W        W27005  44.855  15.794   1.744
58665W        W27006  26.525  32.559   1.751
58666W        W27007   2.258  18.201  11.065
58667W        W27008  13.607  15.717  10.644
58668W        W27009  44.416  37.996   0.419
58669W        W27010   5.387  25.694   2.394
58670W        W27011   3.294   9.383  13.980
58671W        W27012  33.592  25.661   1.378
58672W        W27013  42.392  31.007  12.031
58673W        W27014  26.636  22.064  14.982
58674W        W27015  18.185   5.772   0.936
58675W        W27016  24.708  40.475   4.197
58676W        W27017  39.877   5.896  14.778
58677W        W27018  10.183   5.759   3.781
58678W        W27019  29.941   4.798  10.411
58679W        W27020   9.277  22.117  12.976
58680W        W27021  41.925  43.469  11.410
58681W        W27022  33.471  14.757   3.370
58682W        W27023  24.218  13.812   0.265
58683W        W27024   2.373   0.832   3.350
58684W        W27025  26.182  40.382  12.390
58685W        W27026  24.561  42.338   4.175
58686W        W27027   6.203   2.905  14.332
58687W        W27028  36.374  22.041  13.906
58688W        W27029  30.472   3.276  12.342
58689W        W27030  29.925  16.803   2.201
58690W        W27031   5.224  42.477  12.540
58691W        W27032  32.057  18.634  11.544
58692W        W27033   0.895  11.867  10.989
58693W        W27034  27.477  33.115  14.858
58694W        W27035  42.484   7.364  13.945
58695W        W27036  20.569   1.435   2.302
58696W        W27037  13.777   4.397   1.265
58697W        W27038  37.995  19.767  11.027
58698W        W27039  14.118  14.686   0.763
58699W        W27040   0.451  33.061   3.759
58700W        W27041  19.632   7.905   5.215
58701W        W27042  25.108  14.290   3.639
58702W        W27043  28.110   0.930  14.770
58703W        W27044  29.561  29.992   3.230
58704W        W27045  26.068  30.075   2.293
58705W        W27046  18.200  23.161  13.819
58706W        W27047  39.852  44.326   5.267
58707W        W27048  29.469  42.027   3.795
58708W        W27049  42.521  34.039  11.029
58709W        W27050   1.300  43.892   4.601
58710W        W27051  16.296   7.189  11.902
58711W        W27052  18.604   1.338   1.235
58712W        W27053  11.133  29.587   1.255
58713W        W27054  15.776  10.205  13.854
58714W        W27055  38.026  35.994  12.064
58715W        W27056   3.333  42.397   2.388
58716W        W27057   2.265  10.639  11.069
58717W        W27058   8.725  43.423  14.467
58718W        W27059   8.755   8.234  14.291
58719W        W27060  35.362  42.891  12.519
58720W        W27061   2.463  29.056   0.405
58721W        W27062  42.464   2.459  13.361
58722W        W27063  43.804  16.158  11.441
58723W        W27064   5.350  15.715   0.893
58724W        W27065   7.855  21.205   2.193
58725W        W27066   7.789  10.166  12.518
58726W        W27067  12.185  31.602   1.810
58727W        W27068   8.724  43.400  13.863
58728W        W27069  12.256  12.784  13.851
58729W        W27070  10.281   1.421  12.457
58730W        W27071  22.143   4.877   1.247
58731W        W27072  14.150  33.527   3.257
58732W        W27073  38.013  40.538  11.896
58733W        W27074   5.891  18.177   0.849
58734W        W27075  40.920  15.700  11.859
58735W        W27076  20.702   2.791   3.173
58736W        W27077   8.735   6.314  12.953
58737W        W27078  10.323  25.565  11.371
58738W        W27079  14.693  20.262   1.362
58739W        W27080   4.365  41.463   1.887
58740W        W27081  41.536  21.055   4.310
58741W        W27082  40.997  22.588   1.698
58742W        W27083  31.623  22.215  13.369
58743W        W27084  26.024  43.850  14.279
58744W        W27085  27.158   6.304   1.717
58745W        W27086  14.815  23.690  12.830
58746W        W27087  13.832  26.610   5.320
58747W        W27088  14.332  14.643   2.725
58748W        W27089  11.296  26.200   1.345
58749W        W27090  27.030  19.758  14.346
58750W        W27091  28.551  17.243  12.061
58751W        W27092   0.800  38.888  13.318
58752W        W27093  16.210  44.408   1.857
58753W        W27094  28.166  31.428  11.047
58754W        W27095  35.898   1.359   2.878
58755W        W27096  37.439  10.199  14.823
58756W        W27097  35.371  17.752  13.956
58757W        W27098  26.477  44.004  10.057
58758W        W27099  24.543  19.108  13.452
58759W        W27100   6.733  15.587  12.912
58760W        W27101   4.355  31.110   3.175
58761W        W27102  18.649  32.428  14.474
58762W        W27103  25.971   2.781   4.713
58763W        W27104   9.186  13.640   1.315
58764W        W27105  14.671  10.290  12.950
58765W        W27106  43.881  33.546   0.743
58766W        W27107  24.003  14.108  12.956
58767W        W27108  36.028  12.703  11.020
58768W        W27109   7.774   7.240  11.053
58769W        W27110   0.850   5.750   2.282
58770W        W27111   8.836  14.196  13.460
58771W        W27112  27.544  27.109   9.627
58772W        W27113  17.219  42.999  11.075
58773W        W27114  34.891  41.434   0.836
58774W        W27115  18.648  14.809   2.662
58775W        W27116   7.694   3.303   3.640
58776W        W27117  40.946   8.785  11.100
58777W        W27118  30.138  30.615  12.889
58778W        W27119  30.030  23.496  12.827
58779W        W27120  28.548  37.532   3.313
58780W        W27121   9.339  36.033   5.090
58781W        W27122  14.594  40.529   4.116
58782W        W27123  16.295  20.132  11.440
58783W        W27124  21.703  10.653  14.313
58784W        W27125  43.449   7.776  10.935
58785W        W27126  25.050  20.272   3.740
58786W        W27127   3.757  26.549  11.025
58787W        W27128  14.116  41.892   0.270
58788W        W27129   1.961  33.104   2.805
58789W        W27130  10.827  14.246   0.254
58790W        W27131  27.639  13.344   1.783
58791W        W27132  23.502   7.252  12.890
58792W        W27133   1.976  37.548   2.418
58793W        W27134   5.395  22.618   1.845
58794W        W27135  25.609   0.884  14.921
58795W        W27136   4.841  22.999  12.068
58796W        W27137  28.476  13.214   3.808
58797W        W27138  27.670  35.100   3.638
58798W        W27139  11.287  13.340   5.095
58799W        W27140   4.854  39.414   3.258
58800W        W27141  36.494  22.027  11.027
58801W        W27142   7.321  20.551  12.495
58802W        W27143  30.965  42.476  12.471
58803W        W27144   5.234   9.368   2.211
58804W        W27145  13.289   8.284   4.808
58805W        W27146   2.430   1.831   0.246
58806W        W27147  12.714  21.721  11.438
58807W        W27148   9.804  32.412   3.252
58808W        W27149  30.058  33.010  11.578
58809W        W27150  38.452  20.668   1.225
58810W        W27151  41.038  11.356  14.781
58811W        W27152  17.063  12.230   4.281
58812W        W27153  37.974  44.916  10.936
58813W        W27154  37.069  37.838  10.606
58814W        W27155  18.595  20.745  11.000
58815W        W27156  34.483  44.367  12.844
58816W        W27157  39.974   9.379  10.987
58817W        W27158  41.923  43.985  13.993
58818W        W27159  42.362   4.846  14.825
58819W        W27160  10.293  42.794  12.551
58820W        W27161  40.021  29.951   2.207
58821W        W27162  13.744   8.389   2.796
58822W        W27163  18.626   8.779   1.791
58823W        W27164  26.643  22.177  12.972
58824W        W27165  37.561  16.801  12.059
58825W        W27166  32.016  14.728  14.955
58826W        W27167   2.909  30.433  11.073
58827W        W27168  37.908   1.342  12.432
58828W        W27169  31.095   2.431  13.939
58829W        W27170  17.300  15.187  12.042
58830W        W27171  18.102  23.166   4.683
58831W        W27172  31.049  44.308   4.248
58832W        W27173   0.268  39.414   2.335
58833W        W27174  16.685  35.931  13.834
58834W        W27175  33.007  20.551  13.906
58835W        W27176  43.987  19.575  13.860
58836W        W27177   3.394  31.087  13.430
58837W        W27178   1.299  30.930   2.413
58838W        W27179  41.027   7.258   2.316
58839W        W27180  10.212  28.670  12.082
58840W        W27181  41.298  26.607   4.774
58841W        W27182  19.651  35.962  11.117
58842W        W27183  34.865  16.212   1.824
58843W        W27184  23.005  15.303  10.608
58844W        W27185  22.555  42.801  11.612
58845W        W27186   8.856  22.104  12.974
58846W        W27187  36.078  16.737   2.897
58847W        W27188   7.390  20.723  11.443
58848W        W27189  11.248  40.367  11.553
58849W        W27190   4.859  25.181   1.759
58850W        W27191  23.016  24.530   4.214
58851W        W27192  40.891  37.448   2.180
58852W        W27193  26.109  15.146  10.608
58853W        W27194  30.952   1.270  13.359
58854W        W27195  16.773  25.692  10.432
58855W        W27196  37.981  18.742   0.409
58856W        W27197  44.340  33.483   3.820
58857W        W27198  11.264  16.648   3.798
58858W        W27199  19.546  18.286  10.597
58859W        W27200  19.196  11.640   4.816
58860W        W27201  16.671  39.854   1.270
58861W        W27202  33.470  23.097   1.795
58862W        W27203  37.953  28.984   0.796
58863W        W27204  17.695  36.935   4.294
58864W        W27205  36.868   8.668   4.352
58865W        W27206  29.938  11.711  13.502
58866W        W27207  37.403  11.235  12.470
58867W        W27208   6.841  29.481  10.539
58868W        W27209  41.874  26.204   1.695
58869W        W27210   1.458   5.305   3.771
58870W        W27211  36.411  14.827   4.707
58871W        W27212  18.646   0.820  13.436
58872W        W27213   0.380  33.593   1.903
58873W        W27214  30.553  37.011  10.934
58874W        W27215  43.959  28.484   0.388
58875W        W27216   7.289   3.344   0.735
58876W        W27217  11.676  33.912  11.981
58877W        W27218  26.123  31.526   4.798
58878W        W27219  41.998  41.439  10.948
58879W        W27220  12.179  20.223   4.335
58880W        W27221  15.700   2.864  14.286
58881W        W27222  25.183   0.340  10.447
58882W        W27223   4.911   0.774   5.315
58883W        W27224  37.951  18.604  14.869
58884W        W27225   6.788  24.609   0.760
58885W        W27226  35.562  41.513  14.855
58886W        W27227  29.655  11.648   3.661
58887W        W27228   5.327  14.819   1.724
58888W        W27229  16.200   3.797  12.987
58889W        W27230  23.533  38.033   0.402
58890W        W27231   6.244   3.275   3.277
58891W        W27232  23.517  15.649   2.316
58892W        W27233  19.744  21.699  11.000
58893W        W27234  30.052   1.480  12.983
58894W        W27235  10.740  42.797  12.842
58895W        W27236  21.743  38.471   3.864
58896W        W27237  20.139  19.247   1.887
58897W        W27238  27.985   4.380  14.790
58898W        W27239  36.868  25.594   2.843
58899W        W27240   5.200  11.228   2.694
58900W        W27241  35.051  30.919   1.350
58901W        W27242  40.975  42.422  12.038
58902W        W27243   2.750  36.927   2.380
58903W        W27244  28.594  11.186   1.300
58904W        W27245  40.441  31.039   2.794
58905W        W27246  25.073  32.392  14.978
58906W        W27247  11.781   5.832  11.533
58907W        W27248  24.977  31.925   1.900
58908W        W27249   6.396  11.794  13.958
58909W        W27250  29.009  44.471  11.997
58910W        W27251   6.380   3.916  13.864
58911W        W27252  21.757  37.881  13.312
58912W        W27253  19.069  34.434  10.914
58913W        W27254  28.465  26.140   1.409
58914W        W27255   7.736  40.052   2.220
58915W        W27256  15.745   4.855   3.719
58916W        W27257  22.087  31.469  11.913
58917W        W27258   1.946  18.626   2.228
58918W        W27259  20.623  25.205  11.415
58919W        W27260  12.329  23.681   1.934
58920W        W27261  38.565  18.609   2.891
58921W        W27262   6.242   9.196  11.563
58922W        W27263   4.731  19.149  13.970
58923W        W27264   4.273  28.070   3.246
58924W        W27265  42.807  33.940  11.405
58925W        W27266   2.733  37.475  12.090
58926W        W27267  31.923  22.569   3.728
58927W        W27268  40.887  12.778  10.634
58928W        W27269  32.057  26.639   4.750
58929W        W27270  36.964  44.990  11.433
58930W        W27271  24.212  15.804   0.877
58931W        W27272   1.779  27.996   2.355
58932W        W27273   3.889  19.752   4.125
58933W        W27274  36.369  18.684   4.777
58934W        W27275  30.576  13.818  13.051
58935W        W27276   3.830   8.830   4.815
58936W        W27277  11.254   6.715   4.236
58937W        W27278  32.994   3.297   1.934
58938W        W27279  23.105   3.821   1.791
58939W        W27280  36.933  42.968  14.336
58940W        W27281  39.865  24.090   0.818
58941W        W27282  28.659  21.744   4.708
58942W        W27283  31.405  21.565  11.471
58943W        W27284  13.263  13.620  10.590
58944W        W27285  41.966   0.421   1.874
58945W        W27286  40.480   1.400   0.388
58946W        W27287  31.560   1.964   2.290
58947W        W27288  13.659  36.549   4.693
58948W        W27289  17.661  31.483  12.442
58949W        W27290   2.464   4.869   0.809
58950W        W27291   4.313  22.565  13.920
58951W        W27292   4.706  10.707   1.739
58952W        W27293  11.652  12.150   1.428
58953W        W27294  15.269  34.975   3.361
58954W        W27295  44.802  19.633   1.787
58955W        W27296   4.357  28.947   4.309
58956W        W27297   1.807  13.662   1.398
58957W        W27298  25.647  28.510  14.469
58958W        W27299  19.760   5.418  14.824
58959W        W27300  28.512  27.458   4.279
58960W        W27301   3.449  15.225   3.264
58961W        W27302  36.540  34.868   5.136
58962W        W27303  20.110   5.721   4.246
58963W        W27304  43.369  37.078   3.861
58964W        W27305  44.401   9.836   4.797
58965W        W27306  37.843   2.956   2.245
58966W        W27307  21.730  15.802   3.716
58967W        W27308  30.070  30.591   4.133
58968W        W27309  27.117  10.203  13.028
58969W        W27310  40.799  38.923   3.676
58970W        W27311   5.789  41.491   3.827
58971W        W27312  31.503  30.038   3.368
58972W        W27313  15.790  20.544   2.195
58973W        W27314   3.735  36.881  13.027
58974W        W27315  23.128  21.054   1.383
58975W        W27316  20.650  41.433  13.836
58976W        W27317  26.513   6.333   3.267
58977W        W27318  36.458  10.209  10.006
58978W        W27319  26.026  17.756   5.162
58979W        W27320  28.511   2.910  13.365
58980W        W27321  40.022  16.257  12.388
58981W        W27322  40.897  33.943   2.184
58982W        W27323  43.345  10.355   3.207
58983W        W27324   1.369  14.273  13.339
58984W        W27325  28.992  28.537  11.479
58985W        W27326  26.519   4.798   0.945
58986W        W27327  13.240  18.216   4.659
58987W        W27328  14.686  40.458  11.536
58988W        W27329  20.051  19.538   2.686
58989W        W27330  13.750  17.799   0.326
58990W        W27331  18.071  42.932   3.358
58991W        W27332  23.552  27.137   4.835
58992W        W27333  17.146  22.130   3.648
58993W        W27334  23.490   9.869  11.016
58994W        W27335  18.137  40.344  14.832
58995W        W27336  18.254  29.543  14.411
58996W        W27337   0.803  44.860  10.628
58997W        W27338   7.785  34.459   3.374
58998W        W27339  39.528  27.019   3.310
58999W        W27340  42.027  37.059   2.676
59000W        W27341  44.930  42.023  14.943
59001W        W27342   3.272  44.794   4.797
59002W        W27343  12.116  31.099   4.781
59003W        W27344   9.178   4.348  14.362
59004W        W27345  32.982  23.067  13.456
59005W        W27346  13.128  14.196  10.584
59006W        W27347  39.327   4.260  10.488
59007W        W27348   6.228  25.582   3.816
59008W        W27349  13.218   1.925  13.912
59009W        W27350  19.539  39.449   4.263
59010W        W27351   2.396   4.708   0.417
59011W        W27352  33.958  22.195   3.149
59012W        W27353  13.735  29.941   4.237
59013W        W27354   3.367  44.762  10.905
59014W        W27355  31.950  31.069   4.324
59015W        W27356  36.548  25.032  13.519
59016W        W27357  36.876  26.631  14.302
59017W        W27358   4.297  40.348   4.251
59018W        W27359  17.693  24.136  11.125
59019W        W27360  35.524  35.421   2.848
59020W        W27361   0.847   1.822   2.862
59021W        W27362  44.991   7.371   2.392
59022W        W27363  32.605  31.941   9.946
59023W        W27364  19.711  13.778   2.257
59024W        W27365  14.617  28.035  12.017
59025W        W27366  11.692  35.422  12.839
59026W        W27367  14.596  37.430  11.006
59027W        W27368   4.414  11.350  13.341
59028W        W27369  24.663  14.128  13.053
59029W        W27370  22.184   2.432   2.845
59030W        W27371  33.554   6.342   3.735
59031W        W27372  26.191  31.494   2.391
59032W        W27373  38.017  23.701   3.174
59033W        W27374  22.710  12.198  13.999
59034W        W27375  37.485  44.985  13.343
59035W        W27376  18.200  24.224   3.690
59036W        W27377  31.130  12.633  12.876
59037W        W27378   1.432  26.481   1.879
59038W        W27379  36.373  31.626   0.845
59039W        W27380  39.401  28.125   1.281
59040W        W27381  28.672   9.675   0.807
59041W        W27382  42.359  14.810  10.432
59042W        W27383  38.334   0.835  12.983
59043W        W27384   0.949  37.557   2.194
59044W        W27385   0.261  28.483   0.789
59045W        W27386  17.190  23.046  12.920
59046W        W27387  10.255  15.797  11.983
59047W        W27388  12.311   8.182  11.491
59048W        W27389  17.585  40.054  11.916
59049W        W27390   3.900  15.256  10.930
59050W        W27391  34.527  30.955   2.827
59051W        W27392  42.451   1.291   1.763
59052W        W27393  28.047   1.767   1.750
59053W        W27394   4.835  10.340  11.123
59054W        W27395  11.208   4.804  14.940
59055W        W27396  31.932  24.216   4.773
59056W        W27397   8.656   3.336  13.985
59057W        W27398   0.490  21.151  12.522
59058W        W27399  14.797  23.025  12.969
59059W        W27400  40.519  41.406   3.802
59060W        W27401   2.397  27.128  13.393
59061W        W27402  27.171  27.546   2.719
59062W        W27403  42.463  37.030  13.452
59063W        W27404  36.000  43.364   1.876
59064W        W27405  38.959   8.887   3.720
59065W        W27406   7.841  39.341  14.791
59066W        W27407  36.424  21.696  14.361
59067W        W27408  16.145   1.332  14.301
59068W        W27409   5.415  38.063   2.795
59069W        W27410  14.635  19.095  13.489
59070W        W27411  31.513   8.376  14.430
59071W        W27412   7.785  24.572  10.468
59072W        W27413   0.258  44.796  14.782
59073W        W27414  27.979  14.666   4.249
59074W        W27415  40.852  39.865   3.321
59075W        W27416  28.678  28.084  14.913
59076W        W27417  11.767  13.245  13.965
59077W        W27418   9.817  18.099  12.557
59078W        W27419  19.664  12.230   1.918
59079W        W27420  18.708  28.966   1.883
59080W        W27421   3.247   3.857   2.839
59081W        W27422  29.108   0.250  13.466
59082W        W27423  13.314  27.649   3.147
59083W        W27424  16.683  28.571   3.381
59084W        W27425  17.263   0.872   2.212
59085W        W27426  34.867   1.302   4.250
59086W        W27427  42.951  44.984   4.824
59087W        W27428  22.142  32.473   4.745
59088W        W27429  38.474  10.161  14.799
59089W        W27430  20.665  31.591   1.815
59090W        W27431  23.205  43.787   2.752
59091W        W27432  22.041   7.906  12.019
59092W        W27433  23.565  41.042   1.826
59093W        W27434  39.864  22.665  10.463
59094W        W27435  41.836  26.038   1.240
59095W        W27436   9.798  13.294  13.537
59096W        W27437   5.908  42.510   0.439
59097W        W27438  10.231  26.563   3.186
59098W        W27439  30.987  31.502   1.917
59099W        W27440   3.956   4.779   0.851
59100W        W27441  23.677  25.600  14.917
59101W        W27442   0.983  28.492  13.532
59102W        W27443  21.186   2.891   2.341
59103W        W27444  41.292   9.192  11.103
59104W        W27445  31.612  43.900  10.625
59105W        W27446   2.408  14.703  11.964
59106W        W27447  23.062  25.641   0.386
59107W        W27448   1.361   0.461   3.164
59108W        W27449  41.967   9.707   1.743
59109W        W27450  34.091  41.301  12.846
59110W        W27451  37.008  13.252  11.402
59111W        W27452   7.261   9.325  14.502
59112W        W27453  43.843   4.791  13.426
59113W        W27454  14.832  32.090   0.871
59114W        W27455  19.544  14.120  13.009
59115W        W27456   6.239  43.769   4.715
59116W        W27457  36.487  21.734   4.606
59117W        W27458   9.859  21.713   3.841
59118W        W27459  25.644  28.027   3.652
59119W        W27460  28.516  30.614  14.325
59120W        W27461  24.167  28.547   2.828
59121W        W27462   9.823   7.337  14.390
59122W        W27463  18.694  20.698   2.859
59123W        W27464  11.846   2.359   0.259
59124W        W27465  26.052  23.196   4.682
59125W        W27466  28.978  34.982  14.856
59126W        W27467  13.679  33.464   0.741
59127W        W27468  33.450  34.586  10.898
59128W        W27469  14.715  13.687  13.939
59129W        W27470  25.059   2.322  11.000
59130W        W27471  21.592  21.666  12.930
59131W        W27472  25.050  37.552  12.560
59132W        W27473   0.973  43.422  12.549
59133W        W27474  44.497   2.779   2.289
59134W        W27475   2.448  16.151  14.409
59135W        W27476   0.782   0.930  12.559
59136W        W27477  44.334   8.400   4.236
59137W        W27478  33.952  18.779   3.149
59138W        W27479  31.620   8.172   2.306
59139W        W27480  24.997  35.480  10.458
59140W        W27481   0.427  34.065  13.433
59141W        W27482  15.744   4.265   1.912
59142W        W27483   7.697  37.471   3.318
59143W        W27484  21.738   6.332   4.234
59144W        W27485  39.907  33.892  13.880
59145W        W27486  16.134  20.622  13.502
59146W        W27487  25.467  38.029   4.771
59147W        W27488   0.334  34.006   3.261
59148W        W27489  19.217  41.420   2.369
59149W        W27490  32.960  27.945  13.000
59150W        W27491  11.786  41.884   4.290
59151W        W27492   8.814  29.452  10.624
59152W        W27493   6.362  22.653   1.430
59153W        W27494  12.225  33.398   1.452
59154W        W27495  13.191  37.577   2.242
59155W        W27496   6.914  39.347  12.823
59156W        W27497  30.473   8.369  14.496
59157W        W27498  15.317  39.014   0.418
59158W        W27499   5.214  44.917  13.447
59159W        W27500   1.915   1.309  12.050
59160W        W27501  14.107   6.864   1.863
59161W        W27502  30.519  25.533   1.253
59162W        W27503  27.582  27.156   2.781
59163W        W27504  44.951   8.783   1.715
59164W        W27505  14.114  40.498  14.820
59165W        W27506   3.875  44.359   2.835
59166W        W27507  44.816  26.653   2.769
59167W        W27508  18.068  43.768  14.862
59168W        W27509  21.565  13.751  12.911
59169W        W27510   6.680  25.105   1.901
59170W        W27511   4.752  20.653   2.804
59171W        W27512  37.574  33.121   1.818
59172W        W27513  33.112  29.123   4.137
59173W        W27514  13.139  24.998  10.129
59174W        W27515  31.033  19.167  12.531
59175W        W27516   0.365  37.991  14.001
59176W        W27517   8.392  18.707  14.848
59177W        W27518  19.158  10.656   0.940
59178W        W27519  32.527   7.398   4.337
59179W        W27520  33.007  38.056   4.319
59180W        W27521  16.772  32.120   3.794
59181W        W27522  27.618  33.106  11.450
59182W        W27523  19.238  38.896  12.983
59183W        W27524  42.296  14.594   3.667
59184W        W27525   9.710   5.198   0.906
59185W        W27526  40.517  11.342  12.863
59186W        W27527   4.700  17.704   4.655
59187W        W27528  41.426  24.620   4.217
59188W        W27529  24.545   8.791  13.406
59189W        W27530   2.236  32.467  14.875
59190W        W27531  42.925   6.223  13.877
59191W        W27532   2.934  43.273  12.464
59192W        W27533  39.365   8.318   2.348
59193W        W27534  18.111  34.007  11.602
59194W        W27535  24.090   0.467   0.837
59195W        W27536  16.157  41.436   4.630
59196W        W27537   7.874  34.448  13.447
59197W        W27538  29.169  10.781   3.656
59198W        W27539  18.106  27.027   2.720
59199W        W27540  25.617   1.472  11.463
59200W        W27541  44.780  38.365  12.427
59201W        W27542  35.972  38.340   0.881
59202W        W27543  15.667  37.427  14.316
59203W        W27544  40.910  31.961  13.056
59204W        W27545  11.837  26.650  11.873
59205W        W27546   9.311  28.973   5.314
59206W        W27547  36.387  13.735   4.769
59207W        W27548  39.825  13.274   0.459
59208W        W27549  35.945  39.375   4.755
59209W        W27550  39.038   9.311   3.373
59210W        W27551  21.254  39.904  11.128
59211W        W27552  17.704  37.941  14.913
59212W        W27553  16.690  32.509   2.205
59213W        W27554  14.747  34.450   3.353
59214W        W27555   7.846  41.412  11.461
59215W        W27556   5.295   1.752   2.416
59216W        W27557  26.952  10.150   3.690
59217W        W27558  25.482  34.083  11.520
59218W        W27559   0.891   7.198  13.845
59219W        W27560  16.752   5.304  12.464
59220W        W27561   1.884   6.707   0.363
59221W        W27562   6.893  39.919   4.183
59222W        W27563  12.209  23.190   0.425
59223W        W27564  29.641  42.966   3.340
59224W        W27565  32.619   0.875  11.503
59225W        W27566  23.008   6.425  10.971
59226W        W27567  27.692  42.880  10.498
59227W        W27568  39.509  23.067  13.912
59228W        W27569   2.925  35.969  12.014
59229W        W27570  20.145  19.686  10.445
59230W        W27571   2.883  13.798  14.289
59231W        W27572   3.290  16.196   0.829
59232W        W27573  37.025  31.978   4.272
59233W        W27574  35.996  21.085   0.409
59234W        W27575  38.020  25.146   2.796
59235W        W27576  33.414  33.950  13.314
59236W        W27577  39.362   9.290   0.425
59237W        W27578  21.626  32.132  14.760
59238W        W27579  31.020  20.050   2.290
59239W        W27580  31.079  42.302  11.910
59240W        W27581  37.841  32.090  11.389
59241W        W27582  20.042  41.919  13.863
59242W        W27583  12.629   3.349   3.159
59243W        W27584  25.145  22.512  14.913
59244W        W27585  11.731   5.254   4.757
59245W        W27586  14.177  21.582   3.845
59246W        W27587  10.226  38.038  13.488
59247W        W27588   6.375  14.664  11.511
59248W        W27589  30.550   7.906   0.771
59249W        W27590  30.594  16.271  14.825
59250W        W27591  17.748  37.900   1.376
59251W        W27592  12.233  23.115  13.007
59252W        W27593  33.480   3.218  10.093
59253W        W27594   0.342   3.262  10.419
59254W        W27595  26.002  10.776   4.636
59255W        W27596   0.365  17.618  13.927
59256W        W27597  27.069  44.848   1.348
59257W        W27598  37.853   7.865   4.727
59258W        W27599  30.578  33.004  10.483
59259W        W27600   1.364   5.380   0.330
59260W        W27601  26.623   0.781   4.736
59261W        W27602  42.286  22.026  10.966
59262W        W27603  31.621  24.548   4.639
59263W        W27604  31.954  37.080   0.287
59264W        W27605  18.086  12.679  11.011
59265W        W27606  20.106  42.414   1.355
59266W        W27607   1.250  15.618   3.648
59267W        W27608   9.680  14.330   0.932
59268W        W27609  33.526  30.536  11.968
59269W        W27610  28.459   7.410   2.285
59270W        W27611  18.639  28.119   0.749
59271W        W27612  38.555  38.382  11.928
59272W        W27613  22.062  42.285   3.710
59273W        W27614  32.575  36.387  13.891
59274W        W27615   0.334   8.841  12.929
59275W        W27616   6.305  30.627   2.816
59276W        W27617  10.303  30.919   1.272
59277W        W27618  15.200   4.834  14.030
59278W        W27619  34.464  20.038  10.516
59279W        W27620  19.600  10.680   0.867
59280W        W27621   6.391  13.150   3.642
59281W        W27622  41.308   3.833  11.936
59282W        W27623  30.509  28.465  10.427
59283W        W27624  23.642  41.871   3.733
59284W        W27625  16.258   2.756  11.943
59285W        W27626   4.216  17.131   3.862
59286W        W27627  38.456  24.712  10.578
59287W        W27628  34.990  44.950  14.430
59288W        W27629   4.403  30.518   4.210
59289W        W27630  16.755  18.124  12.433
59290W        W27631  19.617  24.102   4.748
59291W        W27632  24.995  25.652   0.483
59292W        W27633  20.105   6.183  10.127
59293W        W27634  11.685  29.654   4.120
59294W        W27635  23.569  25.041   3.381
59295W        W27636   9.365   3.803   1.879
59296W        W27637  31.567   4.787   1.794
59297W        W27638   5.353   6.290   0.325
59298W        W27639  15.243   2.952   0.254
59299W        W27640  34.881  10.246  10.577
59300W        W27641  33.905  30.021   1.790
59301W        W27642  29.922  15.700   1.929
59302W        W27643  43.346  38.490   4.125
59303W        W27644  31.070  27.547  12.991
59304W        W27645  43.336  28.493   1.340
59305W        W27646  16.090   1.930   1.294
59306W        W27647  31.137  39.950   1.877
59307W        W27648   0.482  27.451   2.354
59308W        W27649  26.602  40.346   4.730
59309W        W27650   5.908  14.120   0.963
59310W        W27651  33.393  40.031  13.513
59311W        W27652   7.322  25.549   1.727
59312W        W27653  12.338  21.514  10.568
59313W        W27654  23.714  16.218   2.799
59314W        W27655  24.681   0.973  13.835
59315W        W27656  31.537  43.308   4.661
59316W        W27657  30.019  38.910   3.292
59317W        W27658  14.164  16.728   1.424
59318W        W27659  43.931  29.644  12.903
59319W        W27660  36.947  15.101   1.805
59320W        W27661  17.207   5.839  12.915
59321W        W27662  36.006  36.560  13.453
59322W        W27663  38.476  32.029   1.415
59323W        W27664  39.396   2.788  13.972
59324W        W27665  23.693  42.451   0.299
59325W        W27666  40.337  33.469  14.308
59326W        W27667  27.044  15.774  13.941
59327W        W27668  41.882   4.386  12.034
59328W        W27669  15.698   8.789   3.209
59329W        W27670  17.207  14.824  12.978
59330W        W27671  31.577   7.850  11.005
59331W        W27672  17.660  15.209  13.863
59332W        W27673  32.991  28.557   3.781
59333W        W27674   2.890  42.978   3.361
59334W        W27675   5.758  44.763   2.311
59335W        W27676  18.255  25.195   4.825
59336W        W27677   0.280  21.039   0.287
59337W        W27678  15.194  12.338   2.335
59338W        W27679  26.575  43.431   1.908
59339W        W27680  23.141   4.312   0.343
59340W        W27681   7.841  28.441   0.899
59341W        W27682  33.956  34.567  14.003
59342W        W27683  35.540  29.002   1.879
59343W        W27684  23.006   5.252   4.715
59344W        W27685  42.526  35.975   3.663
59345W        W27686   7.682  11.365   3.232
59346W        W27687  39.383   3.428   3.641
59347W        W27688  24.165  10.645  10.643
59348W        W27689  27.633  10.830  14.846
59349W        W27690  43.933  15.286   1.733
59350W        W27691  40.818  31.045   1.263
59351W        W27692  32.113  23.038  13.965
59352W        W27693  22.021  27.536  13.460
59353W        W27694  19.175  26.067  10.938
59354W        W27695  17.184  41.833  14.865
59355W        W27696  11.737  12.690   1.736
59356W        W27697  26.645   8.898  12.453
59357W        W27698   8.701  37.362   0.369
59358W        W27699  41.334   5.900   2.350
59359W        W27700  26.569   7.247   2.872
59360W        W27701  37.557  29.661  10.494
59361W        W27702  23.099  38.020  12.984
59362W        W27703  35.025  18.681  14.837
59363W        W27704  14.280   2.450   1.257
59364W        W27705  18.294  40.935   0.424
59365W        W27706   8.749  14.782   1.755
59366W        W27707  44.430  29.547  13.311
59367W        W27708  10.302   9.888   1.814
59368W        W27709   5.253  40.407  11.437
59369W        W27710  13.135  12.242   2.829
59370W        W27711  33.886  25.081   4.618
59371W        W27712   2.882  30.121   1.424
59372W        W27713  37.569   8.683  11.506
59373W        W27714  30.963  27.103  10.468
59374W        W27715  38.442  38.361  14.770
59375W        W27716  44.844  18.723   3.269
59376W        W27717  41.478  40.903  12.568
59377W        W27718  12.134  39.002   4.250
59378W        W27719  30.652  26.688   1.874
59379W        W27720  10.280  34.928   3.692
59380W        W27721  24.176  25.502   3.747
59381W        W27722  34.525  16.197  12.866
59382W        W27723   9.278  19.572  14.991
59383W        W27724   5.704  27.049   0.438
59384W        W27725  44.426  17.710   2.313
59385W        W27726  22.029  40.548  13.792
59386W        W27727  35.072   4.364   0.459
59387W        W27728  28.479  18.255  14.809
59388W        W27729  21.047   0.412   2.889
59389W        W27730  33.125  32.892  14.862
59390W        W27731  36.023  12.727   4.642
59391W        W27732  33.995   3.232   2.687
59392W        W27733  17.257  36.566  12.034
59393W        W27734  13.252  23.601   3.208
59394W        W27735  25.216   2.770  14.387
59395W        W27736   5.800  27.040  11.042
59396W        W27737  23.536  43.310  13.535
59397W        W27738  20.710  17.605   2.819
59398W        W27739  24.546   1.870   1.407
59399W        W27740  25.098   3.927   4.682
59400W        W27741  42.347  11.260   3.768
59401W        W27742  33.896  19.244   0.824
59402W        W27743  36.421  28.965   4.152
59403W        W27744  19.743  24.723  13.437
59404W        W27745   8.268  40.386  12.451
59405W        W27746  44.787  17.231  10.466
59406W        W27747   6.409  40.312  11.044
59407W        W27748  24.063  41.975   0.847
59408W        W27749  39.050   4.885   2.413
59409W        W27750  32.472  37.526   0.284
59410W        W27751   4.432  41.911   1.246
59411W        W27752  17.568  27.674  10.905
59412W        W27753  20.679  26.561  14.943
59413W        W27754  13.655  29.008   1.287
59414W        W27755  34.539   0.813   4.260
59415W        W27756  35.561   7.207  14.942
59416W        W27757  42.891  20.061   0.908
59417W        W27758  17.106  41.880   3.696
59418W        W27759  33.057  31.098  10.484
59419W        W27760  29.942  26.466  11.117
59420W        W27761  25.640  31.599   1.859
59421W        W27762  12.302  17.731  12.386
59422W        W27763  24.093  41.921  12.917
59423W        W27764  44.907  12.828  11.395
59424W        W27765  41.017  43.816   3.311
59425W        W27766  20.764  20.173   3.795
59426W        W27767  43.808  12.670  14.780
59427W        W27768   2.261   8.385  12.498
59428W        W27769  29.483   8.294  10.934
59429W        W27770  14.150  20.547  13.458
59430W        W27771  34.495  38.056  11.101
59431W        W27772   6.262  26.091   3.741
59432W        W27773  18.117  27.584   4.259
59433W        W27774  16.646  25.077  12.832
59434W        W27775  33.395   8.758  10.533
59435W        W27776  13.154  13.814  13.423
59436W        W27777  17.660  14.639  14.353
59437W        W27778  37.958  38.559  13.042
59438W        W27779   7.788  23.002  13.483
59439W        W27780   3.256  37.473   2.383
59440W        W27781   5.381  34.412  11.450
59441W        W27782  33.116  15.585   1.432
59442W        W27783  37.870  43.458   2.853
59443W        W27784  29.461  12.132   0.902
59444W        W27785  40.800   9.712   0.726
59445W        W27786   2.813  34.900   2.343
59446W        W27787  21.584  18.637   2.383
59447W        W27788  29.522  29.063  11.488
59448W        W27789  41.452  37.933   0.829
59449W        W27790  26.510  40.396   0.951
59450W        W27791  32.990  18.603  14.937
59451W        W27792  22.707   6.267  14.998
59452W        W27793  25.097  35.915  13.021
59453W        W27794  27.063   4.795   3.386
59454W        W27795  37.457  24.515   1.359
59455W        W27796  21.117  11.256  14.351
59456W        W27797  13.291  32.976  10.417
59457W        W27798  32.100  20.074   4.622
59458W        W27799  24.484  13.324  12.434
59459W        W27800  39.456   0.896   0.808
59460W        W27801  31.490  14.690   2.760
59461W        W27802  20.241  19.132   2.341
59462W        W27803  27.504  40.371   2.404
59463W        W27804  24.480  43.367   0.371
59464W        W27805  15.240  30.117  12.969
59465W        W27806  27.992  26.051  13.312
59466W        W27807  14.253  35.967   4.118
59467W        W27808  33.088  38.562  14.389
59468W        W27809  10.312  14.186  10.940
59469W        W27810  29.109  16.116   2.691
59470W        W27811  40.991  37.899   1.328
59471W        W27812  36.916   3.743  12.344
59472W        W27813   9.747   3.827  11.925
59473W        W27814  42.305  44.371  10.972
59474W        W27815  37.890  27.157  13.829
59475W        W27816  38.017  10.341  11.071
59476W        W27817  29.061  26.032   2.362
59477W        W27818  31.933   8.896  10.614
59478W        W27819  25.173  17.757  14.470
59479W        W27820  38.504  24.143   2.182
59480W        W27821  34.468  31.597   0.277
59481W        W27822  32.967   1.460   1.732
59482W        W27823  16.209   9.674  10.448
59483W        W27824  37.388  11.334   3.218
59484W        W27825  22.043   7.211   2.798
59485W        W27826  11.200   4.734  12.538
59486W        W27827  34.040  21.216   4.297
59487W        W27828  19.549  44.891   1.886
59488W        W27829  11.774  38.950   4.599
59489W        W27830  20.567   5.786   1.765
59490W        W27831   9.190  24.049  12.988
59491W        W27832  31.048  13.318  11.521
59492W        W27833   7.311  41.499   4.716
59493W        W27834  35.945   2.434   3.670
59494W        W27835   4.318   6.902   2.386
59495W        W27836  11.241  11.697  13.986
59496W        W27837   6.916   2.777   0.384
59497W        W27838  21.749  37.943  11.044
59498W        W27839  43.496   0.410   1.708
59499W        W27840  32.502  10.700  14.454
59500W        W27841   8.373   2.757  14.282
59501W        W27842  16.091  17.638   3.354
59502W        W27843   2.771  17.103  12.077
59503W        W27844  12.679  40.522  13.040
59504W        W27845  15.721  30.141  14.837
59505W        W27846   6.219  22.718   5.133
59506W        W27847  26.003  12.849   2.223
59507W        W27848  17.581  13.674  10.535
59508W        W27849  27.063   7.301  13.523
59509W        W27850  38.967   3.451  12.842
59510W        W27851  42.865  18.053  12.072
59511W        W27852  39.002  31.621   3.742
59512W        W27853  19.776  35.100   1.883
59513W        W27854  15.759  12.803   3.693
59514W        W27855  34.490  41.881   4.697
59515W        W27856  18.063  20.182   1.696
59516W        W27857  37.545   4.308  11.552
59517W        W27858  11.799   4.879   1.258
59518W        W27859  16.659  11.262  11.119
59519W        W27860  24.622   1.268  14.007
59520W        W27861  24.078  24.188   4.650
59521W        W27862   1.410  38.032   0.410
59522W        W27863  27.190  13.660  10.529
59523W        W27864   2.320  32.012  11.004
59524W        W27865  43.312  33.417   3.757
59525W        W27866  16.738  32.431  10.076
59526W        W27867  22.509  22.013  14.415
59527W        W27868  21.049   2.867   1.815
59528W        W27869  29.170  28.466   4.252
59529W        W27870   9.352  25.065   3.234
59530W        W27871  37.898  34.547  13.868
59531W        W27872   0.261  21.091   2.703
59532W        W27873  17.658   7.861   4.742
59533W        W27874  28.507  32.572  11.520
59534W        W27875  13.229  18.052  10.093
59535W        W27876  23.156  31.926  13.038
59536W        W27877   2.386  29.640   0.401
59537W        W27878  16.731  22.562  13.472
59538W        W27879  25.999  29.567   2.707
59539W        W27880  40.910   9.656   0.281
59540W        W27881   6.699  32.606   1.428
59541W        W27882  36.944  26.663   4.249
59542W        W27883  19.604  42.400  13.419
59543W        W27884  35.441  28.530  12.933
59544W        W27885  29.621  31.003   0.819
59545W        W27886  41.334  17.645   4.313
59546W        W27887  21.754  18.738  11.434
59547W        W27888   4.289  26.656   2.245
59548W        W27889  25.649  20.250   0.951
59549W        W27890  13.297  18.227   2.811
59550W        W27891  41.387  19.229   4.648
59551W        W27892  18.770  25.966  13.924
59552W        W27893  34.922  29.118   4.276
59553W        W27894  23.693  33.912  10.408
59554W        W27895  30.046  23.626   4.203
59555W        W27896  21.087  15.111  10.060
59556W        W27897  37.855  28.436  13.809
59557W        W27898  38.033  33.506   0.936
59558W        W27899   8.218  14.835  12.030
59559W        W27900  28.974  34.614   1.354
59560W        W27901   4.204   2.944  11.570
59561W        W27902  14.782  31.992  13.014
59562W        W27903   2.870  32.101  14.413
59563W        W27904  14.143  40.453   3.773
59564W        W27905  38.531  36.543  11.860
59565W        W27906   2.324  12.790   5.252
59566W        W27907  33.418  38.349  12.922
59567W        W27908  22.565   0.818  14.852
59568W        W27909  13.627   3.447   1.734
59569W        W27910  33.956  37.425   5.124
59570W        W27911  18.598  12.253  10.435
59571W        W27912  25.099  26.120   2.397
59572W        W27913  36.394  26.106   4.697
59573W        W27914   7.280   0.974   4.818
59574W        W27915   2.849  32.104  12.409
59575W        W27916  20.713   5.824  13.479
59576W        W27917   8.273   5.244  12.935
59577W        W27918  27.054  34.601   0.743
59578W        W27919   1.774  14.772  14.766
59579W        W27920  38.332  11.213   3.715
59580W        W27921   5.916  25.135   3.807
59581W        W27922  22.719  19.748  10.915
59582W        W27923  19.051  33.892  14.838
59583W        W27924  18.782  22.195  13.920
59584W        W27925  31.128  35.094  12.904
59585W        W27926   9.669  40.539  10.479
59586W        W27927   5.893   1.458  14.294
59587W        W27928  44.878  31.935   0.938
59588W        W27929  11.325  30.099   1.772
59589W        W27930  43.001  28.093  12.428
59590W        W27931  29.666  37.355  14.440
59591W        W27932  22.029  24.124  13.431
59592W        W27933   5.306  18.788  11.066
59593W        W27934  31.088  43.329  13.396
59594W        W27935  15.755  28.062  14.377
59595W        W27936  27.004  26.653  10.130
59596W        W27937  43.796  17.726   5.599
59597W        W27938  23.075  30.578   0.402
59598W        W27939  23.235  14.107   3.753
59599W        W27940   7.891  24.100  11.414
59600W        W27941   5.828  25.003   0.839
59601W        W27942   5.414  16.235  10.551
59602W        W27943  31.447  15.787  14.975
59603W        W27944  32.551  24.688  14.309
59604W        W27945  16.753   7.817   3.308
59605W        W27946  17.212  25.661   2.242
59606W        W27947  17.118  19.170   0.749
59607W        W27948  33.437  13.333  13.990
59608W        W27949  41.014  31.032  13.474
59609W        W27950  11.775   5.211  11.449
59610W        W27951  19.254  14.752   2.711
59611W        W27952  16.094  29.463  13.008
59612W        W27953  28.646   1.834  10.475
59613W        W27954  34.496  14.318   1.405
59614W        W27955  16.690  11.355  10.539
59615W        W27956  26.695  38.486   3.178
59616W        W27957  14.610  41.982  12.964
59617W        W27958  13.199  31.113  12.486
59618W        W27959  14.823  15.148   0.468
59619W        W27960  13.121   5.226  13.857
59620W        W27961  42.513  21.253  11.377
59621W        W27962  30.500  35.553   0.788
59622W        W27963  10.275  42.375   3.715
59623W        W27964  29.991   3.833   0.398
59624W        W27965   0.780  42.367   0.777
59625W        W27966  27.051  24.110   2.212
59626W        W27967   1.900  33.538  11.994
59627W        W27968  42.775  33.898   0.391
59628W        W27969  44.840  29.936  13.906
59629W        W27970  38.991  24.561  14.859
59630W        W27971  31.014   5.338   4.651
59631W        W27972   7.329  43.871  10.465
59632W        W27973  35.371  16.578  14.382
59633W        W27974  12.692  15.174   0.942
59634W        W27975   8.822  19.589  14.010
59635W        W27976  13.714  11.159   0.821
59636W        W27977  29.613  42.988   1.371
59637W        W27978  42.527  33.021   0.398
59638W        W27979  18.785  26.983   0.334
59639W        W27980  28.533  30.046   3.259
59640W        W27981  43.441  44.366  10.602
59641W        W27982  24.994  15.254  11.483
59642W        W27983  24.666   9.679   4.156
59643W        W27984  34.507  40.350   2.814
59644W        W27985  25.109  42.453  11.068
59645W        W27986  29.635   7.882   1.928
59646W        W27987  20.181  29.658  12.024
59647W        W27988  22.694  40.537   0.957
59648W        W27989  25.696  34.995   1.344
59649W        W27990  32.965   5.379   3.706
59650W        W27991  19.577  13.218   1.822
59651W        W27992  26.951  44.281   4.651
59652W        W27993  38.450  34.595  11.569
59653W        W27994  15.736  38.433  10.472
59654W        W27995  19.039  15.752  11.506
59655W        W27996  15.653  23.573  10.933
59656W        W27997  11.759   5.289   3.795
59657W        W27998   3.788   4.864  13.933
59658W        W27999  41.423   0.289  13.054
59659W        W28000  43.498  30.543   2.671
59660W        W28001  28.022  27.497   3.649
59661W        W28002   8.317  10.782   3.159
59662W        W28003  33.040  38.857  14.988
59663W        W28004  41.962  25.635  13.548
59664W        W28005   4.750   2.927   4.636
59665W        W28006  44.307  33.965   4.332
59666W        W28007  17.575   3.461   4.174
59667W        W28008  14.657  29.536   4.834
59668W        W28009  44.777  38.507   0.279
59669W        W28010  21.225   7.325   0.478
59670W        W28011  30.093   4.860  11.499
59671W        W28012  23.496  30.484   0.357
59672W        W28013  39.941  18.750  10.498
59673W        W28014  31.091  28.039   1.774
59674W        W28015  25.165   7.393   1.405
59675W        W28016   3.381  23.060   3.862
59676W        W28017  30.633   3.801   0.821
59677W        W28018  33.623  22.184   3.221
59678W        W28019  43.505  20.539   1.428
59679W        W28020  27.019  20.727   1.861
59680W        W28021  40.409  43.819   0.291
59681W        W28022  28.633   4.295   1.304
59682W        W28023  31.124  31.100  10.593
59683W        W28024  18.262  14.653   4.833
59684W        W28025   3.282  42.957  10.939
59685W        W28026  44.935  32.401  12.374
59686W        W28027  43.987  18.641   4.807
59687W        W28028  24.081  38.525  10.459
59688W        W28029  36.565   9.348   3.723
59689W        W28030  10.181   9.301  10.102
59690W        W28031  19.716   2.890  14.959
59691W        W28032  18.766  18.581  13.017
59692W        W28033  41.933  30.416  10.435
59693W        W28034  22.013  27.625  12.840
59694W        W28035  42.977  27.454  12.824
59695W        W28036  22.124  19.545   0.877
59696W        W28037   2.906  36.404  12.963
59697W        W28038  41.504  29.566   4.179
59698W        W28039  39.870   8.770   3.844
59699W        W28040  12.162   8.858  13.039
59700W        W28041  13.170  30.020  13.858
59701W        W28042  41.897  26.004  14.312
59702W        W28043  43.904  20.158  13.412
59703W        W28044  23.004  32.600  14.861
59704W        W28045  25.685   6.829   4.809
59705W        W28046  26.975  28.670  12.869
59706W        W28047   2.428  34.973  12.851
59707W        W28048  17.599  21.513  12.459
59708W        W28049  14.606   8.270  14.807
59709W        W28050  20.746  13.141  10.481
59710W        W28051   4.858   1.252   5.140
59711W        W28052   0.787   0.933   0.770
59712W        W28053  37.059   6.910   2.671
59713W        W28054   0.442  30.464   2.670
59714W        W28055   0.751  29.498  13.997
59715W        W28056   7.323  20.214  13.004
59716W        W28057  24.584  44.360  10.613
59717W        W28058   4.306  13.317   4.820
59718W        W28059   4.309   7.719  13.383
59719W        W28060  28.544  17.289   0.727
59720W        W28061   7.356  17.678  12.938
59721W        W28062  42.514  44.812   1.884
59722W        W28063  27.567  23.529   4.134
59723W        W28064  32.557  44.379   2.401
59724W        W28065  43.400   3.398  12.964
59725W        W28066  39.967   7.239  12.452
59726W        W28067  43.829  41.912   4.742
59727W        W28068  30.495  10.814  10.545
59728W        W28069  10.646  20.055   4.336
59729W        W28070  42.450  28.008   2.896
59730W        W28071  15.761  26.001  10.637
59731W        W28072  29.541  32.135   2.762
59732W        W28073  12.674  12.692  13.862
59733W        W28074  37.855  10.167  12.943
59734W        W28075   1.328   3.846   0.474
59735W        W28076  41.912  13.285   4.295
59736W        W28077  26.017  30.519   0.964
59737W        W28078  24.528   6.390   4.320
59738W        W28079   2.959  25.039   0.363
59739W        W28080  44.398  40.392  10.979
59740W        W28081   2.337  34.369  14.907
59741W        W28082  13.654  23.571  14.760
59742W        W28083  40.822  42.983   4.826
59743W        W28084   3.219  14.659   3.701
59744W        W28085  16.089  15.133  11.527
59745W        W28086  13.173  15.622  13.337
59746W        W28087  33.063   8.698   4.285
59747W        W28088  11.273  33.076   1.343
59748W        W28089  19.647   9.265   1.776
59749W        W28090  31.532  15.644  12.409
59750W        W28091  29.627  43.392  11.392
59751W        W28092  33.527   3.775   4.130
59752W        W28093   1.822  23.535   2.901
59753W        W28094  29.574   6.872   0.814
59754W        W28095  25.214  43.331  10.976
59755W        W28096  40.959  31.035  13.041
59756W        W28097   0.273  16.164  11.125
59757W        W28098  23.709   3.380  13.950
59758W        W28099   3.254  24.064  14.426
59759W        W28100  39.961   3.947  14.868
59760W        W28101  10.282  35.533   3.817
59761W        W28102  38.075  14.183  10.949
59762W        W28103  11.678  30.124   4.611
59763W        W28104  18.554  21.017   2.392
59764W        W28105  24.568  26.037   0.312
59765W        W28106  42.341  24.231  12.569
59766W        W28107  19.640  44.884   4.758
59767W        W28108  43.765  38.011  14.477
59768W        W28109  11.134  27.590  11.124
59769W        W28110  34.935  11.190   1.322
59770W        W28111  33.515  40.977  13.349
59771W        W28112  39.971  11.669  12.998
59772W        W28113   9.705   0.878  10.454
59773W        W28114   9.365  37.499  13.013
59774W        W28115   3.259  13.312   1.222
59775W        W28116  31.060  11.684   0.743
59776W        W28117   8.356   1.876   4.735
59777W        W28118  39.447  17.294  12.059
59778W        W28119   9.194  27.549  12.465
59779W        W28120   4.761   0.423  13.375
59780W        W28121   2.386   1.872   0.922
59781W        W28122  37.967  24.536   3.793
59782W        W28123  37.420  42.997   2.295
59783W        W28124  23.005  14.654  11.100
59784W        W28125  16.116  34.003  11.895
59785W        W28126  37.510   3.358  13.060
59786W        W28127  10.195  31.571   1.239
59787W        W28128  12.248  28.445   2.844
59788W        W28129   7.796  20.597  10.630
59789W        W28130  18.172  41.469  14.313
59790W        W28131  42.301  14.128  14.976
59791W        W28132  31.023   6.326  11.863
59792W        W28133  41.358  30.540  11.584
59793W        W28134  20.670  41.810   3.714
59794W        W28135  16.296  17.285   1.373
59795W        W28136  18.072   2.859  11.112
59796W        W28137  28.572   7.343   4.796
59797W        W28138  38.938  25.711   1.745
59798W        W28139  22.037  39.367  11.031
59799W        W28140  10.847  11.626   3.276
59800W        W28141  19.641  43.291  13.860
59801W        W28142  24.561  26.628   0.963
59802W        W28143   4.785  37.556   4.292
59803W        W28144  15.779  41.875  13.914
59804W        W28145  34.386  13.284  11.546
59805W        W28146  15.322  34.388   1.779
59806W        W28147   5.320  12.785   2.355
59807W        W28148  25.038  29.939  12.991
59808W        W28149  16.079  42.790  11.903
59809W        W28150   9.821  13.282   0.344
59810W        W28151   3.846  32.562  14.436
59811W        W28152  33.897  25.041  12.459
59812W        W28153   8.378  22.738   3.855
59813W        W28154  24.715  23.544  13.518
59814W        W28155  35.867  39.538  10.436
59815W        W28156   0.937  23.072   3.155
59816W        W28157  15.091  33.943  11.898
59817W        W28158  39.373  20.030   1.695
59818W        W28159  29.547   2.380  10.641
59819W        W28160  15.182   8.252   0.440
59820W        W28161  33.887  22.996  10.491
59821W        W28162  41.332  13.280  13.992
59822W        W28163  18.143  42.425  11.936
59823W        W28164  40.869  10.726  10.933
59824W        W28165  31.462  34.400  13.935
59825W        W28166  43.390  12.686   0.789
59826W        W28167  15.664   1.401   1.439
59827W        W28168   4.803  19.052  14.768
59828W        W28169  35.986   8.219  11.126
59829W        W28170   8.232   2.249   4.698
59830W        W28171   0.822  43.856   3.339
59831W        W28172  44.954  28.591   0.432
59832W        W28173  11.787  19.544  11.465
59833W        W28174  37.459  41.842  12.366
59834W        W28175  38.428  32.054  11.067
59835W        W28176  30.996  29.143  13.837
59836W        W28177  17.097  23.573   5.700
59837W        W28178  39.352  40.864   2.737
59838W        W28179  43.925   1.277   3.162
59839W        W28180  32.074  38.351   3.162
59840W        W28181  22.587  43.809   0.795
59841W        W28182  20.206  40.018  13.415
59842W        W28183  36.372  25.500  13.813
59843W        W28184  25.203  28.994   5.281
59844W        W28185  17.180   6.788  12.908
59845W        W28186   9.719  13.185   2.672
59846W        W28187   2.950  43.496   1.789
59847W        W28188  28.479  10.638  10.958
59848W        W28189  14.254  10.832   3.827
59849W        W28190  13.222  44.927   1.241
59850W        W28191  29.462   8.674   1.741
59851W        W28192  41.851  44.754   1.826
59852W        W28193   4.792   1.358   0.778
59853W        W28194  19.744  26.131   2.737
59854W        W28195  30.470  22.117   0.394
59855W        W28196   4.833  14.685  13.444
59856W        W28197  15.083  30.990  14.965
59857W        W28198  16.133  23.210   3.274
59858W        W28199  17.232   6.806   4.673
59859W        W28200  39.386  40.366   4.714
59860W        W28201  41.426  20.216  10.415
59861W        W28202  36.493  11.841  13.834
59862W        W28203  40.932  24.589   2.357
59863W        W28204   6.403  10.316   0.854
59864W        W28205   0.809  11.864   3.301
59865W        W28206  14.708  38.999   1.889
59866W        W28207  27.509  38.502   0.249
59867W        W28208   7.737  27.536   1.699
59868W        W28209   3.309   0.466  11.049
59869W        W28210   7.694  40.971   4.629
59870W        W28211  26.038  19.125   3.774
59871W        W28212  10.817  26.633  11.112
59872W        W28213  31.621  14.763   0.263
59873W        W28214  19.140  17.138   2.384
59874W        W28215   5.862  40.855  13.896
59875W        W28216  22.009  14.224   3.635
59876W        W28217  27.501   4.734   2.860
59877W        W28218  18.697  29.022   4.727
59878W        W28219   0.748  11.256  12.925
59879W        W28220  38.375  32.596   1.361
59880W        W28221  41.852  39.381   4.318
59881W        W28222  26.482  30.075   0.755
59882W        W28223  11.630  11.774   4.162
59883W        W28224  42.320  39.872   1.374
59884W        W28225   5.379  37.414  12.999
59885W        W28226  17.750  10.362  10.996
59886W        W28227  13.611   3.916  11.070
59887W        W28228  11.217  12.837   1.365
59888W        W28229  12.742  20.687  12.085
59889W        W28230   3.914  34.434  13.004
59890W        W28231  32.923  44.431   1.229
59891W        W28232  23.203  25.974   2.817
59892W        W28233  31.537  39.469  14.766
59893W        W28234  39.898  43.352  13.866
59894W        W28235  41.483  36.387   0.472
59895W        W28236   4.941   8.751   3.228
59896W        W28237  31.121  31.958  14.476
59897W        W28238  43.998  42.033  13.534
59898W        W28239  41.458  37.086   4.813
59899W        W28240   3.341  12.251  12.862
59900W        W28241   7.823   2.818   4.780
59901W        W28242  39.008  40.824   4.190
59902W        W28243  16.760   1.295   1.873
59903W        W28244   1.325  31.015   4.750
59904W        W28245  17.671  16.592  11.489
59905W        W28246  12.240  23.044  14.776
59906W        W28247  31.425  42.433   4.199
59907W        W28248  28.666   5.692   3.355
59908W        W28249  20.551  42.423  11.060
59909W        W28250  43.809  16.115  12.468
59910W        W28251   4.226  29.637   4.692
59911W        W28252  26.046   7.767   0.268
59912W        W28253  19.674  40.355   0.307
59913W        W28254  14.327   8.767  14.898
59914W        W28255  27.505  11.346   2.684
59915W        W28256  34.105   7.379  12.557
59916W        W28257  40.320  21.528   4.237
59917W        W28258   6.309  37.523   4.292
59918W        W28259   8.282  17.771   1.346
59919W        W28260  18.152  27.073  13.336
59920W        W28261  42.794   3.365   2.712
59921W        W28262  17.571  36.582  14.438
59922W        W28263  38.848  16.721   4.670
59923W        W28264  38.880  28.162  12.964
59924W        W28265  40.497  32.420  10.550
59925W        W28266   8.667  13.188  13.847
59926W        W28267  13.167  19.277  14.393
59927W        W28268   3.297  24.660  14.282
59928W        W28269  33.584  38.056  14.000
59929W        W28270  33.515  23.039   0.840
59930W        W28271  37.403  42.368  12.376
59931W        W28272   6.907  26.655  14.350
59932W        W28273  40.523  38.512  11.611
59933W        W28274  19.628  40.912   1.400
59934W        W28275   8.290  35.974  12.517
59935W        W28276  31.568   0.444   1.700
59936W        W28277  10.246  21.119   2.808
59937W        W28278  37.925  34.549   0.299
59938W        W28279  36.992   0.950  12.425
59939W        W28280   9.851  19.686  10.494
59940W        W28281  35.894  30.081   0.902
59941W        W28282  41.928  14.805  11.088
59942W        W28283  37.540   7.836   1.917
59943W        W28284  23.601  31.957  11.043
59944W        W28285   2.249  38.971   3.267
59945W        W28286  24.597   8.860   0.349
59946W        W28287   0.754  39.346  14.954
59947W        W28288   8.861  19.053   1.328
59948W        W28289  37.493   9.793  11.105
59949W        W28290  21.574  19.551   4.788
59950W        W28291  16.681  14.816   1.863
59951W        W28292  37.439  24.691  10.599
59952W        W28293  14.600  13.813  13.508
59953W        W28294  31.420  44.349  11.454
59954W        W28295  22.689  30.020   0.266
59955W        W28296   4.699   2.462   2.338
59956W        W28297   6.855  35.095  13.804
59957W        W28298   9.845  20.637  10.413
59958W        W28299  34.007  10.200  10.519
59959W        W28300  22.076  36.416  10.927
59960W        W28301  23.105  13.317  14.362
59961W        W28302   7.192  15.777  11.010
59962W        W28303  34.387   5.411  11.412
59963W        W28304  14.134  20.677  10.893
59964W        W28305  18.197   1.923  11.048
59965W        W28306  33.959   5.882   3.167
59966W        W28307  37.552  30.452   2.871
59967W        W28308  25.173  25.156  11.460
59968W        W28309   0.889  40.410   1.260
59969W        W28310  10.848  41.431  12.874
59970W        W28311  21.260  12.152  11.042
59971W        W28312  10.692  11.767   0.759
59972W        W28313  31.037  27.457   3.794
59973W        W28314  27.192  28.585  11.106
59974W        W28315  19.155  15.227   4.178
59975W        W28316  39.492  40.420  11.902
59976W        W28317  16.643  14.172  12.492
59977W        W28318   2.861   3.841  13.882
59978W        W28319  16.206  35.491  14.769
59979W        W28320  34.971  33.564  11.611
59980W        W28321   2.957  31.148   2.872
59981W        W28322  13.242  33.900  11.583
59982W        W28323  24.559  43.393  14.915
59983W        W28324   3.903  25.208   1.228
59984W        W28325   6.241  43.915   0.477
59985W        W28326  43.494  24.155  13.919
59986W        W28327  33.385  32.430   2.307
59987W        W28328  28.500  19.219   1.903
59988W        W28329  44.420  12.353   1.828
59989W        W28330   2.786   4.759  13.800
59990W        W28331  42.482  31.140   3.386
59991W        W28332  38.529   1.451  12.996
59992W        W28333   8.707  18.239   4.174
59993W        W28334  12.252  43.516  14.414
59994W        W28335  21.235  36.374  12.383
59995W        W28336   3.309  24.627  14.786
59996W        W28337  35.514  20.694  11.063
59997W        W28338  17.709  43.432   1.317
59998W        W28339   0.377   4.428   4.161
59999W        W28340  35.520  23.608  13.346
60000W        W28341  13.835  27.532   0.329
60001W        W28342   6.208  30.572   5.089
60002W        W28343  22.566  30.628   1.887
60003W        W28344  30.430  18.723   3.167
60004W        W28345   1.250   0.913   0.394
60005W        W28346  38.962  15.731   0.901
60006W        W28347  39.979   9.349   1.925
60007W        W28348  13.210  11.815   3.276
60008W        W28349  36.347  43.022  11.015
60009W        W28350  35.085  20.741  13.368
60010W        W28351  16.293  43.898  12.077
60011W        W28352  36.529  22.015   3.227
60012W        W28353  44.861  30.607  10.964
60013W        W28354  20.113  20.658  13.325
60014W        W28355   1.956  35.453  14.461
60015W        W28356  24.198  42.289  13.045
60016W        W28357  16.198  16.293  10.546
60017W        W28358  10.836  43.813   2.316
60018W        W28359  10.829  24.527   1.828
60019W        W28360  27.043  18.726  14.414
60020W        W28361  22.165  16.625  11.522
60021W        W28362  30.016  34.102   1.733
60022W        W28363  36.397  15.162   2.709
60023W        W28364  29.620  10.784  14.322
60024W        W28365  42.920  19.535  11.071
60025W        W28366   4.251  34.582   1.713
60026W        W28367  31.470  17.644   2.687
60027W        W28368   7.353  28.162  11.859
60028W        W28369  33.545  25.524   5.183
60029W        W28370  15.711  42.919   4.228
60030W        W28371  13.277  43.452  13.332
60031W        W28372  44.291  44.848   0.821
60032W        W28373  20.544   6.835  13.048
60033W        W28374  25.696  38.371  10.925
60034W        W28375   9.783  11.632   5.282
60035W        W28376  35.892  35.069   4.687
60036W        W28377   7.865  21.720   0.268
60037W        W28378   4.939   6.386  11.601
60038W        W28379  20.263  24.215  14.004
60039W        W28380   4.712  40.382  14.997
60040W        W28381  16.133  32.000   2.405
60041W        W28382  35.393  27.648  12.866
60042W        W28383  36.447  23.709  10.154
60043W        W28384  33.466  31.106   1.869
60044W        W28385  33.103  30.450  11.587
60045W        W28386  34.057  14.642  14.011
60046W        W28387  24.489  16.097   1.763
60047W        W28388  32.521   1.900  12.436
60048W        W28389  42.842  13.810   0.418
60049W        W28390  13.743  31.410   0.456
60050W        W28391   5.368   3.784   4.114
60051W        W28392  24.523  43.773  13.364
60052W        W28393  33.425  36.044  12.430
60053W        W28394  33.438   6.220  10.464
60054W        W28395  31.543   9.272   2.882
60055W        W28396   3.398   7.267  12.940
60056W        W28397  16.119  43.467   2.270
60057W        W28398   3.749   9.394   2.244
60058W        W28399  32.955   8.264   0.371
60059W        W28400  18.260   2.830   2.360
60060W        W28401  29.120  22.519   0.427
60061W        W28402  36.026  18.123  13.028
60062W        W28403  33.075   1.804  13.894
60063W        W28404  36.565  43.985   2.821
60064W        W28405  40.007  13.148  11.093
60065W        W28406  29.477   3.404  14.929
60066W        W28407  23.004  16.241   5.767
60067W        W28408  23.124  15.140   4.667
60068W        W28409  16.305  25.040   5.245
60069W        W28410  24.579   8.217  10.563
60070W        W28411  16.750  23.104   1.425
60071W        W28412  30.045  13.781  13.872
60072W        W28413  44.976   4.894  12.931
60073W        W28414  40.865  37.474  14.417
60074W        W28415   4.905  20.182   4.213
60075W        W28416  24.026  29.153   4.135
60076W        W28417  39.994  19.059  13.928
60077W        W28418   4.406  26.648   1.336
60078W        W28419  21.624  39.410   0.373
60079W        W28420  18.778  20.599  10.447
60080W        W28421   6.323  20.689   3.721
60081W        W28422  39.049  22.187   1.446
60082W        W28423  33.975  12.322   3.649
60083W        W28424  26.517  26.086   1.215
60084W        W28425  15.661  30.126   2.361
60085W        W28426  35.573  24.161  11.383
60086W        W28427   0.376  25.017   4.643
60087W        W28428  11.795  39.037  12.357
60088W        W28429  25.964  34.035   1.720
60089W        W28430   1.280  30.655   3.161
60090W        W28431   3.736   3.720  10.995
60091W        W28432  41.791  44.295  12.481
60092W        W28433  12.661  10.306  11.428
60093W        W28434   7.387  21.622   2.408
60094W        W28435  27.041  40.005  11.574
60095W        W28436  11.861  34.567   4.286
60096W        W28437   1.808  37.527  12.456
60097W        W28438   2.243  16.699  11.103
60098W        W28439  32.049   3.297  12.540
60099W        W28440  10.290  32.958   0.307
60100W        W28441  36.410  28.510  13.973
60101W        W28442  13.108  29.132  13.497
60102W        W28443  21.097  16.074  12.372
60103W        W28444   1.240  15.791  10.601
60104W        W28445  26.063  36.455  10.636
60105W        W28446  34.871  14.725   4.808
60106W        W28447  16.292  26.180   4.318
60107W        W28448   6.814  11.258   3.373
60108W        W28449  26.989  23.213   3.296
60109W        W28450  11.665  32.994   1.911
60110W        W28451  18.753  30.985   3.808
60111W        W28452  27.189   3.757   4.214
60112W        W28453  11.863  23.623  12.474
60113W        W28454  15.239  31.419  11.948
60114W        W28455  35.596  33.129  14.931
60115W        W28456  24.688  44.389   2.396
60116W        W28457   9.848  44.470   3.330
60117W        W28458  43.781  33.919  14.485
60118W        W28459  14.287  23.694   3.236
60119W        W28460  13.709  36.430   2.685
60120W        W28461   8.339  38.432   1.847
60121W        W28462  19.604  42.450   0.406
60122W        W28463  17.146  31.987   4.225
60123W        W28464  12.761  26.585  11.510
60124W        W28465  43.991  35.955   3.380
60125W        W28466  27.557  11.288   4.325
60126W        W28467  28.529  34.896   4.652
60127W        W28468  36.954  34.463   1.735
60128W        W28469  12.135  35.370  13.006
60129W        W28470   5.306  16.107  12.954
60130W        W28471  14.320  32.137   1.289
60131W        W28472  26.158  13.637  11.418
60132W        W28473  16.793  11.804   1.268
60133W        W28474  34.574  15.712  14.514
60134W        W28475   0.307   6.917  11.975
60135W        W28476  27.521   2.830  10.433
60136W        W28477   5.219  36.350   2.411
60137W        W28478  39.446  28.519   4.786
60138W        W28479  22.741  23.638   3.296
60139W        W28480  27.542  22.642  11.039
60140W        W28481  13.118   2.362  14.475
60141W        W28482  29.995  33.397   0.925
60142W        W28483  13.309  13.628   4.777
60143W        W28484  14.703  38.525  14.897
60144W        W28485  27.521  40.861   1.737
60145W        W28486   9.164  39.358  10.411
60146W        W28487   6.768   9.257  10.905
60147W        W28488  33.544   0.780   5.205
60148W        W28489  17.716  36.516  11.451
60149W        W28490  41.494  32.484   1.791
60150W        W28491  29.433  14.297   0.728
60151W        W28492  17.280  11.211  12.046
60152W        W28493  13.233  43.367   2.696
60153W        W28494   8.690  32.502   2.757
60154W        W28495   8.362  31.495  12.063
60155W        W28496  33.038  44.953  14.798
60156W        W28497  15.100  26.656  12.571
60157W        W28498  30.476  35.457  13.935
60158W        W28499   6.688  17.092   3.197
60159W        W28500  24.669  19.230  14.503
60160W        W28501   0.918  37.547   3.156
60161W        W28502  20.714  24.057   3.360
60162W        W28503   9.386   6.246  14.305
60163W        W28504  32.112  29.646   4.355
60164W        W28505  18.281  21.173  10.028
60165W        W28506   1.461   5.412  14.907
60166W        W28507   8.340  27.470  10.605
60167W        W28508  43.783  44.773   3.149
60168W        W28509  33.945  26.025  10.953
60169W        W28510  39.935  16.240   0.854
60170W        W28511  41.312   2.290  10.429
60171W        W28512  28.596  38.972   0.730
60172W        W28513  33.512  14.769   1.427
60173W        W28514  20.755  18.236  13.998
60174W        W28515  11.652  18.164   0.917
60175W        W28516  31.465  16.109  13.806
60176W        W28517  34.987   0.744   2.182
60177W        W28518  18.172  25.040  10.412
60178W        W28519  37.988  33.909   2.184
60179W        W28520  19.097   1.814  11.480
60180W        W28521  28.150  21.239  12.923
60181W        W28522  22.028  16.223   3.306
60182W        W28523  35.418   1.746   0.320
60183W        W28524  14.137  14.658  10.427
60184W        W28525  43.391   9.221  10.414
60185W        W28526  33.516   1.783   0.873
60186W        W28527  26.615   7.755  10.495
60187W        W28528  25.683  35.594   0.273
60188W        W28529  15.232   8.659   1.235
60189W        W28530  21.131  16.166  14.023
60190W        W28531  29.952  13.327  13.877
60191W        W28532   5.278  14.642   4.720
60192W        W28533  43.917  15.155   1.380
60193W        W28534  26.047  26.577   5.320
60194W        W28535  28.048  33.117  14.379
60195W        W28536  33.474  37.036   0.948
60196W        W28537   5.726  31.070  10.638
60197W        W28538  19.280  37.499  14.825
60198W        W28539  28.991  12.836  14.795
60199W        W28540  11.795   8.884   1.273
60200W        W28541   0.337  25.051  12.869
60201W        W28542  11.862  17.736  12.828
60202W        W28543  34.448  14.604  13.515
60203W        W28544  40.798  24.560   1.715
60204W        W28545   3.785  27.975  14.421
60205W        W28546  14.336  12.784   0.317
60206W        W28547  14.193   1.461   2.667
60207W        W28548  28.093   4.367  14.386
60208W        W28549  29.435  31.897  11.077
60209W        W28550  44.856  28.582   2.811
60210W        W28551  43.380  16.078   0.281
60211W        W28552  13.765   8.319  14.390
60212W        W28553  22.634  41.033   2.417
60213W        W28554  37.028   6.891  11.978
60214W        W28555  41.435  31.950   3.352
60215W        W28556  15.659  37.890   1.906
60216W        W28557  18.659  16.730  14.789
60217W        W28558  33.066  23.122  12.578
60218W        W28559   8.313  20.623  14.432
60219W        W28560  34.883  39.033   0.418
60220W        W28561   9.880   6.197  10.973
60221W        W28562  24.112   1.419  12.355
60222W        W28563  17.258  22.663   4.688
60223W        W28564  29.636  29.505   0.390
60224W        W28565  14.746   4.374   1.238
60225W        W28566  26.961  12.142  11.545
60226W        W28567  15.611  42.809   4.700
60227W        W28568  35.416   7.206  12.874
60228W        W28569  21.017  42.285   2.874
60229W        W28570   0.844  25.498   2.396
60230W        W28571   1.447  39.507  13.316
60231W        W28572  27.680   6.711  11.874
60232W        W28573   3.794  22.064   3.678
60233W        W28574   1.878  13.119  13.329
60234W        W28575  39.030  16.125  12.543
60235W        W28576  28.147  29.964  11.526
60236W        W28577  35.066  10.675   0.775
60237W        W28578  38.353   4.303  12.917
60238W        W28579   9.239  23.179  12.893
60239W        W28580  31.574  29.126   2.718
60240W        W28581  17.081  13.742   3.721
60241W        W28582  34.912  15.206   1.866
60242W        W28583  44.758  39.365   1.856
60243W        W28584  15.111  22.744   2.832
60244W        W28585  28.092  21.707  11.515
60245W        W28586  20.533  21.068   3.319
60246W        W28587  10.644  42.459  13.422
60247W        W28588  26.607  14.286  14.423
60248W        W28589   7.849  38.510   2.843
60249W        W28590  39.906  30.079  10.427
60250W        W28591  34.557   7.274   0.293
60251W        W28592  11.159  34.543  14.357
60252W        W28593  37.009   0.409  11.939
60253W        W28594  31.919  26.562  13.020
60254W        W28595  33.035   0.464   1.695
60255W        W28596   9.657  20.676  12.489
60256W        W28597  37.478  21.687  11.984
60257W        W28598  40.847  25.472  12.890
60258W        W28599  41.970  34.458  14.316
60259W        W28600  22.191  40.519   3.847
60260W        W28601  31.558  31.094  13.309
60261W        W28602   5.749  32.110  14.505
60262W        W28603   7.209  33.464  11.565
60263W        W28604  31.131  26.181  11.077
60264W        W28605  13.185   1.245  10.963
60265W        W28606   7.297  16.791   1.788
60266W        W28607  36.377  39.960   2.894
60267W        W28608  44.488  16.217  13.325
60268W        W28609  16.282   1.336   0.268
60269W        W28610  12.141  23.564  14.422
60270W        W28611  29.110  30.416  13.395
60271W        W28612  37.339  28.614   2.294
60272W        W28613   7.729  26.617   0.840
60273W        W28614  25.195  33.448   1.921
60274W        W28615  10.871  37.474   2.184
60275W        W28616  43.318  12.152   2.701
60276W        W28617  13.125  10.357   1.928
60277W        W28618  27.568  44.314   4.174
60278W        W28619  22.577  30.600  11.890
60279W        W28620  32.012  38.441   9.974
60280W        W28621  43.371  27.644  11.407
60281W        W28622   4.926   9.817  14.410
60282W        W28623  27.529  25.676  11.962
60283W        W28624  36.072  39.341  11.855
60284W        W28625  34.960  35.012  14.991
60285W        W28626   9.170  27.499   2.396
60286W        W28627  19.125  17.295  14.016
60287W        W28628  17.134  44.365  13.024
60288W        W28629  14.211   5.874  10.590
60289W        W28630  25.527  11.138  14.370
60290W        W28631  44.931  24.644   3.229
60291W        W28632  25.645  17.185   4.177
60292W        W28633  25.642  38.364   1.846
60293W        W28634  16.157  39.450  14.428
60294W        W28635  33.115   3.911  12.345
60295W        W28636  27.687  34.494  12.440
60296W        W28637  42.403  28.437   1.700
60297W        W28638  28.128  34.094   2.343
60298W        W28639  26.612  29.165  11.933
60299W        W28640  10.805  27.606  11.946
60300W        W28641   2.335  43.901  14.373
60301W        W28642  36.869  41.884   0.806
60302W        W28643   2.439  16.204   0.944
60303W        W28644  36.848   9.818  11.894
60304W        W28645  19.621  16.809   2.320
60305W        W28646  13.824   4.271  12.999
60306W        W28647  34.538  32.427   2.861
60307W        W28648  17.306   5.268   0.810
60308W        W28649  37.340  26.099  12.054
60309W        W28650  41.824  40.808   0.840
60310W        W28651  13.736  41.443   0.763
60311W        W28652  28.110  29.622   3.311
60312W        W28653  40.548  34.070   3.701
60313W        W28654  37.434  36.549  13.992
60314W        W28655  43.483  20.097  11.909
60315W        W28656  33.077  29.961   3.809
60316W        W28657  22.066  36.064  11.865
60317W        W28658  26.555  28.672  10.907
60318W        W28659   9.775  18.202  13.014
60319W        W28660  27.973  38.501  11.452
60320W        W28661   6.852   7.838  11.996
60321W        W28662   6.405  19.706   3.151
60322W        W28663  22.521  31.625   2.836
60323W        W28664  26.563  31.626  13.394
60324W        W28665   8.203  26.039  11.890
60325W        W28666   5.728  25.495   1.819
60326W        W28667  26.004  39.993   4.792
60327W        W28668  31.115   0.830  14.392
60328W        W28669   4.723  29.586   2.391
60329W        W28670  32.570  41.978   9.500
60330W        W28671  17.793  34.586   4.246
60331W        W28672  40.398  14.229  10.920
60332W        W28673   6.848  26.024  13.382
60333W        W28674   9.713   5.727   0.816
60334W        W28675  12.261  28.933   4.269
60335W        W28676  43.914  22.141   1.796
60336W        W28677  23.060  22.020   1.287
60337W        W28678  42.001  25.574   4.235
60338W        W28679  31.423  22.182  13.868
60339W        W28680  40.844  43.300   4.140
60340W        W28681  33.586  21.671  14.764
60341W        W28682  30.953  26.545  10.538
60342W        W28683  18.661   5.709  12.914
60343W        W28684  25.476   9.680   1.739
60344W        W28685  41.013   5.313  12.346
60345W        W28686  33.132  17.621   2.831
60346W        W28687  18.247  12.777   2.273
60347W        W28688   5.903   4.785  12.064
60348W        W28689  20.698  37.523  10.467
60349W        W28690   4.809  12.801  10.441
60350W        W28691  40.448  36.947  13.951
60351W        W28692  35.014   5.274   3.326
60352W        W28693   5.784  26.066   2.290
60353W        W28694   4.880  40.923   2.410
60354W        W28695  37.482   9.291   1.723
60355W        W28696  16.749  28.657  14.329
60356W        W28697  28.156  21.595   4.314
60357W        W28698  11.348  36.512   1.273
60358W        W28699  24.153  44.374  14.322
60359W        W28700  26.474  11.133   0.753
60360W        W28701   3.409  30.511  13.310
60361W        W28702  28.985   5.889   3.777
60362W        W28703  17.085   1.456   2.739
60363W        W28704   1.359   3.345   3.221
60364W        W28705   2.241   6.197  13.060
60365W        W28706   1.873  35.477  13.431
60366W        W28707   5.379  17.752  14.957
60367W        W28708   9.321  25.522  13.413
60368W        W28709  21.716  22.734  10.007
60369W        W28710  19.170  11.621   1.835
60370W        W28711  43.408  34.999  12.832
60371W        W28712  18.737  23.652  13.403
60372W        W28713   5.740  19.630  13.422
60373W        W28714  44.958  33.557  11.565
60374W        W28715   2.797  33.444  14.816
60375W        W28716  33.922  31.982  13.813
60376W        W28717   2.949  19.638   1.918
60377W        W28718  33.946  34.035  12.579
60378W        W28719   5.384  39.480   2.292
60379W        W28720  27.627  27.043  12.856
60380W        W28721  16.199  41.477  13.481
60381W        W28722   6.379  39.968   2.743
60382W        W28723  24.549  31.019  12.999
60383W        W28724  10.228  10.337  13.321
60384W        W28725  17.100  20.103  12.384
60385W        W28726  15.118  30.599   0.864
60386W        W28727  19.711  24.189   1.448
60387W        W28728  35.853   1.861   3.688
60388W        W28729  26.956  23.210   2.207
60389W        W28730   5.355  28.185  11.061
60390W        W28731  31.058  26.145  14.291
60391W        W28732  28.044  25.521   2.888
60392W        W28733  36.862   2.465  12.524
60393W        W28734  36.500  39.033   0.764
60394W        W28735  13.287   7.177  13.346
60395W        W28736  12.849  13.262   1.814
60396W        W28737  28.010  14.666   3.155
60397W        W28738   8.803  29.123   0.443
60398W        W28739  19.655  37.926  13.414
60399W        W28740  36.001  29.147   4.818
60400W        W28741  36.906  40.050  10.893
60401W        W28742  10.691   6.310   0.798
60402W        W28743   7.858  27.614  14.321
60403W        W28744  31.929  25.968   2.678
60404W        W28745   6.824  21.530  13.349
60405W        W28746   4.420  42.322  12.419
60406W        W28747  18.088  22.621  12.059
60407W        W28748   3.734   7.274   0.748
60408W        W28749  38.889   8.879  13.041
60409W        W28750  30.634  26.998  10.594
60410W        W28751  35.057  26.107  12.400
60411W        W28752  40.402  33.609  10.109
60412W        W28753  34.457   2.247   4.271
60413W        W28754  21.680  20.741  14.460
60414W        W28755  42.907  29.524   2.235
60415W        W28756  29.441  30.611   2.719
60416W        W28757   0.781  39.942   0.909
60417W        W28758  23.069   6.818  13.040
60418W        W28759  28.467  24.134  13.504
60419W        W28760  14.324  14.283   0.892
60420W        W28761  37.478  27.032  10.526
60421W        W28762  35.444  21.194   1.918
60422W        W28763  19.534  20.275  14.820
60423W        W28764   1.403  36.087  14.761
60424W        W28765  36.352  13.236  14.364
60425W        W28766  40.377   1.870   5.321
60426W        W28767   2.960  27.582   2.383
60427W        W28768  33.594  23.053   2.214
60428W        W28769  24.653  39.820   3.745
60429W        W28770   3.382  38.852  13.440
60430W        W28771   6.727  16.633  11.867
60431W        W28772  19.158  42.377   4.121
60432W        W28773   8.380   9.681  14.475
60433W        W28774  33.883  39.887  10.004
60434W        W28775  33.122  30.975  13.371
60435W        W28776  26.651  35.989  14.315
60436W        W28777  41.299   1.381   2.365
60437W        W28778  19.265  34.958   0.327
60438W        W28779  35.591  31.981  13.810
60439W        W28780  40.903  15.277   2.292
60440W        W28781  21.605  12.292  12.913
60441W        W28782  29.601  44.873  14.851
60442W        W28783   2.865   9.221   1.756
60443W        W28784  40.472  15.685   1.900
60444W        W28785  35.432  25.205   4.694
60445W        W28786  36.491  36.552  12.522
60446W        W28787   5.263  10.635  11.964
60447W        W28788   2.227  10.152   1.773
60448W        W28789  35.381  13.756   3.175
60449W        W28790  12.122  26.061   4.275
60450W        W28791  41.978  22.507  12.430
60451W        W28792  13.800  12.796   2.413
60452W        W28793  40.881  26.629  12.510
60453W        W28794  30.433  28.993   4.693
60454W        W28795  32.059  40.968  13.971
60455W        W28796   9.373  17.622  13.487
60456W        W28797  42.921  15.789   5.174
60457W        W28798  35.087   7.303  11.988
60458W        W28799  28.157  35.397  12.976
60459W        W28800  29.073  41.525   0.764
60460W        W28801  30.928  12.250  13.012
60461W        W28802  31.912  13.251   2.799
60462W        W28803  43.811  31.974   0.393
60463W        W28804  21.709   4.363  10.489
60464W        W28805  19.083  27.955   2.751
60465W        W28806   9.692  30.579   1.237
60466W        W28807   3.941  32.887   0.844
60467W        W28808   1.333  14.784  10.991
60468W        W28809  39.333  30.621   2.373
60469W        W28810  36.959  30.574   2.205
60470W        W28811  44.359  38.472   2.700
60471W        W28812  15.236  30.432   0.321
60472W        W28813   3.234  10.728   0.843
60473W        W28814   1.896  29.434  12.569
60474W        W28815  26.064   1.333   0.282
60475W        W28816  31.027  18.157  11.998
60476W        W28817  40.893  41.962   3.182
60477W        W28818  18.090  10.178  14.779
60478W        W28819  15.118  39.475   3.792
60479W        W28820  34.603  11.276  14.470
60480W        W28821  23.071   2.377   0.327
60481W        W28822  24.171   6.240   5.283
60482W        W28823   0.439   2.338   4.276
60483W        W28824  30.501  20.181   2.731
60484W        W28825  39.905  23.687   2.692
60485W        W28826   3.387   6.313  12.393
60486W        W28827  23.540   4.224   0.869
60487W        W28828  12.789  30.137  10.608
60488W        W28829  30.586   0.913   2.662
60489W        W28830  14.691  41.860  12.083
60490W        W28831  15.759  16.157  12.459
60491W        W28832  32.560  43.921  12.381
60492W        W28833   9.648  35.903   4.136
60493W        W28834  26.468  41.478   1.319
60494W        W28835   8.894  43.001   0.276
60495W        W28836  43.932  26.055  13.951
60496W        W28837  35.420  34.881  11.482
60497W        W28838   5.819  26.205  13.532
60498W        W28839  19.710  25.613  14.313
60499W        W28840  40.386  30.475  12.996
60500W        W28841  10.746  24.993   0.871
60501W        W28842  14.328  12.277  14.908
60502W        W28843   9.368  10.200   0.482
60503W        W28844  42.345  20.746  12.854
60504W        W28845  24.186   2.452  13.494
60505W        W28846  18.121  11.313  14.768
60506W        W28847  30.592  23.595  11.038
60507W        W28848   0.983  12.351  14.286
60508W        W28849  25.622  21.636  10.600
60509W        W28850   5.895  13.751  12.534
60510W        W28851  17.154   3.297  14.818
60511W        W28852  15.592   5.825  13.312
60512W        W28853  39.435  15.697   3.812
60513W        W28854  20.748   6.256   0.865
60514W        W28855  19.219   7.205   2.220
60515W        W28856  18.560  36.878   1.907
60516W        W28857  19.159  28.583  14.787
60517W        W28858  44.430  31.086  14.375
60518W        W28859  25.102   8.875   4.150
60519W        W28860  43.296  23.543  10.910
60520W        W28861  38.516   8.363   1.700
60521W        W28862  27.461  17.157  14.892
60522W        W28863   4.880   4.420   4.809
60523W        W28864   2.301  32.054  11.917
60524W        W28865  16.653  21.121   3.288
60525W        W28866   3.253  33.429   3.314
60526W        W28867  25.028  13.837   0.799
60527W        W28868   6.192  18.150   9.949
60528W        W28869  19.191  20.267  11.005
60529W        W28870  32.075   5.810  10.447
60530W        W28871  10.709   5.719   3.850
60531W        W28872  38.053  43.424  11.037
60532W        W28873  38.335  40.358  11.407
60533W        W28874  12.220  14.174   2.182
60534W        W28875   8.666  36.488  13.827
60535W        W28876  43.014  20.218   4.201
60536W        W28877   5.292  12.332  10.553
60537W        W28878   9.243  34.029   3.660
60538W        W28879   7.725  12.741  10.469
60539W        W28880  31.998  31.064   3.671
60540W        W28881  34.090  39.976  10.560
60541W        W28882   6.791  24.098   4.206
60542W        W28883  10.637  39.937  10.640
60543W        W28884   1.794  34.997   0.822
60544W        W28885   7.876   8.350  10.953
60545W        W28886  27.684  11.132  11.568
60546W        W28887  32.133   1.432  13.921
60547W        W28888  37.567  16.281  10.992
60548W        W28889  21.548  44.965   2.391
60549W        W28890  37.572  18.639  10.551
60550W        W28891  40.957  14.819  14.925
60551W        W28892  40.876  43.271  14.770
60552W        W28893  11.317  23.620  10.894
60553W        W28894  38.522  38.887   2.664
60554W        W28895  15.642  40.406  10.405
60555W        W28896  28.675  21.235   1.330
60556W        W28897  28.679  41.306  11.454
60557W        W28898   4.795  26.040  12.498
60558W        W28899  30.096  15.325  10.507
60559W        W28900  44.003  35.531  13.973
60560W        W28901   3.848  33.422  14.434
60561W        W28902  17.079   6.196  12.850
60562W        W28903  22.090  31.582   3.254
60563W        W28904  15.322  17.198  14.299
60564W        W28905  17.774  37.043   0.791
60565W        W28906   5.756   4.864   3.755
60566W        W28907  26.146  29.485  10.572
60567W        W28908  18.272  23.147   5.174
60568W        W28909  43.805  22.659   3.663
60569W        W28910  15.784  13.160   5.188
60570W        W28911  34.615  24.051   3.719
60571W        W28912  41.025  21.035  10.983
60572W        W28913  27.194  18.712   2.232
60573W        W28914   8.834  13.818  13.811
60574W        W28915  34.990  18.767   0.363
60575W        W28916  19.259   5.330  14.339
60576W        W28917  17.288  44.824   9.978
60577W        W28918  27.139  32.891   4.828
60578W        W28919  32.953  11.768  13.875
60579W        W28920  41.468  41.797  13.988
60580W        W28921  40.968   0.393   4.614
60581W        W28922  33.934  23.721   0.776
60582W        W28923  12.727  17.235   4.599
60583W        W28924  19.261  39.531  11.602
60584W        W28925  10.777  10.152   3.357
60585W        W28926   1.394  39.385  12.355
60586W        W28927   8.206  16.803   4.208
60587W        W28928  37.501  44.277  14.025
60588W        W28929   3.801   3.335   1.814
60589W        W28930  11.761  21.023   4.637
60590W        W28931  31.083  26.686  14.791
60591W        W28932  28.056  36.530  13.994
60592W        W28933  39.950  38.913   1.272
60593W        W28934  26.671  38.932   2.704
60594W        W28935  41.792  40.508   4.186
60595W        W28936  33.575  24.148   1.702
60596W        W28937  43.502  21.174   4.164
60597W        W28938  25.076  44.363   1.307
60598W        W28939   9.362  43.020  12.341
60599W        W28940  32.973  28.582   2.725
60600W        W28941  36.576  44.891  10.562
60601W        W28942  22.734  26.612  14.474
60602W        W28943  39.427  15.617  10.493
60603W        W28944  34.388  34.597  12.491
60604W        W28945   9.345  43.281   4.301
60605W        W28946  31.098  33.515   0.813
60606W        W28947  26.022   9.278  11.426
60607W        W28948  30.992  27.120   3.258
60608W        W28949  26.122  16.130  10.558
60609W        W28950  44.916  17.661  13.535
60610W        W28951  43.994  11.833  13.916
60611W        W28952  20.034  23.707   4.612
60612W        W28953  18.051  25.695  14.509
60613W        W28954   8.395   3.832  12.406
60614W        W28955   1.883   2.768  12.517
60615W        W28956  13.771  18.651  13.040
60616W        W28957  38.387   4.929   3.323
60617W        W28958  37.085  41.508   4.704
60618W        W28959  32.546  25.197   4.632
60619W        W28960  14.143  44.825  11.041
60620W        W28961   1.758  18.600   1.361
60621W        W28962  10.229   8.162   4.307
60622W        W28963  34.029  14.224   2.746
60623W        W28964  24.717   7.364   4.689
60624W        W28965  14.203   3.294  13.819
60625W        W28966   7.702  40.016   0.321
60626W        W28967   8.817  41.415  11.468
60627W        W28968  32.582  41.936  12.865
60628W        W28969  38.408   3.874  12.365
60629W        W28970  19.545   5.916   4.752
60630W        W28971  33.382  18.627   4.184
60631W        W28972  12.359  37.432   3.706
60632W        W28973  30.598  35.453  12.466
60633W        W28974   5.721   4.448   3.153
60634W        W28975  38.068   7.266  12.393
60635W        W28976  14.102  29.613  11.064
60636W        W28977  14.149  31.955  14.296
60637W        W28978  17.802  29.980   3.729
60638W        W28979   5.264  44.316   1.438
60639W        W28980  12.254  23.647  13.870
60640W        W28981   0.365  29.648   1.396
60641W        W28982  23.209  30.053  14.438
60642W        W28983   1.788  39.453   0.432
60643W        W28984  28.028   2.961  14.938
60644W        W28985   5.773  44.435   1.768
60645W        W28986  26.659   1.777   9.933
60646W        W28987  34.946  41.494  11.088
60647W        W28988  32.610  24.572   1.878
60648W        W28989  22.634  17.648  14.317
60649W        W28990  21.249   3.410   4.647
60650W        W28991  36.498  11.864  13.001
60651W        W28992  17.699  41.449   3.228
60652W        W28993  42.460  33.036   0.879
60653W        W28994   2.819  14.774   1.847
60654W        W28995   3.731  26.564  14.980
60655W        W28996  15.149  14.769  13.828
60656W        W28997  31.965  42.373  13.353
60657W        W28998  14.751  39.972   5.320
60658W        W28999   0.287   2.829   2.279
60659W        W29000  34.499  19.540  12.449
60660W        W29001  23.198  22.559  12.465
60661W        W29002   4.447  35.938  11.599
60662W        W29003  12.725  28.146  12.568
60663W        W29004  14.308  38.856  11.109
60664W        W29005   6.245  32.971   3.762
60665W        W29006  18.228  18.722   3.255
60666W        W29007  21.158   0.444   3.210
60667W        W29008   6.895  37.382  11.504
60668W        W29009   0.479  12.215   0.294
60669W        W29010  30.608  35.378  13.450
60670W        W29011  35.568  25.620   1.775
60671W        W29012  21.201   5.866  13.022
60672W        W29013   8.808   8.680   3.367
60673W        W29014   5.755   1.280   1.399
60674W        W29015  30.635  18.262   0.404
60675W        W29016  23.590  15.272   2.703
60676W        W29017  31.100  37.476   4.160
60677W        W29018   0.399  10.843   3.837
60678W        W29019  27.467  23.624   2.826
60679W        W29020  38.022  35.970   2.259
60680W        W29021  32.041  32.130  13.840
60681W        W29022  18.672  29.947  12.952
60682W        W29023  32.068   5.354   2.742
60683W        W29024  10.257  21.116   0.823
60684W        W29025  21.574  36.894  12.992
60685W        W29026  40.828  30.654   3.812
60686W        W29027  38.944  16.607   9.986
60687W        W29028  13.207  44.478  12.870
60688W        W29029  12.347  39.405   4.330
60689W        W29030   4.357   3.400  12.066
60690W        W29031  19.143   7.407  14.342
60691W        W29032  16.237  38.910   4.603
60692W        W29033  17.183   7.337  13.847
60693W        W29034  23.492   3.896   4.217
60694W        W29035   4.326  17.114   2.298
60695W        W29036  19.193   0.801   4.266
60696W        W29037  36.996   5.255   1.740
60697W        W29038  20.725  16.205  13.455
60698W        W29039  27.142  33.928   4.296
60699W        W29040  32.453  29.431  12.011
60700W        W29041   1.313  28.110   3.168
60701W        W29042  37.561  26.035   2.779
60702W        W29043  31.522  12.131  14.509
60703W        W29044  41.501  19.749  11.007
60704W        W29045   3.900   4.330  11.388
60705W        W29046  11.240   8.818   1.701
60706W        W29047  19.225  31.116   3.860
60707W        W29048  14.605  24.086   4.151
60708W        W29049  42.424  25.654   2.832
60709W        W29050  17.733   3.412  13.988
60710W        W29051  39.542  32.137  10.437
60711W        W29052  40.049  22.077  12.512
60712W        W29053  40.399  20.575   4.315
60713W        W29054  16.688  33.417  13.484
60714W        W29055   6.275  32.429  10.918
60715W        W29056  31.409  26.096   4.245
60716W        W29057  22.151  26.148   1.258
60717W        W29058  42.373  41.456   0.452
60718W        W29059  40.374  44.481   0.791
60719W        W29060  27.581  43.927  14.289
60720W        W29061  26.961  29.517  10.601
60721W        W29062   4.706  16.079  11.985
60722W        W29063  26.056  40.457  12.918
60723W        W29064  37.984  42.959   5.176
60724W        W29065  41.409  25.578  13.822
60725W        W29066  38.468  41.877  10.587
60726W        W29067  39.401  33.952  12.380
60727W        W29068   9.373   2.311   1.865
60728W        W29069   9.875  33.909  10.643
60729W        W29070   9.736  15.691   3.270
60730W        W29071  14.158  10.831   4.264
60731W        W29072  25.614  17.291  12.464
60732W        W29073  39.405  14.310  13.460
60733W        W29074  25.125  27.682  14.431
60734W        W29075  15.760   8.301   1.367
60735W        W29076  21.140   0.795   1.814
60736W        W29077  24.615  42.959  14.475
60737W        W29078  11.868  11.305  14.939
60738W        W29079  36.991  30.414   1.918
60739W        W29080  39.945  27.010  11.543
60740W        W29081   7.276  37.488  10.961
60741W        W29082  12.787  29.523  14.999
60742W        W29083  40.999  13.120  10.957
60743W        W29084  31.414  29.661   2.888
60744W        W29085  35.983  41.897  14.879
60745W        W29086  40.822  11.667   2.278
60746W        W29087  15.210  19.251  11.552
60747W        W29088  37.831  13.121   0.270
60748W        W29089   4.740  39.956  12.538
60749W        W29090   3.371  15.589  10.898
60750W        W29091   5.200   4.763   3.663
60751W        W29092  44.868  17.167  11.462
60752W        W29093  28.935  11.153   0.904
60753W        W29094   5.719  24.527  14.005
60754W        W29095  39.370  37.352  13.377
60755W        W29096  43.300  41.991   1.769
60756W        W29097   3.811  39.455  10.509
60757W        W29098   0.386  18.715   2.274
60758W        W29099  35.410  36.874   2.805
60759W        W29100  38.398   1.450   1.902
60760W        W29101  40.858  44.486  12.413
60761W        W29102   1.250   8.276   4.624
60762W        W29103  37.556  12.704  12.865
60763W        W29104  34.969  16.758   2.832
60764W        W29105  13.156  32.405  11.919
60765W        W29106  23.576  32.107   4.813
60766W        W29107  37.998  19.221   1.286
60767W        W29108  35.582  23.203  13.005
60768W        W29109  31.435  10.378  11.926
60769W        W29110  38.418  32.089   3.703
60770W        W29111  14.824  29.529  13.901
60771W        W29112   9.771   7.250   0.824
60772W        W29113  21.125  30.542  13.356
60773W        W29114  42.839  20.192  12.954
60774W        W29115  31.931  32.513  13.012
60775W        W29116  41.341  29.959   3.820
60776W        W29117  37.472  25.049   2.680
60777W        W29118  22.695  11.370  14.507
60778W        W29119  30.038  10.141   1.382
60779W        W29120  24.701  35.010   0.269
60780W        W29121  10.354  15.657   2.308
60781W        W29122  41.524   7.910   5.209
60782W        W29123  34.387  14.617  11.560
60783W        W29124  38.862  16.268  10.509
60784W        W29125   4.699  10.385  12.430
60785W        W29126  37.347  11.820   4.835
60786W        W29127   7.192  24.541  13.453
60787W        W29128  20.568   8.739   4.626
60788W        W29129   6.702  36.391  11.552
60789W        W29130  38.044  37.939   3.377
60790W        W29131  42.440  23.086   1.282
60791W        W29132  36.464  37.888   0.406
60792W        W29133  23.549   5.865   0.381
60793W        W29134  28.067  35.576  10.466
60794W        W29135  40.913  10.632   2.374
60795W        W29136  44.358  41.519   1.719
60796W        W29137  11.847  19.279  13.889
60797W        W29138   4.362  14.827   3.186
60798W        W29139  28.530  24.725  12.504
60799W        W29140  18.133  34.546   4.261
60800W        W29141  26.466   4.282   1.319
60801W        W29142  44.800  10.228   4.769
60802W        W29143  16.207  39.862   2.305
60803W        W29144   8.713  30.035  10.494
60804W        W29145   4.797  18.583  13.934
60805W        W29146  29.445  31.523  11.936
60806W        W29147   7.179  37.837   0.413
60807W        W29148  18.660  23.145  10.001
60808W        W29149  32.540   4.250   4.701
60809W        W29150  17.133  31.007  14.340
60810W        W29151  42.351  25.108  12.040
60811W        W29152   4.807  11.630  11.502
60812W        W29153  38.557  40.401  13.010
60813W        W29154  16.176  42.922   0.366
60814W        W29155   4.732  21.037   1.788
60815W        W29156   9.682  40.511   4.737
60816W        W29157  40.031  18.075  13.333
60817W        W29158   5.694  12.833  11.531
60818W        W29159  18.143  20.651   3.264
60819W        W29160  38.532  39.538  14.487
60820W        W29161  13.735  27.042   3.857
60821W        W29162  39.921   6.709   0.757
60822W        W29163  17.124   8.216   1.417
60823W        W29164  15.581  31.575  11.024
60824W        W29165  32.007  32.607   2.311
60825W        W29166  15.136   7.696  11.876
60826W        W29167  36.939   4.825  10.594
60827W        W29168   6.298  33.003   1.374
60828W        W29169  30.476  42.503  12.875
60829W        W29170   0.817   7.322   5.161
60830W        W29171  38.864  31.483   1.438
60831W        W29172  41.375  38.010  14.370
60832W        W29173  26.561   1.249   4.649
60833W        W29174  36.490  14.702  14.959
60834W        W29175  30.577  38.918  12.931
60835W        W29176  23.017  29.472   0.950
60836W        W29177  13.285  36.398  11.122
60837W        W29178  42.807  15.601   4.680
60838W        W29179  34.488  41.792   1.414
60839W        W29180   0.368  35.017   1.214
60840W        W29181  38.026  24.193  12.388
60841W        W29182   1.384  35.967   4.219
60842W        W29183  41.936  41.431   4.812
60843W        W29184  37.489  42.426   0.917
60844W        W29185  41.835  24.992   5.230
60845W        W29186  10.652  19.176   4.319
60846W        W29187  32.479  29.978   0.842
60847W        W29188  12.333  18.270  11.547
60848W        W29189  31.061  34.435   1.750
60849W        W29190  30.102  19.706  13.480
60850W        W29191  30.422  41.341   5.106
60851W        W29192  23.698  18.785   1.331
60852W        W29193  32.520  18.757   3.314
60853W        W29194  36.090  19.147  10.994
60854W        W29195  14.812  43.010   0.826
60855W        W29196  14.653  24.138   3.732
60856W        W29197  44.498  44.949  10.960
60857W        W29198  31.074  42.991   4.673
60858W        W29199   2.385   4.903   1.331
60859W        W29200  15.634  31.483   4.697
60860W        W29201  34.499  11.267  11.587
60861W        W29202  27.595  10.259  14.444
60862W        W29203  24.652  12.763   0.306
60863W        W29204  19.127  25.615   2.274
60864W        W29205  34.997  30.043  10.917
60865W        W29206   9.349  36.457  12.008
60866W        W29207   6.850  10.350  14.352
60867W        W29208   0.922   6.262   1.725
60868W        W29209  34.480   1.406  11.927
60869W        W29210  37.542   6.860   0.760
60870W        W29211  37.852   7.333   0.463
60871W        W29212  30.075  20.212  13.438
60872W        W29213  24.672  35.569  11.599
60873W        W29214  42.825  13.112  13.806
60874W        W29215  30.501  18.737  12.379
60875W        W29216  18.714  41.934  11.987
60876W        W29217  36.462  19.095   3.778
60877W        W29218  44.998  26.978   1.885
60878W        W29219   6.745  19.634   2.302
60879W        W29220  23.086   1.855   0.879
60880W        W29221  16.076  28.662   0.363
60881W        W29222   6.713  41.301  12.096
60882W        W29223   4.305  40.912   0.913
60883W        W29224  35.091  22.161   3.641
60884W        W29225  22.727  20.728   3.262
60885W        W29226   1.331  35.589   1.445
60886W        W29227  32.441  20.665  13.491
60887W        W29228   1.953  28.098  11.113
60888W        W29229  35.421  28.578  11.909
60889W        W29230  32.613  17.759   4.664
60890W        W29231  18.781  11.853   3.711
60891W        W29232  32.112   9.395   0.402
60892W        W29233   1.735  37.839   2.727
60893W        W29234   1.293  20.694   0.393
60894W        W29235  17.091  12.178  10.627
60895W        W29236  20.587   1.404  14.391
60896W        W29237  28.536  20.044   4.340
60897W        W29238  18.292  31.976  11.895
60898W        W29239  26.074  16.233  13.029
60899W        W29240  28.181   5.302  12.364
60900W        W29241  26.077  10.160   2.253
60901W        W29242   2.728  37.855   3.673
60902W        W29243  44.896  27.463   1.227
60903W        W29244   0.263  13.814  14.330
60904W        W29245   0.769  41.998  14.878
60905W        W29246  24.566   8.736  12.387
60906W        W29247  31.513  13.150   1.282
60907W        W29248  13.834  33.520   2.360
60908W        W29249   5.362   8.291   1.726
60909W        W29250  29.136   1.898  14.277
60910W        W29251  10.677  39.558  13.795
60911W        W29252  31.146  44.843   3.148
60912W        W29253  44.306  19.222  10.008
60913W        W29254   4.830  44.965   4.678
60914W        W29255  28.965  20.711   0.257
60915W        W29256  42.997  38.034  12.362
60916W        W29257  42.959  10.257  11.885
60917W        W29258  44.412  11.305  13.053
60918W        W29259  42.442  30.558   4.298
60919W        W29260  43.914  44.356   0.411
60920W        W29261  10.370  40.798  12.506
60921W        W29262  15.160  36.020  14.999
60922W        W29263  11.639  12.806   5.159
60923W        W29264  13.249  12.645  11.444
60924W        W29265  36.916  31.035   2.276
60925W        W29266   1.470  25.185   1.842
60926W        W29267  33.473  43.488   3.650
60927W        W29268   1.748  32.977  11.914
60928W        W29269  13.613  11.638   1.307
60929W        W29270  22.006  41.984  11.875
60930W        W29271   5.378  28.494  14.431
60931W        W29272  33.109  43.910  11.855
60932W        W29273  30.156  24.707  13.037
60933W        W29274  24.491  37.929   4.715
60934W        W29275   1.242  23.194  12.496
60935W        W29276   5.202   0.979  13.863
60936W        W29277  28.974  30.530  14.359
60937W        W29278  17.791  19.737   3.793
60938W        W29279  20.109  20.576   3.384
60939W        W29280   9.347  26.142   3.774
60940W        W29281   6.213  15.148   0.928
60941W        W29282   8.682  37.345  14.275
60942W        W29283  38.529  12.211  14.770
60943W        W29284   5.832  37.990  12.481
60944W        W29285   1.792   0.372  14.909
60945W        W29286  40.031  21.653  14.470
60946W        W29287   9.674  31.495  13.534
60947W        W29288  31.475  17.255  10.893
60948W        W29289   3.445  33.036   0.928
60949W        W29290  29.595  29.425   0.956
60950W        W29291  19.052  30.040  13.489
60951W        W29292   5.764  30.492  12.888
60952W        W29293  43.011  44.794  10.526
60953W        W29294   1.446  42.778  14.765
60954W        W29295  37.900  13.627  13.484
60955W        W29296  22.717  13.268  10.404
60956W        W29297  34.043   6.812   0.843
60957W        W29298   4.235   4.815   3.283
60958W        W29299  17.689  24.568   9.940
60959W        W29300  10.313  41.841   4.768
60960W        W29301   2.735   6.212   0.390
60961W        W29302   1.350  23.009   2.777
60962W        W29303   9.360  21.633   1.924
60963W        W29304  13.152   8.275  11.089
60964W        W29305  28.121   5.420  11.574
60965W        W29306  36.008  25.106  13.020
60966W        W29307   4.845  23.234  13.952
60967W        W29308  38.554  43.828   3.243
60968W        W29309  31.515   1.782   2.854
60969W        W29310   0.758   6.689   4.144
60970W        W29311  43.953  30.471  14.448
60971W        W29312   3.416  14.263   9.970
60972W        W29313  13.230  38.951  13.475
60973W        W29314  10.332   8.780   3.231
60974W        W29315   4.215  33.959   4.314
60975W        W29316  17.133  13.781  10.447
60976W        W29317  24.684  22.208  11.919
60977W        W29318  12.172   7.909   1.791
60978W        W29319   9.345   4.934  13.498
60979W        W29320   7.902   4.418  14.997
60980W        W29321  23.226  20.128   0.767
60981W        W29322  22.031   0.826   1.237
60982W        W29323  31.136  17.771   1.923
60983W        W29324  43.445   2.812  13.963
60984W        W29325  44.335   1.814  11.874
60985W        W29326   4.808  23.154  12.887
60986W        W29327  39.872  42.314   1.429
60987W        W29328  34.112   5.378  14.861
60988W        W29329  37.016  10.674  14.771
60989W        W29330  29.445  28.955   4.679
60990W        W29331  14.238  44.429  11.609
60991W        W29332  42.867   9.770   2.350
60992W        W29333  33.531  11.216  14.373
60993W        W29334   7.889  31.102   4.678
60994W        W29335   4.843  39.942   1.699
60995W        W29336  30.965  12.118   4.822
60996W        W29337   8.851  23.690   4.280
60997W        W29338  11.284  40.029   0.777
60998W        W29339   4.794  34.592   3.678
60999W        W29340  11.751  22.572   2.847
61000W        W29341  43.863  44.767   2.305
61001W        W29342  30.581  16.725   3.309
61002W        W29343  27.576   9.245   2.883
61003W        W29344  33.608   0.987   3.636
61004W        W29345   1.320  10.721   0.750
61005W        W29346  42.377  34.888  13.848
61006W        W29347  24.601  43.296  10.937
61007W        W29348  42.882  10.381   4.827
61008W        W29349  18.261   9.882   3.219
61009W        W29350  35.518  25.583   4.238
61010W        W29351   2.812  26.571  11.947
61011W        W29352  10.857  22.626  11.377
61012W        W29353  44.361  27.473  13.494
61013W        W29354  34.592  16.187   1.380
61014W        W29355  29.099   4.728  12.873
61015W        W29356  38.360   6.714   0.481
61016W        W29357   2.796  28.133  14.026
61017W        W29358   9.889  44.859   2.257
61018W        W29359   1.355   3.819  14.838
61019W        W29360  22.635  35.880  10.531
61020W        W29361  21.134  26.471   1.903
61021W        W29362  21.069  28.048   4.670
61022W        W29363   8.365   1.920   1.416
61023W        W29364  15.247  17.752  11.057
61024W        W29365  27.111   9.858  12.562
61025W        W29366  17.085  35.399  14.369
61026W        W29367  35.555   8.682  14.961
61027W        W29368  41.956  15.611   2.274
61028W        W29369  10.835  35.375  14.807
61029W        W29370  27.116  43.437   1.393
61030W        W29371   3.248   1.873   2.843
61031W        W29372  18.116  25.558   1.771
61032W        W29373  25.580  22.730  13.372
61033W        W29374  32.978  26.658   0.415
61034W        W29375   4.871  19.097  10.434
61035W        W29376  24.652  11.831  11.504
61036W        W29377   4.207  27.032  10.464
61037W        W29378  14.165  36.000  14.404
61038W        W29379  42.918  18.288   2.393
61039W        W29380  15.152   1.886   3.378
61040W        W29381   6.276   7.755   4.128
61041W        W29382  42.995  39.517   1.897
61042W        W29383   3.364  25.007  11.398
61043W        W29384  13.826  44.938  14.434
61044W        W29385  16.571  21.067  11.914
61045W        W29386  26.566  34.597  14.288
61046W        W29387   8.833  39.063  13.972
61047W        W29388  29.032  25.141   2.701
61048W        W29389   4.318  22.729   3.760
61049W        W29390  11.162  43.344   0.823
61050W        W29391  21.645  32.437  12.076
61051W        W29392   6.261  11.649  10.000
61052W        W29393  37.946  13.738   0.951
61053W        W29394  21.526  24.607   1.323
61054W        W29395  30.047  28.678   4.260
61055W        W29396  10.719   6.738  12.868
61056W        W29397  28.947  43.336   1.768
61057W        W29398   6.884   8.301   3.297
61058W        W29399  35.531  32.977   3.368
61059W        W29400  24.591  33.579  13.458
61060W        W29401  42.928  13.700   2.296
61061W        W29402   1.950  14.245   1.255
61062W        W29403  31.896  35.957  13.419
61063W        W29404  25.581  19.151   5.182
61064W        W29405  25.676   6.289  10.534
61065W        W29406  11.254  27.572  11.970
61066W        W29407   0.918  39.844  14.390
61067W        W29408   5.714  11.736   2.225
61068W        W29409  38.461  10.256  10.616
61069W        W29410  27.051  44.953  12.040
61070W        W29411  33.018  35.530  13.532
61071W        W29412   7.174  42.478  12.361
61072W        W29413   8.879  39.426   4.775
61073W        W29414  29.444   6.410   4.324
61074W        W29415  33.965  32.493  11.985
61075W        W29416   7.795   2.306  11.025
61076W        W29417  39.829   0.450  11.387
61077W        W29418  32.945  26.196  14.803
61078W        W29419   3.405   4.745   2.721
61079W        W29420  36.533   5.712   0.897
61080W        W29421   6.733  43.999   0.889
61081W        W29422  44.999  21.078  10.569
61082W        W29423  42.365   4.335  14.932
61083W        W29424  39.836  38.873   0.461
61084W        W29425  35.074   3.746  14.326
61085W        W29426  34.497  25.102  12.509
61086W        W29427  19.232  37.433   4.682
61087W        W29428  32.131  33.932   3.842
61088W        W29429  20.750   8.717   4.207
61089W        W29430   2.837  44.892  12.349
61090W        W29431   6.256  11.238  11.086
61091W        W29432   2.811  25.682  14.768
61092W        W29433  40.359   4.297  11.053
61093W        W29434  23.609  29.117  11.980
61094W        W29435  17.221  23.998   5.587
61095W        W29436   8.779  32.927  14.365
61096W        W29437  14.809   4.415   4.176
61097W        W29438  41.980  40.441  12.997
61098W        W29439  31.584  38.028   4.786
61099W        W29440  22.153   3.251   4.200
61100W        W29441  24.105   7.297   2.866
61101W        W29442  26.639  13.605   4.178
61102W        W29443  42.911  40.334  12.519
61103W        W29444  20.719   6.417   4.669
61104W        W29445  35.862  24.216  12.883
61105W        W29446  39.431  36.432  12.339
61106W        W29447  12.848  10.773  11.446
61107W        W29448  30.114  41.814  10.960
61108W        W29449  22.196  39.064   2.869
61109W        W29450  26.206  10.714  12.877
61110W        W29451  22.168  26.060  13.312
61111W        W29452  16.667  38.410  10.943
61112W        W29453  39.051  27.984   3.776
61113W        W29454   3.439  43.502   4.176
61114W        W29455  37.870  15.809  14.804
61115W        W29456  12.696  20.636   3.301
61116W        W29457  43.442  41.496  10.407
61117W        W29458  44.936  26.457  11.010
61118W        W29459  36.888  36.356  14.895
61119W        W29460  14.689   6.215  11.597
61120W        W29461  16.259  12.278  10.477
61121W        W29462   5.238  20.111   3.821
61122W        W29463  12.725   9.348  12.481
61123W        W29464  11.720   1.261  14.275
61124W        W29465  22.730  27.645  10.536
61125W        W29466  38.062  22.240  14.905
61126W        W29467   2.426   3.372  12.014
61127W        W29468   2.846  15.746   0.963
61128W        W29469   4.251  30.606   0.406
61129W        W29470  10.367  10.864  11.889
61130W        W29471  16.175  30.478  10.418
61131W        W29472  39.998  25.496  13.056
61132W        W29473  40.974   4.310  11.995
61133W        W29474  42.383   7.296   0.966
61134W        W29475  18.237   7.748  10.571
61135W        W29476   7.667  32.951  13.526
61136W        W29477   3.721  24.133  11.021
61137W        W29478  12.804  40.496  13.809
61138W        W29479   2.822  26.094   0.827
61139W        W29480  28.673  18.156   0.772
61140W        W29481  15.719  13.721  13.422
61141W        W29482  31.968  27.185  11.856
61142W        W29483  38.421  18.724  11.943
61143W        W29484  40.807  35.979  13.308
61144W        W29485  40.366  26.964   1.356
61145W        W29486  43.285  36.523  12.456
61146W        W29487  35.400   1.454  14.907
61147W        W29488  30.636  20.526   1.786
61148W        W29489  25.599   9.769   4.728
61149W        W29490  43.840  22.184   4.835
61150W        W29491  41.965  24.197  10.633
61151W        W29492   5.860  26.155   2.689
61152W        W29493   9.291  15.619   0.405
61153W        W29494   9.766  20.151   2.716
61154W        W29495  40.891   5.431   2.688
61155W        W29496  25.618  23.016   3.171
61156W        W29497  38.345  30.467  12.425
61157W        W29498  16.279  38.429   1.348
61158W        W29499  41.351   7.406  14.013
61159W        W29500   0.493  11.266  12.393
61160W        W29501  16.694  34.401  14.023
61161W        W29502  44.002  40.002   4.341
61162W        W29503  35.904  30.606   4.716
61163W        W29504  36.518  25.658  14.338
61164W        W29505  13.304  17.594   0.450
61165W        W29506  36.004  32.492   4.311
61166W        W29507  39.470  19.773   3.209
61167W        W29508  39.985   4.205   3.843
61168W        W29509   7.226  42.029   1.805
61169W        W29510   1.298  24.691   0.762
61170W        W29511  12.687  35.389  13.026
61171W        W29512  37.349  39.516   4.607
61172W        W29513  11.718  16.572   0.478
61173W        W29514  35.920   7.791   0.933
61174W        W29515   6.379  15.160   2.824
61175W        W29516  13.622  37.418   4.740
61176W        W29517  33.547  41.338  13.026
61177W        W29518  28.935  21.221  12.931
61178W        W29519  43.879  27.548  14.834
61179W        W29520  20.159  25.554  13.852
61180W        W29521  43.802  36.957  14.974
61181W        W29522  28.660   9.880  11.385
61182W        W29523  17.080  32.507   4.282
61183W        W29524  33.013  13.244  11.010
61184W        W29525  41.381   3.847   1.753
61185W        W29526   2.273  43.314  11.435
61186W        W29527  38.511  15.224   0.395
61187W        W29528  31.052  32.033   3.839
61188W        W29529  13.186  39.826   1.804
61189W        W29530  11.750  30.452  10.125
61190W        W29531  28.932  33.022  11.955
61191W        W29532  24.615   1.869  14.783
61192W        W29533  11.841  17.585   1.231
61193W        W29534  11.815  40.307   3.829
61194W        W29535   4.856  44.390  10.478
61195W        W29536  22.522   8.771   1.378
61196W        W29537  12.820  10.314  12.023
61197W        W29538  19.731  15.778   1.247
61198W        W29539  32.993  34.032  12.931
61199W        W29540  16.648  26.163   1.704
61200W        W29541  14.115  42.953  11.006
61201W        W29542  11.822  16.808  12.085
61202W        W29543  41.442  32.598   0.886
61203W        W29544  33.521  24.488   0.449
61204W        W29545   1.310   2.794   1.382
61205W        W29546  16.241  44.817  12.064
61206W        W29547  20.236  43.768  14.873
61207W        W29548  21.156  13.199   4.763
61208W        W29549  13.785  22.202  11.006
61209W        W29550  19.126  17.714  10.442
61210W        W29551  31.430   0.826  10.575
61211W        W29552  19.589  39.809  13.508
61212W        W29553  28.097   9.661   3.820
61213W        W29554   2.277  44.294   1.334
61214W        W29555   9.239  27.516   4.199
61215W        W29556  25.036  24.657   1.426
61216W        W29557  19.692  35.897   2.329
61217W        W29558  39.882  30.450   3.383
61218W        W29559  22.504  42.935   4.316
61219W        W29560  36.067  41.357   1.913
61220W        W29561  27.024  34.409  14.839
61221W        W29562   2.924  43.834   2.734
61222W        W29563  17.161  35.062  12.545
61223W        W29564  17.080  19.273  13.484
61224W        W29565  38.427  41.419   4.684
61225W        W29566   0.299   9.275   2.198
61226W        W29567   2.817  37.478   3.684
61227W        W29568  13.836  30.037  13.960
61228W        W29569  44.309  32.106  10.482
61229W        W29570  35.525  41.378  11.113
61230W        W29571   5.813  41.418  14.492
61231W        W29572  20.192  13.139  12.518
61232W        W29573  15.649  12.776  13.367
61233W        W29574  23.516  38.845   3.347
61234W        W29575  14.188  30.149   0.290
61235W        W29576   7.261  24.007   2.848
61236W        W29577  20.541  34.510   1.309
61237W        W29578  18.766  29.578  14.908
61238W        W29579  28.467   5.436  14.760
61239W        W29580  24.543  29.958   1.235
61240W        W29581  40.320   4.240   1.356
61241W        W29582  18.113   8.738  11.498
61242W        W29583   2.252  25.603  12.345
61243W        W29584   5.210  27.677  13.018
61244W        W29585  24.137  31.944  14.413
61245W        W29586  19.182  16.716  14.483
61246W        W29587  41.316  21.144   2.712
61247W        W29588  38.877   1.833   0.262
61248W        W29589  43.397  33.607  13.314
61249W        W29590  29.002  26.130   1.314
61250W        W29591  39.911  42.825   0.908
61251W        W29592   8.855  18.679   0.481
61252W        W29593   6.329  12.784   2.765
61253W        W29594  33.571  37.889  12.908
61254W        W29595  20.661  44.490  11.549
61255W        W29596   1.380   0.910  12.532
61256W        W29597  28.145  38.074  14.921
61257W        W29598  12.163  37.940   4.194
61258W        W29599   1.898  43.971   4.777
61259W        W29600  17.717  14.108  13.012
61260W        W29601   0.417  38.885   2.843
61261W        W29602   3.737  44.283  11.955
61262W        W29603  12.828  21.161   4.262
61263W        W29604  25.580  23.092  14.852
61264W        W29605   7.690  29.966   2.400
61265W        W29606  18.647  25.567   0.418
61266W        W29607  38.390  25.475  14.428
61267W        W29608  34.990   6.217   3.333
61268W        W29609  22.647  12.670  12.990
61269W        W29610   8.771   9.380   3.845
61270W        W29611  26.670  28.035   4.709
61271W        W29612  20.657  39.907  13.872
61272W        W29613  20.525  29.928  14.504
61273W        W29614   4.916  22.504   4.183
61274W        W29615  24.586  22.145   0.898
61275W        W29616  26.077  42.951  10.433
61276W        W29617  31.591  19.168   1.852
61277W        W29618  43.993  13.781   1.416
61278W        W29619  22.574  40.877  14.462
61279W        W29620  39.040  17.658  11.868
61280W        W29621  26.061  16.196  11.041
61281W        W29622  40.909   7.238   0.291
61282W        W29623  33.555  28.003   0.430
61283W        W29624  30.155  32.603  12.029
61284W        W29625   1.353  44.788   1.429
61285W        W29626  39.466  30.508   4.294
61286W        W29627  33.032  26.003  10.463
61287W        W29628  44.924   3.829  10.529
61288W        W29629   1.291  16.309   3.651
61289W        W29630   5.911  10.771  11.380
61290W        W29631   3.409  11.806  11.522
61291W        W29632  24.636  29.651   4.734
61292W        W29633  31.950  25.055  12.871
61293W        W29634  22.145  40.517  12.985
61294W        W29635  21.047  15.717  11.465
61295W        W29636   3.941  13.201   4.213
61296W        W29637  14.721  44.308  11.864
61297W        W29638  22.668  36.477  11.509
61298W        W29639  18.674  24.999   1.451
61299W        W29640   8.703  13.792   0.336
61300W        W29641   6.331  43.965  13.399
61301W        W29642  11.713  44.860  14.480
61302W        W29643  17.090  12.794   4.223
61303W        W29644  18.653  25.619   1.450
61304W        W29645  27.586  33.919   2.895
61305W        W29646   9.686  23.034  12.486
61306W        W29647   9.183  15.316  14.780
61307W        W29648   1.886  14.785  13.438
61308W        W29649  24.697  37.843  13.797
61309W        W29650   6.382  15.100   1.432
61310W        W29651  41.440  36.520   5.278
61311W        W29652   2.332   9.346   3.683
61312W        W29653  32.404  14.260  10.479
61313W        W29654   2.397  42.354  14.457
61314W        W29655  27.021  31.908  14.856
61315W        W29656  40.885   5.826   2.288
61316W        W29657   4.383  26.536   0.733
61317W        W29658  35.594  14.176   4.615
61318W        W29659  15.785   9.651   1.400
61319W        W29660  11.341  17.244   1.862
61320W        W29661  19.776  23.078   4.827
61321W        W29662  42.319  37.080   4.145
61322W        W29663  34.116  33.380   4.784
61323W        W29664  44.915  33.567   9.987
61324W        W29665  22.217  14.599   0.764
61325W        W29666  33.594   2.886   4.798
61326W        W29667  28.476  35.531  10.545
61327W        W29668   6.269  10.354   3.638
61328W        W29669  36.416  12.802  13.868
61329W        W29670  22.619  38.912   3.759
61330W        W29671  13.625  33.408   1.855
61331W        W29672  21.522  21.654   4.686
61332W        W29673   8.383  29.432   1.371
61333W        W29674  19.615  31.147   2.237
61334W        W29675  36.587  12.684  13.333
61335W        W29676  15.813  36.964  14.480
61336W        W29677  38.027   2.917  14.514
61337W        W29678  44.776  11.266  13.352
61338W        W29679  10.713  16.270   1.701
61339W        W29680  21.596  26.024   4.219
61340W        W29681  25.983  20.233  14.819
61341W        W29682  19.541  10.298   4.281
61342W        W29683  21.161  13.747  11.109
61343W        W29684   8.841  15.750  14.487
61344W        W29685  37.082  12.157  10.414
61345W        W29686  13.233  30.415   4.723
61346W        W29687  11.805  18.657  10.513
61347W        W29688   2.856   0.350   1.736
61348W        W29689  10.752  14.165  14.900
61349W        W29690  15.100  10.236  12.434
61350W        W29691  30.941   1.757   0.468
61351W        W29692  18.679  35.436  12.988
61352W        W29693  37.987  40.958   3.351
61353W        W29694   6.336  26.135   4.618
61354W        W29695  27.682  18.754  11.574
61355W        W29696  37.459   0.408  13.421
61356W        W29697  26.511  25.151   0.923
61357W        W29698  39.897   1.935  11.555
61358W        W29699  10.825  17.127  12.946
61359W        W29700  27.006   7.780   0.416
61360W        W29701  22.651   0.288   2.881
61361W        W29702  31.574  14.620  10.540
61362W        W29703   6.221   1.466  12.479
61363W        W29704  23.051  10.154   3.669
61364W        W29705  12.288   1.884  14.460
61365W        W29706  44.388  10.220   5.249
61366W        W29707  33.933  14.185  12.087
61367W        W29708   1.337   2.855  11.875
61368W        W29709  23.615  36.906  11.422
61369W        W29710  16.802  23.228   3.735
61370W        W29711  11.808   8.877   5.298
61371W        W29712  23.674  23.081  11.062
61372W        W29713   4.820  16.750  14.412
61373W        W29714  29.636  27.447   0.936
61374W        W29715  16.160  28.451  14.018
61375W        W29716  28.538   3.226  12.514
61376W        W29717   1.923  34.937   1.800
61377W        W29718  37.879   2.261  13.496
61378W        W29719   7.305  20.629  10.571
61379W        W29720  37.892  34.871  13.396
61380W        W29721  40.880   0.874   4.131
61381W        W29722  31.579  17.576  12.894
61382W        W29723   0.849  20.701  13.038
61383W        W29724  32.552  17.618   3.368
61384W        W29725  32.080  30.142  14.863
61385W        W29726  37.519  33.417  10.625
61386W        W29727   4.371  15.763  12.522
61387W        W29728  29.090  40.405   3.280
61388W        W29729  33.496  32.447  10.447
61389W        W29730  39.006  17.230   1.244
61390W        W29731  36.368  34.483  13.526
61391W        W29732   1.403  12.823  13.480
61392W        W29733  30.125   4.712  12.960
61393W        W29734  39.345  20.712  13.531
61394W        W29735   8.761   5.194  14.842
61395W        W29736  38.001  40.924  11.999
61396W        W29737  40.395  17.088  13.408
61397W        W29738   2.431  43.903   3.348
61398W        W29739  37.447   8.237   0.297
61399W        W29740  17.228  38.487  11.022
61400W        W29741  40.869  29.670   2.178
61401W        W29742  34.591  42.512   0.776
61402W        W29743   5.311   8.744   1.216
61403W        W29744  22.535  33.012  14.425
61404W        W29745  30.915   2.448   4.345
61405W        W29746  13.184  24.041  14.905
61406W        W29747  36.047  20.685   3.648
61407W        W29748  30.132  11.258  14.429
61408W        W29749   3.842   8.343   1.841
61409W        W29750  40.869  33.445  11.884
61410W        W29751   8.266  33.909   1.411
61411W        W29752  34.916  18.126   3.316
61412W        W29753  12.240  27.169   0.863
61413W        W29754  21.614  22.184   2.837
61414W        W29755  27.951  34.408   1.438
61415W        W29756  11.675  27.192   3.242
61416W        W29757  14.194  37.400   5.178
61417W        W29758  17.159  37.360   1.922
61418W        W29759  34.895   3.451  12.563
61419W        W29760  14.327  10.358  11.901
61420W        W29761  27.481  36.452  11.003
61421W        W29762  37.401  33.897  13.888
61422W        W29763  36.504  29.470   2.402
61423W        W29764  20.219  28.535   3.857
61424W        W29765  39.426   9.210   1.256
61425W        W29766   1.265  38.019  12.403
61426W        W29767   0.809  15.196  12.928
61427W        W29768   2.901  16.173  14.304
61428W        W29769  38.914  42.373  11.918
61429W        W29770   2.347  18.267  11.979
61430W        W29771  25.700   7.776   1.400
61431W        W29772   5.699  12.211   3.815
61432W        W29773  31.518  32.504  14.929
61433W        W29774  12.680  36.095  13.327
61434W        W29775  10.157  44.891   1.236
61435W        W29776  13.319   2.392   1.742
61436W        W29777  17.244   7.815   4.647
61437W        W29778  13.161  34.121   1.383
61438W        W29779  17.723  23.008  11.873
61439W        W29780   6.857  22.690  10.508
61440W        W29781  33.477   0.448   3.704
61441W        W29782   3.305  23.986  13.864
61442W        W29783  27.541  17.686  10.990
61443W        W29784  33.945  18.771   4.136
61444W        W29785  16.729  35.963   4.692
61445W        W29786  38.033  11.636  11.392
61446W        W29787  17.612  30.500  11.034
61447W        W29788  22.094   1.912   1.315
61448W        W29789   1.275   8.804   4.766
61449W        W29790   5.901  10.368   4.214
61450W        W29791   8.801   5.193  14.504
61451W        W29792  17.609  32.105  14.330
61452W        W29793   3.246  11.642  13.365
61453W        W29794  33.447   2.323  10.534
61454W        W29795   0.408  12.213   3.237
61455W        W29796   3.812  13.216  14.879
61456W        W29797  16.174   5.229   1.875
61457W        W29798  31.056   9.866  13.869
61458W        W29799  13.699  15.133   1.852
61459W        W29800   3.277  31.419   3.221
61460W        W29801  33.618  35.043   1.886
61461W        W29802  41.349  32.052   2.748
61462W        W29803  33.464  21.224   3.787
61463W        W29804  29.650  39.546  11.385
61464W        W29805  36.892   3.889   3.291
61465W        W29806  19.596  13.785   4.218
61466W        W29807   1.424   6.221  14.874
61467W        W29808  36.096  37.419  12.876
61468W        W29809  21.046  36.086  14.451
61469W        W29810  24.171  24.131   3.198
61470W        W29811  17.205  26.660  14.861
61471W        W29812  23.605   0.918   1.924
61472W        W29813  11.151  23.629  14.346
61473W        W29814   4.930  41.463   4.782
61474W        W29815   6.788  27.491   2.852
61475W        W29816  37.039  26.060  11.578
61476W        W29817  13.345  12.823  10.023
61477W        W29818   5.281  31.999   4.643
61478W        W29819   7.867  12.651  12.522
61479W        W29820  14.159   2.924  11.460
61480W        W29821  33.964  42.292  11.043
61481W        W29822  14.775  25.623  11.920
61482W        W29823  21.163  25.117   4.755
61483W        W29824  36.849  38.938   3.768
61484W        W29825  31.477  31.994  10.969
61485W        W29826  16.646  33.927   4.708
61486W        W29827  30.097  14.222   1.794
61487W        W29828   0.376  34.572  13.473
61488W        W29829  32.917  37.950  14.488
61489W        W29830  11.300  26.994  13.405
61490W        W29831  35.540  25.619   3.203
61491W        W29832   5.743   0.486   3.189
61492W        W29833  35.073  14.733   1.773
61493W        W29834  31.955  43.920   0.832
61494W        W29835  28.573  16.744  11.123
61495W        W29836   6.710   9.882  14.395
61496W        W29837  15.678  24.228  10.580
61497W        W29838  32.062   2.816   3.281
61498W        W29839  41.020  41.825   2.791
61499W        W29840  33.479   2.251  14.790
61500W        W29841  30.929   6.916   4.771
61501W        W29842  37.985  28.675   0.484
61502W        W29843  44.296  16.716   3.763
61503W        W29844   1.958  44.327   2.864
61504W        W29845  28.987  35.573  10.895
61505W        W29846  43.909  16.157  13.453
61506W        W29847  10.277  17.188  11.010
61507W        W29848  14.589  37.066   2.727
61508W        W29849  29.994  44.817  13.332
61509W        W29850   1.874  38.561  11.015
61510W        W29851  43.309   5.886  11.091
61511W        W29852  26.687  33.624  13.336
61512W        W29853   6.247  42.792  13.313
61513W        W29854  37.061  23.203   0.857
61514W        W29855  21.076  12.240  11.464
61515W        W29856  37.398  14.689   1.932
61516W        W29857   7.904  28.060  13.503
61517W        W29858  44.855  40.008  13.433
61518W        W29859  20.769  17.139   4.269
61519W        W29860  28.074  11.638  14.787
61520W        W29861  34.912  24.510   4.684
61521W        W29862   3.730  16.739   9.615
61522W        W29863  41.789  33.460   1.785
61523W        W29864  44.949  18.069  12.041
61524W        W29865  43.898  41.921   2.284
61525W        W29866   7.668  29.597  14.291
61526W        W29867   4.814  38.972  14.856
61527W        W29868  23.652  23.102   4.186
61528W        W29869   9.684  42.472   4.197
61529W        W29870  25.530   2.721  14.420
61530W        W29871   0.937   3.913   1.907
61531W        W29872   1.364  18.767  14.313
61532W        W29873  13.837  44.280   2.713
61533W        W29874   8.867  10.321   1.218
61534W        W29875  43.001  39.961  12.420
61535W        W29876  19.593  14.751   3.704
61536W        W29877  22.711  18.616   1.873
61537W        W29878  29.582   6.362   9.957
61538W        W29879  40.938   9.298  11.965
61539W        W29880  26.693  11.275  10.074
61540W        W29881   5.268   0.787  10.043
61541W        W29882   3.224   5.226  12.050
61542W        W29883  26.960  21.105  14.000
61543W        W29884  38.474  23.527  13.535
61544W        W29885  35.965  41.329  10.625
61545W        W29886  42.425  32.983   3.751
61546W        W29887  10.667  35.417  10.951
61547W        W29888  33.064  34.035   3.381
61548W        W29889  18.257  13.329   4.286
61549W        W29890  42.810  33.584  10.952
61550W        W29891  31.930  24.506   1.792
61551W        W29892  10.852   5.766   2.879
61552W        W29893  29.020  25.978   4.704
61553W        W29894  44.854  39.481  13.003
61554W        W29895  34.441  39.844  12.501
61555W        W29896  38.909   1.393  12.396
61556W        W29897  18.733  18.082  14.357
61557W        W29898  40.008  23.496  10.478
61558W        W29899  42.029   8.338  12.997
61559W        W29900  41.332  21.053  12.884
61560W        W29901  33.443  38.018   4.599
61561W        W29902   3.924  41.973  13.388
61562W        W29903  30.026  11.811  10.441
61563W        W29904  33.917  21.200  14.791
61564W        W29905  19.733   0.758  11.449
61565W        W29906  26.157  14.637  10.907
61566W        W29907   4.229  37.006  13.310
61567W        W29908  35.048  39.997  13.831
61568W        W29909  22.658  42.919  13.336
61569W        W29910  26.504  26.004   1.871
61570W        W29911  15.628  20.204   0.733
61571W        W29912  31.520  35.975   0.444
61572W        W29913  13.180  37.492  10.622
61573W        W29914  35.962  10.385  13.925
61574W        W29915  19.578  32.965  13.858
61575W        W29916  12.828  32.020   0.372
61576W        W29917  27.513   3.333   4.115
61577W        W29918   9.821   0.788   4.644
61578W        W29919  38.861  16.304  13.808
61579W        W29920  13.150  13.286  13.805
61580W        W29921  43.801  12.623  11.442
61581W        W29922  11.162   5.258   1.875
61582W        W29923  21.523  41.486  11.504
61583W        W29924  31.952  20.163   1.821
61584W        W29925  13.717  31.022  12.876
61585W        W29926  24.594  37.573  11.039
61586W        W29927  39.853  31.044  13.485
61587W        W29928  31.012  11.721   4.308
61588W        W29929   0.863  31.454   0.868
61589W        W29930   5.320   1.924  13.522
61590W        W29931  42.402  13.823  12.432
61591W        W29932  25.654  26.039   0.408
61592W        W29933  21.122  18.554   3.814
61593W        W29934  10.673   9.275   2.323
61594W        W29935  40.943  24.088  13.027
61595W        W29936  11.174  25.698   2.308
61596W        W29937  30.521  34.997  11.016
61597W        W29938   3.419  15.130   0.438
61598W        W29939  42.979   5.708   2.848
61599W        W29940  41.470   2.411   4.621
61600W        W29941  42.416  23.154  14.903
61601W        W29942  23.054  44.818  12.925
61602W        W29943  34.940   3.818  13.882
61603W        W29944  33.977  14.658   0.407
61604W        W29945  33.971   5.344   4.266
61605W        W29946  37.934  26.673   1.250
61606W        W29947  19.095  19.770  12.359
61607W        W29948  35.053  14.698   0.360
61608W        W29949  31.544  24.558   3.354
61609W        W29950  36.361  10.241   4.621
61610W        W29951  21.599   3.892   4.686
61611W        W29952   6.250   1.959   4.206
61612W        W29953  43.437  40.878  14.914
61613W        W29954  44.448  39.041  10.071
61614W        W29955  11.306  41.822  11.582
61615W        W29956   4.707  34.992   4.276
61616W        W29957  43.409   9.766   4.718
61617W        W29958  19.159  43.985   1.744
61618W        W29959  44.265  24.621  11.866
61619W        W29960  37.433   8.341  12.423
61620W        W29961  17.668  13.713   3.739
61621W        W29962  30.433  37.432  14.491
61622W        W29963  40.515  25.682   4.290
61623W        W29964  14.782  34.547  10.528
61624W        W29965  21.676   8.725   4.786
61625W        W29966  38.455  25.475   3.818
61626W        W29967  42.952  18.121  13.322
61627W        W29968  11.310  15.707  11.054
61628W        W29969  40.441  37.877   4.598
61629W        W29970  18.057   5.790   4.252
61630W        W29971  16.265   7.177  12.574
61631W        W29972  41.386   5.909   1.231
61632W        W29973  10.724   5.406   4.180
61633W        W29974   7.360   0.300  12.343
61634W        W29975  28.109  24.620  13.357
61635W        W29976  42.509  33.495   0.314
61636W        W29977  32.624  40.876  13.505
61637W        W29978  19.616   9.365   0.267
61638W        W29979  38.945   0.894   2.355
61639W        W29980  18.614  21.677  13.981
61640W        W29981   1.810  28.187  13.857
61641W        W29982  36.985  12.341   1.715
61642W        W29983   1.237  40.527  10.480
61643W        W29984   9.644   1.782   0.741
61644W        W29985  19.601  43.298   4.170
61645W        W29986   8.826  21.604  13.992
61646W        W29987   7.774  33.604  11.399
61647W        W29988  42.312  16.657   4.678
61648W        W29989  13.773  27.998   2.300
61649W        W29990   5.367  35.405   0.816
61650W        W29991  44.356  12.745  10.108
61651W        W29992  38.828  41.299   2.392
61652W        W29993   7.866   0.337   3.357
61653W        W29994  42.851   5.860  10.030
61654W        W29995  42.964  22.188   2.687
61655W        W29996   4.292  36.494  12.525
61656W        W29997  16.798   5.421   3.310
61657W        W29998  11.289  15.648   2.684
61658W        W29999  16.192  41.954   4.198
61659W        W30000  44.803  12.191   3.786
61660W        W30001  27.643  40.308  14.979
61661W        W30002  28.116  27.647  10.924
61662W        W30003  21.752  12.739  10.974
61663W        W30004   9.336  25.550  10.466
61664W        W30005  14.096  30.646   1.402
61665W        W30006  20.142   1.880  10.038
61666W        W30007   7.187  18.098  12.859
61667W        W30008   8.715  11.786   3.776
61668W        W30009   0.391  21.221  10.453
61669W        W30010   5.217  29.175   1.223
61670W        W30011  16.219   5.753   0.331
61671W        W30012  20.631   2.784  11.120
61672W        W30013  38.492  17.604  11.523
61673W        W30014   0.764  34.886  11.987
61674W        W30015  21.076  37.386  14.940
61675W        W30016  38.442  41.460  11.864
61676W        W30017   4.239  25.148  10.557
61677W        W30018  13.719  10.732   0.339
61678W        W30019  23.114  44.373  14.884
61679W        W30020  26.614  13.326  10.441
61680W        W30021  33.609   4.303   0.795
61681W        W30022   2.883  16.646  12.023
61682W        W30023  16.133   4.848   0.906
61683W        W30024  13.313  39.817  14.373
61684W        W30025  30.130  12.240  12.844
61685W        W30026  43.924   5.873  11.437
61686W        W30027  43.384  12.231   4.266
61687W        W30028  14.741  10.178   2.900
61688W        W30029  42.974  37.469  12.869
61689W        W30030  36.872  17.259   2.828
61690W        W30031  40.513  11.170   4.633
61691W        W30032  18.258  28.977  14.930
61692W        W30033  12.693  29.024  11.997
61693W        W30034  16.675  20.184  14.923
61694W        W30035   2.358  44.278  12.399
61695W        W30036  39.021   2.259  11.439
61696W        W30037  41.030  27.620   1.721
61697W        W30038  33.012   9.390   4.834
61698W        W30039  19.643   0.781  14.856
61699W        W30040  40.004  27.063  14.442
61700W        W30041  22.163   8.173   0.892
61701W        W30042  17.647   9.829  12.365
61702W        W30043   3.899  29.963   4.314
61703W        W30044   3.821  23.089  11.117
61704W        W30045  22.606  18.583   5.299
61705W        W30046  30.631  44.980  13.794
61706W        W30047  23.562  27.066   3.775
61707W        W30048   2.739  30.929  11.445
61708W        W30049  37.940  29.104  12.470
61709W        W30050   3.447  18.661  10.436
61710W        W30051  20.713  23.084  10.432
61711W        W30052   0.778  27.491   3.211
61712W        W30053  26.129  41.373   0.265
61713W        W30054  19.775   5.783  12.373
61714W        W30055  36.551  34.903  10.064
61715W        W30056  36.547  37.579  11.032
61716W        W30057   6.188  44.976  10.471
61717W        W30058  11.192   6.751  10.576
61718W        W30059  41.900  41.836   3.683
61719W        W30060   6.794  12.232   4.669
61720W        W30061  39.843  32.440  10.992
61721W        W30062  10.653  10.314   4.669
61722W        W30063  28.605   2.373  13.354
61723W        W30064  32.954  43.370   3.332
61724W        W30065  42.392  17.644  13.995
61725W        W30066  14.125  29.500  13.953
61726W        W30067   4.230  21.619   1.444
61727W        W30068  39.544   4.768   3.181
61728W        W30069   1.313  39.356   1.857
61729W        W30070  27.971  29.446  10.447
61730W        W30071  11.798  44.401  12.567
61731W        W30072  40.880  33.958   4.817
61732W        W30073  17.779   1.442  11.044
61733W        W30074  20.740  22.700   0.408
61734W        W30075   5.780  32.984  13.548
61735W        W30076  26.143  30.933  11.863
61736W        W30077  38.873  10.691   1.849
61737W        W30078  44.906  24.085   1.933
61738W        W30079  29.582  11.138  12.876
61739W        W30080  36.508  33.956   3.826
61740W        W30081   5.203  28.463  11.582
61741W        W30082   1.469  34.091  14.275
61742W        W30083  37.468  41.453   1.373
61743W        W30084  42.912   6.817  12.026
61744W        W30085  22.105  33.987  10.900
61745W        W30086  26.585  27.624   0.284
61746W        W30087  30.936  11.309  11.891
61747W        W30088   7.863  42.953  11.414
61748W        W30089  23.989  16.773  10.455
61749W        W30090  36.524   9.747  14.862
61750W        W30091   6.245  30.955  14.315
61751W        W30092  12.729  30.493   4.719
61752W        W30093  17.632  32.031  11.517
61753W        W30094   6.313  19.219   1.784
61754W        W30095   0.838  33.958   0.288
61755W        W30096  21.516  16.251  14.761
61756W        W30097  36.534  23.034  11.097
61757W        W30098  36.525  10.801   0.901
61758W        W30099  12.653   6.207  10.524
61759W        W30100  29.562  19.149  11.442
61760W        W30101  22.102  25.642   2.394
61761W        W30102  10.205  34.026   3.779
61762W        W30103   8.280  31.613  13.979
61763W        W30104  32.047  33.123  11.099
61764W        W30105  13.192   0.308   0.250
61765W        W30106  24.076  25.068  10.527
61766W        W30107  10.872  12.783  13.947
61767W        W30108  18.182  18.601   4.718
61768W        W30109   8.351  44.941   2.351
61769W        W30110   0.441  35.105   2.232
61770W        W30111  26.145  26.952  10.159
61771W        W30112  21.658  30.517  12.931
61772W        W30113   3.257  21.636   1.834
61773W        W30114  40.997  40.367   9.466
61774W        W30115  13.682  38.025   1.832
61775W        W30116   0.878  12.641  14.292
61776W        W30117  39.538  37.912  12.425
61777W        W30118  11.742   8.229  11.999
61778W        W30119  44.985  43.323  14.994
61779W        W30120  20.225  34.372  12.878
61780W        W30121  33.044   8.333   3.830
61781W        W30122  32.527  35.999  12.448
61782W        W30123  13.136  36.011  12.840
61783W        W30124   3.765  11.259  14.478
61784W        W30125  20.569  33.971   1.242
61785W        W30126  20.708   7.280   1.356
61786W        W30127  21.064  13.121   3.284
61787W        W30128  29.569   4.448  11.124
61788W        W30129   3.325  16.221   2.210
61789W        W30130   8.868  20.167   0.355
61790W        W30131   1.761  38.821  13.320
61791W        W30132  24.019  11.201  12.853
61792W        W30133  16.806   5.218  10.551
61793W        W30134   0.959  42.975   2.800
61794W        W30135  42.924  15.651  10.021
61795W        W30136  26.604  18.767   0.736
61796W        W30137  29.548  28.502   0.932
61797W        W30138   4.440   6.316   1.861
61798W        W30139  16.741   8.375   3.721
61799W        W30140   3.955  32.506  11.857
61800W        W30141  16.591  25.057  11.855
61801W        W30142  12.732  28.539   0.437
61802W        W30143  34.474   4.802  11.576
61803W        W30144  12.741  17.762  12.909
61804W        W30145  24.655  25.027  14.412
61805W        W30146   4.872  29.060   0.891
61806W        W30147  22.049  12.841  14.944
61807W        W30148  25.111  31.012  10.949
61808W        W30149   6.424   0.317   2.277
61809W        W30150   2.956  16.090   3.306
61810W        W30151  39.984   2.392   3.147
61811W        W30152  23.714   8.676  12.541
61812W        W30153  22.716  14.826   1.256
61813W        W30154   4.795  38.538  12.038
61814W        W30155  24.534  18.558   4.782
61815W        W30156  20.150  14.691  11.919
61816W        W30157  19.744  42.015  13.975
61817W        W30158  26.466  37.062   3.822
61818W        W30159   2.421  31.035   2.713
61819W        W30160  19.654  37.401  12.969
61820W        W30161  27.072  11.855  14.883
61821W        W30162  37.895  42.865  11.088
61822W        W30163  33.501  19.743  11.381
61823W        W30164  33.554  44.390   1.411
61824W        W30165  27.045  37.902   1.898
61825W        W30166  18.102  11.867  12.010
61826W        W30167  10.216  22.561   0.295
61827W        W30168   1.275  39.489  12.935
61828W        W30169   1.782  13.609   0.876
61829W        W30170  20.733  44.933  10.596
61830W        W30171  20.240  25.075   0.909
61831W        W30172  12.202  28.583  14.400
61832W        W30173  33.121  11.679  13.051
61833W        W30174  19.266   2.806   1.360
61834W        W30175   3.284   2.372  12.950
61835W        W30176  17.633   4.936  10.983
61836W        W30177  29.952  28.466  14.778
61837W        W30178  31.146  31.541  12.968
61838W        W30179  44.925  13.803   1.809
61839W        W30180   7.729  29.513   4.800
61840W        W30181  22.623  26.576   2.850
61841W        W30182  41.369  15.779   0.869
61842W        W30183  43.971  28.679   3.297
61843W        W30184  33.006   0.814  12.907
61844W        W30185  40.038  20.705   2.192
61845W        W30186  43.283   8.229   3.843
61846W        W30187  33.441  23.501  12.963
61847W        W30188  13.208  11.752   0.789
61848W        W30189  41.957  40.479   2.228
61849W        W30190   3.430  28.544  14.324
61850W        W30191  18.642  18.668   4.784
61851W        W30192  43.899  35.015   3.159
61852W        W30193  15.166   7.754  13.393
61853W        W30194  37.382  16.242   0.421
61854W        W30195  18.153   5.420  11.378
61855W        W30196  24.005  33.479  11.059
61856W        W30197  33.999  37.344  13.918
61857W        W30198  21.226  44.435  13.861
61858W        W30199  21.158   7.774   3.373
61859W        W30200   7.713  18.615  14.418
61860W        W30201   6.307  27.585   0.410
61861W        W30202   2.450  13.700  13.461
61862W        W30203  37.019   3.264   3.690
61863W        W30204  27.632  30.437   4.624
61864W        W30205  37.580  32.404  13.407
61865W        W30206  28.161  20.662  14.842
61866W        W30207  19.606  31.045   3.212
61867W        W30208  11.810  28.147   1.885
61868W        W30209  39.431   2.943   4.206
61869W        W30210  14.620  43.276  12.516
61870W        W30211   4.809  15.091   1.826
61871W        W30212  11.768  21.677  10.431
61872W        W30213  27.002  34.561   2.305
61873W        W30214   6.318  14.321   0.322
61874W        W30215  35.562  10.675  12.932
61875W        W30216  34.530   0.921  11.079
61876W        W30217  16.277   9.844  12.092
61877W        W30218  38.470  27.184   4.265
61878W        W30219  21.611  37.357   1.869
61879W        W30220  34.913  28.560  14.482
61880W        W30221  37.854  10.357  11.893
61881W        W30222   7.411  32.128   1.338
61882W        W30223  18.730  23.613  13.951
61883W        W30224  18.096   3.250   0.349
61884W        W30225  42.371   8.660  12.405
61885W        W30226  25.092   2.336   5.112
61886W        W30227  25.613  13.629   2.185
61887W        W30228  16.584   5.407  14.367
61888W        W30229  13.715  20.585   0.303
61889W        W30230  17.108  36.976   3.211
61890W        W30231  28.077  20.241   2.227
61891W        W30232  26.959  29.628  10.087
61892W        W30233  10.766  31.416  11.474
61893W        W30234  25.537  17.773   2.345
61894W        W30235  15.320  26.679   3.357
61895W        W30236   4.798  25.011   1.239
61896W        W30237  22.122  44.797  12.432
61897W        W30238  35.887   8.393   1.722
61898W        W30239  22.237  39.894   3.662
61899W        W30240  13.768  13.326   2.345
61900W        W30241  29.142  16.692   3.670
61901W        W30242  44.903  44.371   2.413
61902W        W30243  16.226  22.512   1.276
61903W        W30244  30.985   4.876  14.768
61904W        W30245  20.580  14.104   4.765
61905W        W30246  43.968  39.935  11.537
61906W        W30247  26.508   4.321   1.823
61907W        W30248   3.236  41.932   5.311
61908W        W30249   4.921  12.307  14.387
61909W        W30250  29.523   3.930   3.261
61910W        W30251  10.381  31.006   1.752
61911W        W30252  32.595  10.139   2.777
61912W        W30253  30.516  43.281   1.850
61913W        W30254   0.399  32.916   2.831
61914W        W30255  41.862   8.753  13.315
61915W        W30256  13.273  23.134   3.300
61916W        W30257   8.186  17.158   1.216
61917W        W30258  33.557  35.054   4.268
61918W        W30259  44.959  19.642  12.377
61919W        W30260   9.350  44.820  11.873
61920W        W30261   8.865  42.931   2.317
61921W        W30262  39.836  29.955  11.429
61922W        W30263  14.096  13.293   3.265
61923W        W30264  23.665  18.275  12.464
61924W        W30265  41.970  20.701   1.723
61925W        W30266  44.276   2.399  10.587
61926W        W30267  27.143  39.461   0.726
61927W        W30268  37.033  43.332  14.345
61928W        W30269  44.790  36.403  12.016
61929W        W30270  35.944   2.735   4.115
61930W        W30271  18.092   9.243  14.945
61931W        W30272  38.542  35.452  13.349
61932W        W30273  35.017  35.979  14.016
61933W        W30274  34.072  15.591   4.140
61934W        W30275  15.581  29.541   2.200
61935W        W30276  21.714  11.160   0.415
61936W        W30277   7.392   4.237   4.337
61937W        W30278  43.390  29.567   3.761
61938W        W30279  25.051  11.628   3.798
61939W        W30280   6.404  42.379   3.764
61940W        W30281   7.907  30.557   4.814
61941W        W30282  34.042  15.594  14.810
61942W        W30283  13.699  30.128   2.334
61943W        W30284   6.384  36.973  11.058
61944W        W30285  10.864  11.672   2.235
61945W        W30286  23.538  29.439  10.959
61946W        W30287  36.058  34.973  13.815
61947W        W30288  12.335  33.499  12.929
61948W        W30289  40.850  29.925  12.509
61949W        W30290  10.861  14.678   4.184
61950W        W30291  13.348   5.326   2.305
61951W        W30292  27.654  42.901  12.060
61952W        W30293  18.722   1.438  13.008
61953W        W30294  12.614  42.822  10.997
61954W        W30295  30.051  10.681  10.502
61955W        W30296  33.100   4.263  11.867
61956W        W30297   1.779  39.915   3.639
61957W        W30298  37.526  14.197  10.459
61958W        W30299  31.094  13.754   0.934
61959W        W30300  30.145  25.548   2.197
61960W        W30301   6.254  18.176  12.923
61961W        W30302  41.355  26.543   3.671
61962W        W30303  18.683  16.769   1.326
61963W        W30304   7.669  14.245   2.406
61964W        W30305  20.103  37.841  11.562
61965W        W30306  26.045  35.574   1.852
61966W        W30307  23.003  29.644  12.348
61967W        W30308  32.494  25.692  13.036
61968W        W30309  40.896  42.811  10.623
61969W        W30310  29.427  33.620  10.536
61970W        W30311   5.424  14.602  14.977
61971W        W30312   9.830  43.017   1.797
61972W        W30313   4.758  36.957  13.044
61973W        W30314  14.755  39.814   4.607
61974W        W30315  14.127  32.537   3.664
61975W        W30316  10.875   1.306  14.388
61976W        W30317  39.425  41.832  10.430
61977W        W30318  24.072  25.691  12.872
61978W        W30319  31.549   5.274   3.753
61979W        W30320   7.392  18.195   3.868
61980W        W30321  42.001  30.015  12.368
61981W        W30322  11.829  36.901  12.476
61982W        W30323  21.732   6.922   3.649
61983W        W30324  20.250   0.381  13.488
61984W        W30325  24.197  19.182  14.421
61985W        W30326  31.571   5.257   4.256
61986W        W30327  18.218  43.302   4.611
61987W        W30328  40.012   2.871   3.280
61988W        W30329  28.533  37.883  11.069
61989W        W30330   8.882  26.142  11.545
61990W        W30331  16.256  14.704   1.248
61991W        W30332  35.919   1.466   1.257
61992W        W30333   3.267  41.321  14.970
61993W        W30334  28.636  37.495   4.248
61994W        W30335  32.425  44.481  10.145
61995W        W30336   0.783  17.657   3.290
61996W        W30337  16.219  17.265   0.952
61997W        W30338   7.859  19.645  13.345
61998W        W30339  43.407  31.933  11.435
61999W        W30340  38.902  36.868   2.183
62000W        W30341  19.587  20.169   2.325
62001W        W30342   8.900  22.663   4.155
62002W        W30343  35.458  33.461  10.420
62003W        W30344   5.389  35.561  14.012
62004W        W30345  25.214  36.507  12.532
62005W        W30346  32.020  19.723  11.097
62006W        W30347  10.787  21.028  10.546
62007W        W30348  29.996   0.884  12.881
62008W        W30349  25.680   8.660   0.327
62009W        W30350  23.490  44.851  10.589
62010W        W30351  38.952  33.039   3.853
62011W        W30352  36.454   1.761  11.021
62012W        W30353  20.244   4.738  10.458
62013W        W30354  28.981   5.881   1.393
62014W        W30355  18.695  12.153   0.243
62015W        W30356  24.615  23.575   3.234
62016W        W30357  22.649  27.012  11.569
62017W        W30358  25.984  13.757   3.251
62018W        W30359   3.718   3.447   4.351
62019W        W30360   4.909  41.396   2.406
62020W        W30361  12.304  44.937   4.244
62021W        W30362  25.526  18.753   1.931
62022W        W30363  25.214  24.713   2.381
62023W        W30364  33.905  21.549   1.726
62024W        W30365  32.516  32.990   4.175
62025W        W30366  22.033  23.504   3.312
62026W        W30367  18.217  42.323   1.913
62027W        W30368  11.677  12.358   0.436
62028W        W30369  23.131  29.175  11.013
62029W        W30370  43.769  37.401   1.749
62030W        W30371  29.135  42.838   1.441
62031W        W30372  43.923  22.104   0.850
62032W        W30373  13.126   9.294   4.758
62033W        W30374  35.102  18.241   3.637
62034W        W30375   4.262  25.625   3.276
62035W        W30376   9.813  27.183  11.104
62036W        W30377  32.990   5.753  14.342
62037W        W30378  17.074  44.483   2.192
62038W        W30379  39.473  17.064   1.402
62039W        W30380  40.953   0.401  11.003
62040W        W30381  16.692   7.235   0.950
62041W        W30382  26.107   3.741  12.545
62042W        W30383  12.674  32.518   1.833
62043W        W30384  18.691  35.989  14.494
62044W        W30385  41.412  16.678   4.713
62045W        W30386   4.796  39.524   4.803
62046W        W30387  23.046  30.047   0.805
62047W        W30388  25.005  25.152  13.528
62048W        W30389  41.446   4.757   3.334
62049W        W30390  43.386  30.985  13.426
62050W        W30391  32.596  26.980   1.853
62051W        W30392   0.362   0.468   3.754
62052W        W30393  35.543  18.072   0.809
62053W        W30394  43.505  29.517  12.390
62054W        W30395  32.911  18.099  13.540
62055W        W30396   2.910  23.603  10.946
62056W        W30397  10.249  13.832  13.005
62057W        W30398  17.794   4.762  14.403
62058W        W30399  35.458   3.421  13.356
62059W        W30400  32.622   0.267  14.956
62060W        W30401   6.411  15.297   4.748
62061W        W30402  15.248   0.966   1.732
62062W        W30403   5.420  31.492   2.867
62063W        W30404  25.087   4.257  12.868
62064W        W30405   6.420  14.590   0.891
62065W        W30406  33.911  36.989   1.360
62066W        W30407  42.957  30.943   4.808
62067W        W30408  39.016  24.991  10.143
62068W        W30409  44.008  14.144   3.797
62069W        W30410  35.894   7.822  13.792
62070W        W30411  22.096   0.484   3.386
62071W        W30412   8.379  16.287  12.514
62072W        W30413  10.304  13.182  12.445
62073W        W30414  40.439  30.142   3.372
62074W        W30415   1.902  43.479   3.261
62075W        W30416  43.766   6.418   3.702
62076W        W30417  43.892  33.041   4.281
62077W        W30418  36.472  38.430   4.235
62078W        W30419  34.895  32.543   4.627
62079W        W30420  38.983  16.181  12.899
62080W        W30421  25.702   2.824   2.334
62081W        W30422  19.763  42.862   2.718
62082W        W30423  37.412  42.030   0.833
62083W        W30424  15.101   3.898   3.358
62084W        W30425  24.592  21.258   0.483
62085W        W30426   6.237  14.767  12.930
62086W        W30427  13.344  35.852  13.421
62087W        W30428  41.414  11.314  14.890
62088W        W30429   4.820  31.032  14.972
62089W        W30430  30.084  17.285   1.316
62090W        W30431   4.840  36.412  13.954
62091W        W30432  40.316  13.836   3.670
62092W        W30433  43.410  39.390  12.341
62093W        W30434  10.257  25.139  10.593
62094W        W30435  38.066  37.484  14.275
62095W        W30436  30.518  39.417   3.692
62096W        W30437  26.071  10.306   4.713
62097W        W30438  22.144  41.500  13.474
62098W        W30439  29.004  30.907   1.214
62099W        W30440  20.210  22.119  14.900
62100W        W30441  36.379  11.722  14.978
62101W        W30442  27.557  43.462   0.896
62102W        W30443  27.667   8.683  14.995
62103W        W30444   3.764  18.773  11.487
62104W        W30445  30.532  12.651  13.805
62105W        W30446  15.616   0.915  12.482
62106W        W30447   6.852  41.034   1.757
62107W        W30448  16.745   3.229  14.514
62108W        W30449   8.795  11.145   3.216
62109W        W30450   0.757   9.189   3.183
62110W        W30451  20.046  22.041   4.631
62111W        W30452  44.384   1.796   1.319
62112W        W30453   2.237  42.460   4.686
62113W        W30454  40.435  17.641  14.984
62114W        W30455   0.853  44.428   1.770
62115W        W30456  37.493  22.590   3.813
62116W        W30457  25.587  15.098   4.742
62117W        W30458  28.063  43.879   1.858
62118W        W30459  33.445  13.218  13.439
62119W        W30460  10.266   0.966   3.730
62120W        W30461  17.611  16.673   3.240
62121W        W30462  14.770  31.086  14.924
62122W        W30463  29.078  43.875   2.775
62123W        W30464  22.070  18.058   3.709
62124W        W30465   9.392  41.538   4.147
62125W        W30466  33.893  23.012  12.946
62126W        W30467   0.866   6.238   1.241
62127W        W30468  41.510  37.578   3.301
62128W        W30469   0.372  38.402   1.748
62129W        W30470  11.797  11.652   4.717
62130W        W30471  35.948  14.230  10.550
62131W        W30472   4.804  18.293  14.780
62132W        W30473  33.893  31.028   2.331
62133W        W30474  41.998  34.369  12.926
62134W        W30475  32.921  31.548  11.477
62135W        W30476   3.782  41.028   3.642
62136W        W30477  44.819  34.870  12.966
62137W        W30478  38.970  41.937   4.240
62138W        W30479   2.304  11.151  13.927
62139W        W30480  22.206  39.008  12.443
62140W        W30481  28.444  21.585  12.880
62141W        W30482  36.064   3.313   0.393
62142W        W30483  26.502  31.122  10.982
62143W        W30484  13.116  12.815  12.443
62144W        W30485   6.871  43.362  12.354
62145W        W30486  39.848  36.086  14.400
62146W        W30487   5.356  36.924  11.383
62147W        W30488  10.751   4.937  13.017
62148W        W30489  37.509  43.871  13.963
62149W        W30490  31.643  32.537  12.460
62150W        W30491  21.593   1.952   3.185
62151W        W30492  18.647  19.538  12.036
62152W        W30493   5.754  36.410  13.380
62153W        W30494   7.696  32.460   4.804
62154W        W30495  43.860  43.302  14.006
62155W        W30496   3.317  15.693  13.836
62156W        W30497   7.191  22.086  11.588
62157W        W30498  36.957  38.535   0.312
62158W        W30499  44.997  27.049   0.851
62159W        W30500   0.893   3.435   5.239
62160W        W30501  33.966  24.537  14.946
62161W        W30502  31.447  26.592  14.939
62162W        W30503  27.674   4.287   2.219
62163W        W30504  40.915  29.657   0.249
62164W        W30505  41.420  13.621   2.256
62165W        W30506  30.587  41.415  12.428
62166W        W30507  14.110  33.127  10.462
62167W        W30508  13.310  29.585   1.701
62168W        W30509  11.127  24.544  14.030
62169W        W30510  15.727  21.560   1.776
62170W        W30511  37.930  21.550  14.025
62171W        W30512   6.344   8.183  10.933
62172W        W30513  42.394  32.036  10.996
62173W        W30514  19.045  43.962   3.334
62174W        W30515  22.567  33.458  14.770
62175W        W30516  18.142  39.386  14.936
62176W        W30517  36.051  39.455   4.337
62177W        W30518   2.308  17.735   0.734
62178W        W30519  32.541  28.147  12.446
62179W        W30520   8.224  34.514   4.789
62180W        W30521  25.499  18.131  11.924
62181W        W30522  40.470  13.741  14.999
62182W        W30523   6.417   9.700   3.239
62183W        W30524  17.699   0.356   0.899
62184W        W30525  21.580  28.078   3.211
62185W        W30526  38.470  33.042  13.475
62186W        W30527  10.333  10.310   1.827
62187W        W30528  15.712  20.100  13.050
62188W        W30529  43.370  13.775  11.028
62189W        W30530  43.456  11.640   1.802
62190W        W30531  12.159   0.953  11.394
62191W        W30532   2.443  38.007  11.020
62192W        W30533   1.924  15.751   2.263
62193W        W30534   6.714  12.709  13.957
62194W        W30535  19.202  35.087  11.493
62195W        W30536  16.129  41.001  11.938
62196W        W30537  28.444   6.887   1.433
62197W        W30538  29.100   6.242  11.855
62198W        W30539   1.473  32.551   1.266
62199W        W30540  39.500  44.267   0.408
62200W        W30541  17.107   8.785   3.780
62201W        W30542  40.432   4.207  13.448
62202W        W30543  26.158  37.475  11.445
62203W        W30544   8.368  24.625  12.343
62204W        W30545  18.586   2.923   2.208
62205W        W30546   4.402  27.069  12.489
62206W        W30547  26.028  39.022  14.905
62207W        W30548  20.588  35.073  13.427
62208W        W30549   2.861  38.515  14.825
62209W        W30550   8.884  43.347   2.232
62210W        W30551  20.133  22.557   1.858
62211W        W30552  20.076   6.767   4.628
62212W        W30553   9.841  12.841   2.741
62213W        W30554  25.164  14.209  13.307
62214W        W30555  21.692   9.671  10.547
62215W        W30556  38.436  24.015   4.634
62216W        W30557  11.182  23.189  11.862
62217W        W30558  19.251  11.629  13.529
62218W        W30559  14.138   9.296   1.261
62219W        W30560   3.339  28.006   4.253
62220W        W30561   6.211  28.113   1.756
62221W        W30562  31.414  11.321   1.300
62222W        W30563  20.651  12.341  10.454
62223W        W30564   3.782  36.443   3.812
62224W        W30565  14.109  29.073  11.494
62225W        W30566  39.330  36.901  10.496
62226W        W30567  14.822   8.382  11.434
62227W        W30568  35.034  21.235   2.299
62228W        W30569   3.827  34.002   1.279
62229W        W30570  16.309  21.565   4.737
62230W        W30571   0.247  16.252  11.977
62231W        W30572  22.082   8.280  13.004
62232W        W30573   4.842  26.165   0.871
62233W        W30574  17.063  35.529  11.495
62234W        W30575  18.280  28.539  13.043
62235W        W30576   8.735  14.187  10.458
62236W        W30577  41.947  21.159  11.894
62237W        W30578  20.272  21.246  13.854
62238W        W30579  11.848  40.353  13.402
62239W        W30580  43.856  35.403   3.172
62240W        W30581  10.746  38.887  10.523
62241W        W30582  12.856  24.546  11.901
62242W        W30583  35.994  26.622   5.293
62243W        W30584   0.961  43.439  13.365
62244W        W30585  28.669  37.836   4.622
62245W        W30586  10.271   7.348  14.838
62246W        W30587   1.735  23.620  10.470
62247W        W30588   9.307   0.838   2.739
62248W        W30589  19.133  39.450  14.390
62249W        W30590  22.184  30.435  12.571
62250W        W30591   3.903  34.949  10.409
62251W        W30592  28.185  37.576   3.268
62252W        W30593  20.242  40.816  12.094
62253W        W30594  18.192  14.647   2.670
62254W        W30595  15.810  17.600   1.412
62255W        W30596  17.258  14.697   1.213
62256W        W30597  36.466  20.162   1.696
62257W        W30598   0.935  41.371   1.269
62258W        W30599  26.635  37.840   3.856
62259W        W30600   2.387  44.862  10.506
62260W        W30601   6.208  12.295  14.843
62261W        W30602  20.262   9.721   2.239
62262W        W30603  26.966  38.459  10.470
62263W        W30604   3.799  40.485   0.451
62264W        W30605  38.508   0.773  10.918
62265W        W30606   8.394   9.374  14.330
62266W        W30607  37.928   1.467  11.468
62267W        W30608   2.372  17.698  13.992
62268W        W30609  21.616  37.993   2.414
62269W        W30610  27.538  37.921   0.761
62270W        W30611  34.382  42.885   3.273
62271W        W30612  28.454  11.172   2.415
62272W        W30613  28.489  22.149  11.908
62273W        W30614  19.072  28.978  11.382
62274W        W30615   3.369  15.593  14.439
62275W        W30616  37.524  26.009   2.396
62276W        W30617  38.045  22.673   2.205
62277W        W30618  30.110  32.918   0.384
62278W        W30619  27.687   7.231   3.836
62279W        W30620  40.463  23.700   0.417
62280W        W30621  13.750  41.293   2.894
62281W        W30622  35.369  43.450   0.414
62282W        W30623  25.624  22.560   0.847
62283W        W30624  18.182  39.545  13.980
62284W        W30625  14.278   2.962  14.957
62285W        W30626  24.995   6.396   4.263
62286W        W30627   5.304  33.957  12.084
62287W        W30628  27.683  37.405  12.876
62288W        W30629  31.973  17.761   3.796
62289W        W30630  24.051   9.831   3.708
62290W        W30631   4.231  18.689  11.568
62291W        W30632   8.707  26.468  14.279
62292W        W30633  38.518   2.436   3.281
62293W        W30634  17.772   8.820   0.741
62294W        W30635  11.841  43.813   2.270
62295W        W30636  20.265  41.411  14.001
62296W        W30637  33.922   7.748  14.985
62297W        W30638   6.745  28.652  10.980
62298W        W30639  26.489   1.852   3.329
62299W        W30640  16.315  28.571   0.730
62300W        W30641  40.846  20.691   0.244
62301W        W30642  11.684   3.727   0.779
62302W        W30643  23.521  14.216   1.237
62303W        W30644  35.412  22.116  13.325
62304W        W30645  32.611  27.196  11.021
62305W        W30646   7.676  13.306  12.923
62306W        W30647  37.389   5.267   0.896
62307W        W30648  43.384  26.978  10.995
62308W        W30649  35.491  15.683  10.644
62309W        W30650  31.580   8.729   3.277
62310W        W30651   6.197  11.855   4.694
62311W        W30652  13.217  17.061   4.831
62312W        W30653  30.028  39.550  13.957
62313W        W30654  37.032  23.093  13.344
62314W        W30655   5.364  38.932  12.980
62315W        W30656   0.870  40.389   0.750
62316W        W30657   2.951  13.182   2.332
62317W        W30658   2.294  10.736   3.245
62318W        W30659  40.489  18.551  14.305
62319W        W30660  38.917  15.615   2.666
62320W        W30661  18.600  35.600  10.986
62321W        W30662  33.009  20.198   0.850
62322W        W30663  11.168   7.334   2.821
62323W        W30664  42.429  31.439   1.333
62324W        W30665  41.324   5.707   3.331
62325W        W30666   2.308   8.824  13.537
62326W        W30667  27.526  13.129  14.897
62327W        W30668  36.852   3.876   1.890
62328W        W30669   2.931  12.286  13.524
62329W        W30670   6.693  41.298  14.281
62330W        W30671  36.360  21.129  11.473
62331W        W30672  21.633  14.243  10.542
62332W        W30673  35.074  20.738   4.829
62333W        W30674  12.749  14.234   2.698
62334W        W30675  37.360  21.733   2.181
62335W        W30676   3.270  31.581  11.993
62336W        W30677   8.173  11.657  10.409
62337W        W30678  17.133  11.204   3.242
62338W        W30679  16.628  22.080   4.681
62339W        W30680   7.312  44.427  12.533
62340W        W30681   8.209  10.280   4.835
62341W        W30682  12.857  22.169   3.852
62342W        W30683  14.317  12.352   1.898
62343W        W30684  29.670  34.871  12.009
62344W        W30685  18.204  36.522  12.859
62345W        W30686  11.307   1.466   2.757
62346W        W30687  27.135  41.424   3.239
62347W        W30688  25.707  25.178  14.921
62348W        W30689  13.679  13.339  13.916
62349W        W30690  25.188  15.296   3.218
62350W        W30691   5.761  19.046   1.310
62351W        W30692  18.217   7.255   3.281
62352W        W30693  21.680  10.208   2.247
62353W        W30694  19.205  22.654   2.732
62354W        W30695   9.761  34.502   0.483
62355W        W30696  33.918   2.338   3.738
62356W        W30697  24.690  39.455  13.518
62357W        W30698  43.810   2.446   2.358
62358W        W30699  43.325  41.482  13.873
62359W        W30700  13.157   5.735   1.245
62360W        W30701   3.366   9.784  11.864
62361W        W30702  31.592   4.208   1.434
62362W        W30703  29.550   0.856  10.908
62363W        W30704   7.187  32.979   1.246
62364W        W30705  11.127  24.209   1.293
62365W        W30706   9.730  40.317  14.456
62366W        W30707  29.093  44.394  10.036
62367W        W30708  35.894  30.089  10.957
62368W        W30709  38.354  37.980   2.234
62369W        W30710  28.527   4.789  12.344
62370W        W30711   9.270  32.055   5.115
62371W        W30712  39.827  35.983   4.768
62372W        W30713  31.993  15.699  10.463
62373W        W30714  28.578  32.107  10.012
62374W        W30715  11.724  43.435   1.316
62375W        W30716  18.668  18.089   2.695
62376W        W30717  40.972  25.583   3.758
62377W        W30718   6.251   9.328   2.381
62378W        W30719  10.281  25.557  14.884
62379W        W30720  18.602   7.270  12.924
62380W        W30721  37.973  25.690   1.362
62381W        W30722  14.213  35.500  14.508
62382W        W30723  38.923  26.510   0.298
62383W        W30724   8.402  14.322  11.905
62384W        W30725  27.119  38.389  13.513
62385W        W30726   1.950  25.017  14.299
62386W        W30727  17.701   3.931  12.090
62387W        W30728  23.021  27.633   3.651
62388W        W30729  25.520  10.176  14.334
62389W        W30730  34.502  34.883   0.891
62390W        W30731  20.265  39.841  12.520
62391W        W30732  44.771  10.367   2.278
62392W        W30733   3.854   8.186   2.784
62393W        W30734  15.699  38.353  13.009
62394W        W30735  23.730  35.068   4.353
62395W        W30736  33.052  11.847  14.515
62396W        W30737   4.874  20.157   2.368
62397W        W30738   2.316  25.571   1.805
62398W        W30739   3.415   9.763   2.342
62399W        W30740   1.947  40.512  12.092
62400W        W30741  33.129  34.972  11.044
62401W        W30742  30.080   7.688   1.869
62402W        W30743  29.129  27.112   4.675
62403W        W30744   7.887  38.389  14.761
62404W        W30745  28.177  17.066   2.361
62405W        W30746  36.006  36.952   1.220
62406W        W30747  21.119  22.578  13.499
62407W        W30748   6.839  19.744  10.516
62408W        W30749  27.118   0.258   4.657
62409W        W30750  23.604   0.363   2.693
62410W        W30751   3.752  20.137   1.273
62411W        W30752  21.239  44.317   0.338
62412W        W30753  24.534   0.797   4.648
62413W        W30754  40.512  12.675  10.557
62414W        W30755  10.302   5.809   0.292
62415W        W30756  20.655   4.243  13.042
62416W        W30757  18.097  39.500   3.187
62417W        W30758  13.730  32.471  11.915
62418W        W30759   9.706  29.577  14.437
62419W        W30760  14.219  27.020  11.003
62420W        W30761  27.667  40.306   3.738
62421W        W30762  32.586  13.140  12.451
62422W        W30763   1.897   9.167  11.883
62423W        W30764  36.903   1.841  13.974
62424W        W30765  42.500   9.801   1.381
62425W        W30766   6.298  13.188   0.785
62426W        W30767  21.534  17.166   2.720
62427W        W30768  37.337  13.690   4.605
62428W        W30769  23.198   6.782  10.945
62429W        W30770  18.200  20.249  14.291
62430W        W30771  24.996   8.670   1.311
62431W        W30772  19.704  28.518  11.445
62432W        W30773  34.106  12.688  11.371
62433W        W30774  25.018  34.004  12.502
62434W        W30775  16.169   0.752  13.338
62435W        W30776  23.995  36.909   2.724
62436W        W30777  17.566  12.238   0.431
62437W        W30778  36.466   3.319  14.475
62438W        W30779  12.309  28.537   4.283
62439W        W30780  36.371  36.025   2.242
62440W        W30781   0.852  34.864  12.421
62441W        W30782  30.423  37.368   1.935
62442W        W30783  41.485   9.340  11.591
62443W        W30784  24.695   3.818  11.505
62444W        W30785  29.662  34.534  12.969
62445W        W30786  11.235  42.344  13.886
62446W        W30787  33.441  33.385   3.773
62447W        W30788   6.238  44.312  11.381
62448W        W30789  16.675  21.094   0.256
62449W        W30790  22.201  22.236  10.509
62450W        W30791  28.478  21.660   0.798
62451W        W30792  34.575  32.026  10.524
62452W        W30793  26.554  44.919  12.525
62453W        W30794   1.286  34.525  12.358
62454W        W30795  23.065  18.236   4.597
62455W        W30796  14.283   7.701  12.546
62456W        W30797  16.312  34.443   3.257
62457W        W30798  42.952  10.181   1.916
62458W        W30799  29.058  39.536   4.782
62459W        W30800  17.562  38.534  10.621
62460W        W30801  33.981  17.213   2.895
62461W        W30802  42.394  29.140   4.155
62462W        W30803   2.951   1.307   2.830
62463W        W30804  20.737  17.287  12.946
62464W        W30805  22.055  22.128  14.332
62465W        W30806  12.673  22.572   1.695
62466W        W30807  29.018   4.782   0.334
62467W        W30808  16.244  14.140   5.270
62468W        W30809  36.486  31.506  14.844
62469W        W30810  20.117  18.252  11.987
62470W        W30811  10.325  21.649   1.436
62471W        W30812  29.613  40.527   3.148
62472W        W30813  10.236  32.995   0.777
62473W        W30814  12.842   0.771   1.738
62474W        W30815   5.203  13.130  14.297
62475W        W30816  33.897  33.900   3.730
62476W        W30817  22.062   0.934   1.794
62477W        W30818   4.443  17.738   4.339
62478W        W30819   0.895  38.410  11.112
62479W        W30820  19.151  34.907   3.284
62480W        W30821  20.254  18.186  12.509
62481W        W30822  27.058   4.761   0.258
62482W        W30823  14.756  19.151   3.755
62483W        W30824   4.248  22.502   1.896
62484W        W30825  15.179  34.476  12.949
62485W        W30826  12.723  41.823   4.335
62486W        W30827   8.777  30.475  12.450
62487W        W30828   0.852  15.600  13.845
62488W        W30829  13.179  23.999  10.623
62489W        W30830  34.613  24.505   3.766
62490W        W30831  12.191   7.213   2.674
62491W        W30832   4.376  16.073  13.809
62492W        W30833  38.899  21.637   0.958
62493W        W30834  35.869  21.225  10.069
62494W        W30835   0.318  13.629  10.455
62495W        W30836  20.060  33.553  11.472
62496W        W30837  33.408  11.727  13.347
62497W        W30838  33.941  27.108  14.923
62498W        W30839   0.791  26.088  13.041
62499W        W30840  13.280  40.378  12.824
62500W        W30841  40.890  12.179   2.843
62501W        W30842  14.829  23.134   0.479
62502W        W30843  25.089   3.830  11.928
62503W        W30844  35.574  29.010   1.426
62504W        W30845  40.941  10.273   0.935
62505W        W30846  42.418   6.801   3.825
62506W        W30847  25.043   7.184  13.409
62507W        W30848  13.125  28.667   0.320
62508W        W30849   6.825  14.825  12.382
62509W        W30850  33.084   0.310  13.409
62510W        W30851  44.824  19.113  10.498
62511W        W30852  42.894  31.605   2.714
62512W        W30853  24.189  16.173   1.305
62513W        W30854  15.186  21.568  10.936
62514W        W30855  19.571  41.347  11.438
62515W        W30856   8.677  23.689   0.415
62516W        W30857  11.332  28.464  11.377
62517W        W30858  23.055  12.177   1.403
62518W        W30859  38.051  44.262  14.383
62519W        W30860  37.474  24.531   0.767
62520W        W30861  11.662   3.729   1.897
62521W        W30862  11.751  33.877  10.629
62522W        W30863  41.016  31.606  14.471
62523W        W30864  17.185   9.711   3.691
62524W        W30865   4.875  10.784  13.925
62525W        W30866  35.547   8.305  12.358
62526W        W30867  12.648  18.762  13.838
62527W        W30868  38.521  21.258   0.818
62528W        W30869  22.152  17.622  13.987
62529W        W30870  19.203   1.418   3.378
62530W        W30871  43.318  37.925  12.996
62531W        W30872  21.682   2.392   4.176
62532W        W30873  14.241  39.390   3.153
62533W        W30874  39.452  29.944   4.319
62534W        W30875  13.341  25.493  12.414
62535W        W30876   3.447  23.090  13.446
62536W        W30877  34.467  18.169   0.768
62537W        W30878  24.068  44.384  10.586
62538W        W30879  30.427  32.602  12.541
62539W        W30880  43.399  38.484  11.882
62540W        W30881   3.376   2.445  13.546
62541W        W30882  26.998  28.962   1.726
62542W        W30883  17.729  13.708  11.932
62543W        W30884   8.692  29.592   3.216
62544W        W30885   1.398  33.043   0.243
62545W        W30886   7.374  25.502   4.604
62546W        W30887  44.481   2.471   4.212
62547W        W30888  26.043  41.378   4.749
62548W        W30889  33.547  35.964  10.624
62549W        W30890   8.192  14.628   4.286
62550W        W30891  34.445  17.625  14.852
62551W        W30892   9.792  12.815  12.492
62552W        W30893   7.687  23.219  13.908
62553W        W30894  22.185  12.181   0.403
62554W        W30895   2.370   2.917  12.509
62555W        W30896   5.802   8.288  11.081
62556W        W30897  28.095   5.253  14.826
62557W        W30898  35.556  36.970  14.513
62558W        W30899  35.442  39.997   3.656
62559W        W30900  12.359  40.824   0.450
62560W        W30901  35.600  31.546   2.412
62561W        W30902  35.482  43.302  13.380
62562W        W30903  38.521  34.104  14.472
62563W        W30904  16.264   1.931   3.161
62564W        W30905  37.037  15.795   5.084
62565W        W30906  22.683   1.319   3.657
62566W        W30907  28.016  11.372  14.764
62567W        W30908  19.087  38.834  10.643
62568W        W30909  31.100  43.367   0.899
62569W        W30910  38.558  19.223  14.457
62570W        W30911  42.341  18.144  11.579
62571W        W30912  21.162  34.993   1.913
62572W        W30913  40.925  28.621  14.490
62573W        W30914   6.237  38.330   0.442
62574W        W30915  16.266   6.785   4.259
62575W        W30916   9.863  38.959  11.888
62576W        W30917   3.258  24.589   3.672
62577W        W30918  28.552  36.426  12.935
62578W        W30919   5.782  33.088  14.993
62579W        W30920  30.613  43.898   2.884
62580W        W30921  25.218  38.954   4.115
62581W        W30922  36.553   7.325  14.781
62582W        W30923   5.810   3.327  10.408
62583W        W30924   5.254  38.348  14.952
62584W        W30925  41.895   8.316   4.214
62585W        W30926  22.632   6.320  12.552
62586W        W30927   9.875  32.108   3.750
62587W        W30928   1.962   0.846   0.926
62588W        W30929   0.408  10.323  13.058
62589W        W30930   1.823  16.709   2.262
62590W        W30931   4.818  24.980   2.837
62591W        W30932  14.257   2.456   4.666
62592W        W30933  39.904  15.324   1.717
62593W        W30934  31.961  25.120   0.309
62594W        W30935  14.325  38.882  12.029
62595W        W30936   3.945  44.804  10.634
62596W        W30937   2.306  42.376  13.504
62597W        W30938  20.086  43.979  12.078
62598W        W30939  11.352   7.895  10.404
62599W        W30940  28.186  41.472   0.727
62600W        W30941  29.625  37.989  14.992
62601W        W30942  31.599  16.140   2.410
62602W        W30943  11.667  14.716   2.685
62603W        W30944  32.995  41.797  13.028
62604W        W30945  31.465  40.512   4.195
62605W        W30946  19.223  32.026   3.855
62606W        W30947  27.518   4.222  12.901
62607W        W30948  29.460  35.438  13.337
62608W        W30949  12.745  13.757   0.948
62609W        W30950  38.924  26.466   3.669
62610W        W30951  13.284  32.551  10.507
62611W        W30952  35.922  27.557  12.376
62612W        W30953   6.792   9.328  13.969
62613W        W30954  11.177   0.481  10.435
62614W        W30955  31.011  19.207   4.690
62615W        W30956  37.901  24.180   0.943
62616W        W30957  38.503  26.575  14.480
62617W        W30958  31.027  11.811  10.982
62618W        W30959  43.801  15.113  11.414
62619W        W30960  43.448  10.732   0.881
62620W        W30961  40.997  19.111   3.861
62621W        W30962  13.809   0.258   4.309
62622W        W30963  15.607  39.513  14.938
62623W        W30964  12.119  39.504   1.829
62624W        W30965   5.772  26.511  12.070
62625W        W30966  14.293  11.687   0.274
62626W        W30967  26.458   5.698   3.850
62627W        W30968  34.374   8.834  14.875
62628W        W30969  42.289  33.466  12.898
62629W        W30970  20.127  44.790   0.791
62630W        W30971  15.608   8.887  14.425
62631W        W30972  31.922  15.310   0.868
62632W        W30973  37.858  17.705  12.042
62633W        W30974  39.013  41.789  10.643
62634W        W30975  23.158  44.010   2.402
62635W        W30976   0.423  11.306  10.439
62636W        W30977  35.378  32.535   2.759
62637W        W30978   4.250   3.315  13.983
62638W        W30979  20.036   3.744   2.408
62639W        W30980  37.353  37.354   1.928
62640W        W30981  16.189  42.336  10.971
62641W        W30982  13.109  34.904   1.905
62642W        W30983  21.065   5.331   3.863
62643W        W30984  32.912  32.621  13.029
62644W        W30985  40.822  34.418   3.788
62645W        W30986  16.300  35.508   4.730
62646W        W30987  27.643  31.410   3.184
62647W        W30988   1.389  41.023   2.179
62648W        W30989   5.732  28.965   1.799
62649W        W30990   2.940  25.546   3.774
62650W        W30991   0.352  12.805   3.208
62651W        W30992  41.529  31.931  12.925
62652W        W30993   5.788   0.248  14.385
62653W        W30994  17.737  36.080   1.746
62654W        W30995  20.193   4.852  13.988
62655W        W30996  37.021  44.929  10.575
62656W        W30997  19.110  20.130   2.706
62657W        W30998  29.620  44.942   3.828
62658W        W30999  44.501  13.841  14.809
62659W        W31000  33.109  21.164   4.681
62660W        W31001  39.883  27.134  12.526
62661W        W31002  36.969  24.676   0.465
62662W        W31003   8.322  16.618   2.682
62663W        W31004   9.156  37.007  12.894
62664W        W31005  35.090  22.594  14.500
62665W        W31006   4.919  38.545   5.206
62666W        W31007  37.505  23.076   0.809
62667W        W31008  36.506  16.598  14.317
62668W        W31009  44.397  27.575   4.187
62669W        W31010  17.273  33.024  12.512
62670W        W31011  36.551  41.455   4.728
62671W        W31012   5.862  43.354   3.803
62672W        W31013   9.302   3.931  12.367
62673W        W31014  28.959  41.850   3.817
62674W        W31015   8.338  28.438  10.414
62675W        W31016   1.463  42.965   3.315
62676W        W31017   6.920   6.271  13.989
62677W        W31018  31.582  17.111   1.703
62678W        W31019   7.863  10.376   2.736
62679W        W31020  25.625  37.341   3.335
62680W        W31021   8.860  41.926   2.258
62681W        W31022   0.322  23.609   1.425
62682W        W31023   8.866  13.177   3.782
62683W        W31024  27.665  16.619   0.370
62684W        W31025   2.778  15.769   2.194
62685W        W31026  39.897  11.859  11.095
62686W        W31027  35.449   4.815  10.450
62687W        W31028  22.679  21.736  11.552
62688W        W31029  32.063  15.782   0.819
62689W        W31030  41.450  39.040   2.799
62690W        W31031  40.858  31.986   5.112
62691W        W31032  12.264   8.368   3.210
62692W        W31033  15.665  41.914   1.356
62693W        W31034  29.539  42.019   0.893
62694W        W31035  37.862  29.438  14.798
62695W        W31036  39.911   8.310  13.878
62696W        W31037   4.896   4.337  13.835
62697W        W31038  33.483  18.056  11.429
62698W        W31039  43.429  43.417   3.806
62699W        W31040   6.783  38.418  10.951
62700W        W31041  31.401  26.136   3.845
62701W        W31042  41.414  41.338   9.959
62702W        W31043  36.873  19.058  12.978
62703W        W31044  44.386  38.405  12.090
62704W        W31045   4.233  24.160  10.533
62705W        W31046   7.882  14.138   2.872
62706W        W31047  43.305   4.240  11.876
62707W        W31048  37.511  19.137  13.898
62708W        W31049  14.228  33.030  14.481
62709W        W31050  37.082  32.086   1.818
62710W        W31051  35.880  41.440   3.787
62711W        W31052   1.764   6.879  13.337
62712W        W31053  20.206  28.079  12.532
62713W        W31054  37.065  44.783   3.807
62714W        W31055  22.668  38.925   5.257
62715W        W31056  41.499   0.824  14.360
62716W        W31057   1.426  38.424   0.459
62717W        W31058  22.066  21.187   0.271
62718W        W31059  30.957  11.656   3.293
62719W        W31060   4.921  17.200   4.249
62720W        W31061  30.426  43.498   1.213
62721W        W31062  44.288  36.410  12.829
62722W        W31063   0.888  16.313  14.953
62723W        W31064  14.701  36.356   4.661
62724W        W31065  30.932  34.024   4.783
62725W        W31066  14.162  18.716  10.619
62726W        W31067   3.713  20.271  13.505
62727W        W31068  24.585  44.998  12.979
62728W        W31069  34.015  40.967  14.469
62729W        W31070  37.336   9.353  11.931
62730W        W31071   2.758   8.710   3.346
62731W        W31072  24.617  40.308   0.339
62732W        W31073  23.203  37.948  11.892
62733W        W31074  31.901  24.492  11.986
62734W        W31075   1.304  20.084   2.210
62735W        W31076   5.688  17.123   3.861
62736W        W31077  13.631  29.477   4.819
62737W        W31078  32.072   7.351   4.311
62738W        W31079  15.613   5.840  12.505
62739W        W31080  34.911  31.552  14.347
62740W        W31081  33.930  20.232   1.927
62741W        W31082  37.517  14.821  14.893
62742W        W31083  17.113   6.298   1.769
62743W        W31084   4.275  10.687  13.898
62744W        W31085   3.908   4.867  10.509
62745W        W31086  24.203  13.314  13.416
62746W        W31087  35.031  26.128   4.126
62747W        W31088  14.325  35.989   0.929
62748W        W31089   8.242   4.825  12.542
62749W        W31090   4.910  41.918   4.610
62750W        W31091  42.925  24.986   1.759
62751W        W31092  44.440   9.193  12.931
62752W        W31093   9.805  43.427  12.550
62753W        W31094  16.597  18.699   1.786
62754W        W31095  14.769  26.133   0.732
62755W        W31096  35.923   7.197  12.443
62756W        W31097  16.637   7.205  11.891
62757W        W31098  11.369   4.769   1.348
62758W        W31099  17.627   9.823  13.926
62759W        W31100  27.035  33.891   1.910
62760W        W31101  33.912  15.813   2.247
62761W        W31102  26.480  19.048   3.650
62762W        W31103  11.782  10.805   3.770
62763W        W31104  18.294   8.667  13.337
62764W        W31105  43.796  28.599  10.441
62765W        W31106  24.156  33.497  12.840
62766W        W31107  15.744  17.169  14.968
62767W        W31108  44.372  10.743   0.747
62768W        W31109  25.117   9.856   4.223
62769W        W31110  27.574  18.276   2.822
62770W        W31111  27.569  21.554   3.858
62771W        W31112  27.117  41.950   1.295
62772W        W31113  19.772   1.839  12.383
62773W        W31114   2.359   6.896   1.870
62774W        W31115  21.228   6.682  14.921
62775W        W31116   3.874  44.961   4.167
62776W        W31117  33.479  43.949   1.353
62777W        W31118  24.047  11.678   2.382
62778W        W31119   7.902   6.293  11.939
62779W        W31120  10.339  32.966   1.863
62780W        W31121  37.854   0.272  12.920
62781W        W31122   6.248  22.544  14.851
62782W        W31123  29.639   8.810   0.942
62783W        W31124   2.298  20.048  11.874
62784W        W31125   4.383  38.901  10.434
62785W        W31126  28.934  39.550  13.861
62786W        W31127  34.067  16.279   1.702
62787W        W31128  33.984  30.162  13.868
62788W        W31129   7.813  27.181  14.895
62789W        W31130   8.778  19.664   5.316
62790W        W31131  28.183  26.463   0.248
62791W        W31132   0.432  25.654  11.057
62792W        W31133  33.086  12.319  11.892
62793W        W31134  30.574  39.937   0.750
62794W        W31135   9.700  32.540  14.448
62795W        W31136  33.983  33.998  12.938
62796W        W31137  26.155   1.916  11.437
62797W        W31138  22.701  13.826  13.807
62798W        W31139  13.668  40.928  14.336
62799W        W31140  14.824  22.244  14.365
62800W        W31141  27.656  42.283   2.881
62801W        W31142   6.355  31.458  12.914
62802W        W31143  38.944  39.981   2.196
62803W        W31144  26.169  44.435  13.882
62804W        W31145  23.685  32.453  10.954
62805W        W31146  24.654  20.684   4.141
62806W        W31147   8.200  21.755  10.431
62807W        W31148  40.891   2.398  11.424
62808W        W31149  20.169  24.109   2.777
62809W        W31150  33.535   5.264  14.858
62810W        W31151  44.313  20.190   3.647
62811W        W31152   8.741   4.238  12.008
62812W        W31153  36.033  38.465   3.759
62813W        W31154   3.389  10.160  14.507
62814W        W31155  31.496   3.256   2.862
62815W        W31156  11.279  28.149  13.427
62816W        W31157  38.552  43.512   0.746
62817W        W31158   8.214  20.595  11.911
62818W        W31159  34.462  42.473   2.819
62819W        W31160  11.715  13.807   3.282
62820W        W31161  20.569  43.370   4.681
62821W        W31162   9.844  33.609  13.412
62822W        W31163  29.102   3.431  13.354
62823W        W31164  38.545  42.861   4.668
62824W        W31165   2.427  17.578  12.358
62825W        W31166  15.251  41.791  10.953
62826W        W31167   5.706  44.364   0.367
62827W        W31168  41.454   2.798  10.959
62828W        W31169   0.313  21.689   3.302
62829W        W31170   9.760   4.896  11.504
62830W        W31171   6.681  15.148  10.536
62831W        W31172  23.533  33.078  11.034
62832W        W31173  20.270  10.800  13.005
62833W        W31174  19.276  19.245   0.807
62834W        W31175  11.761  12.783  11.119
62835W        W31176  42.306  21.672   2.731
62836W        W31177  24.198  34.547   1.286
62837W        W31178  14.735   9.751   0.290
62838W        W31179  27.692   4.433  12.066
62839W        W31180  26.986  15.197  11.052
62840W        W31181  39.996  39.822  12.441
62841W        W31182   2.251  38.529   1.362
62842W        W31183  34.030  17.094  10.604
62843W        W31184  27.602  18.219   3.308
62844W        W31185  34.870  35.456  10.905
62845W        W31186   6.409  37.359   1.729
62846W        W31187  36.428  14.206   0.363
62847W        W31188  30.468   4.277  13.491
62848W        W31189  35.023  33.879   4.806
62849W        W31190   6.679  34.010  14.766
62850W        W31191  35.874  38.042   1.380
62851W        W31192   4.226   2.952   2.736
62852W        W31193  19.584  21.146  13.395
62853W        W31194  12.849  43.398  14.361
62854W        W31195  43.466  23.024  13.793
62855W        W31196   6.299  38.442   2.201
62856W        W31197   9.650  25.657  11.993
62857W        W31198  16.112  30.448   0.858
62858W        W31199   7.371  41.947   3.654
62859W        W31200  13.763  15.745  13.834
62860W        W31201  28.664  41.411   4.711
62861W        W31202  24.602  29.000   0.376
62862W        W31203  44.848  17.647  13.808
62863W        W31204  26.177  37.995  11.044
62864W        W31205  25.010   1.464   3.663
62865W        W31206  42.328  33.470   4.328
62866W        W31207  15.602  15.734  13.026
62867W        W31208  44.283  26.591   1.880
62868W        W31209  28.137  27.996  13.058
62869W        W31210  20.667  41.494   2.183
62870W        W31211   5.329  34.553  13.464
62871W        W31212  25.200  38.986   0.325
62872W        W31213  36.843   6.249   4.707
62873W        W31214  33.090  10.295  11.433
62874W        W31215  24.994  24.509  13.421
62875W        W31216  44.901  41.511   4.328
62876W        W31217  16.223  26.152   0.383
62877W        W31218  15.239   9.243  12.900
62878W        W31219   2.802  27.140  12.507
62879W        W31220  39.487  42.864  11.055
62880W        W31221   2.372  28.049  11.409
62881W        W31222  28.439  32.002   4.279
62882W        W31223  31.141  37.862   0.843
62883W        W31224  36.558  19.752  13.386
62884W        W31225  26.954   3.829   3.827
62885W        W31226  24.581  41.457  14.447
62886W        W31227  22.095  33.399   3.715
62887W        W31228  43.962  43.382  11.606
62888W        W31229  33.524  27.610   4.674
62889W        W31230   8.733  18.713   4.257
62890W        W31231  24.674  13.818   1.291
62891W        W31232  23.659  22.551  14.334
62892W        W31233   7.368   8.171   3.274
62893W        W31234  21.145  22.707   0.459
62894W        W31235  17.201  17.699  12.407
62895W        W31236  43.960  32.497  14.373
62896W        W31237  28.472  16.299   3.361
62897W        W31238  26.058  14.819   2.671
62898W        W31239  33.924  29.920  14.824
62899W        W31240   1.910  12.199   0.444
62900W        W31241  26.073   9.791  14.825
62901W        W31242  41.939  22.218   4.691
62902W        W31243  15.609  10.296   0.451
62903W        W31244  20.255  22.204  11.474
62904W        W31245  18.266  19.191  13.339
62905W        W31246  39.855   9.390  10.631
62906W        W31247  18.149  25.094   3.178
62907W        W31248  36.036  44.431   0.368
62908W        W31249  11.342  23.606   1.767
62909W        W31250   9.224  11.636   0.440
62910W        W31251  15.139  38.041  11.541
62911W        W31252  29.595  35.961   2.298
62912W        W31253  17.219  13.277  11.403
62913W        W31254  19.107  21.643   4.758
62914W        W31255  32.901  32.893  12.856
62915W        W31256  11.336  29.471  12.541
62916W        W31257  20.534  16.086  13.911
62917W        W31258  19.223  27.072  10.562
62918W        W31259  10.353  18.204  13.480
62919W        W31260  27.194  13.160   1.835
62920W        W31261  33.956   5.772  14.974
62921W        W31262  38.070  28.064  11.916
62922W        W31263  41.039   5.227  11.420
62923W        W31264  12.751   7.301   3.183
62924W        W31265  24.221  44.877   1.337
62925W        W31266  22.522  41.997   4.311
62926W        W31267  22.551  36.869  11.070
62927W        W31268  16.804   5.769  11.859
62928W        W31269  33.560  18.587   4.700
62929W        W31270   5.927  34.010  13.850
62930W        W31271   4.721  27.642   0.431
62931W        W31272  10.215  31.140  13.880
62932W        W31273  35.512  16.140  13.991
62933W        W31274  29.962  33.948  10.640
62934W        W31275   9.373  24.512   4.817
62935W        W31276   9.316   9.694   1.775
62936W        W31277  27.106  31.647   1.749
62937W        W31278  17.591  10.698  13.932
62938W        W31279   4.920   7.403  10.425
62939W        W31280  43.898   8.196  13.941
62940W        W31281   9.361  35.105   2.409
62941W        W31282  39.469  17.220   4.146
62942W        W31283   0.768  30.006  12.432
62943W        W31284  30.012  14.147   4.601
62944W        W31285  11.757  18.757  11.474
62945W        W31286  42.308   1.892  10.487
62946W        W31287  39.810  23.015   3.729
62947W        W31288  40.798   4.353   4.694
62948W        W31289  37.441  12.286  11.971
62949W        W31290  16.604  30.469   2.289
62950W        W31291   4.427  20.586  13.043
62951W        W31292   6.196  38.991  13.048
62952W        W31293   9.251  24.694  13.515
62953W        W31294  39.462  31.134   1.328
62954W        W31295  42.397  30.133  13.351
62955W        W31296   6.344   6.738   3.364
62956W        W31297  40.916  23.624   3.166
62957W        W31298  30.052   9.702  11.118
62958W        W31299  30.539  32.890   0.376
62959W        W31300  23.083  22.537  14.855
62960W        W31301  32.543   5.284   1.829
62961W        W31302  10.775   8.846  10.628
62962W        W31303   0.461  21.734   4.239
62963W        W31304  40.417  39.026   1.917
62964W        W31305   2.379  11.858   3.809
62965W        W31306  13.189  14.116  11.482
62966W        W31307   2.928  37.066   0.930
62967W        W31308  21.027   8.664  13.442
62968W        W31309  25.536  16.229   4.251
62969W        W31310  43.811   3.242   4.333
62970W        W31311   8.857  32.415   0.954
62971W        W31312  33.962   8.848   5.186
62972W        W31313   9.854  25.082  12.004
62973W        W31314   4.221  25.625   2.820
62974W        W31315   4.740  36.857  12.012
62975W        W31316  26.122  16.597   3.286
62976W        W31317  38.852  37.563   4.627
62977W        W31318  34.579   2.367  11.114
62978W        W31319  11.664  12.661   4.773
62979W        W31320  17.149   7.714  10.980
62980W        W31321  16.735  32.634   4.129
62981W        W31322   5.388  32.616   1.751
62982W        W31323   7.206  29.516  11.017
62983W        W31324   1.764  32.404   0.364
62984W        W31325   5.303  28.007  11.929
62985W        W31326  37.034  35.500  12.093
62986W        W31327  43.959  18.771   9.575
62987W        W31328   1.920  10.659  11.542
62988W        W31329   7.213  32.624  11.595
62989W        W31330   5.816   4.312  12.859
62990W        W31331   5.314  26.039  14.384
62991W        W31332  44.375  35.900   3.378
62992W        W31333  23.733  15.262  12.529
62993W        W31334  20.634  12.844  13.312
62994W        W31335   2.858  25.078   4.665
62995W        W31336   9.359  20.530  11.593
62996W        W31337  19.099  27.448  13.427
62997W        W31338   7.773   7.199   4.696
62998W        W31339   9.263  18.581  12.398
62999W        W31340  26.115  18.268  10.479
63000W        W31341  37.499  19.758  12.908
63001W        W31342  20.687  33.052  12.983
63002W        W31343   4.231  13.662  12.935
63003W        W31344  36.564  44.883   2.229
63004W        W31345  11.713  26.194   0.867
63005W        W31346   3.262  41.493  10.573
63006W        W31347  41.509  16.156   0.307
63007W        W31348  44.449  41.459   4.275
63008W        W31349  30.099  43.793   2.700
63009W        W31350  22.740  35.865  14.865
63010W        W31351   2.889  13.204   0.284
63011W        W31352   8.304  11.226  11.870
63012W        W31353  40.502   6.862  14.827
63013W        W31354  20.191  28.612  10.422
63014W        W31355  33.004  27.961   2.892
63015W        W31356  21.749  25.590   4.211
63016W        W31357  27.111  27.968  14.495
63017W        W31358  41.470  29.960  11.515
63018W        W31359  21.216  26.470   3.299
63019W        W31360  36.032  17.124   0.860
63020W        W31361  34.001  13.713  14.784
63021W        W31362   6.808  18.584  14.993
63022W        W31363  27.004   1.254  13.319
63023W        W31364  19.139  20.268  12.434
63024W        W31365  39.843  24.004   4.220
63025W        W31366  41.488   8.380   1.401
63026W        W31367  37.856  22.679  14.969
63027W        W31368   7.763   6.259   3.295
63028W        W31369  38.001  26.499   2.278
63029W        W31370  42.353   6.209   2.768
63030W        W31371   1.345  37.581  14.355
63031W        W31372  26.552   4.239   3.773
63032W        W31373  36.890  36.579  11.927
63033W        W31374  39.869  16.205  14.901
63034W        W31375  13.675  42.995  11.069
63035W        W31376  12.778  22.163   0.910
63036W        W31377  42.788  28.057   2.684
63037W        W31378  13.292  21.741  10.486
63038W        W31379  13.325  29.148  12.377
63039W        W31380  20.170  31.420   2.789
63040W        W31381  16.772  24.604  13.388
63041W        W31382   5.826   3.291   0.821
63042W        W31383   9.388  31.998   2.882
63043W        W31384  30.948  20.755  14.420
63044W        W31385  38.456  31.432  11.414
63045W        W31386   3.241  21.654   4.119
63046W        W31387   9.330   4.439   1.388
63047W        W31388  20.049  27.109   1.748
63048W        W31389  24.636  29.634  11.446
63049W        W31390   2.263  25.101  10.900
63050W        W31391  28.505  10.692  11.946
63051W        W31392   6.203  18.105   2.740
63052W        W31393  21.522  26.544   5.137
63053W        W31394  39.990  31.938   3.738
63054W        W31395  17.108   5.275  10.958
63055W        W31396  24.594   7.871  10.501
63056W        W31397   5.348   2.807   4.789
63057W        W31398  35.012  11.202   4.205
63058W        W31399  19.749  42.359   3.239
63059W        W31400  15.271  41.370   4.228
63060W        W31401  14.332  29.486   3.809
63061W        W31402  23.618  25.592   1.730
63062W        W31403  16.616  34.957   9.994
63063W        W31404  28.186   8.398   1.910
63064W        W31405   7.286  40.453   2.747
63065W        W31406  38.997  10.876  12.882
63066W        W31407   3.954  37.484  10.899
63067W        W31408  33.895  39.841  14.777
63068W        W31409  19.626  31.429  12.562
63069W        W31410  27.650   6.712  14.477
63070W        W31411  13.241  36.369  13.864
63071W        W31412   2.950  28.019   3.765
63072W        W31413  32.038   9.245  12.928
63073W        W31414  24.561  25.159   2.281
63074W        W31415  17.299  42.488   1.908
63075W        W31416  10.698  39.455   4.123
63076W        W31417  21.540  14.652  11.105
63077W        W31418  26.108   7.859   4.252
63078W        W31419  12.130  23.716   2.310
63079W        W31420  36.362  31.443   4.279
63080W        W31421  16.589  34.113  14.495
63081W        W31422  22.160  35.013   4.318
63082W        W31423  27.648  20.573  14.390
63083W        W31424   5.254  18.664   1.374
63084W        W31425   1.289  40.314   3.288
63085W        W31426  12.260  34.921   1.425
63086W        W31427  39.461  32.124  11.006
63087W        W31428  10.203  26.639   4.208
63088W        W31429   3.401  23.647   3.354
63089W        W31430  36.539  28.178   1.256
63090W        W31431  24.139  30.007   3.377
63091W        W31432  36.352  11.272  11.425
63092W        W31433  41.890  39.480  11.413
63093W        W31434  43.874  18.644   5.298
63094W        W31435   7.782  13.705  13.509
63095W        W31436   6.253  38.488  12.973
63096W        W31437  40.458  33.531   0.350
63097W        W31438  30.561  23.514   0.780
63098W        W31439  24.538  12.831   4.692
63099W        W31440   7.777  35.399  14.771
63100W        W31441  37.528  28.639  13.009
63101W        W31442  24.217  29.477  11.376
63102W        W31443  15.778   9.685  14.950
63103W        W31444  37.864  19.268  14.319
63104W        W31445  34.586  24.633  11.510
63105W        W31446  12.687  20.746   1.810
63106W        W31447   8.797  18.679   3.318
63107W        W31448  18.671  28.558   3.652
63108W        W31449  15.259  36.916   0.910
63109W        W31450  37.391  38.392   2.365
63110W        W31451  43.367  15.178  10.944
63111W        W31452  23.615  32.912  14.359
63112W        W31453  22.140  32.396  14.418
63113W        W31454  25.643  44.985   4.249
63114W        W31455  25.476  17.120   3.278
63115W        W31456  41.898  25.991   2.289
63116W        W31457  25.521  17.763   5.138
63117W        W31458  25.217  24.161   0.460
63118W        W31459   6.846   6.829  13.922
63119W        W31460   7.194  26.558   3.324
63120W        W31461   1.400  38.990  14.929
63121W        W31462  32.021   0.808   3.174
63122W        W31463  20.717  34.452   4.246
63123W        W31464  14.619   2.765   3.798
63124W        W31465  12.131  24.069   1.870
63125W        W31466  30.471  36.023   0.883
63126W        W31467  18.096  35.477  12.068
63127W        W31468  24.096   7.272   4.291
63128W        W31469  22.511  24.669   2.903
63129W        W31470   9.350  29.083  14.857
63130W        W31471  44.796  16.191   0.827
63131W        W31472  35.599  40.472  13.365
63132W        W31473  27.449  15.708  12.454
63133W        W31474  22.589  23.730  13.447
63134W        W31475  20.690  41.839   2.229
63135W        W31476   3.805  21.029  13.867
63136W        W31477   4.891  18.119   1.254
63137W        W31478   8.233  30.434   4.323
63138W        W31479  11.826  43.478  12.439
63139W        W31480  36.071  29.150  14.945
63140W        W31481  30.087   5.910   3.708
63141W        W31482   5.289   1.908   2.837
63142W        W31483   4.360  44.424  10.892
63143W        W31484  10.341  38.326   1.255
63144W        W31485   3.878  24.500   0.385
63145W        W31486   4.261  20.236   4.822
63146W        W31487  32.472  19.636   3.649
63147W        W31488  29.140  43.829   3.366
63148W        W31489  13.318  34.508   0.826
63149W        W31490  33.910  25.016  11.861
63150W        W31491  29.615  41.525   2.219
63151W        W31492  24.173  10.878  12.915
63152W        W31493   2.230  24.101  14.900
63153W        W31494  37.899   1.793   3.160
63154W        W31495  13.645  41.409  10.553
63155W        W31496  40.007  41.838  14.503
63156W        W31497  12.804   7.696   3.686
63157W        W31498   7.759  23.116   3.270
63158W        W31499  36.912  40.368   3.351
63159W        W31500  30.470  21.149   4.213
63160W        W31501  36.888  31.565  13.388
63161W        W31502  41.445  36.488   2.856
63162W        W31503  39.490  15.126   1.438
63163W        W31504   7.342  24.501  12.399
63164W        W31505   8.712  31.096   1.229
63165W        W31506  13.110  27.603  14.913
63166W        W31507  22.688   2.836  13.044
63167W        W31508  12.344  24.570   4.649
63168W        W31509   3.778  37.367   5.132
63169W        W31510  41.328  19.754   0.784
63170W        W31511   3.845  35.090  13.316
63171W        W31512  24.599  36.487  10.566
63172W        W31513   0.369   2.951  10.918
63173W        W31514  22.121   4.838   0.472
63174W        W31515  43.911  21.251  12.978
63175W        W31516   1.779  27.497  14.353
63176W        W31517  34.082  39.537  10.965
63177W        W31518  13.630  29.541   4.195
63178W        W31519   9.746  19.100   1.296
63179W        W31520  11.356  33.529   3.263
63180W        W31521  13.672  18.618   3.762
63181W        W31522   6.278   0.924   0.734
63182W        W31523  14.252  10.279   0.886
63183W        W31524  32.487  42.991   5.103
63184W        W31525   9.193  24.997  12.024
63185W        W31526  42.817  19.077   4.162
63186W        W31527  15.306  36.029  10.566
63187W        W31528  37.835  25.539  12.510
63188W        W31529   4.235   4.230  12.854
63189W        W31530  37.542  41.441   4.238
63190W        W31531  34.035   9.803  13.865
63191W        W31532  34.024   6.207  13.935
63192W        W31533  12.803   5.306  13.837
63193W        W31534   0.963  15.257   0.455
63194W        W31535  15.153  28.022   4.216
63195W        W31536  10.318   5.386  10.912
63196W        W31537  17.252  36.895  13.370
63197W        W31538   6.705  10.867  11.098
63198W        W31539   1.945   3.447   2.413
63199W        W31540  31.006  40.989   0.758
63200W        W31541   0.266  20.227  11.962
63201W        W31542  43.007  36.855   3.821
63202W        W31543  13.794  20.767   3.813
63203W        W31544  38.001   7.203  10.575
63204W        W31545   3.312  11.741  11.881
63205W        W31546  37.068   4.725  14.805
63206W        W31547  12.755   1.947  14.392
63207W        W31548   4.864  43.282   2.252
63208W        W31549  32.067  44.491   2.243
63209W        W31550  30.613  20.216   5.274
63210W        W31551  36.483  32.980  12.927
63211W        W31552  28.993  17.730   2.310
63212W        W31553  18.566  34.063   4.644
63213W        W31554  25.069  15.321   2.376
63214W        W31555   9.846  26.077  11.082
63215W        W31556  36.915  28.003   3.660
63216W        W31557   6.220   6.275   0.754
63217W        W31558  30.010  31.525  12.441
63218W        W31559  24.162  32.965  12.082
63219W        W31560  24.136  29.020  10.908
63220W        W31561  18.703  21.555   3.281
63221W        W31562  30.450  25.011  10.546
63222W        W31563   5.893  15.811   4.277
63223W        W31564  30.450  34.551   1.840
63224W        W31565  26.543  11.326   4.295
63225W        W31566  16.175  18.684   2.775
63226W        W31567  32.905  43.349   1.810
63227W        W31568  26.515  31.100   3.826
63228W        W31569   4.752  43.781  11.916
63229W        W31570   6.248  17.238   1.234
63230W        W31571  16.682   1.241  13.903
63231W        W31572  43.478   9.859  14.385
63232W        W31573   7.303  35.022   0.325
63233W        W31574  15.821  13.694  11.921
63234W        W31575   1.283   7.396   3.186
63235W        W31576  16.119   6.918  12.962
63236W        W31577  29.054  24.490  11.866
63237W        W31578  39.014  13.184  10.940
63238W        W31579  16.581   7.196   4.338
63239W        W31580  28.137  16.703  13.002
63240W        W31581  43.819   9.188   3.199
63241W        W31582  40.805  19.539   3.308
63242W        W31583  15.221   4.706  10.570
63243W        W31584  18.726  26.552   0.892
63244W        W31585  28.002  22.039  13.866
63245W        W31586   5.355  24.604  11.484
63246W        W31587  14.195  23.668   2.292
63247W        W31588  14.148  31.483   2.767
63248W        W31589  32.516  41.838  11.497
63249W        W31590  42.983  20.181  11.604
63250W        W31591   5.375  34.072  13.868
63251W        W31592  43.848  28.998   4.652
63252W        W31593   4.715  13.685  11.106
63253W        W31594  14.327  31.121  11.893
63254W        W31595  38.911  17.199   2.179
63255W        W31596  26.540  30.644  14.839
63256W        W31597  42.358  15.661   0.861
63257W        W31598  42.453  17.086  14.494
63258W        W31599  41.465  40.511  10.498
63259W        W31600  26.031  39.989  11.391
63260W        W31601  17.266   2.324  14.410
63261W        W31602  30.120  14.789   0.387
63262W        W31603   7.691  39.321  11.379
63263W        W31604   4.315  28.035  11.395
63264W        W31605  38.019  10.162   0.966
63265W        W31606  42.855  34.916  12.480
63266W        W31607  39.991  42.339  11.390
63267W        W31608  23.147  27.073  11.407
63268W        W31609  18.698  42.825  10.139
63269W        W31610  28.600  43.872  13.968
63270W        W31611  34.078  29.068   3.800
63271W        W31612   3.859  38.838   1.853
63272W        W31613   8.375  15.695  12.389
63273W        W31614  25.964  28.185  14.022
63274W        W31615   9.392  14.132  10.511
63275W        W31616  17.707   3.447   4.734
63276W        W31617  11.750   6.784   2.730
63277W        W31618  26.484  34.031   0.464
63278W        W31619  34.109  28.599  14.960
63279W        W31620  19.268  23.692  12.829
63280W        W31621   6.424  15.187   3.774
63281W        W31622   9.363  23.236   0.272
63282W        W31623  22.015   1.373  12.017
63283W        W31624   0.337  18.712  10.102
63284W        W31625   8.740  22.659  14.346
63285W        W31626   9.345  12.727   4.159
63286W        W31627  25.681  31.472   4.696
63287W        W31628  33.106   3.847  13.001
63288W        W31629  14.325  25.190  12.566
63289W        W31630  13.708  38.964  13.057
63290W        W31631  17.764   3.923  12.878
63291W        W31632  19.690   7.735  12.525
63292W        W31633   5.745   6.718  12.849
63293W        W31634   1.480  16.145   4.645
63294W        W31635  12.182  20.675   1.425
63295W        W31636  19.652   8.338   0.781
63296W        W31637   3.923   4.765   0.419
63297W        W31638  29.006  34.977   1.227
63298W        W31639  39.053  17.207  13.313
63299W        W31640   3.756  21.098   1.782
63300W        W31641   6.740   7.227  10.546
63301W        W31642  35.423  34.095   3.843
63302W        W31643  13.340  18.226   0.739
63303W        W31644   1.760   0.929  12.397
63304W        W31645  25.610  44.968  11.038
63305W        W31646   8.354  11.286   1.895
63306W        W31647  10.183  21.172   4.353
63307W        W31648  37.573  40.413  12.347
63308W        W31649  39.313  40.864   5.174
63309W        W31650  22.161  16.633   9.977
63310W        W31651  43.395  23.206  11.110
63311W        W31652  28.512  23.595  14.393
63312W        W31653  36.009  10.145  12.549
63313W        W31654  29.476  22.742   2.200
63314W        W31655  42.946  17.668   3.284
63315W        W31656   6.217   7.175   0.372
63316W        W31657  34.102   1.890  13.314
63317W        W31658   5.382   2.322  12.362
63318W        W31659  23.990   9.365   1.250
63319W        W31660  17.107  26.956   4.761
63320W        W31661   6.795  12.165   1.844
63321W        W31662   3.808   8.384  10.645
63322W        W31663  16.261  20.740   0.735
63323W        W31664  16.133  18.655   3.377
63324W        W31665  35.874   7.738  12.854
63325W        W31666  14.755  24.170   2.854
63326W        W31667  21.735  35.361  14.993
63327W        W31668   2.241  38.023   3.235
63328W        W31669  10.845  28.929  12.891
63329W        W31670  24.149  18.181   2.292
63330W        W31671  37.977   2.398   0.733
63331W        W31672   6.711   7.889   3.360
63332W        W31673  16.813  15.680  13.007
63333W        W31674  32.904  13.797  14.979
63334W        W31675  12.783  39.549   1.381
63335W        W31676  34.057  13.755   4.194
63336W        W31677  15.691  14.269   3.264
63337W        W31678   6.889  20.614  11.894
63338W        W31679   5.845  21.033   3.264
63339W        W31680  30.506  21.117  10.900
63340W        W31681  31.424  18.234   1.352
63341W        W31682  26.522  27.639  12.046
63342W        W31683  27.042  18.645  13.025
63343W        W31684   9.757  42.831   2.400
63344W        W31685  16.232  24.539  13.522
63345W        W31686  34.399  33.057  12.350
63346W        W31687  13.636  42.941  14.878
63347W        W31688  17.748  42.969   0.391
63348W        W31689  18.565  18.073  13.401
63349W        W31690  37.573  14.116   3.645
63350W        W31691   0.453  44.793   4.741
63351W        W31692  29.025  16.753   4.159
63352W        W31693  38.492   7.667   1.361
63353W        W31694  32.485  15.207   0.881
63354W        W31695  16.759  14.599  14.926
63355W        W31696  35.958  39.390   0.473
63356W        W31697  21.017  42.487  11.887
63357W        W31698  39.930   7.874  10.450
63358W        W31699  41.816  27.626   3.303
63359W        W31700  29.616  26.140  11.513
63360W        W31701  44.904   7.312   0.282
63361W        W31702  17.562  18.272   0.792
63362W        W31703  26.567  10.271  11.575
63363W        W31704   7.840  26.506   2.303
63364W        W31705  34.922  34.996   5.269
63365W        W31706   4.840  31.897   2.362
63366W        W31707  17.081  24.186  14.369
63367W        W31708  26.557  28.624   0.356
63368W        W31709   6.780  28.965   1.270
63369W        W31710  40.023  18.096   3.311
63370W        W31711  27.454  26.989  11.110
63371W        W31712   3.747  24.039   0.872
63372W        W31713  19.721  44.815   2.414
63373W        W31714  25.007  34.379   1.864
63374W        W31715  29.066  24.506   1.355
63375W        W31716  25.049  36.960   1.833
63376W        W31717  17.635  14.674  12.480
63377W        W31718  26.489  18.709  13.003
63378W        W31719  24.187  31.056  12.849
63379W        W31720  24.075  28.586  13.336
63380W        W31721  22.530   5.879  10.521
63381W        W31722  33.106  17.238  14.500
63382W        W31723  44.849  36.572   3.630
63383W        W31724  17.610  44.331   0.946
63384W        W31725  44.937  41.357  11.581
63385W        W31726  25.180  13.630   0.391
63386W        W31727  43.300  41.790   2.839
63387W        W31728  23.080  23.162   1.921
63388W        W31729  19.066  11.806  14.835
63389W        W31730  28.080  44.410   3.291
63390W        W31731   9.353   9.758   3.730
63391W        W31732  20.101  25.628  11.609
63392W        W31733  14.622  11.771   3.227
63393W        W31734  24.591  13.222   1.921
63394W        W31735  20.639  27.477  10.915
63395W        W31736  17.279  14.174   5.179
63396W        W31737  24.669  17.722   0.864
63397W        W31738  17.111  23.572   9.556
63398W        W31739  16.680  16.647   2.724
63399W        W31740  14.188  10.260   1.347
63400W        W31741  22.129  40.029  13.373
63401W        W31742   1.319  21.718   3.762
63402W        W31743  26.647   3.339   3.682
63403W        W31744  28.104  25.611  13.348
63404W        W31745  12.198  41.337   3.836
63405W        W31746   4.726  18.787  10.099
63406W        W31747   5.215  15.604  13.986
63407W        W31748  30.615  31.094   5.102
63408W        W31749  17.231  31.456  10.416
63409W        W31750   0.974  26.147  14.008
63410W        W31751   2.444  41.443  13.813
63411W        W31752   9.872   2.329   0.279
63412W        W31753  38.335  23.110  14.949
63413W        W31754  14.156   8.386  13.482
63414W        W31755  10.207  18.715  13.521
63415W        W31756   2.330  30.129   3.772
63416W        W31757   2.887  32.908  14.461
63417W        W31758  29.446  44.265   3.233
63418W        W31759  31.149   1.792   1.830
63419W        W31760  26.508  25.691  14.320
63420W        W31761  30.957   6.697   2.214
63421W        W31762  35.400  37.444  13.381
63422W        W31763  26.598  42.987  14.796
63423W        W31764  23.094  19.116  11.379
63424W        W31765   7.750  18.259   0.958
63425W        W31766  44.480   0.965   5.226
63426W        W31767  32.889   2.804  10.986
63427W        W31768   8.756  40.399   3.173
63428W        W31769  30.568  44.461   2.899
63429W        W31770   6.407  20.264   1.216
63430W        W31771   3.916  25.526   3.165
63431W        W31772  40.875  31.580  13.544
63432W        W31773  11.771  24.685  14.292
63433W        W31774  43.825  43.432   0.831
63434W        W31775   4.380  20.610   1.866
63435W        W31776  32.498   6.304  12.953
63436W        W31777  20.680   8.295   0.807
63437W        W31778  36.889  10.341   0.475
63438W        W31779  28.962  26.636   1.746
63439W        W31780  16.231   6.861   0.414
63440W        W31781  44.289  33.497  13.902
63441W        W31782  18.250   8.742  11.873
63442W        W31783  31.074  14.201  12.486
63443W        W31784   8.208  40.844  13.917
63444W        W31785  28.162  32.471  13.014
63445W        W31786   2.811  22.242  11.415
63446W        W31787  42.886  30.472   2.796
63447W        W31788   5.928  18.564   0.450
63448W        W31789  21.587  32.042  11.429
63449W        W31790  29.442  44.313  11.391
63450W        W31791  31.100   1.290  13.042
63451W        W31792   0.774  33.465  11.934
63452W        W31793   8.705  28.465  10.916
63453W        W31794   1.881   2.910   2.759
63454W        W31795  18.283  33.914   5.575
63455W        W31796  11.709  25.639   2.715
63456W        W31797  24.216  36.542   2.274
63457W        W31798  24.145  20.613   4.303
63458W        W31799  17.198  17.228   0.362
63459W        W31800  43.275   4.361   1.729
63460W        W31801   8.744  12.256   0.328
63461W        W31802   9.694  38.944  13.833
63462W        W31803   0.284  25.691  12.372
63463W        W31804  23.556  26.111   3.852
63464W        W31805  40.446  15.279  13.969
63465W        W31806  43.301   9.844  12.091
63466W        W31807  17.789  23.182   4.628
63467W        W31808  13.164   9.300   3.301
63468W        W31809   4.250  25.047   3.691
63469W        W31810  30.590  12.617  13.324
63470W        W31811  17.269  26.558  12.063
63471W        W31812  44.410  25.605  13.898
63472W        W31813  38.494  43.311   5.766
63473W        W31814  34.387   9.774  13.869
63474W        W31815   6.866  41.954  12.563
63475W        W31816  37.580  38.395   2.759
63476W        W31817   3.299  27.598   3.795
63477W        W31818  11.814  28.962   3.700
63478W        W31819  40.905   8.708  12.562
63479W        W31820   0.336   7.216   1.838
63480W        W31821  17.771  35.598  10.526
63481W        W31822  32.943  40.928   0.828
63482W        W31823  19.100  39.051  14.883
63483W        W31824  29.142  33.102   1.851
63484W        W31825  16.795  22.162  12.072
63485W        W31826  25.120   9.766   0.845
63486W        W31827  37.436  14.225  13.042
63487W        W31828  14.608   1.281   0.264
63488W        W31829  33.910  33.537  13.936
63489W        W31830   0.883  21.537  10.611
63490W        W31831   6.298  34.556   4.658
63491W        W31832   4.906   5.228   3.823
63492W        W31833   5.934  36.062  10.436
63493W        W31834  22.059  36.499  14.316
63494W        W31835  14.261  29.004   0.263
63495W        W31836   5.880  12.284   1.904
63496W        W31837  16.180  20.589  11.074
63497W        W31838   6.316  18.073  12.532
63498W        W31839  13.844  31.581  14.488
63499W        W31840  34.519   5.726  13.890
63500W        W31841   4.855  11.200   2.677
63501W        W31842  28.158  32.071   0.900
63502W        W31843  10.793  26.629   4.835
63503W        W31844  33.009  17.609  11.038
63504W        W31845  11.846  22.181   4.272
63505W        W31846  35.037  21.121   0.448
63506W        W31847  20.661  37.053  14.848
63507W        W31848  41.373  35.078  10.480
63508W        W31849  38.922  23.666  14.816
63509W        W31850  34.948  27.503  11.393
63510W        W31851  41.793  15.624   3.373
63511W        W31852  44.758  21.180  11.021
63512W        W31853  10.183   1.874  10.080
63513W        W31854  25.082  25.074   4.633
63514W        W31855  22.668  38.897  14.784
63515W        W31856  26.178  21.701  12.508
63516W        W31857  42.861  30.992  11.122
63517W        W31858  13.324   3.781  11.969
63518W        W31859   3.418   2.255   5.243
63519W        W31860  11.650   0.934   2.348
63520W        W31861  12.620   4.753  12.409
63521W        W31862  34.911   6.222   1.237
63522W        W31863  14.771  40.450   2.830
63523W        W31864  13.270  16.679   4.741
63524W        W31865  31.622  34.426   2.811
63525W        W31866  17.722   4.303  10.482
63526W        W31867  17.795  11.264  12.947
63527W        W31868  23.630  27.098   5.170
63528W        W31869  31.991  33.493  13.022
63529W        W31870  22.636  32.491  12.471
63530W        W31871  38.536  35.053   4.247
63531W        W31872  37.426  28.051   2.227
63532W        W31873   2.911  16.649  14.897
63533W        W31874  21.669   8.229  14.759
63534W        W31875  31.051  12.312  14.923
63535W        W31876  21.571  21.722   3.320
63536W        W31877   4.445   2.388  11.488
63537W        W31878   4.305   3.805  14.328
63538W        W31879  27.196  29.928  10.939
63539W        W31880  18.661  44.943   4.760
63540W        W31881  18.765  33.120   3.285
63541W        W31882   5.814   3.893  12.499
63542W        W31883  18.791  44.806  12.398
63543W        W31884   1.265   0.849   2.859
63544W        W31885  25.660   8.277   1.358
63545W        W31886  26.559  16.290  11.392
63546W        W31887  33.047  24.500  11.939
63547W        W31888  38.527  32.623   2.759
63548W        W31889  20.150   2.755  14.826
63549W        W31890  21.617  26.208  12.851
63550W        W31891  15.808  20.140   4.253
63551W        W31892  35.855  13.265   1.227
63552W        W31893   5.365  34.901  10.430
63553W        W31894  29.543  22.199   4.129
63554W        W31895  10.740  41.435   0.850
63555W        W31896  38.036  25.203   3.193
63556W        W31897  27.059   1.291  10.544
63557W        W31898  14.672  33.083   0.780
63558W        W31899  10.646  38.957   1.240
63559W        W31900  35.005   1.441   2.811
63560W        W31901   8.721  24.596   3.795
63561W        W31902   9.662   6.394   2.276
63562W        W31903  35.447  16.603   1.844
63563W        W31904  25.104   4.895  12.535
63564W        W31905  20.104  31.084   4.119
63565W        W31906   5.291  16.654   3.305
63566W        W31907  42.779  21.662   0.848
63567W        W31908  22.654  18.176  11.560
63568W        W31909  28.588   6.305   4.264
63569W        W31910  34.494  22.644   1.810
63570W        W31911   0.418  20.162   4.613
63571W        W31912  29.140  21.047  11.611
63572W        W31913  29.163   7.782   0.796
63573W        W31914  26.690  28.145   1.245
63574W        W31915  19.648   2.433  12.908
63575W        W31916  20.661   6.833   0.421
63576W        W31917   8.328   1.732  13.906
63577W        W31918  29.935  40.400   2.417
63578W        W31919  27.495  33.515  13.806
63579W        W31920  27.608   4.909  13.413
63580W        W31921   8.776  38.542   0.939
63581W        W31922  25.568   1.305   0.390
63582W        W31923  34.519  13.632   1.711
63583W        W31924  44.504  38.416   0.843
63584W        W31925   7.847  43.874  11.021
63585W        W31926  44.355  28.032   4.208
63586W        W31927  39.919   8.861  12.856
63587W        W31928  44.757  44.912   0.772
63588W        W31929  37.080  14.117  13.801
63589W        W31930  15.695  38.914  14.951
63590W        W31931  16.220  31.105   4.130
63591W        W31932  34.882  25.158   1.832
63592W        W31933  34.497  10.697  13.956
63593W        W31934  30.517   7.408   0.303
63594W        W31935  30.139  24.001   1.756
63595W        W31936  19.588  28.436  12.553
63596W        W31937  30.980   9.878   3.671
63597W        W31938  14.684  13.821   2.766
63598W        W31939  13.310   6.737  13.020
63599W        W31940   0.853  33.490  14.277
63600W        W31941  44.316  25.705  12.429
63601W        W31942   0.480  16.188  13.359
63602W        W31943  35.050  24.561  13.801
63603W        W31944  10.351  29.552  12.990
63604W        W31945  15.184  29.554  11.408
63605W        W31946  31.960  31.550  11.474
63606W        W31947  39.020   1.967  13.866
63607W        W31948  32.627   7.891   1.377
63608W        W31949  27.067   2.914   4.737
63609W        W31950  22.222  27.068   2.282
63610W        W31951  43.987  43.902   4.320
63611W        W31952  24.560  12.794   4.119
63612W        W31953   5.254  22.630  14.485
63613W        W31954   5.859  43.841  13.481
63614W        W31955   1.316  11.717   2.783
63615W        W31956  27.100  25.021  11.046
63616W        W31957  21.609  44.863  13.821
63617W        W31958  28.673  24.066  11.609
63618W        W31959  39.911  18.290   0.318
63619W        W31960   7.723   7.392  10.613
63620W        W31961  29.547  31.043  14.911
63621W        W31962  38.502  34.086  11.435
63622W        W31963   9.371  23.567   2.285
63623W        W31964  10.333  23.686  12.533
63624W        W31965  44.875  25.664   4.116
63625W        W31966   9.773  14.307  11.026
63626W        W31967  21.236  26.145   3.752
63627W        W31968  11.354  33.975  12.342
63628W        W31969   2.917   2.772   2.285
63629W        W31970  14.205  38.998   3.170
63630W        W31971   7.699  15.760   2.343
63631W        W31972   3.812  27.537   1.756
63632W        W31973  37.993  38.491  10.928
63633W        W31974  28.452  18.791  12.027
63634W        W31975   8.380  37.050  13.544
63635W        W31976  33.412  28.583   1.931
63636W        W31977  39.856  16.717   2.194
63637W        W31978   8.250  44.875   2.712
63638W        W31979   0.488  40.541   3.176
63639W        W31980  26.577  21.545   4.138
63640W        W31981  16.767   5.250   2.394
63641W        W31982   2.447  13.809   3.648
63642W        W31983   9.277  39.314  13.965
63643W        W31984   9.880   0.396   2.721
63644W        W31985  43.516   6.753  11.396
63645W        W31986  36.355  32.024  13.870
63646W        W31987  30.433   2.307   5.309
63647W        W31988  32.428  17.293   2.667
63648W        W31989  41.849  38.907  13.991
63649W        W31990  27.509  33.952  11.601
63650W        W31991  24.542  39.043  11.057
63651W        W31992  25.540  10.138  10.643
63652W        W31993  43.367   2.722   0.255
63653W        W31994  15.625  22.068  12.405
63654W        W31995  10.167  20.534  11.474
63655W        W31996  12.279  39.880  14.449
63656W        W31997  25.471  42.341  12.428
63657W        W31998  21.216  44.492   5.259
63658W        W31999   8.792  38.908   3.203
63659W        W32000   1.809  10.744   3.283
63660W        W32001  10.737  39.502   1.352
63661W        W32002  15.160  39.988  11.871
63662W        W32003  41.029  43.384  11.467
63663W        W32004  44.813  23.047  14.797
63664W        W32005  33.419   8.848  10.933
63665W        W32006  27.677  38.548   4.773
63666W        W32007  30.111  32.999   2.262
63667W        W32008  26.064  13.817   2.404
63668W        W32009  43.790  11.304   4.605
63669W        W32010  40.876  44.979  12.561
63670W        W32011  26.557  13.816   2.776
63671W        W32012  43.944   1.331  12.071
63672W        W32013  37.989  38.893  14.007
63673W        W32014  31.619  23.680   0.275
63674W        W32015   7.405   9.201  10.539
63675W        W32016  28.128   3.883  10.421
63676W        W32017  13.826  20.133   3.640
63677W        W32018  35.944   8.669  13.984
63678W        W32019   3.864  15.699   3.675
63679W        W32020  20.527  12.816  12.028
63680W        W32021  22.705  23.118   0.962
63681W        W32022  21.232  40.010   4.217
63682W        W32023  20.677  40.462  12.994
63683W        W32024  37.490  35.394   1.782
63684W        W32025  30.540  44.777  14.846
63685W        W32026  23.506   9.149   4.806
63686W        W32027  34.610  31.099  12.869
63687W        W32028  34.516   7.331  12.095
63688W        W32029  24.589  34.953   4.795
63689W        W32030  35.860  11.253  14.024
63690W        W32031  16.707  24.566  11.015
63691W        W32032  23.137  12.707  14.297
63692W        W32033   0.921   1.935   5.278
63693W        W32034  19.596  36.488  13.399
63694W        W32035  22.613  25.558  10.618
63695W        W32036  11.367  35.044   4.332
63696W        W32037  24.136  10.688   2.781
63697W        W32038  31.524  11.675  12.964
63698W        W32039  25.649  28.547   2.383
63699W        W32040   3.787  15.194  13.934
63700W        W32041   5.741  28.463  12.006
63701W        W32042  16.119  19.583   2.387
63702W        W32043  43.911  37.999  13.395
63703W        W32044  39.555   4.759   4.726
63704W        W32045  22.136  33.110  12.540
63705W        W32046  16.800   1.351  13.382
63706W        W32047  19.592  32.133   2.224
63707W        W32048   9.169  19.550   1.332
63708W        W32049  24.511  33.483  14.513
63709W        W32050   0.483  18.135   9.497
63710W        W32051  40.544   8.687  11.859
63711W        W32052  14.822  37.907  10.890
63712W        W32053  42.857  19.598  13.516
63713W        W32054  29.058  43.871  13.973
63714W        W32055  22.602  19.734  13.992
63715W        W32056  10.269  30.526  14.370
63716W        W32057  36.015  25.009   4.661
63717W        W32058   5.828  31.642  12.950
63718W        W32059  25.602  26.072   2.203
63719W        W32060   8.841   0.294  11.875
63720W        W32061  41.495  14.759  14.494
63721W        W32062   8.697   5.369  11.556
63722W        W32063  10.139  40.327   3.858
63723W        W32064   0.481  28.028   4.704
63724W        W32065  22.712  43.930  12.477
63725W        W32066  21.554  28.471  11.517
63726W        W32067   0.355  39.525  11.880
63727W        W32068  40.945  41.966  14.423
63728W        W32069  26.471  25.087  14.031
63729W        W32070   3.247  30.568  10.975
63730W        W32071   8.272  19.753   1.822
63731W        W32072   7.356  31.092   0.727
63732W        W32073  10.821  25.686   0.864
63733W        W32074  38.842  24.006  10.574
63734W        W32075  37.846  40.325   2.207
63735W        W32076  16.774  41.834  10.945
63736W        W32077  34.916  15.724   0.277
63737W        W32078   6.295  23.498  10.972
63738W        W32079  42.905  23.026   3.276
63739W        W32080  19.150  22.152   2.404
63740W        W32081   2.897   3.820   0.741
63741W        W32082  25.507  19.545   3.691
63742W        W32083  43.335   6.267   2.876
63743W        W32084  37.831  14.736   2.768
63744W        W32085  36.877  42.805   2.338
63745W        W32086  29.509   9.763  12.867
63746W        W32087   1.794  35.475  12.055
63747W        W32088  17.778  21.047  14.819
63748W        W32089  36.411  22.156   3.817
63749W        W32090  29.630  16.184  13.465
63750W        W32091  37.405  24.135   2.379
63751W        W32092  32.471  28.578   2.858
63752W        W32093  33.090   4.920   2.853
63753W        W32094  14.741  38.377  12.375
63754W        W32095  20.221  32.435  14.499
63755W        W32096  10.202   5.354   3.662
63756W        W32097  37.055  37.938   0.830
63757W        W32098   6.407  39.361   3.656
63758W        W32099  44.943  22.121  11.418
63759W        W32100  40.461   3.439  11.049
63760W        W32101  26.516  20.129   2.804
63761W        W32102  20.549  33.423   3.379
63762W        W32103   0.416   5.859  13.310
63763W        W32104  11.334  38.490   4.277
63764W        W32105  22.641  23.567   4.799
63765W        W32106  41.894  21.079  10.640
63766W        W32107   4.395  10.815  14.815
63767W        W32108  10.696  24.653  13.897
63768W        W32109  12.190   6.720  12.043
63769W        W32110  42.445  28.028  12.536
63770W        W32111  16.255   8.226  12.852
63771W        W32112  30.014   4.826  14.991
63772W        W32113  22.705   5.363  12.944
63773W        W32114  25.100  13.835   3.748
63774W        W32115  13.138   6.370   3.308
63775W        W32116  24.650  33.566   2.298
63776W        W32117  18.171  37.409   2.760
63777W        W32118  13.317   1.783  11.082
63778W        W32119  35.887  38.035   1.765
63779W        W32120  41.020  43.900  12.836
63780W        W32121  12.362  34.920  12.930
63781W        W32122  32.929  15.229   0.342
63782W        W32123  14.822  40.398   1.344
63783W        W32124  35.934  19.121   3.169
63784W        W32125   5.290  12.304  12.007
63785W        W32126   0.933  25.548  13.892
63786W        W32127  15.304  13.159  11.422
63787W        W32128  16.304   3.765  11.018
63788W        W32129  15.308  29.010  11.452
63789W        W32130   1.423  18.166  11.951
63790W        W32131  33.429   0.880   0.353
63791W        W32132  27.565  10.868  13.449
63792W        W32133  43.830   1.448   2.666
63793W        W32134  42.446  24.113  13.452
63794W        W32135  22.685  32.416  12.059
63795W        W32136  10.706   7.351   3.856
63796W        W32137   6.738  28.651   2.856
63797W        W32138  39.367   1.268  12.050
63798W        W32139  34.005  32.924   2.899
63799W        W32140  12.278   3.328  11.381
63800W        W32141  23.675  22.572  10.627
63801W        W32142  28.599  33.902   4.223
63802W        W32143  25.170  39.814  10.515
63803W        W32144  36.567  26.143   4.343
63804W        W32145  17.800  36.945   1.297
63805W        W32146  10.802  26.024  10.522
63806W        W32147  28.036  27.975   3.863
63807W        W32148  40.012  14.741   4.206
63808W        W32149  32.948  14.181   2.773
63809W        W32150  21.208  31.099  10.488
63810W        W32151  25.582  16.730  13.310
63811W        W32152  44.895  29.155  14.347
63812W        W32153  14.627   3.882  12.357
63813W        W32154  17.752  43.482   4.180
63814W        W32155  10.267  37.469   1.284
63815W        W32156  30.590  22.056   4.308
63816W        W32157  18.150  15.611   3.852
63817W        W32158  43.871  35.871   1.896
63818W        W32159  10.692   7.891  13.412
63819W        W32160  27.494  10.283  12.407
63820W        W32161   9.152  14.723   2.402
63821W        W32162   4.787  38.874   1.706
63822W        W32163  34.563  38.447  13.014
63823W        W32164  10.185   7.302   0.394
63824W        W32165   6.820  14.159  11.591
63825W        W32166  21.555  22.505   0.793
63826W        W32167  18.295  20.209  12.344
63827W        W32168  25.687  16.598  14.287
63828W        W32169  11.776  37.364  11.531
63829W        W32170  11.234   3.260  12.550
63830W        W32171   8.759  23.491  11.383
63831W        W32172  16.241  12.721   2.840
63832W        W32173  11.845   4.785  10.010
63833W        W32174  40.987  30.026  13.963
63834W        W32175  10.276  23.700  13.001
63835W        W32176  13.716   7.407   2.895
63836W        W32177  20.109  40.045  14.510
63837W        W32178  39.444  36.489   4.830
63838W        W32179  39.057  38.932   1.921
63839W        W32180  31.560  26.138   1.439
63840W        W32181  28.994  15.583   0.374
63841W        W32182  25.994  38.481   3.711
63842W        W32183  35.447  18.121  14.408
63843W        W32184  21.548  26.040   2.874
63844W        W32185   4.733  31.407  14.765
63845W        W32186   6.738  15.151   1.283
63846W        W32187   6.339  34.515  12.896
63847W        W32188  37.026  11.631  10.635
63848W        W32189  20.594  41.313  13.401
63849W        W32190  30.643  30.052   2.370
63850W        W32191   7.408   5.194  14.472
63851W        W32192  21.724  36.084  13.431
63852W        W32193  10.783  43.452  14.465
63853W        W32194  13.265  29.036   0.736
63854W        W32195  38.385   6.903   1.893
63855W        W32196  14.109  40.884   0.910
63856W        W32197   9.340   4.908  13.912
63857W        W32198  32.396  39.374  12.993
63858W        W32199  38.353  19.686  11.887
63859W        W32200  34.413  25.680  11.566
63860W        W32201  21.058  39.445   2.693
63861W        W32202  36.068  39.543  10.904
63862W        W32203  39.364  22.157   2.776
63863W        W32204  30.934  38.337  12.353
63864W        W32205  20.187  28.088   3.650
63865W        W32206  43.965  42.326   3.682
63866W        W32207  43.395  16.704  13.043
63867W        W32208  33.509   8.740  11.540
63868W        W32209  21.689  15.603   0.315
63869W        W32210   5.265  37.915  13.391
63870W        W32211  29.984  32.571  10.641
63871W        W32212  23.687  27.109  13.837
63872W        W32213   4.698  35.007   9.952
63873W        W32214  36.953  19.604  10.941
63874W        W32215  31.951   9.156  13.345
63875W        W32216  22.036  36.560  13.478
63876W        W32217   1.758  36.581  10.910
63877W        W32218  29.986  33.962   4.279
63878W        W32219  18.693   9.831   0.875
63879W        W32220  18.110  41.810   3.156
63880W        W32221  42.373  28.075   0.961
63881W        W32222   2.891   2.331   4.320
63882W        W32223   4.244  43.372   0.744
63883W        W32224   2.343  31.552   1.869
63884W        W32225  38.419  22.122   2.232
63885W        W32226  14.600   8.217  12.485
63886W        W32227  18.545  18.760   0.918
63887W        W32228  32.406  13.210  13.990
63888W        W32229  44.389   9.800   2.385
63889W        W32230  43.009  16.629  14.429
63890W        W32231  23.609  41.881  12.422
63891W        W32232  35.885  30.598   0.859
63892W        W32233  21.581   3.713  12.915
63893W        W32234   4.883  12.611  11.031
63894W        W32235   4.762  34.060  14.030
63895W        W32236  32.591  22.034   0.329
63896W        W32237  25.531  13.844   1.778
63897W        W32238  14.177  30.038  14.339
63898W        W32239  20.750  25.110  14.779
63899W        W32240   7.212  12.716  10.413
63900W        W32241  21.087   0.893  11.895
63901W        W32242   1.747  21.223   1.289
63902W        W32243  32.437  39.348   5.574
63903W        W32244  12.311  32.450   1.805
63904W        W32245   9.331   2.823   2.818
63905W        W32246  15.619   5.712  13.881
63906W        W32247  34.117  37.054  11.532
63907W        W32248   5.193  27.642  11.609
63908W        W32249  32.012  26.501  14.908
63909W        W32250  32.008  20.643  10.603
63910W        W32251  44.416  17.264   4.760
63911W        W32252  27.123  10.182  14.971
63912W        W32253  42.981   3.807  13.973
63913W        W32254  15.270  39.050   9.623
63914W        W32255  41.514  25.214   1.384
63915W        W32256  13.812   0.746  12.458
63916W        W32257  40.827  26.630  14.376
63917W        W32258  30.494  34.602   2.346
63918W        W32259  33.580  31.613  10.480
63919W        W32260  17.704  34.479  11.568
63920W        W32261  27.661  30.541   3.752
63921W        W32262  22.573  40.538   4.618
63922W        W32263   0.402  24.013  14.979
63923W        W32264  18.769  24.651   2.268
63924W        W32265  18.071  16.709   0.465
63925W        W32266  12.140  20.685  10.952
63926W        W32267  26.151  18.075   1.791
63927W        W32268  39.916  30.945  12.847
63928W        W32269  11.197   0.834  12.074
63929W        W32270  14.165   5.774  11.967
63930W        W32271  10.683  30.913  14.353
63931W        W32272   1.865  17.780   2.680
63932W        W32273   9.282   3.265   0.450
63933W        W32274  33.076   1.483  11.094
63934W        W32275  25.625  38.398  14.478
63935W        W32276  41.387  11.824   2.299
63936W        W32277  25.212  40.445   0.354
63937W        W32278  11.277  12.233  10.426
63938W        W32279   4.303  20.093  14.355
63939W        W32280  34.036  43.826  12.555
63940W        W32281  31.984   1.383   4.825
63941W        W32282   8.733  18.109  14.434
63942W        W32283  32.898  42.802   4.327
63943W        W32284  22.147  38.410  14.927
63944W        W32285   4.413   5.689   0.804
63945W        W32286  30.632   2.305  14.456
63946W        W32287  16.181   7.809   2.357
63947W        W32288  19.744  31.040   1.721
63948W        W32289  13.246  37.087   4.689
63949W        W32290   8.215  26.993  14.340
63950W        W32291  22.196  14.297  11.964
63951W        W32292   1.739   8.717   3.787
63952W        W32293  28.068  35.467   1.741
63953W        W32294  41.037  16.281   3.732
63954W        W32295  15.201  19.241  10.581
63955W        W32296  24.570  17.158  10.600
63956W        W32297  18.640  37.365   4.691
63957W        W32298   9.320  36.356  14.997
63958W        W32299  24.005  22.677   1.402
63959W        W32300  38.957  10.375   2.227
63960W        W32301  15.795  42.027   0.264
63961W        W32302  43.970  16.757  11.452
63962W        W32303  16.664   0.953   2.197
63963W        W32304   6.704   3.821  12.896
63964W        W32305  38.398  35.390   4.729
63965W        W32306  15.172  31.118   4.672
63966W        W32307  42.816  10.156   2.745
63967W        W32308  29.659  12.301  11.985
63968W        W32309  32.542  24.501  14.941
63969W        W32310   4.325   3.444  11.123
63970W        W32311   5.884   3.303  14.944
63971W        W32312  23.130  38.492  11.054
63972W        W32313  29.992  11.183   1.795
63973W        W32314   4.260  24.534   0.832
63974W        W32315  44.379  35.524   2.262
63975W        W32316   9.856  34.931   1.329
63976W        W32317  19.080  36.458  11.873
63977W        W32318  18.268   3.409  14.941
63978W        W32319  33.460  14.122  12.956
63979W        W32320  26.511  34.551   2.873
63980W        W32321  11.806  17.792   4.151
63981W        W32322  18.207   5.754   0.468
63982W        W32323  35.073  14.742   4.124
63983W        W32324   6.264  15.710  13.414
63984W        W32325   3.275  27.064   4.830
63985W        W32326  16.236  17.226   4.162
63986W        W32327  35.877   5.421  10.509
63987W        W32328  27.095  40.039  13.536
63988W        W32329  35.413  11.706  13.996
63989W        W32330  23.016  19.143   3.348
63990W        W32331  42.906  24.613  12.904
63991W        W32332  16.604  31.135  13.958
63992W        W32333  31.538  42.410   5.154
63993W        W32334  21.537  20.589   4.811
63994W        W32335   8.751  19.538  10.523
63995W        W32336  24.120  28.970   3.163
63996W        W32337  43.950  20.648   0.855
63997W        W32338  43.911  34.867   2.390
63998W        W32339  17.296  24.653  14.788
63999W        W32340  15.143  30.598  10.569
64000W        W32341   5.805   3.896   4.670
64001W        W32342  38.846   8.303   3.802
64002W        W32343  37.488  23.151  12.057
64003W        W32344  20.250  39.351   4.619
64004W        W32345  37.085  36.884  13.970
64005W        W32346  31.565   9.256   4.332
64006W        W32347  35.580  30.916  12.458
64007W        W32348  37.573  12.265   1.706
64008W        W32349  42.881  34.895   4.613
64009W        W32350  17.631  11.222  11.528
64010W        W32351  28.469  32.964  14.896
64011W        W32352  39.910   2.366  14.922
64012W        W32353  26.194   0.413   2.403
64013W        W32354  28.093  38.924  14.299
64014W        W32355  23.097  16.203  11.062
64015W        W32356  30.914  20.241   2.712
64016W        W32357   7.898  12.311   0.374
64017W        W32358  21.042  32.598  12.504
64018W        W32359  33.061  29.472   0.899
64019W        W32360  26.051  34.901  12.088
64020W        W32361   5.773  18.664   1.449
64021W        W32362  20.632  11.664  12.536
64022W        W32363  22.586  12.286   0.910
64023W        W32364  15.793  20.719  12.881
64024W        W32365  16.181  24.164  13.364
64025W        W32366  24.199  44.339   0.835
64026W        W32367  18.124  32.930   1.386
64027W        W32368  39.543   0.394   1.403
64028W        W32369  24.195   5.194  11.117
64029W        W32370  32.577  34.376   3.275
64030W        W32371  23.614  30.121   3.184
64031W        W32372  33.466  27.179  14.293
64032W        W32373   5.292  39.954  11.013
64033W        W32374   8.845  23.531   1.333
64034W        W32375  22.575   5.772   3.760
64035W        W32376   1.920  43.448   4.255
64036W        W32377   1.752  44.831   3.313
64037W        W32378   7.259  33.076  10.984
64038W        W32379  34.959  44.444   0.825
64039W        W32380  16.781  39.966   3.736
64040W        W32381  30.454  36.473   2.898
64041W        W32382  26.172   2.322   1.311
64042W        W32383  10.149  37.038   1.786
64043W        W32384  15.163  12.226  11.909
64044W        W32385  36.849  19.614   0.792
64045W        W32386  29.625  29.657  11.067
64046W        W32387   9.734  22.220   2.271
64047W        W32388  36.948  23.067   3.266
64048W        W32389  17.219  44.401   0.817
64049W        W32390  29.142  16.642   0.462
64050W        W32391  42.424  44.276   3.669
64051W        W32392  37.845  21.100   3.682
64052W        W32393   3.388  23.690  11.457
64053W        W32394  36.954  10.635   4.772
64054W        W32395  39.545   4.309   4.197
64055W        W32396  11.343  14.168  12.992
64056W        W32397   4.872   3.254   0.314
64057W        W32398  27.542  22.233  12.003
64058W        W32399  19.751  40.312   4.678
64059W        W32400  24.124   5.320   4.608
64060W        W32401  21.518  25.133   4.144
64061W        W32402  39.350   3.383  14.964
64062W        W32403  41.843  12.773   4.722
64063W        W32404  15.222  43.833  11.975
64064W        W32405  40.312  40.991   2.371
64065W        W32406  40.915  23.519   1.773
64066W        W32407  15.762   6.396   2.890
64067W        W32408  44.266  32.111   3.706
64068W        W32409   4.915  32.597   0.265
64069W        W32410  42.403   7.254   2.332
64070W        W32411  18.709  23.011   2.327
64071W        W32412  22.075  10.225  14.470
64072W        W32413  36.486  37.572  14.508
64073W        W32414  11.302  21.098  14.466
64074W        W32415  14.296   3.349   5.237
64075W        W32416  39.396  12.164   0.785
64076W        W32417  39.886   1.748   1.867
64077W        W32418  18.155   9.172  13.463
64078W        W32419  35.052  12.763   5.299
64079W        W32420  14.277  40.471   2.852
64080W        W32421  35.976  40.885   4.792
64081W        W32422  30.642   5.740  13.907
64082W        W32423  28.095  38.029   9.928
64083W        W32424  12.248  30.009  10.580
64084W        W32425   1.417  41.477  14.836
64085W        W32426   9.713   9.194   0.288
64086W        W32427  16.267  15.580   1.315
64087W        W32428   7.761  15.171  14.320
64088W        W32429  42.903  12.168   0.794
64089W        W32430  35.490  32.527   4.253
64090W        W32431  11.274  19.779   2.670
64091W        W32432  31.930  40.032   2.191
64092W        W32433  30.930  15.724   3.341
64093W        W32434  30.130   8.180  12.432
64094W        W32435  30.910   1.359  12.049
64095W        W32436  43.893  23.634  14.760
64096W        W32437  24.154  10.798  11.989
64097W        W32438  10.349  39.546   1.386
64098W        W32439  20.551   2.887  14.418
64099W        W32440  39.053   3.314   2.808
64100W        W32441   7.911  27.118  14.302
64101W        W32442  20.030  30.054  12.066
64102W        W32443  39.432  20.133   3.351
64103W        W32444  20.195  31.148   1.257
64104W        W32445  22.157  44.474   4.632
64105W        W32446  29.090   9.662   2.270
64106W        W32447   0.856   5.242  11.448
64107W        W32448  16.739  22.656   2.867
64108W        W32449  14.171  37.923   1.422
64109W        W32450  43.300  25.473  10.605
64110W        W32451  42.387  42.828  12.875
64111W        W32452  37.467   3.773  10.624
64112W        W32453  31.135  21.020   2.392
64113W        W32454  10.681  34.459  14.381
64114W        W32455  26.101  17.696  11.475
64115W        W32456  25.571  37.486  10.590
64116W        W32457  27.602  26.489   3.659
64117W        W32458  17.195   3.245   0.923
64118W        W32459  38.882  27.945  10.967
64119W        W32460  29.994   8.345   0.344
64120W        W32461  14.677  10.273  13.312
64121W        W32462   0.820  21.614   1.852
64122W        W32463  28.167  30.500  11.441
64123W        W32464  44.767  15.587  14.887
64124W        W32465   1.301  33.980   4.183
64125W        W32466  36.031   9.157   3.247
64126W        W32467  38.926  20.164   0.776
64127W        W32468  17.227   8.329   2.818
64128W        W32469  17.661  13.740  13.835
64129W        W32470   2.748  35.886   4.709
64130W        W32471   6.704  25.547  14.391
64131W        W32472  43.791  10.717   1.795
64132W        W32473   1.334  37.505   0.480
64133W        W32474  20.087   7.823   0.911
64134W        W32475  29.100  17.109  12.057
64135W        W32476   0.411  27.176  11.431
64136W        W32477   9.863   2.902  13.361
64137W        W32478  38.432   1.952   3.361
64138W        W32479  32.393  37.976   3.210
64139W        W32480  38.521  19.613  14.356
64140W        W32481   2.901  37.902  13.547
64141W        W32482  26.569   9.741   4.298
64142W        W32483  18.107   7.799  12.989
64143W        W32484  18.697  25.970   4.797
64144W        W32485   8.690  23.001  11.430
64145W        W32486  40.509  28.478   2.698
64146W        W32487   2.284  12.696   4.755
64147W        W32488   6.368  36.522  13.426
64148W        W32489  44.356   1.298  12.931
64149W        W32490  28.607  17.165  14.475
64150W        W32491  29.464  23.633  11.973
64151W        W32492  40.510   9.155  12.546
64152W        W32493  43.368  36.931  11.542
64153W        W32494  25.547   4.304   2.416
64154W        W32495  24.151  17.576  14.859
64155W        W32496  24.043  26.963   3.350
64156W        W32497  27.576  10.207  14.814
64157W        W32498   0.823  12.664   1.435
64158W        W32499  15.587   1.471  14.826
64159W        W32500   0.822  44.774   4.261
64160W        W32501   8.758  33.929   0.252
64161W        W32502  31.526  29.003  14.022
64162W        W32503  19.158  21.730   9.523
64163W        W32504  37.911  13.748  14.802
64164W        W32505  13.612   1.247  10.968
64165W        W32506   3.242  41.360  13.822
64166W        W32507  28.171   7.370   4.261
64167W        W32508  40.873  30.075   2.853
64168W        W32509  26.977  38.485   4.159
64169W        W32510  28.947  18.551  11.448
64170W        W32511   5.284  44.901   1.868
64171W        W32512  38.397  23.573  12.840
64172W        W32513   4.888  29.945   2.244
64173W        W32514  38.379  42.410   2.846
64174W        W32515  34.048  35.387  12.998
64175W        W32516  44.839  26.662   4.282
64176W        W32517   1.763  32.598   3.750
64177W        W32518   6.235  44.487   2.749
64178W        W32519  22.635  15.091  11.096
64179W        W32520  26.664  18.579  13.810
64180W        W32521  16.133   9.269   3.704
64181W        W32522  37.851  11.314   2.892
64182W        W32523   3.346  21.119   0.466
64183W        W32524  26.058  22.248   4.181
64184W        W32525  39.399  27.585   4.259
64185W        W32526  17.113  40.849  11.477
64186W        W32527  43.426   8.756   5.271
64187W        W32528  30.061  17.221  11.093
64188W        W32529  25.496  24.581   3.712
64189W        W32530  11.668  10.696   1.785
64190W        W32531  22.632   5.257  11.447
64191W        W32532  43.926  30.058   2.712
64192W        W32533  40.835  22.226   1.274
64193W        W32534  35.570  25.001  13.031
64194W        W32535  23.199  36.887  12.077
64195W        W32536   7.257  19.236   4.260
64196W        W32537  17.251  30.999  11.556
64197W        W32538   8.734  40.883   0.294
64198W        W32539  15.596  40.047  13.981
64199W        W32540  36.970   7.684   0.824
64200W        W32541  14.662  33.996  11.397
64201W        W32542  34.950   8.765   1.400
64202W        W32543  36.089  35.992  12.455
64203W        W32544  31.627   9.271  14.958
64204W        W32545  39.486   3.278   4.223
64205W        W32546   8.679   7.816   0.781
64206W        W32547  23.135  14.594  11.562
64207W        W32548  41.926  35.597  11.071
64208W        W32549  41.315   9.653   1.884
64209W        W32550  35.923  19.739  13.008
64210W        W32551  20.224   8.334  13.034
64211W        W32552   6.887  23.505   2.392
64212W        W32553  25.167   5.397   0.737
64213W        W32554  25.114  22.999  12.057
64214W        W32555   1.240   9.839  13.318
64215W        W32556  25.196  12.304   1.858
64216W        W32557  10.804   9.781  10.610
64217W        W32558   7.903   0.895  14.892
64218W        W32559  21.647  35.073  12.971
64219W        W32560  12.796   1.369   4.643
64220W        W32561   4.350  30.579   4.634
64221W        W32562  36.481  28.078  13.904
64222W        W32563  26.096  31.898   1.335
64223W        W32564  16.085   4.273  12.345
64224W        W32565  41.798  38.561  11.597
64225W        W32566  24.670  18.082   4.283
64226W        W32567  22.221  28.155  13.793
64227W        W32568  17.194  34.591   0.932
64228W        W32569  30.118  42.482  14.884
64229W        W32570   6.288  30.152  12.925
64230W        W32571  38.985  40.518   4.670
64231W        W32572  30.134   3.450  12.054
64232W        W32573  34.101  36.009   2.721
64233W        W32574   7.411   7.379  14.026
64234W        W32575  25.146  26.009   3.725
64235W        W32576  42.851  32.601   3.276
64236W        W32577  37.995   4.247   1.911
64237W        W32578  30.006  24.177  12.066
64238W        W32579   9.348  30.542  10.634
64239W        W32580  32.502  15.642   1.447
64240W        W32581  44.803  44.843   4.630
64241W        W32582  15.758  37.842  13.497
64242W        W32583  28.065  15.818  12.934
64243W        W32584  44.299   7.364  11.464
64244W        W32585  19.075   0.436   0.380
64245W        W32586  35.929  15.632  12.881
64246W        W32587   2.859  27.020  11.924
64247W        W32588  28.607  19.750  11.410
64248W        W32589   5.793  38.024  10.900
64249W        W32590  25.178  34.894   2.676
64250W        W32591  18.707  10.702   3.810
64251W        W32592  43.911  28.545  12.431
64252W        W32593   1.879  31.119  11.918
64253W        W32594  19.563  42.780  10.158
64254W        W32595  26.485  28.957   1.450
64255W        W32596  10.790  28.584   0.730
64256W        W32597  22.600   8.194  11.489
64257W        W32598   8.161   6.281   4.169
64258W        W32599  37.441  15.326  14.938
64259W        W32600  28.588  33.575   1.347
64260W        W32601  18.255   8.242   4.717
64261W        W32602  42.964   5.330  13.874
64262W        W32603  18.150  24.090  11.560
64263W        W32604  36.548  11.664   0.820
64264W        W32605  25.994  30.149   1.732
64265W        W32606  23.705   5.236   1.312
64266W        W32607  11.718  14.691   1.240
64267W        W32608  28.051  39.842   3.191
64268W        W32609  34.116  15.694  13.475
64269W        W32610  21.575  41.988  11.386
64270W        W32611   4.254  27.606   2.342
64271W        W32612  13.335  44.906   0.278
64272W        W32613  30.095   5.438   2.264
64273W        W32614  18.665  43.773  11.551
64274W        W32615  35.896   1.873  13.367
64275W        W32616  44.960  22.109  12.379
64276W        W32617   6.185  41.849  14.762
64277W        W32618  37.946  43.380  14.399
64278W        W32619  27.667  43.864   2.400
64279W        W32620  27.535  32.613  10.411
64280W        W32621   9.379  17.277  12.956
64281W        W32622  37.925   1.250  13.500
64282W        W32623  28.093  39.382   0.346
64283W        W32624  42.788  12.201  13.897
64284W        W32625  31.634  32.002  14.901
64285W        W32626  27.942  17.778  11.587
64286W        W32627  16.142  11.295  13.448
64287W        W32628  10.376   1.879  13.425
64288W        W32629  18.744  11.326   1.724
64289W        W32630   4.794  21.215  13.796
64290W        W32631  44.285  12.696   4.335
64291W        W32632  16.159   9.790  13.405
64292W        W32633  19.090  43.981  11.868
64293W        W32634  33.961  38.988  11.456
64294W        W32635  26.507  10.634   3.752
64295W        W32636  39.959  15.656   2.853
64296W        W32637  22.102  24.033  12.887
64297W        W32638  23.991  31.616  12.441
64298W        W32639  41.498  12.321   0.360
64299W        W32640  23.512  21.054   0.291
64300W        W32641   8.743  16.735   1.306
64301W        W32642  24.166   4.743  12.542
64302W        W32643   9.202  41.506  10.427
64303W        W32644  19.691  10.169   1.356
64304W        W32645  26.614  25.122  11.573
64305W        W32646  39.370  29.524   4.826
64306W        W32647   8.668  24.034  12.856
64307W        W32648  38.424  29.476   0.350
64308W        W32649  13.667  28.461  11.045
64309W        W32650  39.814  28.675  14.933
64310W        W32651  18.559   2.283   3.349
64311W        W32652  27.528  39.913  11.893
64312W        W32653  20.712   6.864  10.613
64313W        W32654   1.847  16.762  10.979
64314W        W32655  34.890  17.068   2.270
64315W        W32656  16.289   9.743  12.826
64316W        W32657  12.834  24.040  13.472
64317W        W32658   5.359  36.357  10.915
64318W        W32659   9.304  35.992   1.850
64319W        W32660   2.411  22.183  10.951
64320W        W32661  16.272  38.548   1.816
64321W        W32662  22.106  16.122   4.239
64322W        W32663  36.439   8.361  11.465
64323W        W32664  27.095   1.275  13.891
64324W        W32665  42.930   0.849   5.136
64325W        W32666  18.711  34.017   2.408
64326W        W32667  41.803  14.148  12.523
64327W        W32668   5.707  22.206   4.776
64328W        W32669  18.643  38.839  12.934
64329W        W32670  25.701   0.958   3.827
64330W        W32671  31.131  16.771  11.064
64331W        W32672  38.913  19.153  13.911
64332W        W32673  18.630   4.354  11.529
64333W        W32674   0.462   0.834  12.538
64334W        W32675   2.936  19.609   0.253
64335W        W32676  18.619  36.982  14.408
64336W        W32677  16.222  32.410   4.686
64337W        W32678  34.060  28.167  12.980
64338W        W32679  35.410   5.411  10.492
64339W        W32680  10.853   6.346   9.922
64340W        W32681  41.872  29.580   3.774
64341W        W32682  33.544   5.213  12.442
64342W        W32683  44.765  39.401  11.587
64343W        W32684  22.577  29.963   3.849
64344W        W32685  25.596  42.884  14.474
64345W        W32686  13.147  13.635  11.610
64346W        W32687  16.809   6.844  13.956
64347W        W32688  28.954  33.433   2.863
64348W        W32689  26.628  43.349   4.832
64349W        W32690   9.339  44.304  13.027
64350W        W32691  43.338   1.274   4.305
64351W        W32692   9.829  33.013   0.434
64352W        W32693  27.571  42.283   0.387
64353W        W32694  14.288   3.377   4.629
64354W        W32695  44.350  23.509  13.021
64355W        W32696  39.978   3.940  12.053
64356W        W32697  23.214  16.770  12.519
64357W        W32698  36.997  13.700   4.282
64358W        W32699  15.685  10.181   3.738
64359W        W32700  16.214  43.491   3.646
64360W        W32701   2.472  25.506   0.308
64361W        W32702  16.197  20.752  12.865
64362W        W32703  44.986  29.143   3.162
64363W        W32704  29.172   5.777  14.430
64364W        W32705  16.176  38.005   0.366
64365W        W32706  37.390   1.764  12.554
64366W        W32707  33.936  10.725   1.854
64367W        W32708   7.820   2.261   4.307
64368W        W32709  11.245  14.650  11.040
64369W        W32710   4.390   3.215  13.417
64370W        W32711   8.290   7.817   4.119
64371W        W32712  34.602  36.581   2.845
64372W        W32713   5.758  43.923   3.823
64373W        W32714  20.048  17.281  12.465
64374W        W32715  44.877  23.651  12.919
64375W        W32716  29.505  36.592   2.669
64376W        W32717   6.405   8.891   2.299
64377W        W32718  43.863  29.544   1.917
64378W        W32719  23.063  14.708   1.890
64379W        W32720   4.730  24.045   3.228
64380W        W32721  15.596  11.746  12.004
64381W        W32722  35.465   0.258  13.528
64382W        W32723  13.642  17.298   4.263
64383W        W32724  23.021  18.691   1.346
64384W        W32725  31.093   4.926  12.075
64385W        W32726  25.624  21.730   1.836
64386W        W32727  43.867   1.398   2.322
64387W        W32728  30.651  39.472  11.093
64388W        W32729  17.753  34.567  11.924
64389W        W32730  44.284  33.878  11.539
64390W        W32731  17.586   2.385  13.796
64391W        W32732  13.227   0.874   1.231
64392W        W32733  14.748  25.489   1.431
64393W        W32734  16.237  15.311  14.993
64394W        W32735  28.124  25.137   9.952
64395W        W32736  10.365  19.132  14.279
64396W        W32737  28.516  40.316   0.821
64397W        W32738  35.504  43.004  11.497
64398W        W32739  36.354  23.184  14.828
64399W        W32740   1.782   3.821  12.879
64400W        W32741   3.291  30.589  10.542
64401W        W32742  13.269  22.081   0.805
64402W        W32743  32.438  27.618  13.975
64403W        W32744   7.349  10.230  11.540
64404W        W32745  43.905  21.532   4.818
64405W        W32746  34.383   3.351  11.962
64406W        W32747  22.156  29.528   3.663
64407W        W32748  41.042  32.937   1.397
64408W        W32749  44.897  38.543  11.508
64409W        W32750  40.011   6.419  11.122
64410W        W32751  40.999   4.889   1.246
64411W        W32752  32.612  16.753  12.905
64412W        W32753   9.253  30.439   3.234
64413W        W32754   3.387   4.734  11.986
64414W        W32755  24.517  43.431   4.149
64415W        W32756  18.572  15.267   0.909
64416W        W32757  43.291  38.012   4.657
64417W        W32758  37.352  15.244  13.875
64418W        W32759   3.247  38.935  11.872
64419W        W32760  43.815   8.876  13.816
64420W        W32761  28.638   7.179   1.212
64421W        W32762   4.732  18.267   2.716
64422W        W32763  27.117  39.990   3.771
64423W        W32764   7.404  33.989   2.786
64424W        W32765   9.251   0.763   0.790
64425W        W32766  27.991   6.818   3.180
64426W        W32767  28.537   1.347   4.602
64427W        W32768   8.342  26.698   2.356
64428W        W32769  25.094  28.468  11.512
64429W        W32770   6.232   4.285   3.151
64430W        W32771  26.996  24.652  14.502
64431W        W32772   0.487  13.744  11.027
64432W        W32773  37.558  16.601  11.087
64433W        W32774  14.833  13.344  11.903
64434W        W32775  43.926  31.507   1.287
64435W        W32776  26.162  28.017  13.331
64436W        W32777  39.920  40.303  13.944
64437W        W32778  33.895  44.315   9.971
64438W        W32779   1.312   1.307  10.980
64439W        W32780  29.653  37.072  12.479
64440W        W32781  33.528  22.692  12.833
64441W        W32782  20.218  30.038  14.958
64442W        W32783  39.969  43.353   4.720
64443W        W32784  40.895  28.488   1.924
64444W        W32785   0.895  34.989   4.143
64445W        W32786  44.766  44.403  12.981
64446W        W32787  22.629  28.127   0.772
64447W        W32788   9.883  34.008   3.339
64448W        W32789  41.465  39.504   3.271
64449W        W32790  30.526   6.199  13.355
64450W        W32791  35.061  35.384   1.841
64451W        W32792  33.443  30.007  12.411
64452W        W32793  36.397  39.355  11.020
64453W        W32794  29.069  19.657   4.747
64454W        W32795  11.144  35.046   0.483
64455W        W32796  13.287  43.884  14.905
64456W        W32797  26.656  35.014  13.351
64457W        W32798  38.994   5.267  13.976
64458W        W32799  33.022  25.163   3.681
64459W        W32800  12.793  14.315  14.917
64460W        W32801  35.863  18.781   2.669
64461W        W32802  11.792   9.781   3.860
64462W        W32803  31.060   0.365  11.910
64463W        W32804   0.263  32.631   2.360
64464W        W32805  39.440   9.345   2.675
64465W        W32806  13.140  20.126  10.571
64466W        W32807   1.283  24.120   2.178
64467W        W32808  34.440  17.203  11.557
64468W        W32809  31.573  10.773   3.825
64469W        W32810  34.930  25.601  11.898
64470W        W32811   8.180  28.519  13.938
64471W        W32812  40.351  12.724  12.487
64472W        W32813  28.437   3.901   1.826
64473W        W32814  32.509  19.535   1.314
64474W        W32815  35.396  14.250   1.361
64475W        W32816  32.412   8.659  11.106
64476W        W32817  42.336  29.506  14.769
64477W        W32818  15.810   8.842   1.295
64478W        W32819  24.565   8.751  11.893
64479W        W32820  33.606  30.462   1.448
64480W        W32821  41.007  23.168   2.295
64481W        W32822   6.228  35.539   0.846
64482W        W32823   2.242  37.012   1.819
64483W        W32824  22.244  14.224  12.841
64484W        W32825  11.285  12.349   0.346
64485W        W32826  19.192  32.088   3.158
64486W        W32827  36.396  29.663   4.290
64487W        W32828  12.718   1.461  12.519
64488W        W32829  40.963  13.276  14.381
64489W        W32830  42.832   6.343   5.231
64490W        W32831  32.519  30.504  12.950
64491W        W32832   0.844  39.038   1.406
64492W        W32833  37.839   9.220  12.035
64493W        W32834  30.976  21.134   0.441
64494W        W32835  36.058  44.883  10.620
64495W        W32836  12.290   3.301  12.577
64496W        W32837   7.394   3.417   0.387
64497W        W32838   5.839  16.700   1.217
64498W        W32839   0.913   3.751   4.829
64499W        W32840  23.684  22.589   2.330
64500W        W32841  40.518  20.271   2.387
64501W        W32842  28.619  43.388  12.493
64502W        W32843  25.581  40.003  11.865
64503W        W32844  42.477  41.488   1.872
64504W        W32845   1.362  42.859   4.808
64505W        W32846  19.657  41.338   2.724
64506W        W32847   7.315  30.995  11.403
64507W        W32848  21.675   6.780  13.376
64508W        W32849  43.781   0.826  14.826
64509W        W32850  41.895  38.535   2.741
64510W        W32851  30.112  23.514   1.380
64511W        W32852  23.629  17.247   4.200
64512W        W32853  39.987  38.891   3.651
64513W        W32854  42.527  21.617  14.458
64514W        W32855   5.853  15.123  11.404
64515W        W32856   4.850  31.908   2.722
64516W        W32857  28.635  40.999   3.790
64517W        W32858  15.154  30.527   3.712
64518W        W32859  23.662  24.604  11.373
64519W        W32860  20.711  20.538   4.164
64520W        W32861  15.306  22.535   3.269
64521W        W32862   4.896  22.561   0.385
64522W        W32863  32.089  31.987  13.321
64523W        W32864   1.372  44.448   2.797
64524W        W32865  38.910  10.690   3.209
64525W        W32866  10.261  38.058   0.740
64526W        W32867  44.503   4.367   4.823
64527W        W32868  18.275  33.123  12.980
64528W        W32869  14.749  36.354   3.679
64529W        W32870  26.484  26.665   1.739
64530W        W32871  29.663  34.419  13.996
64531W        W32872  42.799   6.340   0.336
64532W        W32873  18.202  30.507  13.009
64533W        W32874  44.280  40.367  11.397
64534W        W32875  40.460  34.567   1.725
64535W        W32876  22.198  43.868   2.342
64536W        W32877  10.666  18.671   3.715
64537W        W32878   0.267   4.755   4.691
64538W        W32879   0.387  42.388   4.140
64539W        W32880  35.972  18.652  13.421
64540W        W32881  31.097   1.926   0.780
64541W        W32882  22.066   9.345   3.666
64542W        W32883  31.959  26.547   2.243
64543W        W32884  28.161  31.594  13.546
64544W        W32885   4.764  15.700  11.607
64545W        W32886  39.875  16.618   0.323
64546W        W32887  23.490  31.579  10.586
64547W        W32888   9.220  43.896  12.002
64548W        W32889   7.668  20.763  11.088
64549W        W32890  28.971  27.078  11.461
64550W        W32891  15.127  43.306   4.206
64551W        W32892  22.663  36.433  11.877
64552W        W32893  22.519  29.429   3.238
64553W        W32894  13.707  44.456   4.730
64554W        W32895  35.358  28.602   1.275
64555W        W32896   9.298   9.260  12.457
64556W        W32897   1.307  38.894   3.235
64557W        W32898  18.651   6.869  14.485
64558W        W32899  12.816   3.452  14.491
64559W        W32900  33.567  31.092  12.944
64560W        W32901  41.867  42.359  12.384
64561W        W32902  19.697  42.392   4.171
64562W        W32903  28.000   8.840  12.568
64563W        W32904   2.396  35.461   1.846
64564W        W32905   1.418   9.875  11.969
64565W        W32906   0.909  26.057   4.789
64566W        W32907   5.931  26.981  11.371
64567W        W32908  40.539  15.605   3.847
64568W        W32909  38.355  44.308  13.887
64569W        W32910  38.405  44.887   2.849
64570W        W32911  43.927  18.575  14.812
64571W        W32912  15.123  24.200   0.811
64572W        W32913  14.732  39.897  14.354
64573W        W32914  31.558  31.141  12.993
64574W        W32915  34.608  14.599  12.412
64575W        W32916  31.590  14.276  11.580
64576W        W32917  12.265  10.352   2.715
64577W        W32918  43.469  26.996  14.509
64578W        W32919  21.686   2.961   2.275
64579W        W32920  32.051  23.538  13.976
64580W        W32921  35.566  20.070  13.429
64581W        W32922  26.519  17.231  13.494
64582W        W32923  26.147  29.076   4.322
64583W        W32924  25.627   4.295   0.842
64584W        W32925  32.091  23.082  13.060
64585W        W32926   9.205  25.999  13.937
64586W        W32927  18.287  15.192  13.897
64587W        W32928   7.317   1.261  13.335
64588W        W32929  20.061  27.450   1.381
64589W        W32930  19.712  17.068   3.242
64590W        W32931  22.596  33.435   0.828
64591W        W32932   9.296  10.265   4.663
64592W        W32933   4.230  16.182  14.863
64593W        W32934  19.537  22.020   1.286
64594W        W32935  32.598  38.946  13.902
64595W        W32936  40.409  26.646   5.316
64596W        W32937  41.860  23.562  12.474
64597W        W32938  28.619  37.362  12.405
64598W        W32939   4.726  43.496   2.836
64599W        W32940  41.875  17.157  14.324
64600W        W32941  37.071  24.637  10.585
64601W        W32942  36.910  10.795  13.943
64602W        W32943  38.045  21.194   2.233
64603W        W32944  23.682  38.428  14.846
64604W        W32945  20.685  36.506   4.643
64605W        W32946  28.181  10.694   4.222
64606W        W32947   0.940  34.054   3.701
64607W        W32948  18.643  19.122   0.250
64608W        W32949  12.756  38.531  14.361
64609W        W32950   7.740  40.370  11.956
64610W        W32951  36.427   9.788  13.991
64611W        W32952  43.020  19.042  11.886
64612W        W32953  14.754  34.917  13.429
64613W        W32954  27.060  29.960   3.750
64614W        W32955  19.161  38.471   4.249
64615W        W32956  40.908  17.107   4.799
64616W        W32957   0.808  35.403   4.769
64617W        W32958  44.006  36.563   0.246
64618W        W32959  26.590  25.506  13.965
64619W        W32960  40.030  41.866   5.156
64620W        W32961  20.131  34.054  10.498
64621W        W32962  22.145  28.566   2.740
64622W        W32963  40.861  34.905   4.163
64623W        W32964  43.799  11.368  13.047
64624W        W32965  29.067  40.000   2.699
64625W        W32966  40.382  15.190  12.044
64626W        W32967  18.769  32.035   3.712
64627W        W32968   6.355  12.278  10.470
64628W        W32969  17.632  43.893  14.973
64629W        W32970  12.781  30.608  13.370
64630W        W32971  21.170  40.468  14.451
64631W        W32972   2.746  11.141   1.251
64632W        W32973  14.638  12.718  11.026
64633W        W32974  24.117  19.134  12.461
64634W        W32975  43.940  24.113   4.176
64635W        W32976   5.272  44.769   2.689
64636W        W32977  33.899  27.072  12.072
64637W        W32978   0.802  38.502   2.406
64638W        W32979  39.025  14.831  10.066
64639W        W32980  37.869  32.425  13.049
64640W        W32981  10.744   9.795  11.013
64641W        W32982   3.331  40.042   2.285
64642W        W32983   5.246  14.249  12.494
64643W        W32984  42.791  22.616  14.381
64644W        W32985   2.792   4.398  13.064
64645W        W32986  27.456   1.898   2.183
64646W        W32987  25.174  29.452   4.670
64647W        W32988  19.699  14.750   3.179
64648W        W32989  17.296  43.011   3.766
64649W        W32990  32.948  10.138   2.891
64650W        W32991   8.843   7.310  13.437
64651W        W32992   0.338  38.561  12.506
64652W        W32993  34.103  38.456   1.912
64653W        W32994  19.764   3.295   2.306
64654W        W32995  43.017  34.021  13.814
64655W        W32996  31.496  33.040  10.486
64656W        W32997  34.569   2.323   4.755
64657W        W32998  29.430  44.889  10.426
64658W        W32999  44.782  16.597  14.453
64659W        W33000   2.914  25.599   3.194
64660W        W33001   5.268  27.017   1.829
64661W        W33002  44.278   8.332  13.334
64662W        W33003  37.022  40.421  12.562
64663W        W33004  39.912   2.924  13.374
64664W        W33005  37.568   6.417   1.340
64665W        W33006  44.501  24.555  14.760
64666W        W33007   7.404  25.626  13.473
64667W        W33008  30.578  14.180  11.454
64668W        W33009  39.398   8.271   1.796
64669W        W33010   2.392  19.271  13.854
64670W        W33011  29.559  33.051  11.934
64671W        W33012  37.437  43.871  12.890
64672W        W33013  24.068  25.468   4.214
64673W        W33014   0.978  15.654  13.457
64674W        W33015  25.014  40.961  11.897
64675W        W33016   2.852  19.052   0.358
64676W        W33017  44.772   8.887  13.797
64677W        W33018  40.406  39.911  14.855
64678W        W33019  12.116  34.488   3.273
64679W        W33020  10.285  40.977  13.525
64680W        W33021  10.254  39.471  11.433
64681W        W33022  43.274  16.199   1.855
64682W        W33023  31.447   9.382   1.802
64683W        W33024  24.498  29.019   3.748
64684W        W33025  32.580  23.191   0.801
64685W        W33026  43.505   3.251  13.852
64686W        W33027  10.255   8.191   3.322
64687W        W33028   7.899  14.711   1.337
64688W        W33029  18.205   0.918   3.691
64689W        W33030  11.629  34.487   3.695
64690W        W33031  27.049  38.502   2.233
64691W        W33032  33.480  13.715   4.626
64692W        W33033  40.311  22.511   1.795
64693W        W33034  41.912  17.581   0.963
64694W        W33035  41.525  34.025   2.816
64695W        W33036  12.737  38.571  12.577
64696W        W33037  37.402  40.360   4.164
64697W        W33038   5.842  26.014  14.913
64698W        W33039   6.779   0.914   3.363
64699W        W33040   5.233  17.179   1.918
64700W        W33041   1.806  29.934  11.016
64701W        W33042  34.867  11.639   3.246
64702W        W33043  44.961  27.060   2.294
64703W        W33044  27.037   2.241  11.372
64704W        W33045  17.163  39.530  14.924
64705W        W33046  11.178  23.153   2.847
64706W        W33047  25.703  10.725   0.461
64707W        W33048   5.360  10.713   0.789
64708W        W33049  34.888   2.801  11.968
64709W        W33050  22.641  25.100   2.902
64710W        W33051  42.431  17.690   0.430
64711W        W33052  32.964   8.351  13.357
64712W        W33053   1.415   3.259   2.412
64713W        W33054  38.975  37.061  12.538
64714W        W33055  44.412  24.021   4.721
64715W        W33056  32.473  23.593  11.609
64716W        W33057  32.139  10.368  14.348
64717W        W33058  18.625  10.793  14.832
64718W        W33059   6.710   9.298   1.901
64719W        W33060  12.792   3.457  12.882
64720W        W33061  28.169  34.461   2.770
64721W        W33062  11.240  26.487   4.633
64722W        W33063   8.788  32.546  14.811
64723W        W33064  31.494  23.055   2.249
64724W        W33065  29.924   9.180  13.895
64725W        W33066   8.684  24.707  14.368
64726W        W33067  38.486  22.737  11.539
64727W        W33068   8.863  22.017  10.554
64728W        W33069  10.745  44.403   4.118
64729W        W33070  30.645   1.406  10.918
64730W        W33071  18.254  44.950   3.664
64731W        W33072   4.763  34.993   1.862
64732W        W33073  18.251   0.886  12.506
64733W        W33074  29.981   3.379   4.600
64734W        W33075   7.326  34.928   4.144
64735W        W33076  32.985   4.762   1.869
64736W        W33077  38.326  23.064   0.401
64737W        W33078  43.281   1.368  11.064
64738W        W33079   1.470  26.031   1.407
64739W        W33080  37.987  43.871   1.803
64740W        W33081  31.133  38.907  13.375
64741W        W33082  36.943  39.419   1.337
64742W        W33083  27.661  32.991   3.789
64743W        W33084  35.858  18.162  10.543
64744W        W33085  24.195  37.342   5.181
64745W        W33086  20.523   6.916   0.922
64746W        W33087  36.387   1.240  13.821
64747W        W33088  34.907  31.062  14.421
64748W        W33089  16.122  24.128   1.430
64749W        W33090  13.111   7.841   2.336
64750W        W33091   7.178  44.961   1.747
64751W        W33092  14.740  28.604   0.441
64752W        W33093  34.599   5.915  13.462
64753W        W33094  11.685  40.419  14.402
64754W        W33095  37.449  37.901  12.966
64755W        W33096   7.237  20.542  10.956
64756W        W33097   6.718  33.995  13.545
64757W        W33098  13.671  35.446  13.487
64758W        W33099  31.106   6.333  13.346
64759W        W33100  15.820  19.187  14.461
64760W        W33101  19.196  21.613  10.111
64761W        W33102  39.476  18.217  12.356
64762W        W33103  17.136  44.966  14.031
64763W        W33104  36.930  22.072  14.818
64764W        W33105  30.439   0.395   0.371
64765W        W33106  12.116  42.296   2.690
64766W        W33107  14.656   9.250   2.732
64767W        W33108  43.869   6.340  13.015
64768W        W33109  15.186   1.358  13.023
64769W        W33110  21.186  34.403  11.546
64770W        W33111  14.826  40.384   9.579
64771W        W33112  14.323  18.274  13.888
64772W        W33113  32.074   6.816   4.715
64773W        W33114   1.314   0.258   0.915
64774W        W33115   2.830  44.963   1.427
64775W        W33116  43.293  14.312  11.455
64776W        W33117   8.215  30.462   1.363
64777W        W33118   8.683  38.521   4.151
64778W        W33119  44.471  44.497  12.577
64779W        W33120  17.298   4.449  11.013
64780W        W33121  20.528  36.512  13.943
64781W        W33122   8.678   4.373   3.697
64782W        W33123  41.378  11.655   1.802
64783W        W33124   1.857  11.295  10.415
64784W        W33125  42.449  12.245   1.851
64785W        W33126  24.109  41.420  11.393
64786W        W33127  15.192   7.854   0.842
64787W        W33128  43.515  39.341   1.302
64788W        W33129   1.873  22.227   2.187
64789W        W33130  16.274  22.689   0.943
64790W        W33131   2.235  35.393   3.264
64791W        W33132  38.890  31.979   3.291
64792W        W33133  27.493  20.133  14.875
64793W        W33134  19.218  19.133   4.640
64794W        W33135   8.741   8.248   3.251
64795W        W33136   5.382  18.755  12.397
64796W        W33137  41.839  10.330   3.814
64797W        W33138  36.513  31.047  12.431
64798W        W33139  17.150   1.951  14.342
64799W        W33140  19.738  16.168  12.482
64800W        W33141  39.063  14.719   2.221
64801W        W33142  25.584   1.831  13.887
64802W        W33143  14.685  40.970  13.908
64803W        W33144  13.632  19.650   4.269
64804W        W33145  12.665  29.648  11.605
64805W        W33146  42.297  21.068   4.339
64806W        W33147  13.817  30.632   1.882
64807W        W33148  34.031  30.967   1.216
64808W        W33149   7.398  18.282  13.992
64809W        W33150  33.574  15.312   4.700
64810W        W33151  14.122  36.592  13.004
64811W        W33152  30.640  20.194   1.368
64812W        W33153  16.114  16.127  11.482
64813W        W33154  22.032  30.134   1.874
64814W        W33155  15.313  27.000   1.316
64815W        W33156   7.736  21.149  10.541
64816W        W33157  19.624   4.260  13.506
64817W        W33158  30.476  27.537  14.328
64818W        W33159  11.700  25.697   1.844
64819W        W33160  17.797   0.258  13.978
64820W        W33161   0.458   9.340  10.528
64821W        W33162   5.243  15.326  12.428
64822W        W33163  43.385  26.019  13.006
64823W        W33164  15.244  12.655   2.886
64824W        W33165  43.814  24.634  14.795
64825W        W33166   4.305  34.503  11.560
64826W        W33167  42.373  26.561   1.386
64827W        W33168  40.512   8.663  10.985
64828W        W33169  10.294  35.583   4.279
64829W        W33170   7.674  34.593   5.117
64830W        W33171  29.927  19.672  11.390
64831W        W33172  30.555  26.695   4.191
64832W        W33173   2.744  21.611  11.496
64833W        W33174  28.088  32.012  10.024
64834W        W33175  20.132  35.399  13.538
64835W        W33176  31.955  41.853   1.854
64836W        W33177  39.318   5.365  12.075
64837W        W33178  42.980  25.138  10.463
64838W        W33179  43.510  44.008  10.447
64839W        W33180  12.672  32.015  10.508
64840W        W33181   1.863  27.150   2.230
64841W        W33182  32.920  13.146   1.427
64842W        W33183  24.985  26.682  13.499
64843W        W33184   5.709  17.601  11.550
64844W        W33185  26.201   5.910  11.516
64845W        W33186  41.375  30.656   1.427
64846W        W33187  36.593  43.295  13.043
64847W        W33188  44.405  11.827  11.556
64848W        W33189  18.213   3.915   1.791
64849W        W33190  35.448  24.062  14.844
64850W        W33191  15.191  40.904   2.416
64851W        W33192  29.032   1.450  12.986
64852W        W33193   5.869   0.494   3.692
64853W        W33194  35.590   6.785  14.884
64854W        W33195  15.151  43.891   4.759
64855W        W33196  43.770  34.541  10.405
64856W        W33197  16.753  32.941  14.371
64857W        W33198  39.907  32.095   1.891
64858W        W33199   5.324  19.696   1.421
64859W        W33200  36.583  29.660   0.481
64860W        W33201   0.464  26.573  13.535
64861W        W33202  11.768   9.777   2.893
64862W        W33203  38.378  17.738  12.972
64863W        W33204  17.657  16.252  14.952
64864W        W33205  15.800  16.310   4.150
64865W        W33206  15.759  26.538  13.348
64866W        W33207   7.350  39.398   1.333
64867W        W33208  24.710  12.685  14.346
64868W        W33209  20.709   2.743   2.313
64869W        W33210  18.122  29.109   4.664
64870W        W33211  44.826   8.366   1.316
64871W        W33212  17.709   3.799   0.355
64872W        W33213  43.016   1.949  11.988
64873W        W33214   6.342  40.842   3.224
64874W        W33215   0.932  35.894  12.850
64875W        W33216  16.105  44.796   1.230
64876W        W33217  11.197  38.836   1.712
64877W        W33218  35.015   3.349  10.576
64878W        W33219  38.874  38.567  14.843
64879W        W33220  24.031  27.162  11.540
64880W        W33221  28.448  17.758   4.802
64881W        W33222  16.678  41.381  10.427
64882W        W33223  42.465   9.758   3.740
64883W        W33224  40.956  31.142   1.694
64884W        W33225  12.244   4.259  13.829
64885W        W33226  43.498  19.613   3.223
64886W        W33227   9.166  38.863   4.312
64887W        W33228  23.209  31.548  13.359
64888W        W33229  30.504  21.550   1.348
64889W        W33230  25.056   3.783   1.828
64890W        W33231  30.009   8.737   4.768
64891W        W33232  31.577   6.277  10.576
64892W        W33233   5.784  13.658   3.695
64893W        W33234  24.538  22.244  12.973
64894W        W33235   5.773  31.982  10.030
64895W        W33236  15.627  24.066   1.735
64896W        W33237  31.542  39.395   9.458
64897W        W33238   1.832  19.170   4.708
64898W        W33239  20.268   3.786   1.427
64899W        W33240  41.435   8.337   4.133
64900W        W33241  22.741  15.784   3.708
64901W        W33242   8.858  15.790  11.484
64902W        W33243  30.032  14.624  13.989
64903W        W33244   5.768  27.598   2.818
64904W        W33245  18.066  38.851  14.964
64905W        W33246   0.850   5.821  14.022
64906W        W33247  41.434   5.392   0.388
64907W        W33248  18.745  42.872  11.471
64908W        W33249  18.717  11.734  13.504
64909W        W33250  26.070  24.177  10.567
64910W        W33251  35.540  21.539  12.829
64911W        W33252  20.728   3.298  12.009
64912W        W33253  31.567  30.041   1.758
64913W        W33254   6.716  25.513   4.745
64914W        W33255  28.938   5.704  11.560
64915W        W33256  15.291  40.848  10.421
64916W        W33257  43.808   9.726   3.666
64917W        W33258  40.326   8.835  13.930
64918W        W33259  43.838  32.602  10.596
64919W        W33260  42.817   3.872   4.220
64920W        W33261   8.236  10.350   1.408
64921W        W33262  18.249  31.546  12.380
64922W        W33263  29.145  26.146  13.875
64923W        W33264  36.033  24.719  12.937
64924W        W33265  14.340  23.221   3.641
64925W        W33266  13.248  26.007   1.907
64926W        W33267   3.864   5.725  12.012
64927W        W33268  34.867  34.065  12.926
64928W        W33269   7.815  11.699  10.968
64929W        W33270  12.149   1.336  14.985
64930W        W33271   6.304  13.722   2.202
64931W        W33272  18.064  15.123  11.924
64932W        W33273  24.020  35.482  11.955
64933W        W33274  38.027  28.666   2.336
64934W        W33275  37.042  26.624   1.386
64935W        W33276  34.548  15.267  14.917
64936W        W33277  30.646  19.607  12.578
64937W        W33278  12.807   4.910  11.908
64938W        W33279  41.984  15.209   1.787
64939W        W33280  31.587  19.536  11.908
64940W        W33281  15.286  27.566  10.478
64941W        W33282  35.408  16.091   4.295
64942W        W33283  12.636   4.791   3.376
64943W        W33284   7.210  44.958  14.276
64944W        W33285  33.415   1.415   4.155
64945W        W33286  36.891  39.850  14.416
64946W        W33287  33.572  35.569  10.917
64947W        W33288   2.902  42.335  13.852
64948W        W33289  22.071  43.854  10.480
64949W        W33290  21.599  17.598   4.262
64950W        W33291  23.692  16.179  10.094
64951W        W33292  27.125  40.480   3.316
64952W        W33293  40.809  42.007  13.447
64953W        W33294  14.118  44.292  14.870
64954W        W33295  36.353  34.382  10.568
64955W        W33296  20.249  38.496  14.905
64956W        W33297  31.992   4.710  12.543
64957W        W33298   0.346   9.310   4.272
64958W        W33299  35.361   6.198   3.703
64959W        W33300   4.236  25.515  14.991
64960W        W33301   9.312  30.019  14.807
64961W        W33302  13.816  29.554  10.986
64962W        W33303   5.274   8.233   0.835
64963W        W33304  32.529  22.545  14.835
64964W        W33305  38.063  10.229  14.303
64965W        W33306  26.527  18.220   2.396
64966W        W33307  14.327  15.307  10.622
64967W        W33308  42.432  33.094  13.525
64968W        W33309  10.734  30.629   3.201
64969W        W33310  39.950   9.163   0.321
64970W        W33311  32.459   3.251   3.710
64971W        W33312  23.057  29.667   4.642
64972W        W33313  14.598   3.327   1.701
64973W        W33314  40.384  35.375  10.915
64974W        W33315  23.099  40.889   0.335
64975W        W33316  43.782  32.458   0.911
64976W        W33317   6.816  25.668   1.807
64977W        W33318  29.661  25.538  12.457
64978W        W33319  18.171  34.888  13.801
64979W        W33320  32.033  15.679   0.439
64980W        W33321  41.808  37.393  13.793
64981W        W33322  31.560  44.315  10.583
64982W        W33323   8.355  39.483  13.965
64983W        W33324   7.412  11.842  10.551
64984W        W33325  15.311  33.121  10.459
64985W        W33326  28.045  16.713   4.156
64986W        W33327   4.890   6.711  14.390
64987W        W33328  21.729  13.139   1.874
64988W        W33329  40.987  25.083  12.888
64989W        W33330  37.902   7.173   2.400
64990W        W33331  29.170   1.427  13.333
64991W        W33332  10.243  18.104  10.137
64992W        W33333  34.603  33.932  10.522
64993W        W33334  32.601   0.390   2.900
64994W        W33335  17.077  32.407   0.867
64995W        W33336  38.988  16.674   3.373
64996W        W33337  35.916  29.630   3.379
64997W        W33338  33.381  20.621   4.687
64998W        W33339  27.591  37.519   2.792
64999W        W33340  42.955   2.450   5.244
65000W        W33341   6.902  22.666   2.204
65001W        W33342   0.836  32.022  13.849
65002W        W33343  25.169  36.511   0.893
65003W        W33344   0.969  35.385   2.864
65004W        W33345  28.571  11.789  13.327
65005W        W33346  23.689  26.072  12.470
65006W        W33347  38.880  43.512  14.903
65007W        W33348  15.108   1.805   0.948
65008W        W33349  28.132  33.482  13.477
65009W        W33350  41.872  22.584   1.344
65010W        W33351  27.102  32.944   2.198
65011W        W33352  36.396   9.308  13.954
65012W        W33353  10.272  29.042  10.451
65013W        W33354  25.467  34.602   4.180
65014W        W33355  34.000  33.050  11.535
65015W        W33356  15.179  18.146   3.233
65016W        W33357   4.310   4.267   2.260
65017W        W33358  43.342   2.722   2.689
65018W        W33359  28.963   0.784   4.626
65019W        W33360  35.969  15.296   2.367
65020W        W33361  18.145   2.757   4.635
65021W        W33362  10.266  15.599  10.526
65022W        W33363  37.420  35.558  14.931
65023W        W33364   1.417   4.941   2.714
65024W        W33365  23.104  41.963   4.285
65025W        W33366  22.180  32.111  12.922
65026W        W33367  24.150  14.331   1.433
65027W        W33368  19.044   3.437   3.159
65028W        W33369  22.612  36.449   3.352
65029W        W33370  11.851  41.496  13.477
65030W        W33371  41.344   1.272   0.888
65031W        W33372  12.337  42.838  11.095
65032W        W33373  14.183  17.587   2.815
65033W        W33374   7.350  17.671   1.887
65034W        W33375   5.810  25.708   0.844
65035W        W33376   0.398   2.320  14.979
65036W        W33377  20.078  14.137   2.670
65037W        W33378  28.487  14.674   3.357
65038W        W33379  30.012   5.695  13.837
65039W        W33380  17.699  35.020  14.370
65040W        W33381  14.729  41.366  11.376
65041W        W33382  27.965  42.844  11.580
65042W        W33383  11.192  37.429   4.219
65043W        W33384  21.698  34.408  11.532
65044W        W33385  44.287  20.651  14.411
65045W        W33386  29.620  24.227  14.342
65046W        W33387   2.263  34.467  13.397
65047W        W33388  10.831  18.573   2.794
65048W        W33389   2.941  23.668   1.370
65049W        W33390  28.068  17.150  14.360
65050W        W33391  16.604  19.109  11.096
65051W        W33392  14.306  42.946   5.178
65052W        W33393  22.075   9.245  12.998
65053W        W33394  17.797  32.478  13.949
65054W        W33395  11.359   5.795   4.637
65055W        W33396  26.110  32.419   1.703
65056W        W33397  41.997   2.735  10.641
65057W        W33398  17.766  11.861  11.862
65058W        W33399   7.865  18.562  12.015
65059W        W33400  12.354  11.239   5.126
65060W        W33401  11.368  10.762  11.538
65061W        W33402   9.728  15.679  12.016
65062W        W33403   6.240  42.476  10.485
65063W        W33404  13.167  29.004   4.319
65064W        W33405  23.491  28.093  13.976
65065W        W33406   0.872   3.811  13.955
65066W        W33407  35.580   1.432   3.850
65067W        W33408  42.475  23.588  10.562
65068W        W33409   2.745  44.502  12.013
65069W        W33410  16.670  13.317  11.425
65070W        W33411  23.071  33.881   1.277
65071W        W33412  11.211  23.109  13.469
65072W        W33413   5.247  17.617   3.642
65073W        W33414   4.786  17.564   3.158
65074W        W33415  29.953   5.775   3.223
65075W        W33416   9.867  10.156   0.758
65076W        W33417  19.691  43.850   0.292
65077W        W33418  20.090  24.558  12.418
65078W        W33419  10.172  44.369   4.260
65079W        W33420  27.998  23.212   1.329
65080W        W33421  15.754   2.384   3.205
65081W        W33422  38.326  26.981  11.456
65082W        W33423  39.396  22.016  14.395
65083W        W33424  32.894  11.711   1.237
65084W        W33425  21.138  22.078   3.233
65085W        W33426   3.455  36.945   3.184
65086W        W33427  13.726  44.450   1.815
65087W        W33428  15.181  23.496  12.963
65088W        W33429  27.992   0.752  12.063
65089W        W33430  27.009  12.839   1.892
65090W        W33431  30.452   4.775  11.128
65091W        W33432  41.025  14.103   3.328
65092W        W33433  38.392  11.713  14.320
65093W        W33434  22.594  31.136   0.338
65094W        W33435  15.620   1.303  10.426
65095W        W33436  25.497  40.860   1.356
65096W        W33437  25.540  12.144   1.777
65097W        W33438  36.391  15.099   0.840
65098W        W33439  19.159  32.897  12.961
65099W        W33440  31.406  23.506   2.362
65100W        W33441  14.226  34.907   3.214
65101W        W33442  31.102  19.723  11.924
65102W        W33443  23.222  33.499  12.526
65103W        W33444  38.898  30.082  14.333
65104W        W33445  15.256   8.362   4.318
65105W        W33446   8.691   9.350  12.982
65106W        W33447  11.638  17.238  11.888
65107W        W33448  40.991  40.501  14.844
65108W        W33449   1.767  19.159  12.828
65109W        W33450  37.021  34.980   1.444
65110W        W33451  13.600  26.103  14.802
65111W        W33452  37.075   5.217  12.530
65112W        W33453  25.541   7.826   0.435
65113W        W33454   0.822  43.006   4.311
65114W        W33455  43.393  22.044  13.974
65115W        W33456  40.507  30.501   5.309
65116W        W33457  14.295  42.404   0.457
65117W        W33458  29.498  28.996   0.353
65118W        W33459   9.214  37.454   3.170
65119W        W33460  19.661  21.741  14.860
65120W        W33461   4.909  27.626  12.094
65121W        W33462  11.697  37.530   5.162
65122W        W33463   0.308  34.519   0.836
65123W        W33464   1.385  24.180   3.770
65124W        W33465   6.775   9.792  11.900
65125W        W33466  24.079  10.270  10.945
65126W        W33467  21.088  37.347  13.502
65127W        W33468  38.331   9.364   3.206
65128W        W33469  44.424  26.467   3.196
65129W        W33470  37.853  23.727   2.232
65130W        W33471  15.605  32.524   5.213
65131W        W33472  17.217  30.564  12.983
65132W        W33473  28.546   2.241  12.088
65133W        W33474   2.954  31.072   0.829
65134W        W33475   1.782  16.783  13.503
65135W        W33476  13.296  10.700   3.755
65136W        W33477  14.334  30.916  12.343
65137W        W33478  11.294  34.991  14.922
65138W        W33479   7.265  26.111  12.500
65139W        W33480  24.208  17.699  12.350
65140W        W33481   6.756  21.255   3.346
65141W        W33482  40.858  14.336  14.895
65142W        W33483  25.205  32.449   4.200
65143W        W33484  10.308  25.704   4.620
65144W        W33485  31.436  34.986   4.210
65145W        W33486  28.652   6.299  11.889
65146W        W33487  10.773  38.886   4.117
65147W        W33488  10.273  21.607   4.809
65148W        W33489  19.172  17.742   4.838
65149W        W33490  17.074  25.560  13.032
65150W        W33491  37.951  10.176   3.200
65151W        W33492  29.600   7.865   3.675
65152W        W33493  37.971  24.992   2.215
65153W        W33494  10.286  24.068  12.549
65154W        W33495   2.832  41.948   3.339
65155W        W33496  12.698   5.337   1.825
65156W        W33497  20.078   6.291  11.036
65157W        W33498  10.706  31.519  13.371
65158W        W33499   6.393  27.143  10.616
65159W        W33500   6.367  20.599   1.897
65160W        W33501  44.773  37.994  13.530
65161W        W33502   2.417  20.643  13.988
65162W        W33503  24.006  22.228   1.882
65163W        W33504  37.560  44.454  12.368
65164W        W33505   0.265  35.571  11.476
65165W        W33506   2.954  16.617   4.127
65166W        W33507  14.252  23.661  11.020
65167W        W33508  37.886  16.290   2.886
65168W        W33509  24.064  29.639   4.708
65169W        W33510   9.329  20.528  13.516
65170W        W33511  35.970  28.519  11.436
65171W        W33512   0.784   4.736   2.730
65172W        W33513  35.475  28.667   3.237
65173W        W33514  17.111  10.256   2.257
65174W        W33515  20.704  42.879  13.947
65175W        W33516  40.886  26.069  10.943
65176W        W33517  27.104  23.733  13.970
65177W        W33518  42.367  15.730   0.399
65178W        W33519  32.048  20.575   0.292
65179W        W33520  30.116   6.366   0.780
65180W        W33521  21.754   3.897   2.392
65181W        W33522  32.100  25.148   3.243
65182W        W33523  36.858  16.238  14.276
65183W        W33524  33.105  34.435   2.683
65184W        W33525  24.557  27.184   5.285
65185W        W33526   2.919  31.447  12.341
65186W        W33527  17.193  24.212  12.093
65187W        W33528  35.433  37.909   3.156
65188W        W33529  26.494  15.126   2.888
65189W        W33530  17.293  39.339   9.997
65190W        W33531  12.127  25.148   1.222
65191W        W33532  25.484  17.772  13.415
65192W        W33533  41.303  14.737  13.928
65193W        W33534  28.503  23.700   2.209
65194W        W33535   6.378  10.336   5.185
65195W        W33536  28.461   0.281  14.951
65196W        W33537  15.606  27.951   4.297
65197W        W33538  41.032  43.442   3.694
65198W        W33539  23.595   2.249   0.422
65199W        W33540  28.447  26.198   0.337
65200W        W33541  30.490  22.647  13.419
65201W        W33542  40.010   8.198  10.916
65202W        W33543   1.745  32.140   5.117
65203W        W33544   8.861  39.501  10.637
65204W        W33545   2.807  21.227  11.994
65205W        W33546  23.991  17.724  13.484
65206W        W33547  43.791  36.572   1.859
65207W        W33548  13.259  43.337   0.839
65208W        W33549  24.583  34.956  14.981
65209W        W33550  32.893   8.830   1.332
65210W        W33551   3.819  25.473  13.446
65211W        W33552   3.332  16.695   4.173
65212W        W33553  14.655   2.407   4.292
65213W        W33554   4.870   9.757   1.448
65214W        W33555   4.900   5.293  12.578
65215W        W33556   0.762   2.783   2.342
65216W        W33557  37.877  39.943  11.507
65217W        W33558  33.922   1.456   0.793
65218W        W33559  32.519  39.001   4.156
65219W        W33560   1.242  40.456   2.390
65220W        W33561   2.835  32.615   4.616
65221W        W33562   7.910  17.214   0.457
65222W        W33563  43.492  11.648  11.005
65223W        W33564  38.338  11.816  13.336
65224W        W33565  31.463  16.142  13.390
65225W        W33566  26.585  41.892  11.390
65226W        W33567  21.737  41.336  11.067
65227W        W33568   2.905  34.075  12.080
65228W        W33569  36.016  40.323   3.853
65229W        W33570  29.927  29.084   4.151
65230W        W33571  14.825  22.716  10.563
65231W        W33572  44.340   1.374  11.914
65232W        W33573  27.456   4.359  12.574
65233W        W33574   6.267  20.697  12.920
65234W        W33575  21.140  15.170   1.376
65235W        W33576  37.512  24.581   2.673
65236W        W33577  14.255   5.868  14.382
65237W        W33578   3.427   0.322   0.379
65238W        W33579  10.314  36.949  14.295
65239W        W33580   7.262  44.349   0.789
65240W        W33581  35.882  16.206  10.470
65241W        W33582  11.319  29.163  11.028
65242W        W33583  12.771  44.462   4.728
65243W        W33584  38.347  29.970  14.988
65244W        W33585  12.663  41.950   5.249
65245W        W33586  37.032   8.873  14.871
65246W        W33587  11.785   6.813   4.796
65247W        W33588  33.612   0.291  14.342
65248W        W33589  16.600  16.253  10.550
65249W        W33590  20.761   1.930  10.999
65250W        W33591  11.138  42.008   4.185
65251W        W33592  10.300  39.865   4.187
65252W        W33593   5.224  34.003  12.380
65253W        W33594  11.312  43.799  14.434
65254W        W33595  19.243  31.434  10.510
65255W        W33596  14.813  33.980   2.787
65256W        W33597   7.411  25.112   3.345
65257W        W33598  40.478  29.949   2.275
65258W        W33599  29.503   1.406   1.835
65259W        W33600  23.649  23.148   2.821
65260W        W33601   8.692  14.628   3.333
65261W        W33602  36.021  31.074   4.194
65262W        W33603  24.637  31.421  11.930
65263W        W33604   3.304  22.550   5.160
65264W        W33605  10.723  43.886   3.678
65265W        W33606  29.092   6.228   3.170
65266W        W33607  33.015  28.151  11.867
65267W        W33608   8.848  21.757   0.439
65268W        W33609  35.541   0.281  12.494
65269W        W33610  36.933  33.115  11.856
65270W        W33611  24.669   9.677   2.403
65271W        W33612   0.431   5.239   1.355
65272W        W33613  27.576  19.185   1.368
65273W        W33614  33.908  28.570  11.909
65274W        W33615  18.078  20.149   0.257
65275W        W33616   8.855  15.609   3.817
65276W        W33617   9.683   9.273  13.429
65277W        W33618  17.751  10.312   2.757
65278W        W33619  33.087  21.540   3.648
65279W        W33620  36.065  19.163   0.482
65280W        W33621  23.179  41.480  10.407
65281W        W33622  33.596  31.484   3.645
65282W        W33623  44.268   8.792  13.435
65283W        W33624   1.434  39.927  11.423
65284W        W33625  14.098   3.787   2.769
65285W        W33626  24.661   1.887   3.858
65286W        W33627  31.605  27.460  13.432
65287W        W33628   0.436   4.303  14.759
65288W        W33629  40.030   8.737  14.979
65289W        W33630  23.018  21.243   2.761
65290W        W33631  40.917   0.840  11.604
65291W        W33632  40.376  10.847  14.797
65292W        W33633  22.699  18.709  10.969
65293W        W33634  37.549  19.611   1.304
65294W        W33635  21.704  10.632  11.021
65295W        W33636  30.912  13.232   1.714
65296W        W33637  33.992  39.544   9.980
65297W        W33638   9.868  29.476   0.416
65298W        W33639  17.214  14.163  11.056
65299W        W33640   0.915  33.470  14.796
65300W        W33641  24.681   8.183  11.913
65301W        W33642  15.143   8.320   1.249
65302W        W33643  36.985  13.802   3.642
65303W        W33644  43.280  38.898   2.887
65304W        W33645  11.222  42.281  13.426
65305W        W33646  43.390  35.909   1.783
65306W        W33647  41.913   7.770   1.738
65307W        W33648  20.675  27.565   0.386
65308W        W33649  20.690  36.578  11.414
65309W        W33650  13.284  17.764  14.893
65310W        W33651  28.108  27.176  11.124
65311W        W33652  10.366  44.858   1.856
65312W        W33653  12.657  15.192  11.411
65313W        W33654  43.326  18.133   5.098
65314W        W33655  20.088  26.020  12.524
65315W        W33656  19.244  20.733   3.303
65316W        W33657  25.636  28.646   9.557
65317W        W33658  22.018  40.846   3.788
65318W        W33659  35.973   9.189   3.634
65319W        W33660  18.067  12.618  12.992
65320W        W33661  28.581  42.308   3.789
65321W        W33662  33.980  27.000  10.443
65322W        W33663  17.237  20.272   1.840
65323W        W33664  24.117  22.672  14.306
65324W        W33665  16.764  32.081   5.225
65325W        W33666  23.042  25.574  12.019
65326W        W33667   2.247  18.659  12.942
65327W        W33668  27.646  32.450   4.202
65328W        W33669  41.875  39.818   0.944
65329W        W33670  23.606  10.233   3.286
65330W        W33671   0.401  41.417   1.258
65331W        W33672  39.840  26.015  12.366
65332W        W33673  11.735   6.692   4.168
65333W        W33674  34.865  37.558  10.473
65334W        W33675  16.164   2.741  13.360
65335W        W33676  14.772  14.095  12.056
65336W        W33677  14.170  11.334  14.797
65337W        W33678  34.023  10.768  10.531
65338W        W33679  35.075   4.769  14.028
65339W        W33680  38.562   9.660  10.956
65340W        W33681   1.866  26.514  12.010
65341W        W33682   8.882  41.423   3.631
65342W        W33683  38.487  15.618   4.680
65343W        W33684  37.539   2.256  11.050
65344W        W33685   7.667  25.086   5.115
65345W        W33686  22.157  36.348  10.636
65346W        W33687  32.912  18.734  14.007
65347W        W33688   6.789  36.536   2.878
65348W        W33689  33.925   7.726  12.031
65349W        W33690  15.666  30.433  10.087
65350W        W33691  16.598   2.943  11.536
65351W        W33692  39.402  22.508  10.592
65352W        W33693  12.788  18.240  13.016
65353W        W33694  31.623  25.998  11.985
65354W        W33695   9.247  33.909   4.696
65355W        W33696  40.325  27.084  14.433
65356W        W33697  30.120   6.349  12.425
65357W        W33698  28.479  32.043   2.181
65358W        W33699   3.779   5.707   4.705
65359W        W33700  35.898  28.025   4.751
65360W        W33701  43.496  13.695  14.309
65361W        W33702  30.530  21.098   0.900
65362W        W33703   1.915  22.050   4.303
65363W        W33704  14.217  14.259   4.834
65364W        W33705   4.234  42.963  13.359
65365W        W33706   6.362  10.807   3.637
65366W        W33707   8.852  35.507   0.808
65367W        W33708  12.719   1.335   2.797
65368W        W33709  44.389  35.036   2.236
65369W        W33710  20.242  35.946  13.891
65370W        W33711  28.145  16.768  10.509
65371W        W33712  35.995  24.522  12.565
65372W        W33713  31.535  16.144  11.112
65373W        W33714  10.773  22.077   3.720
65374W        W33715  41.322  26.104  12.073
65375W        W33716  14.200  33.946  13.957
65376W        W33717  17.795  42.851  12.882
65377W        W33718  30.546   4.892  14.841
65378W        W33719  29.141  22.699  14.389
65379W        W33720  22.501  27.608  14.438
65380W        W33721  34.103  21.648   4.222
65381W        W33722  16.224  23.520  10.136
65382W        W33723  14.749  36.406  13.529
65383W        W33724  26.021  21.246  14.473
65384W        W33725  35.083  29.579   4.231
65385W        W33726  44.887   5.231   4.770
65386W        W33727   2.880   4.410  14.304
65387W        W33728   0.263  35.472   1.347
65388W        W33729  29.461  25.075   1.299
65389W        W33730  39.882  37.529   2.802
65390W        W33731  11.261   5.233  12.891
65391W        W33732  20.184  21.147  11.409
65392W        W33733  18.592   4.435   0.388
65393W        W33734  40.939  30.095   3.257
65394W        W33735   1.910  31.088   4.834
65395W        W33736  19.571  23.578   3.209
65396W        W33737  35.099  20.081   2.341
65397W        W33738  28.065  31.090  12.890
65398W        W33739  29.173  17.227  12.494
65399W        W33740   2.422  19.106  10.131
65400W        W33741  19.208  30.046  10.407
65401W        W33742  19.546  12.729  14.873
65402W        W33743   8.233  34.521   3.374
65403W        W33744  40.530  39.980   1.390
65404W        W33745   1.469  40.461   3.729
65405W        W33746  20.101  32.016   3.818
65406W        W33747  28.111   1.323  10.434
65407W        W33748   9.725  34.482  10.889
65408W        W33749   5.214  18.634  13.936
65409W        W33750  43.410  26.004  10.412
65410W        W33751  19.612   2.300  13.324
65411W        W33752   0.280  16.217   2.187
65412W        W33753  35.896  20.589   2.361
65413W        W33754  35.461  26.533  13.846
65414W        W33755  10.274  26.951  11.471
65415W        W33756  40.050   2.862   4.736
65416W        W33757  31.009  10.687  13.864
65417W        W33758   4.766  35.376  10.514
65418W        W33759  24.033   8.851   5.249
65419W        W33760  24.092   7.855   1.890
65420W        W33761  14.753  23.175   0.729
65421W        W33762  11.643   5.290  10.430
65422W        W33763  11.324  20.542  14.451
65423W        W33764  43.351  20.758  10.932
65424W        W33765   7.265  35.432  12.976
65425W        W33766  39.817  17.721   0.471
65426W        W33767   6.699  17.243   4.174
65427W        W33768  21.207  21.083   2.816
65428W        W33769  25.980  23.557  13.478
65429W        W33770  26.142  16.782   0.366
65430W        W33771  42.281  11.868   1.767
65431W        W33772   1.451  16.106   0.944
65432W        W33773  21.176  24.544  11.944
65433W        W33774  13.785  38.840   0.793
65434W        W33775  11.226  22.502   1.286
65435W        W33776  34.594   3.778  13.937
65436W        W33777  24.597  32.108  14.391
65437W        W33778  18.734   7.408   3.663
65438W        W33779  41.866  12.221  14.869
65439W        W33780  44.446  12.835   2.244
65440W        W33781  22.186  32.519   2.357
65441W        W33782  11.203  12.138  11.409
65442W        W33783  32.989  31.033  12.921
65443W        W33784  27.087  35.089   2.890
65444W        W33785  39.421  21.547   0.818
65445W        W33786  25.080  15.282  14.884
65446W        W33787  18.787   3.337  11.446
65447W        W33788  33.923  21.684  11.040
65448W        W33789  12.294  16.720   0.475
65449W        W33790  34.586  28.072  14.905
65450W        W33791  39.348  40.304   2.405
65451W        W33792   5.318  28.956  11.024
65452W        W33793  32.419  40.503  10.991
65453W        W33794   7.751  11.200   1.273
65454W        W33795  38.472   7.874  12.542
65455W        W33796  33.004  16.725  10.526
65456W        W33797  12.354  27.499   2.697
65457W        W33798  28.461  32.626  10.974
65458W        W33799   9.873  14.194   3.816
65459W        W33800  34.937  39.012   4.131
65460W        W33801  38.547  37.873  10.597
65461W        W33802  31.511   8.745   2.263
65462W        W33803  10.255  37.956  11.610
65463W        W33804  40.956  40.960  10.437
65464W        W33805  15.766  38.958  13.974
65465W        W33806  16.196  29.930   2.411
65466W        W33807  11.344  40.951   2.682
65467W        W33808  10.359  16.698   3.179
65468W        W33809  25.641   4.363  10.621
65469W        W33810  24.998  33.064  10.560
65470W        W33811   6.339  31.059   0.260
65471W        W33812  35.483   5.314   1.349
65472W        W33813  12.136  38.983   4.649
65473W        W33814   9.344  31.140  12.392
65474W        W33815  37.348   0.392   2.802
65475W        W33816  43.473  43.452  10.898
65476W        W33817  30.076  14.095   2.722
65477W        W33818  43.332  24.141  13.028
65478W        W33819   7.688  30.518   4.223
65479W        W33820  37.928   1.361  11.066
65480W        W33821  44.796   7.867   3.853
65481W        W33822  10.340  23.007  12.884
65482W        W33823   9.195   6.363  12.424
65483W        W33824  17.109  30.450   2.230
65484W        W33825  11.630   2.406  12.044
65485W        W33826  12.297  21.751  13.898
65486W        W33827  42.995   6.291   3.238
65487W        W33828  22.044  16.779   2.762
65488W        W33829  27.070  22.502   2.283
65489W        W33830  40.326  31.436  11.117
65490W        W33831  30.978  13.289   2.664
65491W        W33832  17.580  19.188  14.774
65492W        W33833  18.101  14.755   1.694
65493W        W33834  40.035  15.790  14.818
65494W        W33835  42.320  26.196   3.170
65495W        W33836  16.255  15.317  10.944
65496W        W33837   5.755  37.336   1.239
65497W        W33838  41.848   0.876   2.848
65498W        W33839  18.074  34.096   4.638
65499W        W33840  26.130  11.320   4.797
65500W        W33841  24.152  44.458  11.087
65501W        W33842   6.383  11.734   1.745
65502W        W33843  10.695  39.494   2.307
65503W        W33844  31.635  15.131  11.426
65504W        W33845   3.391   6.397  11.020
65505W        W33846   9.237   4.255  11.072
65506W        W33847  12.229  43.839  14.913
65507W        W33848  21.531  43.852   2.845
65508W        W33849  37.449  28.163   1.902
65509W        W33850  38.897  32.093  12.345
65510W        W33851  31.072  25.148   3.323
65511W        W33852  26.565   3.252  14.887
65512W        W33853  40.404  30.988  10.582
65513W        W33854  36.046  30.448  12.361
65514W        W33855  43.274   9.299   1.811
65515W        W33856  13.219  11.668  11.018
65516W        W33857  14.222  37.477   1.710
65517W        W33858  12.129  25.169   2.199
65518W        W33859  15.136   6.183   4.234
65519W        W33860   3.925  16.726  12.379
65520W        W33861  39.451  26.041   2.367
65521W        W33862   9.851   3.256  10.988
65522W        W33863  20.160  44.009  10.919
65523W        W33864   1.244   4.397   2.791
65524W        W33865  10.718   0.415   0.466
65525W        W33866  43.413   9.352  14.505
65526W        W33867  18.578  24.052   3.299
65527W        W33868  19.632  11.146  12.526
65528W        W33869  44.935  25.141  10.986
65529W        W33870  37.365  37.880   2.899
65530W        W33871   6.728  38.870  10.457
65531W        W33872   4.830  12.622  13.470
65532W        W33873  41.436   1.239   0.278
65533W        W33874  18.093   0.979   2.829
65534W        W33875  14.638  22.530   1.260
65535W        W33876  29.586  17.687  11.386
65536W        W33877  27.182  14.278   2.899
65537W        W33878  18.197   2.421   2.880
65538W        W33879  34.594  36.460   0.850
65539W        W33880  23.192  33.044   0.781
65540W        W33881  27.675  22.197  12.474
65541W        W33882  13.288  31.942  14.387
65542W        W33883  28.030  10.289   2.665
65543W        W33884   3.290   1.925  13.873
65544W        W33885  41.346  33.529  11.891
65545W        W33886  22.714  14.190  13.511
65546W        W33887  42.456  33.947  11.477
65547W        W33888  25.016  41.039   3.268
65548W        W33889  35.077  34.510   1.230
65549W        W33890  24.136  19.733   3.655
65550W        W33891  41.431   8.692   0.811
65551W        W33892  22.526  13.187   1.364
65552W        W33893  23.089  33.122   2.694
65553W        W33894  31.590   5.232  12.013
65554W        W33895  39.487   4.416   0.844
65555W        W33896  31.088  21.162  11.396
65556W        W33897  17.108  15.621   3.222
65557W        W33898  26.470   9.233   5.213
65558W        W33899   7.388  34.080  10.630
65559W        W33900   7.310   5.816  14.959
65560W        W33901  32.538   8.393  11.577
65561W        W33902  40.528  11.233  12.562
65562W        W33903  44.900  34.053   0.888
65563W        W33904  29.647  19.107  14.438
65564W        W33905  27.671   7.898  12.048
65565W        W33906  15.773  10.276   4.255
65566W        W33907   4.795  41.447  10.947
65567W        W33908  27.495  30.470  11.093
65568W        W33909  20.585  37.439  11.454
65569W        W33910  30.535  36.085  14.794
65570W        W33911  11.806  30.647   2.726
65571W        W33912   5.915  13.345   1.760
65572W        W33913   1.409  36.479   4.240
65573W        W33914  23.657  20.240  13.905
65574W        W33915  15.144  18.780   2.869
65575W        W33916  17.731  39.321  13.512
65576W        W33917  33.942   1.897   5.207
65577W        W33918  27.560  28.537   0.832
65578W        W33919  39.011  42.423  10.556
65579W        W33920  14.287  19.596  12.521
65580W        W33921  21.525  11.702   3.165
65581W        W33922   7.272   9.300  12.352
65582W        W33923  18.269  37.840   3.654
65583W        W33924  44.851  25.050   0.415
65584W        W33925  18.660  37.980  11.386
65585W        W33926  29.955  42.801   4.162
65586W        W33927  17.733  42.000   0.745
65587W        W33928  38.850  21.611   1.287
65588W        W33929  32.003   1.757   2.666
65589W        W33930  11.269  28.949  12.014
65590W        W33931   6.840   5.806   3.212
65591W        W33932  10.840  11.741   0.464
65592W        W33933  15.743  26.693   2.214
65593W        W33934  24.140  11.734   4.638
65594W        W33935  14.768  17.731   3.385
65595W        W33936  32.918   8.170   4.279
65596W        W33937  26.136  20.556   4.619
65597W        W33938  36.516  21.166   9.998
65598W        W33939  18.281   2.891   4.309
65599W        W33940  36.389  27.646  11.916
65600W        W33941  32.067  14.295  11.887
65601W        W33942  15.790  42.912   1.811
65602W        W33943  21.173  22.720  14.965
65603W        W33944  19.230  27.997   0.338
65604W        W33945   0.314  32.100  12.034
65605W        W33946  18.139  37.570  14.836
65606W        W33947  37.509  42.893   4.693
65607W        W33948  34.393  32.101   2.210
65608W        W33949  23.672  11.853  12.062
65609W        W33950  42.819  28.498  10.409
65610W        W33951  13.713  24.187  13.356
65611W        W33952  39.533  16.191   1.862
65612W        W33953  39.950  12.312   2.761
65613W        W33954  17.280  23.706   0.457
65614W        W33955  19.682  41.533  14.821
65615W        W33956  20.067   0.775  10.930
65616W        W33957  40.380  27.969   2.868
65617W        W33958   3.277  18.704  12.863
65618W        W33959  18.786  12.219  13.798
65619W        W33960  41.910  11.719   0.432
65620W        W33961  41.903  19.534   5.086
65621W        W33962  13.203  29.062   1.811
65622W        W33963   8.380  41.419  11.564
65623W        W33964   2.740  19.199   3.270
65624W        W33965  38.329  40.863  14.445
65625W        W33966  30.431  41.338  14.469
65626W        W33967   8.378  26.200   0.281
65627W        W33968  24.178   7.402   9.987
65628W        W33969  21.534  42.320  13.873
65629W        W33970  24.034   5.830   3.674
65630W        W33971  20.234  36.531  11.066
65631W        W33972  18.660   0.428   2.417
65632W        W33973  28.676  11.372  11.518
65633W        W33974  30.996  36.894   2.320
65634W        W33975   4.226  42.332   1.760
65635W        W33976   8.894  39.401  11.553
65636W        W33977   2.859  19.603  11.984
65637W        W33978  31.105  22.242  10.919
65638W        W33979  31.000  23.655   4.134
65639W        W33980   3.825  18.139   0.960
65640W        W33981  31.144  19.130  14.787
65641W        W33982  19.629   7.351   0.854
65642W        W33983  38.865  39.475  14.886
65643W        W33984  27.035  39.529  12.956
65644W        W33985   2.226  35.107  12.387
65645W        W33986  28.954  30.568  10.570
65646W        W33987  32.890  32.473   2.792
65647W        W33988  33.964  40.799   3.689
65648W        W33989  19.610   8.287   4.623
65649W        W33990  41.989   8.232  11.118
65650W        W33991  15.096  31.419  14.786
65651W        W33992  21.079  20.161  13.849
65652W        W33993  26.662  18.771  10.928
65653W        W33994   5.788  41.859  13.856
65654W        W33995  27.999  37.355   0.881
65655W        W33996  32.524  34.959  12.039
65656W        W33997  15.675  17.686   0.473
65657W        W33998  20.522  19.122  13.914
65658W        W33999  42.780  14.151   1.342
65659W        W34000  33.558   5.708   0.316
65660W        W34001  25.202  43.963  10.574
65661W        W34002  20.571  12.162   2.293
65662W        W34003  12.116  35.965  14.345
65663W        W34004  35.037  30.640   1.757
65664W        W34005  41.909   4.890  14.407
65665W        W34006  28.147   2.729  14.326
65666W        W34007  25.540  12.636  10.148
65667W        W34008  26.637   2.772  10.937
65668W        W34009  25.990   8.374   1.426
65669W        W34010   8.871  25.629  10.918
65670W        W34011  32.986  21.551  14.810
65671W        W34012   5.352  16.084   1.291
65672W        W34013  15.208  10.310   2.827
65673W        W34014  39.478   0.842  14.369
65674W        W34015  41.011   8.349  14.297
65675W        W34016   3.267  24.182   2.311
65676W        W34017  20.273  12.773   4.348
65677W        W34018  23.146  31.084  12.549
65678W        W34019  15.696   2.387   5.117
65679W        W34020  32.616  33.917  11.579
65680W        W34021  26.115  27.515  10.083
65681W        W34022   6.284  31.403  12.417
65682W        W34023   3.363  30.525   4.784
65683W        W34024  34.384  24.627  10.982
65684W        W34025  36.021  32.539   0.776
65685W        W34026  19.189  28.668  12.440
65686W        W34027  14.828  25.660   0.253
65687W        W34028  37.889  36.454  10.598
65688W        W34029  10.757  15.667   1.782
65689W        W34030  37.540  31.566   0.396
65690W        W34031  31.554  36.488   0.939
65691W        W34032  11.658  20.736   0.862
65692W        W34033  12.749   2.810  13.346
65693W        W34034   0.350  34.929   2.751
65694W        W34035  25.568  38.837  13.312
65695W        W34036   3.242  27.016  11.459
65696W        W34037  38.025  18.561  13.877
65697W        W34038  35.358  10.706   4.763
65698W        W34039  42.870  41.479   4.645
65699W        W34040  35.895  21.723   3.156
65700W        W34041  33.438  38.889   1.812
65701W        W34042  22.043  32.899  13.443
65702W        W34043  15.804   3.925  10.071
65703W        W34044  38.460  37.468  11.553
65704W        W34045   3.927  30.544   4.154
65705W        W34046  39.426  13.755   3.369
65706W        W34047  43.409   2.934  14.376
65707W        W34048   0.914  12.827  12.385
65708W        W34049  33.041  22.538   2.722
65709W        W34050  31.073  25.664   3.698
65710W        W34051  32.042  12.699   0.774
65711W        W34052  36.565  11.272  12.464
65712W        W34053  36.457  35.952   4.173
65713W        W34054  28.010  25.046   1.375
65714W        W34055  23.569  26.075   0.857
65715W        W34056   4.706  37.439  12.494
65716W        W34057  31.924   2.895   3.696
65717W        W34058  43.978  22.728   3.200
65718W        W34059  37.888  15.258  11.096
65719W        W34060  39.888  43.806   3.295
65720W        W34061  32.510  35.924   2.798
65721W        W34062  18.740   2.766  11.433
65722W        W34063  43.806  28.952  14.925
65723W        W34064  19.097  15.801  13.479
65724W        W34065   7.665  16.242   4.156
65725W        W34066  34.528  40.383  11.903
65726W        W34067  42.299  22.183  10.554
65727W        W34068  20.604  30.940   4.633
65728W        W34069  34.022  26.987   0.304
65729W        W34070   1.249   2.361  12.053
65730W        W34071  10.822  39.553   4.694
65731W        W34072  26.959  40.350   3.712
65732W        W34073  11.165  44.004   1.313
65733W        W34074  41.006   4.221  13.021
65734W        W34075  23.601  13.345   2.828
65735W        W34076  38.393   9.334  12.960
65736W        W34077  37.039  24.518  11.593
65737W        W34078  21.231   4.837   0.287
65738W        W34079  27.641   6.195   3.206
65739W        W34080  21.243  17.110  14.450
65740W        W34081  31.471  21.214  11.428
65741W        W34082  16.225  14.284   0.915
65742W        W34083  12.342  33.503   4.766
65743W        W34084  43.508  40.432   0.932
65744W        W34085  13.661  29.610   3.691
65745W        W34086  42.011  26.038  14.003
65746W        W34087   3.410   4.347  14.868
65747W        W34088  12.123  24.617  12.836
65748W        W34089  42.880   7.757   2.847
65749W        W34090  30.151  26.091  13.967
65750W        W34091   1.816  35.515  14.989
65751W        W34092  29.945   0.283   0.949
65752W        W34093  29.547   2.340  12.914
65753W        W34094  20.586  44.984   4.695
65754W        W34095  29.563  27.039  13.319
65755W        W34096  37.358  38.417   4.798
65756W        W34097   9.313  29.131   4.213
65757W        W34098   1.961  32.096  12.082
65758W        W34099  34.900  40.968  11.864
65759W        W34100  44.957   5.289  10.420
65760W        W34101  12.778  21.228  10.474
65761W        W34102  15.236  36.413   3.163
65762W        W34103  18.068  18.559  12.497
65763W        W34104  26.176  39.852  14.974
65764W        W34105  20.133  12.152   2.743
65765W        W34106   7.844   2.805  11.932
65766W        W34107  30.065   2.295   4.715
65767W        W34108  22.646  11.688   5.252
65768W        W34109  43.912  19.220   4.330
65769W        W34110  28.033  34.471   2.371
65770W        W34111  12.697  18.063   2.263
65771W        W34112  37.963  43.317  13.838
65772W        W34113  37.558  10.659  10.636
65773W        W34114  36.437  33.380   0.276
65774W        W34115  16.717  27.661   3.348
65775W        W34116  14.234  23.047   0.281
65776W        W34117  10.749   1.439  12.833
65777W        W34118  32.534   6.396  10.495
65778W        W34119  14.818  21.517  11.564
65779W        W34120  44.787  13.108  11.059
65780W        W34121  11.655  25.612  12.347
65781W        W34122  11.258  32.393  13.354
65782W        W34123  12.351   9.826   1.805
65783W        W34124  32.013  36.430  10.490
65784W        W34125  40.483  33.120  11.103
65785W        W34126  36.461   2.908   4.123
65786W        W34127  35.417  43.858  14.310
65787W        W34128  44.363  33.087   1.433
65788W        W34129   2.919  41.966  13.523
65789W        W34130   1.791  22.122  10.932
65790W        W34131  18.679  39.985  12.521
65791W        W34132  42.384  43.492   3.819
65792W        W34133  19.217   6.835   4.831
65793W        W34134   3.741  14.270  13.045
65794W        W34135  39.322  26.197   2.826
65795W        W34136  40.415  33.947  13.455
65796W        W34137   3.732   9.769   1.857
65797W        W34138  10.870  22.009   0.432
65798W        W34139  26.559   5.209   1.819
65799W        W34140  18.099  39.484   2.829
65800W        W34141  26.175  28.509  11.506
65801W        W34142  24.637   6.389  13.053
65802W        W34143   7.860   7.895  10.488
65803W        W34144  27.116   7.806   0.893
65804W        W34145  33.973  32.584   1.900
65805W        W34146   2.768   0.795   0.755
65806W        W34147  38.564   3.905  10.997
65807W        W34148   6.700  16.726  11.546
65808W        W34149   5.747  31.560   3.230
65809W        W34150  23.090  15.149   3.657
65810W        W34151  34.471   8.260   3.254
65811W        W34152  41.827  41.448  12.853
65812W        W34153  29.135  31.475   1.414
65813W        W34154  22.246  42.290   2.394
65814W        W34155  29.509  14.811  12.011
65815W        W34156  12.640  29.129  10.476
65816W        W34157   5.436  24.974   1.250
65817W        W34158  20.610  41.405  14.908
65818W        W34159  18.691  12.204   4.185
65819W        W34160  34.437  24.112  12.451
65820W        W34161  26.491  19.772  11.474
65821W        W34162  21.071  33.899  11.563
65822W        W34163   6.394  14.719  12.557
65823W        W34164  16.094  24.200   2.683
65824W        W34165   8.188  19.572   0.304
65825W        W34166   9.733  22.073   2.893
65826W        W34167  23.627   7.203   2.378
65827W        W34168  23.588  34.526  12.939
65828W        W34169   0.869  22.528   1.330
65829W        W34170  11.273   1.482  11.468
65830W        W34171  20.538  19.048   4.147
65831W        W34172  18.296  39.945  12.949
65832W        W34173  26.117   4.279   0.319
65833W        W34174  30.153  33.898  13.039
65834W        W34175   1.964   5.275  13.977
65835W        W34176  18.092  26.590  11.439
65836W        W34177   5.311  22.720   4.756
65837W        W34178   1.458  35.871  12.947
65838W        W34179  39.447  11.139  14.281
65839W        W34180  30.103  43.919  12.848
65840W        W34181   9.781  13.782   2.365
65841W        W34182  16.709  36.521   2.219
65842W        W34183  16.726  16.310   0.385
65843W        W34184  24.139  19.563  14.804
65844W        W34185  32.054  40.989   4.836
65845W        W34186  42.801  34.396   3.651
65846W        W34187  17.234  16.746  14.335
65847W        W34188   0.915  20.244  10.944
65848W        W34189   2.446  28.930  11.007
65849W        W34190  12.298  17.708  10.418
65850W        W34191  11.355  17.561  14.462
65851W        W34192  41.362  15.191  14.326
65852W        W34193  41.885  31.118  11.122
65853W        W34194  14.607  36.049   0.872
65854W        W34195  22.062   2.322  13.833
65855W        W34196  31.060  40.959  11.014
65856W        W34197  39.994  29.062  13.445
65857W        W34198  41.344   4.349  14.316
65858W        W34199  26.689  43.787  14.422
65859W        W34200  22.055  36.888   3.802
65860W        W34201  14.662  31.090   3.665
65861W        W34202  21.257  26.002   2.689
65862W        W34203   4.804  14.611   2.736
65863W        W34204  26.129  15.678   0.315
65864W        W34205  32.098  32.469  13.451
65865W        W34206  35.107  20.669  12.890
65866W        W34207  23.189   6.328  12.550
65867W        W34208  32.122  11.230   1.372
65868W        W34209  43.317  36.070  12.494
65869W        W34210  43.293  20.183   0.483
65870W        W34211  25.174  18.765  13.339
65871W        W34212  39.529   0.819  11.413
65872W        W34213  15.628  16.748  10.566
65873W        W34214  42.333  17.713   4.737
65874W        W34215  38.925   0.767   1.837
65875W        W34216  12.687  23.520  10.970
65876W        W34217  39.435  44.982  11.952
65877W        W34218  36.923  16.151   0.415
65878W        W34219  11.696  33.926   4.711
65879W        W34220  11.818  33.898  13.030
65880W        W34221   7.367  32.567   3.380
65881W        W34222  44.371  41.514   2.752
65882W        W34223  31.441   8.813   4.351
65883W        W34224  15.690   5.931   4.350
65884W        W34225  21.722  31.148  12.403
65885W        W34226  23.131   5.265   0.832
65886W        W34227  41.408  37.002  14.409
65887W        W34228  34.459   5.325   0.428
65888W        W34229  15.814   4.412   1.421
65889W        W34230   2.963   8.287   2.257
65890W        W34231  27.136  19.088   4.265
65891W        W34232  23.719   4.939   4.767
65892W        W34233  41.423  18.697  12.409
65893W        W34234  35.911  14.301   4.782
65894W        W34235  44.867  23.651  13.417
65895W        W34236  40.801   1.876   1.881
65896W        W34237  22.550  19.184   2.754
65897W        W34238  12.773  41.027  14.450
65898W        W34239  23.578   3.293  10.982
65899W        W34240  16.628  37.399  11.542
65900W        W34241  37.916  30.078  13.813
65901W        W34242  15.791  44.325  10.548
65902W        W34243  44.294  42.819   3.647
65903W        W34244  14.592  19.585  13.057
65904W        W34245  24.584  29.121   3.267
65905W        W34246   8.295  35.368  10.890
65906W        W34247   2.367   7.365  11.101
65907W        W34248  44.368  37.512  13.852
65908W        W34249  10.711  33.383  11.509
65909W        W34250   4.929  34.377  14.418
65910W        W34251  38.861  39.966   5.131
65911W        W34252  35.051  25.661   0.439
65912W        W34253  24.483  19.551   2.183
65913W        W34254  17.204  40.391   4.612
65914W        W34255  23.520  33.404  13.917
65915W        W34256   1.940  19.129   0.370
65916W        W34257  12.143   2.844   0.733
65917W        W34258  30.936  40.952   1.913
65918W        W34259  27.548  37.993  13.494
65919W        W34260  31.508  44.377   2.670
65920W        W34261  40.548  32.517  14.394
65921W        W34262   4.867  13.335   5.275
65922W        W34263   6.244  17.787   3.192
65923W        W34264   1.784  32.947  13.393
65924W        W34265  34.072  41.300   4.145
65925W        W34266  28.177  36.075  10.079
65926W        W34267  18.689  12.318   2.854
65927W        W34268  29.521  15.592  10.555
65928W        W34269  41.847  22.596   4.717
65929W        W34270  20.755  12.128   4.689
65930W        W34271  20.714  18.763   2.711
65931W        W34272  13.844  17.080   1.264
65932W        W34273  21.029  17.158  14.975
65933W        W34274  35.010  19.060  10.469
65934W        W34275  33.394   3.219   1.433
65935W        W34276  13.241   4.727   4.747
65936W        W34277  15.639  11.625  10.526
65937W        W34278  33.620  33.388  12.003
65938W        W34279  31.994  40.375  13.829
65939W        W34280  22.687  43.315   2.323
65940W        W34281  23.600   8.678  13.342
65941W        W34282  24.212  15.659   5.284
65942W        W34283  20.133   4.859  11.046
65943W        W34284   0.751  37.392  11.067
65944W        W34285   8.657  37.971  14.001
65945W        W34286  35.479  30.948   4.623
65946W        W34287  19.173   5.273   0.814
65947W        W34288   4.831   0.425  12.860
65948W        W34289   7.768   0.448  12.483
65949W        W34290   3.432  35.485   0.304
65950W        W34291  16.282  23.706   5.103
65951W        W34292  25.188  17.778  10.408
65952W        W34293  42.022   2.251  13.333
65953W        W34294  13.219   1.347  10.540
65954W        W34295  29.600  24.027   0.780
65955W        W34296  36.545  36.358   3.185
65956W        W34297  20.160  23.491  11.985
65957W        W34298  33.079  33.618  11.946
65958W        W34299   7.188  36.092  10.485
65959W        W34300   8.804  11.154  11.099
65960W        W34301   7.912  35.414   1.265
65961W        W34302  42.807  40.945  10.513
65962W        W34303  40.956  31.429   0.438
65963W        W34304   7.821   2.913   1.254
65964W        W34305  44.773  29.665   1.421
65965W        W34306   8.279  19.658  10.923
65966W        W34307  34.867  32.476   2.773
65967W        W34308  19.267  41.790  11.124
65968W        W34309  21.167   0.881   5.214
65969W        W34310  24.200  30.932  14.774
65970W        W34311   8.807   3.287  11.539
65971W        W34312  10.366  33.070  11.127
65972W        W34313  15.663  44.903  12.520
65973W        W34314  25.191  43.421  11.978
65974W        W34315  36.413  44.347  14.381
65975W        W34316  22.747   5.298   3.867
65976W        W34317  12.629  20.056   2.287
65977W        W34318  42.293  42.425  13.347
65978W        W34319  44.993  22.019   2.335
65979W        W34320   1.809  21.236   4.603
65980W        W34321  28.185   3.796  13.385
65981W        W34322   5.259  22.627   2.300
65982W        W34323  25.660  14.642  13.389
65983W        W34324  38.907  32.524  14.487
65984W        W34325   3.369  20.240   3.649
65985W        W34326   9.302   5.385   4.827
65986W        W34327  26.633  21.733   2.208
65987W        W34328   2.918   0.332   3.182
65988W        W34329  21.262   2.466  12.340
65989W        W34330  26.525  28.679   1.400
65990W        W34331  20.264  39.488  10.976
65991W        W34332  24.570  40.985   2.357
65992W        W34333  19.639   1.802  11.941
65993W        W34334  19.717  16.570   2.736
65994W        W34335  15.668  40.501   4.785
65995W        W34336  19.638  25.115  13.020
65996W        W34337  33.430  29.601  12.406
65997W        W34338   3.917  35.021   2.374
65998W        W34339   1.783  11.152   1.210
65999W        W34340  42.394  13.288   0.940
66000W        W34341   6.769  31.962  13.827
66001W        W34342  13.206  35.557  11.939
66002W        W34343  39.004  24.130   0.443
66003W        W34344  34.561  34.573   3.343
66004W        W34345  26.000  39.971   2.197
66005W        W34346  20.040  15.190  13.993
66006W        W34347  12.357  16.265  11.010
66007W        W34348  39.856  44.415  13.823
66008W        W34349   5.817  33.515   1.273
66009W        W34350  38.840  31.123  12.489
66010W        W34351   0.885  22.145  14.440
66011W        W34352  18.234  15.136   0.839
66012W        W34353  25.491  13.763   2.691
66013W        W34354   6.920  22.063  13.455
66014W        W34355   8.890  10.734   0.448
66015W        W34356  35.468  10.821  11.963
66016W        W34357   5.899  33.954  10.416
66017W        W34358  25.985  42.974   0.863
66018W        W34359  26.099  13.692   4.743
66019W        W34360  18.090  39.861   1.820
66020W        W34361   6.212   6.256   4.765
66021W        W34362  29.535  29.596   3.248
66022W        W34363  39.903  15.689   2.418
66023W        W34364  30.483  10.352  14.794
66024W        W34365  10.208  34.565  13.471
66025W        W34366  34.100  35.008   1.397
66026W        W34367  26.593  26.166  13.848
66027W        W34368  30.500  23.195  10.601
66028W        W34369  23.168  28.073  11.376
66029W        W34370  31.468   9.764  13.402
66030W        W34371  43.879  30.994  11.074
66031W        W34372  26.557  43.986   4.353
66032W        W34373  24.084  14.310  10.612
66033W        W34374   3.246   1.243  13.428
66034W        W34375  42.979  43.824  14.335
66035W        W34376  36.421  29.017  10.565
66036W        W34377  16.153  39.809  12.913
66037W        W34378   8.755  12.726   0.354
66038W        W34379  20.035  27.000  12.493
66039W        W34380  19.570  20.531   2.771
66040W        W34381  26.106  38.341   2.809
66041W        W34382  14.741  23.675  13.926
66042W        W34383  33.491  17.562   0.406
66043W        W34384   1.447  30.980   3.291
66044W        W34385  36.413  13.291  12.499
66045W        W34386  20.096  34.117   0.242
66046W        W34387  10.356  44.397   2.237
66047W        W34388  31.961   9.886   4.266
66048W        W34389  44.819   1.444  14.508
66049W        W34390  33.423  37.477   1.870
66050W        W34391  17.719  38.378  13.520
66051W        W34392  37.566  37.994   1.934
66052W        W34393  17.695  43.993   2.736
66053W        W34394  27.629  42.786   1.837
66054W        W34395  42.419  18.767   3.770
66055W        W34396  40.435  20.045  12.943
66056W        W34397  11.174  19.092  13.312
66057W        W34398  32.617  27.088   4.180
66058W        W34399  14.725  28.042   3.296
66059W        W34400  15.135  19.681   1.380
66060W        W34401   7.780  10.283  10.085
66061W        W34402   3.855  40.335   2.209
66062W        W34403   3.846  39.430  11.405
66063W        W34404   4.226  44.441  14.343
66064W        W34405   0.942  13.238  10.002
66065W        W34406  36.060  33.995  13.020
66066W        W34407  36.926   2.283   2.859
66067W        W34408  37.855  23.572  10.904
66068W        W34409  30.414   3.256   4.307
66069W        W34410  42.417  36.554   0.369
66070W        W34411  26.004  17.286   3.670
66071W        W34412  44.291   1.379   4.284
66072W        W34413  33.494  15.133   3.239
66073W        W34414  41.867  28.185   4.740
66074W        W34415  27.606  37.520   0.300
66075W        W34416  17.295  31.905  10.135
66076W        W34417  17.219  16.246  12.446
66077W        W34418  36.997  34.548   3.818
66078W        W34419  20.100  44.479   4.604
66079W        W34420  19.721  15.624   3.314
66080W        W34421  40.014  19.261   2.290
66081W        W34422  39.978  23.117  13.509
66082W        W34423  31.546   4.222  13.983
66083W        W34424  33.880  37.476   0.321
66084W        W34425  19.228  11.368  11.493
66085W        W34426  21.025   0.846   2.834
66086W        W34427  40.469   3.435   0.333
66087W        W34428  24.196  39.035   0.814
66088W        W34429  10.149  29.493  14.871
66089W        W34430  44.420  16.315  10.902
66090W        W34431   5.414  20.172  12.864
66091W        W34432  34.926  41.331  14.280
66092W        W34433  22.721   4.800  10.431
66093W        W34434  43.316  37.941  11.915
66094W        W34435  30.512  13.306   1.298
66095W        W34436  24.579  37.473   1.265
66096W        W34437   6.849  20.529   2.739
66097W        W34438  18.665  37.939   0.831
66098W        W34439  41.374  28.467   0.275
66099W        W34440  31.435  23.499  13.953
66100W        W34441   4.808  10.806  12.527
66101W        W34442  38.474  36.438   4.666
66102W        W34443  16.170  22.229   4.743
66103W        W34444  23.115  19.129   4.680
66104W        W34445   1.460  29.504  11.088
66105W        W34446  33.073  27.088  11.388
66106W        W34447  28.129  13.809  11.000
66107W        W34448  33.438  12.282  13.953
66108W        W34449  43.953  28.952   3.322
66109W        W34450  11.132  44.412   4.784
66110W        W34451  23.490  19.593  12.564
66111W        W34452  17.110  21.039   5.730
66112W        W34453  29.031  40.364  11.900
66113W        W34454  36.992  19.614  12.354
66114W        W34455   9.191  25.972   1.225
66115W        W34456  30.571   8.250  11.876
66116W        W34457  35.565  11.160   0.293
66117W        W34458  28.468  16.799  13.407
66118W        W34459  36.422  15.740  12.903
66119W        W34460  42.818  37.487  14.987
66120W        W34461  36.428  43.290  14.304
66121W        W34462  39.814  43.409  14.380
66122W        W34463   2.833  36.416   4.771
66123W        W34464  33.449  43.376   0.343
66124W        W34465   4.829   7.788  13.476
66125W        W34466  18.646   4.919  14.406
66126W        W34467  29.493  39.873  11.054
66127W        W34468  26.072   7.883   1.241
66128W        W34469  26.043   1.236  13.452
66129W        W34470   4.333  33.545   4.264
66130W        W34471  27.622  43.919  11.591
66131W        W34472  31.556  32.488   4.683
66132W        W34473   5.922  25.030   4.731
66133W        W34474  18.089  28.619   2.704
66134W        W34475   8.845   9.327  14.932
66135W        W34476  38.493  21.022   4.756
66136W        W34477  13.200  17.667  11.855
66137W        W34478  11.267  17.229  14.333
66138W        W34479  12.334   5.928   4.637
66139W        W34480  21.139   8.174  10.540
66140W        W34481  37.537  29.458  12.851
66141W        W34482  33.931  39.448   0.755
66142W        W34483   0.856   2.946   0.266
66143W        W34484  14.631  13.730  10.645
66144W        W34485  31.632  31.532  12.031
66145W        W34486  35.593  29.118  11.020
66146W        W34487  43.396  11.841   1.292
66147W        W34488  27.105   8.849   3.195
66148W        W34489  43.888  34.570   0.834
66149W        W34490  42.331  19.664   1.871
66150W        W34491  22.672  27.121  12.971
66151W        W34492  28.934   0.954  12.410
66152W        W34493  21.511  13.608  11.891
66153W        W34494   9.339  13.217   3.285
66154W        W34495  34.086  31.479  10.504
66155W        W34496  29.100   2.850   3.758
66156W        W34497  11.630  25.704  11.559
66157W        W34498   3.394   4.773   0.261
66158W        W34499  28.170  36.915   1.405
66159W        W34500  29.443  32.526  13.366
66160W        W34501   6.419  19.652  11.996
66161W        W34502  27.477   9.216  10.439
66162W        W34503  17.646  11.807  11.517
66163W        W34504   3.780  13.143  10.954
66164W        W34505   4.290  29.139   0.339
66165W        W34506  11.316   5.218  12.084
66166W        W34507   8.363   1.265  13.476
66167W        W34508  26.126  19.734  10.572
66168W        W34509   7.250  32.517   4.161
66169W        W34510  38.398   5.428  13.476
66170W        W34511  30.450  21.035   2.252
66171W        W34512   0.392  20.550   1.796
66172W        W34513  32.923  15.119  13.837
66173W        W34514  44.796  43.392  13.000
66174W        W34515  32.470  33.461   3.243
66175W        W34516  16.130  25.574  12.995
66176W        W34517  21.085  40.024   1.408
66177W        W34518  32.616  10.678   3.154
66178W        W34519   3.361  26.480   3.197
66179W        W34520  27.015  35.864  13.469
66180W        W34521  13.670  25.611   1.310
66181W        W34522  11.807  11.651   0.359
66182W        W34523  20.704  12.259   1.730
66183W        W34524  40.391  38.033   2.755
66184W        W34525  32.061   2.819  13.491
66185W        W34526   4.311  32.038   0.438
66186W        W34527  16.768  20.652  10.895
66187W        W34528  31.538  32.044  14.409
66188W        W34529  27.160  37.434  14.971
66189W        W34530  35.359  13.835  13.899
66190W        W34531   0.933  21.104   2.761
66191W        W34532  41.476  19.776   3.825
66192W        W34533  18.608  36.962   3.183
66193W        W34534  42.892  11.224  13.924
66194W        W34535  19.083   5.845  13.957
66195W        W34536  36.426   7.902  12.989
66196W        W34537  15.766  30.519   0.349
66197W        W34538  37.966   5.307  13.398
66198W        W34539  30.608  40.972  13.441
66199W        W34540  38.060   8.719  12.866
66200W        W34541  10.279  38.571  14.406
66201W        W34542  36.051  38.046  11.558
66202W        W34543  26.639  24.579   2.198
66203W        W34544  32.514   2.803  12.836
66204W        W34545   7.183   7.765   0.942
66205W        W34546   7.805  34.966   2.356
66206W        W34547  30.415  11.622   3.838
66207W        W34548  38.424  38.431   0.899
66208W        W34549  24.651  26.691  12.968
66209W        W34550  34.495  30.567   3.248
66210W        W34551  39.976  12.780  11.015
66211W        W34552  14.140  20.113   2.293
66212W        W34553  43.409  22.624   2.339
66213W        W34554  43.859  25.097  11.031
66214W        W34555   0.464   5.423   1.710
66215W        W34556  37.023  29.034   4.602
66216W        W34557  39.009  15.767  11.480
66217W        W34558  32.588  39.370   0.840
66218W        W34559  12.201   2.949   2.223
66219W        W34560  38.386  17.694  12.527
66220W        W34561  17.070   6.264  14.470
66221W        W34562  25.530  21.055   1.929
66222W        W34563  33.908  41.795   2.797
66223W        W34564  40.547  33.005   4.132
66224W        W34565   0.470  19.749   2.732
66225W        W34566  24.485  16.189   2.278
66226W        W34567  28.512  24.597   3.184
66227W        W34568  34.520   1.898   4.217
66228W        W34569  19.736  39.357   3.246
66229W        W34570  23.137  35.996   2.739
66230W        W34571  34.406  34.525   2.748
66231W        W34572  31.896  44.279   3.182
66232W        W34573  39.313  34.460  13.340
66233W        W34574  39.364  27.125   0.729
66234W        W34575  31.103  37.009   1.298
66235W        W34576  28.603   6.299   2.896
66236W        W34577   4.301  43.374  10.551
66237W        W34578  43.973  36.038  14.512
66238W        W34579  44.948  30.918  14.017
66239W        W34580  31.420  43.001   4.646
66240W        W34581  29.993  28.172  14.358
66241W        W34582  12.718  28.117   3.635
66242W        W34583  34.589   8.675  14.455
66243W        W34584  13.228  41.043  12.031
66244W        W34585  42.488  22.183  14.428
66245W        W34586  17.209  44.446   2.741
66246W        W34587  32.129  29.494   3.757
66247W        W34588  30.084  25.646  12.867
66248W        W34589  16.243  38.330   4.166
66249W        W34590  25.057  27.031  13.446
66250W        W34591  33.017  22.146  11.381
66251W        W34592  29.114  36.980   2.886
66252W        W34593  25.480   1.297   3.342
66253W        W34594  19.076  44.001  11.082
66254W        W34595  19.180  34.564   4.259
66255W        W34596  28.185  44.776  12.007
66256W        W34597  23.736  27.120  13.044
66257W        W34598  36.388  21.600  13.987
66258W        W34599  20.534  44.323  11.888
66259W        W34600  12.789   9.267  10.919
66260W        W34601  34.566   0.907  14.853
66261W        W34602  24.619  40.862  11.030
66262W        W34603  26.573  21.144   4.766
66263W        W34604  13.690   5.739  13.348
66264W        W34605  23.577  13.239  14.021
66265W        W34606  38.938   7.856   0.763
66266W        W34607  22.677  29.137   1.335
66267W        W34608  14.191  23.575  11.552
66268W        W34609  21.593  23.558  12.910
66269W        W34610  44.339  20.185   1.712
66270W        W34611  39.031  11.234   1.400
66271W        W34612   2.464  34.518   1.346
66272W        W34613  26.628  16.584   1.696
66273W        W34614   9.299  17.108  14.364
66274W        W34615   1.374   1.807   0.270
66275W        W34616  43.965  15.629  10.914
66276W        W34617  17.227  39.342   4.129
66277W        W34618  14.758  40.364  11.994
66278W        W34619   2.261   2.295   4.712
66279W        W34620  18.569  36.371  10.421
66280W        W34621  21.516   7.770  14.024
66281W        W34622   1.403  22.105  12.980
66282W        W34623  36.356   7.853   0.444
66283W        W34624  17.638  12.670   1.412
66284W        W34625   4.265  33.065  14.921
66285W        W34626  40.420   2.890  12.515
66286W        W34627  37.978   6.326  13.370
66287W        W34628  15.210   4.404   1.272
66288W        W34629  13.277  16.161  12.057
66289W        W34630  22.634   2.278  14.014
66290W        W34631  16.778  25.644   3.867
66291W        W34632  29.437   2.937   2.246
66292W        W34633  39.444   2.842  11.064
66293W        W34634   1.875  29.598   0.909
66294W        W34635  19.746  27.622  11.918
66295W        W34636  20.762  31.972  10.449
66296W        W34637  23.999   5.309  12.094
66297W        W34638  29.945  42.508   1.696
66298W        W34639  10.187   3.330  14.928
66299W        W34640  40.884   8.263  14.955
66300W        W34641  43.453   2.280  14.800
66301W        W34642  10.649   5.692  13.359
66302W        W34643  15.594  30.921   3.207
66303W        W34644  32.914  27.690  14.912
66304W        W34645   5.388  27.023  13.345
66305W        W34646  21.159  16.163   2.707
66306W        W34647  24.193  43.491  11.586
66307W        W34648   9.226   0.936   1.828
66308W        W34649   1.960  24.095   4.157
66309W        W34650   8.725  32.098  10.619
66310W        W34651  33.493  30.561   2.255
66311W        W34652  25.149  10.143   1.736
66312W        W34653  35.996  39.443   2.686
66313W        W34654  26.539  32.492   2.378
66314W        W34655  14.259   6.202   1.403
66315W        W34656   2.937  24.029  11.960
66316W        W34657  15.158  12.612   1.698
66317W        W34658   2.934  33.617  13.444
66318W        W34659  37.045   5.303   0.379
66319W        W34660  20.668  16.672   4.739
66320W        W34661  30.459  36.865   1.393
66321W        W34662  29.464  43.425  14.341
66322W        W34663  38.022  34.033   4.808
66323W        W34664   1.403   1.285   0.397
66324W        W34665  13.762  43.513   1.396
66325W        W34666  29.942  32.088   3.752
66326W        W34667  36.988  21.657  10.967
66327W        W34668   7.408  24.687   4.671
66328W        W34669  10.243  34.523  14.919
66329W        W34670  25.683  28.487  14.888
66330W        W34671  39.408  24.617  14.965
66331W        W34672  24.180  43.009   1.694
66332W        W34673   6.239  29.608  11.054
66333W        W34674  24.996  18.703   2.353
66334W        W34675   3.221  26.090   1.854
66335W        W34676  26.506   0.368   3.363
66336W        W34677  29.109  23.040   2.792
66337W        W34678  35.929   2.851  14.806
66338W        W34679   6.728  16.717   0.316
66339W        W34680  42.821  12.175  13.334
66340W        W34681  35.600  39.020   0.264
66341W        W34682  44.465  14.184   1.749
66342W        W34683  28.511  38.980   3.257
66343W        W34684  27.090  21.545   3.378
66344W        W34685  16.278  20.658  14.487
66345W        W34686  31.504  37.561  12.978
66346W        W34687  30.962  25.576   3.172
66347W        W34688  18.183  42.437   1.375
66348W        W34689  28.032  41.401  14.016
66349W        W34690  16.609  40.328   0.434
66350W        W34691  19.706  36.036  13.527
66351W        W34692  21.163   2.461   3.313
66352W        W34693  24.020  34.111  14.916
66353W        W34694   1.816  18.749  12.471
66354W        W34695  17.271  27.021   3.277
66355W        W34696  33.591  13.106   1.711
66356W        W34697  29.088   6.246   1.701
66357W        W34698  16.213  38.375   0.357
66358W        W34699  41.510  26.650   2.668
66359W        W34700   0.311  28.586   0.330
66360W        W34701  40.894   6.281  11.448
66361W        W34702  22.083  37.335   4.690
66362W        W34703  43.843  22.025  14.764
66363W        W34704   4.441  43.013  12.989
66364W        W34705  44.967   4.896  11.905
66365W        W34706  39.983  20.532   0.850
66366W        W34707  30.093  29.150  13.986
66367W        W34708   6.677   6.740  11.478
66368W        W34709  14.128  29.567  14.412
66369W        W34710  16.756  17.626  14.457
66370W        W34711  26.192  30.050  10.997
66371W        W34712  34.512   0.945   0.446
66372W        W34713  24.207  27.147   3.865
66373W        W34714   0.844  14.150  13.884
66374W        W34715  28.000  30.080  13.059
66375W        W34716   1.957   3.925   3.732
66376W        W34717  28.092   0.872  10.624
66377W        W34718  36.475  33.927  11.950
66378W        W34719  17.166  11.190  12.416
66379W        W34720   5.388  41.015   1.309
66380W        W34721   2.454  44.839   3.293
66381W        W34722  12.194   0.905   3.866
66382W        W34723  19.646   7.869   1.916
66383W        W34724  44.987  24.077  10.573
66384W        W34725   5.798  16.753   0.902
66385W        W34726  14.154  39.436   0.450
66386W        W34727  19.605   7.868   3.382
66387W        W34728   2.766  28.126  10.633
66388W        W34729  23.707  19.557   3.847
66389W        W34730  37.917  22.036   3.690
66390W        W34731  34.966  32.022   2.324
66391W        W34732  31.639   8.387  12.491
66392W        W34733  28.076  30.933   2.289
66393W        W34734   4.306  34.882   4.346
66394W        W34735  36.911  13.721  14.384
66395W        W34736  27.001  25.061   0.735
66396W        W34737   6.276   5.858  10.480
66397W        W34738  22.195  35.095   2.791
66398W        W34739  36.453  39.954   1.371
66399W        W34740  26.700  36.356   3.707
66400W        W34741  11.176  15.217   2.258
66401W        W34742  13.209  21.194  13.031
66402W        W34743  44.951  43.314  13.395
66403W        W34744   2.404  20.246   4.780
66404W        W34745  44.485  18.083   2.371
66405W        W34746   7.848  36.350   0.447
66406W        W34747  40.331  37.064  12.065
66407W        W34748  12.820  10.313  11.087
66408W        W34749  31.453  19.770   1.703
66409W        W34750  31.972  17.628   1.442
66410W        W34751  24.075  17.222   0.362
66411W        W34752  28.055  41.847  14.388
66412W        W34753  31.011  39.549   2.714
66413W        W34754  20.045   3.872   3.767
66414W        W34755  39.415  10.816  13.021
66415W        W34756  29.524  29.508  10.483
66416W        W34757  24.640  19.645   0.263
66417W        W34758   0.750  29.062   1.894
66418W        W34759  26.990   6.230  10.042
66419W        W34760  17.613  39.355  14.986
66420W        W34761  33.574  17.734   3.723
66421W        W34762   9.362  27.535   1.363
66422W        W34763  26.657  32.076   3.744
66423W        W34764  39.883  15.824  11.042
66424W        W34765  14.279  39.436   2.688
66425W        W34766  10.267  17.103   3.721
66426W        W34767  28.575  43.508   4.775
66427W        W34768  36.592  42.406   4.250
66428W        W34769   8.709   6.238  11.548
66429W        W34770  28.481  30.494  14.923
66430W        W34771   0.829  21.038  10.430
66431W        W34772  33.433  32.039   4.634
66432W        W34773  40.977  35.909   0.859
66433W        W34774  31.437  32.039   3.704
66434W        W34775  11.783  36.427  13.038
66435W        W34776  20.580   4.366   2.885
66436W        W34777  18.256  39.041   0.410
66437W        W34778  33.426  44.324   4.638
66438W        W34779  40.892  28.586  11.048
66439W        W34780  17.172   9.885  13.443
66440W        W34781  30.600  42.841  11.068
66441W        W34782  31.142  36.445   0.449
66442W        W34783  37.415  35.993   3.853
66443W        W34784  11.363   8.886   2.389
66444W        W34785   9.280  34.429   0.840
66445W        W34786  32.985  40.545  11.575
66446W        W34787  41.932  36.543  13.858
66447W        W34788   0.371  31.569   2.738
66448W        W34789  34.575  29.024  11.916
66449W        W34790  13.261  25.063  14.376
66450W        W34791  17.773  22.636   1.827
66451W        W34792  38.961  11.731   1.911
66452W        W34793  38.325  14.146  14.337
66453W        W34794  22.516  16.081  12.899
66454W        W34795  29.097   5.261   4.227
66455W        W34796  18.197  44.469  14.928
66456W        W34797  14.255   1.425   1.394
66457W        W34798  20.560  14.605  12.418
66458W        W34799  15.275  44.858  13.901
66459W        W34800  19.092  26.667  14.921
66460W        W34801   9.387   8.284   3.337
66461W        W34802  41.844  12.151   4.648
66462W        W34803  34.477  27.472  11.046
66463W        W34804   8.659  12.147  15.000
66464W        W34805   7.698   3.749  14.029
66465W        W34806  26.965  25.604  14.845
66466W        W34807  22.744  39.463  10.914
66467W        W34808  27.519  22.150  14.793
66468W        W34809  23.602  10.771   4.737
66469W        W34810  22.112  29.131   3.151
66470W        W34811  24.687  25.595  12.419
66471W        W34812  26.599  18.273   1.836
66472W        W34813   1.841   0.410   0.844
66473W        W34814  31.421   0.335  13.861
66474W        W34815  37.838  11.837  12.341
66475W        W34816   7.782  17.269   4.235
66476W        W34817   6.793  13.257   1.732
66477W        W34818  41.440  34.035  11.951
66478W        W34819  37.971  26.983   4.179
66479W        W34820  44.871  24.565  13.999
66480W        W34821   9.825  31.546  12.020
66481W        W34822   4.333  44.863  12.920
66482W        W34823  34.520  39.882   1.742
66483W        W34824   9.800  31.483  14.760
66484W        W34825  40.990   7.758  11.046
66485W        W34826  17.712  34.568  10.155
66486W        W34827  31.634   3.259  12.950
66487W        W34828  41.970  32.057  10.506
66488W        W34829  37.866  33.391  12.465
66489W        W34830  22.037  42.855  14.485
66490W        W34831  27.497  33.880   0.304
66491W        W34832  17.238  23.036  14.389
66492W        W34833  20.038  34.385  14.839
66493W        W34834  41.837  44.489   0.862
66494W        W34835  35.892  40.832  12.565
66495W        W34836  14.259  14.295   1.802
66496W        W34837  17.573  18.710  13.978
66497W        W34838   6.693  15.251   3.833
66498W        W34839  26.200   7.767  11.405
66499W        W34840  25.022  33.084   4.653
66500W        W34841  36.908  31.418  13.982
66501W        W34842  28.493  43.794   2.288
66502W        W34843  23.003  26.569   9.990
66503W        W34844  22.205  28.637  14.304
66504W        W34845  33.874  20.767  14.849
66505W        W34846  34.594   9.225   0.771
66506W        W34847  28.178  42.525  14.018
66507W        W34848  42.449   0.374   0.402
66508W        W34849   7.859  14.138  12.378
66509W        W34850  25.681  20.037   2.885
66510W        W34851   6.382  42.914   2.821
66511W        W34852  34.995  37.000  11.404
66512W        W34853  40.054  39.845  12.058
66513W        W34854   1.885  17.237  11.891
66514W        W34855   7.781  44.905   4.779
66515W        W34856   8.695  36.016   4.334
66516W        W34857   0.377  44.261  14.859
66517W        W34858  35.910  43.846  12.423
66518W        W34859  19.278  33.017   2.898
66519W        W34860  27.455  43.415   2.784
66520W        W34861  20.235  12.799   4.798
66521W        W34862  39.927  23.663  13.317
66522W        W34863   2.401  29.630  10.929
66523W        W34864  24.071  30.620  10.914
66524W        W34865  38.342   2.893   1.934
66525W        W34866  14.248  32.495  14.860
66526W        W34867   7.817   8.369   4.322
66527W        W34868   0.984  19.645   4.812
66528W        W34869  27.506   9.780  14.423
66529W        W34870   0.294  14.609   2.183
66530W        W34871  43.444  13.792   2.314
66531W        W34872  28.178   8.792   3.792
66532W        W34873  16.203   7.716   3.698
66533W        W34874  40.805  11.342   1.346
66534W        W34875  32.935  39.387  10.598
66535W        W34876  14.103  42.967   0.268
66536W        W34877  19.285  32.623   2.297
66537W        W34878   7.689  43.778  12.923
66538W        W34879  23.006  19.179  14.793
66539W        W34880  10.719  39.351  11.600
66540W        W34881  43.949  36.572   3.841
66541W        W34882  36.367   2.932  13.026
66542W        W34883  29.040  16.611   1.314
66543W        W34884  37.021  37.074   0.260
66544W        W34885  43.455  35.390  11.970
66545W        W34886  35.423  18.280  14.908
66546W        W34887  40.813  38.851   0.365
66547W        W34888  28.998  15.237   4.759
66548W        W34889  18.265  24.492  10.495
66549W        W34890   9.825  17.258  12.554
66550W        W34891  33.466  28.062  13.961
66551W        W34892   0.410  15.298  14.764
66552W        W34893  35.013  32.947  13.812
66553W        W34894   2.306  38.897   4.611
66554W        W34895  41.378  20.048  13.870
66555W        W34896  13.711  29.531  13.328
66556W        W34897   2.393  16.273  10.565
66557W        W34898  14.593   6.752  10.538
66558W        W34899   6.263  17.266   5.204
66559W        W34900  32.591  27.687   0.790
66560W        W34901  24.015  20.609   1.751
66561W        W34902  38.412   5.904   0.432
66562W        W34903  41.985  13.817   2.282
66563W        W34904  27.545   3.383  12.519
66564W        W34905  31.899  23.712  10.151
66565W        W34906  18.265  43.876   4.321
66566W        W34907  32.536   2.739   4.639
66567W        W34908   8.319  37.562  12.888
66568W        W34909  24.004  40.809  11.447
66569W        W34910  35.102  27.514  14.303
66570W        W34911  20.111   7.266   1.932
66571W        W34912  16.261  42.430  10.484
66572W        W34913  39.525  40.045  14.806
66573W        W34914  42.355  38.541  12.875
66574W        W34915   4.722  19.778  14.966
66575W        W34916  35.932   7.263   4.192
66576W        W34917  10.162  26.042   1.757
66577W        W34918  22.041  33.926   1.440
66578W        W34919  41.920  10.169  13.877
66579W        W34920  35.034  21.738   4.160
66580W        W34921   2.428  26.562  12.506
66581W        W34922  18.271  23.195  11.881
66582W        W34923   2.855  27.511  12.000
66583W        W34924  32.123   6.335   4.712
66584W        W34925  39.555  33.090   4.269
66585W        W34926  21.561  29.441  13.434
66586W        W34927   7.774  32.443  13.508
66587W        W34928  34.938  11.204   9.999
66588W        W34929   4.403  21.241   3.676
66589W        W34930  34.987   1.251   0.757
66590W        W34931  28.050  34.053  13.012
66591W        W34932  29.953  38.827  14.801
66592W        W34933  28.677   6.196  10.511
66593W        W34934   4.409   3.433   4.834
66594W        W34935   3.816  44.873  12.366
66595W        W34936  18.680  21.171  10.071
66596W        W34937  13.607  20.208  10.454
66597W        W34938  30.003  10.139   4.673
66598W        W34939   1.240  26.590   0.243
66599W        W34940  11.736  30.966   3.157
66600W        W34941  42.418  24.006   3.383
66601W        W34942  44.810  28.140  14.431
66602W        W34943  23.027  31.121  13.308
66603W        W34944  14.700  37.448  10.117
66604W        W34945   6.316   8.319   0.389
66605W        W34946  25.166  19.180  14.314
66606W        W34947  21.665   4.819  13.863
66607W        W34948  14.181  35.968  12.842
66608W        W34949   4.311   8.676   4.183
66609W        W34950   1.299  12.212  14.466
66610W        W34951   3.371  36.535   3.329
66611W        W34952  24.023  16.600  11.513
66612W        W34953   3.919  32.079  10.986
66613W        W34954  21.646  21.127   4.345
66614W        W34955  38.544  10.186   3.379
66615W        W34956  42.877   0.786   4.155
66616W        W34957  30.544  11.815   4.682
66617W        W34958   5.217   7.766  10.628
66618W        W34959  36.588  36.970   0.344
66619W        W34960   1.403  14.832  14.812
66620W        W34961  16.733  23.678  10.046
66621W        W34962  36.547   3.804  12.415
66622W        W34963   1.465  23.133  13.455
66623W        W34964   3.847  34.062  12.348
66624W        W34965   6.811  29.944  12.398
66625W        W34966  28.108  19.162   1.752
66626W        W34967  34.976  14.692  10.539
66627W        W34968   7.757  43.339  12.474
66628W        W34969  32.596  26.105  11.476
66629W        W34970  38.405  25.500   1.762
66630W        W34971  40.382  22.060   3.634
66631W        W34972  33.513   6.221   4.793
66632W        W34973  38.977  40.392  12.074
66633W        W34974  27.015  15.822  12.025
66634W        W34975  15.276  31.402  12.877
66635W        W34976  33.581  25.003   1.290
66636W        W34977  23.725  44.972   4.771
66637W        W34978  43.435   0.913   4.203
66638W        W34979  19.184  12.848  13.456
66639W        W34980  31.538   0.832   0.332
66640W        W34981  16.290  22.612  11.509
66641W        W34982   7.877  21.152  11.938
66642W        W34983  31.549   0.370   3.848
66643W        W34984  40.054  36.936   0.879
66644W        W34985   1.394  26.117  12.006
66645W        W34986  34.550   7.748   2.834
66646W        W34987  22.054  28.177   4.730
66647W        W34988  30.161  24.644   0.373
66648W        W34989  38.984  38.325  11.586
66649W        W34990  39.476  33.035  11.975
66650W        W34991  15.094  13.800   0.729
66651W        W34992  29.535  42.421  14.865
66652W        W34993  39.443  30.123  13.897
66653W        W34994  19.768  44.801   0.409
66654W        W34995   5.400  32.570   4.606
66655W        W34996   8.864   4.828   2.789
66656W        W34997  44.998  36.024  10.950
66657W        W34998  12.312  31.943  10.133
66658W        W34999  21.641  17.180   1.373
66659W        W35000  29.034  44.877  11.118
66660W        W35001  11.661   8.355   4.771
66661W        W35002   5.925   3.378   1.916
66662W        W35003  26.111  13.344   0.779
66663W        W35004   7.346  18.271   2.337
66664W        W35005   3.267   4.304  14.411
66665W        W35006  17.080  43.916  13.449
66666W        W35007   5.877  26.569   1.858
66667W        W35008  11.263  31.634  12.424
66668W        W35009  15.213  30.596   3.299
66669W        W35010  38.552  26.098   0.271
66670W        W35011  35.590  11.155   1.744
66671W        W35012  44.389  37.379  12.953
66672W        W35013  20.234  30.469   1.450
66673W        W35014  38.368  14.592  11.524
66674W        W35015  34.072   3.813   4.817
66675W        W35016  33.049  39.471   2.700
66676W        W35017  33.953  12.632  14.406
66677W        W35018  13.290  14.594  11.050
66678W        W35019   9.788  24.091  14.913
66679W        W35020   0.471  36.422   4.654
66680W        W35021   8.303  19.534  12.435
66681W        W35022   1.242   8.228   1.731
66682W        W35023   0.468  17.702  10.149
66683W        W35024  23.137   7.694   2.666
66684W        W35025   1.261  41.896  13.520
66685W        W35026  36.350  27.173  10.966
66686W        W35027  25.101  41.991  10.636
66687W        W35028   4.367  23.020   2.232
66688W        W35029  10.255  41.855  11.568
66689W        W35030  30.455  14.156   4.164
66690W        W35031  17.649  43.816   0.387
66691W        W35032  42.331   0.288   2.281
66692W        W35033  13.226  27.673   0.937
66693W        W35034  40.031  20.628  10.586
66694W        W35035  22.235  10.339  13.955
66695W        W35036  29.577  43.436  14.772
66696W        W35037   1.269   4.734   1.889
66697W        W35038  40.521   2.938  13.523
66698W        W35039  29.455  43.371   3.835
66699W        W35040   2.848  36.876   4.212
66700W        W35041  33.520   5.327   0.480
66701W        W35042  31.104  19.052   3.263
66702W        W35043  10.739  29.923   3.649
66703W        W35044  22.089  41.503   0.328
66704W        W35045  35.870  22.996   0.313
66705W        W35046  32.893  42.282  10.894
66706W        W35047  43.368  36.579  14.469
66707W        W35048  33.514  35.988   0.435
66708W        W35049  38.488  19.634   4.314
66709W        W35050  23.653  13.689  10.604
66710W        W35051  28.975  27.160   1.294
66711W        W35052  30.068   7.721  14.449
66712W        W35053  28.528   8.244   0.961
66713W        W35054  29.585  16.145   0.362
66714W        W35055  22.680  37.447   3.339
66715W        W35056  33.905  14.784  13.463
66716W        W35057  31.538   5.389  12.851
66717W        W35058  30.529   9.272   3.803
66718W        W35059  44.387   0.984   0.834
66719W        W35060  15.768  16.229   2.771
66720W        W35061  41.519   6.898  13.998
66721W        W35062  24.635   5.240  10.476
66722W        W35063  10.296  22.091  10.427
66723W        W35064  34.076  21.140   2.365
66724W        W35065  41.940  26.990   1.880
66725W        W35066  27.579  30.113   4.186
66726W        W35067  24.687  18.686  13.050
66727W        W35068  17.802  18.765  14.347
66728W        W35069  29.166  42.806   4.124
66729W        W35070  42.029  30.642   4.339
66730W        W35071   8.387  25.212  14.334
66731W        W35072  20.029  27.964   0.766
66732W        W35073  18.270  27.139   4.168
66733W        W35074  30.963  19.088   4.313
66734W        W35075  10.232  41.389   1.722
66735W        W35076  13.691  13.766   3.282
66736W        W35077  26.510  42.880   0.959
66737W        W35078  30.077  24.018  14.903
66738W        W35079  17.703  44.494   0.404
66739W        W35080   5.204  41.327  12.950
66740W        W35081  42.456  28.081   2.205
66741W        W35082  21.020  22.558  14.425
66742W        W35083  21.210  41.810  11.060
66743W        W35084  14.313  24.598  11.033
66744W        W35085  38.929  19.115  14.485
66745W        W35086  41.921  44.889  13.344
66746W        W35087   5.897  44.922   3.145
66747W        W35088   5.746  12.620  10.990
66748W        W35089   4.737  31.897  13.369
66749W        W35090  18.284  37.433   1.791
66750W        W35091   3.829  11.713  13.354
66751W        W35092  24.500  22.715   4.145
66752W        W35093  15.273  23.688  10.492
66753W        W35094   5.332  37.375  12.454
66754W        W35095  31.613  38.069  14.485
66755W        W35096   4.286  16.167   0.760
66756W        W35097  22.652   0.783   5.121
66757W        W35098   2.816   8.655  13.908
66758W        W35099  14.667   1.820   0.328
66759W        W35100  43.395  21.120  10.635
66760W        W35101  23.652   2.833   4.226
66761W        W35102  11.225  10.843   2.193
66762W        W35103  21.122  33.601  13.966
66763W        W35104  30.430  22.077  12.032
66764W        W35105  23.578  19.197  10.033
66765W        W35106  15.144  41.325  14.439
66766W        W35107  40.053  41.893   3.822
66767W        W35108   1.760  42.406  11.942
66768W        W35109  27.688  14.137  14.792
66769W        W35110  24.711  40.515  11.570
66770W        W35111  15.267  19.186   2.866
66771W        W35112  43.290  28.438  11.491
66772W        W35113  33.966  32.056   0.843
66773W        W35114   5.393  42.854  12.865
66774W        W35115  11.744  23.557   4.183
66775W        W35116  32.586  13.725  11.050
66776W        W35117   7.907  34.414   0.813
66777W        W35118  34.945   6.413  10.977
66778W        W35119   7.388  16.294  11.577
66779W        W35120  29.423  42.788  12.988
66780W        W35121   5.795  38.419   3.728
66781W        W35122  17.709  37.044  14.920
66782W        W35123  14.713  28.067   1.227
66783W        W35124  16.250  42.010  13.889
66784W        W35125   7.890  40.418  14.501
66785W        W35126  16.162  35.589   5.768
66786W        W35127  10.200  22.104   0.404
66787W        W35128   8.268  38.915   1.734
66788W        W35129  24.681  30.103   4.116
66789W        W35130  31.553  11.662  14.288
66790W        W35131  38.002  36.087  13.331
66791W        W35132   5.712  30.623   2.372
66792W        W35133   4.704   1.817  12.043
66793W        W35134   3.268  26.589  13.949
66794W        W35135  44.348  19.044   3.242
66795W        W35136   5.776   3.847   0.284
66796W        W35137  40.404  24.026  13.845
66797W        W35138  41.304  40.376  13.970
66798W        W35139  11.795  15.233   2.837
66799W        W35140  15.638  27.192   0.373
66800W        W35141  29.479  35.108  14.414
66801W        W35142   4.242  40.051  11.407
66802W        W35143  17.195  30.939   4.779
66803W        W35144  19.214  40.467   2.732
66804W        W35145  35.965  11.218   3.848
66805W        W35146  14.262  18.175  10.604
66806W        W35147   8.764  41.418   0.820
66807W        W35148   1.973  41.312   2.291
66808W        W35149  24.175   9.741   2.806
66809W        W35150   6.865  20.739   3.195
66810W        W35151  15.166   4.253   3.641
66811W        W35152   2.378  41.953  10.562
66812W        W35153  35.990   3.283  14.955
66813W        W35154  13.282  11.800   4.754
66814W        W35155  33.989   6.849  12.046
66815W        W35156  22.603  12.785   5.135
66816W        W35157   7.389  39.939  10.625
66817W        W35158  35.484  35.027   3.196
66818W        W35159  35.450  17.154  13.855
66819W        W35160  42.389  30.491   2.746
66820W        W35161  26.983  22.057   4.741
66821W        W35162   2.238   3.782   4.767
66822W        W35163  16.775  37.986  11.554
66823W        W35164  44.979  11.703  12.027
66824W        W35165  11.636  17.748  14.303
66825W        W35166  35.596  20.733   0.413
66826W        W35167  29.014  21.706   0.748
66827W        W35168  18.581  38.934  14.299
66828W        W35169  29.026  22.519   2.301
66829W        W35170   5.396  30.141   3.660
66830W        W35171  40.969  20.540  11.020
66831W        W35172  42.518  40.302   4.185
66832W        W35173  23.985  37.477   1.900
66833W        W35174  43.780  22.644  14.943
66834W        W35175  27.616  12.651   2.335
66835W        W35176  14.735  25.632  14.308
66836W        W35177   4.233  33.579  13.048
66837W        W35178  41.807  41.834   1.304
66838W        W35179  22.619  37.025  10.422
66839W        W35180  26.078  25.003   3.821
66840W        W35181  31.067  10.271   3.360
66841W        W35182  30.562   3.252  12.055
66842W        W35183  20.118  42.778  14.403
66843W        W35184   8.656  11.174   2.822
66844W        W35185  20.245   7.814  14.345
66845W        W35186  10.149  37.487   1.882
66846W        W35187  21.095   2.804  13.839
66847W        W35188  19.169  19.692  13.793
66848W        W35189  19.550  28.966   1.773
66849W        W35190  43.866  42.328   4.690
66850W        W35191  24.055  27.642  12.974
66851W        W35192  34.475  22.047  12.440
66852W        W35193  39.853  33.104   1.394
66853W        W35194   1.473   7.345  12.041
66854W        W35195  29.092  17.171   1.780
66855W        W35196  21.213  38.868   3.264
66856W        W35197  42.393  38.844   1.856
66857W        W35198  21.043   7.350  12.838
66858W        W35199  25.217  41.468  13.919
66859W        W35200  25.610  14.109  13.393
66860W        W35201  20.687  14.766  13.428
66861W        W35202  30.126  27.113   4.617
66862W        W35203  35.907  13.774   2.207
66863W        W35204  34.379  27.652   2.695
66864W        W35205  35.028  31.496  10.534
66865W        W35206  14.137  43.316   2.781
66866W        W35207  15.803  42.977  11.597
66867W        W35208  12.670  12.630  11.116
66868W        W35209  22.519  40.499  11.976
66869W        W35210  36.393  29.946   2.803
66870W        W35211  44.324   5.326   0.892
66871W        W35212   6.223  24.711   4.597
66872W        W35213  29.959  13.770  13.349
66873W        W35214  39.547   6.319  14.327
66874W        W35215  26.984   4.904  12.964
66875W        W35216  19.256  42.337   3.821
66876W        W35217  34.390  21.252   0.773
66877W        W35218  18.587  17.135  10.522
66878W        W35219  22.193  33.432  14.813
66879W        W35220  32.108   1.320   1.265
66880W        W35221  17.612  25.667  12.920
66881W        W35222   3.348  23.220  12.943
66882W        W35223  29.115  23.220  12.869
66883W        W35224  10.743   8.228  10.448
66884W        W35225  16.288  12.360   1.932
66885W        W35226  24.546  33.941   0.730
66886W        W35227  26.657  40.543   4.200
66887W        W35228   0.974   0.396  12.027
66888W        W35229  12.203  19.250  14.407
66889W        W35230   1.409  40.359   0.905
66890W        W35231   7.808   6.316   5.154
66891W        W35232   5.393   7.324  10.940
66892W        W35233  28.665  33.033   1.715
66893W        W35234   4.910   4.266  14.303
66894W        W35235  24.723   0.923   0.818
66895W        W35236  10.364  37.061   1.352
66896W        W35237  11.630   8.867   3.796
66897W        W35238  31.008   6.692  13.449
66898W        W35239  43.795  33.463   3.178
66899W        W35240  35.488   4.217  11.078
66900W        W35241   9.719  30.414   4.645
66901W        W35242  17.132  26.998   1.271
66902W        W35243   2.747  18.630  14.298
66903W        W35244   7.867  37.866   0.480
66904W        W35245  23.984  23.147  14.331
66905W        W35246  33.874  35.472   3.797
66906W        W35247  14.694   3.399   4.206
66907W        W35248  32.480  31.950  11.026
66908W        W35249  20.671  40.400   4.604
66909W        W35250  43.878  43.901  12.028
66910W        W35251  37.993  30.047  12.573
66911W        W35252  21.524  33.441  13.810
66912W        W35253  34.444  39.034   1.866
66913W        W35254  36.847  35.502  12.398
66914W        W35255  17.243  12.154   2.216
66915W        W35256  15.187  30.053   1.875
66916W        W35257  17.578  11.246  10.894
66917W        W35258  31.142  42.521  14.763
66918W        W35259  25.991  11.175   2.308
66919W        W35260   7.794  22.548  11.606
66920W        W35261  41.843   6.376   5.276
66921W        W35262  14.786  21.646   4.746
66922W        W35263  40.949   8.776  12.827
66923W        W35264  38.977  37.434   3.759
66924W        W35265  15.257  17.761  12.423
66925W        W35266  27.542  16.159   1.237
66926W        W35267  29.169  20.633   4.155
66927W        W35268  32.437  22.532  11.440
66928W        W35269  13.169  40.827   5.117
66929W        W35270  29.643  33.010  14.818
66930W        W35271   3.747  17.792   0.282
66931W        W35272  43.987  35.560  11.910
66932W        W35273   7.402  25.543   4.316
66933W        W35274   9.825   3.889  12.922
66934W        W35275  37.581  19.669   0.775
66935W        W35276  31.634  36.956   1.791
66936W        W35277   8.888  43.967   4.311
66937W        W35278  41.950  25.648   3.654
66938W        W35279   5.831  28.089  14.762
66939W        W35280  42.378  35.454   1.313
66940W        W35281   7.344  25.056  14.838
66941W        W35282  22.020  25.506   1.290
66942W        W35283   6.293  17.714  12.831
66943W        W35284  11.171  42.829   0.310
66944W        W35285  35.449  26.135  14.508
66945W        W35286  41.904  44.968  12.362
66946W        W35287  17.085   1.328   2.252
66947W        W35288   6.286  43.433  13.831
66948W        W35289  16.075   7.220  12.835
66949W        W35290  28.589  19.623  10.636
66950W        W35291  34.977  33.549  10.451
66951W        W35292  20.249  20.095  13.968
66952W        W35293   6.241  23.492   2.692
66953W        W35294   2.910  33.433   2.713
66954W        W35295  20.269  16.570  12.823
66955W        W35296  16.145  10.856  10.981
66956W        W35297   6.851   0.369  13.335
66957W        W35298   1.949   8.187  13.019
66958W        W35299  41.915  18.139   2.856
66959W        W35300  20.656  23.655  13.985
66960W        W35301  22.727   2.290  10.450
66961W        W35302  43.967  41.357   0.428
66962W        W35303  37.440  17.154  12.433
66963W        W35304  42.394  21.747  11.857
66964W        W35305  33.593  32.086   0.453
66965W        W35306  40.053  34.489   4.227
66966W        W35307  40.951   5.310  10.549
66967W        W35308  10.351  40.879   3.735
66968W        W35309   6.360  14.731  13.320
66969W        W35310  10.307  38.479  13.477
66970W        W35311  21.675   1.864   0.399
66971W        W35312  41.028  17.174   2.364
66972W        W35313  32.904  38.921   0.386
66973W        W35314  27.534  25.672  12.944
66974W        W35315  43.329  17.151   1.306
66975W        W35316   5.763  38.332   4.254
66976W        W35317  40.956   4.337  14.832
66977W        W35318  39.007   0.853  13.517
66978W        W35319  34.885  22.606  12.925
66979W        W35320  16.270  25.678   0.352
66980W        W35321  36.851  16.737  13.816
66981W        W35322  22.669   6.347   2.804
66982W        W35323   6.772  43.917  13.884
66983W        W35324  13.293  38.536   3.264
66984W        W35325  42.017  10.375   3.198
66985W        W35326   1.470   3.428  10.944
66986W        W35327  33.126  15.774  11.884
66987W        W35328   7.729   0.924  13.964
66988W        W35329  38.887  10.158   0.806
66989W        W35330  32.964  21.186   2.889
66990W        W35331   0.785  34.063  11.914
66991W        W35332  31.561  20.170  12.843
66992W        W35333  18.778   2.432   4.722
66993W        W35334  29.446  10.703   1.860
66994W        W35335  34.603  42.831   0.945
66995W        W35336   5.688  38.369   3.371
66996W        W35337  42.384  32.005   1.349
66997W        W35338  27.447  17.653  13.340
66998W        W35339  22.583  26.042   4.279
66999W        W35340   2.830  30.505  13.030
67000W        W35341  12.198   6.791  13.850
67001W        W35342  37.379   0.347   4.767
67002W        W35343   6.239  44.495  14.367
67003W        W35344   5.221  36.546   1.339
67004W        W35345  18.710  35.413   0.276
67005W        W35346  25.505   5.417   0.849
67006W        W35347  39.959  17.572  13.943
67007W        W35348   4.216  29.135  13.886
67008W        W35349  17.557  18.745   1.831
67009W        W35350  21.625  30.433  14.891
67010W        W35351  20.228  39.547  10.427
67011W        W35352   6.763  30.039  12.086
67012W        W35353   2.739  41.339  11.564
67013W        W35354  10.278  37.479   3.802
67014W        W35355   2.928  13.239   1.808
67015W        W35356  24.669  35.875   1.734
67016W        W35357  14.708  14.209  12.936
67017W        W35358   9.770  10.863   3.726
67018W        W35359   0.750  18.220  10.613
67019W        W35360  39.888  31.543  13.872
67020W        W35361  15.306  25.601  12.420
67021W        W35362  38.833   4.417   0.964
67022W        W35363  34.875   6.701  13.845
67023W        W35364  10.659  30.039   1.376
67024W        W35365  11.228  10.216   2.268
67025W        W35366  30.078   2.469   0.353
67026W        W35367  14.254  31.989   0.432
67027W        W35368  32.125  43.415  13.490
67028W        W35369  16.258  22.075  11.118
67029W        W35370  38.486   2.430   4.780
67030W        W35371   2.444   9.736  14.992
67031W        W35372  10.369  25.652  10.423
67032W        W35373   2.408   2.931   2.241
67033W        W35374  25.486  36.396  11.101
67034W        W35375   3.916  28.576   0.894
67035W        W35376  10.851  32.905  10.420
67036W        W35377   9.801  37.048  12.906
67037W        W35378  35.938  42.908  13.842
67038W        W35379  36.931  38.356  13.413
67039W        W35380  19.076  30.474  14.411
67040W        W35381   7.192   7.258   1.915
67041W        W35382  22.058  30.076  13.982
67042W        W35383   1.839  38.333  14.001
67043W        W35384  27.573  20.234  13.367
67044W        W35385  16.080  36.407   1.854
67045W        W35386  34.542  39.540  11.576
67046W        W35387  11.799  15.754   2.892
67047W        W35388   9.656  30.965  12.566
67048W        W35389  37.440  42.911  13.382
67049W        W35390   6.404   8.745   4.663
67050W        W35391  37.081  35.480   3.656
67051W        W35392  34.994   4.261  12.876
67052W        W35393   6.365  27.047  14.812
67053W        W35394  36.083  29.506  10.416
67054W        W35395   6.267  18.692   5.140
67055W        W35396  17.784   3.347   2.250
67056W        W35397  30.053  29.430  10.436
67057W        W35398  39.544  23.636   0.847
67058W        W35399  24.621  26.622  12.517
67059W        W35400  25.197  13.746  11.589
67060W        W35401   0.267  28.484  14.479
67061W        W35402  13.283  18.576   0.928
67062W        W35403   7.854  19.717  10.539
67063W        W35404   5.439  23.158   3.246
67064W        W35405   0.377  11.187   4.349
67065W        W35406  15.291  14.326   2.267
67066W        W35407  37.509  44.259  14.358
67067W        W35408   4.940   2.957  13.314
67068W        W35409  11.773  10.792  13.894
67069W        W35410   3.822  22.099  13.829
67070W        W35411  25.140  17.072   3.220
67071W        W35412  29.487   4.366  13.868
67072W        W35413  23.566  44.955   3.163
67073W        W35414  14.329  32.128   0.729
67074W        W35415  21.237  19.579   9.988
67075W        W35416   2.390  40.430   4.626
67076W        W35417  34.499  32.963   3.294
67077W        W35418   0.988  13.210  11.038
67078W        W35419   9.150  25.208  13.897
67079W        W35420  42.330  14.737   4.763
67080W        W35421  13.817  24.169   2.690
67081W        W35422  13.627  29.635   2.180
67082W        W35423  10.782  41.356   2.897
67083W        W35424   0.485   4.883   3.213
67084W        W35425   4.440   9.876   2.340
67085W        W35426  13.809   1.888  14.364
67086W        W35427  19.162  27.479   4.153
67087W        W35428  41.469  34.481  14.001
67088W        W35429  42.875  37.856   1.372
67089W        W35430  41.432   9.715   4.151
67090W        W35431  30.448   1.483   4.782
67091W        W35432  36.097   5.734   4.653
67092W        W35433   1.912  11.829  10.998
67093W        W35434  12.693  15.165   4.212
67094W        W35435  19.704  41.846  12.862
67095W        W35436  34.897   7.899  12.361
67096W        W35437  28.628  40.317   3.299
67097W        W35438  16.136  13.790  11.939
67098W        W35439  14.097  21.585   0.760
67099W        W35440  21.733  31.105   3.288
67100W        W35441  21.685  13.307   0.825
67101W        W35442   5.703   8.265   2.297
67102W        W35443  38.820  34.014  12.415
67103W        W35444  17.103   5.226   4.759
67104W        W35445   3.284   7.694   5.310
67105W        W35446   0.409  16.199   1.293
67106W        W35447  35.015   0.913   0.875
67107W        W35448  27.668   7.360   3.275
67108W        W35449   5.754  19.603   2.866
67109W        W35450  23.077  20.540  13.451
67110W        W35451  32.587   1.281   4.189
67111W        W35452   2.823   9.836  10.437
67112W        W35453   4.750  16.672   1.793
67113W        W35454  22.597  37.992  12.529
67114W        W35455  27.187  33.514   1.351
67115W        W35456  34.971  25.575   3.786
67116W        W35457  27.110  37.863  13.377
67117W        W35458  43.364  33.548  13.811
67118W        W35459  18.604  15.097  13.938
67119W        W35460  24.201   1.735   1.417
67120W        W35461  40.952  24.994   1.346
67121W        W35462  38.553  31.005  12.943
67122W        W35463  37.076  35.977  13.792
67123W        W35464   0.423  22.522   4.610
67124W        W35465  11.744  19.556   0.431
67125W        W35466  33.605  15.708  10.914
67126W        W35467  24.192  43.363   3.680
67127W        W35468  42.526  12.318  11.440
67128W        W35469  39.507  33.009   3.774
67129W        W35470  15.186   9.814   2.859
67130W        W35471  20.147  10.143   1.848
67131W        W35472   7.758  43.384  11.018
67132W        W35473  23.227  40.460  11.414
67133W        W35474  10.821  40.861  11.115
67134W        W35475   2.437   8.313  10.945
67135W        W35476  27.004  23.680  10.977
67136W        W35477  39.043  38.017   0.767
67137W        W35478  36.417  21.034   0.864
67138W        W35479  23.180  41.418   3.287
67139W        W35480  41.498  30.440  14.315
67140W        W35481  43.970  13.832   2.668
67141W        W35482  33.046  13.655  11.902
67142W        W35483  11.821  38.359   1.448
67143W        W35484   5.857  15.108   4.331
67144W        W35485  17.306  15.680  12.829
67145W        W35486  32.120  23.099   0.921
67146W        W35487   5.386  17.660  12.863
67147W        W35488   4.252  29.159   4.620
67148W        W35489  13.337   4.832   3.313
67149W        W35490  15.641  34.373  12.946
67150W        W35491  31.517  40.411  14.980
67151W        W35492  12.793  41.019   0.897
67152W        W35493   4.318  44.441   1.883
67153W        W35494  13.759  18.693  14.506
67154W        W35495  44.313  28.059   1.418
67155W        W35496  21.757  36.418  12.537
67156W        W35497  31.040  13.115  12.376
67157W        W35498   0.369   0.875  10.935
67158W        W35499   7.265   3.898  10.524
67159W        W35500  25.086  15.589   0.863
67160W        W35501  37.431   6.412   1.778
67161W        W35502   5.305  23.087  13.903
67162W        W35503  32.080  15.746  12.392
67163W        W35504  32.584   6.792   1.448
67164W        W35505  38.340  27.140   1.229
67165W        W35506  35.016   5.799   4.820
67166W        W35507  18.738  36.024   1.760
67167W        W35508  32.956  32.503   1.903
67168W        W35509   2.942   3.799  12.351
67169W        W35510  20.063  22.518  14.831
67170W        W35511  15.315  15.083  13.903
67171W        W35512  19.114   9.150   4.212
67172W        W35513  31.515   4.249   4.760
67173W        W35514   7.874  22.716  10.518
67174W        W35515   6.229  38.462   0.910
67175W        W35516  42.878  43.433   2.361
67176W        W35517  29.506  33.408  14.491
67177W        W35518  11.271  32.543   1.216
67178W        W35519   0.455  20.266   9.634
67179W        W35520  32.972  31.931  10.917
67180W        W35521  18.598  22.638   2.892
67181W        W35522  12.158  35.408  10.470
67182W        W35523   2.321  30.013  11.480
67183W        W35524   7.330  23.664  14.805
67184W        W35525  43.889  11.854   0.396
67185W        W35526  43.020  31.424   2.291
67186W        W35527   5.388  19.684   5.140
67187W        W35528   4.417  31.906  12.826
67188W        W35529  17.642  32.997   5.230
67189W        W35530   1.424  21.075  13.888
67190W        W35531  27.690  17.144   0.483
67191W        W35532  37.415  42.511  14.486
67192W        W35533  44.371   1.961   4.762
67193W        W35534  27.022  38.994  11.553
67194W        W35535  18.228  24.185  14.367
67195W        W35536   5.254  19.631   3.745
67196W        W35537   3.254  16.772   4.672
67197W        W35538  37.944  17.144   9.942
67198W        W35539  14.177   2.394  11.046
67199W        W35540  28.438  25.615   4.720
67200W        W35541   8.290  28.464  11.872
67201W        W35542  16.169  34.484  13.966
67202W        W35543  37.027  41.420  14.431
67203W        W35544  42.013  25.077   1.795
67204W        W35545  18.230  36.553   0.393
67205W        W35546  14.285   8.244  10.418
67206W        W35547  42.009  27.060   0.370
67207W        W35548  19.092  36.552   1.826
67208W        W35549  37.964  18.620  13.438
67209W        W35550  13.796   8.767  14.895
67210W        W35551  17.586  31.508   1.816
67211W        W35552  13.242  27.982  14.331
67212W        W35553  28.609  12.196   2.681
67213W        W35554  25.160   9.844  13.943
67214W        W35555  10.161  12.146   1.803
67215W        W35556  36.357  38.917  14.449
67216W        W35557   6.891  33.611  13.504
67217W        W35558  36.351  44.336   3.193
67218W        W35559  43.331   4.311  13.057
67219W        W35560  29.093   9.717   3.769
67220W        W35561  16.189  35.504  11.608
67221W        W35562   4.320  39.422  11.941
67222W        W35563  41.939  23.529  11.970
67223W        W35564  30.512  44.953  12.420
67224W        W35565  21.186  19.600  13.413
67225W        W35566  24.230  40.458   4.826
67226W        W35567  38.916  29.929  12.464
67227W        W35568  19.209  35.573  11.000
67228W        W35569  36.513  44.947  12.914
67229W        W35570  28.668  25.962   4.786
67230W        W35571   2.439  12.612   1.388
67231W        W35572  16.276  21.096   4.831
67232W        W35573  33.945   4.893   2.712
67233W        W35574  22.534  18.683   4.832
67234W        W35575  14.327   1.969  11.983
67235W        W35576  12.304   1.795  12.486
67236W        W35577   3.372  44.432   0.411
67237W        W35578  31.904  17.598  11.118
67238W        W35579   6.279   6.207   2.702
67239W        W35580   0.388  34.514   1.730
67240W        W35581  24.156  16.576   1.349
67241W        W35582  12.314  15.178   1.222
67242W        W35583   6.851  32.978  11.879
67243W        W35584  12.195  43.826   1.717
67244W        W35585  17.717  17.097   3.337
67245W        W35586  14.315  42.810   0.727
67246W        W35587  19.093  27.022   4.269
67247W        W35588  39.899  35.109   3.229
67248W        W35589  24.117  41.004  13.798
67249W        W35590   6.249   4.344  14.407
67250W        W35591  44.477   1.876   0.464
67251W        W35592  23.577   2.789  13.467
67252W        W35593   8.815  24.683  14.967
67253W        W35594   8.175  24.205  12.826
67254W        W35595  43.405  16.173  11.887
67255W        W35596  33.878  42.921  10.945
67256W        W35597  29.451  27.592  11.404
67257W        W35598  35.054  17.127   4.765
67258W        W35599  44.278  43.368   3.750
67259W        W35600  10.729   2.413  14.484
67260W        W35601   1.305   8.702  13.919
67261W        W35602  29.919  27.079   3.713
67262W        W35603   4.409  39.864   4.219
67263W        W35604  22.576  44.464   5.252
67264W        W35605  19.766  21.689  10.587
67265W        W35606  42.372   8.785  13.389
67266W        W35607  29.517  29.028   2.250
67267W        W35608  26.506   9.275  13.454
67268W        W35609  34.953   5.780   1.231
67269W        W35610   9.323   8.856  10.635
67270W        W35611  37.927  33.552   4.274
67271W        W35612  26.183  16.142  11.929
67272W        W35613  20.269  35.916  10.006
67273W        W35614  28.609  27.000   2.820
67274W        W35615   8.317  31.610   0.788
67275W        W35616  29.040  20.145   1.798
67276W        W35617   1.932  38.038   3.747
67277W        W35618   7.769   2.411   3.189
67278W        W35619  21.618  14.752  11.403
67279W        W35620  40.458  44.444   3.816
67280W        W35621  41.298  17.301   3.363
67281W        W35622  37.029   0.270  13.982
67282W        W35623  22.570  29.570  11.914
67283W        W35624   2.327  14.109  13.547
67284W        W35625  16.640  34.115  10.520
67285W        W35626  11.234  19.738  13.361
67286W        W35627  14.097  15.214   3.762
67287W        W35628  23.612  31.982   3.788
67288W        W35629  22.205  35.560   1.724
67289W        W35630  42.880  39.333  12.030
67290W        W35631  42.932  34.558  11.586
67291W        W35632  44.425  33.922   1.342
67292W        W35633   6.261  12.142  11.549
67293W        W35634  12.130  22.517  12.531
67294W        W35635  20.561  14.315   1.926
67295W        W35636   8.659  15.126  11.066
67296W        W35637  11.817   5.895  10.149
67297W        W35638  28.643  36.559  10.505
67298W        W35639   3.950  36.364  11.482
67299W        W35640  37.060  13.111  13.526
67300W        W35641  21.609  33.963  11.876
67301W        W35642   0.846  25.587   2.883
67302W        W35643  18.742  29.079  11.128
67303W        W35644  18.696  13.705   3.169
67304W        W35645  40.447  24.094  12.570
67305W        W35646  34.934   0.919  13.471
67306W        W35647  16.300   8.685   0.833
67307W        W35648  18.600   3.340  14.399
67308W        W35649  15.279  23.500  13.928
67309W        W35650  40.452  10.268  12.514
67310W        W35651  35.889  14.211  12.889
67311W        W35652  31.521  17.076   2.897
67312W        W35653  27.026  35.052  13.863
67313W        W35654  11.717  32.102   3.709
67314W        W35655  22.102  20.584  13.391
67315W        W35656   0.784  14.778   2.391
67316W        W35657  26.085  40.526  12.002
67317W        W35658  38.507   8.818  10.895
67318W        W35659  35.006  16.182   3.863
67319W        W35660  38.544   3.917  14.408
67320W        W35661  13.695  19.777   1.303
67321W        W35662  37.470   3.290   3.793
67322W        W35663  36.361  29.169  10.016
67323W        W35664  23.054  18.275  10.956
67324W        W35665  22.222  13.108   4.796
67325W        W35666  34.395  27.175  11.890
67326W        W35667  43.278  39.384  10.561
67327W        W35668  27.174  35.045   4.198
67328W        W35669  15.774  12.257   4.339
67329W        W35670  44.868  17.626  10.118
67330W        W35671  38.460   4.325  10.945
67331W        W35672  23.526  38.470   4.617
67332W        W35673  37.347  28.459  13.392
67333W        W35674   8.801  40.992  14.371
67334W        W35675  42.825   8.380  11.558
67335W        W35676  38.456  13.721  14.787
67336W        W35677   5.927  29.562  11.424
67337W        W35678  30.659   9.885  13.836
67338W        W35679  15.193  11.690   2.791
67339W        W35680  11.278  22.121  13.386
67340W        W35681  37.894  42.473   2.178
67341W        W35682  11.754  29.040  14.871
67342W        W35683  21.179  25.586  14.385
67343W        W35684  20.544  37.568  12.044
67344W        W35685  38.449  19.687  12.876
67345W        W35686  39.445  21.035  10.502
67346W        W35687   6.707  34.989   0.871
67347W        W35688  31.129   2.961   2.679
67348W        W35689  10.736  15.586   3.637
67349W        W35690  28.182  41.519   2.291
67350W        W35691  38.043  16.676  11.894
67351W        W35692  21.554  36.022  11.420
67352W        W35693  36.007  12.754   3.212
67353W        W35694  18.189  34.614   0.963
67354W        W35695   8.189  33.067  13.399
67355W        W35696  19.589  22.566  13.036
67356W        W35697  14.140  40.890   5.664
67357W        W35698   4.740  43.993  11.447
67358W        W35699   8.757   5.898  10.049
67359W        W35700  11.724  33.438  14.431
67360W        W35701  27.074   3.782  12.087
67361W        W35702   8.780  27.663   1.211
67362W        W35703  30.982  36.520   2.663
67363W        W35704   5.703  24.093  11.090
67364W        W35705   0.266  32.965  12.434
67365W        W35706  34.382  34.005   0.789
67366W        W35707  23.232   3.779  13.456
67367W        W35708  30.034  41.904   0.282
67368W        W35709  10.300  25.978   2.756
67369W        W35710  32.473  39.492  12.026
67370W        W35711  20.692  16.133   2.672
67371W        W35712  26.099  43.825   1.785
67372W        W35713  20.081  22.649   0.316
67373W        W35714  37.347   6.696  12.524
67374W        W35715  20.249  12.732   1.856
67375W        W35716   8.301  15.709  14.414
67376W        W35717  15.242   4.439   0.271
67377W        W35718   1.470   4.363  13.343
67378W        W35719  39.495   1.387   0.788
67379W        W35720  10.646   1.405  13.498
67380W        W35721  26.076   9.830  12.903
67381W        W35722  41.361  27.121  14.869
67382W        W35723   0.892  25.216   1.893
67383W        W35724   7.398  21.688   4.120
67384W        W35725  36.050  17.666  14.892
67385W        W35726  19.113  23.184   3.330
67386W        W35727   6.194  43.011  13.827
67387W        W35728  42.924  12.689  10.565
67388W        W35729  27.562   9.704   4.648
67389W        W35730   2.229  42.410  13.979
67390W        W35731  32.988  27.009   0.420
67391W        W35732   8.672  21.726  10.460
67392W        W35733  22.232  25.158  13.973
67393W        W35734   6.266  13.672   0.737
67394W        W35735   5.355   0.452   4.343
67395W        W35736  37.405  30.481  10.514
67396W        W35737  13.795  37.030   2.878
67397W        W35738  28.603  41.450   0.406
67398W        W35739  26.107  32.142   0.319
67399W        W35740  26.179  38.563  11.606
67400W        W35741  44.365  31.418   2.806
67401W        W35742  31.578   9.243   2.364
67402W        W35743  23.052  12.839   0.780
67403W        W35744  15.213   2.955  14.986
67404W        W35745  10.864  18.545  13.493
67405W        W35746  35.053   5.437  10.557
67406W        W35747  38.821  15.135   1.884
67407W        W35748  32.136  16.677  14.949
67408W        W35749   7.263  10.673  14.334
67409W        W35750  15.217   6.836  12.936
67410W        W35751   7.909  28.672  10.481
67411W        W35752  11.255  39.353   5.239
67412W        W35753  22.233  20.177   1.373
67413W        W35754  20.757   9.721   0.294
67414W        W35755  13.346   8.805   4.806
67415W        W35756  37.083   2.276  11.052
67416W        W35757  16.617   4.278   3.189
67417W        W35758  15.112  27.646  14.906
67418W        W35759  11.243   8.278   0.887
67419W        W35760  30.117  18.250  12.991
67420W        W35761   8.308  19.610   3.756
67421W        W35762  43.828  24.008   1.879
67422W        W35763  21.205  29.933  10.549
67423W        W35764  24.176  44.393  12.840
67424W        W35765  23.657  39.358   1.790
67425W        W35766  15.098  26.587   0.865
67426W        W35767  31.447  44.420  13.340
67427W        W35768  25.055  37.491   2.240
67428W        W35769  39.542  25.507  12.550
67429W        W35770   2.948  18.180  10.575
67430W        W35771   2.385  44.400   2.367
67431W        W35772  43.382  17.199   1.712
67432W        W35773  42.323   6.871   0.811
67433W        W35774  21.077   5.703  12.505
67434W        W35775  25.662  38.877  12.544
67435W        W35776  27.127  25.032   2.373
67436W        W35777  39.944  43.301  10.568
67437W        W35778  35.933  21.716  10.558
67438W        W35779   8.244   9.345   1.449
67439W        W35780  31.414  36.998  11.438
67440W        W35781  40.374  27.973  12.374
67441W        W35782  20.200  29.079  13.857
67442W        W35783  32.530  32.075  11.917
67443W        W35784  29.637  19.697   3.277
67444W        W35785  41.987   0.417   3.727
67445W        W35786  22.018  13.604  14.031
67446W        W35787  26.094  42.470  11.582
67447W        W35788  19.577   2.462  12.383
67448W        W35789  10.873  16.783   2.872
67449W        W35790   8.855  23.593  13.975
67450W        W35791  29.588  13.178  13.900
67451W        W35792   1.431  11.642  14.954
67452W        W35793  29.934  24.526   0.790
67453W        W35794  33.946  21.224   1.848
67454W        W35795  17.633  19.654   1.315
67455W        W35796  11.819  15.667  13.962
67456W        W35797  41.839  12.692  14.790
67457W        W35798  41.337  37.423  14.385
67458W        W35799  35.364   8.202   0.293
67459W        W35800  39.022  44.003  11.485
67460W        W35801  21.631  43.459  11.553
67461W        W35802  43.469  14.797   3.294
67462W        W35803  38.844  36.566  14.412
67463W        W35804  27.508   9.218  14.777
67464W        W35805  41.940  11.679   4.707
67465W        W35806  21.198   3.374   2.330
67466W        W35807  39.914   0.445  10.590
67467W        W35808   9.311  19.216   3.725
67468W        W35809   7.408  42.389  14.844
67469W        W35810  35.497   1.803  14.886
67470W        W35811  22.584  26.997   4.706
67471W        W35812  44.843  21.630   3.829
67472W        W35813  21.241  30.105  12.042
67473W        W35814  14.816  32.396   5.205
67474W        W35815   3.888  44.754  13.867
67475W        W35816  19.598  25.979   3.823
67476W        W35817  21.649  15.209  11.584
67477W        W35818  43.827  26.683  10.639
67478W        W35819  39.339  41.505   3.300
67479W        W35820  43.447  23.726  12.888
67480W        W35821  16.571  15.287  12.051
67481W        W35822  34.562   6.858  10.958
67482W        W35823  18.685  44.305   0.411
67483W        W35824  37.581   3.374  10.483
67484W        W35825  28.958  44.950   4.611
67485W        W35826  39.502   8.813   2.862
67486W        W35827  40.882  41.355  10.966
67487W        W35828  20.612   0.877   1.295
67488W        W35829  37.952  21.175   1.731
67489W        W35830   4.835  33.529   2.211
67490W        W35831  41.490  44.916   4.709
67491W        W35832  43.974  25.095  14.929
67492W        W35833  20.583  12.233   2.750
67493W        W35834  23.156  42.315  10.441
67494W        W35835  17.193  33.898  13.056
67495W        W35836  36.976  35.957  11.398
67496W        W35837   7.227  26.006  11.374
67497W        W35838   7.786  11.275   2.733
67498W        W35839  13.660  27.075   2.773
67499W        W35840   0.414  28.029   0.843
67500W        W35841  31.134  18.163  11.513
67501W        W35842  30.143   3.883  14.788
67502W        W35843  34.538  26.197  10.578
67503W        W35844  42.301  12.684  11.121
67504W        W35845   6.276  15.775  10.434
67505W        W35846  33.882  19.155  12.384
67506W        W35847  41.520  35.980   2.747
67507W        W35848  41.959   8.313  14.334
67508W        W35849  28.626  23.207  14.943
67509W        W35850   7.783   0.820   3.223
67510W        W35851   4.208  23.581   4.144
67511W        W35852   1.764   3.946   0.830
67512W        W35853   5.717  21.595   1.380
67513W        W35854  38.377  19.251   3.262
67514W        W35855   5.249  34.500   2.804
67515W        W35856  30.465   6.748   2.297
67516W        W35857  28.634  43.960  14.779
67517W        W35858  17.268  22.157   5.287
67518W        W35859  38.015  44.477   0.747
67519W        W35860  29.622  32.126  14.977
67520W        W35861  16.287  24.682  14.291
67521W        W35862  21.563  18.628  12.394
67522W        W35863  30.494   6.846   0.247
67523W        W35864  32.082  10.858   4.327
67524W        W35865  43.332  16.100  14.861
67525W        W35866  15.810  29.118  12.406
67526W        W35867   1.899  20.551  11.127
67527W        W35868   1.433  15.606   0.845
67528W        W35869  29.655  27.046  14.018
67529W        W35870  25.203  23.640  13.957
67530W        W35871  37.074  14.774  10.509
67531W        W35872  20.728   6.901   2.851
67532W        W35873  38.486  33.500  13.015
67533W        W35874  35.927  15.765   3.704
67534W        W35875  38.021   2.423   3.676
67535W        W35876  20.750   4.344  12.340
67536W        W35877  41.995  10.752   1.769
67537W        W35878  24.006  31.927  13.309
67538W        W35879  36.561  38.492   0.430
67539W        W35880   2.880   7.821  10.438
67540W        W35881  15.629   3.347  11.113
67541W        W35882  11.748  17.174  11.126
67542W        W35883  36.541   9.247   0.396
67543W        W35884   8.842   4.442   2.234
67544W        W35885  31.617  41.365   5.231
67545W        W35886  18.112   5.928   1.825
67546W        W35887  18.731  37.544  11.444
67547W        W35888   0.387  33.969  13.842
67548W        W35889  23.060  39.825   2.353
67549W        W35890   5.437  41.013  13.896
67550W        W35891  21.543  41.798   0.270
67551W        W35892  38.948  25.971  11.074
67552W        W35893  24.548  44.897  10.942
67553W        W35894  24.584  26.579  11.020
67554W        W35895  42.281  27.000  10.993
67555W        W35896   3.871  10.664   2.895
67556W        W35897   0.370  44.409   0.900
67557W        W35898   8.298  13.295  11.114
67558W        W35899  33.028  14.760  13.976
67559W        W35900  37.535   2.281  11.587
67560W        W35901  20.218   4.761  12.428
67561W        W35902  42.952  18.693  14.768
67562W        W35903  25.180  37.845   0.479
67563W        W35904  43.459  32.445   3.848
67564W        W35905  31.646   8.686   4.742
67565W        W35906  18.140   6.295  13.839
67566W        W35907   2.910   0.818  13.856
67567W        W35908   4.919  32.413   1.873
67568W        W35909  22.114   3.784  11.943
67569W        W35910  33.547  41.382   0.456
67570W        W35911  28.658  30.636   1.352
67571W        W35912  35.975  33.401  14.957
67572W        W35913   3.850  21.758   2.809
67573W        W35914  21.732  31.610  10.933
67574W        W35915  13.296  38.417   1.734
67575W        W35916  28.173  41.833   3.238
67576W        W35917  42.780   8.740   1.264
67577W        W35918  31.503   4.890   4.122
67578W        W35919  34.056   4.735   4.307
67579W        W35920   0.916  36.015   0.768
67580W        W35921   8.204  28.066   1.272
67581W        W35922  19.727  20.212   1.836
67582W        W35923   0.979  32.003   1.823
67583W        W35924  21.254  30.467   0.278
67584W        W35925  17.132  30.514  11.082
67585W        W35926  22.178  29.522  13.931
67586W        W35927  34.900   4.919  11.918
67587W        W35928  34.442  21.642   3.638
67588W        W35929  15.589   6.260  13.455
67589W        W35930  11.139   7.760  11.465
67590W        W35931   4.290  28.668  10.530
67591W        W35932  13.256  29.096  14.906
67592W        W35933  18.246   8.826   2.184
67593W        W35934  26.976  22.997   1.277
67594W        W35935   5.375  42.853   4.796
67595W        W35936   4.698  21.049  12.393
67596W        W35937   6.296  12.669   3.772
67597W        W35938  26.693  38.435  10.581
67598W        W35939  34.956   7.885  13.046
67599W        W35940   1.365  19.606   3.755
67600W        W35941  19.715  11.683   0.304
67601W        W35942  16.775  14.243   1.449
67602W        W35943  37.553  25.081   0.785
67603W        W35944   8.210  36.025  14.322
67604W        W35945  31.640  38.974   1.694
67605W        W35946  39.944   4.761   4.720
67606W        W35947  20.093  36.041   3.716
67607W        W35948   2.736   6.723   1.363
67608W        W35949  10.818  14.265  13.485
67609W        W35950  11.300  30.598   1.931
67610W        W35951  34.583  42.500  11.052
67611W        W35952  11.265  35.486   2.759
67612W        W35953  19.205   0.773  12.050
67613W        W35954  19.118  41.925   4.285
67614W        W35955  39.821  44.961   1.806
67615W        W35956  27.019  25.709  13.436
67616W        W35957  43.379  22.727  14.847
67617W        W35958  19.772   0.899   0.875
67618W        W35959  30.154  25.581   2.711
67619W        W35960   2.870  14.770   0.736
67620W        W35961  33.091  10.648  13.841
67621W        W35962  42.419  41.354   4.314
67622W        W35963   0.323  11.788  12.905
67623W        W35964   8.756   1.922   3.327
67624W        W35965  25.067   0.970  10.550
67625W        W35966  31.006  27.456  10.474
67626W        W35967   1.239  14.200  14.421
67627W        W35968  40.306  26.691  11.399
67628W        W35969  14.723  26.573   4.770
67629W        W35970  42.523   4.402   1.787
67630W        W35971  33.438   7.228  13.326
67631W        W35972  36.411  42.863  10.592
67632W        W35973  11.370  21.631  11.415
67633W        W35974  19.248   8.882   3.333
67634W        W35975  28.588  16.246   1.746
67635W        W35976  43.409  19.237   0.902
67636W        W35977  19.769  39.345  10.899
67637W        W35978  40.328  43.495   1.363
67638W        W35979   4.449  22.161   0.880
67639W        W35980   3.249  34.048  13.509
67640W        W35981  36.499  26.028   1.309
67641W        W35982  35.383  26.039   1.263
67642W        W35983   7.710  26.591   2.884
67643W        W35984  32.452  41.974   0.929
67644W        W35985  31.037  40.524  14.352
67645W        W35986  30.062  38.927   1.901
67646W        W35987  16.577  13.786   2.322
67647W        W35988  25.995   3.872   0.799
67648W        W35989  10.186  16.209  12.560
67649W        W35990  17.608  12.223   3.298
67650W        W35991  22.017   6.251  10.961
67651W        W35992  27.994  34.913   1.712
67652W        W35993  26.045   6.711  13.864
67653W        W35994  31.472  32.911   3.302
67654W        W35995   0.902  17.210   5.237
67655W        W35996   2.410   6.787   2.342
67656W        W35997  19.685  40.999  14.504
67657W        W35998  41.912  31.512   3.649
67658W        W35999   1.814   3.263   4.286
67659W        W36000  26.691  40.506   5.301
67660W        W36001  20.047  37.360  10.487
67661W        W36002  27.033  10.829  11.943
67662W        W36003  26.544  24.685  14.278
67663W        W36004   4.437  20.044   0.886
67664W        W36005   1.764  39.919   0.476
67665W        W36006   5.725  25.194   1.269
67666W        W36007  23.578   2.785   2.854
67667W        W36008   0.311   0.440  11.501
67668W        W36009  28.115  26.080   0.746
67669W        W36010  16.588  10.745   4.627
67670W        W36011   5.729  43.355   2.329
67671W        W36012  41.011  40.975   0.882
67672W        W36013  36.849   2.422   4.294
67673W        W36014  11.130  20.101  13.867
67674W        W36015  17.091  38.912   3.331
67675W        W36016  30.137  43.851  13.889
67676W        W36017   2.920  19.184  12.370
67677W        W36018  12.775  18.273  10.542
67678W        W36019  25.208   4.233  12.359
67679W        W36020  19.096   4.831   1.284
67680W        W36021  32.426  32.480   2.686
67681W        W36022   6.297  24.613   3.630
67682W        W36023  37.935  39.028   2.239
67683W        W36024  29.547  18.120  12.993
67684W        W36025  42.462  25.182  12.917
67685W        W36026  43.780  26.483  13.356
67686W        W36027  29.604   4.720  10.115
67687W        W36028  20.226  42.515  13.355
67688W        W36029  21.511  29.969   4.781
67689W        W36030  39.834   5.373   4.611
67690W        W36031  19.657  36.516  10.466
67691W        W36032  19.181   7.351   2.778
67692W        W36033   5.687  11.636   3.267
67693W        W36034  24.041  28.659   1.318
67694W        W36035  44.493  23.078  11.488
67695W        W36036   6.240  16.671  12.413
67696W        W36037  16.188  25.038   1.296
67697W        W36038  20.602  10.695   3.324
67698W        W36039  15.235  30.507  12.937
67699W        W36040   6.257  34.011  11.919
67700W        W36041  26.183  41.359   1.724
67701W        W36042  25.556  39.388   1.331
67702W        W36043   3.717  11.750   1.914
67703W        W36044   1.838  36.943   1.900
67704W        W36045  26.488  18.200   3.296
67705W        W36046  14.276  17.617   4.632
67706W        W36047   5.907  43.816  10.588
67707W        W36048  26.160  21.659  13.959
67708W        W36049  11.161  38.071   0.880
67709W        W36050  19.255  21.035   2.856
67710W        W36051  17.801  28.039   1.703
67711W        W36052   4.410   7.865  11.109
67712W        W36053  32.887  39.023   1.866
67713W        W36054  10.706  26.632   4.186
67714W        W36055   7.704  26.073   3.291
67715W        W36056  24.678  37.505   1.821
67716W        W36057  21.145  36.588   4.255
67717W        W36058   8.191  26.070   2.398
67718W        W36059   0.742   5.282   4.802
67719W        W36060  22.196  11.268  13.932
67720W        W36061  15.585  24.107  10.937
67721W        W36062   9.155  19.190  12.555
67722W        W36063  22.109   5.238  11.540
67723W        W36064   6.277  37.559  13.047
67724W        W36065   9.200   3.752   4.276
67725W        W36066  34.914   7.805   1.395
67726W        W36067  37.884  13.191  10.968
67727W        W36068   4.271  18.091  13.963
67728W        W36069  42.428   3.947  12.065
67729W        W36070  27.632  35.006   4.189
67730W        W36071  15.755  32.043  13.311
67731W        W36072  21.700  12.642   1.881
67732W        W36073  30.115  33.504   4.162
67733W        W36074   2.289  40.445   1.308
67734W        W36075  16.738   2.389   4.123
67735W        W36076  36.037  26.059   4.741
67736W        W36077  41.816  40.422   9.952
67737W        W36078   3.955  13.835  13.386
67738W        W36079  31.484  10.251   3.757
67739W        W36080  44.783  42.524  13.030
67740W        W36081   3.288  36.414  13.995
67741W        W36082  26.120  41.407  13.348
67742W        W36083  24.006  24.010  10.622
67743W        W36084  39.434  29.008  11.467
67744W        W36085   5.204  25.050   0.335
67745W        W36086  31.525  33.883   1.332
67746W        W36087  33.472  12.742   4.331
67747W        W36088   8.856  28.011  10.473
67748W        W36089  35.511  32.037  11.416
67749W        W36090  27.036  11.277   0.257
67750W        W36091  22.217  10.229  10.949
67751W        W36092  14.186  13.763  12.522
67752W        W36093   1.952   5.422   3.834
67753W        W36094   7.906  16.813   2.316
67754W        W36095  29.471  40.305  10.440
67755W        W36096  28.574  18.639  13.488
67756W        W36097   9.660  43.333  13.373
67757W        W36098   4.271  41.935   2.393
67758W        W36099  34.113  20.139  12.548
67759W        W36100  15.606  29.060  13.966
67760W        W36101   5.229  14.316   4.809
67761W        W36102  12.610   7.279   2.262
67762W        W36103  17.157  37.571   3.814
67763W        W36104  24.695  22.604  12.425
67764W        W36105  30.952  22.723   3.770
67765W        W36106  30.655  18.663  13.385
67766W        W36107  42.288  40.840  12.949
67767W        W36108   4.750  31.587  14.433
67768W        W36109  11.130  34.446  11.949
67769W        W36110  41.444  13.691   3.191
67770W        W36111  36.508  13.651   1.406
67771W        W36112  43.905  23.130   4.831
67772W        W36113  17.667  13.298  11.451
67773W        W36114  39.555   2.805   3.350
67774W        W36115  23.082  14.132   4.833
67775W        W36116  28.061  41.994  10.082
67776W        W36117   4.733  15.673   1.370
67777W        W36118  28.968  24.043   2.784
67778W        W36119   7.364  32.136  12.971
67779W        W36120  17.632   4.366   4.241
67780W        W36121  22.525  23.181   1.215
67781W        W36122  32.085  34.948   1.442
67782W        W36123  28.090  35.499  10.897
67783W        W36124  24.189   4.833  14.316
67784W        W36125   6.733  24.037  13.872
67785W        W36126  25.982  22.019   2.250
67786W        W36127  34.017  16.617  14.993
67787W        W36128  36.921  29.634   0.892
67788W        W36129  29.950  36.960   2.236
67789W        W36130  22.693  33.570  12.559
67790W        W36131   2.258  17.284   4.775
67791W        W36132  37.080  33.394  13.009
67792W        W36133  29.652  33.911   1.918
67793W        W36134  29.050  15.326  13.404
67794W        W36135  25.988  15.746  10.954
67795W        W36136  44.919  20.215   4.711
67796W        W36137  41.402  32.099   1.932
67797W        W36138  20.072   4.839  11.414
67798W        W36139  29.456  27.196   1.283
67799W        W36140  31.046  36.006  12.342
67800W        W36141  29.974  34.900   2.261
67801W        W36142  22.597  44.339  13.805
67802W        W36143  32.549   2.359  13.347
67803W        W36144  44.343  10.826   1.864
67804W        W36145  18.053  21.261   0.743
67805W        W36146  10.735   8.315  12.084
67806W        W36147  17.719   9.327  11.404
67807W        W36148   1.813  25.594   4.286
67808W        W36149  10.307  32.396   2.758
67809W        W36150  23.218  42.428   2.412
67810W        W36151  28.113  38.377  14.479
67811W        W36152  21.146  33.457   5.261
67812W        W36153  24.543  32.992  10.991
67813W        W36154  40.353  17.304   3.641
67814W        W36155  44.813  17.561   4.666
67815W        W36156   5.919  16.294  14.496
67816W        W36157  41.414  29.597  13.810
67817W        W36158   9.792  35.044  11.396
67818W        W36159  39.497   9.832  11.069
67819W        W36160  28.005   2.331  12.409
67820W        W36161   5.723  17.600   1.248
67821W        W36162  14.198   3.348   1.391
67822W        W36163   4.305  31.137  14.016
67823W        W36164   6.822  13.161   0.880
67824W        W36165  24.504  34.019   4.679
67825W        W36166   0.903  27.134  10.945
67826W        W36167   3.763  41.937  11.072
67827W        W36168  11.355   2.759   0.941
67828W        W36169  11.137  22.729  14.028
67829W        W36170  34.011  13.348  12.960
67830W        W36171  12.301   8.894   4.697
67831W        W36172  15.288  19.717  13.031
67832W        W36173  12.181  37.895  10.462
67833W        W36174  39.425  36.565   0.898
67834W        W36175  24.184  11.676   1.866
67835W        W36176  18.713  11.179  12.027
67836W        W36177  40.828   9.306  12.396
67837W        W36178   8.682  31.061  14.001
67838W        W36179   8.874  14.234   1.317
67839W        W36180  21.645   3.936   1.931
67840W        W36181   0.933   7.716   3.308
67841W        W36182  11.254  38.935   4.802
67842W        W36183   6.707  10.248  10.543
67843W        W36184  44.782  27.013  12.493
67844W        W36185  23.498  38.441  10.428
67845W        W36186  37.887  25.178   0.847
67846W        W36187  20.635   5.419  13.409
67847W        W36188  23.606  12.682   1.354
67848W        W36189   2.963  19.280  11.417
67849W        W36190   5.904  12.332  12.095
67850W        W36191  40.471  40.804   1.233
67851W        W36192  27.522   0.978   4.775
67852W        W36193  30.632  41.932   0.816
67853W        W36194   0.774  36.966   0.825
67854W        W36195  11.218   0.985  12.392
67855W        W36196   2.880  40.904   3.209
67856W        W36197  21.185   3.848  11.522
67857W        W36198  16.809   3.740  14.364
67858W        W36199  32.139  20.126  10.638
67859W        W36200  31.980  35.965   9.989
67860W        W36201  40.924   3.929   3.699
67861W        W36202  24.645   8.736   2.320
67862W        W36203  30.426  22.677  13.906
67863W        W36204  20.710  21.672  12.030
67864W        W36205  36.478  44.934  10.937
67865W        W36206  44.286  20.586  13.848
67866W        W36207  44.264  44.443   3.311
67867W        W36208  33.540  21.669   4.147
67868W        W36209  15.735   8.687  12.865
67869W        W36210  17.238   1.781  11.376
67870W        W36211  39.858  44.294  11.878
67871W        W36212  22.014  28.665   2.359
67872W        W36213   1.967   5.375   1.414
67873W        W36214  19.640  10.191  11.910
67874W        W36215  15.778  16.669   3.306
67875W        W36216  35.064  41.822   4.832
67876W        W36217  35.405  15.747  13.979
67877W        W36218   1.251   7.777   4.247
67878W        W36219  32.491  10.728   0.889
67879W        W36220  11.653  13.144   4.649
67880W        W36221  10.203   9.778   2.385
67881W        W36222   9.662  30.575   0.370
67882W        W36223  25.575   6.758  11.992
67883W        W36224  37.057  37.843  12.979
67884W        W36225  12.254  30.590  11.475
67885W        W36226  28.609  30.525   0.779
67886W        W36227  22.067  30.104  13.535
67887W        W36228  34.422  10.772  12.539
67888W        W36229  16.221  12.256  11.981
67889W        W36230   5.392   5.874  13.892
67890W        W36231   3.949  42.458  13.854
67891W        W36232   3.297   6.677   2.696
67892W        W36233  41.531  43.444   0.885
67893W        W36234  44.348  14.310  12.437
67894W        W36235  43.999   3.865   2.731
67895W        W36236  26.154  33.115  11.083
67896W        W36237  18.548  29.071  13.494
67897W        W36238  29.148   3.861  13.393
67898W        W36239   3.233  40.314  14.489
67899W        W36240  32.907  34.528   3.793
67900W        W36241  33.499   7.384   1.864
67901W        W36242  20.081   6.912  14.462
67902W        W36243   9.274  28.120   2.690
67903W        W36244   3.905  22.536  13.933
67904W        W36245  23.105   4.344   4.804
67905W        W36246  38.439  30.015   3.710
67906W        W36247   7.184  35.955   2.385
67907W        W36248   1.928  30.950   1.919
67908W        W36249  33.923  12.253  12.542
67909W        W36250  20.095   2.386   2.410
67910W        W36251  28.563  13.207  11.422
67911W        W36252  31.058  16.284  13.487
67912W        W36253  12.256  11.699  10.538
67913W        W36254  41.023  20.707  14.819
67914W        W36255  40.881  27.538   1.270
67915W        W36256  21.050  34.995   3.164
67916W        W36257  21.244  27.595  10.127
67917W        W36258   4.823   6.805  12.848
67918W        W36259  43.786  39.361  11.049
67919W        W36260   2.335  29.126   1.785
67920W        W36261   4.328  30.529   1.450
67921W        W36262  17.165  28.489   4.235
67922W        W36263  13.664  39.941  11.077
67923W        W36264  25.163  13.151   2.881
67924W        W36265  25.631  23.112   3.687
67925W        W36266   3.885   7.758   0.427
67926W        W36267  29.082  20.604   3.227
67927W        W36268   0.928  21.107  11.080
67928W        W36269  39.825  24.997  12.058
67929W        W36270  37.927  12.259   1.278
67930W        W36271   9.794   7.702  12.477
67931W        W36272  31.573  31.082   4.244
67932W        W36273  19.180  39.039   2.772
67933W        W36274  30.081   9.820  12.933
67934W        W36275  33.971  25.673   1.268
67935W        W36276  36.460  27.069  14.811
67936W        W36277  35.970  16.697   0.816
67937W        W36278  25.620  11.215  10.622
67938W        W36279  23.510  25.088   4.333
67939W        W36280   2.911  22.586   4.300
67940W        W36281  32.122  14.745  14.030
67941W        W36282  19.142  28.955  12.974
67942W        W36283  38.051  22.076   1.910
67943W        W36284  20.655  18.185   2.797
67944W        W36285   6.704  37.353   3.385
67945W        W36286  18.268  22.544  11.601
67946W        W36287  17.635  16.118   2.727
67947W        W36288  44.419  27.675   0.963
67948W        W36289  19.230  30.918   2.302
67949W        W36290  24.114   0.971  11.870
67950W        W36291  34.068  34.901  14.928
67951W        W36292  36.511  14.164  13.939
67952W        W36293   4.793  12.155   3.191
67953W        W36294  28.945  14.751  11.562
67954W        W36295  13.606  18.740   2.669
67955W        W36296  24.042   8.708   1.888
67956W        W36297  39.371  40.822   0.960
67957W        W36298  15.202  18.546  11.575
67958W        W36299  44.468  22.590  10.949
67959W        W36300   4.852  44.453  14.354
67960W        W36301  39.928  25.195   1.765
67961W        W36302  28.667  40.452  12.084
67962W        W36303  24.991  39.386  12.999
67963W        W36304  15.758  25.554  14.945
67964W        W36305   2.274   1.380  14.003
67965W        W36306   6.383  21.113   4.813
67966W        W36307  22.039  34.422   1.412
67967W        W36308   6.228  34.118   0.408
67968W        W36309  43.285  44.805   4.201
67969W        W36310   4.307  41.391  12.072
67970W        W36311  21.576  34.471   1.718
67971W        W36312  16.766  37.400   2.201
67972W        W36313  23.214   1.413   4.773
67973W        W36314  17.151  44.401  12.523
67974W        W36315  43.374  13.156   2.833
67975W        W36316  39.501  15.164   2.271
67976W        W36317  18.675  32.984   1.878
67977W        W36318  32.095  29.113   1.226
67978W        W36319   9.883  23.669   0.939
67979W        W36320  28.040   8.879  14.929
67980W        W36321  24.487   7.727   3.165
67981W        W36322  34.952  33.035   2.829
67982W        W36323  32.512  20.259  10.505
67983W        W36324  38.331  15.212  10.978
67984W        W36325  39.447  37.876   2.850
67985W        W36326  35.860  18.118  13.874
67986W        W36327  16.782  10.147  14.028
67987W        W36328  14.651   0.304  10.593
67988W        W36329  15.120  43.861   3.328
67989W        W36330  41.919  38.045   2.835
67990W        W36331   9.882  21.022  11.558
67991W        W36332  38.364  38.350   0.310
67992W        W36333  36.003  14.126  11.972
67993W        W36334  18.051   4.876  13.439
67994W        W36335  11.650   0.471   4.688
67995W        W36336  33.111   4.363  12.905
67996W        W36337  44.503  37.379  14.389
67997W        W36338  12.184  42.791  12.867
67998W        W36339  28.613  19.191   4.352
67999W        W36340  27.121   0.249   3.320
68000W        W36341  38.872  20.098   2.354
68001W        W36342  23.558   0.912  14.442
68002W        W36343  34.093  24.089   0.735
68003W        W36344  14.166  39.358  14.889
68004W        W36345  37.574  11.352   3.694
68005W        W36346  26.618  29.170   0.859
68006W        W36347  43.291  31.003   4.668
68007W        W36348  16.751  16.627  13.050
68008W        W36349  40.368  10.367  10.144
68009W        W36350  39.863  29.453  13.334
68010W        W36351  35.532  44.377   4.622
68011W        W36352  16.796  41.903   4.680
68012W        W36353   8.167   2.824   2.817
68013W        W36354   3.319  43.481  10.895
68014W        W36355  21.089  34.541  11.904
68015W        W36356  36.882  14.245  11.913
68016W        W36357  27.575  42.325   4.252
68017W        W36358  15.192  29.130   4.652
68018W        W36359  21.157  34.464   3.205
68019W        W36360   9.773   8.304  12.379
68020W        W36361  43.321   0.454  12.398
68021W        W36362   7.759  36.896   0.303
68022W        W36363  30.619  23.573  10.517
68023W        W36364   9.221   9.776   4.653
68024W        W36365   9.296   8.700   4.787
68025W        W36366  13.137  40.359  10.109
68026W        W36367  26.027  30.963   1.762
68027W        W36368  24.498  43.954  12.972
68028W        W36369  34.412  43.362   4.834
68029W        W36370  29.602   9.751   0.453
68030W        W36371   6.783  31.555  14.363
68031W        W36372  37.478   6.826   1.780
68032W        W36373  42.478  44.397   3.264
68033W        W36374   8.765  30.556   0.274
68034W        W36375  11.786   1.375  12.923
68035W        W36376   9.887  27.500  14.892
68036W        W36377  21.520   8.315  12.009
68037W        W36378  35.875  40.511   5.099
68038W        W36379  33.486  23.057   2.871
68039W        W36380  26.055  12.744   4.837
68040W        W36381  30.963  35.868  14.801
68041W        W36382   6.344  39.439   3.219
68042W        W36383  21.025  10.745   2.356
68043W        W36384   4.785  24.047   0.958
68044W        W36385  13.816  28.527   0.913
68045W        W36386  19.592  10.328  14.321
68046W        W36387  24.076  11.684  13.424
68047W        W36388  11.358  18.752  13.317
68048W        W36389  13.237  29.068   3.824
68049W        W36390   4.855  41.300   2.805
68050W        W36391  27.148   4.445   1.917
68051W        W36392  11.742  34.908  12.072
68052W        W36393  33.951  15.133  11.505
68053W        W36394  40.908  38.566   2.339
68054W        W36395  38.509   8.329   1.326
68055W        W36396  34.460   7.388  14.801
68056W        W36397  38.529  24.021   3.148
68057W        W36398  30.606  16.120   1.446
68058W        W36399  31.442  19.271  10.955
68059W        W36400  10.856  21.195   1.284
68060W        W36401  41.948  13.777   1.695
68061W        W36402  44.305  26.144  12.978
68062W        W36403   1.898  26.508   3.271
68063W        W36404  40.870  20.600  14.485
68064W        W36405  20.130  17.708   2.900
68065W        W36406  21.616   3.315  13.529
68066W        W36407  13.643  41.457  10.057
68067W        W36408  35.876   7.341   3.308
68068W        W36409  38.979  23.701  10.596
68069W        W36410  41.425  15.648  12.942
68070W        W36411  33.449  35.436   1.820
68071W        W36412   1.285  29.172  14.989
68072W        W36413  34.952  39.405   2.316
68073W        W36414  39.496  19.269   4.760
68074W        W36415   0.847  12.150   3.784
68075W        W36416  19.210  34.001   2.313
68076W        W36417   0.830  19.125   5.151
68077W        W36418   5.691   2.330   2.202
68078W        W36419  14.591  11.827   1.851
68079W        W36420   9.689  15.297  12.392
68080W        W36421  22.039  31.466  14.348
68081W        W36422   6.812   8.197  12.893
68082W        W36423  24.503  34.493   1.447
68083W        W36424  40.985  37.832  12.427
68084W        W36425  18.545  39.002   3.270
68085W        W36426  44.497   1.420  10.482
68086W        W36427  39.931  26.534  12.049
68087W        W36428  38.387  16.303   3.718
68088W        W36429  23.990  11.137   0.930
68089W        W36430  19.267  25.198  10.450
68090W        W36431  30.092  39.340  10.437
68091W        W36432   2.276   9.303   0.417
68092W        W36433  13.167   7.381   0.315
68093W        W36434  26.076  24.559   3.705
68094W        W36435   6.854  37.427  14.811
68095W        W36436  20.089  29.457  11.600
68096W        W36437  37.563   2.817  12.993
68097W        W36438   8.696  42.846   4.351
68098W        W36439  28.447  14.760   2.730
68099W        W36440  28.473  15.763  10.537
68100W        W36441   1.835   0.764   2.734
68101W        W36442  18.243  44.918  12.344
68102W        W36443  26.001  24.200   1.932
68103W        W36444  15.729   6.420   3.810
68104W        W36445  20.244  31.630   0.391
68105W        W36446   2.824  25.065  13.837
68106W        W36447  14.720  27.666  10.545
68107W        W36448  14.109  10.323   2.314
68108W        W36449  40.865   8.869   4.295
68109W        W36450  14.818  12.632   5.152
68110W        W36451  16.715   9.343   1.329
68111W        W36452  39.362  12.129  12.403
68112W        W36453  42.801  13.668   1.415
68113W        W36454  42.428  16.675  11.959
68114W        W36455  43.980  32.568  13.338
68115W        W36456   2.409  17.596   0.426
68116W        W36457   0.858   3.284  14.311
68117W        W36458  35.046   7.877   4.178
68118W        W36459   8.401   7.717  14.007
68119W        W36460  31.121  22.178  12.830
68120W        W36461  38.849  35.055  13.394
68121W        W36462  28.505  22.587   3.743
68122W        W36463  39.535  25.617   0.864
68123W        W36464  44.416  19.738   1.241
68124W        W36465  40.423   1.897  13.310
68125W        W36466   5.844  32.888   4.215
68126W        W36467  27.675   4.726   1.223
68127W        W36468  28.153  19.639   0.813
68128W        W36469  29.591   8.190   1.429
68129W        W36470  16.599   2.280  12.831
68130W        W36471  43.448   6.299   4.175
68131W        W36472  23.112  43.826   4.721
68132W        W36473  15.232  31.923   4.256
68133W        W36474  37.037  21.083   0.429
68134W        W36475  10.795  31.044  11.497
68135W        W36476  25.995   7.756   0.948
68136W        W36477   2.226  27.666   2.736
68137W        W36478   6.208  30.473  11.503
68138W        W36479  27.548  24.032   3.237
68139W        W36480  32.554  24.491   4.269
68140W        W36481   3.229  23.522   4.728
68141W        W36482  20.699  44.332   3.812
68142W        W36483  17.223  15.086   3.642
68143W        W36484  17.239  34.606   2.780
68144W        W36485   8.315  12.228  10.413
68145W        W36486  32.578  12.836   4.778
68146W        W36487  25.549   0.795  12.089
68147W        W36488  16.760  13.600  14.012
68148W        W36489   2.736  13.331   0.844
68149W        W36490  36.396  15.204  12.516
68150W        W36491  38.997   6.356  11.547
68151W        W36492  11.177  42.820  13.437
68152W        W36493  16.596  37.403  11.867
68153W        W36494  30.042  32.499   1.334
68154W        W36495  42.845   2.311   2.865
68155W        W36496  41.939   1.479   2.862
68156W        W36497  21.070  37.862   0.755
68157W        W36498  37.449  29.606  14.030
68158W        W36499  12.119  31.579  11.898
68159W        W36500  36.908  23.576   2.356
68160W        W36501   2.286  29.148   4.733
68161W        W36502  43.278  29.974  11.497
68162W        W36503   0.282  14.631  13.059
68163W        W36504  16.317  21.105  10.418
68164W        W36505  28.149  13.790   3.757
68165W        W36506  31.070  35.004   3.374
68166W        W36507  35.418  44.399  12.982
68167W        W36508  33.621   9.724  10.616
68168W        W36509  37.025  23.131   2.318
68169W        W36510  24.547  18.656   5.738
68170W        W36511  17.131  38.988  12.038
68171W        W36512  24.544  36.358  13.892
68172W        W36513  32.927  24.556   0.245
68173W        W36514  22.690  18.141   2.366
68174W        W36515  11.349  29.018   4.260
68175W        W36516  27.171  39.812   4.763
68176W        W36517  10.270  35.516   0.899
68177W        W36518   6.850   7.887  10.963
68178W        W36519  42.404  10.230   4.785
68179W        W36520   6.211  33.994  10.992
68180W        W36521  43.996   7.322   1.323
68181W        W36522  39.024  12.722   0.329
68182W        W36523  10.360  28.177  14.509
68183W        W36524   2.341  44.769   0.908
68184W        W36525  18.592  44.951   0.787
68185W        W36526   6.341   4.792  12.995
68186W        W36527  33.121  42.412   2.810
68187W        W36528  32.917  14.695  11.932
68188W        W36529   2.959  32.918  10.971
68189W        W36530  16.697  11.209   3.820
68190W        W36531  44.342   8.399   2.764
68191W        W36532   5.890  23.189  14.879
68192W        W36533   7.890  18.181  14.885
68193W        W36534  15.258  23.626   4.224
68194W        W36535  21.676  42.943   4.319
68195W        W36536   6.193   2.785  13.947
68196W        W36537  37.899  32.038   0.925
68197W        W36538  14.222  40.869  14.447
68198W        W36539   7.391  12.637   3.178
68199W        W36540  39.322  31.444   0.728
68200W        W36541  35.060  11.355  10.938
68201W        W36542   1.311  27.181  14.765
68202W        W36543  26.128  31.107   3.347
68203W        W36544  14.778  24.724  11.398
68204W        W36545   5.833  12.689  13.334
68205W        W36546  42.388  42.479  12.886
68206W        W36547  22.208  31.910  11.935
68207W        W36548   8.759  15.147   2.332
68208W        W36549   6.696   0.268   4.737
68209W        W36550  18.069  28.930  11.888
68210W        W36551   6.865  41.895   3.738
68211W        W36552  35.096  37.888   1.281
68212W        W36553  34.420  12.659   4.222
68213W        W36554   4.348  42.283   0.304
68214W        W36555  12.738  24.114  10.476
68215W        W36556  25.692  36.464  12.920
68216W        W36557  24.716  41.970   4.158
68217W        W36558   2.468  12.810  12.385
68218W        W36559  36.863  31.634   1.839
68219W        W36560  35.050  38.049   3.746
68220W        W36561   4.794  16.085   4.309
68221W        W36562   1.925  12.230  10.964
68222W        W36563   5.376  36.565   4.196
68223W        W36564  26.561  34.117  12.830
68224W        W36565   6.835  20.037   2.743
68225W        W36566   2.399   7.394  14.915
68226W        W36567   3.333   5.310  14.409
68227W        W36568  34.007  30.559   2.335
68228W        W36569  36.443  10.351   2.773
68229W        W36570  29.630  16.179   3.231
68230W        W36571   0.835  18.746   1.837
68231W        W36572  22.736  40.919  11.964
68232W        W36573  18.776  31.536   4.613
68233W        W36574  25.647  43.425   2.709
68234W        W36575  14.223  19.634   4.711
68235W        W36576  23.189  30.487   3.237
68236W        W36577  36.419   1.407  14.884
68237W        W36578  21.662  40.492   3.265
68238W        W36579  19.777  10.335  13.982
68239W        W36580  15.300  20.605   4.288
68240W        W36581  41.010  42.454  10.984
68241W        W36582  17.690  25.150   1.822
68242W        W36583   9.870  11.840   1.366
68243W        W36584  41.965   9.281  11.974
68244W        W36585  24.027  33.910  11.994
68245W        W36586  39.967  33.051   0.870
68246W        W36587  43.425  44.488   1.335
68247W        W36588  32.460  14.807   4.304
68248W        W36589  39.322  21.569  11.401
68249W        W36590  21.746  22.740  11.447
68250W        W36591  35.937  40.344   0.249
68251W        W36592   8.745   2.933  12.046
68252W        W36593  16.310  44.961   3.160
68253W        W36594   4.277   3.347  14.870
68254W        W36595   5.688   7.908   3.315
68255W        W36596  13.300  31.561  11.930
68256W        W36597  20.135   4.777   2.820
68257W        W36598  34.914  19.091   2.186
68258W        W36599   2.315  23.720   3.347
68259W        W36600  43.777  29.621   3.673
68260W        W36601  14.098  12.657  12.893
68261W        W36602  41.403  20.251  10.918
68262W        W36603  22.606  19.148   2.289
68263W        W36604   5.695   1.964   0.333
68264W        W36605  26.042   0.784   4.783
68265W        W36606  39.993   2.339   1.332
68266W        W36607   0.381  23.505   3.220
68267W        W36608  15.760  23.088  10.134
68268W        W36609   8.794  29.131  13.003
68269W        W36610   7.727  28.498   0.391
68270W        W36611  43.981  38.947   0.814
68271W        W36612  36.479  22.147  14.411
68272W        W36613  14.231   2.413   0.819
68273W        W36614  42.802   9.381   3.795
68274W        W36615  26.996  42.984   2.700
68275W        W36616  44.768   4.345  12.429
68276W        W36617  10.185  19.239  13.360
68277W        W36618  34.107  13.749   2.742
68278W        W36619   7.899  14.133  13.865
68279W        W36620  23.123  12.712   2.251
68280W        W36621  34.502  11.730   1.935
68281W        W36622  31.151  29.150   1.447
68282W        W36623  26.495  36.365  10.948
68283W        W36624   0.456  24.686  12.479
68284W        W36625  17.122  13.613   4.642
68285W        W36626   0.372  26.048  10.570
68286W        W36627  34.033  40.875   3.351
68287W        W36628   4.913  16.279   2.808
68288W        W36629  14.806  20.103  10.610
68289W        W36630  13.846  30.162   3.311
68290W        W36631  40.313   6.875   3.690
68291W        W36632   4.274  36.073   4.748
68292W        W36633  36.446  41.982  14.404
68293W        W36634  24.137  21.179   4.754
68294W        W36635  40.428  39.871  12.836
68295W        W36636   7.321  23.536  13.400
68296W        W36637   6.779  12.743  14.289
68297W        W36638  15.716  29.059   4.796
68298W        W36639  12.198  33.093  11.999
68299W        W36640  10.708  31.532   2.813
68300W        W36641   9.226   2.452  12.946
68301W        W36642  43.407   8.277  11.107
68302W        W36643  37.009  22.511   0.478
68303W        W36644  29.655  19.181  12.076
68304W        W36645  24.183  10.195  14.792
68305W        W36646  31.072  31.109   3.786
68306W        W36647  30.066  32.432   4.764
68307W        W36648  33.470  44.827   2.353
68308W        W36649   4.408  18.188  10.916
68309W        W36650  25.080  17.784   4.640
68310W        W36651  15.138  38.019  14.324
68311W        W36652  43.410   0.903   3.317
68312W        W36653  41.893  11.184   3.183
68313W        W36654  22.180  41.536  10.616
68314W        W36655  21.261  42.416   1.332
68315W        W36656  22.738  15.281  12.485
68316W        W36657  37.959  19.763   3.811
68317W        W36658  32.065  42.996  12.464
68318W        W36659  44.850   0.893   1.224
68319W        W36660  37.852  32.501  11.007
68320W        W36661  14.798  24.156  10.552
68321W        W36662   6.678  25.098  10.574
68322W        W36663  18.134  16.740   0.863
68323W        W36664   7.294  44.762  13.876
68324W        W36665  27.988  33.543   0.875
68325W        W36666  24.711   6.308  14.981
68326W        W36667  21.551  26.694  13.351
68327W        W36668  22.623  36.509   4.221
68328W        W36669  37.556  26.007   1.246
68329W        W36670  10.637  21.557  12.556
68330W        W36671  32.090  38.571  11.441
68331W        W36672  23.232  21.745  11.467
68332W        W36673  27.040  25.983  11.555
68333W        W36674  38.904  28.060   2.355
68334W        W36675  42.472  19.580  14.946
68335W        W36676  28.120  22.597  12.872
68336W        W36677  20.730   6.350   4.217
68337W        W36678   7.289  14.157   0.754
68338W        W36679  12.679   4.822  14.031
68339W        W36680  38.076  22.617   0.773
68340W        W36681  33.894   2.330  14.987
68341W        W36682  11.345  28.557   0.827
68342W        W36683  40.401  36.915  12.985
68343W        W36684  21.191  34.916  12.556
68344W        W36685  19.565  30.608   4.267
68345W        W36686   6.787  22.517  11.927
68346W        W36687  13.610  37.898   4.835
68347W        W36688  32.400  29.978   3.293
68348W        W36689  13.787   4.250  12.564
68349W        W36690  32.042  32.916   0.741
68350W        W36691  39.334  22.103  10.911
68351W        W36692  33.568   3.745  13.390
68352W        W36693   5.701  42.431   0.742
68353W        W36694  43.374  11.365  12.436
68354W        W36695  24.578  26.005   4.155
68355W        W36696  33.099  11.183  11.603
68356W        W36697  20.168  39.867  11.445
68357W        W36698   1.464  22.711   0.315
68358W        W36699   4.835  39.531  13.009
68359W        W36700  43.486  15.228   0.324
68360W        W36701  40.032  40.514   4.772
68361W        W36702  36.958   9.349  14.464
68362W        W36703  42.928   5.405   2.252
68363W        W36704  26.109  37.954   0.820
68364W        W36705   2.355  34.936   0.407
68365W        W36706  40.369  28.041  13.049
68366W        W36707  35.516   7.862   4.717
68367W        W36708  38.388  11.642   3.807
68368W        W36709   5.769  40.395   4.324
68369W        W36710  14.322  43.331   3.235
68370W        W36711  41.952  35.585   3.166
68371W        W36712  24.598  38.387  11.427
68372W        W36713  43.916  39.476   3.288
68373W        W36714   3.311  32.999  11.948
68374W        W36715  18.593   5.731   4.312
68375W        W36716  11.134  29.937  11.917
68376W        W36717  30.993  42.334   0.763
68377W        W36718   2.826  22.008  13.978
68378W        W36719  42.421  42.445  11.883
68379W        W36720   6.677  29.637  11.940
68380W        W36721  30.136   6.331  13.909
68381W        W36722  18.137  22.511   3.335
68382W        W36723  26.651  32.923   9.932
68383W        W36724  21.227  23.554   4.732
68384W        W36725  14.798  17.635  13.928
68385W        W36726  39.483  11.348  12.464
68386W        W36727  30.092   3.919   2.352
68387W        W36728  43.907  27.164  11.012
68388W        W36729  37.085  30.119   0.865
68389W        W36730  19.645  19.573   0.244
68390W        W36731  13.236   7.856   1.703
68391W        W36732  36.969  22.642   2.730
68392W        W36733  29.165   9.190   2.870
68393W        W36734   8.875  14.263  12.351
68394W        W36735  42.493  19.733   2.307
68395W        W36736  36.387  16.806   2.799
68396W        W36737   9.310  28.448   4.789
68397W        W36738  22.528  17.796  12.390
68398W        W36739  30.414  12.163  13.991
68399W        W36740  29.116  36.952   3.733
68400W        W36741  18.215  19.657   1.782
68401W        W36742  24.194   0.918   2.771
68402W        W36743  28.957  32.998   0.861
68403W        W36744  36.014  18.219  11.563
68404W        W36745  44.914  25.582   4.820
68405W        W36746  28.934   0.294   3.726
68406W        W36747  22.173   6.676   0.766
68407W        W36748   6.225   3.265  11.413
68408W        W36749  43.770  43.367  12.844
68409W        W36750  15.790   2.838  13.060
68410W        W36751  23.496  34.504  14.425
68411W        W36752  25.669  14.604   0.275
68412W        W36753  10.716   0.814  12.581
68413W        W36754   7.911  16.313   3.656
68414W        W36755  17.574  16.117   2.379
68415W        W36756   8.788  27.072  11.437
68416W        W36757   6.379  25.477  14.947
68417W        W36758   6.728  13.137   0.456
68418W        W36759  43.322  43.501  13.014
68419W        W36760  29.524  11.681   2.403
68420W        W36761  38.874  18.131   1.226
68421W        W36762  30.031  27.544  10.475
68422W        W36763  23.196  16.808  11.412
68423W        W36764  20.648   4.447   4.126
68424W        W36765  10.695   0.477  14.999
68425W        W36766  42.309  20.056  10.969
68426W        W36767  33.624   2.758  12.879
68427W        W36768  11.650  44.813   0.373
68428W        W36769  41.534   0.287   1.885
68429W        W36770  13.751  42.003  12.474
68430W        W36771  40.031  17.133  13.019
68431W        W36772  15.135  34.987  10.070
68432W        W36773  30.974   8.816  14.331
68433W        W36774  21.682  20.078   2.225
68434W        W36775   0.382  42.783  11.004
68435W        W36776   9.729  13.624  10.940
68436W        W36777  39.369  16.760   2.669
68437W        W36778  18.783  39.011   0.378
68438W        W36779  24.068  31.083  10.942
68439W        W36780  40.964  20.064  14.297
68440W        W36781  37.005  20.745   2.334
68441W        W36782  30.470  30.986  11.028
68442W        W36783  28.042  26.985   1.755
68443W        W36784  15.792  25.675   9.974
68444W        W36785   8.381  34.121  10.563
68445W        W36786  31.454  42.450  12.003
68446W        W36787   2.856   7.187  12.533
68447W        W36788  11.850  28.995   4.790
68448W        W36789   9.156  31.053  11.560
68449W        W36790  12.638  39.325   3.812
68450W        W36791   9.739  11.653  14.766
68451W        W36792  27.146  32.017  13.414
68452W        W36793  42.828   4.935  10.931
68453W        W36794  11.221  29.578  12.859
68454W        W36795  38.936  10.650  11.501
68455W        W36796  15.643  25.107   0.923
68456W        W36797  10.288  32.004  13.460
68457W        W36798   8.378  39.973  11.509
68458W        W36799   3.806  36.505   1.366
68459W        W36800  34.887   7.673  14.934
68460W        W36801   2.236  19.102   2.862
68461W        W36802  27.566   3.789   3.362
68462W        W36803  40.342  20.118   4.661
68463W        W36804  31.973  33.484  10.408
68464W        W36805   3.295  40.879   3.864
68465W        W36806  25.692  19.715   2.295
68466W        W36807   1.936  10.324   0.740
68467W        W36808  44.353  36.480   3.327
68468W        W36809  10.166  30.959  10.915
68469W        W36810  16.705  20.251  11.375
68470W        W36811  39.020  17.239  11.489
68471W        W36812  34.418  17.612  12.090
68472W        W36813  41.837  11.850  13.465
68473W        W36814  37.026   7.400  12.534
68474W        W36815   4.375  41.408  14.890
68475W        W36816  16.634   8.357  10.939
68476W        W36817  22.603  21.199   2.712
68477W        W36818  40.324  26.194   3.249
68478W        W36819  30.508  42.883  12.069
68479W        W36820  41.512   4.798  12.908
68480W        W36821  22.695  26.023   4.839
68481W        W36822  13.241  43.452   1.878
68482W        W36823   6.300  16.253   1.284
68483W        W36824  25.054  20.208  14.027
68484W        W36825   9.273   6.872  14.854
68485W        W36826  33.385  39.521   9.663
68486W        W36827  40.490  22.119  12.936
68487W        W36828  44.351  44.479  10.137
68488W        W36829  44.484  11.208  13.348
68489W        W36830  18.651  30.132  10.579
68490W        W36831  33.417  38.537   4.260
68491W        W36832  29.973  43.990   2.318
68492W        W36833  32.920  40.343   2.758
68493W        W36834  15.668  34.097  11.583
68494W        W36835  37.020  31.132  12.564
68495W        W36836   4.234  32.989  13.995
68496W        W36837  16.656  26.085   2.664
68497W        W36838   7.227  43.808   0.878
68498W        W36839  38.437  25.073   2.418
68499W        W36840  14.327   5.341   4.182
68500W        W36841  30.938  22.016   1.263
68501W        W36842  38.998  24.116  13.989
68502W        W36843  43.929  18.145  14.995
68503W        W36844  41.846  39.874  11.934
68504W        W36845  40.898  30.549  10.954
68505W        W36846  32.492   3.391   4.702
68506W        W36847  25.019  41.957  11.019
68507W        W36848   7.259   6.358   1.801
68508W        W36849  24.619   9.788   0.290
68509W        W36850   0.480  10.795   1.240
68510W        W36851   2.316  22.705   2.805
68511W        W36852  25.597   0.259  12.541
68512W        W36853  28.501   8.300   3.239
68513W        W36854  43.374   2.926   0.832
68514W        W36855  41.950  23.589   3.359
68515W        W36856  36.043  15.598   1.807
68516W        W36857  16.725  29.521   0.958
68517W        W36858  39.367  44.004   4.804
68518W        W36859  13.762  21.117  11.948
68519W        W36860   3.950  30.506  13.353
68520W        W36861  11.281   9.662  12.940
68521W        W36862  23.526  23.668   4.225
68522W        W36863   0.468  31.626   4.233
68523W        W36864  15.631  23.693   5.097
68524W        W36865  34.091  30.466  12.428
68525W        W36866   8.214  34.549   2.668
68526W        W36867  40.927  12.823   2.844
68527W        W36868   2.419   8.215   1.724
68528W        W36869  21.147  27.573  14.445
68529W        W36870   3.787  21.708  11.544
68530W        W36871  15.679  21.063   0.769
68531W        W36872  29.141  24.214  13.009
68532W        W36873  13.788  40.010  12.895
68533W        W36874  35.059  17.670   3.385
68534W        W36875   0.904  30.083   4.796
68535W        W36876  29.137  38.830   4.355
68536W        W36877  15.322  29.657  13.321
68537W        W36878  41.305  23.608   4.298
68538W        W36879  32.391  40.391   1.313
68539W        W36880  41.808  43.354   0.774
68540W        W36881  10.875   9.709   5.279
68541W        W36882  22.126  13.197  14.012
68542W        W36883  44.757  24.624   2.257
68543W        W36884  18.775  27.972   4.183
68544W        W36885  24.002  28.663  14.504
68545W        W36886  39.887  12.676  12.522
68546W        W36887  38.481  31.970  14.825
68547W        W36888  31.150  30.074   0.788
68548W        W36889  19.267  43.877  12.891
68549W        W36890   0.249  19.559   3.369
68550W        W36891  34.389  30.150   3.745
68551W        W36892  28.994  24.618   1.887
68552W        W36893   3.219   6.765  10.910
68553W        W36894   4.806  11.344   4.820
68554W        W36895  17.066  24.163   2.257
68555W        W36896   8.260  16.284   2.732
68556W        W36897  39.389  34.922   3.317
68557W        W36898  15.156  28.178  11.572
68558W        W36899  29.156  23.998   3.325
68559W        W36900  19.583  42.415  14.851
68560W        W36901  31.599   8.832  14.025
68561W        W36902   5.227  41.851  13.322
68562W        W36903  28.096  19.114   4.775
68563W        W36904  31.493  17.784   1.697
68564W        W36905  44.930   1.780  11.429
68565W        W36906  34.577  40.311  12.993
68566W        W36907  39.489  43.406   1.927
68567W        W36908  25.996  28.121   3.811
68568W        W36909  28.622  17.221   4.205
68569W        W36910  14.651  10.639   0.932
68570W        W36911  28.131  33.887  14.424
68571W        W36912  22.606  42.782   3.159
68572W        W36913  43.288  39.545  12.917
68573W        W36914  37.864   3.393   2.412
68574W        W36915  35.998  14.113   2.893
68575W        W36916  10.313  33.976   2.845
68576W        W36917  38.890  25.213  13.030
68577W        W36918  31.943   8.208  14.394
68578W        W36919  20.214   0.262  10.444
68579W        W36920  26.079   1.919   1.696
68580W        W36921  21.614  37.559  11.496
68581W        W36922  37.922  28.483  13.321
68582W        W36923  15.136  23.015   1.713
68583W        W36924  15.667   9.792  10.518
68584W        W36925  41.827  27.614  14.332
68585W        W36926  10.223  34.994  14.953
68586W        W36927  21.027  41.330  11.910
68587W        W36928  27.014  32.548  14.935
68588W        W36929  15.280   8.847  13.466
68589W        W36930   8.699  43.876  10.625
68590W        W36931  26.658  37.984  14.875
68591W        W36932   0.870   0.867   0.339
68592W        W36933  30.143  15.098   3.793
68593W        W36934  42.809   5.250  11.559
68594W        W36935  15.115   4.344  12.535
68595W        W36936  37.969  27.085  11.983
68596W        W36937   4.856   6.706   3.800
68597W        W36938  25.174  13.824  11.967
68598W        W36939  28.000  42.503   4.347
68599W        W36940  32.129  26.467   4.179
68600W        W36941  44.862   2.289  11.971
68601W        W36942   9.224  44.269   0.330
68602W        W36943  33.547  17.729  12.026
68603W        W36944   5.240   7.783   3.786
68604W        W36945  42.504  32.427   1.434
68605W        W36946  30.581   3.907  14.785
68606W        W36947  14.753   2.376  11.475
68607W        W36948  44.943  15.814  13.897
68608W        W36949  18.702  19.274  14.796
68609W        W36950   2.928  11.754  12.970
68610W        W36951  20.575  38.501   1.815
68611W        W36952   5.337  17.117  11.426
68612W        W36953   6.368   9.775  11.109
68613W        W36954  29.010  21.564   4.713
68614W        W36955   8.789  16.151   2.716
68615W        W36956  14.788  31.055   1.285
68616W        W36957   1.292  39.367   2.665
68617W        W36958   7.216  25.577  12.086
68618W        W36959  44.441  39.371   2.809
68619W        W36960   4.764  30.020  14.847
68620W        W36961  38.505  28.061   1.404
68621W        W36962  38.038  43.478   4.815
68622W        W36963  12.277  19.570   1.840
68623W        W36964  31.015  17.262   3.718
68624W        W36965   1.928  14.622   3.167
68625W        W36966  40.042  27.545  10.594
68626W        W36967  30.995  34.538   4.732
68627W        W36968  40.343   0.300  10.925
68628W        W36969  32.955  42.851   0.450
68629W        W36970   3.382   8.760  12.449
68630W        W36971  37.475  14.128  13.324
68631W        W36972  39.452  13.791  13.841
68632W        W36973  38.459  16.294  10.434
68633W        W36974  13.739  11.178   1.410
68634W        W36975  22.149  39.365  10.565
68635W        W36976  20.579  31.560  13.329
68636W        W36977  33.017  12.669   4.616
68637W        W36978   1.956  42.976   2.359
68638W        W36979   4.801  19.138  12.826
68639W        W36980  12.691   7.859  13.859
68640W        W36981  36.962  40.469  14.836
68641W        W36982  37.975  20.707  11.956
68642W        W36983  26.586  29.117  14.917
68643W        W36984   2.454   1.771   1.391
68644W        W36985  28.475   8.261   4.232
68645W        W36986   5.361  13.350  11.550
68646W        W36987   2.732  34.032  11.373
68647W        W36988  41.874  39.855  10.405
68648W        W36989  43.502   6.234   3.223
68649W        W36990  29.003  24.142   1.708
68650W        W36991  37.424   2.412  14.355
68651W        W36992  24.588  14.207   4.320
68652W        W36993   6.865  27.512   2.235
68653W        W36994  27.028  22.633   4.189
68654W        W36995  26.503  30.163   3.152
68655W        W36996  35.520  40.981  14.770
68656W        W36997  25.094   0.898   3.827
68657W        W36998  25.139  17.090   2.309
68658W        W36999  41.388  38.033  12.937
68659W        W37000  22.609  26.012  11.561
68660W        W37001  28.078  43.401   1.843
68661W        W37002  30.478  31.430  14.955
68662W        W37003  44.326  17.076   5.141
68663W        W37004   8.718  18.576   0.954
68664W        W37005  38.040   4.249  12.045
68665W        W37006  36.348  36.511   2.687
68666W        W37007   2.461  35.091  13.387
68667W        W37008  21.593   3.221  13.903
68668W        W37009  31.102  33.467  14.841
68669W        W37010  39.442  31.539  10.928
68670W        W37011  41.401  20.100   4.640
68671W        W37012  37.339  17.138   3.280
68672W        W37013  24.546  24.595  13.914
68673W        W37014  20.765  15.180  12.827
68674W        W37015  40.332  40.530  10.982
68675W        W37016  23.573  26.590   2.204
68676W        W37017  39.482  18.755  13.458
68677W        W37018   8.397  34.384  12.884
68678W        W37019  10.739  37.355  10.929
68679W        W37020  42.990  11.345   3.847
68680W        W37021   5.807   5.272   1.928
68681W        W37022  25.079  12.731   2.279
68682W        W37023  13.816  39.461   4.278
68683W        W37024   1.953  41.388   4.200
68684W        W37025   7.862  30.479   0.956
68685W        W37026   7.721  21.654  12.483
68686W        W37027  24.171  25.208  10.070
68687W        W37028  42.365  27.128  13.548
68688W        W37029  22.023  17.644  13.031
68689W        W37030   4.205   8.182  12.977
68690W        W37031   7.703  18.135   1.228
68691W        W37032  44.366  26.489  11.034
68692W        W37033  38.550   8.382  13.835
68693W        W37034  27.625   9.297  10.973
68694W        W37035   6.286  21.109   2.741
68695W        W37036  26.672  21.141   5.085
68696W        W37037  11.829  10.758  14.771
68697W        W37038  25.650  41.519   2.226
68698W        W37039  27.032   7.292   2.734
68699W        W37040   3.379  27.456   2.410
68700W        W37041  14.123  43.968  13.427
68701W        W37042  44.840  35.558   3.276
68702W        W37043  25.105  28.595  14.321
68703W        W37044  40.392   1.969  10.148
68704W        W37045  40.861  28.971   4.246
68705W        W37046  13.269  44.288  13.857
68706W        W37047  24.160  23.162  10.987
68707W        W37048  22.520  25.671  11.514
68708W        W37049  40.908  16.772  11.112
68709W        W37050  15.623  23.114   0.367
68710W        W37051   6.736  17.598   2.771
68711W        W37052  16.811  34.893   1.445
68712W        W37053  18.647  40.345  11.056
68713W        W37054  39.964   4.878   1.768
68714W        W37055  39.366  24.584  10.490
68715W        W37056  19.704  17.668   1.714
68716W        W37057  10.381  42.474  12.049
68717W        W37058  16.810  41.412  12.954
68718W        W37059  44.276  16.147  10.483
68719W        W37060  27.467  41.492  14.459
68720W        W37061  10.349   0.743   0.964
68721W        W37062  44.292  13.142   4.764
68722W        W37063  16.625   9.282  13.511
68723W        W37064  31.984  19.199  12.060
68724W        W37065  19.111  15.300   0.869
68725W        W37066  33.552   6.278  13.478
68726W        W37067  25.068  13.779   3.221
68727W        W37068  41.399  28.502   3.179
68728W        W37069  32.904  37.504   2.806
68729W        W37070  15.779  14.611   3.240
68730W        W37071   4.877  36.889  14.857
68731W        W37072  35.519  41.495   4.241
68732W        W37073  21.228  29.629  10.950
68733W        W37074   7.851   0.281   4.217
68734W        W37075  37.081  13.783  10.583
68735W        W37076  42.305  27.071  10.592
68736W        W37077  21.540   1.779  10.608
68737W        W37078  24.206  12.684  10.116
68738W        W37079  18.250  26.056   4.663
68739W        W37080  39.461  12.145   3.298
68740W        W37081  19.104  11.858  11.396
68741W        W37082  21.162  11.825   4.631
68742W        W37083  35.988  28.087   2.345
68743W        W37084  30.427  23.722  11.435
68744W        W37085  18.199  40.522   0.258
68745W        W37086  38.847   3.311   1.348
68746W        W37087  37.454  13.226   0.372
68747W        W37088  40.810  43.457  12.975
68748W        W37089  24.660  19.152   0.861
68749W        W37090  35.032  22.518   4.777
68750W        W37091  14.769  14.750   4.190
68751W        W37092   3.269  44.390  13.506
68752W        W37093   6.304   6.420  13.897
68753W        W37094  19.543   2.928  13.046
68754W        W37095  18.610   4.843  12.845
68755W        W37096  44.894  33.007  10.906
68756W        W37097   2.736  26.608  14.349
68757W        W37098  16.804  22.641  14.841
68758W        W37099  41.006  11.198   0.918
68759W        W37100  18.156  23.100  12.497
68760W        W37101   5.204   8.709   1.813
68761W        W37102  17.796  13.842  13.461
68762W        W37103  16.768  10.207   4.685
68763W        W37104   1.756   5.763  13.020
68764W        W37105  34.108  27.580  12.397
68765W        W37106  33.000  31.115   0.864
68766W        W37107   2.882  28.458  12.352
68767W        W37108  19.211  20.109  14.885
68768W        W37109  14.743  13.831   2.390
68769W        W37110  27.619  27.083   0.358
68770W        W37111  27.149  17.239  11.904
68771W        W37112  25.691  29.555  14.365
68772W        W37113  23.218  38.382   2.761
68773W        W37114  44.312  30.930   1.391
68774W        W37115  13.191   8.349   0.935
68775W        W37116  12.676  28.024   1.700
68776W        W37117   5.242  10.256   4.199
68777W        W37118  21.060   2.355   1.271
68778W        W37119  11.225  34.497   1.764
68779W        W37120  13.169  31.425   3.653
68780W        W37121  38.509   0.934   4.147
68781W        W37122   1.273  30.988  14.877
68782W        W37123  21.254  31.487   0.396
68783W        W37124  11.243  41.862  11.015
68784W        W37125  44.482  36.476  13.826
68785W        W37126  40.979  10.146   3.659
68786W        W37127  21.658   8.389  13.021
68787W        W37128   2.416   5.219  14.917
68788W        W37129  12.756  27.186  13.823
68789W        W37130  38.857   8.193   1.761
68790W        W37131   9.822   6.780   2.207
68791W        W37132  43.764  42.424  11.968
68792W        W37133  21.223  18.050  12.427
68793W        W37134  40.874  16.657  13.045
68794W        W37135  42.820  26.667   3.652
68795W        W37136  44.396  28.153   5.308
68796W        W37137   2.387  42.919  10.120
68797W        W37138  34.867  15.325   1.262
68798W        W37139  41.859  24.181   1.256
68799W        W37140  21.749   6.697   3.266
68800W        W37141   3.253  40.348  14.894
68801W        W37142  20.691  17.224  13.366
68802W        W37143  31.953   7.677   0.768
68803W        W37144  41.863  19.054  13.492
68804W        W37145  11.752  38.981   2.712
68805W        W37146  15.765   7.300   2.226
68806W        W37147  40.835  20.132   0.268
68807W        W37148  31.411  14.788   4.163
68808W        W37149   9.648   7.221   3.820
68809W        W37150   5.353  10.738  14.443
68810W        W37151  10.212  40.822   4.792
68811W        W37152  19.198  30.006   1.770
68812W        W37153  11.627  30.655   1.842
68813W        W37154  34.889  11.830  13.387
68814W        W37155  42.933  37.579  12.507
68815W        W37156  37.343  41.353  10.528
68816W        W37157  43.446  10.773   4.719
68817W        W37158   4.424  40.861  11.068
68818W        W37159   1.908  42.798   1.344
68819W        W37160  21.159   2.819  14.937
68820W        W37161  40.823  21.165   0.895
68821W        W37162  31.575  15.615   4.228
68822W        W37163   7.254  31.914   4.123
68823W        W37164  38.347  42.511  13.820
68824W        W37165  40.977  33.573   0.923
68825W        W37166  21.142   1.786   5.180
68826W        W37167  44.886   1.444  14.930
68827W        W37168  21.190   7.729   0.851
68828W        W37169  21.082   6.395  14.938
68829W        W37170  13.254  43.884   2.690
68830W        W37171  28.045  27.967   2.285
68831W        W37172  29.936  26.112   2.235
68832W        W37173  14.597  27.639   0.903
68833W        W37174  39.481  43.828  13.909
68834W        W37175  13.802   6.725  14.963
68835W        W37176  37.475   5.830   2.336
68836W        W37177   0.394  39.811   0.281
68837W        W37178  37.876  43.494   4.308
68838W        W37179  30.487  41.457  12.060
68839W        W37180  33.943  37.480  12.091
68840W        W37181  40.862  27.623  13.912
68841W        W37182   3.222  40.956   3.193
68842W        W37183   0.364  42.366  12.914
68843W        W37184  31.106   1.765   4.193
68844W        W37185  13.242  33.127  13.845
68845W        W37186  19.682  41.499   0.771
68846W        W37187  41.306  31.139   0.429
68847W        W37188  36.968  35.063  13.844
68848W        W37189  31.948  10.787   3.169
68849W        W37190  18.210  38.407   1.347
68850W        W37191  42.341  16.246   4.257
68851W        W37192  39.036  32.394   9.973
68852W        W37193   5.232  37.927   3.221
68853W        W37194   9.340   9.202  12.962
68854W        W37195  20.564  22.127  11.120
68855W        W37196  32.923  39.057   9.581
68856W        W37197  22.629  39.456  11.390
68857W        W37198   8.664  10.823   1.341
68858W        W37199   6.742  43.390  12.069
68859W        W37200  30.072   7.184   0.901
68860W        W37201   7.802  21.521   1.314
68861W        W37202  29.450  16.268  11.450
68862W        W37203  24.502  34.937  12.907
68863W        W37204  24.053  39.025  10.512
68864W        W37205   8.758  12.211   1.408
68865W        W37206   3.945  28.996   3.147
68866W        W37207  36.016  20.128   4.667
68867W        W37208  30.987   5.838   3.355
68868W        W37209  28.579  26.006   2.735
68869W        W37210  34.076  19.754   3.282
68870W        W37211  26.478   8.177   4.132
68871W        W37212  42.464  41.435  11.488
68872W        W37213  23.211   8.786   2.819
68873W        W37214  32.056  18.141   1.276
68874W        W37215  42.927  40.480   0.901
68875W        W37216  42.375  36.500  13.857
68876W        W37217   8.354  20.236  12.458
68877W        W37218   3.304  17.758   3.174
68878W        W37219  39.473  41.918  11.509
68879W        W37220  44.274   3.255   5.235
68880W        W37221  18.129  35.481  13.340
68881W        W37222  41.929  39.883  13.938
68882W        W37223  41.036  32.487  12.881
68883W        W37224  20.562  18.204  13.425
68884W        W37225  39.981  19.156   3.166
68885W        W37226  21.692  17.721  10.475
68886W        W37227  10.266  17.226   4.217
68887W        W37228   6.283  24.028  14.289
68888W        W37229  44.931   0.383  13.432
68889W        W37230  35.995  40.045  11.393
68890W        W37231  42.346  16.222   1.825
68891W        W37232  30.922   3.250  10.501
68892W        W37233  23.131   8.369   1.806
68893W        W37234  37.396   7.198  12.484
68894W        W37235  28.041  15.183   0.811
68895W        W37236  16.152  13.803  10.547
68896W        W37237  13.213  17.590  11.494
68897W        W37238  39.343  16.604   1.343
68898W        W37239  12.160  39.819   2.740
68899W        W37240  15.813   3.718  12.434
68900W        W37241  14.772  35.524  11.102
68901W        W37242  24.227   8.287   2.794
68902W        W37243  20.228  18.546   4.183
68903W        W37244  29.920  14.741  14.929
68904W        W37245  15.602  34.425   0.792
68905W        W37246   9.743  19.656  11.578
68906W        W37247  38.059  30.952   4.746
68907W        W37248  36.536  10.841  11.518
68908W        W37249  10.809  37.411   1.743
68909W        W37250  32.594   6.728   2.283
68910W        W37251  24.644  30.459  14.308
68911W        W37252  37.952   1.326  10.530
68912W        W37253  33.125  37.887  12.356
68913W        W37254  19.632  14.115  11.858
68914W        W37255  43.891  26.675  11.894
68915W        W37256  20.118  13.828  13.416
68916W        W37257  33.486   6.717   2.195
68917W        W37258  25.624  32.632   4.121
68918W        W37259   2.793  26.683  13.827
68919W        W37260   1.876   9.774  10.490
68920W        W37261   7.293  12.806   2.417
68921W        W37262  43.410  34.473   3.703
68922W        W37263  32.469  40.978   2.693
68923W        W37264  42.411  35.908  13.832
68924W        W37265   9.729  33.049  11.123
68925W        W37266  20.110  39.346   1.222
68926W        W37267   1.252  32.921   4.219
68927W        W37268   6.895  17.091  14.513
68928W        W37269  10.707  19.206  10.507
68929W        W37270  33.993  43.017   3.779
68930W        W37271  15.771  12.201   0.465
68931W        W37272  13.647  44.817   1.893
68932W        W37273   0.252  17.270  10.643
68933W        W37274   0.970  43.840   2.880
68934W        W37275  28.448  44.431   1.844
68935W        W37276  34.594  23.192   3.343
68936W        W37277  43.984  19.653  14.954
68937W        W37278  15.274   8.701   3.218
68938W        W37279   0.869  42.997   0.316
68939W        W37280  39.443  40.941   0.479
68940W        W37281  15.813  29.557  12.453
68941W        W37282  11.634  10.818  11.045
68942W        W37283  30.160  12.801   2.404
68943W        W37284  22.010  15.263   0.835
68944W        W37285   3.870  11.864   4.789
68945W        W37286  17.290  27.514  13.883
68946W        W37287  38.984  28.473  12.466
68947W        W37288  31.545  35.862  12.556
68948W        W37289  31.091  21.188  14.479
68949W        W37290  43.385   4.944  11.567
68950W        W37291  17.291  27.535  10.989
68951W        W37292  31.961  28.167   1.212
68952W        W37293  26.988   9.197   4.193
68953W        W37294   7.851  22.552   4.674
68954W        W37295  23.191  24.006  14.356
68955W        W37296  17.734   1.337   3.859
68956W        W37297  34.054  14.610  10.507
68957W        W37298  24.692   1.901  10.504
68958W        W37299  38.569  34.885  11.860
68959W        W37300  36.351  26.138  12.391
68960W        W37301  40.858  36.909  14.792
68961W        W37302  41.409  38.476   3.739
68962W        W37303   2.311  13.818   0.386
68963W        W37304  44.397  37.391  11.607
68964W        W37305  29.963  10.745   0.423
68965W        W37306   0.363  27.132  12.077
68966W        W37307  38.345  21.667   1.762
68967W        W37308   6.372  25.200  13.796
68968W        W37309  35.376   3.442   0.943
68969W        W37310  43.360  14.134   2.760
68970W        W37311  22.110  28.164  12.093
68971W        W37312   1.941  31.541  14.356
68972W        W37313  31.623  42.299   3.845
68973W        W37314   0.351  37.988   1.808
68974W        W37315   1.932   5.748   0.962
68975W        W37316   0.953  30.479  12.929
68976W        W37317  38.354  37.937  13.479
68977W        W37318  26.105   4.893  14.827
68978W        W37319  31.446   5.775  11.530
68979W        W37320  25.672   1.847   3.675
68980W        W37321  23.721  24.123  12.017
68981W        W37322  21.242   7.240  13.503
68982W        W37323  35.591  16.568   2.278
68983W        W37324  28.644   3.898   3.273
68984W        W37325  33.443  43.493  12.978
68985W        W37326  25.564  37.437  10.956
68986W        W37327  37.514  30.069  10.403
68987W        W37328  44.917   8.863  14.796
68988W        W37329  33.453  43.485   4.193
68989W        W37330   5.215   5.259  12.555
68990W        W37331   7.734  13.826  11.012
68991W        W37332  19.259  16.199   3.782
68992W        W37333   9.655  25.579  14.987
68993W        W37334   9.242  36.406  13.814
68994W        W37335  24.986  11.269   1.932
68995W        W37336  43.306  23.498   4.656
68996W        W37337  25.192  40.313   0.884
68997W        W37338  18.230  19.676   0.952
68998W        W37339  42.796  30.913   1.880
68999W        W37340   9.384  28.048  13.532
69000W        W37341  14.810   3.729   3.307
69001W        W37342   7.240  17.297   2.305
69002W        W37343  11.284  35.934  13.518
69003W        W37344  11.663  28.081  14.957
69004W        W37345  37.481  38.539  11.052
69005W        W37346  12.209  29.919  12.025
69006W        W37347  15.709  11.780   4.684
69007W        W37348  10.846   6.255   3.797
69008W        W37349   2.764   8.662  14.988
69009W        W37350  32.039   6.254   2.346
69010W        W37351  29.625  28.588  11.032
69011W        W37352  18.582  20.136  14.323
69012W        W37353  31.024   3.219  13.405
69013W        W37354  32.598  19.052  12.938
69014W        W37355  39.553  37.581  13.059
69015W        W37356   9.693   9.264  14.944
69016W        W37357  15.146   6.912   1.775
69017W        W37358   6.274  39.545   4.249
69018W        W37359  22.606  30.627  10.944
69019W        W37360  20.194  20.660  13.990
69020W        W37361  29.956  20.716  13.535
69021W        W37362  35.434  41.031   3.819
69022W        W37363   9.207  41.955   1.913
69023W        W37364  41.333   6.712  11.443
69024W        W37365   7.755  20.116  12.514
69025W        W37366  41.788  41.303   5.107
69026W        W37367  16.742  33.527   0.907
69027W        W37368   1.783  33.608   1.783
69028W        W37369  25.577   6.694   0.284
69029W        W37370   8.764  16.746  12.942
69030W        W37371  32.461  18.559  14.921
69031W        W37372   6.181  18.612  14.934
69032W        W37373  10.765  35.421   1.237
69033W        W37374   5.283   7.282   2.848
69034W        W37375  43.427  10.657   1.380
69035W        W37376  24.983  15.111  10.471
69036W        W37377  26.502   6.769  14.455
69037W        W37378  33.603   4.206   2.298
69038W        W37379  39.342   9.218  12.549
69039W        W37380  31.904  42.961  13.411
69040W        W37381  24.036  35.426   3.671
69041W        W37382  17.791   5.357   4.203
69042W        W37383   9.310  27.005  10.506
69043W        W37384  36.970  36.981  11.984
69044W        W37385  42.438  33.991  12.416
69045W        W37386  15.651   8.743  14.009
69046W        W37387  21.230   7.904   1.743
69047W        W37388  42.830  14.759  13.982
69048W        W37389   6.313  16.194  12.568
69049W        W37390  20.721  43.005  14.299
69050W        W37391   9.741  39.872  14.788
69051W        W37392  41.956  42.947   2.322
69052W        W37393  14.101  19.240   0.332
69053W        W37394  31.114   0.915  11.462
69054W        W37395  44.442   8.802   4.681
69055W        W37396  22.587   2.863  13.880
69056W        W37397  30.945  38.549  10.577
69057W        W37398  43.377  12.193   0.475
69058W        W37399   7.237   3.782   4.752
69059W        W37400  10.233  18.641  10.956
69060W        W37401  28.576  32.037  10.457
69061W        W37402  21.225   3.367   5.209
69062W        W37403   9.356   4.280   2.348
69063W        W37404  40.998  23.589  12.464
69064W        W37405  40.021  31.147  12.420
69065W        W37406  23.019  25.132   2.676
69066W        W37407   7.383  19.276  13.985
69067W        W37408  37.417   6.759   1.425
69068W        W37409   9.772  41.007   4.641
69069W        W37410  36.862  33.406  11.376
69070W        W37411  40.887  10.232  12.848
69071W        W37412  32.931  15.306   1.210
69072W        W37413  23.207   3.384  12.479
69073W        W37414  32.914  14.310   1.799
69074W        W37415  27.197  35.427  11.456
69075W        W37416   4.435  42.958  11.054
69076W        W37417  34.864  29.609   4.771
69077W        W37418  29.470  37.404   4.838
69078W        W37419   6.713  25.165  13.938
69079W        W37420  23.669  40.928  11.013
69080W        W37421  35.486  21.124   1.425
69081W        W37422   6.838  30.534   0.933
69082W        W37423  30.103  32.126  10.547
69083W        W37424  19.579  10.159  11.106
69084W        W37425  13.161  41.916   2.388
69085W        W37426  33.941  34.005   1.414
69086W        W37427  35.526   7.713   0.833
69087W        W37428  22.131  13.734   2.230
69088W        W37429   7.777  40.349   1.285
69089W        W37430  20.562  35.471  10.597
69090W        W37431  12.706   2.418  12.084
69091W        W37432  13.777  20.547   2.296
69092W        W37433   8.852   8.376   4.820
69093W        W37434  31.483  13.696   2.242
69094W        W37435  10.157   9.325   2.258
69095W        W37436  42.493   3.741  12.428
69096W        W37437  24.132  12.158  10.958
69097W        W37438  25.624  39.523  11.915
69098W        W37439  21.141  40.908  11.027
69099W        W37440   0.819  11.622   2.745
69100W        W37441  33.042   4.450   1.882
69101W        W37442   3.445   3.312   4.664
69102W        W37443  38.821  39.320  13.842
69103W        W37444  41.341  33.625   3.672
69104W        W37445  11.642  42.885  10.561
69105W        W37446  24.648  24.658   1.289
69106W        W37447   2.334  24.185  12.427
69107W        W37448  21.193   6.754   4.792
69108W        W37449  25.590  38.072   3.378
69109W        W37450  17.776  31.972   9.602
69110W        W37451   8.884  41.000   3.710
69111W        W37452  14.221  28.475   0.438
69112W        W37453  36.058   2.257   1.702
69113W        W37454  11.315  31.508   3.688
69114W        W37455  27.648  16.603   3.330
69115W        W37456  24.181  33.077   0.449
69116W        W37457   3.751  15.263   2.288
69117W        W37458  31.070   5.289  14.348
69118W        W37459  16.778  43.933  14.312
69119W        W37460   5.322  16.676  13.421
69120W        W37461  17.714  19.215   3.721
69121W        W37462   4.358   8.325  12.025
69122W        W37463  37.851  30.463  12.493
69123W        W37464  19.062   6.414   2.858
69124W        W37465  36.049  41.012   0.369
69125W        W37466  39.560  14.114  12.361
69126W        W37467  32.433   7.666  10.954
69127W        W37468  17.290   9.203  11.524
69128W        W37469  39.411  11.141   3.292
69129W        W37470  17.233  35.107   5.710
69130W        W37471  43.405  23.222  14.760
69131W        W37472  32.522   3.291  13.331
69132W        W37473  44.830  12.675  13.340
69133W        W37474  20.216  22.167  12.869
69134W        W37475   8.276  23.706   0.376
69135W        W37476  35.932   5.334   1.385
69136W        W37477  26.030  11.637   4.710
69137W        W37478  20.656  41.394  11.025
69138W        W37479   7.393  43.000   2.238
69139W        W37480  13.286   1.382   2.675
69140W        W37481  34.390  28.021  11.407
69141W        W37482  15.306   3.279   1.312
69142W        W37483  21.038  10.182  13.373
69143W        W37484  24.083  41.948  12.509
69144W        W37485  41.355  13.293   3.778
69145W        W37486   6.378  24.993  14.759
69146W        W37487  43.967  32.452   2.752
69147W        W37488  23.173  13.237  13.830
69148W        W37489  33.974  33.928  11.862
69149W        W37490  37.885   6.721  14.776
69150W        W37491   7.878  12.319  12.460
69151W        W37492   5.385  30.511  11.591
69152W        W37493   9.238  29.535  10.891
69153W        W37494  22.997   5.721   1.427
69154W        W37495  32.938  36.387  13.989
69155W        W37496  43.467  33.460  11.520
69156W        W37497   6.354  20.171  14.938
69157W        W37498  31.625   0.854  13.954
69158W        W37499  41.458   2.455   2.344
69159W        W37500  27.094   6.379   2.211
69160W        W37501  30.445  42.813  14.845
69161W        W37502  23.632  39.496  14.794
69162W        W37503   0.482   5.269   2.290
69163W        W37504   7.688  19.266   3.238
69164W        W37505   0.836   6.758  14.445
69165W        W37506   7.686   5.301  13.463
69166W        W37507  41.472  22.532   2.237
69167W        W37508  29.135   0.939  13.909
69168W        W37509  29.562  40.547  13.928
69169W        W37510  35.526  39.485  11.038
69170W        W37511  25.042  22.667  11.048
69171W        W37512  26.053  32.492   0.926
69172W        W37513  28.638  10.720   0.886
69173W        W37514  22.562  30.615   9.986
69174W        W37515  29.039  22.017   0.299
69175W        W37516  40.519  30.420  13.921
69176W        W37517   5.390  15.314  14.851
69177W        W37518  40.503  41.982  14.986
69178W        W37519  32.600  44.802   0.803
69179W        W37520  17.219  15.154   0.962
69180W        W37521   1.285  30.645   0.927
69181W        W37522  41.989  37.359  14.508
69182W        W37523  10.183  11.287   4.157
69183W        W37524  18.617  20.041  12.397
69184W        W37525  32.479  18.278  12.877
69185W        W37526  19.552  22.614  12.074
69186W        W37527   8.741   9.369  13.432
69187W        W37528  34.077  31.417  11.058
69188W        W37529  17.600   8.304  12.011
69189W        W37530  39.337   8.287  14.498
69190W        W37531  40.947  35.869  12.448
69191W        W37532   8.827  34.426   2.677
69192W        W37533  13.185  44.314   4.167
69193W        W37534  14.771  32.430   5.612
69194W        W37535  27.174  42.457   4.178
69195W        W37536  29.462   6.290  14.387
69196W        W37537  42.930  18.073   0.350
69197W        W37538  19.215   9.683   2.277
69198W        W37539   2.423  41.450   0.384
69199W        W37540  41.838  25.131  12.961
69200W        W37541  11.622  41.505   9.956
69201W        W37542  40.963  15.741   2.737
69202W        W37543  30.455  28.453   2.874
69203W        W37544  23.989  10.159  11.596
69204W        W37545   0.797  43.306   3.670
69205W        W37546  11.625  14.200  10.888
69206W        W37547  12.634  36.054  14.396
69207W        W37548  22.038  21.607  14.002
69208W        W37549  28.997  27.498  10.888
69209W        W37550  26.033  34.449   3.181
69210W        W37551  30.554  21.119   3.211
69211W        W37552  13.136  12.774   0.935
69212W        W37553  13.296  24.066   1.363
69213W        W37554   6.256  16.131  12.064
69214W        W37555  35.900  41.339  14.502
69215W        W37556  18.202  13.166  13.032
69216W        W37557  14.658  12.765   4.694
69217W        W37558  24.200  12.318   3.239
69218W        W37559   7.354  24.174  11.968
69219W        W37560  25.548  25.969   0.778
69220W        W37561   6.746  10.355  13.326
69221W        W37562   6.208   0.367   3.707
69222W        W37563  30.590  35.470   1.771
69223W        W37564  38.415  26.073   3.782
69224W        W37565  18.706  41.879   1.436
69225W        W37566  31.586   5.427   0.921
69226W        W37567  20.048  44.888  12.008
69227W        W37568  23.042  28.180   2.823
69228W        W37569  19.271  42.872  14.834
69229W        W37570  38.499  12.771   3.853
69230W        W37571  17.776  20.146  13.474
69231W        W37572  26.053  40.535   3.639
69232W        W37573  42.438  14.181  14.377
69233W        W37574  24.034  15.817   4.795
69234W        W37575  14.601  20.273   3.847
69235W        W37576  12.182  30.148  13.461
69236W        W37577  16.636   7.396  12.441
69237W        W37578   1.839  37.990   2.246
69238W        W37579   3.399  27.459  14.927
69239W        W37580  21.257  31.103  11.542
69240W        W37581  27.588  31.073   1.921
69241W        W37582  13.642  31.039  11.040
69242W        W37583   7.879  34.465  12.859
69243W        W37584   5.715   8.792   3.220
69244W        W37585  32.566   1.342  11.522
69245W        W37586  43.497  11.365  11.597
69246W        W37587   4.836  42.522  13.962
69247W        W37588   6.712   3.947   2.717
69248W        W37589  37.998   5.356   3.655
69249W        W37590  42.813  10.646   2.873
69250W        W37591   5.228  40.035   3.779
69251W        W37592  38.326  29.614   1.341
69252W        W37593  13.641  19.197   4.216
69253W        W37594  10.294  38.536   2.397
69254W        W37595  14.217  44.473   0.883
69255W        W37596  18.670  15.776   3.770
69256W        W37597  19.128  14.234   3.791
69257W        W37598  37.509  27.451   3.764
69258W        W37599  16.279  35.409  13.401
69259W        W37600  30.530  30.506  14.477
69260W        W37601  32.036  23.205   2.309
69261W        W37602   6.806  39.978  13.887
69262W        W37603  37.031  10.152  11.436
69263W        W37604   1.823  39.531  10.604
69264W        W37605   0.897  36.365   1.352
69265W        W37606   9.305   7.691   4.324
69266W        W37607  32.010  27.020   4.802
69267W        W37608  37.039  34.506   1.243
69268W        W37609  39.356  25.557  11.106
69269W        W37610  24.538  19.742  10.533
69270W        W37611   7.741  35.002  11.988
69271W        W37612   8.806  42.948  14.769
69272W        W37613  40.312  19.142   3.761
69273W        W37614  16.648  34.544   5.596
69274W        W37615  25.124  43.998  14.345
69275W        W37616   7.687   6.737  11.988
69276W        W37617  10.808   4.439   2.737
69277W        W37618  23.551  43.474  10.539
69278W        W37619   6.391  31.916   4.754
69279W        W37620   3.789   8.784   2.712
69280W        W37621  28.929  12.340  10.536
69281W        W37622  29.483  33.619  14.945
69282W        W37623  10.321  18.247   0.428
69283W        W37624  42.010   5.262  13.450
69284W        W37625  21.642   9.296  12.945
69285W        W37626  26.493  22.743  11.023
69286W        W37627  26.541   1.239  14.992
69287W        W37628  23.105  21.107   0.824
69288W        W37629   9.689  44.503   0.928
69289W        W37630   3.940  21.598   4.702
69290W        W37631  14.151  31.048   1.444
69291W        W37632  21.077  14.628  13.489
69292W        W37633  39.458  11.828  14.027
69293W        W37634   7.417  31.426   2.405
69294W        W37635  19.136  23.191   2.179
69295W        W37636  35.093  12.706   3.376
69296W        W37637  17.746  20.103  12.471
69297W        W37638  21.542  25.667   0.302
69298W        W37639  43.453  17.265  13.320
69299W        W37640  36.073  37.083   1.895
69300W        W37641  40.475  24.681  14.483
69301W        W37642   8.824   4.298   3.362
69302W        W37643  32.082  40.986   2.367
69303W        W37644   0.377   8.798   2.374
69304W        W37645  20.640  14.301  11.983
69305W        W37646  26.998  35.029  14.918
69306W        W37647  44.314   8.218  10.142
69307W        W37648   6.253  25.170  14.456
69308W        W37649  10.172  16.663  12.835
69309W        W37650  31.018  34.073  13.970
69310W        W37651  24.162   2.333   1.258
69311W        W37652  15.664  29.047  14.906
69312W        W37653   3.379  44.437  14.870
69313W        W37654  17.272   2.449   1.874
69314W        W37655  23.992   0.455  11.440
69315W        W37656   4.408  37.417   1.348
69316W        W37657   7.343  41.327   3.671
69317W        W37658  24.639  33.035  12.020
69318W        W37659   3.324   5.853  11.554
69319W        W37660  29.461  42.486  11.878
69320W        W37661  14.808  38.064   5.258
69321W        W37662   3.418  28.055   1.273
69322W        W37663  30.460   5.732   4.273
69323W        W37664  17.149  32.601   3.753
69324W        W37665  33.600  38.553  10.600
69325W        W37666  14.768  41.449   1.817
69326W        W37667  42.012   3.404   4.781
69327W        W37668  15.677  25.709  13.475
69328W        W37669  39.857  42.303   9.454
69329W        W37670  32.136  33.402  13.404
69330W        W37671   5.371   2.339  11.435
69331W        W37672  18.737  24.020   4.297
69332W        W37673  33.405   0.833  13.889
69333W        W37674  36.413  11.775   4.337
69334W        W37675   7.339  27.453   1.246
69335W        W37676  25.213  29.091   2.401
69336W        W37677  29.009  33.547  11.997
69337W        W37678  33.027   5.281  10.947
69338W        W37679  30.482  29.072  11.877
69339W        W37680  30.611  30.046  12.991
69340W        W37681  16.771  15.129   0.915
69341W        W37682  21.676  21.248  10.029
69342W        W37683  38.476  32.547  12.452
69343W        W37684  24.058  28.943   3.805
69344W        W37685  10.216  20.576   1.411
69345W        W37686  41.933  39.938   1.302
69346W        W37687  37.567  12.140   2.678
69347W        W37688  33.935  36.575   2.371
69348W        W37689  37.864  21.702  11.445
69349W        W37690  28.662   2.463  10.496
69350W        W37691  38.448  23.635   2.670
69351W        W37692  31.064  34.607   0.755
69352W        W37693  29.550   0.325   0.473
69353W        W37694  18.629   1.935   4.207
69354W        W37695  28.148  13.821   4.729
69355W        W37696  24.706  35.005  13.400
69356W        W37697  22.697  38.336  13.919
69357W        W37698  44.448   7.690  12.462
69358W        W37699  33.572  36.578   4.202
69359W        W37700  42.862  24.570   3.672
69360W        W37701  39.448  30.005   2.276
69361W        W37702  38.562   9.304   3.766
69362W        W37703   5.805  31.552   4.354
69363W        W37704  25.055  20.710  14.950
69364W        W37705  29.489  16.763   4.238
69365W        W37706  36.435  42.870  14.804
69366W        W37707  12.181  10.692  12.430
69367W        W37708  26.094  17.234   3.289
69368W        W37709  21.261  21.699   1.337
69369W        W37710   8.198  19.112   4.284
69370W        W37711   1.297  39.901  11.022
69371W        W37712  12.116  12.674   5.165
69372W        W37713   0.369  36.496  11.888
69373W        W37714   3.936  28.981   1.375
69374W        W37715  27.960  17.589  14.420
69375W        W37716  33.536  16.302   1.324
69376W        W37717  26.171   1.277   2.182
69377W        W37718  39.964   0.813   1.347
69378W        W37719  12.284  11.690   0.903
69379W        W37720  43.507  30.412  10.923
69380W        W37721  42.367   5.286  13.053
69381W        W37722  24.496  23.637   1.935
69382W        W37723  27.645  44.942   4.241
69383W        W37724  34.400   2.249  14.361
69384W        W37725  41.935   0.988  12.472
69385W        W37726  19.120  19.111   0.355
69386W        W37727  44.372  20.730   3.273
69387W        W37728  35.470  22.014  11.373
69388W        W37729  20.702   0.977   3.198
69389W        W37730  40.960  16.104  14.867
69390W        W37731   0.907   3.247   0.451
69391W        W37732  30.145  37.344  14.491
69392W        W37733   6.701  34.566   0.817
69393W        W37734   9.206  30.941  11.889
69394W        W37735  28.097  41.789   0.807
69395W        W37736  31.605  42.940  12.883
69396W        W37737  28.957  40.405  12.877
69397W        W37738  26.660  29.497  12.454
69398W        W37739   0.852  12.341  10.919
69399W        W37740   2.441  30.594   4.663
69400W        W37741  29.665   3.770  14.864
69401W        W37742  11.804  20.175   1.309
69402W        W37743  17.109  29.079  14.359
69403W        W37744  38.539   7.901   3.857
69404W        W37745  44.866  34.070  12.046
69405W        W37746  14.629  32.427   3.264
69406W        W37747  36.398  13.677  10.979
69407W        W37748   0.390  38.566  13.820
69408W        W37749  44.470  34.044   4.728
69409W        W37750  30.051  33.080  13.313
69410W        W37751  15.083   2.305   0.947
69411W        W37752  33.114  36.000   2.221
69412W        W37753  32.134  18.065   0.865
69413W        W37754  12.222  31.145   0.312
69414W        W37755  12.150  37.548   3.209
69415W        W37756   6.221  32.409  13.404
69416W        W37757  13.795  25.986  11.610
69417W        W37758  29.976  22.662  12.991
69418W        W37759  31.951  16.790  13.317
69419W        W37760  33.426  31.519   4.116
69420W        W37761  13.797  12.139   2.801
69421W        W37762  26.669  39.380  14.001
69422W        W37763  15.746   1.383   5.234
69423W        W37764  43.956   1.871   1.232
69424W        W37765  32.056   7.395   0.315
69425W        W37766  12.308   5.353  12.916
69426W        W37767  20.160  28.932   2.412
69427W        W37768  30.640   5.818  14.945
69428W        W37769  16.142  30.933   0.765
69429W        W37770  38.017  33.120   3.739
69430W        W37771  11.712  44.929   3.798
69431W        W37772  36.919   2.308   4.659
69432W        W37773  27.107   8.255   1.838
69433W        W37774  27.689   1.924  10.616
69434W        W37775  24.553  17.802   3.741
69435W        W37776  42.805  27.958  10.555
69436W        W37777  16.248  26.552   4.348
69437W        W37778  31.474  43.807  11.869
69438W        W37779   2.789  12.712  12.510
69439W        W37780  38.039  27.516  11.423
69440W        W37781  26.667  16.182   0.451
69441W        W37782  14.330  25.215   3.316
69442W        W37783  12.240  15.206   3.684
69443W        W37784  39.494  18.183  12.997
69444W        W37785  38.336  21.158   3.213
69445W        W37786  18.258  39.048  10.448
69446W        W37787  41.369  36.472   3.669
69447W        W37788  39.389  22.571   3.806
69448W        W37789   9.219   3.866   0.461
69449W        W37790  19.777  26.472  10.438
69450W        W37791  44.928   0.460  11.991
69451W        W37792  25.628  21.073  14.838
69452W        W37793  21.116  41.878  14.822
69453W        W37794  37.071  41.404   4.300
69454W        W37795  28.970  32.425  14.815
69455W        W37796  18.115  29.564   0.959
69456W        W37797   8.257  33.120   2.728
69457W        W37798  20.265  24.643  12.070
69458W        W37799  39.541  42.829   1.374
69459W        W37800  17.196  44.856  12.922
69460W        W37801  18.791  24.198   2.317
69461W        W37802  19.105  27.960   3.384
69462W        W37803  10.216   0.301  11.022
69463W        W37804   0.751   4.215   2.362
69464W        W37805   8.256  18.700  11.006
69465W        W37806   0.333   1.240  11.009
69466W        W37807  32.056  36.524  12.502
69467W        W37808  41.376  42.968   3.648
69468W        W37809   5.374  39.812   3.272
69469W        W37810  18.750  32.413   4.198
69470W        W37811  19.645  35.936   1.242
69471W        W37812   6.756  40.364   3.718
69472W        W37813  31.990  11.229   0.778
69473W        W37814  19.234  23.689   2.723
69474W        W37815   7.877  28.026   3.633
69475W        W37816   5.206  20.754  12.465
69476W        W37817  10.375   4.392  14.813
69477W        W37818  20.176  29.152  12.861
69478W        W37819  41.527  38.388   2.361
69479W        W37820  33.417  10.258   4.835
69480W        W37821  38.512   1.296   0.408
69481W        W37822  14.167  13.167  12.864
69482W        W37823  35.409  33.513  11.560
69483W        W37824   7.342  21.060  10.977
69484W        W37825  13.351   6.742  11.059
69485W        W37826  15.314  31.535   0.432
69486W        W37827  23.586   7.233   4.655
69487W        W37828  29.489  25.063   0.940
69488W        W37829   4.374   5.199  11.947
69489W        W37830  36.373  12.683  12.045
69490W        W37831   5.233   7.331   1.411
69491W        W37832  32.596  14.124  12.430
69492W        W37833  44.300  28.645   1.767
69493W        W37834  24.114  21.689  13.876
69494W        W37835  17.780  10.662  12.475
69495W        W37836  18.710  17.700   4.600
69496W        W37837  35.980   7.399   2.842
69497W        W37838  10.337  27.647  13.953
69498W        W37839   9.772   2.410  14.986
69499W        W37840   6.257  23.229  14.793
69500W        W37841  43.314  25.069   0.385
69501W        W37842   2.767  26.169  10.639
69502W        W37843   1.943  10.716   0.472
69503W        W37844   4.770  21.633   2.220
69504W        W37845   5.421   7.866  14.476
69505W        W37846  29.011  28.542   2.404
69506W        W37847  27.184  11.182  11.374
69507W        W37848  36.440  16.252  12.850
69508W        W37849  24.124  15.630  13.416
69509W        W37850  12.155  13.663  11.980
69510W        W37851  26.642  28.179  14.492
69511W        W37852  34.553  21.579   1.723
69512W        W37853  36.892   1.769   2.278
69513W        W37854  42.856  32.021  10.907
69514W        W37855   2.305   7.869   4.337
69515W        W37856  44.878  20.146   1.268
69516W        W37857  30.640  25.011   1.237
69517W        W37858  21.153   2.407   2.392
69518W        W37859  15.658  26.982  10.594
69519W        W37860  39.406  19.550   3.632
69520W        W37861  22.032   9.650   1.819
69521W        W37862  11.777  28.584   1.244
69522W        W37863  25.534   8.688  12.453
69523W        W37864  20.201  31.523  14.765
69524W        W37865  12.294  39.982   5.194
69525W        W37866  10.168   7.313  11.027
69526W        W37867  31.505  25.475   1.316
69527W        W37868  35.914  36.864  13.376
69528W        W37869  23.179  42.448  14.949
69529W        W37870  23.702  21.190  11.404
69530W        W37871   6.333   7.284   2.844
69531W        W37872  25.548  18.748   5.117
69532W        W37873  23.009  19.542  11.099
69533W        W37874  23.152  26.462   4.757
69534W        W37875  43.496  11.146  14.497
69535W        W37876  37.940  18.561  14.378
69536W        W37877  17.786  36.407   4.653
69537W        W37878  19.093  39.976   4.701
69538W        W37879  44.922   3.886  12.992
69539W        W37880   9.723  37.859  14.417
69540W        W37881   4.246  38.935  12.884
69541W        W37882  18.613  42.445   4.717
69542W        W37883  30.435  40.445  14.472
69543W        W37884  27.022   5.324   1.789
69544W        W37885  20.583  12.183  12.021
69545W        W37886  29.144  24.104  12.500
69546W        W37887  29.472  12.354   3.730
69547W        W37888  28.022  39.986   4.135
69548W        W37889  41.812  40.424   4.747
69549W        W37890  21.642  35.388   3.790
69550W        W37891  39.834  41.922   2.332
69551W        W37892  28.489  19.616   4.229
69552W        W37893   4.901  24.091   1.932
69553W        W37894  15.198  18.102  11.084
69554W        W37895  44.313   1.761  13.029
69555W        W37896  30.988  21.667  13.801
69556W        W37897  43.013   9.728   4.672
69557W        W37898  32.889  25.661   2.800
69558W        W37899  35.574  43.502   0.932
69559W        W37900  26.143  11.163  14.396
69560W        W37901  40.482  39.395   3.283
69561W        W37902   7.720  42.881   0.844
69562W        W37903  15.127  22.682   4.797
69563W        W37904  11.734  40.923  14.018
69564W        W37905  34.038   1.948   2.304
69565W        W37906  36.929  43.930   2.789
69566W        W37907  40.861  14.298   4.345
69567W        W37908  32.070  41.504  10.493
69568W        W37909  33.985  14.287   1.328
69569W        W37910  33.131  26.567  14.913
69570W        W37911   9.772   2.330  12.400
69571W        W37912  41.870  40.982  13.437
69572W        W37913  21.753   6.739  11.557
69573W        W37914  36.000   3.399   4.796
69574W        W37915  36.506  40.497   2.291
69575W        W37916  23.093  18.118   5.721
69576W        W37917  28.603  26.565   1.868
69577W        W37918   3.445  29.040  10.561
69578W        W37919   5.284  36.954  12.509
69579W        W37920  21.208  30.015   3.331
69580W        W37921  22.221  35.392   2.692
69581W        W37922  31.079  44.999  13.992
69582W        W37923  40.312  26.541   4.341
69583W        W37924  27.150  23.033  12.525
69584W        W37925  22.117   5.745   1.774
69585W        W37926   8.696   9.679   0.919
69586W        W37927  30.162  10.233   3.638
69587W        W37928  28.026  17.759   0.264
69588W        W37929  35.512  20.600   0.731
69589W        W37930  33.004  44.487   1.881
69590W        W37931  38.021  28.137  14.863
69591W        W37932  38.066   2.327   4.675
69592W        W37933  19.184  36.959  12.356
69593W        W37934  11.765  34.457  11.874
69594W        W37935  16.287  19.248   2.362
69595W        W37936   4.282   7.353   2.661
69596W        W37937  28.033  20.085  14.355
69597W        W37938   5.376  26.165   3.767
69598W        W37939  29.661  26.685  13.441
69599W        W37940  25.629   2.768  12.505
69600W        W37941  10.157  41.412   3.745
69601W        W37942  42.432  21.145   2.323
69602W        W37943  13.238  12.247   2.417
69603W        W37944  19.727  25.082   3.699
69604W        W37945  32.467   5.201   2.666
69605W        W37946  27.038  43.466   0.405
69606W        W37947  37.884  34.392  13.439
69607W        W37948  42.326   4.426   2.780
69608W        W37949   4.332   7.880  14.420
69609W        W37950   0.261   1.923   3.750
69610W        W37951   0.754  29.564  11.044
69611W        W37952  33.496  40.801  12.525
69612W        W37953  14.145  44.917  11.421
69613W        W37954  14.106   2.824   0.347
69614W        W37955  22.654  42.377  13.899
69615W        W37956  23.196  25.033  14.465
69616W        W37957  32.984  31.642   0.418
69617W        W37958  16.612  20.745   3.185
69618W        W37959   7.353  34.374   4.265
69619W        W37960  17.558  17.731  10.967
69620W        W37961  32.615  43.339   0.464
69621W        W37962  13.656  33.050  12.422
69622W        W37963  43.312   4.428  10.508
69623W        W37964  41.980   2.888  12.388
69624W        W37965  12.344  31.611  13.033
69625W        W37966  24.153  37.035  11.946
69626W        W37967  37.987  12.624  14.920
69627W        W37968  22.705   4.881   0.367
69628W        W37969  34.549  41.021  14.425
69629W        W37970  16.264  33.874   2.877
69630W        W37971  32.576  20.138   3.800
69631W        W37972  25.168   6.223  11.863
69632W        W37973  26.645  31.153   0.283
69633W        W37974  40.525  10.703   2.268
69634W        W37975  40.016  16.097  11.981
69635W        W37976  12.210   9.275  12.865
69636W        W37977  37.432  42.936  11.543
69637W        W37978  30.056  28.488  12.356
69638W        W37979  29.660  34.570   0.897
69639W        W37980  15.184  11.311  11.466
69640W        W37981   6.386  40.319   0.250
69641W        W37982  42.487  32.063   2.248
69642W        W37983  12.733  39.491  10.548
69643W        W37984  28.171  30.643   1.769
69644W        W37985  22.150  15.169   0.276
69645W        W37986  30.916  31.976   2.390
69646W        W37987  44.383  14.179   2.863
69647W        W37988  31.605  18.631  13.376
69648W        W37989  26.093  30.553   2.375
69649W        W37990  33.095   6.211   1.822
69650W        W37991  39.379   8.758   1.312
69651W        W37992   5.727  34.549  13.968
69652W        W37993   4.247  40.052   1.443
69653W        W37994  14.815   6.871  12.488
69654W        W37995  39.886  17.273  13.834
69655W        W37996  23.988  36.024   2.745
69656W        W37997  24.127   7.725  13.801
69657W        W37998  24.066  44.913   4.643
69658W        W37999   1.919   5.324  13.063
69659W        W38000   4.333  33.451   1.429
69660W        W38001  43.337  16.700   1.844
69661W        W38002  39.845   6.199  12.966
69662W        W38003  35.490   3.454   4.620
69663W        W38004  15.134  41.393   2.897
69664W        W38005  43.388  12.266   1.720
69665W        W38006  42.969  24.217   5.182
69666W        W38007  23.572  21.080   4.813
69667W        W38008  23.233  37.473  12.517
69668W        W38009   7.363   8.704  10.461
69669W        W38010  24.976  31.144  13.827
69670W        W38011   0.785  30.152  13.863
69671W        W38012  32.575  24.490   1.346
69672W        W38013  44.499   6.208   9.952
69673W        W38014  11.746   9.832  13.531
69674W        W38015  21.232   7.844   4.190
69675W        W38016  41.796  44.348  12.962
69676W        W38017  43.988  36.859  10.437
69677W        W38018  31.057  31.974   4.179
69678W        W38019   1.788  29.573   1.806
69679W        W38020  21.145  44.792   2.781
69680W        W38021  27.041  32.408   4.129
69681W        W38022  10.246  33.122  11.404
69682W        W38023  37.978  41.788   3.239
69683W        W38024  44.973  32.465   3.816
69684W        W38025  20.546  25.040   3.790
69685W        W38026  22.669  17.305   3.214
69686W        W38027  29.122   4.246  11.432
69687W        W38028  34.537  29.453   2.749
69688W        W38029  11.338  13.279   3.165
69689W        W38030  34.868  11.662   0.250
69690W        W38031  34.376  21.742  13.884
69691W        W38032   9.834   6.229   3.851
69692W        W38033  11.680  36.416  11.393
69693W        W38034   8.692  40.849   4.772
69694W        W38035  15.585  21.725  10.626
69695W        W38036  31.454  16.756   3.209
69696W        W38037  28.609  42.949  11.001
69697W        W38038  21.648  18.280  10.642
69698W        W38039  13.167   5.248   0.346
69699W        W38040   5.367  23.183  10.597
69700W        W38041  30.115  31.072  11.557
69701W        W38042  31.487   4.924  14.326
69702W        W38043  22.616   2.248   0.442
69703W        W38044  23.542  17.659  14.828
69704W        W38045  39.859  11.633  10.565
69705W        W38046  35.523  40.430   2.839
69706W        W38047  35.903  35.381  12.546
69707W        W38048  20.082  24.137   2.260
69708W        W38049   9.295  27.077   2.401
69709W        W38050  26.010  39.947   0.243
69710W        W38051  41.901  19.734  11.945
69711W        W38052  44.810  17.194   0.886
69712W        W38053  39.038   8.679  11.578
69713W        W38054  44.920  25.492   0.324
69714W        W38055   3.899  37.889  14.437
69715W        W38056  15.658   5.888  14.400
69716W        W38057  10.209  24.212  13.834
69717W        W38058  22.048  24.485   0.335
69718W        W38059   1.761   0.801  13.450
69719W        W38060   4.436  24.675  11.462
69720W        W38061   3.790  27.034   3.780
69721W        W38062   3.394  37.391  14.982
69722W        W38063  36.898   5.828   2.830
69723W        W38064   5.875   8.373   4.818
69724W        W38065  24.083  28.533  12.970
69725W        W38066   2.433  26.556   4.288
69726W        W38067   2.282  31.615   1.282
69727W        W38068  26.030  30.477  12.840
69728W        W38069  37.434  20.249   1.222
69729W        W38070   1.794  30.033  13.986
69730W        W38071  15.804  43.275   4.270
69731W        W38072   6.891   0.269  11.033
69732W        W38073  11.231  29.639  14.453
69733W        W38074  12.274  40.443   5.205
69734W        W38075  44.888  10.227  11.395
69735W        W38076   9.669  24.052   4.690
69736W        W38077  17.252   2.384  13.918
69737W        W38078  42.436   0.451  12.938
69738W        W38079   2.351  30.637  11.867
69739W        W38080  30.996  34.452   4.266
69740W        W38081   0.793  27.487  12.514
69741W        W38082  35.076  13.260  13.842
69742W        W38083  11.663  36.035   2.802
69743W        W38084  25.098  31.578   0.298
69744W        W38085   6.394   8.254   1.904
69745W        W38086   7.417  34.386   0.446
69746W        W38087  10.237   1.799   0.824
69747W        W38088  25.077  25.180   3.380
69748W        W38089  29.514   4.860  12.976
69749W        W38090  40.402   7.896   4.228
69750W        W38091  29.512   8.839  14.448
69751W        W38092  24.620  31.624  11.110
69752W        W38093   3.230   3.450   1.417
69753W        W38094  34.087  12.158   2.328
69754W        W38095  10.248  26.092   4.171
69755W        W38096  26.546  32.584   1.381
69756W        W38097  34.996  38.502  14.819
69757W        W38098  32.904  11.638  13.329
69758W        W38099  15.684   3.743   3.329
69759W        W38100  39.447  12.202  14.782
69760W        W38101   9.832   9.250   4.679
69761W        W38102   9.651  28.445   1.409
69762W        W38103  32.908   5.431   0.289
69763W        W38104  31.131  43.928  13.977
69764W        W38105  26.089  23.511   4.237
69765W        W38106   2.805   2.297   0.766
69766W        W38107  38.919  36.474  13.353
69767W        W38108   3.260  23.995   5.310
69768W        W38109   7.804  14.279  11.583
69769W        W38110   3.909  40.347  10.460
69770W        W38111  28.010   8.844   2.810
69771W        W38112  21.087  31.552  12.399
69772W        W38113  28.996  11.135   3.657
69773W        W38114   3.391  40.937   1.898
69774W        W38115   3.382   9.817  10.892
69775W        W38116  43.929  17.750  11.011
69776W        W38117   2.915  16.571  11.079
69777W        W38118  19.642   4.719   0.386
69778W        W38119  33.563  44.824   1.367
69779W        W38120  11.223  23.516  14.804
69780W        W38121  44.348   1.434   9.963
69781W        W38122  11.637  28.031  12.398
69782W        W38123   2.365  20.638  14.398
69783W        W38124   8.785   5.750  11.415
69784W        W38125  27.491  32.460  12.067
69785W        W38126  20.077  43.304   3.215
69786W        W38127  20.121  20.090  13.034
69787W        W38128  44.892  33.500  12.393
69788W        W38129  32.521   7.734   4.706
69789W        W38130  32.531  40.977  12.387
69790W        W38131   0.408  39.987   1.424
69791W        W38132  19.554  32.487  12.980
69792W        W38133  10.188  35.046   1.403
69793W        W38134  13.228  18.283  13.386
69794W        W38135  12.236   9.790   4.828
69795W        W38136  42.492   2.951   3.655
69796W        W38137  19.770   9.760  11.900
69797W        W38138  21.088  10.829  12.082
69798W        W38139  14.593  37.076   0.952
69799W        W38140  24.526   2.265  14.970
69800W        W38141  23.676  41.859  14.913
69801W        W38142   9.870  10.705  11.009
69802W        W38143  30.068  43.906   4.257
69803W        W38144  14.253  32.504   0.761
69804W        W38145  28.957   6.385  13.313
69805W        W38146  20.259  35.603   4.243
69806W        W38147  42.316  40.375   4.638
69807W        W38148  20.551  38.010   4.144
69808W        W38149  10.818  33.937   1.231
69809W        W38150   9.174  15.092   2.370
69810W        W38151  10.652  44.440   0.316
69811W        W38152   2.430  42.959  14.944
69812W        W38153  16.653  12.316   1.912
69813W        W38154  15.615   0.442   4.185
69814W        W38155  44.425  41.990  11.443
69815W        W38156  27.572   7.888   4.650
69816W        W38157  33.898  26.070   0.411
69817W        W38158  24.165   4.912  10.122
69818W        W38159  20.102  11.353   4.773
69819W        W38160  16.131  27.039  10.448
69820W        W38161   3.952  37.564   1.436
69821W        W38162  29.997  15.092   4.204
69822W        W38163  27.041  15.298   4.246
69823W        W38164  38.854  38.486   4.791
69824W        W38165  16.309  23.690  11.064
69825W        W38166   3.236  23.687   0.307
69826W        W38167   7.811  23.703   0.908
69827W        W38168   9.881  18.666  11.884
69828W        W38169  14.131  23.706   0.761
69829W        W38170  32.409  32.908  14.314
69830W        W38171  15.781  17.613   4.607
69831W        W38172  40.492  42.900  12.952
69832W        W38173  43.901  28.078   4.751
69833W        W38174  21.260  29.092   1.374
69834W        W38175  20.650  18.710   3.149
69835W        W38176  12.789  21.581  11.970
69836W        W38177  20.080  34.521  11.111
69837W        W38178  41.894   8.745   1.741
69838W        W38179  38.029  15.720   4.797
69839W        W38180  15.130  32.055  12.088
69840W        W38181  37.508  22.579  12.839
69841W        W38182  20.260  27.608  12.959
69842W        W38183   7.762  15.608  10.160
69843W        W38184  13.735  12.209  13.857
69844W        W38185  28.477  29.534  14.317
69845W        W38186  33.599   6.296  11.116
69846W        W38187   3.321  13.681   3.152
69847W        W38188   6.820  38.950   2.214
69848W        W38189   9.362  12.357  11.485
69849W        W38190   4.293   7.897   3.752
69850W        W38191  20.542  29.095  14.495
69851W        W38192  25.585  43.509  13.963
69852W        W38193  30.616  10.265  11.504
69853W        W38194  18.088  17.238  12.580
69854W        W38195  36.903  35.405   3.260
69855W        W38196  22.112  31.002   4.239
69856W        W38197  36.588  26.636  14.459
69857W        W38198  23.496   1.271   3.378
69858W        W38199  16.794   0.480  13.422
69859W        W38200  19.221   6.898  10.570
69860W        W38201  23.039  41.309  11.466
69861W        W38202   2.861  27.953  12.509
69862W        W38203  36.347  29.434   2.831
69863W        W38204  25.998   6.844   1.846
69864W        W38205  35.857  14.645  13.836
69865W        W38206  15.625  38.932   0.274
69866W        W38207  17.722  29.026  11.016
69867W        W38208  44.363   2.403   0.855
69868W        W38209  31.094  32.548   2.823
69869W        W38210  35.541  11.252  10.584
69870W        W38211  37.087  44.356   2.839
69871W        W38212  26.111  25.504  12.574
69872W        W38213   7.849   6.237   1.864
69873W        W38214  28.064  36.524   4.758
69874W        W38215  16.297  14.592  10.912
69875W        W38216  36.023  11.823  13.012
69876W        W38217   8.320   5.928  11.128
69877W        W38218   8.802  17.188   1.809
69878W        W38219  33.107   8.691  14.313
69879W        W38220  22.541  11.684   0.248
69880W        W38221  24.070  19.720  13.504
69881W        W38222  44.271  23.714   4.605
69882W        W38223  43.282   0.284   4.353
69883W        W38224  13.795  40.328  12.027
69884W        W38225   4.834  40.849  13.017
69885W        W38226   1.772   7.689  14.989
69886W        W38227  15.774  37.429  12.379
69887W        W38228  25.631  34.103  13.367
69888W        W38229  22.687  36.493   1.877
69889W        W38230  39.971   2.904   0.832
69890W        W38231  14.706  38.959  11.031
69891W        W38232   3.380  14.804  12.558
69892W        W38233  32.056  19.152   2.683
69893W        W38234  39.325  33.917  14.938
69894W        W38235  18.210  23.626  12.433
69895W        W38236  25.183  44.897  13.548
69896W        W38237   0.760   8.864   0.937
69897W        W38238  31.047  17.164  11.390
69898W        W38239  23.650  28.592   9.599
69899W        W38240  15.254  16.080   1.801
69900W        W38241  38.486  26.623   3.260
69901W        W38242  13.651  40.538   3.749
69902W        W38243  22.512  18.581  13.483
69903W        W38244  18.098  38.459   0.818
69904W        W38245  38.390  39.352  13.867
69905W        W38246  19.679  33.991  10.587
69906W        W38247  44.902   2.357   3.697
69907W        W38248  18.744  35.570   3.283
69908W        W38249  39.886  32.531   1.818
69909W        W38250  40.047  15.737   3.755
69910W        W38251  35.382  11.790   1.358
69911W        W38252   1.370  14.681   4.285
69912W        W38253  17.130  24.548   1.396
69913W        W38254  20.111  40.837  13.392
69914W        W38255   2.392  32.124  10.467
69915W        W38256  37.943  44.884   3.819
69916W        W38257  39.402   7.210  10.464
69917W        W38258  17.577   7.403  10.955
69918W        W38259  25.634  12.700  10.964
69919W        W38260   0.382  11.292  14.919
69920W        W38261   3.903  13.753   0.799
69921W        W38262  30.028  37.381  10.462
69922W        W38263   3.323  20.076  13.347
69923W        W38264  18.193   4.776  13.958
69924W        W38265  37.457  14.646   5.152
69925W        W38266  25.653  23.049   4.753
69926W        W38267  44.759   1.772   2.259
69927W        W38268   3.392   5.373   0.297
69928W        W38269  12.160  20.089  10.559
69929W        W38270  40.799  33.529   2.268
69930W        W38271   3.421  27.983   4.647
69931W        W38272  26.635  11.283  11.103
69932W        W38273  38.909  12.323  12.867
69933W        W38274  24.498  34.866   1.720
69934W        W38275  10.327  14.325   0.810
69935W        W38276  41.527   7.863  10.515
69936W        W38277   6.216   9.293   2.817
69937W        W38278  15.602   7.377  13.874
69938W        W38279  40.010  42.817   2.711
69939W        W38280   1.321  32.574  11.874
69940W        W38281   4.907  19.260  14.282
69941W        W38282  16.166  26.663  13.999
69942W        W38283  42.896  26.196  11.983
69943W        W38284  36.355  35.879  11.953
69944W        W38285  22.534  19.254   0.473
69945W        W38286  36.519  35.962  10.057
69946W        W38287  41.496  30.925   0.934
69947W        W38288  30.514  12.362   2.303
69948W        W38289   6.717  39.344   2.869
69949W        W38290  37.048  40.847  12.998
69950W        W38291  18.176   4.432   2.182
69951W        W38292  38.542  14.257  11.578
69952W        W38293  17.666   3.241   3.154
69953W        W38294  25.617  29.476  10.591
69954W        W38295   0.831   8.856  10.416
69955W        W38296  21.020   0.260   3.721
69956W        W38297   4.859  38.979  12.490
69957W        W38298  15.117   2.359  11.959
69958W        W38299  40.312  30.981   3.304
69959W        W38300   2.722  27.038   2.772
69960W        W38301  30.470   2.286  11.950
69961W        W38302  20.644  16.654  14.929
69962W        W38303  18.654   2.754  13.353
69963W        W38304  16.228  22.653   2.681
69964W        W38305  39.998  19.661   3.766
69965W        W38306  44.861  41.469   3.320
69966W        W38307  27.469  18.234   0.851
69967W        W38308  38.507   4.852  13.016
69968W        W38309  19.273  37.363   2.383
69969W        W38310  28.088  41.020  12.479
69970W        W38311  15.117  15.589   4.189
69971W        W38312  22.029  34.109   3.335
69972W        W38313  40.421  21.164  12.009
69973W        W38314   6.349  21.257   1.283
69974W        W38315  13.812   7.410   1.263
69975W        W38316   8.680  29.155  10.982
69976W        W38317  15.780  35.015   5.756
69977W        W38318   8.393  11.679  11.469
69978W        W38319   7.401  40.455  13.860
69979W        W38320  26.159  33.008  13.834
69980W        W38321  18.638   1.247  12.051
69981W        W38322  26.480  43.283  10.967
69982W        W38323  21.095   8.834   3.300
69983W        W38324  23.511  35.384   2.370
69984W        W38325  42.409  24.592  12.575
69985W        W38326  20.251  36.882   1.913
69986W        W38327  42.406  23.684  13.999
69987W        W38328  24.661  34.529   3.828
69988W        W38329  39.860   1.404  11.573
69989W        W38330   7.390  24.018  14.439
69990W        W38331  36.860  27.673   3.292
69991W        W38332  40.435  41.952   4.341
69992W        W38333  18.088   0.274   1.298
69993W        W38334  27.955  29.598   3.822
69994W        W38335  22.714  32.107  14.346
69995W        W38336  25.105   0.743   3.380
69996W        W38337  21.536  39.451  10.478
69997W        W38338  10.185  16.696  11.964
69998W        W38339  37.414  17.635  14.833
69999W        W38340  34.401   1.878  12.961
70000W        W38341  36.370  42.281   2.738
70001W        W38342   9.781  17.100  14.377
70002W        W38343  37.973   0.859   4.256
70003W        W38344  34.014  39.064   2.755
70004W        W38345  38.562  15.243   4.294
70005W        W38346   7.186  19.209   0.452
70006W        W38347  20.031   8.405  10.892
70007W        W38348  23.074  16.222  10.463
70008W        W38349   3.286  17.157  14.808
70009W        W38350  17.763  16.296   1.379
70010W        W38351  13.697  10.790   3.153
70011W        W38352  28.118  44.351  14.420
70012W        W38353  30.051  26.560   0.828
70013W        W38354  41.498  11.671   4.306
70014W        W38355  25.974  10.190   0.476
70015W        W38356  37.058  43.314   2.663
70016W        W38357  28.081  25.475   1.871
70017W        W38358   1.791  38.837   0.778
70018W        W38359  21.614  31.566   2.675
70019W        W38360  30.643   7.350  12.408
70020W        W38361  37.417  24.191   1.778
70021W        W38362   3.711  40.871  14.920
70022W        W38363  29.452  17.191   2.283
70023W        W38364  26.997  35.948  10.930
70024W        W38365  15.262  35.981   4.831
70025W        W38366  20.119  19.224   3.279
70026W        W38367  19.640   7.267  13.325
70027W        W38368  31.029  28.176  11.381
70028W        W38369  16.145  17.089  10.632
70029W        W38370   9.790  32.451  12.830
70030W        W38371  19.757  39.995  10.635
70031W        W38372  14.187  35.041   1.283
70032W        W38373  26.471  20.198   3.279
70033W        W38374   8.683  21.048  14.305
70034W        W38375  27.513  17.620  14.961
70035W        W38376   3.425  32.532  11.121
70036W        W38377  17.152   8.374  12.828
70037W        W38378  35.943  13.698   3.789
70038W        W38379   3.346  20.211   2.742
70039W        W38380  35.544  21.180   4.349
70040W        W38381   9.795  26.544  12.966
70041W        W38382  33.908  44.268  14.316
70042W        W38383   8.748  19.589   4.750
70043W        W38384  44.011   6.274   2.333
70044W        W38385   9.316  22.047   4.747
70045W        W38386  34.490  30.015   2.677
70046W        W38387   0.288  38.559  10.562
70047W        W38388  16.713  14.831   2.773
70048W        W38389   1.340   6.323   2.749
70049W        W38390  23.145  41.902  11.539
70050W        W38391  17.141   3.852   0.461
70051W        W38392  26.006  12.197  12.389
70052W        W38393  11.192  10.697  10.608
70053W        W38394   2.407  20.057   2.789
70054W        W38395  16.756  35.411   5.186
70055W        W38396   2.803   2.419   2.892
70056W        W38397   5.402  21.703   3.629
70057W        W38398  17.214  41.306   0.258
70058W        W38399  16.610  39.998   1.828
70059W        W38400   0.929  20.564   4.651
70060W        W38401  28.113  42.797  10.109
70061W        W38402  32.410   5.863  11.608
70062W        W38403   7.266  11.146   1.732
70063W        W38404  32.043  36.421   5.246
70064W        W38405  32.102   9.762   0.852
70065W        W38406  22.105  31.532   1.228
70066W        W38407  23.604   7.690   2.878
70067W        W38408  23.577  14.684  10.519
70068W        W38409   8.331  32.128   0.392
70069W        W38410   6.862   9.177   3.865
70070W        W38411   4.327  33.025   3.214
70071W        W38412  26.650  16.734  13.347
70072W        W38413   4.834  11.140  12.409
70073W        W38414  24.174  29.608   1.922
70074W        W38415  19.093  33.464  11.016
70075W        W38416  24.615  25.179   3.801
70076W        W38417  43.459  28.175   1.436
70077W        W38418  16.618  31.479  13.829
70078W        W38419   9.679  44.806  11.044
70079W        W38420  10.833  41.944  13.916
70080W        W38421  10.222  31.621   2.861
70081W        W38422  44.493   4.314   1.354
70082W        W38423  43.454  41.892  13.793
70083W        W38424   7.733   3.712  12.040
70084W        W38425   2.895  31.942   3.795
70085W        W38426  37.411  22.660   5.087
70086W        W38427   4.427  10.214  10.417
70087W        W38428  21.200  39.318  12.038
70088W        W38429  40.886  43.381   5.309
70089W        W38430  38.371  31.419   4.272
70090W        W38431   2.865  34.517   1.774
70091W        W38432  27.638  18.226  14.360
70092W        W38433  41.330  30.082   4.208
70093W        W38434   8.368  22.195  12.078
70094W        W38435   8.843  33.616  12.973
70095W        W38436  15.154  38.938  10.524
70096W        W38437   4.709   8.760  11.936
70097W        W38438  36.959  14.830  14.993
70098W        W38439  21.621  29.608   2.800
70099W        W38440  37.500  26.993  11.121
70100W        W38441   5.298   8.654  11.588
70101W        W38442  32.616  21.543  13.480
70102W        W38443  27.195  40.003   0.800
70103W        W38444  17.668  32.009   5.211
70104W        W38445  27.589  42.524  13.392
70105W        W38446  10.822  15.231   0.282
70106W        W38447  21.593   3.360   3.708
70107W        W38448  16.134  14.173  11.416
70108W        W38449  42.968  20.617   3.675
70109W        W38450   2.407   4.236  13.000
70110W        W38451  15.663  22.521   3.784
70111W        W38452   1.398  23.665  14.854
70112W        W38453  19.753  20.702   3.690
70113W        W38454  27.600  14.693  12.960
70114W        W38455  28.936   9.871   1.255
70115W        W38456  19.151  35.907   1.352
70116W        W38457  31.138  14.770   2.840
70117W        W38458  24.227  37.433   2.180
70118W        W38459  21.699  22.195   4.808
70119W        W38460   8.690  25.971   0.895
70120W        W38461  27.082   4.902   1.824
70121W        W38462  18.607  41.797   0.780
70122W        W38463  36.534   2.319  13.864
70123W        W38464  14.640   1.300  13.358
70124W        W38465  27.553  36.881  13.851
70125W        W38466  26.016  42.015   4.154
70126W        W38467  40.406  40.975  14.975
70127W        W38468  12.794  37.893   4.204
70128W        W38469  28.963  25.034  11.043
70129W        W38470  11.829  20.693  11.454
70130W        W38471  24.221  42.354  10.922
70131W        W38472  13.262   0.297  10.638
70132W        W38473   1.925  28.578  12.535
70133W        W38474  32.927  17.286  10.923
70134W        W38475   1.247  25.654   1.278
70135W        W38476  33.541   8.749  13.850
70136W        W38477  41.035   3.922  14.349
70137W        W38478   7.343   4.393  13.802
70138W        W38479   7.778   5.883  13.058
70139W        W38480   3.322  27.610   0.267
70140W        W38481  34.902   4.808   0.804
70141W        W38482  40.996   5.851   2.724
70142W        W38483  27.630  27.590  10.424
70143W        W38484   2.771   4.756   4.775
70144W        W38485  31.012  35.966  14.368
70145W        W38486  16.781   7.252   3.671
70146W        W38487  24.635  26.138   2.295
70147W        W38488  21.218  21.596   4.774
70148W        W38489   9.264  23.694   4.640
70149W        W38490   0.412   5.689   4.167
70150W        W38491   9.271  40.548   2.881
70151W        W38492  33.479   5.706  11.390
70152W        W38493  23.678  38.828   1.349
70153W        W38494  41.028  36.864   1.227
70154W        W38495  31.627  24.088   3.724
70155W        W38496  40.981  33.108  11.603
70156W        W38497  13.712  14.621   4.738
70157W        W38498   7.859  26.070  11.007
70158W        W38499  28.129   1.942   0.844
70159W        W38500  21.540  16.687  11.049
70160W        W38501  34.986  42.508  12.020
70161W        W38502   6.896  25.481  12.870
70162W        W38503   5.372  32.568  13.061
70163W        W38504  11.772  11.760  12.907
70164W        W38505  11.225   3.760   0.370
70165W        W38506  26.970   5.850  10.928
70166W        W38507  14.187   5.756   3.185
70167W        W38508  43.332  38.910  11.578
70168W        W38509   2.244  30.518   5.233
70169W        W38510  24.483   9.709  12.009
70170W        W38511   3.747  16.772   5.607
70171W        W38512   2.388  25.038  13.810
70172W        W38513  37.358  38.916   3.676
70173W        W38514  15.622  29.062  10.424
70174W        W38515  42.851   7.675  10.498
70175W        W38516  40.415  18.270  10.544
70176W        W38517   3.714  20.059  12.915
70177W        W38518  12.131  20.706   2.753
70178W        W38519  23.528   0.850  10.434
70179W        W38520  29.109  10.291  10.426
70180W        W38521  16.640  33.962  13.408
70181W        W38522  27.446  19.765  12.916
70182W        W38523   9.660  11.707  10.639
70183W        W38524  35.882  34.581   4.659
70184W        W38525  43.764   2.752  12.864
70185W        W38526  41.459  42.483  13.967
70186W        W38527  15.245  32.486  14.783
70187W        W38528  36.546  17.740   1.366
70188W        W38529  39.431  32.930   0.336
70189W        W38530  20.213   1.746   3.703
70190W        W38531  12.645  27.638  13.958
70191W        W38532  36.467  14.613  11.990
70192W        W38533   8.258  14.811  10.989
70193W        W38534  21.242  13.205   1.348
70194W        W38535  37.551   2.237   3.777
70195W        W38536  22.122   2.814   0.370
70196W        W38537   2.912  38.941   0.346
70197W        W38538  44.972  19.236   5.186
70198W        W38539  18.717  31.052   2.776
70199W        W38540  13.123  29.517   3.220
70200W        W38541  25.583   9.842  13.343
70201W        W38542  41.438  37.576   3.849
70202W        W38543  44.472  33.624  14.859
70203W        W38544  30.610  38.431  10.581
70204W        W38545  16.274  21.041  10.148
70205W        W38546   2.359  43.969   4.255
70206W        W38547  43.799  33.050   0.878
70207W        W38548   7.344  36.084   1.346
70208W        W38549  11.130  19.762  12.018
70209W        W38550   2.314   7.225   1.229
70210W        W38551  20.648  35.885  13.861
70211W        W38552  35.067  19.676   1.841
70212W        W38553  34.108  21.756  10.533
70213W        W38554  44.786  31.629  14.807
70214W        W38555  15.704  21.073   2.202
70215W        W38556  35.484  38.049   1.398
70216W        W38557  34.094  24.008   0.452
70217W        W38558  35.855  25.967   3.723
70218W        W38559  18.769  14.617   0.735
70219W        W38560  24.205  38.892  11.084
70220W        W38561   4.819  31.144   2.795
70221W        W38562  24.636  43.989   3.634
70222W        W38563  16.685  25.107   2.401
70223W        W38564  12.313  27.111   4.615
70224W        W38565  25.645  44.916  10.589
70225W        W38566  34.930  22.227   4.354
70226W        W38567   7.361  36.374   3.265
70227W        W38568  42.412   8.272  11.984
70228W        W38569  13.788  18.224   3.698
70229W        W38570  26.556  14.107  13.875
70230W        W38571  15.187  30.986  13.920
70231W        W38572  13.716  20.579  14.425
70232W        W38573   4.920  15.276  14.440
70233W        W38574  35.057   3.384   1.222
70234W        W38575  29.432  39.354   4.684
70235W        W38576  16.718  19.738  14.938
70236W        W38577   7.865  26.067  11.522
70237W        W38578  14.119   4.724  12.972
70238W        W38579  34.594  27.577   4.800
70239W        W38580  26.134  15.175  13.544
70240W        W38581  39.489  33.548   0.943
70241W        W38582  27.624   4.323   0.308
70242W        W38583   5.905  44.960   2.708
70243W        W38584   0.901  20.696  11.893
70244W        W38585  11.174   4.843   3.847
70245W        W38586  40.924  40.916   2.717
70246W        W38587  31.548  10.871   2.334
70247W        W38588  34.403   4.757   1.844
70248W        W38589  31.982  26.032  14.305
70249W        W38590  40.358  44.294   1.317
70250W        W38591  24.527   3.363   2.214
70251W        W38592  33.056  39.847  12.990
70252W        W38593   5.823  38.944   2.402
70253W        W38594  44.960  15.281  12.434
70254W        W38595  26.987  30.154  10.577
70255W        W38596  41.465  20.113   2.224
70256W        W38597   7.690   0.871   2.702
70257W        W38598  17.174   9.295  10.922
70258W        W38599   0.755  13.175   1.354
70259W        W38600  18.754  28.667  10.631
70260W        W38601  10.306  23.209  14.494
70261W        W38602  43.483  34.916  10.094
70262W        W38603  12.270  38.898  10.028
70263W        W38604   0.854  36.068  13.476
70264W        W38605  26.173  37.490   0.948
70265W        W38606  37.063  18.167  12.411
70266W        W38607  24.640  38.411   1.930
70267W        W38608  36.529   7.821   2.740
70268W        W38609  38.056   5.319  12.847
70269W        W38610   0.436  29.070  13.958
70270W        W38611  28.585   8.331   3.717
70271W        W38612  22.723  10.374   2.357
70272W        W38613   9.328  36.561   2.812
70273W        W38614   0.281   0.389  12.552
70274W        W38615  25.658  30.562  13.948
70275W        W38616  31.408   1.470   3.718
70276W        W38617  44.483  21.251   4.706
70277W        W38618  17.747  12.750   0.242
70278W        W38619   9.689  41.852  14.998
70279W        W38620  15.326   4.380   4.736
70280W        W38621  22.138  41.999  14.344
70281W        W38622  22.090  16.658  13.437
70282W        W38623  19.778   7.227  12.362
70283W        W38624  10.143  38.423  14.792
70284W        W38625   8.195  16.637   0.246
70285W        W38626  21.031  44.308   0.892
70286W        W38627  38.058  29.569  11.061
70287W        W38628  26.658  25.547   4.272
70288W        W38629  18.177  44.461   2.210
70289W        W38630   7.879  24.568   0.242
70290W        W38631  31.122  11.295  13.043
70291W        W38632  11.822  11.205   4.176
70292W        W38633  29.645   2.904  14.430
70293W        W38634  23.114  34.372   4.794
70294W        W38635  13.179  14.329  13.436
70295W        W38636  36.915  12.232  13.038
70296W        W38637  17.293  40.530   0.926
70297W        W38638  29.518  22.250  13.976
70298W        W38639  32.967  28.468  13.805
70299W        W38640  14.266  30.139  13.468
70300W        W38641  11.372  39.440   4.243
70301W        W38642  36.381  29.995  10.432
70302W        W38643   4.889  20.166   3.696
70303W        W38644  39.837  21.667  14.830
70304W        W38645  33.589  44.000  12.371
70305W        W38646  10.292  22.116  14.878
70306W        W38647  40.463  36.559  14.015
70307W        W38648  41.928  13.154  13.321
70308W        W38649  31.433  12.163   0.467
70309W        W38650  35.358  25.154  12.051
70310W        W38651  34.569   2.370  13.421
70311W        W38652  36.498   5.750   2.748
70312W        W38653  10.775  16.754  12.410
70313W        W38654  37.985  34.070  13.049
70314W        W38655  24.605  37.972   3.679
70315W        W38656  10.710  39.543  10.492
70316W        W38657  14.294  27.103  12.834
70317W        W38658  37.985   1.764  11.014
70318W        W38659  16.174  43.405   1.407
70319W        W38660   9.192  26.670   1.393
70320W        W38661  19.627  32.928  11.568
70321W        W38662  29.938  41.013   3.234
70322W        W38663  14.784  19.131  12.519
70323W        W38664   2.402  11.805   4.732
70324W        W38665  34.997  38.420   0.443
70325W        W38666  34.972   3.907  11.576
70326W        W38667   6.278  30.562   1.397
70327W        W38668   1.416  42.916   1.820
70328W        W38669  16.609  23.569  12.980
70329W        W38670  24.549   9.240  14.385
70330W        W38671  40.400  22.160  13.838
70331W        W38672  11.240  34.904  11.922
70332W        W38673  33.599  28.444  13.509
70333W        W38674   6.362  43.849  14.452
70334W        W38675  39.383   1.875   1.244
70335W        W38676  22.519  24.203   0.734
70336W        W38677  31.408  44.444  12.027
70337W        W38678  28.160  25.480   2.189
70338W        W38679   0.425  20.089   1.812
70339W        W38680  21.135   4.347  11.111
70340W        W38681  23.102  10.662   2.313
70341W        W38682   0.390   7.215  12.397
70342W        W38683  23.663   0.436  13.054
70343W        W38684   8.784  26.113   2.889
70344W        W38685  24.111  16.139  12.847
70345W        W38686  42.299  19.651   0.267
70346W        W38687  12.817  18.588  10.990
70347W        W38688   2.305  29.927   3.378
70348W        W38689  25.665   9.803   2.802
70349W        W38690  43.921  19.650  11.972
70350W        W38691  36.090  44.339  11.024
70351W        W38692  21.534  28.022   4.631
70352W        W38693  26.609  33.033   0.786
70353W        W38694  26.583  27.095  12.920
70354W        W38695  34.885   4.281  10.898
70355W        W38696  23.154  28.562   0.842
70356W        W38697   2.443  32.442  11.021
70357W        W38698   0.870   6.362   0.407
70358W        W38699  29.633  30.490   2.214
70359W        W38700  37.063   6.191  14.983
70360W        W38701  16.611  30.045  10.943
70361W        W38702  41.936  36.363   2.364
70362W        W38703  19.754   3.392   4.712
70363W        W38704  26.652  14.284  10.093
70364W        W38705   9.229  24.713  13.850
70365W        W38706  14.332  22.051  11.006
70366W        W38707   9.189  20.071  14.025
70367W        W38708  43.374   5.748  13.942
70368W        W38709  27.055  14.267  10.631
70369W        W38710  11.301  44.882  12.358
70370W        W38711  34.433   8.691   4.203
70371W        W38712  13.655  13.721   0.913
70372W        W38713   5.733   3.323   4.717
70373W        W38714  10.826  27.963   2.749
70374W        W38715  11.842  43.832  11.908
70375W        W38716  14.797  20.257  12.915
70376W        W38717  29.535  12.251   4.250
70377W        W38718   1.290  12.813   2.197
70378W        W38719  26.469  14.214  13.016
70379W        W38720  31.530  41.458  10.599
70380W        W38721  16.100  21.511  11.866
70381W        W38722  37.406   3.435  12.418
70382W        W38723  12.715   1.467   0.738
70383W        W38724   4.877  14.172   2.273
70384W        W38725  19.273  32.061  14.853
70385W        W38726  34.077  26.625   2.887
70386W        W38727  34.991  34.903   2.684
70387W        W38728  42.944  15.683   3.287
70388W        W38729  35.031   2.837  13.544
70389W        W38730   1.306  44.876  10.540
70390W        W38731  15.184  28.001   0.820
70391W        W38732  21.051  42.488  14.911
70392W        W38733  25.175   5.367  14.017
70393W        W38734  17.137  12.198  14.898
70394W        W38735  26.153  40.801  13.945
70395W        W38736   6.215  36.002  13.362
70396W        W38737  38.997   1.892   5.095
70397W        W38738  31.017  13.208   1.337
70398W        W38739  41.429  13.817   0.271
70399W        W38740  13.340  34.565  11.115
70400W        W38741  38.421   8.236   4.226
70401W        W38742  12.674  18.202  13.396
70402W        W38743   9.373  24.212  14.496
70403W        W38744  24.713  14.140   1.303
70404W        W38745  27.095  38.557  13.891
70405W        W38746  33.951  38.543   4.799
70406W        W38747  35.004   1.424  10.918
70407W        W38748  27.153  33.621   4.264
70408W        W38749  14.326  24.173   4.742
70409W        W38750   6.835  40.377   3.370
70410W        W38751  13.747  34.468  11.595
70411W        W38752  43.446  26.073   2.828
70412W        W38753  44.441  43.021  10.902
70413W        W38754   9.277   4.929   9.997
70414W        W38755  19.593  16.599  10.596
70415W        W38756  36.548  41.483  11.480
70416W        W38757  22.690  35.919   5.173
70417W        W38758   4.893  37.347   1.931
70418W        W38759  29.523  23.053   0.906
70419W        W38760  17.772  42.954  10.505
70420W        W38761  36.085  29.138  12.014
70421W        W38762   0.310  11.234  12.073
70422W        W38763  22.066  19.543  11.970
70423W        W38764  15.744  22.534  13.481
70424W        W38765  31.152   8.256   2.773
70425W        W38766  28.449  20.091  13.858
70426W        W38767  43.463  38.406   1.918
70427W        W38768   4.293  21.263  12.403
70428W        W38769  27.687  41.356  11.511
70429W        W38770   9.775  40.505   0.431
70430W        W38771   8.316  37.897  12.844
70431W        W38772   8.704  40.934  11.384
70432W        W38773   2.418  25.541   4.183
70433W        W38774  29.926  27.089  14.502
70434W        W38775  26.184  10.167  11.905
70435W        W38776  12.665  16.675   4.279
70436W        W38777  30.940  16.156  10.902
70437W        W38778  17.082  25.084   0.947
70438W        W38779  40.398  22.527   4.342
70439W        W38780  13.151   4.754   2.728
70440W        W38781  13.163  40.918   1.330
70441W        W38782  27.042  25.150   4.727
70442W        W38783  38.507   1.285   3.364
70443W        W38784  27.603   4.747  14.372
70444W        W38785  43.293  44.003  11.096
70445W        W38786  14.101   8.696   4.795
70446W        W38787  41.033  28.978   3.699
70447W        W38788  13.617  22.037   2.797
70448W        W38789   2.776  11.226  11.035
70449W        W38790  12.212   2.311  11.022
70450W        W38791  27.108   8.701  10.568
70451W        W38792  42.476   2.402  14.324
70452W        W38793   4.439  13.636  13.505
70453W        W38794  18.059  41.316  14.001
70454W        W38795   0.254  34.981   1.882
70455W        W38796   0.887  26.097  11.097
70456W        W38797  13.777   8.277   0.404
70457W        W38798  11.715   5.900   0.328
70458W        W38799  27.657  14.611   3.709
70459W        W38800   1.853  36.008  11.544
70460W        W38801   6.847  31.424   3.179
70461W        W38802   2.911  22.114  12.458
70462W        W38803   5.361  13.322  10.612
70463W        W38804  19.054  21.619   1.860
70464W        W38805  31.002   8.747  13.892
70465W        W38806  33.069  12.118  10.506
70466W        W38807  35.986  11.687   4.607
70467W        W38808   2.907   0.793   3.372
70468W        W38809   4.702  11.810   5.179
70469W        W38810  35.075  15.313   4.735
70470W        W38811  23.566  34.484  12.566
70471W        W38812  13.824  44.886   0.368
70472W        W38813  28.965  43.349  12.964
70473W        W38814  32.116  27.619   1.799
70474W        W38815  30.145  10.306  13.007
70475W        W38816  41.012   6.347  12.896
70476W        W38817  28.143   0.765  10.943
70477W        W38818   6.322  14.760   3.263
70478W        W38819  40.333   5.379  11.975
70479W        W38820  13.650  24.018   0.811
70480W        W38821   7.351  22.027  13.423
70481W        W38822  26.155  14.201  10.539
70482W        W38823  13.107  35.364  14.370
70483W        W38824  27.019  32.141  12.082
70484W        W38825  35.516  20.706  13.902
70485W        W38826  38.076  27.587   3.631
70486W        W38827   8.697  18.752  11.969
70487W        W38828   9.227  41.378   3.711
70488W        W38829   3.451  33.966  11.003
70489W        W38830  19.135   5.207  11.047
70490W        W38831  38.966   9.663   5.309
70491W        W38832   2.310  10.365   0.943
70492W        W38833  27.500  18.747  12.489
70493W        W38834  33.037  36.365  12.434
70494W        W38835   7.785  38.983   1.891
70495W        W38836  36.863  41.362   0.477
70496W        W38837   0.829  25.207  10.104
70497W        W38838  13.343  40.437   1.334
70498W        W38839  19.727  32.532   0.791
70499W        W38840  10.265  15.804   4.167
70500W        W38841  35.092   7.250   2.852
70501W        W38842   2.389  17.267  10.481
70502W        W38843  17.171  39.400   0.332
70503W        W38844  23.171  38.860   4.325
70504W        W38845   6.227  39.507   2.419
70505W        W38846  28.936  42.483  13.362
70506W        W38847  13.794  12.841   0.400
70507W        W38848   9.261   8.869  12.075
70508W        W38849  24.599  19.627   3.278
70509W        W38850  29.070  21.018  13.888
70510W        W38851  42.921   8.679   1.864
70511W        W38852  18.698  39.949  11.526
70512W        W38853  40.348  29.618   2.318
70513W        W38854   8.175   3.393  12.012
70514W        W38855  43.774  30.579  12.526
70515W        W38856  18.635  37.398  12.918
70516W        W38857  13.137  10.380  13.362
70517W        W38858  18.262  19.599  11.503
70518W        W38859  38.488   9.758   2.359
70519W        W38860  16.143  40.363   3.183
70520W        W38861   5.309   7.362   4.250
70521W        W38862  27.559  16.255   3.779
70522W        W38863  14.294  34.481   4.633
70523W        W38864  15.096  16.207   2.867
70524W        W38865   9.368  14.161  12.930
70525W        W38866  19.105  10.269   2.788
70526W        W38867  30.999  26.013  12.055
70527W        W38868  38.988  39.402  12.448
70528W        W38869  25.474  18.624  14.938
70529W        W38870  31.966  42.511   2.404
70530W        W38871  23.603   3.817  12.062
70531W        W38872  17.557   0.777  10.482
70532W        W38873   6.841  19.135   4.324
70533W        W38874  43.376  41.861  12.401
70534W        W38875  42.874  28.583  13.332
70535W        W38876  36.457  16.795   1.300
70536W        W38877  17.072  44.932  13.506
70537W        W38878   1.890   7.307  11.442
70538W        W38879  12.747  44.314  13.378
70539W        W38880  26.965  17.233   4.290
70540W        W38881  22.558  35.882  10.096
70541W        W38882  23.669  36.890  14.874
70542W        W38883  27.577  20.730   4.748
70543W        W38884   0.849  38.910  11.879
70544W        W38885  43.907  42.859  11.384
70545W        W38886  43.975   3.762   1.828
70546W        W38887  26.463  37.342   4.317
70547W        W38888  35.434  35.583  14.415
70548W        W38889  14.757  42.421   0.457
70549W        W38890   3.771  17.116   9.505
70550W        W38891  31.421  44.370  12.412
70551W        W38892  29.459  40.341   2.860
70552W        W38893  22.009  11.207   4.806
70553W        W38894  27.570   0.362   3.732
70554W        W38895  40.983   7.849  13.909
70555W        W38896  29.051  26.080  14.854
70556W        W38897   0.830  26.560  14.327
70557W        W38898  35.390  21.694   2.374
70558W        W38899  29.525  29.480  13.396
70559W        W38900   9.154  25.647  12.991
70560W        W38901  26.637  44.972   4.708
70561W        W38902  18.127  11.858  14.918
70562W        W38903  12.618  35.552   3.350
70563W        W38904  14.701   7.198  12.945
70564W        W38905  30.998  39.908  11.586
70565W        W38906   1.955  12.614   2.821
70566W        W38907  32.138  27.045   4.157
70567W        W38908   0.317  22.689  10.445
70568W        W38909  34.494  24.048  12.853
70569W        W38910  16.736   1.883   3.764
70570W        W38911  21.640  36.054  10.994
70571W        W38912  26.188  37.045  13.516
70572W        W38913  35.092   0.312   2.779
70573W        W38914  25.541   4.211   4.708
70574W        W38915  38.006  10.641  11.413
70575W        W38916   7.327   8.309  14.799
70576W        W38917  23.189  18.156  11.387
70577W        W38918  22.132   8.881   0.874
70578W        W38919  22.107  33.445  12.049
70579W        W38920  30.480  30.637  12.472
70580W        W38921  42.501   1.271  12.954
70581W        W38922  34.996  28.095  14.405
70582W        W38923  31.026  23.138  12.547
70583W        W38924   6.411   0.913  14.378
70584W        W38925  17.660  43.301  13.039
70585W        W38926  17.074  14.303   1.707
70586W        W38927  42.434   3.357   3.825
70587W        W38928  23.717  39.437  12.557
70588W        W38929  41.435  42.326   0.803
70589W        W38930  24.102  21.080   2.789
70590W        W38931  19.774  36.961  11.504
70591W        W38932  42.808  42.879   2.331
70592W        W38933   7.190  13.347   4.345
70593W        W38934   9.797   7.412   3.216
70594W        W38935   5.320  24.613   4.127
70595W        W38936   1.387   0.929   1.847
70596W        W38937  33.964  40.462  11.855
70597W        W38938  19.143  25.642  10.992
70598W        W38939  32.403  38.952  10.980
70599W        W38940  25.504  44.291   1.801
70600W        W38941  15.670   3.393  10.119
70601W        W38942   6.230   0.249   5.308
70602W        W38943   1.787  36.529   3.354
70603W        W38944  32.041  23.219   1.355
70604W        W38945   1.247  24.606   1.448
70605W        W38946  38.487  27.538   2.663
70606W        W38947  13.631  14.239   3.748
70607W        W38948  28.175  29.637   4.143
70608W        W38949  16.269   9.807   0.269
70609W        W38950  31.907  39.835   4.794
70610W        W38951  20.693  30.923   0.370
70611W        W38952  27.687  37.483   3.738
70612W        W38953  12.286  42.971   3.291
70613W        W38954   2.746   5.926   3.290
70614W        W38955   5.431  23.214  11.568
70615W        W38956  26.017  11.126   4.245
70616W        W38957  39.926  20.186  11.051
70617W        W38958  40.445  27.980  13.408
70618W        W38959  27.673  26.979  10.091
70619W        W38960  31.594  18.789   1.873
70620W        W38961  29.047  32.572   3.355
70621W        W38962  36.862  30.551  10.507
70622W        W38963  41.346  44.412   1.257
70623W        W38964   6.319  10.722   2.874
70624W        W38965   6.760  38.404   0.278
70625W        W38966   1.742  37.453  10.568
70626W        W38967  32.494  42.898   3.742
70627W        W38968  12.268  18.249   3.761
70628W        W38969   3.428  36.007  11.490
70629W        W38970  43.796  12.616   4.636
70630W        W38971  40.878  24.032   2.881
70631W        W38972  33.475  37.013  10.630
70632W        W38973  20.114   4.447   2.237
70633W        W38974  27.014  11.815  11.499
70634W        W38975   0.785  21.145   2.231
70635W        W38976   2.855  39.960   2.762
70636W        W38977   8.360  14.606   1.769
70637W        W38978  42.830  35.553  11.408
70638W        W38979  44.415  40.982  13.507
70639W        W38980  29.145  31.001   2.747
70640W        W38981  34.548  30.958   2.248
70641W        W38982  16.193  16.291   3.341
70642W        W38983   3.372   3.282   5.139
70643W        W38984  28.671  43.388   1.776
70644W        W38985   0.364  19.058  13.401
70645W        W38986  27.447   7.415   0.796
70646W        W38987  39.368  43.898  12.466
70647W        W38988  17.152  15.628  13.972
70648W        W38989  39.413  33.958   0.260
70649W        W38990  28.143  39.014  14.032
70650W        W38991  40.849  38.040  10.931
70651W        W38992  13.110  22.099   4.623
70652W        W38993  13.227  35.905  11.588
70653W        W38994  33.080  41.860  13.876
70654W        W38995   3.419  16.084  12.072
70655W        W38996  17.195  12.661   2.288
70656W        W38997   1.305   2.371  13.490
70657W        W38998  23.542  37.075   1.356
70658W        W38999  34.909  29.585   0.307
70659W        W39000  15.213  38.929  13.468
70660W        W39001   5.706  10.776  13.012
70661W        W39002  37.980  26.540  13.514
70662W        W39003  30.946  11.629   1.847
70663W        W39004  43.501  11.847   3.232
70664W        W39005  39.897  22.224   0.851
70665W        W39006  30.994   3.364   5.168
70666W        W39007   4.898   6.842   2.865
70667W        W39008  26.653  39.344  12.841
70668W        W39009  12.741   9.799   3.671
70669W        W39010  36.940   9.254  11.486
70670W        W39011  36.507   1.374  14.492
70671W        W39012   2.881  11.175   1.736
70672W        W39013  42.525  40.823   0.762
70673W        W39014  29.055   7.729  14.277
70674W        W39015  28.604  40.912  10.951
70675W        W39016  31.413   0.322  13.458
70676W        W39017  17.779  11.342   4.636
70677W        W39018  43.850  35.366   2.901
70678W        W39019   6.325  30.499   3.222
70679W        W39020   1.736   0.893   3.739
70680W        W39021  11.714   8.764  12.484
70681W        W39022   8.762  31.106   5.121
70682W        W39023  37.075  34.881   2.293
70683W        W39024   8.670   6.762  13.903
70684W        W39025   9.830  26.130   3.213
70685W        W39026  16.212   0.304  10.430
70686W        W39027   2.422  32.031   3.204
70687W        W39028   7.845  29.071   1.224
70688W        W39029  34.080  21.251   3.229
70689W        W39030   1.408  28.089   4.213
70690W        W39031   2.356  10.742  14.403
70691W        W39032   4.393  36.081  13.524
70692W        W39033  44.754  30.065  11.575
70693W        W39034  31.435   6.227  14.785
70694W        W39035  32.542  19.126   3.173
70695W        W39036  40.037  18.229  11.393
70696W        W39037  25.036  32.585  10.919
70697W        W39038  10.237   2.834  10.934
70698W        W39039  26.616  33.394   1.329
70699W        W39040  15.161  32.055   1.772
70700W        W39041  42.894  16.183  14.417
70701W        W39042  30.441   4.430  11.913
70702W        W39043  32.526   6.301   1.899
70703W        W39044  44.336  33.537  10.404
70704W        W39045  25.662  35.866   2.265
70705W        W39046  42.904  26.098   4.180
70706W        W39047  19.126   1.369  12.426
70707W        W39048  24.160  12.844  12.909
70708W        W39049  12.778  44.808   3.249
70709W        W39050  39.950   3.872  10.521
70710W        W39051  30.926  32.936   2.386
70711W        W39052  15.194  20.047  12.440
70712W        W39053   5.818  37.372   3.830
70713W        W39054  44.455  12.134   0.848
70714W        W39055  26.557  37.033   4.693
70715W        W39056  12.736  11.306  11.081
70716W        W39057  20.539  38.979  14.015
70717W        W39058  40.429   6.354   4.181
70718W        W39059   0.275  30.164   0.358
70719W        W39060  44.765  44.880  12.868
70720W        W39061  34.876   5.277  14.985
70721W        W39062  28.473  30.612  11.546
70722W        W39063  34.383  12.767  14.379
70723W        W39064   0.467  15.322   4.602
70724W        W39065   6.308  36.960   4.341
70725W        W39066  40.934  18.680   3.379
70726W        W39067  44.272  44.460  13.896
70727W        W39068  31.437   7.387   2.267
70728W        W39069   0.494  16.715   2.709
70729W        W39070  27.949   5.738  13.887
70730W        W39071  19.613  18.767  10.891
70731W        W39072  26.138  23.517  14.932
70732W        W39073   1.734  14.803  12.394
70733W        W39074  32.613  38.494  13.880
70734W        W39075  38.835  10.661   2.757
70735W        W39076  29.950  29.599   2.765
70736W        W39077  33.391  40.492   1.227
70737W        W39078   2.421  20.731   4.724
70738W        W39079  39.433  35.976   4.633
70739W        W39080  37.846   7.762  13.978
70740W        W39081  40.023  22.746   0.468
70741W        W39082  41.899  40.011   1.739
70742W        W39083  17.786   1.780  12.060
70743W        W39084  40.314   0.334   1.229
70744W        W39085  43.411  31.117  14.323
70745W        W39086  29.075  39.448  12.504
70746W        W39087  11.855  27.456  13.055
70747W        W39088  31.494   3.229  13.980
70748W        W39089  30.427  37.905  11.558
70749W        W39090  40.383   0.862  14.917
70750W        W39091  37.005  12.727  11.009
70751W        W39092   9.745  14.692   0.831
70752W        W39093  11.193  13.302  11.109
70753W        W39094  15.261  30.133   4.765
70754W        W39095  37.354  30.163   0.331
70755W        W39096   3.369   4.418  11.471
70756W        W39097  39.474  15.099   0.967
70757W        W39098  22.019  22.667   0.798
70758W        W39099  11.737  33.576  10.406
70759W        W39100  19.249  37.361   0.772
70760W        W39101  39.397  23.027  14.848
70761W        W39102   9.807  14.727  14.455
70762W        W39103   6.318  19.277   2.304
70763W        W39104  31.566   7.719  11.429
70764W        W39105  30.015  13.846  10.446
70765W        W39106  12.739  36.350   1.877
70766W        W39107  26.468  35.061  10.608
70767W        W39108  26.701  26.158   5.704
70768W        W39109  40.453  10.747   0.840
70769W        W39110  39.898  39.422   0.903
70770W        W39111  27.639  12.163   0.950
70771W        W39112   7.738   9.861   2.280
70772W        W39113   3.831  26.143   0.307
70773W        W39114  40.955  41.369  12.344
70774W        W39115  17.686  34.395  13.383
70775W        W39116  16.192  29.077  12.520
70776W        W39117  24.530  27.126   0.358
70777W        W39118  21.103  36.476   1.756
70778W        W39119  21.122  14.660   4.775
70779W        W39120   9.332   9.277  14.891
70780W        W39121  43.951   9.284  13.414
70781W        W39122  33.572  28.095  10.932
70782W        W39123  21.529   0.859   2.722
70783W        W39124  20.685   7.355  12.991
70784W        W39125  37.942  15.670  12.556
70785W        W39126  20.628   7.776   1.228
70786W        W39127  12.311  38.332   5.624
70787W        W39128  32.976  21.064  10.017
70788W        W39129  13.313  31.593  10.469
70789W        W39130  15.596  16.581  13.349
70790W        W39131   5.860  37.452   9.959
70791W        W39132   6.883  18.062   4.263
70792W        W39133  29.481   8.283   1.924
70793W        W39134  44.778  12.362   0.755
70794W        W39135  20.162   2.918   4.287
70795W        W39136  21.741  23.636   4.275
70796W        W39137  43.827  39.008  14.410
70797W        W39138  25.014   6.246   0.430
70798W        W39139  32.575  15.126   1.810
70799W        W39140  28.666  19.104   2.811
70800W        W39141  38.429  39.326  10.533
70801W        W39142   8.315  26.646   0.927
70802W        W39143  36.530  42.494  13.861
70803W        W39144  26.481  30.464  13.440
70804W        W39145  20.604  23.723   2.272
70805W        W39146  18.067  21.620   5.624
70806W        W39147   5.241  42.781  10.644
70807W        W39148  33.617  21.515  11.113
70808W        W39149  17.798  42.984  11.980
70809W        W39150  39.560  19.653  13.887
70810W        W39151  42.938  40.969  11.570
70811W        W39152  10.817  23.213   3.667
70812W        W39153  19.205  18.727  10.941
70813W        W39154  37.031   6.740   4.349
70814W        W39155  20.753  41.390  12.340
70815W        W39156  22.641  28.035  11.545
70816W        W39157  39.967  24.993  14.317
70817W        W39158  33.066  31.032  12.068
70818W        W39159  27.504  40.860   3.351
70819W        W39160   3.263  28.186  11.934
70820W        W39161  35.098  20.188  12.501
70821W        W39162  31.081  15.718  12.424
70822W        W39163  43.899   7.357   2.852
70823W        W39164  36.075  32.031  14.422
70824W        W39165   0.802  41.798  12.856
70825W        W39166   3.247   2.229   1.358
70826W        W39167   0.743   0.454   0.449
70827W        W39168  28.185  37.910  12.965
70828W        W39169  30.913  25.051   1.762
70829W        W39170  17.120  39.961   0.278
70830W        W39171  36.047  28.562   3.330
70831W        W39172   9.749  16.695   0.818
70832W        W39173   1.871  35.404   0.413
70833W        W39174  42.468  31.592  12.494
70834W        W39175  31.537   5.744  13.440
70835W        W39176  36.885  32.892  13.972
70836W        W39177  18.177  37.401   2.217
70837W        W39178  32.569   6.184  10.009
70838W        W39179  30.578  18.608  11.401
70839W        W39180  29.138  38.055   1.354
70840W        W39181  40.031  33.578   2.837
70841W        W39182   2.447  24.650  10.511
70842W        W39183   3.712  43.909   2.383
70843W        W39184  29.081  32.536  13.399
70844W        W39185   5.383  18.070   4.290
70845W        W39186   8.207  39.336  11.391
70846W        W39187  24.608  30.987   2.780
70847W        W39188   3.798  43.312   3.272
70848W        W39189  11.258  42.855   5.241
70849W        W39190  18.550  20.746  14.355
70850W        W39191   1.952  24.120   1.258
70851W        W39192   5.271  21.536  12.009
70852W        W39193   3.725  17.099  13.853
70853W        W39194  39.999  30.454  12.410
70854W        W39195  39.517  39.010   3.273
70855W        W39196  13.778  42.805   4.166
70856W        W39197  38.915  24.640  11.011
70857W        W39198  16.782  32.614   0.859
70858W        W39199   3.269  30.970   4.754
70859W        W39200  43.461   1.771  11.503
70860W        W39201  43.946  42.830  12.576
70861W        W39202  31.554  30.656   2.185
70862W        W39203  43.769  37.380  13.336
70863W        W39204  41.384   2.253   3.197
70864W        W39205   1.325  26.083   3.754
70865W        W39206  44.994  13.351   0.313
70866W        W39207   1.416  36.547   3.859
70867W        W39208   4.749  31.953  12.952
70868W        W39209  37.404  41.788  14.933
70869W        W39210   8.295  10.688   4.126
70870W        W39211  20.199  18.232   3.373
70871W        W39212  36.997  21.178  10.633
70872W        W39213  39.410   7.264  14.827
70873W        W39214  31.627  10.813   3.184
70874W        W39215  26.517  14.734  13.821
70875W        W39216  14.188  42.777   4.220
70876W        W39217  34.514  34.394  10.516
70877W        W39218  30.138  15.237  12.045
70878W        W39219  11.631  37.535  11.021
70879W        W39220  32.452  21.617  12.505
70880W        W39221  17.721  25.620   2.238
70881W        W39222  37.365   7.909  12.464
70882W        W39223  32.133  15.313  11.063
70883W        W39224  16.710  35.070   4.827
70884W        W39225  39.511  37.358   0.372
70885W        W39226  44.772  39.022   3.201
70886W        W39227  37.371   8.842   0.871
70887W        W39228  36.074  42.024   4.749
70888W        W39229  24.684  31.522   1.847
70889W        W39230  21.054  20.146  11.529
70890W        W39231  20.242   4.722   4.638
70891W        W39232  12.152  18.707  14.409
70892W        W39233  30.137   6.901  11.431
70893W        W39234  41.329  42.820   0.847
70894W        W39235  13.339  23.534   1.841
70895W        W39236  29.618   5.353  13.050
70896W        W39237  40.545   7.343   2.327
70897W        W39238  29.145  43.355  11.612
70898W        W39239   6.192  17.711   2.689
70899W        W39240  19.217  43.798  11.539
70900W        W39241  31.585   7.261  12.950
70901W        W39242   3.956  39.514  13.503
70902W        W39243  44.950   0.962  11.123
70903W        W39244  40.428  19.743   4.350
70904W        W39245  35.019  14.200   0.399
70905W        W39246  28.948  38.395   3.229
70906W        W39247   3.261  19.621   3.186
70907W        W39248  22.737  43.987  14.955
70908W        W39249  33.906  31.118  13.387
70909W        W39250  33.971   2.454   1.699
70910W        W39251  27.191  20.701  11.379
70911W        W39252  22.726   4.737  11.376
70912W        W39253  29.441  44.376   4.288
70913W        W39254  33.525  29.541  11.441
70914W        W39255  11.729  23.710  13.925
70915W        W39256  21.097  28.963   0.335
70916W        W39257  25.652  25.035   2.179
70917W        W39258  23.025  20.594  12.043
70918W        W39259  30.121  38.568   2.785
70919W        W39260  12.830  14.673  11.092
70920W        W39261   0.383  27.628   3.152
70921W        W39262  20.109   9.251   4.178
70922W        W39263   1.755  23.103  12.957
70923W        W39264  32.066  27.016  13.844
70924W        W39265  16.771  23.058   2.201
70925W        W39266   9.775  22.013   0.837
70926W        W39267  42.026  10.360   0.789
70927W        W39268  29.466  23.059   3.730
70928W        W39269  33.494  43.488  14.029
70929W        W39270   9.860  37.865   4.826
70930W        W39271  11.754  21.564   3.813
70931W        W39272  18.252   2.390   3.188
70932W        W39273  30.623  42.320  14.478
70933W        W39274  17.652  32.599   4.675
70934W        W39275  44.454   5.730  12.365
70935W        W39276  10.196  18.760   3.297
70936W        W39277  28.435  28.554   4.729
70937W        W39278   8.365  26.973   3.811
70938W        W39279  15.757  19.043   2.732
70939W        W39280  36.902  15.731   1.236
70940W        W39281  17.633   0.895  12.088
70941W        W39282  41.484  37.378   1.259
70942W        W39283  44.422  42.486  10.522
70943W        W39284  12.246   4.401  14.895
70944W        W39285   1.409  23.209   3.217
70945W        W39286   6.350   9.805  13.957
70946W        W39287  31.118  36.906  13.470
70947W        W39288  23.536  20.226  10.619
70948W        W39289  25.510  27.645   4.160
70949W        W39290  10.204  33.962  13.012
70950W        W39291   4.400  17.304  13.359
70951W        W39292  35.963  43.816   4.609
70952W        W39293  31.435  40.449  11.961
70953W        W39294  38.460  31.480   3.681
70954W        W39295  28.090   6.384  13.861
70955W        W39296  25.011  19.196   5.683
70956W        W39297  44.288  13.253  14.494
70957W        W39298  12.722   6.281  11.466
70958W        W39299  20.550  26.006  14.450
70959W        W39300   2.822  35.486  13.480
70960W        W39301  29.924   9.738   1.838
70961W        W39302  28.177  10.789  12.013
70962W        W39303  37.014   8.399  11.856
70963W        W39304  13.219   9.254  10.492
70964W        W39305   5.850  43.857  12.947
70965W        W39306  25.099  38.512  10.544
70966W        W39307  40.322  21.706  12.091
70967W        W39308  25.593  41.922  12.071
70968W        W39309  12.341  43.433  12.924
70969W        W39310   2.296  35.996  12.981
70970W        W39311  21.053  28.155  12.895
70971W        W39312  32.583  21.238   1.878
70972W        W39313  28.964  17.788   0.842
70973W        W39314  12.140  31.060  10.990
70974W        W39315  30.636   7.229  13.850
70975W        W39316  21.742  41.303   5.145
70976W        W39317  19.671  22.616   3.738
70977W        W39318  18.639  29.470  14.003
70978W        W39319  25.654  13.795  10.470
70979W        W39320  40.524   2.889  10.551
70980W        W39321   5.690  41.902  14.854
70981W        W39322  20.583  43.478   1.778
70982W        W39323  35.592  38.351   3.259
70983W        W39324   3.383   8.212   4.140
70984W        W39325  30.960   3.281   3.667
70985W        W39326  39.388  35.471   4.618
70986W        W39327  33.505  24.529   1.911
70987W        W39328  39.381  21.208   4.761
70988W        W39329  12.256  39.316  12.979
70989W        W39330   9.379  44.405   4.343
70990W        W39331  36.999  30.953  11.116
70991W        W39332   6.871  12.844  14.774
70992W        W39333  11.201   5.326   0.298
70993W        W39334  31.149  12.743   4.335
70994W        W39335  39.383  31.126  12.452
70995W        W39336  13.120  15.105  12.848
70996W        W39337   7.884  16.720   4.219
70997W        W39338  43.420  43.873   0.910
70998W        W39339  43.275  22.562  10.991
70999W        W39340  24.687  38.507  11.067
71000W        W39341  22.124   0.984  11.592
71001W        W39342  28.062  28.612  11.587
71002W        W39343   8.669  35.107   3.685
71003W        W39344  37.854  16.314   0.855
71004W        W39345  21.648  40.391  14.307
71005W        W39346  10.657   4.367  10.451
71006W        W39347  32.433   9.820   3.205
71007W        W39348   4.367   0.902  11.458
71008W        W39349  40.358  40.455   3.249
71009W        W39350  34.950  24.681   3.237
71010W        W39351  27.672  11.789  13.942
71011W        W39352  19.255  37.541   3.663
71012W        W39353   4.211  15.093  14.499
71013W        W39354   2.790  36.007   3.210
71014W        W39355   3.875   2.258  12.071
71015W        W39356  44.939  29.545  13.454
71016W        W39357   4.714  12.782   0.285
71017W        W39358  42.776   9.324   1.780
71018W        W39359  33.885  39.453   0.347
71019W        W39360  41.293  19.575  12.851
71020W        W39361  10.268  32.962   4.174
71021W        W39362   4.822  40.909   4.262
71022W        W39363  14.619  39.534   2.744
71023W        W39364   4.243  16.160   1.830
71024W        W39365  27.691  35.554   4.787
71025W        W39366  20.053  14.822   4.133
71026W        W39367   6.895  41.860   4.639
71027W        W39368  44.828   9.780  12.045
71028W        W39369  24.990  39.915   2.780
71029W        W39370  34.897  25.192   2.720
71030W        W39371   0.877  42.010  11.888
71031W        W39372   6.391   4.812  14.939
71032W        W39373  20.727  37.994  12.022
71033W        W39374  36.850   5.382  13.022
71034W        W39375  34.892   1.303  14.844
71035W        W39376  24.581  41.863   1.888
71036W        W39377  21.068  14.147  10.948
71037W        W39378  29.144  35.025   0.849
71038W        W39379  12.340  38.045  11.046
71039W        W39380  12.257  40.802   4.327
71040W        W39381   4.283  16.259   3.812
71041W        W39382   4.720   9.742   0.273
71042W        W39383  39.020  29.665   0.306
71043W        W39384  44.801   2.837   2.399
71044W        W39385  33.599  42.999  11.422
71045W        W39386  26.646  42.435   2.854
71046W        W39387   0.343  11.245  13.974
71047W        W39388  19.694  31.041   0.459
71048W        W39389  29.502  15.776  12.556
71049W        W39390  44.808   2.450   4.219
71050W        W39391  28.590  28.144  13.039
71051W        W39392  29.023  44.371   1.801
71052W        W39393   9.354  21.200  14.376
71053W        W39394   4.750  15.770   1.855
71054W        W39395  44.414  18.772  14.277
71055W        W39396  39.008  38.978   5.253
71056W        W39397  12.118  41.526   2.836
71057W        W39398  39.936  24.004   2.699
71058W        W39399  32.901  26.001   2.846
71059W        W39400  15.618  37.974   4.241
71060W        W39401  16.774  43.775   0.858
71061W        W39402  41.338  24.211  10.891
71062W        W39403  11.767  25.508  14.323
71063W        W39404  11.725  24.190   5.310
71064W        W39405  32.425   4.837  12.529
71065W        W39406   9.689   5.874  12.971
71066W        W39407  43.279  39.359  11.867
71067W        W39408  28.447  24.572   0.282
71068W        W39409  22.626  15.725  10.588
71069W        W39410  14.717  31.968  12.517
71070W        W39411  11.726   4.309  11.375
71071W        W39412  12.221  25.128  12.010
71072W        W39413   4.908  25.711  11.396
71073W        W39414  33.482  18.125  12.445
71074W        W39415  15.168  34.494   4.151
71075W        W39416  10.864  33.601   4.756
71076W        W39417  25.713  26.149   4.756
71077W        W39418  31.937  38.062  10.589
71078W        W39419  32.570  23.501  12.919
71079W        W39420   0.481  17.211   5.156
71080W        W39421  19.202   3.819   0.263
71081W        W39422  21.560  18.676  14.287
71082W        W39423  31.929   6.789   1.927
71083W        W39424  17.781  12.347   1.769
71084W        W39425   1.401  12.690  12.431
71085W        W39426  39.013  37.456   1.263
71086W        W39427   4.220  32.454   2.808
71087W        W39428   0.952  15.580   1.908
71088W        W39429  16.124   5.316   4.678
71089W        W39430  41.011   7.335   2.897
71090W        W39431  44.457  21.129   5.647
71091W        W39432   4.795  31.009   4.714
71092W        W39433  43.412   7.241  13.057
71093W        W39434  17.576   0.842   1.877
71094W        W39435  35.444  38.422  10.968
71095W        W39436  39.996   0.351   0.789
71096W        W39437   5.871  19.214   0.461
71097W        W39438   4.263  24.203   1.445
71098W        W39439   0.944   1.794   0.356
71099W        W39440  15.162   1.429  14.508
71100W        W39441  44.950  35.503   3.857
71101W        W39442  23.578  11.216   3.157
71102W        W39443   1.352  37.860   1.890
71103W        W39444  39.812   2.355   2.797
71104W        W39445  31.991  14.333   3.152
71105W        W39446  36.544  39.896  10.640
71106W        W39447  15.255  32.393   4.332
71107W        W39448  24.166  24.053   2.843
71108W        W39449  32.885  10.869  11.379
71109W        W39450  33.612   7.317  14.450
71110W        W39451  27.637  27.589   1.416
71111W        W39452   8.813  23.615   9.995
71112W        W39453  31.113   1.929  12.870
71113W        W39454   5.700   0.974  14.918
71114W        W39455  25.173  14.621   1.779
71115W        W39456  25.128   8.778  12.483
71116W        W39457  14.779  26.531   9.950
71117W        W39458   0.778  11.632  11.373
71118W        W39459   6.775  43.357   3.743
71119W        W39460  19.139   0.248  14.977
71120W        W39461  18.640   4.736  14.796
71121W        W39462  28.153  41.409  11.432
71122W        W39463  43.503  35.906  14.877
71123W        W39464  41.482  36.099  14.807
71124W        W39465  39.464  13.799   2.307
71125W        W39466  44.472  15.614  13.394
71126W        W39467  20.756  33.986  11.958
71127W        W39468  25.697  37.039   3.863
71128W        W39469  14.712   8.180   1.933
71129W        W39470   6.824   5.862   2.702
71130W        W39471  37.565  26.182   4.213
71131W        W39472  15.627  43.437  13.962
71132W        W39473   2.241  42.885   0.851
71133W        W39474  10.679  22.227   1.363
71134W        W39475  15.217  36.432   4.822
71135W        W39476  20.706  23.066   0.409
71136W        W39477  43.296  10.793  11.481
71137W        W39478   9.281  32.043  13.975
71138W        W39479  42.399  24.101  12.005
71139W        W39480   2.307  32.905   2.199
71140W        W39481   8.796  36.590   3.783
71141W        W39482   7.793  28.951  13.792
71142W        W39483  33.034   7.308  11.548
71143W        W39484  10.204  22.646  12.038
71144W        W39485   0.797   8.887  11.382
71145W        W39486   7.237  10.187   2.248
71146W        W39487  21.095  42.525   1.889
71147W        W39488   4.935  26.696   5.182
71148W        W39489  40.473  13.118   1.828
71149W        W39490  12.302   9.804  11.507
71150W        W39491  32.094  35.975   2.687
71151W        W39492  15.795  20.631  11.570
71152W        W39493  33.545   5.417   0.937
71153W        W39494  40.455  41.844   3.857
71154W        W39495   8.218   7.313   4.284
71155W        W39496  33.413   4.871   4.354
71156W        W39497   8.224  25.653   0.304
71157W        W39498  37.953  35.938  14.468
71158W        W39499  18.675  17.143  12.078
71159W        W39500  36.943  33.945  11.890
71160W        W39501   3.360  21.173   3.715
71161W        W39502  21.565  31.533  13.314
71162W        W39503  36.006  27.119  12.989
71163W        W39504  16.260  36.526  11.979
71164W        W39505   9.708   2.346   4.754
71165W        W39506  28.468  24.543  14.374
71166W        W39507  17.700  34.517  14.312
71167W        W39508  24.681  31.646   3.707
71168W        W39509  17.558  15.776  12.530
71169W        W39510  43.431  36.059   5.178
71170W        W39511  14.589  22.608  14.952
71171W        W39512  38.332  34.407  13.354
71172W        W39513  12.665  28.600   4.235
71173W        W39514  41.880  13.214  14.911
71174W        W39515   2.951   3.371   2.183
71175W        W39516  27.185   9.376  12.041
71176W        W39517  18.104  11.298   3.150
71177W        W39518   8.743  24.612   0.395
71178W        W39519  13.202  21.123   4.254
71179W        W39520  43.869  12.293  12.357
71180W        W39521   4.751   5.787   1.865
71181W        W39522  39.834  29.528  13.861
71182W        W39523  31.558  21.716  10.404
71183W        W39524   8.287  42.880  11.118
71184W        W39525  17.677  20.129   3.160
71185W        W39526   0.258  30.421  12.899
71186W        W39527  42.928  29.961   4.765
71187W        W39528  10.255  28.470  14.996
71188W        W39529  38.008  31.538   1.750
71189W        W39530   7.700  37.436   0.391
71190W        W39531  39.838  32.556   4.160
71191W        W39532  12.285  17.739   3.789
71192W        W39533  18.573  19.580  12.933
71193W        W39534  20.039  41.912  13.006
71194W        W39535  28.538  12.808   1.337
71195W        W39536  19.102  20.044  14.482
71196W        W39537  18.073  32.537   3.185
71197W        W39538  36.533  15.607   5.219
71198W        W39539   6.890   6.840  12.347
71199W        W39540  21.143  38.072   2.312
71200W        W39541  31.919   4.242  14.000
71201W        W39542  24.067  10.384   5.307
71202W        W39543  11.180  16.144   3.320
71203W        W39544  24.062  16.083   2.376
71204W        W39545  43.271   8.716  11.530
71205W        W39546  39.982  10.199   0.791
71206W        W39547  12.732  19.283   3.653
71207W        W39548  38.991  27.688  14.444
71208W        W39549  19.171  24.981  13.807
71209W        W39550  15.603  36.979  11.446
71210W        W39551  11.169   6.203  11.905
71211W        W39552  30.908   6.741  11.540
71212W        W39553  32.021   4.907  12.928
71213W        W39554  23.191   6.818  12.068
71214W        W39555   8.813   8.879  10.467
71215W        W39556  26.157  33.094   2.792
71216W        W39557   8.396  16.111  14.945
71217W        W39558   8.779  14.770  12.006
71218W        W39559  17.179  39.009   2.723
71219W        W39560   8.852  22.538  12.072
71220W        W39561  16.186  14.216  12.983
71221W        W39562  20.198  28.457  11.027
71222W        W39563  33.528  12.736  10.570
71223W        W39564   4.735  15.595   0.306
71224W        W39565  29.147  19.657   3.351
71225W        W39566  13.200  38.546   4.253
71226W        W39567   2.403  17.608   4.705
71227W        W39568  21.133   2.254  14.398
71228W        W39569  20.110  22.580   5.120
71229W        W39570  39.410  12.845   2.200
71230W        W39571  43.334  12.793  10.476
71231W        W39572  33.051  43.943   2.835
71232W        W39573  18.554  38.915  13.440
71233W        W39574   8.356  21.077   1.725
71234W        W39575   8.333  24.634  12.969
71235W        W39576  38.948  12.782  14.365
71236W        W39577  29.991  24.098   2.358
71237W        W39578  32.077  21.217   4.653
71238W        W39579  18.059  17.635  12.829
71239W        W39580  43.979  26.137   0.428
71240W        W39581  42.997  26.624   2.766
71241W        W39582  43.017   1.329   2.300
71242W        W39583   4.921  31.059   3.350
71243W        W39584   1.462  30.051  10.455
71244W        W39585  13.769   6.388   2.350
71245W        W39586  21.631  28.008   2.348
71246W        W39587  14.269  34.899  10.493
71247W        W39588  20.060  10.694   2.884
71248W        W39589  41.841   0.920  10.905
71249W        W39590  23.700   7.374   1.394
71250W        W39591  24.513  34.461  14.852
71251W        W39592  17.630  13.116   2.363
71252W        W39593  22.099  27.014   3.753
71253W        W39594  36.572  40.497   3.645
71254W        W39595   9.214  20.663   1.718
71255W        W39596  34.469  23.684  11.386
71256W        W39597  37.984   9.761  11.028
71257W        W39598  22.583  40.877  11.512
71258W        W39599   4.702  15.203   2.348
71259W        W39600  21.043  26.623  11.599
71260W        W39601   4.363  13.730  14.925
71261W        W39602  43.803  19.718   0.731
71262W        W39603  30.016  38.056   4.642
71263W        W39604  37.073  28.933  10.616
71264W        W39605  33.053  18.640  13.309
71265W        W39606  34.542  13.289  14.896
71266W        W39607  17.651   2.772   2.871
71267W        W39608  16.692  26.625  13.500
71268W        W39609  33.543   9.659  12.476
71269W        W39610  15.631  14.168   0.438
71270W        W39611  35.971  28.516   3.839
71271W        W39612  10.321  28.937  12.826
71272W        W39613   6.717   3.225  14.976
71273W        W39614   3.851  10.707   1.228
71274W        W39615   2.947  32.395  13.502
71275W        W39616   6.687   7.389  10.915
71276W        W39617  37.472  30.611  11.107
71277W        W39618  38.409  21.141  12.840
71278W        W39619  24.720  43.275   2.193
71279W        W39620  23.109   2.394   4.163
71280W        W39621  19.221   4.871  12.371
71281W        W39622  23.496  43.482   3.320
71282W        W39623  21.540  15.725  14.496
71283W        W39624  30.614  12.793   4.608
71284W        W39625  42.527  23.094   3.845
71285W        W39626  27.106  20.100   1.760
71286W        W39627  40.392  39.934   1.729
71287W        W39628  29.979  17.194   2.699
71288W        W39629  30.546  32.403   4.204
71289W        W39630  29.121   2.417  11.976
71290W        W39631  30.414  32.007   3.206
71291W        W39632  41.469  17.629  12.077
71292W        W39633  34.029  36.058  12.382
71293W        W39634  12.616  26.001   2.766
71294W        W39635   8.227  34.957   1.233
71295W        W39636  37.058  16.165  13.962
71296W        W39637   5.716   0.351   1.376
71297W        W39638  32.566  22.166  12.469
71298W        W39639  11.815  14.691  13.530
71299W        W39640  39.939   7.309   0.770
71300W        W39641  32.976   6.754  13.480
71301W        W39642   1.942  19.245   3.665
71302W        W39643  14.727  35.929  13.807
71303W        W39644  12.321  42.901  13.817
71304W        W39645   1.916   1.762   2.849
71305W        W39646  17.218  17.599  11.410
71306W        W39647   7.405  22.252   4.350
71307W        W39648   2.897  24.630  14.767
71308W        W39649   4.236   0.388  11.414
71309W        W39650  17.229  27.610  12.580
71310W        W39651  13.794  15.623   1.900
71311W        W39652   5.254  22.149  12.534
71312W        W39653  37.847  32.435   2.740
71313W        W39654  15.192  16.652   2.192
71314W        W39655  15.099  12.315   3.637
71315W        W39656  44.453  25.505  11.998
71316W        W39657   4.750   1.896  11.559
71317W        W39658  44.939  20.103   4.241
71318W        W39659  42.363  38.995   4.799
71319W        W39660  41.343  41.476  14.398
71320W        W39661  19.110  34.426   4.751
71321W        W39662   2.247  26.581  11.590
71322W        W39663  13.278   4.419  12.859
71323W        W39664  17.210  35.501   5.286
71324W        W39665  29.589  23.147  14.805
71325W        W39666  39.827  28.100  14.774
71326W        W39667  30.600  22.239  11.026
71327W        W39668   1.801  32.059  14.301
71328W        W39669  26.594  31.015  10.557
71329W        W39670  22.556  23.716   1.761
71330W        W39671  32.405  11.206  13.946
71331W        W39672  12.742  42.382  13.913
71332W        W39673  11.791  29.968   3.638
71333W        W39674   4.372  15.632   3.379
71334W        W39675  17.259  10.647   0.283
71335W        W39676  25.962  21.053   3.353
71336W        W39677   5.857  16.629   3.839
71337W        W39678   9.673  24.598  11.546
71338W        W39679  44.296  35.013   4.727
71339W        W39680  10.877  11.325  10.476
71340W        W39681  30.489  19.649   3.155
71341W        W39682  36.059  44.494  13.968
71342W        W39683  18.751  42.909   5.191
71343W        W39684  27.038  43.815   3.734
71344W        W39685  26.985   4.935   4.791
71345W        W39686   7.832  32.896   3.714
71346W        W39687   7.684   9.744  10.620
71347W        W39688  17.203   7.670  13.825
71348W        W39689   5.871  42.408  10.404
71349W        W39690   1.277  22.581   2.349
71350W        W39691   6.389   4.350  11.953
71351W        W39692  25.512  11.750  14.818
71352W        W39693  21.092  17.724   2.707
71353W        W39694  35.081  39.389   0.779
71354W        W39695  26.046  44.285   3.847
71355W        W39696  35.951  43.824  14.482
71356W        W39697   4.928  29.159  11.469
71357W        W39698  34.557   2.332  12.978
71358W        W39699  21.666  32.427   4.711
71359W        W39700  26.650  19.676  12.909
71360W        W39701  26.090  17.246  13.862
71361W        W39702  26.466  18.689  11.565
71362W        W39703   9.741  33.914  12.959
71363W        W39704  17.287  33.124   0.457
71364W        W39705   4.814  23.127   0.764
71365W        W39706  34.885  13.275   0.438
71366W        W39707  11.355  28.125   0.353
71367W        W39708   9.207  20.712   4.166
71368W        W39709  30.081  42.858  13.511
71369W        W39710  13.632  39.523   2.898
71370W        W39711  21.238  21.080   2.376
71371W        W39712   8.332  22.043  14.420
71372W        W39713   8.177   2.447   1.420
71373W        W39714  27.165  34.941  10.556
71374W        W39715   2.254  26.115   0.755
71375W        W39716   0.754  14.659   3.364
71376W        W39717  25.157  21.161  14.315
71377W        W39718   9.702  43.389  11.443
71378W        W39719  25.201   8.359  12.893
71379W        W39720  36.881  43.912   3.367
71380W        W39721  41.996  41.868  13.853
71381W        W39722   6.895  14.708  14.330
71382W        W39723   8.161   0.403   3.837
71383W        W39724  20.603   6.839   3.370
71384W        W39725  37.831  14.770   1.312
71385W        W39726  36.015   4.271  14.032
71386W        W39727   8.783  26.131   1.898
71387W        W39728  27.510  33.547   1.824
71388W        W39729  27.646   4.400  11.448
71389W        W39730   1.393  23.031   4.146
71390W        W39731  28.636  43.395  14.973
71391W        W39732  11.800   4.264  14.899
71392W        W39733  29.590  35.989   5.146
71393W        W39734   9.150  44.774  14.782
71394W        W39735  27.621  21.083   4.136
71395W        W39736   0.353  16.074  11.430
71396W        W39737  35.369  37.552  11.891
71397W        W39738  32.494  31.410  13.374
71398W        W39739  41.449  29.578  14.893
71399W        W39740  15.273  34.479  14.833
71400W        W39741   1.857  35.105   4.265
71401W        W39742  42.317  31.014   2.403
71402W        W39743  25.613  21.106   4.705
71403W        W39744   7.398  11.155  10.577
71404W        W39745  12.644  25.184   1.241
71405W        W39746  12.664  27.622   4.334
71406W        W39747  44.954  18.770   4.807
71407W        W39748   9.837  10.709  14.308
71408W        W39749  25.566   0.402   3.230
71409W        W39750  10.736  11.685  10.461
71410W        W39751  24.120  40.447   3.383
71411W        W39752  24.486  43.978  11.899
71412W        W39753  41.361  21.671   1.328
71413W        W39754  11.278  37.911  10.415
71414W        W39755  11.155  31.583  14.984
71415W        W39756   7.765  20.107   1.709
71416W        W39757  28.038  16.114   4.642
71417W        W39758  27.170  29.155   0.776
71418W        W39759  29.580  26.196   1.412
71419W        W39760  28.158  29.083   2.749
71420W        W39761   9.272   8.253  13.462
71421W        W39762  38.497  34.910  12.418
71422W        W39763  27.507  10.712  14.337
71423W        W39764  25.570  18.616  12.077
71424W        W39765  40.418  12.762   3.785
71425W        W39766   2.818  44.776  14.009
71426W        W39767  38.477  35.488  12.862
71427W        W39768  12.625  20.123  14.430
71428W        W39769   6.856  26.154  14.884
71429W        W39770  26.147  12.629  13.470
71430W        W39771  27.001  41.042   1.320
71431W        W39772  18.163  25.690  12.055
71432W        W39773  31.504   6.883  14.505
71433W        W39774  18.099  42.436   4.688
71434W        W39775  34.883   9.350  10.992
71435W        W39776  38.417   7.280  11.951
71436W        W39777  36.095  24.994  12.522
71437W        W39778  11.714  27.145  11.096
71438W        W39779  12.131  32.027  14.897
71439W        W39780   2.467  34.932  10.540
71440W        W39781  19.636  43.782  10.599
71441W        W39782  19.573   3.806   1.351
71442W        W39783  37.903  41.414   3.818
71443W        W39784   3.242  42.381  12.381
71444W        W39785  31.932  33.963   2.901
71445W        W39786   6.851   2.340  13.548
71446W        W39787   3.945  32.905   2.718
71447W        W39788  37.438  30.559   9.939
71448W        W39789   3.317  34.938  11.408
71449W        W39790  18.197  19.284   4.203
71450W        W39791  38.856  33.523  13.847
71451W        W39792  18.751  15.213   2.390
71452W        W39793  24.119   6.245  14.929
71453W        W39794  17.760  33.474  10.048
71454W        W39795  13.656  25.479   2.880
71455W        W39796  14.818  29.550  14.303
71456W        W39797  25.630   0.900  13.407
71457W        W39798  44.369  32.477   3.380
71458W        W39799  24.062  29.537   4.325
71459W        W39800   0.974   8.352  13.396
71460W        W39801  40.425  14.681   4.232
71461W        W39802  29.947  21.080  10.140
71462W        W39803  13.157   5.732   4.673
71463W        W39804   0.814   1.886  14.431
71464W        W39805  26.584  25.649  11.972
71465W        W39806  40.478  29.073   2.382
71466W        W39807  27.088  39.543   3.719
71467W        W39808   8.819  32.569  11.883
71468W        W39809  23.636  29.934   2.410
71469W        W39810  18.642  21.617   2.690
71470W        W39811  12.738  17.302   3.827
71471W        W39812  34.968  37.971  13.541
71472W        W39813  21.682  44.809  12.497
71473W        W39814  22.140  11.183   3.238
71474W        W39815  11.168  36.451   3.272
71475W        W39816  16.673  23.993  11.006
71476W        W39817  38.423   9.728   1.834
71477W        W39818  30.939  39.366  10.929
71478W        W39819  15.083  35.534   3.360
71479W        W39820  43.769   0.884  10.918
71480W        W39821   5.883  17.231   3.336
71481W        W39822  38.842  17.633  13.807
71482W        W39823   7.282   1.923  11.579
71483W        W39824  15.637  30.432  12.937
71484W        W39825   3.895   5.720  14.877
71485W        W39826  41.786   7.230   2.397
71486W        W39827   0.785  23.557  10.511
71487W        W39828   9.204  44.428  13.327
71488W        W39829  14.827  27.005  14.387
71489W        W39830  44.288  17.652   4.282
71490W        W39831  37.925   0.264   3.159
71491W        W39832  42.017  31.635   4.116
71492W        W39833  17.146   6.272   2.401
71493W        W39834  41.534   9.724   0.942
71494W        W39835  41.514  24.001   2.855
71495W        W39836  14.639   4.841   0.893
71496W        W39837   2.849  13.315  13.459
71497W        W39838  23.110  23.628  12.929
71498W        W39839   7.767  42.427   3.818
71499W        W39840  16.272  39.931  11.486
71500W        W39841  11.358   1.831  11.027
71501W        W39842   6.279  32.067  14.915
71502W        W39843  15.134  21.670   0.466
71503W        W39844   1.385  36.546  14.792
71504W        W39845  23.602  26.528  10.910
71505W        W39846  28.044  36.069  10.643
71506W        W39847   2.870   2.372  11.113
71507W        W39848  27.095  42.300  13.807
71508W        W39849  31.585  17.100   1.316
71509W        W39850  11.711   8.888   4.327
71510W        W39851   6.388   6.229  11.072
71511W        W39852  39.406  27.487  13.855
71512W        W39853  11.790   1.932  14.942
71513W        W39854   8.258  26.104   1.865
71514W        W39855  29.072  39.439   2.244
71515W        W39856  17.660  17.285   3.701
71516W        W39857  31.106  13.733   4.301
71517W        W39858  11.712  33.010  13.483
71518W        W39859   4.329  30.490   0.892
71519W        W39860   7.701  22.731  12.076
71520W        W39861   6.723  26.528  11.118
71521W        W39862  12.746   3.234  13.811
71522W        W39863  28.530  31.635  11.474
71523W        W39864  18.274  16.130   2.397
71524W        W39865  20.623  15.711   2.278
71525W        W39866  38.953   5.853   2.210
71526W        W39867  11.239  29.162   4.806
71527W        W39868  27.105  37.344  14.005
71528W        W39869   6.240  42.033  10.634
71529W        W39870   7.412  31.629  10.911
71530W        W39871  19.069  26.574   3.698
71531W        W39872   5.918  26.183  13.899
71532W        W39873  19.196  34.427   3.840
71533W        W39874   2.434  29.462   4.308
71534W        W39875  28.181  19.537   1.876
71535W        W39876  27.102   1.360   0.428
71536W        W39877  37.422  25.650   1.860
71537W        W39878  44.952   9.800  14.364
71538W        W39879  41.479  40.839   4.274
71539W        W39880   2.880  41.827   0.814
71540W        W39881  39.543  29.473  14.985
71541W        W39882  36.485  21.100  12.971
71542W        W39883   2.785  28.447   1.374
71543W        W39884  25.085  14.212   1.776
71544W        W39885   5.245   1.274  14.504
71545W        W39886  22.187   6.366   1.427
71546W        W39887  22.109  18.677   4.140
71547W        W39888  32.605  43.837   2.894
71548W        W39889  25.710  23.709   2.682
71549W        W39890   6.357  10.259   9.943
71550W        W39891  26.064  12.160  13.805
71551W        W39892  26.588  20.154   3.695
71552W        W39893  19.120   4.757  11.394
71553W        W39894  14.180  21.617  10.441
71554W        W39895  23.192  16.124  14.031
71555W        W39896   2.869  17.229  14.492
71556W        W39897  26.995  33.040   2.749
71557W        W39898  29.150   2.431   3.683
71558W        W39899   8.340   6.823   3.734
71559W        W39900  23.045   6.808   2.419
71560W        W39901   7.375  20.262  14.377
71561W        W39902  38.036  40.847   1.774
71562W        W39903  37.984   2.788   3.345
71563W        W39904   4.308  27.131  14.916
71564W        W39905  15.226   9.817  11.442
71565W        W39906  12.285  15.663   0.807
71566W        W39907  27.145  28.493   1.418
71567W        W39908  44.402  29.663  14.980
71568W        W39909  42.982  12.848  13.447
71569W        W39910  38.534   6.298  13.482
71570W        W39911  33.894  36.094   3.166
71571W        W39912  24.147  15.242   0.470
71572W        W39913  26.107  21.094  10.406
71573W        W39914  27.120   4.730   4.337
71574W        W39915  22.641   5.901  11.411
71575W        W39916  12.330   2.293   2.829
71576W        W39917  14.728  37.885   3.377
71577W        W39918  20.657   3.350  14.806
71578W        W39919  42.464   3.398   3.220
71579W        W39920  42.995  13.764  11.989
71580W        W39921  44.775  10.340   1.409
71581W        W39922  36.054  23.144  12.453
71582W        W39923  20.266  27.942  14.850
71583W        W39924  28.656  39.350   0.399
71584W        W39925  31.110  24.631   1.699
71585W        W39926  15.731  30.618   2.671
71586W        W39927   2.728  36.973  14.011
71587W        W39928  22.105  19.127  14.018
71588W        W39929  42.840  39.371  11.508
71589W        W39930  34.443  31.535  10.903
71590W        W39931   8.258  14.229   2.321
71591W        W39932  33.947  35.401  14.014
71592W        W39933  32.982  22.113  14.389
71593W        W39934  40.329   8.784   0.380
71594W        W39935  19.091  34.054  12.488
71595W        W39936  14.300  35.539  14.808
71596W        W39937  22.046  10.791   3.666
71597W        W39938  36.877  13.754   3.198
71598W        W39939  11.758  12.744   2.253
71599W        W39940  43.891   4.441   0.920
71600W        W39941  33.078  40.389   1.231
71601W        W39942  15.328  32.073   5.804
71602W        W39943   1.935   9.361  14.374
71603W        W39944  27.599   5.761   0.741
71604W        W39945  35.407  32.554  11.386
71605W        W39946  17.119  31.953   2.248
71606W        W39947  16.568  24.665  11.486
71607W        W39948  35.920  27.067   3.165
71608W        W39949  19.708   9.195   0.835
71609W        W39950   2.255  33.005   3.258
71610W        W39951   0.960  31.466  14.388
71611W        W39952  34.523   4.404   3.240
71612W        W39953  38.502   7.379  13.885
71613W        W39954  27.469  42.941  12.371
71614W        W39955  13.178  19.705   3.656
71615W        W39956  38.495  27.180   2.322
71616W        W39957  31.140  34.917   1.755
71617W        W39958  20.217   5.899   2.873
71618W        W39959  41.531   2.304  13.427
71619W        W39960   2.356  25.025   2.379
71620W        W39961  31.999  44.940  14.967
71621W        W39962   4.733   7.379  11.599
71622W        W39963  33.027  44.332   2.776
71623W        W39964  10.684   5.905  12.046
71624W        W39965   4.449   3.423   1.279
71625W        W39966  39.998  42.931   0.385
71626W        W39967  43.915  35.035  11.961
71627W        W39968   2.399   7.782  12.973
71628W        W39969  28.497  15.599   0.825
71629W        W39970   6.715  36.869   0.812
71630W        W39971  23.616  31.037   3.838
71631W        W39972  14.724  14.825   1.713
71632W        W39973  44.358  35.549  11.581
71633W        W39974   1.761  32.136  13.016
71634W        W39975  14.257   5.348  11.934
71635W        W39976   2.345  17.295   2.218
71636W        W39977  39.053  22.531   2.394
71637W        W39978  42.878  18.783  12.521
71638W        W39979  30.054  23.130   4.231
71639W        W39980  12.753  43.350  14.800
71640W        W39981  22.133  36.360  14.884
71641W        W39982  22.011  33.034   2.685
71642W        W39983  26.694   8.863   3.857
71643W        W39984  44.910  30.575   0.784
71644W        W39985  40.967  38.379  12.363
71645W        W39986  18.673  44.859  14.989
71646W        W39987  12.776  24.704   4.770
71647W        W39988   2.742  33.045   1.719
71648W        W39989  33.582   0.319   2.899
71649W        W39990  32.409  14.626  12.340
71650W        W39991  32.908  28.612  14.789
71651W        W39992  36.423  38.527  12.859
71652W        W39993  21.259  22.087   0.322
71653W        W39994  41.828  32.983  12.513
71654W        W39995  27.025  40.508  12.566
71655W        W39996  39.495  28.679  11.509
71656W        W39997  13.714   4.858  10.598
71657W        W39998  42.817  12.621   2.271
71658W        W39999  14.267  23.490  10.002
71659W        W40000  20.743  34.881  13.028
71660W        W40001   6.364  12.126   1.374
71661W        W40002  14.184  18.655   5.236
71662W        W40003  11.838  33.493   0.330
71663W        W40004  15.784  20.752  13.391
71664W        W40005  33.894  40.904   2.869
71665W        W40006  15.774  23.506   2.181
71666W        W40007  42.439   4.326   3.222
71667W        W40008   4.799  23.619  10.146
71668W        W40009  33.417   3.387   4.194
71669W        W40010  26.505  18.689   1.342
71670W        W40011   6.797  42.524   3.372
71671W        W40012   5.297  35.591   4.638
71672W        W40013  10.696  43.884  12.556
71673W        W40014  28.085  18.092   5.243
71674W        W40015  26.550  23.712  13.958
71675W        W40016   7.823   8.377   1.787
71676W        W40017  21.650  22.042   0.410
71677W        W40018  42.483  44.991   3.840
71678W        W40019   0.776  19.187   9.996
71679W        W40020   4.735  24.063   2.732
71680W        W40021  21.548   7.357  12.464
71681W        W40022  41.951  11.373   4.615
71682W        W40023   3.232  41.451  14.320
71683W        W40024  20.613  18.653  12.036
71684W        W40025   9.817  24.620  10.898
71685W        W40026   7.186  37.834   4.213
71686W        W40027  31.033  18.660   4.202
71687W        W40028  36.904  19.750  12.939
71688W        W40029  20.554   9.287  13.323
71689W        W40030  22.210  37.496   5.316
71690W        W40031   9.643  17.793  14.988
71691W        W40032  42.853  40.991  12.350
71692W        W40033  24.153  37.950  11.529
71693W        W40034  42.975  30.098  10.574
71694W        W40035  28.041   3.730   3.718
71695W        W40036  36.494  26.013  14.888
71696W        W40037  19.706  32.079  12.518
71697W        W40038  13.822  24.187   1.253
71698W        W40039  34.951  37.444  12.351
71699W        W40040  37.936  11.283  10.615
71700W        W40041  31.511  40.416  13.899
71701W        W40042  10.665  19.655  10.543
71702W        W40043   0.321  26.536  13.896
71703W        W40044  26.670  33.436  11.100
71704W        W40045  12.133  44.839  11.599
71705W        W40046   6.723  38.868  13.981
71706W        W40047  41.377  30.542  12.950
71707W        W40048  29.436   5.299   3.718
71708W        W40049  14.812  27.042   3.245
71709W        W40050  24.213  39.942   3.380
71710W        W40051   2.899  10.196  12.495
71711W        W40052  17.799  39.503  11.976
71712W        W40053   8.813  31.047  13.396
71713W        W40054  33.979  30.555  13.880
71714W        W40055   4.896  22.011  12.518
71715W        W40056  33.121  32.617  13.830
71716W        W40057   4.918  34.076   0.940
71717W        W40058  31.063  40.051  12.965
71718W        W40059  21.064  30.516   2.809
71719W        W40060  16.636   5.326   2.810
71720W        W40061  26.529  41.298   3.229
71721W        W40062   0.967   6.888  11.918
71722W        W40063  39.937  40.835  12.066
71723W        W40064  39.478  37.839  12.862
71724W        W40065   4.388  28.670  12.909
71725W        W40066   4.718  37.039   0.400
71726W        W40067  10.153  42.854  10.615
71727W        W40068  29.571   5.198  11.071
71728W        W40069  21.134  39.368   3.825
71729W        W40070  25.038   6.877  14.385
71730W        W40071  34.096  33.486  13.009
71731W        W40072  19.561  26.128  11.373
71732W        W40073  16.573   1.459  14.873
71733W        W40074  35.473  18.115   2.746
71734W        W40075  44.905  23.013   3.858
71735W        W40076  38.416   8.786   2.784
71736W        W40077  16.718  13.630  12.403
71737W        W40078  34.995  15.627   2.772
71738W        W40079   8.231  37.515   0.922
71739W        W40080  33.479  42.807   0.264
71740W        W40081   3.930  22.052   0.466
71741W        W40082  36.387  15.707   1.407
71742W        W40083  42.351   5.909   1.749
71743W        W40084  32.579   0.267   0.414
71744W        W40085  33.438  32.003  13.471
71745W        W40086  12.289   2.869  10.477
71746W        W40087   6.711   4.329   1.846
71747W        W40088  27.108   4.282   0.965
71748W        W40089  28.535  24.184   4.630
71749W        W40090  38.525   5.289   2.780
71750W        W40091  15.319   0.954  11.067
71751W        W40092  29.594  39.983   1.368
71752W        W40093  14.832   7.342   4.177
71753W        W40094  37.029   7.904  11.977
71754W        W40095  16.727   2.802   0.846
71755W        W40096  15.773   2.739  14.933
71756W        W40097  34.872  18.296  12.987
71757W        W40098  43.509  18.710  10.045
71758W        W40099  18.193   2.830  12.528
71759W        W40100  38.399   5.423  14.984
71760W        W40101  19.046  40.414   1.233
71761W        W40102  42.366  36.980  14.507
71762W        W40103  14.193  29.539   4.692
71763W        W40104  15.216  37.484   2.245
71764W        W40105   7.716  26.149  12.489
71765W        W40106  29.121   8.230   4.634
71766W        W40107  17.148  27.656  10.562
71767W        W40108  38.034  44.281   1.742
71768W        W40109  17.590  35.895   0.738
71769W        W40110  41.316  36.380   1.851
71770W        W40111  35.915   2.739   3.748
71771W        W40112   9.294   1.263   1.699
71772W        W40113  43.781  21.743   5.642
71773W        W40114  41.295   6.277  11.447
71774W        W40115  36.374  36.393   1.369
71775W        W40116  24.169  30.070   0.785
71776W        W40117   2.420  39.547   1.698
71777W        W40118  41.038  14.680   1.325
71778W        W40119  12.616   5.397   0.911
71779W        W40120  33.495  11.222   2.181
71780W        W40121  13.187   0.811   0.892
71781W        W40122  35.072   7.260   4.774
71782W        W40123  13.155  26.081  12.483
71783W        W40124   6.396   9.385   1.790
71784W        W40125  24.713  36.997   4.627
71785W        W40126  13.255  33.609  10.084
71786W        W40127  40.921  42.845   1.830
71787W        W40128  18.753  11.812   5.151
71788W        W40129  36.027  19.747  13.543
71789W        W40130  24.101  21.260  12.376
71790W        W40131  37.953  27.607  12.893
71791W        W40132  12.148  18.114   2.712
71792W        W40133  25.607   7.894  11.933
71793W        W40134  42.777  37.986   4.139
71794W        W40135  17.678  26.620  11.970
71795W        W40136  31.432  21.570   0.836
71796W        W40137  27.665  33.880   0.734
71797W        W40138  34.451  44.294  12.539
71798W        W40139  25.714  20.125  13.521
71799W        W40140  15.184   3.939  10.619
71800W        W40141   8.324  14.327   1.302
71801W        W40142  14.146   0.756   3.779
71802W        W40143  16.693   8.245  13.825
71803W        W40144  30.424  23.207   0.438
71804W        W40145  25.601  36.974  11.579
71805W        W40146   8.272  39.014   4.625
71806W        W40147  36.019  16.692   4.139
71807W        W40148  42.292   0.797   0.733
71808W        W40149  35.471  19.224  14.341
71809W        W40150  31.921  40.378   1.416
71810W        W40151  21.069  24.085   2.662
71811W        W40152   2.887  33.504   2.402
71812W        W40153  25.067  23.586   2.347
71813W        W40154  21.561  32.903   0.399
71814W        W40155  41.526  25.081  11.883
71815W        W40156  31.089  42.893  12.840
71816W        W40157  29.613  32.905   1.446
71817W        W40158  10.772  24.083   4.182
71818W        W40159  17.220  38.494   2.178
71819W        W40160  37.574  35.091   2.256
71820W        W40161   1.881  33.007   3.257
71821W        W40162  41.026  39.372   4.323
71822W        W40163  16.254   9.658   1.925
71823W        W40164   1.395  20.263  14.417
71824W        W40165  43.848  18.704  12.507
71825W        W40166  37.482  15.625   3.154
71826W        W40167  32.595  39.418   9.615
71827W        W40168  41.338  33.392   0.918
71828W        W40169  30.037   3.449   2.757
71829W        W40170  39.329   7.309   3.302
71830W        W40171  19.147  15.292   2.716
71831W        W40172  43.375  28.512   0.772
71832W        W40173  10.306  24.534   3.750
71833W        W40174  31.542  15.711  13.052
71834W        W40175   1.773  42.468  12.543
71835W        W40176  25.012  33.474   3.727
71836W        W40177  20.552  36.849   1.818
71837W        W40178  24.088  20.620  12.996
71838W        W40179  18.107  44.427   1.786
71839W        W40180  37.890  21.579   2.842
71840W        W40181  40.352  29.062  13.952
71841W        W40182   4.851   7.907  11.378
71842W        W40183  22.201   0.333  13.944
71843W        W40184  19.241  35.860   2.800
71844W        W40185  31.030  11.275   1.889
71845W        W40186   2.860  16.668   9.569
71846W        W40187  13.672   5.390   1.932
71847W        W40188  18.120  11.164  12.446
71848W        W40189  11.804   4.404   4.231
71849W        W40190  11.859  14.143   4.337
71850W        W40191   1.483  32.000  12.905
71851W        W40192  29.452  24.544   0.437
71852W        W40193   4.817  14.621   2.386
71853W        W40194   9.789  23.659  10.963
71854W        W40195  11.195   4.261  11.463
71855W        W40196  41.854  39.469   3.756
71856W        W40197  36.965  38.933   0.327
71857W        W40198  30.960  34.014  12.451
71858W        W40199  16.230   6.273   1.399
71859W        W40200  44.753  27.131  12.882
71860W        W40201  19.145   1.381   4.158
71861W        W40202  43.370  43.850  12.037
71862W        W40203  23.559  34.549   4.116
71863W        W40204   2.932  40.399   0.469
71864W        W40205   5.395  17.130  10.547
71865W        W40206  35.066  33.555   4.761
71866W        W40207   3.710  36.572   0.917
71867W        W40208  39.475   5.887  13.508
71868W        W40209  36.977  25.712  13.028
71869W        W40210  42.373  34.548   2.878
71870W        W40211   4.341   8.801  12.384
71871W        W40212  12.720  25.151  12.032
71872W        W40213  39.947  36.991   1.223
71873W        W40214  12.356  19.268  13.372
71874W        W40215   1.975  23.555  12.551
71875W        W40216   1.770  14.211   0.849
71876W        W40217  31.142   1.803  11.586
71877W        W40218  28.438  18.245  13.996
71878W        W40219  35.542  18.112   1.820
71879W        W40220   6.263  25.218   2.694
71880W        W40221   8.313  31.041   0.339
71881W        W40222  28.535  22.725  12.021
71882W        W40223   9.887  18.703  11.383
71883W        W40224   8.267  26.459  12.884
71884W        W40225  15.124  22.737  11.082
71885W        W40226  44.290   8.774   0.839
71886W        W40227  30.438  35.044   1.318
71887W        W40228  35.423  12.297   0.259
71888W        W40229   2.469  12.272  10.498
71889W        W40230  40.900   6.814   4.797
71890W        W40231   1.476  36.037  13.480
71891W        W40232  35.450  20.228  12.933
71892W        W40233  24.719  16.181  13.887
71893W        W40234   6.754   6.428   3.195
71894W        W40235   8.799  33.900   0.847
71895W        W40236   5.894   2.950   0.410
71896W        W40237  32.463  20.621  14.818
71897W        W40238  29.020  38.978   3.193
71898W        W40239  24.032  21.673   4.198
71899W        W40240  36.011  33.475   2.185
71900W        W40241  23.123  42.414   0.476
71901W        W40242  26.588  41.013   0.356
71902W        W40243   8.194   2.335  10.412
71903W        W40244  41.934  33.132   3.752
71904W        W40245  35.991  20.765   0.372
71905W        W40246  22.252   3.368   3.324
71906W        W40247  39.365  20.631   0.278
71907W        W40248  38.570  41.042   3.746
71908W        W40249  11.163  17.786   0.426
71909W        W40250  39.509  21.142  12.904
71910W        W40251  39.509   9.173   3.322
71911W        W40252   6.729  19.691   3.643
71912W        W40253  34.920  42.014   4.279
71913W        W40254  15.204  17.777  14.849
71914W        W40255  10.788  34.481  12.004
71915W        W40256  25.570  27.651  10.407
71916W        W40257  18.226  37.426   0.791
71917W        W40258  24.001  21.622   1.713
71918W        W40259  16.677  33.408  12.462
71919W        W40260  22.114  33.503   4.200
71920W        W40261  28.129   6.721  13.832
71921W        W40262  31.406  18.064  10.518
71922W        W40263  23.537  40.334  10.639
71923W        W40264   2.275  29.058  13.830
71924W        W40265   4.229  20.618   4.735
71925W        W40266  34.953  15.089  14.759
71926W        W40267  42.801   1.766   2.837
71927W        W40268  26.957  41.818  11.419
71928W        W40269  26.114  33.026  10.583
71929W        W40270  36.518   3.397   4.287
71930W        W40271   2.388  25.064   3.313
71931W        W40272  22.696  14.160   3.291
71932W        W40273  15.095  24.979  12.517
71933W        W40274  23.698  28.525  11.480
71934W        W40275  16.785  35.891   2.719
71935W        W40276   8.166  31.047  10.528
71936W        W40277  31.070  22.129  11.427
71937W        W40278  15.126  36.563  14.978
71938W        W40279   0.311  41.505   3.742
71939W        W40280  41.376  25.679   3.281
71940W        W40281   3.839  41.016  14.321
71941W        W40282  25.201   7.681  12.392
71942W        W40283   1.281  30.029   2.375
71943W        W40284   6.186   0.274  12.881
71944W        W40285  17.083  33.465  14.463
71945W        W40286   2.766  37.408   0.849
71946W        W40287   1.878   2.866  12.837
71947W        W40288  15.186  42.923   0.261
71948W        W40289  13.266  36.493   1.737
71949W        W40290   7.669   0.419   2.820
71950W        W40291   6.185  17.604  10.894
71951W        W40292   5.361   4.255   4.325
71952W        W40293  44.261   4.726  13.374
71953W        W40294  37.974  42.445   3.243
71954W        W40295  35.604   7.271   0.820
71955W        W40296  43.821  15.324   2.208
71956W        W40297  30.063  21.714  12.429
71957W        W40298  30.438   9.870   0.349
71958W        W40299  15.187  17.178   0.779
71959W        W40300  24.626  44.284   1.395
71960W        W40301  31.129  37.512  12.030
71961W        W40302  39.018  41.420   3.698
71962W        W40303  37.436   9.650   4.827
71963W        W40304  23.057  21.061   0.394
71964W        W40305  31.153  17.683  14.770
71965W        W40306  25.979  39.002   3.349
71966W        W40307  16.075  12.228  11.505
71967W        W40308  21.700  30.081   1.314
71968W        W40309  13.309  22.620   3.660
71969W        W40310  30.451  25.573  11.600
71970W        W40311   2.400   0.962   2.836
71971W        W40312   4.253  40.354   1.886
71972W        W40313   3.221   5.249   0.855
71973W        W40314  30.522  17.778   2.860
71974W        W40315  43.808  28.050   0.747
71975W        W40316  28.477   3.746  10.422
71976W        W40317  32.606   8.844   3.380
71977W        W40318  36.083   9.756   4.689
71978W        W40319   2.867  27.613   3.171
71979W        W40320  30.541  22.656   1.293
71980W        W40321  36.539  19.168   1.793
71981W        W40322  29.602  27.529   2.382
71982W        W40323  37.034  11.644   0.272
71983W        W40324   8.236  39.378   2.290
71984W        W40325   0.359  28.622   4.811
71985W        W40326   8.357  17.610   4.157
71986W        W40327  31.008  32.572   0.877
71987W        W40328   3.414  24.646   1.328
71988W        W40329  11.803  22.726  12.360
71989W        W40330  16.317  28.525  13.368
71990W        W40331  26.180   7.692  12.345
71991W        W40332  11.706  10.722  12.066
71992W        W40333   2.788  18.575   0.367
71993W        W40334  37.393  33.393   5.286
71994W        W40335  22.553  33.570   3.834
71995W        W40336   5.811   0.802   4.194
71996W        W40337  43.280  11.797   2.726
71997W        W40338  33.488  25.569  12.492
71998W        W40339  27.676   3.306   0.967
71999W        W40340  12.342  11.224  14.475
72000W        W40341   8.223  23.022   4.134
72001W        W40342  34.943  42.028   2.682
72002W        W40343  33.511  25.629  11.917
72003W        W40344  23.686   4.930   1.797
72004W        W40345  17.604  14.290   1.446
72005W        W40346  13.677  35.375  12.852
72006W        W40347  24.083  42.503  14.915
72007W        W40348  40.541  36.861   0.402
72008W        W40349  29.440  11.200   0.965
72009W        W40350  26.963  18.093   1.762
72010W        W40351  38.917  11.755   4.136
72011W        W40352  14.156  35.973  10.887
72012W        W40353  43.359  34.882  12.397
72013W        W40354  22.076   5.828   0.320
72014W        W40355   5.741  23.680   0.326
72015W        W40356   6.301  31.933  13.371
72016W        W40357   6.741  16.240  11.935
72017W        W40358  40.476  14.820  12.359
72018W        W40359  35.909  30.537  10.482
72019W        W40360  40.415  43.927   3.171
72020W        W40361   6.256  31.403   4.314
72021W        W40362  10.292  32.964  13.389
72022W        W40363   0.254  32.118   0.423
72023W        W40364  23.635  25.997  14.824
72024W        W40365  13.724  36.081   0.778
72025W        W40366   8.713   4.923   0.258
72026W        W40367  19.621   5.695  14.782
72027W        W40368  12.765  22.552   3.340
72028W        W40369  42.477  16.283   0.455
72029W        W40370  30.455  29.106   2.828
72030W        W40371  13.157  21.672  14.911
72031W        W40372  41.929  28.516   1.263
72032W        W40373  20.606  42.030   4.199
72033W        W40374  28.118  26.085   3.335
72034W        W40375  31.431  34.889   4.690
72035W        W40376  29.095  27.144  14.285
72036W        W40377  29.640  32.023   4.733
72037W        W40378  15.232   7.245   4.201
72038W        W40379  28.595  13.816  12.493
72039W        W40380  19.768  19.246  10.473
72040W        W40381  25.598   8.248  12.095
72041W        W40382  23.521   5.357   1.760
72042W        W40383  39.828  26.143  14.340
72043W        W40384  30.638   0.864   4.711
72044W        W40385  32.534  16.124  13.901
72045W        W40386  22.578  26.180   1.290
72046W        W40387  17.134  15.620   4.201
72047W        W40388  14.172  18.198   2.350
72048W        W40389  12.706  36.543  11.968
72049W        W40390  13.754  40.303   0.382
72050W        W40391  35.538  43.794  10.926
72051W        W40392  25.072  29.653  11.988
72052W        W40393  21.198  14.779  11.908
72053W        W40394  17.662  26.024   3.787
72054W        W40395  24.624  15.776   1.817
72055W        W40396   4.214  17.761   1.442
72056W        W40397   1.886  42.923  11.394
72057W        W40398   1.428  12.345  13.453
72058W        W40399  39.056  44.493  14.347
72059W        W40400  17.079  25.093   3.822
72060W        W40401   8.171  33.499   4.638
72061W        W40402  25.613  41.442   2.880
72062W        W40403   0.270  18.087   0.267
72063W        W40404  40.447  23.532  12.094
72064W        W40405  11.680   7.339  13.327
72065W        W40406  28.017  35.080   4.737
72066W        W40407  15.707  20.121   2.781
72067W        W40408  19.225  20.709  11.894
72068W        W40409   5.253  35.038  13.851
72069W        W40410  43.486  16.591  12.546
72070W        W40411  22.251   7.842  14.875
72071W        W40412  41.511   3.321  11.455
72072W        W40413  25.570  38.565  12.472
72073W        W40414  13.744  42.918   1.402
72074W        W40415  22.674  37.366   1.927
72075W        W40416  40.011  32.117  13.810
72076W        W40417  25.645  38.377  13.887
72077W        W40418  21.178  13.750  11.456
72078W        W40419  41.387  28.011   1.756
72079W        W40420  24.082  41.946  10.416
72080W        W40421  37.962   5.837  12.513
72081W        W40422  11.301  25.678  12.998
72082W        W40423  39.868   8.379  12.093
72083W        W40424  10.374  42.975   1.408
72084W        W40425  34.435  43.501  10.983
72085W        W40426  15.660  12.744   0.346
72086W        W40427  27.946  43.474  14.414
72087W        W40428  15.264  12.164   0.361
72088W        W40429  31.533  28.449  14.986
72089W        W40430  12.799   1.247   1.776
72090W        W40431  25.104  44.848   0.895
72091W        W40432  43.426  36.349   4.319
72092W        W40433  33.526  37.411   5.166
72093W        W40434   0.943  33.026  13.858
72094W        W40435  18.623  43.492   1.296
72095W        W40436   7.314  30.107   2.416
72096W        W40437  24.020   2.271  14.940
72097W        W40438  20.715  24.491  11.033
72098W        W40439  43.502   4.272  11.551
72099W        W40440  41.040  21.645   0.247
72100W        W40441  38.561  11.796  11.923
72101W        W40442   6.294  36.018  12.351
72102W        W40443   7.677  27.010  11.387
72103W        W40444  24.643  20.090   3.239
72104W        W40445  14.149   4.378   2.747
72105W        W40446  13.713  34.544   2.215
72106W        W40447  36.927  15.112   1.404
72107W        W40448  31.433  19.206   4.216
72108W        W40449   6.741  39.540  14.987
72109W        W40450  26.988  35.423   0.309
72110W        W40451  30.485   5.868   2.852
72111W        W40452  27.026   8.826   2.191
72112W        W40453  30.055  21.090   4.161
72113W        W40454   0.397  14.653  11.521
72114W        W40455   5.744  35.441  13.928
72115W        W40456  31.154  17.670   0.877
72116W        W40457  10.865  38.426  14.790
72117W        W40458  29.961  36.517   2.379
72118W        W40459  20.717   8.772   0.928
72119W        W40460   4.230   9.249  13.920
72120W        W40461  36.538  41.408   5.164
72121W        W40462  15.689  32.985   1.881
72122W        W40463  34.404  23.224  11.423
72123W        W40464  22.103  24.134  12.501
72124W        W40465   7.187  38.493   0.848
72125W        W40466  36.918  12.769   0.254
72126W        W40467   2.728   4.718  10.959
72127W        W40468  22.673  17.659  13.485
72128W        W40469  33.426  39.330   4.758
72129W        W40470  24.011  18.577   5.777
72130W        W40471  24.102  14.113   1.853
72131W        W40472  11.631  18.249  10.484
72132W        W40473  43.021  24.221  11.399
72133W        W40474  16.258  28.651   2.248
72134W        W40475  29.073   7.359   3.690
72135W        W40476  22.551  12.125  11.003
72136W        W40477  10.819  10.640  12.530
72137W        W40478  36.913   6.207   1.447
72138W        W40479  37.382  15.630  13.862
72139W        W40480  44.905  34.864  14.993
72140W        W40481  16.127  33.402  11.878
72141W        W40482  44.820  39.949  13.976
72142W        W40483  10.674  41.950   4.242
72143W        W40484  42.361  44.439  14.327
72144W        W40485  12.151  26.178  14.994
72145W        W40486   0.329  23.056   3.348
72146W        W40487  39.551  31.474  11.408
72147W        W40488  18.607  14.298  10.612
72148W        W40489  30.550  29.023   3.374
72149W        W40490  26.680  11.733   2.852
72150W        W40491  11.631  19.098   2.294
72151W        W40492  35.398  31.074   3.317
72152W        W40493  42.442  25.999   4.139
72153W        W40494  17.647  21.615  14.863
72154W        W40495  16.806   8.815  13.358
72155W        W40496  40.886   8.716  14.018
72156W        W40497   7.202  40.937   2.679
72157W        W40498  28.466  24.038  12.057
72158W        W40499  29.666  40.513  14.874
72159W        W40500   2.957  10.181   0.335
72160W        W40501   2.872  23.680  10.426
72161W        W40502  32.510   3.733   4.728
72162W        W40503   0.420   6.230  12.536
72163W        W40504  40.516   9.368   4.760
72164W        W40505  43.973  22.684  10.572
72165W        W40506  29.088  26.140  12.344
72166W        W40507  13.144  15.729  11.104
72167W        W40508  15.130  22.532   3.658
72168W        W40509   3.755  26.599  10.016
72169W        W40510   8.245   8.772  10.945
72170W        W40511   8.774   5.729   4.248
72171W        W40512  43.329  40.316   1.864
72172W        W40513  43.844  38.363   4.677
72173W        W40514  27.622  32.921  10.573
72174W        W40515  36.572  35.468   3.785
72175W        W40516  34.494  41.464   1.352
72176W        W40517  42.805  32.571   1.424
72177W        W40518  40.906  19.621  13.875
72178W        W40519  14.299  37.847   4.687
72179W        W40520  21.048  32.560   0.285
72180W        W40521   1.736  19.712   3.222
72181W        W40522  28.666   1.856   1.402
72182W        W40523  12.200  42.396  12.499
72183W        W40524  20.058  32.456  12.553
72184W        W40525  39.952  34.017  14.489
72185W        W40526  39.049  19.139   4.332
72186W        W40527  15.314  28.937   2.318
72187W        W40528  17.560  15.196   3.196
72188W        W40529   3.453  31.519  13.023
72189W        W40530  18.216  42.955   5.170
72190W        W40531  21.711  26.545  11.066
72191W        W40532   4.271  37.009   0.309
72192W        W40533  10.796  36.909  13.036
72193W        W40534  12.666  26.513  14.932
72194W        W40535   8.406  42.931   4.121
72195W        W40536  25.696  42.369  14.883
72196W        W40537  43.339  29.584   1.365
72197W        W40538  38.531  12.238  11.998
72198W        W40539  42.519   7.313  12.016
72199W        W40540  17.765  16.573  13.898
72200W        W40541  34.070  31.132  13.809
72201W        W40542  15.215   6.710   4.826
72202W        W40543  29.118  13.116  13.487
72203W        W40544  16.798  37.033  14.356
72204W        W40545  13.140   8.664   5.113
72205W        W40546   5.802  43.287  11.906
72206W        W40547   0.837  27.665   2.802
72207W        W40548  36.030  27.031   2.261
72208W        W40549  30.416  43.008   2.730
72209W        W40550  17.688  23.186  11.091
72210W        W40551  44.359  43.883   3.762
72211W        W40552  32.896  37.968   3.313
72212W        W40553  21.152   3.230  11.951
72213W        W40554  38.506  22.678   0.452
72214W        W40555  43.447  35.473   0.394
72215W        W40556  12.310   4.330  12.517
72216W        W40557  23.086  44.824  12.503
72217W        W40558  24.979  30.554  10.974
72218W        W40559  12.786  13.672   1.765
72219W        W40560  34.042  37.075   0.765
72220W        W40561   1.312  12.790   4.737
72221W        W40562   2.227  39.376   3.365
72222W        W40563   7.694  13.610  11.899
72223W        W40564  18.229  27.446  11.472
72224W        W40565   7.172  23.147   1.382
72225W        W40566  32.397   9.810  12.389
72226W        W40567  19.733  28.679  12.040
72227W        W40568  29.932  44.974  10.468
72228W        W40569  15.139  22.588  13.421
72229W        W40570  14.723  30.541  14.337
72230W        W40571  24.691   5.200   2.895
72231W        W40572  43.000   8.823   2.763
72232W        W40573  44.980  21.727  12.040
72233W        W40574   9.212  27.177  12.982
72234W        W40575  11.252  42.972  14.501
72235W        W40576  35.999  18.700   0.905
72236W        W40577   1.413  31.489   2.725
72237W        W40578   0.356  18.626   1.766
72238W        W40579  22.145  19.602   0.264
72239W        W40580  26.071  16.183  14.349
72240W        W40581   0.387  28.150   1.436
72241W        W40582  17.209  29.544   4.345
72242W        W40583  32.417  41.966  14.853
72243W        W40584  27.607  36.462   3.287
72244W        W40585   8.716  24.599   1.698
72245W        W40586  41.496   8.265   2.309
72246W        W40587   9.196   7.214   4.631
72247W        W40588  41.292  38.835  12.878
72248W        W40589  17.166  24.580  10.506
72249W        W40590  10.276  29.601  13.531
72250W        W40591  33.997  21.250   3.698
72251W        W40592   1.954   6.880   4.784
72252W        W40593  16.666  22.595   2.249
72253W        W40594  20.233  32.936  11.890
72254W        W40595  29.940  34.470   1.449
72255W        W40596  14.302  37.856  10.443
72256W        W40597  23.180  22.507   0.361
72257W        W40598  43.327  27.114   0.800
72258W        W40599  20.691  19.105  10.506
72259W        W40600  18.546  26.653  14.367
72260W        W40601  15.148   3.893   4.127
72261W        W40602  37.513  23.663   4.197
72262W        W40603   7.284  18.758  14.905
72263W        W40604  14.107  24.532  13.392
72264W        W40605   1.262   9.680  11.453
72265W        W40606  40.316   7.879  12.462
72266W        W40607  31.576  41.480   1.719
72267W        W40608  37.852  25.102  14.857
72268W        W40609  12.745  10.659  14.444
72269W        W40610  27.492  21.618   0.823
72270W        W40611  39.455   8.827  13.816
72271W        W40612   3.815   8.194  11.375
72272W        W40613  15.629  31.423   2.301
72273W        W40614  39.487  24.206  14.497
72274W        W40615  43.839  39.513  12.823
72275W        W40616  20.166  40.503  13.403
72276W        W40617   1.799  23.732   4.258
72277W        W40618   9.333   9.382   0.404
72278W        W40619  16.645  17.230   1.826
72279W        W40620  12.361  21.193   2.396
72280W        W40621  38.966  19.600   4.827
72281W        W40622  17.176  18.763  13.998
72282W        W40623  28.062   1.864  12.352
72283W        W40624   8.384  18.052  11.411
72284W        W40625  40.803   3.259   1.228
72285W        W40626  10.846   4.370  13.371
72286W        W40627  13.735  11.847  14.283
72287W        W40628  37.053  10.341  12.917
72288W        W40629  24.615  24.207  11.077
72289W        W40630  44.918  44.479  13.482
72290W        W40631  39.477  15.600   0.417
72291W        W40632  31.958  12.630   1.301
72292W        W40633  43.357  20.070   1.437
72293W        W40634  27.963  27.447   2.328
72294W        W40635  18.235  36.967  11.939
72295W        W40636  44.388   0.968  11.488
72296W        W40637   5.439  29.983   4.134
72297W        W40638  22.557   4.405  12.879
72298W        W40639   5.342  30.445   0.277
72299W        W40640  15.797  40.033  10.515
72300W        W40641  15.801  41.445  12.082
72301W        W40642  32.060  35.865  13.042
72302W        W40643  23.609  44.269  11.600
72303W        W40644  27.540  14.247   3.766
72304W        W40645   7.335  35.497  14.986
72305W        W40646  25.062  12.241   2.283
72306W        W40647  34.110  30.532   3.338
72307W        W40648  43.824  16.700   1.293
72308W        W40649   4.252  11.230  10.519
72309W        W40650   1.783  18.685  14.323
72310W        W40651  17.130  33.599   3.855
72311W        W40652  32.902  41.391   1.412
72312W        W40653  14.137  27.561  10.994
72313W        W40654  39.018   4.704   3.851
72314W        W40655  22.132   4.266   3.678
72315W        W40656  40.905  22.145   1.874
72316W        W40657  11.671   1.971  13.965
72317W        W40658  27.661  18.179   4.218
72318W        W40659  16.774  35.045   2.408
72319W        W40660  21.102  22.043  12.916
72320W        W40661  27.174  37.564   3.146
72321W        W40662  43.981   8.691  10.621
72322W        W40663  41.452  29.570   2.273
72323W        W40664  23.519  23.689   0.397
72324W        W40665  40.468  15.262   2.308
72325W        W40666   0.292  32.137  12.488
72326W        W40667   4.805  44.313   0.319
72327W        W40668  39.555  19.589  13.007
72328W        W40669  36.959  42.423  12.558
72329W        W40670  10.647  40.324   1.817
72330W        W40671   6.920  22.610  13.030
72331W        W40672  41.516  38.936   1.255
72332W        W40673   0.434   2.785  14.420
72333W        W40674  28.532  17.596   3.830
72334W        W40675  31.900  13.832   1.794
72335W        W40676  36.975  25.544   3.729
72336W        W40677   9.344   5.435  11.413
72337W        W40678  23.132  29.547  12.892
72338W        W40679  30.065  41.488   4.169
72339W        W40680   6.753  42.981   1.823
72340W        W40681   7.215  30.002  10.902
72341W        W40682  30.416  15.765   0.321
72342W        W40683   6.785  18.155  14.825
72343W        W40684  30.422  40.962   0.376
72344W        W40685   6.756   4.233   3.242
72345W        W40686  38.389  42.832  11.861
72346W        W40687  37.858  26.599   4.698
72347W        W40688  11.213  44.968  14.285
72348W        W40689   1.845  29.046  14.347
72349W        W40690   4.288  44.837   4.299
72350W        W40691  37.955  43.866  10.626
72351W        W40692  30.519  39.509   2.768
72352W        W40693  34.067  23.215  11.918
72353W        W40694  10.833  42.388   0.741
72354W        W40695  38.052  30.446  14.432
72355W        W40696  31.056  22.197   1.742
72356W        W40697  18.627  23.072  13.936
72357W        W40698  41.407   6.784   2.677
72358W        W40699  44.807   5.374  10.984
72359W        W40700  11.667   9.317  13.350
72360W        W40701  42.304  32.106   1.741
72361W        W40702   0.292  43.422  13.807
72362W        W40703  13.271  14.666  14.338
72363W        W40704   7.698  43.374  12.963
72364W        W40705  15.249  22.033   4.218
72365W        W40706  11.706   2.785  14.988
72366W        W40707  26.644   9.156   3.171
72367W        W40708  27.542  34.555   1.760
72368W        W40709   8.346   4.775   0.310
72369W        W40710  44.896  43.305  11.038
72370W        W40711  22.998   4.888   1.826
72371W        W40712  24.137  19.173   1.917
72372W        W40713  22.120   8.322   1.890
72373W        W40714  42.839  44.892  11.544
72374W        W40715  25.990  18.633  12.545
72375W        W40716   2.382  38.824   1.449
72376W        W40717  11.843  15.104   1.223
72377W        W40718  15.747   7.213   0.886
72378W        W40719  11.164  20.169   2.256
72379W        W40720  22.064  27.186  12.416
72380W        W40721  23.082  30.515  12.998
72381W        W40722  25.086   1.801  12.345
72382W        W40723  10.841  44.817  12.530
72383W        W40724   6.893  33.894  14.286
72384W        W40725  42.906   2.939  11.084
72385W        W40726   4.313  18.703   4.285
72386W        W40727   9.307   7.716   0.956
72387W        W40728  26.094  44.931   1.896
72388W        W40729  32.623   4.943  13.830
72389W        W40730  30.491  36.365  14.465
72390W        W40731  36.358  14.275  13.382
72391W        W40732  40.509   6.845   4.309
72392W        W40733  24.493  21.118   1.740
72393W        W40734  44.869  16.594  13.374
72394W        W40735  27.083  20.736  10.471
72395W        W40736  17.597  25.057  10.428
72396W        W40737  22.207  11.865  11.386
72397W        W40738  18.556  31.048   1.334
72398W        W40739  40.380  17.700   2.684
72399W        W40740  28.094  14.112  14.993
72400W        W40741  25.669  43.502   4.646
72401W        W40742  13.113  41.931   3.827
72402W        W40743  33.474   7.259   4.172
72403W        W40744  15.187  13.829   0.483
72404W        W40745  30.443  43.292  11.568
72405W        W40746   5.896  37.005   4.327
72406W        W40747  15.277   5.846   2.208
72407W        W40748  30.056   9.389  13.313
72408W        W40749   8.830  11.721   2.681
72409W        W40750  24.504   9.853   2.710
72410W        W40751  35.883  16.629   3.155
72411W        W40752   5.210  20.110  11.116
72412W        W40753  43.774   5.727   0.904
72413W        W40754   4.728  40.047  10.049
72414W        W40755  40.859  37.864  14.373
72415W        W40756   8.178  12.359  12.025
72416W        W40757   5.317  35.082   2.766
72417W        W40758  39.814  43.866  12.570
72418W        W40759   1.956  17.308   0.429
72419W        W40760  41.358   3.768   1.390
72420W        W40761   9.318  19.565   3.362
72421W        W40762   0.461  29.615  12.973
72422W        W40763  16.304  15.600   3.300
72423W        W40764  37.563  15.722   1.295
72424W        W40765  25.131   4.328   3.752
72425W        W40766  12.349  12.295   0.912
72426W        W40767   7.324  16.089   0.475
72427W        W40768  16.212  34.451   5.804
72428W        W40769  31.927  17.206  11.476
72429W        W40770  27.613   1.319  11.534
72430W        W40771  13.725  21.155  14.464
72431W        W40772  30.033   3.348   3.312
72432W        W40773  14.683  10.244   2.268
72433W        W40774  10.295  24.548  14.765
72434W        W40775  34.537  35.898   0.904
72435W        W40776  30.566  24.176  11.908
72436W        W40777  34.025  23.504   2.414
72437W        W40778   2.288  12.298   1.365
72438W        W40779  35.106   6.792   0.272
72439W        W40780  19.752   2.260  14.442
72440W        W40781  28.086   0.388   1.426
72441W        W40782  38.376  39.381  12.957
72442W        W40783  41.369  13.798  13.951
72443W        W40784   7.702  24.108   1.233
72444W        W40785  43.959  33.505  10.913
72445W        W40786  31.923  19.220   4.778
72446W        W40787  44.959  26.100  13.847
72447W        W40788  36.508   5.224  12.520
72448W        W40789  37.429  30.992  14.823
72449W        W40790   0.492  13.240  10.893
72450W        W40791  19.081  19.050  14.490
72451W        W40792   8.259  23.673   1.785
72452W        W40793  25.220   4.815  11.552
72453W        W40794  13.749   7.729   0.831
72454W        W40795   6.789   1.482  11.982
72455W        W40796  23.570   9.676  10.474
72456W        W40797  31.612  20.179   2.226
72457W        W40798  30.419  31.001   4.339
72458W        W40799  30.475  34.863  13.326
72459W        W40800  19.242  13.287   2.663
72460W        W40801  19.073  13.769  12.973
72461W        W40802  23.081  24.013  14.018
72462W        W40803   1.237  32.143  13.887
72463W        W40804  22.010  24.670  12.997
72464W        W40805  14.656   6.833  14.317
72465W        W40806  28.674  17.077  10.549
72466W        W40807  22.099  37.415   2.820
72467W        W40808  25.487  30.627  11.859
72468W        W40809  23.133  15.662  13.438
72469W        W40810  18.685  14.124   9.984
72470W        W40811  32.977  27.505   1.253
72471W        W40812   8.299  30.981  13.379
72472W        W40813  31.094  36.508  10.439
72473W        W40814   1.468  25.602   4.162
72474W        W40815  23.049  22.083   3.757
72475W        W40816  29.616  23.700  10.097
72476W        W40817  11.308  14.596   0.408
72477W        W40818  34.059  25.144   3.151
72478W        W40819  41.480  35.037   4.239
72479W        W40820  23.017  22.121  13.468
72480W        W40821  41.397   8.201   2.801
72481W        W40822  18.596  35.064  13.468
72482W        W40823  14.137  23.605   2.875
72483W        W40824  25.481  15.318   4.286
72484W        W40825  21.537  32.472  11.505
72485W        W40826  14.322  26.000  13.425
72486W        W40827  12.766  20.557   2.374
72487W        W40828  32.409  34.592   2.392
72488W        W40829   4.354  41.007  14.443
72489W        W40830  16.690  24.030  13.447
72490W        W40831  39.040  24.159   3.725
72491W        W40832  43.348  12.130   2.299
72492W        W40833  29.977   2.432   2.341
72493W        W40834  33.528  36.005   4.691
72494W        W40835   7.771  23.716   0.436
72495W        W40836  12.726   5.296  14.498
72496W        W40837  38.363  35.921  13.413
72497W        W40838  24.215   7.818  10.526
72498W        W40839  43.294  28.179   3.196
72499W        W40840  38.455  43.871  11.062
72500W        W40841  31.152  24.618   0.847
72501W        W40842  43.353  17.581  11.573
72502W        W40843  16.195  16.699   4.271
72503W        W40844   1.766   1.289   3.382
72504W        W40845  39.047  39.955   3.272
72505W        W40846   3.808   1.266   1.783
72506W        W40847   5.389  25.031   2.776
72507W        W40848  39.535  17.117  10.406
72508W        W40849  44.872  17.061  10.925
72509W        W40850   2.332   3.340  10.588
72510W        W40851   5.806   9.343  13.940
72511W        W40852   0.313  41.999   4.717
72512W        W40853  13.215  31.535  14.472
72513W        W40854  11.243  24.182   2.409
72514W        W40855  34.879   9.754   3.180
72515W        W40856  12.796  25.526  13.833
72516W        W40857  31.597  26.471   2.714
72517W        W40858  13.685  17.077   2.217
72518W        W40859   5.692  21.252  14.484
72519W        W40860   5.317  35.061   4.791
72520W        W40861  37.450  20.706   4.674
72521W        W40862   1.237   9.713   4.188
72522W        W40863  23.227   3.303  13.410
72523W        W40864  30.111  27.582   2.236
72524W        W40865  26.056  35.579  12.895
72525W        W40866   3.804  31.554  13.020
72526W        W40867  32.583  20.155   4.146
72527W        W40868  21.671  13.154   1.429
72528W        W40869  41.805  34.379   3.251
72529W        W40870   1.760  14.634   1.870
72530W        W40871  11.642  15.811  12.400
72531W        W40872   4.929   9.734  14.982
72532W        W40873   8.350  15.588   1.720
72533W        W40874  43.364   2.386   1.840
72534W        W40875  16.779   0.973   3.202
72535W        W40876   6.407  19.743  14.361
72536W        W40877  12.161  31.976   4.614
72537W        W40878  39.527   4.241  13.909
72538W        W40879  43.946  21.711   2.181
72539W        W40880  11.198  19.161  11.602
72540W        W40881  20.230   2.390   2.710
72541W        W40882  15.672  27.548   4.188
72542W        W40883  34.058   3.230  10.461
72543W        W40884  26.138  23.493  14.377
72544W        W40885  39.325  43.305  13.863
72545W        W40886  37.406  29.425   3.344
72546W        W40887  21.143  34.509  12.504
72547W        W40888  16.077  20.571  14.870
72548W        W40889   4.713  22.665  11.056
72549W        W40890  39.857  21.564   4.262
72550W        W40891  15.091  31.114  12.074
72551W        W40892  20.729   2.757   0.310
72552W        W40893  34.560  36.528   2.401
72553W        W40894  44.856  17.561   0.372
72554W        W40895   7.748  23.162   1.719
72555W        W40896  38.349  41.418  11.586
72556W        W40897  19.696   2.956   3.304
72557W        W40898  44.874  16.802  11.986
72558W        W40899  12.284   9.660   0.743
72559W        W40900  42.952   4.848  14.312
72560W        W40901  11.133   0.790  14.000
72561W        W40902  36.509   5.219   4.330
72562W        W40903  15.221   1.244   1.824
72563W        W40904  30.036  30.520   1.446
72564W        W40905   3.862   1.833  12.509
72565W        W40906   4.836   5.235  13.889
72566W        W40907  28.628  13.284  10.997
72567W        W40908  11.664  26.998   1.763
72568W        W40909  32.407  21.579  14.919
72569W        W40910   1.244  30.576   3.662
72570W        W40911  29.986  22.226  13.541
72571W        W40912  35.866  24.546  14.824
72572W        W40913  18.261  43.866  11.052
72573W        W40914  44.971  33.912  14.994
72574W        W40915  36.365  40.825   0.447
72575W        W40916  33.571   2.332   4.124
72576W        W40917  38.524  34.061   1.860
72577W        W40918  40.342  12.844  11.018
72578W        W40919   8.229  44.293   3.819
72579W        W40920  34.527   9.735   2.671
72580W        W40921   9.753  28.471   1.798
72581W        W40922  14.274   6.864  11.926
72582W        W40923   6.306  29.514   0.427
72583W        W40924  17.622  32.039   0.938
72584W        W40925  30.425  25.054  13.847
72585W        W40926  27.535  22.191   4.196
72586W        W40927  19.091   8.810  14.447
72587W        W40928  35.862  34.476   3.326
72588W        W40929  23.660   7.302   1.899
72589W        W40930  42.364   3.447   2.767
72590W        W40931  29.580  19.215  10.985
72591W        W40932  27.114  16.658  13.534
72592W        W40933   2.410  22.242   3.241
72593W        W40934   2.763  14.265  13.979
72594W        W40935  26.046  26.153  11.037
72595W        W40936   7.226   0.308   2.361
72596W        W40937  13.242   7.793   1.262
72597W        W40938  41.528  11.860   1.435
72598W        W40939  32.572   1.431   3.851
72599W        W40940  30.501   2.756   0.314
72600W        W40941  32.024  44.455   1.831
72601W        W40942  42.783  40.411   2.788
72602W        W40943  34.025  18.559  14.507
72603W        W40944  27.688  27.483  12.889
72604W        W40945   5.924  41.928   3.247
72605W        W40946  37.849  39.553   2.803
72606W        W40947   9.297   0.939  13.901
72607W        W40948  12.653  28.055  11.554
72608W        W40949  25.501   6.820  14.286
72609W        W40950   2.736  31.438   1.210
72610W        W40951  28.040  23.011  12.966
72611W        W40952  35.010   5.246  12.512
72612W        W40953  37.901  28.110   2.335
72613W        W40954  42.936  14.284  12.527
72614W        W40955  14.278  25.120  14.399
72615W        W40956  34.607   0.275   1.935
72616W        W40957  20.623   0.889   0.924
72617W        W40958  16.813  12.632   2.279
72618W        W40959  22.730  14.692  11.949
72619W        W40960  40.924  33.487   3.741
72620W        W40961  22.553   8.217   4.709
72621W        W40962  40.924  16.120  13.470
72622W        W40963  26.565  12.339   2.223
72623W        W40964  32.004   7.358  13.456
72624W        W40965   0.844  13.767   3.347
72625W        W40966  16.084  31.430   3.284
72626W        W40967  38.366   2.960   3.345
72627W        W40968  21.195  40.893  13.054
72628W        W40969   6.769  19.572   0.828
72629W        W40970  17.604   3.347  12.866
72630W        W40971  12.689  38.987   0.923
72631W        W40972  40.945   0.926   2.684
72632W        W40973  15.653  43.294  14.993
72633W        W40974  26.187  14.723   0.292
72634W        W40975  12.318  12.205   9.452
72635W        W40976  20.095  37.381  13.441
72636W        W40977  11.724  43.012  14.019
72637W        W40978   6.349  34.565   2.861
72638W        W40979  38.876  34.040   4.224
72639W        W40980  23.685  10.298   2.704
72640W        W40981   9.332  43.943  14.436
72641W        W40982  15.098  20.562  14.500
72642W        W40983   2.942  18.781   2.664
72643W        W40984  31.560  13.793   1.874
72644W        W40985  33.515  20.737  10.011
72645W        W40986  28.506   8.671  11.999
72646W        W40987   6.761  32.620  10.452
72647W        W40988  38.431  10.633   0.477
72648W        W40989  21.601   7.898   4.794
72649W        W40990  44.890  12.820   0.921
72650W        W40991  41.491  32.985  14.854
72651W        W40992  19.051  27.189  10.917
72652W        W40993   1.831  27.639   3.838
72653W        W40994  42.305  42.410  11.035
72654W        W40995  25.641  26.661   5.293
72655W        W40996  13.741  35.583   2.389
72656W        W40997  39.417  40.890   2.240
72657W        W40998   2.955   9.195  12.038
72658W        W40999  19.095  44.811  11.411
72659W        W41000  38.360  27.570  12.496
72660W        W41001   0.978  33.536  13.968
72661W        W41002  31.112  35.068   3.776
72662W        W41003   1.383  15.594  14.803
72663W        W41004  34.580  26.191   1.415
72664W        W41005  23.660  11.718   1.417
72665W        W41006  28.654  24.722  13.809
72666W        W41007  27.088  22.143   3.753
72667W        W41008   2.329  23.197   4.187
72668W        W41009  31.087   4.794   3.356
72669W        W41010  13.186  26.059  11.574
72670W        W41011   3.821  40.457  12.950
72671W        W41012  28.510  10.200  14.810
72672W        W41013  32.548  39.338  13.343
72673W        W41014   5.284   6.243   2.871
72674W        W41015  10.681   7.809   1.394
72675W        W41016  11.759  21.627  12.838
72676W        W41017  22.209   3.250   0.806
72677W        W41018  36.007  12.221  12.976
72678W        W41019   8.261  33.423   4.121
72679W        W41020  20.066  16.590  14.340
72680W        W41021  20.145  31.444  10.482
72681W        W41022  36.494   3.834   0.958
72682W        W41023  40.508  41.924   2.745
72683W        W41024   7.310  29.527   2.798
72684W        W41025  44.934  26.503   1.310
72685W        W41026  39.817  19.206   3.688
72686W        W41027  23.685  39.023   0.832
72687W        W41028  29.944  13.600   4.800
72688W        W41029  28.580  22.545  11.037
72689W        W41030  40.438  42.439  12.950
72690W        W41031  36.969  27.094  13.525
72691W        W41032   0.428  23.101   1.780
72692W        W41033  14.299  34.568   2.808
72693W        W41034  31.059  25.627   4.156
72694W        W41035  36.887   6.418  12.906
72695W        W41036   8.794  10.737   4.709
72696W        W41037  40.862  25.579   4.748
72697W        W41038  34.894   9.301   4.191
72698W        W41039  30.088   0.797   4.148
72699W        W41040  38.921  42.855   2.320
72700W        W41041   9.873  23.668  14.937
72701W        W41042  37.004  36.088   0.909
72702W        W41043  24.024  27.995  10.146
72703W        W41044  30.048  15.765   2.234
72704W        W41045  32.507  22.611   4.697
72705W        W41046  28.056  16.106   3.188
72706W        W41047   0.412  41.471  14.368
72707W        W41048  25.583  42.850   3.817
72708W        W41049  35.460  22.505   1.261
72709W        W41050  30.147  29.502  13.399
72710W        W41051  21.142  43.475  14.019
72711W        W41052   3.362  35.986  10.123
72712W        W41053  24.094  28.469   9.655
72713W        W41054   7.863  41.297  11.052
72714W        W41055  15.735   5.403   4.325
72715W        W41056  10.747  11.156  12.870
72716W        W41057  23.060  35.426  12.502
72717W        W41058  26.527  38.477  14.827
72718W        W41059  19.694   8.830   4.805
72719W        W41060  34.873  28.166   0.923
72720W        W41061  41.879   3.884   4.124
72721W        W41062  19.681  35.454  12.356
72722W        W41063  22.134  31.561   1.884
72723W        W41064  29.624   9.195  12.343
72724W        W41065  10.774  17.168   3.777
72725W        W41066   2.910  23.522   0.847
72726W        W41067  22.022  23.144   0.428
72727W        W41068   2.425  14.716  12.393
72728W        W41069  22.181  40.923  10.973
72729W        W41070  11.756  41.392   4.193
72730W        W41071  22.239  12.792  11.907
72731W        W41072   2.759  25.096   3.232
72732W        W41073  32.913  26.496  11.427
72733W        W41074  20.255   0.798  14.026
72734W        W41075  41.907  41.865   9.540
72735W        W41076  14.773  12.278  12.906
72736W        W41077  20.576  18.642  11.582
72737W        W41078  23.670   2.247   2.266
72738W        W41079   1.238   0.312  11.457
72739W        W41080  11.264  11.224   2.846
72740W        W41081   1.328  11.200  14.383
72741W        W41082  27.996  36.919   2.777
72742W        W41083  18.743  27.941  11.436
72743W        W41084  43.932   6.901  14.276
72744W        W41085   7.392  39.505   4.753
72745W        W41086  12.719  40.531   1.250
72746W        W41087  12.151  18.718   2.369
72747W        W41088  38.968  20.175   1.297
72748W        W41089  43.427  21.561   0.279
72749W        W41090   4.373   0.463  14.515
72750W        W41091  43.004   1.316  11.078
72751W        W41092  26.457  35.410   4.820
72752W        W41093  30.639  20.604  12.355
72753W        W41094  28.563   6.369   1.806
72754W        W41095  16.724  43.423   3.649
72755W        W41096  22.679  23.087  13.386
72756W        W41097  20.063  29.565  10.503
72757W        W41098  30.082   9.297   0.781
72758W        W41099  17.140   3.772   4.647
72759W        W41100  26.964   5.749   3.274
72760W        W41101  24.111  33.591   4.235
72761W        W41102  35.377   8.660   4.617
72762W        W41103   8.831  25.201  10.889
72763W        W41104   8.270  40.329   4.326
72764W        W41105   5.850   2.339  13.864
72765W        W41106  11.192  21.110   1.792
72766W        W41107  22.108  19.577   1.251
72767W        W41108  18.267  10.190   3.637
72768W        W41109  37.919  29.045  11.970
72769W        W41110  24.663  39.353  10.531
72770W        W41111  26.520   0.951   0.435
72771W        W41112  37.036   3.401   2.333
72772W        W41113  21.670  13.793  13.362
72773W        W41114  13.313  39.377  12.906
72774W        W41115  27.945  42.978  11.021
72775W        W41116   4.403  21.576   3.803
72776W        W41117  32.004  39.814  10.965
72777W        W41118   7.682  43.505  11.953
72778W        W41119   9.279   2.270  14.320
72779W        W41120  28.177   7.792   4.708
72780W        W41121   1.835   4.759   2.838
72781W        W41122  30.616   7.686  10.449
72782W        W41123  22.665  27.582   4.212
72783W        W41124  15.589  36.465  14.397
72784W        W41125  12.334   8.663  14.374
72785W        W41126  29.159  40.408  11.602
72786W        W41127  36.589  17.768  13.501
72787W        W41128  31.492  31.141  13.853
72788W        W41129   2.458  26.097   1.787
72789W        W41130   3.850  42.979   4.789
72790W        W41131  11.293  15.798  13.426
72791W        W41132   8.759  12.653  14.510
72792W        W41133  40.435  28.473   0.780
72793W        W41134   3.830  12.721   0.477
72794W        W41135  35.554   0.328   1.247
72795W        W41136  37.580  39.888  10.001
72796W        W41137   0.439  38.966  11.494
72797W        W41138  35.888  42.517  13.059
72798W        W41139  24.198   2.826  11.941
72799W        W41140  39.974  23.102   4.152
72800W        W41141  25.640  31.075  11.050
72801W        W41142   5.206  31.016   1.369
72802W        W41143  42.850  38.444  11.560
72803W        W41144  41.531  28.557   2.845
72804W        W41145  33.035  43.978  11.465
72805W        W41146  34.951  21.516   2.816
72806W        W41147   9.317  19.556  13.546
72807W        W41148  29.001   4.753   4.332
72808W        W41149  38.823  32.923  11.433
72809W        W41150  13.716  39.885   2.699
72810W        W41151  40.840  15.821   0.329
72811W        W41152  33.470  18.666   2.788
72812W        W41153  16.308  20.666   9.993
72813W        W41154  29.567  16.643   2.754
72814W        W41155  36.915  13.779  12.524
72815W        W41156  20.239  26.619  14.768
72816W        W41157  14.752  25.517  13.374
72817W        W41158  16.167  29.035  13.985
72818W        W41159  33.596  13.124   4.643
72819W        W41160  21.063   0.389  10.103
72820W        W41161  34.486  28.578  14.787
72821W        W41162  39.037   9.253   0.778
72822W        W41163  10.766   6.240  13.499
72823W        W41164   0.295  21.252   1.912
72824W        W41165  20.621   9.149  14.384
72825W        W41166  26.107  28.524  13.516
72826W        W41167   6.402   9.300   3.302
72827W        W41168   0.409  43.916  14.404
72828W        W41169   9.166  25.083   3.708
72829W        W41170  41.034  34.896  14.275
72830W        W41171  31.902  27.467   0.316
72831W        W41172  44.286  21.699   2.760
72832W        W41173  37.375  15.630  12.442
72833W        W41174  43.356  26.105   4.747
72834W        W41175  35.388  29.080  13.330
72835W        W41176  24.684  37.364   4.114
72836W        W41177   1.903  13.779  13.893
72837W        W41178  44.449   4.310   0.340
72838W        W41179  27.111   8.684   0.402
72839W        W41180   6.783  17.588   2.377
72840W        W41181  27.008  21.743   4.660
72841W        W41182  29.920  44.431  11.999
72842W        W41183  34.487  39.399   5.236
72843W        W41184  17.757   1.356  12.410
72844W        W41185   8.835   0.978  13.516
72845W        W41186  23.109  10.317  10.923
72846W        W41187  19.131  23.064   9.941
72847W        W41188  23.664  36.863   3.649
72848W        W41189  34.406  33.050   0.891
72849W        W41190  17.760   5.401  11.996
72850W        W41191   3.926  26.673   2.848
72851W        W41192  28.935  37.897  12.513
72852W        W41193  37.577  21.156  12.388
72853W        W41194  38.974  38.345  11.974
72854W        W41195   4.438   1.399  10.596
72855W        W41196  32.923  13.299   0.376
72856W        W41197  27.597   8.194  13.932
72857W        W41198  40.034  21.666   4.627
72858W        W41199  42.480  19.585  14.484
72859W        W41200  27.985  28.489  13.517
72860W        W41201  27.664  11.724   2.804
72861W        W41202  39.943  16.311  13.053
72862W        W41203  24.608  29.135   0.854
72863W        W41204   5.905  10.861   0.839
72864W        W41205  20.128  15.765   0.404
72865W        W41206  36.415  19.747   9.952
72866W        W41207  16.303   4.872  14.478
72867W        W41208  29.625  39.527   2.824
72868W        W41209   2.884  13.169   4.822
72869W        W41210  26.648   5.843   4.316
72870W        W41211   1.865  23.204   2.682
72871W        W41212  42.977   1.460   0.814
72872W        W41213  34.937   3.928   3.340
72873W        W41214  27.112  26.620   9.618
72874W        W41215   2.369  31.122   3.201
72875W        W41216  12.312  10.698  11.572
72876W        W41217  14.262   4.240  10.538
72877W        W41218  24.568  10.877  14.001
72878W        W41219  20.038  33.552  13.977
72879W        W41220  19.773   6.850   3.299
72880W        W41221  16.289  44.382  13.917
72881W        W41222  22.728   8.727  12.847
72882W        W41223  10.371  11.806   0.935
72883W        W41224  33.055  26.661   0.782
72884W        W41225   7.194  21.110   3.843
72885W        W41226  40.991  17.235  10.932
72886W        W41227   3.905  35.099  14.503
72887W        W41228  12.822  21.123   4.706
72888W        W41229  29.620  31.027   4.752
72889W        W41230  34.372  43.795   1.243
72890W        W41231  13.694  14.131  11.983
72891W        W41232  32.908  17.711  12.563
72892W        W41233  31.457  40.425  10.929
72893W        W41234  27.607   0.809  13.976
72894W        W41235   3.219  16.300   3.828
72895W        W41236  15.206  33.970  12.563
72896W        W41237  17.116   1.479  11.490
72897W        W41238  33.489  22.148  12.348
72898W        W41239  19.124  25.112  12.361
72899W        W41240  13.637   1.322   0.908
72900W        W41241  42.425  10.845  13.461
72901W        W41242  42.353  12.277  13.984
72902W        W41243  32.520  37.407   2.220
72903W        W41244   9.159  15.604  10.081
72904W        W41245  20.093  13.787  12.043
72905W        W41246  21.728  19.650   4.205
72906W        W41247   1.868  26.067   2.773
72907W        W41248  15.782  35.455   1.856
72908W        W41249  30.525  23.518  12.090
72909W        W41250  25.687  37.047  10.893
72910W        W41251  24.166  16.107   3.204
72911W        W41252  11.813  37.943   1.741
72912W        W41253  14.654  11.130  11.425
72913W        W41254  15.585   8.397  12.463
72914W        W41255  10.325  40.527  11.004
72915W        W41256  38.065   6.775  13.935
72916W        W41257  44.811   7.785  14.822
72917W        W41258  22.082   1.812  14.814
72918W        W41259   1.805  15.748   1.818
72919W        W41260   6.895  13.143  12.830
72920W        W41261  26.526  34.563  11.051
72921W        W41262  18.658  14.785   2.190
72922W        W41263  16.275  44.361   3.709
72923W        W41264  17.187   4.884   0.451
72924W        W41265   4.343  29.050  14.938
72925W        W41266   3.284  15.657   0.431
72926W        W41267   7.372   6.370   0.962
72927W        W41268   8.870   7.901  13.340
72928W        W41269  32.141  28.002  11.467
72929W        W41270  35.069  11.239   4.774
72930W        W41271  28.983   5.331   4.632
72931W        W41272   5.888  44.757   1.405
72932W        W41273  33.589   7.840  11.084
72933W        W41274  17.564   2.276   1.802
72934W        W41275  15.816  18.295  13.502
72935W        W41276  39.824  24.032  11.016
72936W        W41277  31.007  40.452   0.350
72937W        W41278  13.191  36.970   2.811
72938W        W41279  29.137  30.069   4.195
72939W        W41280   4.204  28.100  11.873
72940W        W41281   0.843  35.480   3.298
72941W        W41282  13.230  35.929  10.552
72942W        W41283  36.376  22.026  13.388
72943W        W41284  33.905   3.898   2.816
72944W        W41285  20.565  35.455  12.985
72945W        W41286  33.524  12.763  14.308
72946W        W41287  24.658   9.343  12.340
72947W        W41288   6.277   9.286  12.038
72948W        W41289  15.101  19.202   0.749
72949W        W41290  28.622   6.250   3.745
72950W        W41291  15.608  15.667   9.921
72951W        W41292   1.909  41.459  13.825
72952W        W41293  21.028  31.640   4.607
72953W        W41294  23.079  42.801   4.713
72954W        W41295  12.319   2.321  11.921
72955W        W41296  28.963  24.144  14.028
72956W        W41297  11.810  17.688   0.958
72957W        W41298   7.398  17.118   3.829
72958W        W41299  39.908  22.711   4.259
72959W        W41300  18.233   2.233  14.894
72960W        W41301  37.535  21.105   5.301
72961W        W41302  11.187  26.001   4.355
72962W        W41303  15.127  36.878  10.937
72963W        W41304  14.742   8.198  10.492
72964W        W41305  35.054  22.698   2.870
72965W        W41306  27.471  29.995  12.941
72966W        W41307  40.953  17.749   3.367
72967W        W41308  24.066  33.426  13.996
72968W        W41309  34.044   5.295   0.949
72969W        W41310   9.190  13.678  10.434
72970W        W41311  41.894  23.552  13.923
72971W        W41312   4.211   4.922  10.408
72972W        W41313   9.664  20.249   2.305
72973W        W41314  23.081  31.108   1.319
72974W        W41315  44.330   0.942   4.352
72975W        W41316  39.972  43.990   2.259
72976W        W41317  10.675  35.514   2.687
72977W        W41318   2.832   0.363   2.719
72978W        W41319  25.115  11.855  12.922
72979W        W41320  31.541  27.997  12.886
72980W        W41321  39.980  41.392   2.741
72981W        W41322  21.518  42.447   2.265
72982W        W41323   9.839   3.233  11.950
72983W        W41324   5.853  36.587   3.792
72984W        W41325  18.186  31.014  11.402
72985W        W41326  37.867  30.653  14.956
72986W        W41327   6.902  20.196   4.815
72987W        W41328  17.207  17.728  11.083
72988W        W41329  16.608  20.233  12.387
72989W        W41330   9.180  35.376   0.818
72990W        W41331  12.300  26.057  13.017
72991W        W41332  10.680  26.981  13.464
72992W        W41333  27.967  30.416   0.446
72993W        W41334  44.780  11.638   4.283
72994W        W41335  20.569   2.390   1.713
72995W        W41336   3.820  40.043  14.424
72996W        W41337  14.245  24.546   2.195
72997W        W41338  15.270  10.867   3.154
72998W        W41339  14.672  10.788  10.540
72999W        W41340  11.662  15.675   4.167
73000W        W41341  33.471   2.884  13.858
73001W        W41342  16.778  11.280  12.492
73002W        W41343  23.679   4.434  13.813
73003W        W41344   9.764  36.410   4.756
73004W        W41345   3.919  28.963   1.843
73005W        W41346  20.212  25.979  14.948
73006W        W41347   4.389  10.339   0.800
73007W        W41348   5.422  33.948   1.290
73008W        W41349  18.573   6.733  12.449
73009W        W41350   0.936   6.362   5.176
73010W        W41351  15.812   5.860  12.882
73011W        W41352   1.388  42.336  13.436
73012W        W41353   7.748  24.128   2.702
73013W        W41354  41.316   3.846   4.827
73014W        W41355  44.845  22.625   1.431
73015W        W41356  37.452   8.814   0.421
73016W        W41357  19.738  39.874   1.341
73017W        W41358  27.469  24.011   0.451
73018W        W41359  32.968   9.651   1.821
73019W        W41360  25.503  11.277  12.466
73020W        W41361  23.659  35.485   0.759
73021W        W41362  34.957  14.294  13.800
73022W        W41363  20.204  31.976   1.325
73023W        W41364  15.119  38.332  14.928
73024W        W41365  20.169  28.439   1.261
73025W        W41366   2.778   5.848   1.215
73026W        W41367  16.141  25.618  10.893
73027W        W41368  32.504  27.461  14.460
73028W        W41369  23.021   7.910   3.298
73029W        W41370  26.596  20.673  11.381
73030W        W41371  34.409  44.806  12.368
73031W        W41372  33.957  35.579   2.745
73032W        W41373  12.855  22.652   3.789
73033W        W41374  12.229  23.189  12.536
73034W        W41375   7.293  22.655  11.892
73035W        W41376  10.354   6.249  12.388
73036W        W41377  21.050   0.749   4.308
73037W        W41378  14.712  36.988   3.367
73038W        W41379  34.023  25.113  13.322
73039W        W41380  19.709  24.688  10.994
73040W        W41381   1.752   9.319   0.343
73041W        W41382  37.949  26.143   3.806
73042W        W41383  42.415  31.908   0.903
73043W        W41384   4.317  14.238   3.156
73044W        W41385  16.726  33.579   1.762
73045W        W41386  29.981  23.711  10.496
73046W        W41387   0.387  17.630   4.724
73047W        W41388   2.411   9.648  10.583
73048W        W41389   7.893  24.042  10.958
73049W        W41390  16.783  39.890  14.294
73050W        W41391   7.790  43.319   2.832
73051W        W41392  32.124  15.085   4.772
73052W        W41393  33.484   0.860   3.282
73053W        W41394  31.494   3.848   2.208
73054W        W41395  44.438  26.691  13.387
73055W        W41396  31.997  15.237  14.758
73056W        W41397   8.276  29.082  13.510
73057W        W41398   2.865  33.447   1.214
73058W        W41399  12.132  32.521  14.799
73059W        W41400  22.555  13.650   0.396
73060W        W41401  22.186  21.598  10.535
73061W        W41402   8.838  10.781  11.456
73062W        W41403  35.924  38.362  13.830
73063W        W41404   5.375  12.714   4.747
73064W        W41405  35.474  42.458  12.052
73065W        W41406   5.392  44.803  14.442
73066W        W41407  25.032   6.726   4.147
73067W        W41408   1.867   0.375   2.313
73068W        W41409  30.568   2.408   4.306
73069W        W41410  44.933  37.968  12.370
73070W        W41411  39.049   3.730   3.161
73071W        W41412  27.524   6.686  12.848
73072W        W41413  12.227   3.739   2.822
73073W        W41414  38.474  35.917   1.270
73074W        W41415   8.901  33.423  14.330
73075W        W41416  44.417  22.045  12.547
73076W        W41417  17.093   5.411   2.686
73077W        W41418  40.018  13.690   0.799
73078W        W41419  28.546   3.396   5.104
73079W        W41420  18.607  25.676  13.475
73080W        W41421  39.349  16.202   3.308
73081W        W41422   1.302  18.615   9.943
73082W        W41423  29.003  33.388  11.582
73083W        W41424  43.354  30.014  12.438
73084W        W41425  15.578   8.189   4.213
73085W        W41426  19.233  16.761  11.871
73086W        W41427  28.071   0.915  11.371
73087W        W41428   1.358   9.316   2.744
73088W        W41429   5.339  29.500   2.271
73089W        W41430  39.907  43.510   0.285
73090W        W41431  42.297  35.554   4.135
73091W        W41432  10.243  26.129  10.966
73092W        W41433  16.302  11.183  12.460
73093W        W41434  12.219  37.953  13.000
73094W        W41435   7.226   3.234   1.872
73095W        W41436   5.408  23.735   3.749
73096W        W41437  40.339  37.927  12.966
73097W        W41438  43.301  10.354   2.740
73098W        W41439  24.975  11.339  10.546
73099W        W41440  30.656   0.814  13.466
73100W        W41441  22.665  39.365   2.281
73101W        W41442  30.141  31.527  11.011
73102W        W41443  25.068  29.053  12.038
73103W        W41444   5.384  20.644   3.701
73104W        W41445  28.525  13.311  13.003
73105W        W41446   0.289   7.305   0.253
73106W        W41447   7.766   2.233  13.014
73107W        W41448  13.815  27.648  12.963
73108W        W41449  14.791  27.982   2.382
73109W        W41450  24.149  28.617   1.722
73110W        W41451  25.104   9.787  10.591
73111W        W41452  16.650  21.561  13.911
73112W        W41453  32.951  36.543  10.605
73113W        W41454  31.607  35.893  11.979
73114W        W41455  42.890   9.177   1.241
73115W        W41456   2.822  36.423  10.945
73116W        W41457  43.868  43.343   1.931
73117W        W41458  28.093  27.147  13.321
73118W        W41459  19.582  43.840   4.170
73119W        W41460   7.367  43.896   2.178
73120W        W41461   0.870  11.814  14.911
73121W        W41462  15.121   3.717  11.376
73122W        W41463   1.975  17.124  10.442
73123W        W41464  30.093  16.189  13.502
73124W        W41465  10.673  32.018  12.873
73125W        W41466  22.248   4.911  13.472
73126W        W41467   3.236  42.489  13.969
73127W        W41468   1.292  41.469  11.033
73128W        W41469  33.597  14.169  10.153
73129W        W41470   9.746  38.446  14.786
73130W        W41471  23.134  17.217   1.806
73131W        W41472  10.193  15.120  10.126
73132W        W41473  26.582  42.511  14.892
73133W        W41474  10.714  33.910  11.439
73134W        W41475  35.935  12.856  13.458
73135W        W41476  40.041  12.611   3.700
73136W        W41477   0.871  12.319  14.773
73137W        W41478   6.327  24.122  10.566
73138W        W41479  16.247  31.976  12.924
73139W        W41480  23.132  21.206  10.616
73140W        W41481  14.743  41.322  13.530
73141W        W41482  17.780  40.826  13.040
73142W        W41483  30.443  13.258   0.844
73143W        W41484  44.785  39.064  11.383
73144W        W41485   3.751  34.045   0.290
73145W        W41486  27.607  15.292  12.879
73146W        W41487  18.789  40.878  10.934
73147W        W41488  23.233  24.008  11.023
73148W        W41489  40.859  34.551  10.965
73149W        W41490  35.404  21.744  12.040
73150W        W41491   1.297   8.192   0.743
73151W        W41492   8.180   4.227   2.833
73152W        W41493  33.436  20.539  12.944
73153W        W41494  41.939  26.699  12.096
73154W        W41495  10.253   7.862   0.409
73155W        W41496   7.222   9.837  10.475
73156W        W41497  30.598  12.316  13.452
73157W        W41498  28.981  34.443  13.946
73158W        W41499  35.071  30.917   0.793
73159W        W41500  19.053   7.816   3.643
73160W        W41501  32.510  16.691  14.924
73161W        W41502   2.284  43.472   1.271
73162W        W41503  22.174  41.493   1.817
73163W        W41504   3.941  38.913   0.866
73164W        W41505  28.010  19.071  13.435
73165W        W41506  32.009  15.741   1.397
73166W        W41507   0.333  24.520  11.860
73167W        W41508  32.508  27.006  12.420
73168W        W41509  28.115   4.321   4.198
73169W        W41510  14.094  40.813   1.225
73170W        W41511  14.215   3.375  13.314
73171W        W41512  22.178  26.025   4.240
73172W        W41513  19.227   7.234  12.922
73173W        W41514  42.323   2.326  14.975
73174W        W41515  25.069  24.086  10.557
73175W        W41516  12.347  32.402   3.868
73176W        W41517  25.573  39.315  14.882
73177W        W41518  44.303   6.309  14.984
73178W        W41519   4.284  30.500   2.752
73179W        W41520  26.567  44.496   4.777
73180W        W41521  25.195  30.001  14.839
73181W        W41522  28.659  42.457  10.898
73182W        W41523  19.060  12.183   0.941
73183W        W41524  14.821  34.102   1.411
73184W        W41525  12.305  19.136  10.489
73185W        W41526   3.249  39.952  14.979
73186W        W41527  15.111  11.161   0.898
73187W        W41528  40.974  16.306  13.818
73188W        W41529  26.161  16.793  10.029
73189W        W41530  20.219  30.651  10.505
73190W        W41531  41.890  22.651   2.726
73191W        W41532  27.987  20.076  10.985
73192W        W41533  17.197  17.155  10.992
73193W        W41534  38.959  27.100  10.493
73194W        W41535  24.990   1.337   2.696
73195W        W41536  38.001  35.069  12.533
73196W        W41537  13.148  28.029  13.801
73197W        W41538  35.100   6.362   4.151
73198W        W41539   9.206  14.275   3.840
73199W        W41540  39.874  28.676   3.299
73200W        W41541  27.059  19.136   2.823
73201W        W41542  42.288  15.767   4.597
73202W        W41543  43.504  14.825  13.060
73203W        W41544  24.706   6.228   3.377
73204W        W41545   4.413   4.903  11.414
73205W        W41546   2.820  39.488  11.444
73206W        W41547  32.930  31.465  10.463
73207W        W41548   2.875  14.226  13.008
73208W        W41549  27.167   2.858  11.964
73209W        W41550  41.456   6.729   1.426
73210W        W41551  16.269  32.629  11.457
73211W        W41552  28.948  28.661   0.863
73212W        W41553  13.799  16.104  11.002
73213W        W41554  25.005   2.890   0.905
73214W        W41555   5.796  17.607   1.704
73215W        W41556  42.863  24.502  11.518
73216W        W41557  39.441  21.686   0.243
73217W        W41558   8.390  24.530   0.763
73218W        W41559   2.433  37.529   3.771
73219W        W41560  36.389  25.510   1.927
73220W        W41561  33.527  40.809   0.395
73221W        W41562  34.994  14.180   5.148
73222W        W41563   7.363  36.566  12.348
73223W        W41564  42.335  36.023   2.247
73224W        W41565   6.269   7.360   1.422
73225W        W41566  15.141  42.836   0.849
73226W        W41567  27.682  40.402  12.971
73227W        W41568  15.252  18.727  14.960
73228W        W41569  30.149  36.388   3.174
73229W        W41570  21.656  41.363  14.788
73230W        W41571  11.801   8.238  12.826
73231W        W41572   9.810  26.036  14.416
73232W        W41573   2.258  18.656   2.719
73233W        W41574   8.204   6.284   2.802
73234W        W41575  11.758  31.631   2.882
73235W        W41576  26.021  41.923   0.770
73236W        W41577  13.710  21.046  11.455
73237W        W41578  44.487  19.229  12.994
73238W        W41579  18.199  31.132   1.732
73239W        W41580  25.158  34.060   3.845
73240W        W41581  33.468  21.690  13.801
73241W        W41582  22.571  31.605   1.927
73242W        W41583  42.327  30.587   1.387
73243W        W41584   3.251  31.552  10.614
73244W        W41585  12.668  30.093  13.503
73245W        W41586   4.286  21.230   3.262
73246W        W41587  19.655   0.384  14.420
73247W        W41588  28.934  35.439  11.894
73248W        W41589  18.083  10.719  14.888
73249W        W41590  21.069  40.930   4.796
73250W        W41591  28.580  15.201  14.356
73251W        W41592  43.446   9.394   2.379
73252W        W41593   3.930  21.674  11.952
73253W        W41594  37.052  43.368   1.262
73254W        W41595  38.407   4.787   4.130
73255W        W41596   6.301  11.288  11.410
73256W        W41597  27.975   4.444   2.767
73257W        W41598  28.938  12.158  14.452
73258W        W41599  21.155   8.771  14.019
73259W        W41600  44.288   7.273  11.876
73260W        W41601  30.510  38.424  13.368
73261W        W41602   6.679  44.372   2.360
73262W        W41603   5.288  20.562  12.052
73263W        W41604  19.270   6.920  12.443
73264W        W41605  31.557  10.355   0.329
73265W        W41606  21.717  26.040   3.180
73266W        W41607  28.989  10.227  14.395
73267W        W41608  22.624  33.079  13.935
73268W        W41609  22.996  32.088  14.487
73269W        W41610  29.434  17.563   0.381
73270W        W41611  43.306   6.688   1.421
73271W        W41612  22.203  34.400   0.780
73272W        W41613  29.528  24.137   3.830
73273W        W41614   5.328  21.263   1.225
73274W        W41615  35.088  37.971   0.844
73275W        W41616  29.040  35.399   4.600
73276W        W41617  21.581  36.507   1.709
73277W        W41618   6.904  18.724   1.306
73278W        W41619  39.448   3.319  11.402
73279W        W41620  18.099  35.541  12.522
73280W        W41621   4.723   1.866   2.787
73281W        W41622  43.795  43.977  11.513
73282W        W41623  17.189   6.259   4.688
73283W        W41624  36.069  12.117  13.981
73284W        W41625  37.066  40.004  13.464
73285W        W41626  24.156  18.710   5.308
73286W        W41627  21.195  36.882  10.473
73287W        W41628  24.183  33.895  10.525
73288W        W41629  35.368  32.060   1.707
73289W        W41630  35.957  36.565  10.887
73290W        W41631   9.699  14.113  13.379
73291W        W41632  44.907  20.138  11.522
73292W        W41633  27.942   2.866   3.816
73293W        W41634  37.956  40.509  13.473
73294W        W41635  43.018  21.532   2.250
73295W        W41636  17.286  23.710  13.313
73296W        W41637  35.384  38.517   1.315
73297W        W41638  34.873  24.168   3.805
73298W        W41639  43.512  31.964  10.064
73299W        W41640   4.216  26.679   4.817
73300W        W41641   7.262  31.025   2.411
73301W        W41642   6.708  11.296  11.463
73302W        W41643  38.360  25.534  12.844
73303W        W41644  22.672  33.976  10.452
73304W        W41645   9.271  37.432   0.334
73305W        W41646  16.694  31.606  12.052
73306W        W41647  24.609   8.708   1.877
73307W        W41648   0.492  43.903  11.873
73308W        W41649  28.106  42.427   2.335
73309W        W41650   5.734   1.806  11.611
73310W        W41651  24.525  17.108  12.434
73311W        W41652  18.776   1.306  10.982
73312W        W41653  23.673  24.679  11.104
73313W        W41654  14.833  36.029   2.342
73314W        W41655  25.478   2.382  12.427
73315W        W41656   3.954  16.673  12.939
73316W        W41657  30.422  31.924  10.955
73317W        W41658  23.616  31.091  13.873
73318W        W41659  40.797  40.463  14.380
73319W        W41660  10.661  34.492  14.988
73320W        W41661   3.947  29.025   4.114
73321W        W41662   9.646   7.834  12.933
73322W        W41663  13.251  26.484  11.445
73323W        W41664  34.046  32.474  14.919
73324W        W41665  35.005   7.387  13.448
73325W        W41666  15.139  18.763   2.404
73326W        W41667  14.323  20.565  13.809
73327W        W41668  10.138  36.580   2.345
73328W        W41669  34.515   7.863   0.338
73329W        W41670  26.102  21.723  10.972
73330W        W41671  18.237  20.030   0.770
73331W        W41672  24.229  12.660   0.898
73332W        W41673  23.710  20.262  11.981
73333W        W41674  12.145   8.268  10.422
73334W        W41675   4.324  21.744   4.122
73335W        W41676  10.784  18.580  14.298
73336W        W41677   2.945  36.966   2.804
73337W        W41678  14.736  29.498   1.441
73338W        W41679   9.815   7.401   4.761
73339W        W41680  43.856  33.924   3.197
73340W        W41681  10.841  44.843  12.011
73341W        W41682  13.726   0.479  13.871
73342W        W41683  31.636  41.967  14.970
73343W        W41684  41.895  17.741   0.435
73344W        W41685  10.657  40.467   4.715
73345W        W41686  34.990  35.900  14.455
73346W        W41687  37.524   0.262  14.861
73347W        W41688  21.533   1.384  12.926
73348W        W41689  12.350  26.468  13.378
73349W        W41690   4.907  32.558   2.183
73350W        W41691   1.246  27.562  11.570
73351W        W41692  37.070  30.523  13.063
73352W        W41693  15.785  15.683   1.326
73353W        W41694  13.199  39.460  14.915
73354W        W41695  21.692  12.204   2.805
73355W        W41696  32.917  14.319   1.339
73356W        W41697  21.088  37.563   4.174
73357W        W41698  40.334  12.328  11.405
73358W        W41699  33.928   8.229  13.032
73359W        W41700  41.808   8.374   0.750
73360W        W41701   2.879   6.878   0.469
73361W        W41702  32.001  17.704   4.683
73362W        W41703  39.502  31.026  12.852
73363W        W41704  17.786  17.136   1.291
73364W        W41705   6.898  27.610  10.451
73365W        W41706   1.302  20.273   4.635
73366W        W41707   6.218  44.931  13.844
73367W        W41708  17.300   2.337   0.480
73368W        W41709  20.234   8.684   2.214
73369W        W41710  23.692   5.697   1.262
73370W        W41711  35.044  19.764  11.922
73371W        W41712  13.779   8.728  12.990
73372W        W41713  18.173  35.886  13.497
73373W        W41714  34.985   7.847   2.815
73374W        W41715   2.264  29.568  12.522
73375W        W41716  23.600   9.665   0.743
73376W        W41717  32.586  41.845   3.691
73377W        W41718  33.434  42.503  10.000
73378W        W41719  42.287  14.186   0.442
73379W        W41720  29.646   3.386   0.742
73380W        W41721   5.704  29.605  10.574
73381W        W41722  29.488  28.484  12.459
73382W        W41723   1.891  28.662  12.036
73383W        W41724  38.484  24.221   3.788
73384W        W41725  34.447  21.116  14.845
73385W        W41726  38.041  19.670   1.425
73386W        W41727  15.180  39.382  10.504
73387W        W41728  21.720  27.177   0.773
73388W        W41729  15.151  27.483   3.698
73389W        W41730  37.984   1.857   4.199
73390W        W41731   4.364  11.784  10.629
73391W        W41732  31.133   9.837   0.410
73392W        W41733  28.931   3.808  10.895
73393W        W41734  22.202  30.035   3.855
73394W        W41735   0.269  32.553  12.521
73395W        W41736  42.015  30.122  10.565
73396W        W41737  38.508  23.492   0.753
73397W        W41738  36.504  21.697   4.194
73398W        W41739  35.369   5.229  12.947
73399W        W41740  10.681  32.427   4.166
73400W        W41741  30.610   3.797   4.625
73401W        W41742  27.120  39.839  10.888
73402W        W41743  30.099  37.833   1.308
73403W        W41744  23.212   1.465  13.064
73404W        W41745   0.964  12.715  10.931
73405W        W41746  26.160   8.337  10.538
73406W        W41747  24.511   0.391   2.367
73407W        W41748   2.907   5.320  13.823
73408W        W41749  44.384  19.588  11.489
73409W        W41750   0.850  26.697   0.855
73410W        W41751  23.018  40.019  11.540
73411W        W41752  28.610  15.328  11.011
73412W        W41753   9.374  41.857  12.090
73413W        W41754  27.586  23.504  14.843
73414W        W41755  25.056   8.371   0.313
73415W        W41756  26.198  32.443   1.218
73416W        W41757   2.831  16.268   1.229
73417W        W41758  11.280  13.777  12.370
73418W        W41759  31.993  24.486   4.622
73419W        W41760  16.285  43.005  11.551
73420W        W41761  25.711  14.095   0.250
73421W        W41762  31.936  16.185   0.858
73422W        W41763  13.348  44.985  11.593
73423W        W41764  10.759  12.228   5.795
73424W        W41765  41.847  23.163  10.604
73425W        W41766  21.099  15.629   3.727
73426W        W41767  30.634  17.096   3.351
73427W        W41768   0.390  38.832  12.887
73428W        W41769  29.979  36.862   3.794
73429W        W41770  23.675  23.000  12.515
73430W        W41771  22.511  36.419   0.386
73431W        W41772  44.336  23.143   4.721
73432W        W41773  41.337  26.117  12.515
73433W        W41774   0.757  40.809   1.695
73434W        W41775  16.142  23.206   4.254
73435W        W41776   5.317  31.590   1.891
73436W        W41777  31.458  16.138   0.959
73437W        W41778  25.470   0.478  13.947
73438W        W41779  20.244  44.288  11.890
73439W        W41780   4.815  31.936   0.445
73440W        W41781  15.804   6.378   1.238
73441W        W41782   0.413  21.144   3.254
73442W        W41783  38.010  32.890   4.133
73443W        W41784   9.783   0.385  11.537
73444W        W41785  28.934  10.868  13.425
73445W        W41786   0.420  19.681  14.825
73446W        W41787  32.457  36.422  10.528
73447W        W41788  31.599  11.264   3.173
73448W        W41789  11.819  15.307  10.457
73449W        W41790  20.675  34.929  10.462
73450W        W41791  35.982  24.611  13.451
73451W        W41792  12.760  40.972  14.865
73452W        W41793  26.670  37.914  12.981
73453W        W41794  38.568   5.272   3.822
73454W        W41795  19.655  40.407   1.384
73455W        W41796  31.627  41.404   1.386
73456W        W41797  44.440  40.440  10.063
73457W        W41798  10.208   1.286  13.853
73458W        W41799   8.655  18.679  13.034
73459W        W41800  11.344  39.504   2.685
73460W        W41801  20.188  41.529   5.301
73461W        W41802  13.168  18.176  10.531
73462W        W41803  10.288  43.919   9.923
73463W        W41804  31.091  31.000  11.874
73464W        W41805  14.252  11.293  14.439
73465W        W41806   1.967  29.974  11.372
73466W        W41807  25.630  18.623  11.499
73467W        W41808   2.966  16.095   2.877
73468W        W41809  27.031  24.689   2.702
73469W        W41810  15.319  26.025  13.451
73470W        W41811   7.357  11.679   2.666
73471W        W41812  11.711  19.132   4.203
73472W        W41813   5.343  34.044  14.964
73473W        W41814  28.675  14.244   3.797
73474W        W41815  22.515   7.276  13.334
73475W        W41816  35.948  21.603   2.888
73476W        W41817  10.296   4.722  11.483
73477W        W41818  12.272  22.079   4.611
73478W        W41819  15.590   7.746   4.749
73479W        W41820  35.542  43.497  10.984
73480W        W41821   8.890  41.863  11.591
73481W        W41822  26.700  36.378  11.480
73482W        W41823   0.363  40.400   1.219
73483W        W41824   1.280  41.464  10.555
73484W        W41825  19.238  15.753   0.307
73485W        W41826  11.191   5.346  12.401
73486W        W41827   2.340  43.889   1.766
73487W        W41828   6.289  41.950   3.159
73488W        W41829   7.854  24.128   0.427
73489W        W41830  23.032  37.566  13.448
73490W        W41831  27.037  35.986   3.724
73491W        W41832  18.592  35.448  12.390
73492W        W41833  43.849  34.526  14.325
73493W        W41834  42.817  18.641   0.775
73494W        W41835  34.044  40.487  12.984
73495W        W41836  30.032  18.098  11.972
73496W        W41837  42.784   1.735   1.246
73497W        W41838  29.554  21.017   0.284
73498W        W41839  27.585   9.199  13.918
73499W        W41840  12.264  15.235  10.929
73500W        W41841  17.306   1.472   4.116
73501W        W41842  22.077  35.948   3.346
73502W        W41843  34.945  38.538  12.872
73503W        W41844  44.003  37.416  13.902
73504W        W41845  22.649  26.132  12.843
73505W        W41846  31.626  38.990   3.864
73506W        W41847  27.575  20.266  12.969
73507W        W41848   5.228  43.770   0.319
73508W        W41849  34.472   5.769   3.819
73509W        W41850   4.879  21.034   3.780
73510W        W41851  14.206  28.614  14.832
73511W        W41852  22.026   4.815  12.884
73512W        W41853  34.606  27.187   0.356
73513W        W41854  42.343  22.227  12.885
73514W        W41855  23.547   0.428   1.343
73515W        W41856  38.021  10.257  13.471
73516W        W41857   3.240  24.150  12.345
73517W        W41858  41.379  35.446  12.862
73518W        W41859   9.798  29.560  10.462
73519W        W41860  39.838  33.944   1.444
73520W        W41861  40.392  27.095  14.811
73521W        W41862  18.630  24.709  14.330
73522W        W41863   3.416  20.156   2.192
73523W        W41864   6.746  44.968  12.541
73524W        W41865  29.991  33.890   0.824
73525W        W41866  38.496  42.305   9.977
73526W        W41867   2.880  23.207  13.387
73527W        W41868  41.366  43.890   1.809
73528W        W41869  33.606   6.865  11.399
73529W        W41870  27.141  44.847   3.276
73530W        W41871  31.613   1.346  13.863
73531W        W41872  39.985  18.605   3.160
73532W        W41873   9.839  44.992   2.807
73533W        W41874  40.355   1.762   1.338
73534W        W41875  12.247  38.452   3.748
73535W        W41876  29.006   3.820   4.354
73536W        W41877  18.280  16.708   4.603
73537W        W41878  11.681  14.720   4.318
73538W        W41879   4.945  40.457   1.704
73539W        W41880  16.183  14.129  12.550
73540W        W41881  22.502  19.566  11.436
73541W        W41882   0.293  44.780  14.011
73542W        W41883  30.973   0.395   4.744
73543W        W41884  23.653   2.800  11.014
73544W        W41885   3.239  15.098   1.867
73545W        W41886  10.691   8.170   2.291
73546W        W41887   9.662  19.657   0.354
73547W        W41888  37.989  25.100  13.422
73548W        W41889  16.638  16.630  11.972
73549W        W41890   2.440  27.602  14.867
73550W        W41891   1.862  17.089   1.341
73551W        W41892  36.351  28.440   0.323
73552W        W41893   3.262  20.246   4.642
73553W        W41894  16.086   5.861  13.506
73554W        W41895  14.728  21.582  14.810
73555W        W41896  38.935  14.241  11.380
73556W        W41897  18.206  25.025  13.860
73557W        W41898   9.801   4.896  13.015
73558W        W41899  27.686  23.556  14.319
73559W        W41900  16.296  22.523   4.758
73560W        W41901  35.976   2.950  11.009
73561W        W41902  25.120  30.912  13.506
73562W        W41903  29.130   2.389  14.461
73563W        W41904  22.512  34.603   3.210
73564W        W41905  34.450  17.566   2.180
73565W        W41906  18.059  31.981  13.503
73566W        W41907  44.284  19.127  14.310
73567W        W41908  38.968  39.847  11.084
73568W        W41909  23.200  42.810   1.306
73569W        W41910  25.666  32.478   3.722
73570W        W41911  22.607  23.205  12.933
73571W        W41912   6.888  35.006   3.226
73572W        W41913  14.135  29.163  14.497
73573W        W41914  23.520  14.684  13.419
73574W        W41915  42.353  33.032  14.353
73575W        W41916  34.942   8.658  13.822
73576W        W41917   3.924   0.797   0.960
73577W        W41918  33.521  12.324   2.811
73578W        W41919  20.737   5.323   2.284
73579W        W41920  18.594  15.688   0.726
73580W        W41921  23.680  31.967   1.375
73581W        W41922   4.418   2.879   4.720
73582W        W41923  21.530   1.336  14.436
73583W        W41924   6.794  35.909  12.843
73584W        W41925  30.591  17.707   4.271
73585W        W41926   0.750   8.713  11.967
73586W        W41927   4.771  10.725   0.413
73587W        W41928  30.132  32.922   0.891
73588W        W41929  41.399  20.611  11.866
73589W        W41930  32.085   0.438  12.084
73590W        W41931  40.954  42.384  13.339
73591W        W41932  42.969   4.702  12.030
73592W        W41933  13.697   0.351   1.329
73593W        W41934  28.062   4.863  14.835
73594W        W41935  15.650   7.352  14.857
73595W        W41936  23.205   8.705   0.912
73596W        W41937  43.278  26.962   3.845
73597W        W41938  32.496   6.225   0.772
73598W        W41939  31.551  10.339   4.317
73599W        W41940  27.183  33.052   1.707
73600W        W41941  15.147  32.010  12.358
73601W        W41942   3.718  20.729  13.535
73602W        W41943  35.428  37.994   0.283
73603W        W41944  19.625  30.127  11.548
73604W        W41945  37.009  25.714  13.320
73605W        W41946  39.321  12.307   1.313
73606W        W41947  36.371   0.378   1.317
73607W        W41948   8.775  12.316  13.031
73608W        W41949  44.386  11.849  12.016
73609W        W41950   0.281  42.351  13.509
73610W        W41951  34.424  21.135   2.830
73611W        W41952  22.055  19.272  14.759
73612W        W41953  37.527  43.976   3.699
73613W        W41954  25.491  30.994   1.930
73614W        W41955  43.925  26.656   2.213
73615W        W41956  31.469  21.102   3.338
73616W        W41957  20.215  20.583  10.489
73617W        W41958  27.653  15.124  13.961
73618W        W41959  19.141  18.253   1.400
73619W        W41960  17.292  21.196  10.593
73620W        W41961  42.985  38.932   4.315
73621W        W41962  23.089   8.295   1.380
73622W        W41963  20.060  22.544  11.426
73623W        W41964  30.659  25.515   3.354
73624W        W41965  36.527  12.802   0.372
73625W        W41966  20.712  27.469   1.269
73626W        W41967  41.842   1.876  11.947
73627W        W41968  27.563  42.957  13.468
73628W        W41969  29.172  25.095   1.428
73629W        W41970  18.774   5.430  12.061
73630W        W41971  22.078  38.989   4.663
73631W        W41972  44.852   7.181   4.309
73632W        W41973  26.586  12.205   4.722
73633W        W41974   4.736  22.518   0.881
73634W        W41975  17.202  28.620  13.973
73635W        W41976  44.317  19.172  12.544
73636W        W41977  21.523  20.656   0.915
73637W        W41978  27.954   7.814  14.963
73638W        W41979  15.607   3.740   2.352
73639W        W41980  26.627   0.982  12.561
73640W        W41981  32.569  44.975   1.736
73641W        W41982  40.508   8.727   1.315
73642W        W41983   6.290  16.175  13.888
73643W        W41984  29.010  24.520  12.857
73644W        W41985  30.640  22.051   1.781
73645W        W41986   2.261  19.134   1.887
73646W        W41987  21.574  19.570   1.744
73647W        W41988  33.554  35.877   0.777
73648W        W41989  11.699  44.315   3.274
73649W        W41990   7.285   0.761   2.418
73650W        W41991  31.413   7.185   0.439
73651W        W41992  14.325  36.393   4.599
73652W        W41993  32.538  26.072   2.665
73653W        W41994  31.412  21.094  12.531
73654W        W41995  38.496  20.237  10.491
73655W        W41996  40.322  37.440  10.449
73656W        W41997  11.247   7.831   2.397
73657W        W41998  11.795  26.653  10.001
73658W        W41999  25.469   6.819   1.230
73659W        W42000  16.728  30.474  14.006
73660W        W42001  37.453  36.000   1.732
73661W        W42002  18.289  12.849  13.466
73662W        W42003  22.122  23.633  14.320
73663W        W42004   3.447  16.609  11.576
73664W        W42005  13.661   6.214   3.227
73665W        W42006  35.903  26.087  12.849
73666W        W42007  39.009   1.283   0.330
73667W        W42008  41.042  42.305   4.243
73668W        W42009  15.203   1.871  11.429
73669W        W42010  36.957  26.191  14.841
73670W        W42011  17.207  18.562  13.388
73671W        W42012  35.388  44.942  12.018
73672W        W42013  34.430   7.325   3.837
73673W        W42014   7.910  38.859  11.036
73674W        W42015  43.904   6.697  14.820
73675W        W42016  26.176   7.232   0.257
73676W        W42017  30.626  12.148  10.893
73677W        W42018  21.220  11.637  12.092
73678W        W42019  37.982  26.143   1.426
73679W        W42020   4.419   5.275  12.466
73680W        W42021  32.440  15.212   4.637
73681W        W42022   4.239  20.127  13.417
73682W        W42023  18.165  18.603  11.111
73683W        W42024  30.622  15.191   2.818
73684W        W42025  40.002  24.513   0.325
73685W        W42026   0.920  32.060   2.312
73686W        W42027  15.808  17.654  14.286
73687W        W42028  35.493  18.596   2.789
73688W        W42029  39.449  20.079   3.648
73689W        W42030  38.360  21.086   1.819
73690W        W42031   1.369  15.100  11.501
73691W        W42032  38.386   0.352  13.417
73692W        W42033  19.610  39.468   3.779
73693W        W42034  21.649   6.276  10.892
73694W        W42035   2.396  42.317   1.750
73695W        W42036  16.143  29.448   2.326
73696W        W42037  39.447   2.244  14.487
73697W        W42038  33.510  35.565   0.390
73698W        W42039  12.180  44.816   4.825
73699W        W42040  30.514  33.074  13.458
73700W        W42041   9.362  42.302   4.182
73701W        W42042  40.345  30.038  12.517
73702W        W42043  20.243  15.811  14.868
73703W        W42044  38.971   1.922  11.511
73704W        W42045  30.937  29.541   3.177
73705W        W42046   2.329  30.941   0.753
73706W        W42047  36.863  39.365  10.412
73707W        W42048  19.637  41.385   2.240
73708W        W42049  16.642  23.087   1.826
73709W        W42050   3.821  34.595   3.243
73710W        W42051  26.167  11.129  12.995
73711W        W42052  41.894  22.051  13.367
73712W        W42053  35.994  22.719   3.328
73713W        W42054  21.240  42.932   3.252
73714W        W42055  26.552  20.124  14.004
73715W        W42056   0.935  35.093  13.456
73716W        W42057  37.884   7.412  13.903
73717W        W42058  22.161  10.341  12.984
73718W        W42059   5.278   6.397   0.957
73719W        W42060   7.897  26.139   4.115
73720W        W42061  19.754  32.939  13.359
73721W        W42062   1.333   9.803   2.714
73722W        W42063  14.655   3.876   4.663
73723W        W42064  34.532  33.483  14.485
73724W        W42065  13.841  15.116  11.403
73725W        W42066  21.067  17.289   2.810
73726W        W42067   6.354  35.510  13.535
73727W        W42068   6.878  34.591   1.226
73728W        W42069  33.387  18.683   0.906
73729W        W42070  21.055  36.999   0.463
73730W        W42071  10.326  25.516   5.312
73731W        W42072  10.633  10.801  14.822
73732W        W42073  44.429  28.554   2.806
73733W        W42074  39.321   7.319  11.897
73734W        W42075  37.452  32.459  11.955
73735W        W42076  21.695  14.664  12.932
73736W        W42077  35.514   1.823   1.782
73737W        W42078   6.684  16.812   3.846
73738W        W42079   2.379  11.287   2.825
73739W        W42080  21.648  32.971  14.281
73740W        W42081  19.097  36.586  14.919
73741W        W42082  36.864  23.020  12.346
73742W        W42083  37.452  43.300  14.774
73743W        W42084   3.894  43.892   3.250
73744W        W42085  24.535  16.212   5.092
73745W        W42086   8.810  10.372  12.988
73746W        W42087  41.373  44.776  11.936
73747W        W42088  28.955  42.292   1.280
73748W        W42089   7.680  41.449   2.353
73749W        W42090  29.607  30.433   4.805
73750W        W42091  32.947  28.494   1.403
73751W        W42092  14.662   7.719   2.189
73752W        W42093  38.060   2.407   0.327
73753W        W42094  31.402  22.503   1.767
73754W        W42095   7.839  28.182  10.616
73755W        W42096  33.091  21.064   2.402
73756W        W42097  26.024  39.345  12.087
73757W        W42098   3.433   7.786  12.028
73758W        W42099  12.162  28.598  12.055
73759W        W42100  39.477  14.734   1.294
73760W        W42101   4.230  13.227   0.765
73761W        W42102  38.469  27.044  13.821
73762W        W42103  35.879  21.103  13.416
73763W        W42104  32.498  41.018   2.252
73764W        W42105   5.782  37.428   4.161
73765W        W42106  39.986  39.886   0.842
73766W        W42107  30.436   5.293   1.800
73767W        W42108  17.603  21.704   0.467
73768W        W42109  28.102  31.928  12.462
73769W        W42110  37.904  30.950  11.479
73770W        W42111   5.218  43.949   2.733
73771W        W42112   7.311   5.326   3.719
73772W        W42113  22.016  18.789   2.903
73773W        W42114   0.307   1.894   2.719
73774W        W42115  10.351  12.735   0.483
73775W        W42116  29.503  29.121   1.697
73776W        W42117  27.677  27.619  13.409
73777W        W42118   7.819  32.062   4.314
73778W        W42119  40.999   3.946  10.439
73779W        W42120  13.816  11.686  11.463
73780W        W42121  36.506  36.430   4.627
73781W        W42122  43.942   7.239   2.332
73782W        W42123  40.816   5.299  14.956
73783W        W42124  41.913  13.122   1.242
73784W        W42125  40.025  16.079   4.154
73785W        W42126  32.060   4.800   2.682
73786W        W42127  34.063   2.771  13.397
73787W        W42128   5.440  22.147  12.986
73788W        W42129  30.034  16.730  13.383
73789W        W42130  19.193  16.600  12.345
73790W        W42131  13.817  28.649  14.026
73791W        W42132   7.326  21.616   1.318
73792W        W42133  39.548  34.405   2.851
73793W        W42134  32.450   7.294  14.760
73794W        W42135  38.906   8.888  10.579
73795W        W42136  10.371  29.155   0.276
73796W        W42137  33.079  12.196  10.968
73797W        W42138  33.040  37.358   0.393
73798W        W42139  22.551  37.896   3.698
73799W        W42140  24.520  37.370  12.579
73800W        W42141  44.772  44.860   0.319
73801W        W42142  38.345   8.862   3.285
73802W        W42143  17.159  19.056   4.212
73803W        W42144  40.950  14.133  12.362
73804W        W42145   4.305  12.626  13.378
73805W        W42146  35.373  38.970  12.863
73806W        W42147  36.352  22.673  12.409
73807W        W42148   9.756  43.899   0.407
73808W        W42149   0.331  22.222  12.881
73809W        W42150  39.909  34.997   3.853
73810W        W42151  32.133  36.394  12.934
73811W        W42152  23.234  31.083  12.895
73812W        W42153   5.237  27.185   3.851
73813W        W42154  10.300   9.737   4.635
73814W        W42155  16.797   9.258   2.881
73815W        W42156  32.436  28.983  11.544
73816W        W42157   9.264  22.641   0.877
73817W        W42158   7.753   4.777   1.846
73818W        W42159  15.268   0.479   2.240
73819W        W42160  28.512   8.843  14.001
73820W        W42161  34.506  34.463   1.858
73821W        W42162  25.637  24.168   2.738
73822W        W42163   2.345   0.285  13.537
73823W        W42164  28.008  34.926   5.300
73824W        W42165  18.119  13.600   0.875
73825W        W42166   8.193   5.291   4.306
73826W        W42167   9.772  44.001  10.477
73827W        W42168  38.460  18.278  13.422
73828W        W42169  39.012  28.594   0.317
73829W        W42170  14.825  21.745   1.311
73830W        W42171  28.612  15.802  13.410
73831W        W42172  26.104   2.861  10.406
73832W        W42173  30.055  12.736   4.638
73833W        W42174  18.087  10.281  10.136
73834W        W42175  42.502  30.002  11.383
73835W        W42176  18.257  33.551  13.517
73836W        W42177  35.547   8.855  12.416
73837W        W42178  14.723  32.908   3.203
73838W        W42179  13.340  15.795   4.794
73839W        W42180  44.481  35.358  12.567
73840W        W42181  34.560   8.218  11.892
73841W        W42182  36.039  16.244  14.450
73842W        W42183  21.602  29.670  13.899
73843W        W42184  22.739  24.600  11.603
73844W        W42185  44.897  18.291   0.945
73845W        W42186   5.398  23.204  13.448
73846W        W42187  28.034  26.005   2.765
73847W        W42188  41.312   8.204  12.558
73848W        W42189   4.855   6.341  12.491
73849W        W42190  18.078  18.621  13.455
73850W        W42191  43.280  11.283  14.996
73851W        W42192  11.773  35.857  13.503
73852W        W42193   0.391  40.533   0.802
73853W        W42194  36.953  22.207  10.559
73854W        W42195  31.432  25.525   1.912
73855W        W42196  18.712  25.044  12.383
73856W        W42197  10.342  32.972   3.307
73857W        W42198   7.692   9.845  13.008
73858W        W42199  29.147   8.741   4.692
73859W        W42200  13.840  29.121  13.381
73860W        W42201   0.491  40.386   1.898
73861W        W42202  32.598   6.355   0.383
73862W        W42203  11.645  43.776   3.652
73863W        W42204   6.744  25.546   0.850
73864W        W42205   2.376  31.639  11.075
73865W        W42206  30.613  34.533   4.228
73866W        W42207  38.075  17.302   0.328
73867W        W42208  33.959  17.285  14.890
73868W        W42209  22.604  31.011   1.305
73869W        W42210   8.825   3.344  12.026
73870W        W42211  29.941  41.037  10.508
73871W        W42212  34.387  30.442  10.997
73872W        W42213  17.082  16.585   0.868
73873W        W42214  12.235  32.946   4.819
73874W        W42215  12.650  19.149  13.832
73875W        W42216   8.268   2.849   4.673
73876W        W42217   3.736   6.339  11.401
73877W        W42218  31.078  38.033   3.367
73878W        W42219   0.300  42.286  11.971
73879W        W42220  38.854  21.728   0.433
73880W        W42221  32.138  28.170   5.090
73881W        W42222  44.780  30.595   1.874
73882W        W42223   4.784  10.315  10.141
73883W        W42224  35.950  17.633   1.891
73884W        W42225  20.032  30.621  13.976
73885W        W42226  36.546   9.387  13.324
73886W        W42227  14.635  29.602   2.395
73887W        W42228  34.008  29.126   4.736
73888W        W42229  23.720  18.745   0.820
73889W        W42230  39.908   5.405  14.937
73890W        W42231  27.115  28.599  13.510
73891W        W42232  29.642  22.663  12.920
73892W        W42233  33.529   2.910  14.478
73893W        W42234  18.663  14.339   3.817
73894W        W42235   6.356   5.214   4.291
73895W        W42236   4.797  23.670   4.138
73896W        W42237  23.198  28.135  12.529
73897W        W42238   5.815   1.391   3.790
73898W        W42239  15.674   0.388  14.360
73899W        W42240  24.145  39.876  14.829
73900W        W42241  31.151  23.736   3.171
73901W        W42242  39.393  16.250  10.569
73902W        W42243  18.126  27.632   2.324
73903W        W42244   3.340  10.190   2.261
73904W        W42245   9.345   6.881   1.756
73905W        W42246  18.132  11.713   1.722
73906W        W42247  32.471  36.013  11.488
73907W        W42248  28.125  29.921  12.511
73908W        W42249  11.675   9.751   5.634
73909W        W42250  32.909  17.681   4.635
73910W        W42251   0.316  32.002   2.185
73911W        W42252   1.870  40.448  12.384
73912W        W42253  36.855  36.972  14.923
73913W        W42254  41.939  42.020   4.186
73914W        W42255  38.847  13.292  14.426
73915W        W42256  38.412  36.392   3.683
73916W        W42257  17.203   7.314  14.341
73917W        W42258  18.762  22.194   3.683
73918W        W42259   8.336  10.273  13.512
73919W        W42260  19.704  13.611   0.838
73920W        W42261  25.658  24.983  13.938
73921W        W42262   3.316  36.967   0.309
73922W        W42263  39.029  33.561   2.323
73923W        W42264  36.894  10.226  12.003
73924W        W42265  44.493  36.463  12.036
73925W        W42266   3.920  10.652  12.463
73926W        W42267  10.216  26.469  11.552
73927W        W42268  42.288  15.093  12.516
73928W        W42269   8.392  38.546   0.865
73929W        W42270  18.181  15.694   2.217
73930W        W42271  22.092  16.694   0.916
73931W        W42272  20.128  15.284  13.051
73932W        W42273  15.292   1.736   4.602
73933W        W42274   3.235   2.905   3.672
73934W        W42275  41.873  30.416   3.362
73935W        W42276  41.396  43.324   0.276
73936W        W42277  32.438  41.828   1.256
73937W        W42278  36.388  16.800  11.113
73938W        W42279  40.345  33.928   0.413
73939W        W42280   3.816  29.570   4.138
73940W        W42281  29.948  33.425  11.061
73941W        W42282  14.802  28.169   0.924
73942W        W42283  26.498   1.795  12.555
73943W        W42284  34.053  31.942   3.656
73944W        W42285   4.786  37.993   0.943
73945W        W42286  42.306  41.519  11.974
73946W        W42287  22.233  37.072   0.275
73947W        W42288   8.265  25.670  10.982
73948W        W42289  25.187  22.522  13.899
73949W        W42290  37.459  30.026   0.821
73950W        W42291  10.244  19.155   2.702
73951W        W42292  25.623  40.967  12.964
73952W        W42293   6.311  28.522   4.261
73953W        W42294  18.597   8.818  13.917
73954W        W42295  32.950  42.028   0.334
73955W        W42296  40.892  38.349   3.153
73956W        W42297  21.574  27.467   3.172
73957W        W42298   2.803  30.614   0.403
73958W        W42299   5.923   1.434  13.026
73959W        W42300  33.112  37.878  13.802
73960W        W42301  11.242   1.886   0.375
73961W        W42302  22.726  39.345   3.645
73962W        W42303  42.358   9.180  12.339
73963W        W42304  32.535  34.009   3.295
73964W        W42305  21.555   4.817   1.849
73965W        W42306  13.218  19.156   1.770
73966W        W42307  20.604  32.123   4.213
73967W        W42308  28.036  26.619   3.746
73968W        W42309  28.040  14.786   0.272
73969W        W42310  16.808  26.076   1.267
73970W        W42311  15.111   4.372  11.476
73971W        W42312  19.285  29.069  10.581
73972W        W42313  12.168  10.835  12.906
73973W        W42314  21.181  33.439   3.195
73974W        W42315  18.596  28.471   4.630
73975W        W42316  14.629  27.588   3.285
73976W        W42317  14.156  19.709  13.529
73977W        W42318   3.240   4.206   4.305
73978W        W42319  16.643  40.973  11.042
73979W        W42320  26.991  27.528   4.224
73980W        W42321  43.379  41.820  14.458
73981W        W42322   6.677  32.475   1.913
73982W        W42323   1.789  38.876   4.331
73983W        W42324  26.671  30.051   2.793
73984W        W42325   9.723   8.310   2.285
73985W        W42326  32.083   4.382   3.827
73986W        W42327  40.034  34.390   3.717
73987W        W42328  37.976  13.677   2.717
73988W        W42329   8.671  14.801   0.281
73989W        W42330  42.861  27.630   0.357
73990W        W42331  13.806   7.339  10.565
73991W        W42332  32.991  31.931   4.305
73992W        W42333  30.948   4.362   2.794
73993W        W42334   2.744   0.767  14.344
73994W        W42335   4.309   4.416   3.783
73995W        W42336   2.380   2.904   1.419
73996W        W42337  34.409   9.162  14.515
73997W        W42338   3.433  36.081   0.399
73998W        W42339  18.078  27.055   0.318
73999W        W42340  26.554  19.151   4.812
74000W        W42341  12.847  32.425  12.447
74001W        W42342  40.404   0.985   4.676
74002W        W42343   3.366  36.932   4.726
74003W        W42344  30.000   9.712  13.508
74004W        W42345  16.793   9.281   0.750
74005W        W42346   3.459  15.790   4.793
74006W        W42347  18.650  33.914  11.034
74007W        W42348  30.576  14.295   1.272
74008W        W42349   2.787  20.257   0.762
74009W        W42350  34.076  28.620  12.865
74010W        W42351  40.464  41.366  11.399
74011W        W42352  36.526  22.503   1.305
74012W        W42353  32.886  35.852  11.892
74013W        W42354   2.305  11.850   1.282
74014W        W42355  24.632  17.222  11.595
74015W        W42356  37.581  40.500  13.005
74016W        W42357   2.346  28.604  10.590
74017W        W42358  27.648  35.109   2.663
74018W        W42359  20.227  27.042  11.490
74019W        W42360  24.987  20.577   4.776
74020W        W42361   8.375  25.614   0.941
74021W        W42362  33.563  27.070  10.576
74022W        W42363   4.344  31.545  11.020
74023W        W42364   4.281   3.731   0.881
74024W        W42365  24.218  30.119  10.553
74025W        W42366  43.806  15.252  13.370
74026W        W42367   7.683  17.296  10.019
74027W        W42368  10.684  17.163   4.280
74028W        W42369  20.558  23.723   4.212
74029W        W42370  38.430  20.124   4.715
74030W        W42371   2.286  26.086  14.908
74031W        W42372  39.836  10.320   3.664
74032W        W42373  23.622  43.904   3.219
74033W        W42374  32.557   4.426   0.795
74034W        W42375   2.352   8.179   3.262
74035W        W42376  31.015   1.339   0.328
74036W        W42377  43.934  31.418  11.601
74037W        W42378  33.446  11.234   4.609
74038W        W42379   2.842   8.247  14.452
74039W        W42380  14.633  36.483   3.336
74040W        W42381  15.819  23.061   1.271
74041W        W42382  19.770   6.393  14.369
74042W        W42383  13.114  39.870  11.478
74043W        W42384  15.595  31.998   5.771
74044W        W42385  35.461  29.136  11.597
74045W        W42386  31.599  30.606  14.481
74046W        W42387   6.690  42.800  12.835
74047W        W42388  43.776   6.894  12.075
74048W        W42389   6.814  10.236  14.919
74049W        W42390   7.385  13.652   2.684
74050W        W42391  21.200  42.474  12.853
74051W        W42392  35.108  26.140  14.024
74052W        W42393  11.347  27.469   2.870
74053W        W42394  18.698  22.060  13.335
74054W        W42395  30.656   3.805   3.255
74055W        W42396  33.027   0.835  10.571
74056W        W42397  24.582  34.890   3.828
74057W        W42398  21.115  42.835  12.005
74058W        W42399  29.990  17.175   4.652
74059W        W42400   6.682  13.642   0.425
74060W        W42401  12.266  40.916   5.281
74061W        W42402  42.019  11.825  12.393
74062W        W42403   1.831  11.194  11.451
74063W        W42404   5.814  27.565   4.819
74064W        W42405  16.131  30.084  13.490
74065W        W42406  10.818  33.030  11.522
74066W        W42407   1.944  43.792   1.775
74067W        W42408   1.865   9.716   2.227
74068W        W42409  21.231  18.136  13.466
74069W        W42410  25.073  11.730  13.831
74070W        W42411  38.822  14.702   1.774
74071W        W42412  26.526  27.164   1.446
74072W        W42413  20.531  35.517  13.440
74073W        W42414   7.665  31.090  12.999
74074W        W42415  33.541  39.412   5.303
74075W        W42416  36.552   1.265  11.552
74076W        W42417  16.660  42.366   1.860
74077W        W42418   4.902  27.150  10.503
74078W        W42419  12.827  37.545  12.434
74079W        W42420   5.761  42.305  14.357
74080W        W42421  42.311  34.522   0.361
74081W        W42422  10.164  36.486   0.479
74082W        W42423   9.308  15.082   4.692
74083W        W42424   3.793  16.600  13.344
74084W        W42425  30.608  24.221  12.888
74085W        W42426  23.132  35.935  12.352
74086W        W42427   3.262  10.634  11.100
74087W        W42428  39.372  41.508  11.972
74088W        W42429   3.273  42.818   2.353
74089W        W42430  43.860   5.864  13.869
74090W        W42431   7.266   4.814  14.845
74091W        W42432  26.024   2.277   0.794
74092W        W42433  39.028   2.355  12.959
74093W        W42434  43.305  28.643   1.886
74094W        W42435  42.008  34.370   3.850
74095W        W42436  30.142   4.797   2.249
74096W        W42437  29.956   5.324  13.378
74097W        W42438  15.788  27.990   0.829
74098W        W42439   6.729   5.376   3.856
74099W        W42440  10.345  13.697   0.850
74100W        W42441   3.937  21.225  13.045
74101W        W42442  25.056  27.637  10.051
74102W        W42443  17.250  31.006   3.710
74103W        W42444   5.892  28.008  14.417
74104W        W42445   5.904   9.879   3.269
74105W        W42446  30.512  17.613  11.089
74106W        W42447  10.204  43.891   2.278
74107W        W42448  22.540   7.736  14.839
74108W        W42449  39.044  26.609   2.662
74109W        W42450   3.274  23.672  11.097
74110W        W42451   6.735  22.243  11.096
74111W        W42452  34.010  44.414   3.178
74112W        W42453   4.443  13.122  12.523
74113W        W42454  31.979  14.246  14.333
74114W        W42455  36.397  25.522  11.884
74115W        W42456  14.321  41.529   3.736
74116W        W42457  11.371   9.720   2.707
74117W        W42458  38.839  29.961   2.680
74118W        W42459  43.394  12.668  13.425
74119W        W42460  18.615  11.861  11.475
74120W        W42461   9.715  32.465   0.765
74121W        W42462   1.385   0.807  14.334
74122W        W42463  26.514   8.258  12.063
74123W        W42464   6.738  21.586   1.430
74124W        W42465  32.401  28.003   0.952
74125W        W42466   3.805  44.387  10.416
74126W        W42467  12.354  26.500   2.184
74127W        W42468  44.442  11.365   3.730
74128W        W42469  10.324  28.027   4.681
74129W        W42470   4.395  11.681   2.681
74130W        W42471  25.629   7.327  13.978
74131W        W42472  26.609  19.268  12.536
74132W        W42473  24.525  44.294  14.329
74133W        W42474  35.020  16.803   2.304
74134W        W42475  36.365  40.843  11.510
74135W        W42476  33.097  10.644   3.253
74136W        W42477  28.641  28.089   1.848
74137W        W42478  44.815  41.468  13.895
74138W        W42479  38.029   5.807   2.299
74139W        W42480  36.966  44.436  14.813
74140W        W42481  10.700  44.900  11.577
74141W        W42482  27.960  27.190  14.849
74142W        W42483  44.910  42.392   0.777
74143W        W42484   7.696  18.184  12.485
74144W        W42485  16.668   5.746   3.251
74145W        W42486  37.519   4.389  14.896
74146W        W42487   7.700  41.429   4.633
74147W        W42488   3.223   3.373   0.355
74148W        W42489  41.342   8.235  12.092
74149W        W42490  40.914  25.520   1.313
74150W        W42491  43.971  29.627   4.791
74151W        W42492  19.146  18.642  13.927
74152W        W42493  22.660  18.605  12.982
74153W        W42494   2.758  39.339  12.977
74154W        W42495   3.398   9.260   1.739
74155W        W42496  33.041  10.648  12.561
74156W        W42497  36.407  32.939  11.857
74157W        W42498  14.108   3.748   3.175
74158W        W42499  30.025  39.411  10.933
74159W        W42500  28.155  35.971  11.967
74160W        W42501  36.067  24.224   3.699
74161W        W42502  37.375   4.787  13.944
74162W        W42503  16.691  43.859   3.362
74163W        W42504  13.792  20.547  11.372
74164W        W42505  44.312  35.407   3.257
74165W        W42506  12.319  17.285  13.883
74166W        W42507   4.421   6.306   4.343
74167W        W42508  17.703  21.696   1.855
74168W        W42509   3.930  29.655   3.737
74169W        W42510   7.274   4.758   4.737
74170W        W42511   8.739   1.855  13.869
74171W        W42512  24.156  17.279   4.767
74172W        W42513  10.279   3.441   3.711
74173W        W42514   8.875  44.422   0.784
74174W        W42515  25.617  26.568  13.793
74175W        W42516   4.942  21.031  10.142
74176W        W42517  32.600  14.229  11.492
74177W        W42518  20.674   2.837  13.999
74178W        W42519  15.787  32.628   4.619
74179W        W42520  22.054  44.793   4.766
74180W        W42521  41.807  11.159   3.841
74181W        W42522  31.073  44.332  13.338
74182W        W42523  43.313  39.900   4.351
74183W        W42524  17.175  17.104   4.235
74184W        W42525  36.860  41.403  12.932
74185W        W42526  40.388  23.061   2.203
74186W        W42527  14.697  36.922  13.961
74187W        W42528   9.793  19.052  11.035
74188W        W42529  27.145  10.705  13.051
74189W        W42530  22.535   7.806   4.746
74190W        W42531  32.944  36.461  13.330
74191W        W42532   4.406   2.792  13.502
74192W        W42533  24.990  40.530   2.677
74193W        W42534  41.904  43.807  13.342
74194W        W42535  41.387  25.034  11.059
74195W        W42536  42.454  20.058   1.371
74196W        W42537   7.827  38.855  10.508
74197W        W42538  10.833  26.035  12.868
74198W        W42539  33.444  43.880   9.961
74199W        W42540   2.422  10.157  14.381
74200W        W42541  13.239  24.657   1.339
74201W        W42542  31.103  39.019  13.896
74202W        W42543  44.477  39.917   3.359
74203W        W42544  25.998   9.209   1.349
74204W        W42545   1.322  13.176  14.353
74205W        W42546  28.061   4.710   1.841
74206W        W42547  27.076  25.614   2.253
74207W        W42548  23.088  34.976   0.336
74208W        W42549  22.638  43.953   3.351
74209W        W42550  12.749  43.341   2.290
74210W        W42551  28.544  42.307   0.791
74211W        W42552   1.956  22.070   0.257
74212W        W42553  39.470  34.065   3.221
74213W        W42554  36.381   5.201  12.044
74214W        W42555  20.619   1.779   0.266
74215W        W42556  26.545  10.667   2.891
74216W        W42557  11.254  15.174   1.900
74217W        W42558  21.604  35.554   4.254
74218W        W42559  31.572  32.994  11.543
74219W        W42560  21.032  13.613  14.402
74220W        W42561  27.066  37.944   0.418
74221W        W42562  32.482  26.537   2.673
74222W        W42563  11.366  37.949  13.830
74223W        W42564  16.217  15.168   1.342
74224W        W42565  40.535   0.916   3.377
74225W        W42566   6.720  20.624   1.396
74226W        W42567  36.973  41.855   2.700
74227W        W42568  30.966   2.803   3.688
74228W        W42569  29.037   5.857   0.243
74229W        W42570  27.103   5.311   0.464
74230W        W42571  37.849  11.195   0.793
74231W        W42572  44.431   7.340   3.347
74232W        W42573   7.689  30.429  10.966
74233W        W42574  15.674   2.313  11.998
74234W        W42575   7.706  40.314  13.865
74235W        W42576   6.223   7.209  11.089
74236W        W42577  22.721  42.390   3.178
74237W        W42578  33.584  42.938  11.911
74238W        W42579   0.788  11.712  13.391
74239W        W42580  22.024  44.886  10.535
74240W        W42581  29.637   4.730  11.929
74241W        W42582   4.427  12.201  13.916
74242W        W42583  38.859  10.214   1.321
74243W        W42584  36.996  32.926  10.544
74244W        W42585  33.564  37.906  13.353
74245W        W42586  32.089  36.962   1.713
74246W        W42587   3.902   2.964   2.867
74247W        W42588  44.335  36.931  10.581
74248W        W42589  23.697  22.655   1.874
74249W        W42590  28.941  38.492  14.021
74250W        W42591  33.397  19.743   4.196
74251W        W42592  40.325   2.740   3.706
74252W        W42593   5.339  35.545   4.351
74253W        W42594  28.998   4.786   1.403
74254W        W42595   7.863  18.135  14.354
74255W        W42596  40.533   3.909  13.957
74256W        W42597  44.925  28.971  10.571
74257W        W42598  17.759   7.384   1.291
74258W        W42599  10.187  31.925   4.198
74259W        W42600  43.879   7.687  10.434
74260W        W42601   5.893  24.142   1.832
74261W        W42602  26.978  34.548  12.991
74262W        W42603  19.689  40.542  11.583
74263W        W42604  29.480   6.793   1.333
74264W        W42605  31.417   5.352   1.373
74265W        W42606  28.026   1.826  14.998
74266W        W42607  26.557  27.188  14.973
74267W        W42608  33.948  21.103  11.581
74268W        W42609  35.066  43.935  14.418
74269W        W42610   1.463  16.157  13.861
74270W        W42611   4.449  35.032  11.560
74271W        W42612  35.388  11.176   1.339
74272W        W42613  19.562  41.517   3.354
74273W        W42614  19.142  38.009   2.851
74274W        W42615  32.636  11.253   0.909
74275W        W42616  43.973   8.716  12.077
74276W        W42617  25.526  35.542  11.463
74277W        W42618   1.911  36.391   0.432
74278W        W42619  32.596  41.957  14.321
74279W        W42620  42.830  19.126  13.063
74280W        W42621   3.407  44.483   5.116
74281W        W42622  36.975  22.203  11.895
74282W        W42623  24.079   3.907  10.462
74283W        W42624  23.671   8.331   1.285
74284W        W42625  36.370  31.633  10.548
74285W        W42626   0.976   1.367  13.052
74286W        W42627  28.446  28.099  14.359
74287W        W42628  13.640  27.069   2.312
74288W        W42629  20.068  33.008  11.379
74289W        W42630  21.637   1.830   1.374
74290W        W42631  25.153  22.087  12.568
74291W        W42632  12.640  39.913   4.352
74292W        W42633   9.793   3.801  13.383
74293W        W42634  16.739  13.807   0.831
74294W        W42635  12.359  40.511  10.889
74295W        W42636   8.371  41.966  12.823
74296W        W42637  40.940  26.507   3.645
74297W        W42638  36.429  40.316  11.466
74298W        W42639  37.372  31.433   2.340
74299W        W42640  44.992   1.916  13.431
74300W        W42641  23.642  23.499  14.896
74301W        W42642  44.884  30.519  11.427
74302W        W42643  43.780   2.909   0.266
74303W        W42644  31.462   2.299  13.530
74304W        W42645  30.042   4.854  12.465
74305W        W42646  10.822   5.756   1.802
74306W        W42647   5.413   3.832   2.730
74307W        W42648  27.989   4.845  12.835
74308W        W42649   8.190  32.466  12.489
74309W        W42650   3.853  38.427  10.630
74310W        W42651  34.878  27.517  10.513
74311W        W42652   6.343  41.936  11.962
74312W        W42653  35.420  15.599   3.727
74313W        W42654  23.045  41.884   2.397
74314W        W42655   6.376   2.848  12.534
74315W        W42656  16.095  39.355  14.819
74316W        W42657  39.848  33.503  14.434
74317W        W42658  28.664  32.426  12.041
74318W        W42659  11.786  18.714  12.901
74319W        W42660   9.754   4.770   0.299
74320W        W42661  40.910  27.602   0.929
74321W        W42662   8.387   7.402   2.695
74322W        W42663   1.873  26.178  11.046
74323W        W42664  27.483  25.581  10.968
74324W        W42665  14.212  43.971   0.267
74325W        W42666  39.943  43.455  11.998
74326W        W42667   1.241  33.597   2.327
74327W        W42668  20.739  34.105  10.473
74328W        W42669   9.215  38.413   3.150
74329W        W42670  40.387   3.289  14.870
74330W        W42671  40.409  20.673  10.914
74331W        W42672  39.533   5.383   2.792
74332W        W42673  40.923  40.463  12.499
74333W        W42674  33.023  19.145  13.532
74334W        W42675  20.755  27.065   1.385
74335W        W42676  25.672  43.436   1.863
74336W        W42677  30.588  43.905   3.160
74337W        W42678  15.193   3.276   4.749
74338W        W42679  35.504   4.905   2.823
74339W        W42680   6.267   7.364  12.881
74340W        W42681   3.824  36.410   0.286
74341W        W42682  39.531  21.167  12.560
74342W        W42683  23.120  37.479  14.937
74343W        W42684   0.967  31.500   1.744
74344W        W42685  44.330  43.861   1.337
74345W        W42686  14.760  11.162   1.722
74346W        W42687   1.913   2.899  14.828
74347W        W42688   3.737  41.827   0.484
74348W        W42689  27.944  12.230  11.543
74349W        W42690  12.327  20.534  13.915
74350W        W42691  26.543  14.148  12.400
74351W        W42692   3.917  11.773   4.322
74352W        W42693  24.585  10.325   3.635
74353W        W42694  29.661   4.346   2.356
74354W        W42695   0.882  29.568   1.827
74355W        W42696  33.024  19.270  11.943
74356W        W42697  28.070  39.885   0.775
74357W        W42698   9.204  23.607   3.223
74358W        W42699  29.595  14.142   5.228
74359W        W42700   0.408   2.294   0.474
74360W        W42701  34.908  17.257   0.471
74361W        W42702  24.595   6.219   0.329
74362W        W42703  29.430  10.236   2.267
74363W        W42704   1.772  39.314   2.795
74364W        W42705  40.923  13.646   1.448
74365W        W42706  11.740  27.109   3.834
74366W        W42707  36.996  13.743   0.937
74367W        W42708  30.082  22.148   2.407
74368W        W42709  10.658  17.240   1.274
74369W        W42710  41.942  26.958  13.386
74370W        W42711  24.014  39.391  14.773
74371W        W42712  27.025  29.958   4.695
74372W        W42713  17.168  37.495  14.907
74373W        W42714   5.882  37.027  10.444
74374W        W42715  32.921  42.925   2.826
74375W        W42716  28.005  38.503  12.466
74376W        W42717  41.314  34.544   1.413
74377W        W42718  33.569   1.475   2.831
74378W        W42719  33.068  23.518  14.410
74379W        W42720   8.257  33.544  12.092
74380W        W42721  22.048  40.433  11.962
74381W        W42722  38.490  10.727   3.778
74382W        W42723  34.884  35.071  12.349
74383W        W42724  44.383   0.903   4.764
74384W        W42725  19.691  42.417   1.232
74385W        W42726  30.478   2.745  10.493
74386W        W42727  33.053  37.894  11.454
74387W        W42728   4.448  10.708  12.847
74388W        W42729  25.647  12.256  14.808
74389W        W42730  39.335  40.012  10.981
74390W        W42731  20.228  22.062   3.819
74391W        W42732  35.896  35.899  14.824
74392W        W42733  40.005   1.866  11.046
74393W        W42734  17.561  35.896   4.226
74394W        W42735   4.315  34.040  14.921
74395W        W42736   2.938   1.483  11.087
74396W        W42737  44.326  39.059  11.424
74397W        W42738   6.753  39.015  13.538
74398W        W42739  23.038  15.823  11.862
74399W        W42740  39.352  13.232  14.811
74400W        W42741  15.684  25.177   2.883
74401W        W42742  37.999  41.028   3.826
74402W        W42743  26.554  43.021   2.834
74403W        W42744  23.575  43.861   2.890
74404W        W42745   6.420  39.020  10.478
74405W        W42746  10.159  36.527   1.335
74406W        W42747  10.671   2.380   3.379
74407W        W42748  38.961  12.766   1.266
74408W        W42749   8.282  40.889  14.932
74409W        W42750  33.003  11.273  11.060
74410W        W42751  14.340  31.902   2.722
74411W        W42752  33.456   7.686   2.734
74412W        W42753  18.162  43.487   3.781
74413W        W42754  24.229   5.855   2.391
74414W        W42755  19.241  30.997  11.958
74415W        W42756  26.149  33.009   1.422
74416W        W42757  44.766  22.127   4.330
74417W        W42758  10.292  32.614  12.853
74418W        W42759   9.768  37.530  10.993
74419W        W42760   4.443  19.271  10.615
74420W        W42761  30.981  13.689   1.329
74421W        W42762  25.081  14.728   4.134
74422W        W42763  21.057   4.868  10.497
74423W        W42764  19.097  25.977   0.923
74424W        W42765  26.126  37.875  14.472
74425W        W42766   4.268  40.442  13.925
74426W        W42767  21.748   4.852   0.935
74427W        W42768  32.443   8.699  13.457
74428W        W42769  21.572  33.499   1.239
74429W        W42770  42.494   5.738  14.914
74430W        W42771  25.512  34.886  14.793
74431W        W42772  22.133  26.094  14.900
74432W        W42773   7.742  33.468   2.389
74433W        W42774  13.121  43.456   1.402
74434W        W42775  36.457   6.729  11.859
74435W        W42776  20.544  16.734  13.457
74436W        W42777   3.806  26.105   4.710
74437W        W42778  15.770  28.133  10.627
74438W        W42779   0.293  33.436  11.462
74439W        W42780  13.738  15.700   2.820
74440W        W42781  21.066   8.805   5.319
74441W        W42782  16.246   4.702  13.474
74442W        W42783   7.669  38.515   3.673
74443W        W42784  36.095  28.630  10.899
74444W        W42785  16.800  38.959  12.538
74445W        W42786  35.505   9.162  13.436
74446W        W42787  11.770  25.003   4.805
74447W        W42788   8.322  24.225   1.730
74448W        W42789  23.520  37.505   0.734
74449W        W42790  29.663  13.717  10.925
74450W        W42791  19.163   4.254   2.838
74451W        W42792  30.603  11.642   0.902
74452W        W42793  16.075  43.294   4.807
74453W        W42794  19.060  32.118  10.942
74454W        W42795   4.792  10.637   4.323
74455W        W42796  30.978  31.135   2.263
74456W        W42797   7.270  28.009   4.214
74457W        W42798  23.495  32.029   2.874
74458W        W42799  14.700  10.811   4.729
74459W        W42800  18.650  15.753   2.784
74460W        W42801  18.296  18.679   2.783
74461W        W42802   9.826  30.475   2.728
74462W        W42803  41.966  11.326  13.446
74463W        W42804   2.815  22.243   3.150
74464W        W42805  19.751   2.345  14.884
74465W        W42806  24.075  24.610   0.324
74466W        W42807  43.984  37.858  13.012
74467W        W42808  43.905   3.787   1.447
74468W        W42809  31.058  42.868   3.243
74469W        W42810  42.012   9.722   4.141
74470W        W42811  10.794  38.880   2.345
74471W        W42812  42.321   6.205   0.298
74472W        W42813  28.604  35.100   1.913
74473W        W42814   9.874  12.685   3.686
74474W        W42815   8.376  17.796   2.264
74475W        W42816  13.603  25.669  11.496
74476W        W42817   9.764  17.584  14.327
74477W        W42818   4.700  43.891   2.899
74478W        W42819   0.323   0.982  11.906
74479W        W42820  33.076   5.764   2.183
74480W        W42821  32.458  34.030   2.323
74481W        W42822  19.133  32.474  13.481
74482W        W42823  10.869  27.513  12.552
74483W        W42824  44.407  33.906   2.364
74484W        W42825  20.556   7.911   2.254
74485W        W42826  31.134   5.753  10.507
74486W        W42827  33.885  34.515   4.666
74487W        W42828   2.771  41.315   0.324
74488W        W42829  22.234  29.663   0.454
74489W        W42830   2.784   9.178   3.808
74490W        W42831   2.825  14.329   1.722
74491W        W42832  43.837  10.230  14.413
74492W        W42833  10.707  10.839   3.239
74493W        W42834   4.371   4.263   1.438
74494W        W42835  34.054   2.808  11.106
74495W        W42836   7.706  44.389   1.222
74496W        W42837  12.857  39.497  12.851
74497W        W42838  19.059  28.623   3.859
74498W        W42839  21.095   6.720  10.901
74499W        W42840   1.960   6.871   3.638
74500W        W42841  16.801  29.602  11.608
74501W        W42842  23.661  15.183  13.942
74502W        W42843  33.003  17.641  12.969
74503W        W42844  25.219   9.728   1.850
74504W        W42845   1.285   9.824  12.892
74505W        W42846  38.340   6.243   2.257
74506W        W42847  37.516  40.495   0.458
74507W        W42848  12.763  21.524   4.253
74508W        W42849  41.907  35.429  10.418
74509W        W42850  29.155   6.852   1.695
74510W        W42851  34.459  40.829   2.312
74511W        W42852  16.166  27.044  11.898
74512W        W42853  21.568  18.221  11.388
74513W        W42854  21.116  14.710   3.871
74514W        W42855  41.428   7.310  14.398
74515W        W42856  15.745  42.906  14.321
74516W        W42857  42.984  30.599   1.851
74517W        W42858  32.972  32.577  12.441
74518W        W42859  36.501  36.482  14.789
74519W        W42860  20.143   7.885  11.950
74520W        W42861  32.531  12.331   4.637
74521W        W42862  24.016  43.448   1.391
74522W        W42863  37.897  31.139  14.793
74523W        W42864  42.441   8.223  10.462
74524W        W42865  12.812  37.348   0.868
74525W        W42866  37.999  37.348   0.286
74526W        W42867  17.207  25.989  13.974
74527W        W42868   1.736  31.582   3.181
74528W        W42869  19.261  34.609   0.734
74529W        W42870  12.722  17.729  10.544
74530W        W42871   4.911  25.557   2.310
74531W        W42872   4.705   2.368  11.534
74532W        W42873  34.055  36.361  12.857
74533W        W42874  34.943  24.630   1.745
74534W        W42875  42.867  19.068   1.752
74535W        W42876  11.342  37.992  14.893
74536W        W42877  10.739  38.551  12.832
74537W        W42878  38.899  40.863   4.682
74538W        W42879  19.263  36.565   2.848
74539W        W42880  43.909  13.764  13.883
74540W        W42881  36.398  16.136  10.577
74541W        W42882   9.728  26.080   1.917
74542W        W42883  33.916  14.655   3.272
74543W        W42884   6.183  37.922   4.278
74544W        W42885  38.438  17.191   1.328
74545W        W42886  19.768  19.247  13.503
74546W        W42887  31.027  25.478  12.925
74547W        W42888   6.213   7.888  11.484
74548W        W42889  32.958   9.374  14.466
74549W        W42890  22.528  18.213  14.832
74550W        W42891  25.035  35.981   0.940
74551W        W42892   4.871   8.693  12.437
74552W        W42893  31.644  29.025   1.293
74553W        W42894  24.121  19.745   0.248
74554W        W42895   2.808  44.478   1.412
74555W        W42896  31.942  13.205  11.861
74556W        W42897  25.513  43.806  14.453
74557W        W42898  12.308  36.357  13.846
74558W        W42899  32.915  34.093  11.406
74559W        W42900  31.951  28.538  14.772
74560W        W42901   5.818  32.404  10.594
74561W        W42902   7.840  43.394   3.643
74562W        W42903  44.483  26.021   0.750
74563W        W42904  35.363  40.985  12.381
74564W        W42905  36.386  10.829   1.721
74565W        W42906  31.090   4.370  14.511
74566W        W42907  21.065  20.092   2.861
74567W        W42908  14.117  39.551  10.574
74568W        W42909  35.001  20.088  14.766
74569W        W42910  16.187  32.615  13.496
74570W        W42911   2.864   7.834  14.941
74571W        W42912   2.788  30.925   4.662
74572W        W42913  18.235  10.875  11.426
74573W        W42914   0.310   5.282   4.237
74574W        W42915  23.143  10.384   1.807
74575W        W42916  14.811  16.811  13.982
74576W        W42917   6.796   3.275   2.211
74577W        W42918  44.433  18.133  11.024
74578W        W42919  36.357  20.130   2.377
74579W        W42920  44.289  16.278   2.187
74580W        W42921  24.200  21.229  14.289
74581W        W42922  42.925  14.238   2.725
74582W        W42923  21.120  33.909  13.860
74583W        W42924  29.502   6.814   2.182
74584W        W42925  14.095  37.553   2.284
74585W        W42926  17.585  26.189   2.386
74586W        W42927  38.910  19.746  10.020
74587W        W42928  44.312  15.203   2.215
74588W        W42929  42.491   6.306  12.483
74589W        W42930  36.395  22.163   1.811
74590W        W42931  22.538  20.123  14.404
74591W        W42932  37.524  17.277  12.877
74592W        W42933  12.217  36.449   4.633
74593W        W42934   0.826  44.489  12.471
74594W        W42935  32.498  29.543  13.871
74595W        W42936  37.949  29.530   4.135
74596W        W42937  11.174   3.779  12.531
74597W        W42938  21.125  32.588   3.286
74598W        W42939  37.458   8.194  14.816
74599W        W42940  23.098  28.988   3.337
74600W        W42941  36.086  28.436   0.295
74601W        W42942  18.745   5.880   0.376
74602W        W42943  27.048  41.924   4.141
74603W        W42944  10.145  41.387  10.021
74604W        W42945  39.989   5.848   0.362
74605W        W42946   0.280   0.277   1.832
74606W        W42947  10.736  21.666   0.871
74607W        W42948  41.349  13.655  13.053
74608W        W42949   1.916   4.835   1.233
74609W        W42950  40.453  43.295   1.808
74610W        W42951  10.287   8.268  12.094
74611W        W42952  40.328   9.646   1.714
74612W        W42953  35.497   3.742   0.467
74613W        W42954  36.428   1.953   0.420
74614W        W42955  25.079  40.452   1.707
74615W        W42956  30.414   4.724   4.711
74616W        W42957  41.508   5.857  13.918
74617W        W42958  27.985  14.740   1.909
74618W        W42959  39.537  23.507   1.392
74619W        W42960   9.266  39.326   0.366
74620W        W42961  27.480   2.443  11.079
74621W        W42962  16.652   1.474   4.177
74622W        W42963  11.344  18.254   2.671
74623W        W42964  21.521  24.682  10.551
74624W        W42965   1.359  18.584   3.850
74625W        W42966  27.968  13.131  11.526
74626W        W42967  19.066  40.905  11.115
74627W        W42968  30.939   7.878   0.246
74628W        W42969  29.961  44.449   0.478
74629W        W42970  39.990   3.280   4.136
74630W        W42971  42.918  44.474   1.438
74631W        W42972   1.850  36.891   4.282
74632W        W42973  12.170  35.447   2.417
74633W        W42974   9.204  39.054   9.996
74634W        W42975   6.352  38.918  11.570
74635W        W42976  43.999   1.251   4.625
74636W        W42977  11.644  39.903   1.412
74637W        W42978  18.128  28.456   0.730
74638W        W42979  22.680  26.660   0.381
74639W        W42980  42.308  29.558  11.549
74640W        W42981   9.788   9.169   0.894
74641W        W42982   0.971  11.238   1.256
74642W        W42983   4.224   5.773  13.976
74643W        W42984   0.408   9.683  11.402
74644W        W42985  39.395  20.234  14.797
74645W        W42986  29.505  12.740   3.844
74646W        W42987  23.234  13.685   3.332
74647W        W42988  22.067  37.045   1.380
74648W        W42989  29.499  41.894  14.326
74649W        W42990  32.948  26.046   4.281
74650W        W42991  40.833  18.264  14.898
74651W        W42992  43.894  28.030  10.420
74652W        W42993  30.999  30.412  11.380
74653W        W42994  43.912  11.831   3.708
74654W        W42995  15.697  34.047  12.436
74655W        W42996  24.169  22.132   2.745
74656W        W42997  43.320  38.529   3.686
74657W        W42998  25.614  21.681   4.680
74658W        W42999  33.082  18.277   4.610
74659W        W43000  15.786  24.077  11.442
74660W        W43001  22.179  10.146   4.236
74661W        W43002  25.986   0.743  14.283
74662W        W43003  26.490  10.787  10.893
74663W        W43004  20.217  28.655  14.280
74664W        W43005  25.587  15.250  10.536
74665W        W43006   8.262  22.659   4.173
74666W        W43007  39.820  35.078  12.468
74667W        W43008   9.717  17.281  12.980
74668W        W43009  19.764  24.012  14.833
74669W        W43010  27.691  16.223  10.405
74670W        W43011  42.428  38.011  12.085
74671W        W43012  38.970   0.349  14.855
74672W        W43013  41.525  23.638  11.061
74673W        W43014  35.541  23.174  11.069
74674W        W43015   9.333   6.717  11.609
74675W        W43016  27.095  16.614   4.747
74676W        W43017  14.677   4.791   3.179
74677W        W43018  14.228  22.123   2.749
74678W        W43019   2.927  22.712  13.347
74679W        W43020  23.728  13.810   3.863
74680W        W43021  26.984  40.438  14.418
74681W        W43022  23.092   3.372   4.710
74682W        W43023  44.315  18.270   5.664
74683W        W43024  15.669  37.490   5.265
74684W        W43025  28.578  23.518   1.422
74685W        W43026  15.686  18.098  13.896
74686W        W43027  22.597  33.511   1.890
74687W        W43028   0.415  12.740   3.662
74688W        W43029  37.042  44.918  12.479
74689W        W43030  19.069  10.269   1.932
74690W        W43031  22.044   2.893   0.810
74691W        W43032  25.128  35.507   3.847
74692W        W43033  39.466  34.505   2.320
74693W        W43034  21.571   0.365   2.869
74694W        W43035  44.773   8.850   0.856
74695W        W43036   7.723   7.365   2.664
74696W        W43037  32.603  39.355   0.328
74697W        W43038   9.331  31.493   1.447
74698W        W43039  17.294  33.615  10.424
74699W        W43040  35.948  43.948   0.299
74700W        W43041  36.028  18.172   1.370
74701W        W43042  16.655   8.404   3.221
74702W        W43043  30.040  24.540   1.828
74703W        W43044  11.747  25.116  12.377
74704W        W43045   9.656  25.602   1.761
74705W        W43046  24.209   3.732   4.308
74706W        W43047  19.572  35.075   2.276
74707W        W43048   8.806   9.648   1.401
74708W        W43049  15.810  34.464   3.328
74709W        W43050  28.166   4.253  10.944
74710W        W43051  30.056  35.950  12.906
74711W        W43052   6.731  33.042  11.118
74712W        W43053  41.008  31.585  11.396
74713W        W43054   7.832   4.876  14.800
74714W        W43055  10.272  12.257   2.889
74715W        W43056  31.607  43.927   2.275
74716W        W43057  42.368  32.535  14.940
74717W        W43058  18.083  32.923   4.212
74718W        W43059   4.287   6.904  11.575
74719W        W43060  31.083  33.570   3.203
74720W        W43061  44.792   0.831  12.339
74721W        W43062  11.190  33.427   1.730
74722W        W43063  39.373  25.711  12.841
74723W        W43064  32.605   6.796  13.869
74724W        W43065  44.902   9.842  11.526
74725W        W43066  13.299  36.056  11.871
74726W        W43067  32.531  14.692  10.437
74727W        W43068  24.177  22.236   4.239
74728W        W43069  39.369   5.297  14.326
74729W        W43070  31.104  30.959  13.505
74730W        W43071  39.494  42.968   0.833
74731W        W43072  27.677  39.907  14.429
74732W        W43073   9.302  31.072   0.962
74733W        W43074  18.145  29.123   1.267
74734W        W43075  39.914  14.328  14.022
74735W        W43076  28.985   6.269  14.366
74736W        W43077  32.013  20.571  10.939
74737W        W43078  35.587  26.690   1.908
74738W        W43079  33.411  20.587  10.533
74739W        W43080  33.456   7.683   1.719
74740W        W43081  35.954   8.812   3.211
74741W        W43082   7.253  20.145   1.237
74742W        W43083   4.822  19.747  10.512
74743W        W43084   5.213  34.523  11.071
74744W        W43085  26.971  34.117  11.927
74745W        W43086  19.668   1.306   3.646
74746W        W43087  19.046  30.111  10.931
74747W        W43088  12.168  39.899   2.290
74748W        W43089   5.391  21.612  12.483
74749W        W43090  23.690  16.566   4.652
74750W        W43091   4.293  26.462   3.708
74751W        W43092  31.588   5.713   4.668
74752W        W43093   2.365  10.786   4.346
74753W        W43094  18.082  16.161   4.819
74754W        W43095  43.364  16.228  12.565
74755W        W43096  12.757  33.581  13.007
74756W        W43097   7.690  32.057  11.116
74757W        W43098   4.297  38.507  12.900
74758W        W43099   5.271   3.949  11.482
74759W        W43100  31.943   0.318   0.775
74760W        W43101   7.410  24.002  10.424
74761W        W43102  12.141  13.270  11.949
74762W        W43103  32.538  37.944  11.004
74763W        W43104  11.773   3.852  13.973
74764W        W43105  16.259   8.780  10.890
74765W        W43106  38.390  34.022  13.496
74766W        W43107  37.359   5.711  14.468
74767W        W43108   8.392   4.247  10.995
74768W        W43109   9.163  44.839   3.150
74769W        W43110  41.370  36.923   2.676
74770W        W43111  18.066  40.929   3.744
74771W        W43112  14.121  33.426  13.467
74772W        W43113  27.514  29.060   2.716
74773W        W43114  19.241  19.113  12.852
74774W        W43115  30.488   4.269   1.862
74775W        W43116  17.610  21.728   3.179
74776W        W43117   6.207  26.166   4.160
74777W        W43118  32.613   9.714  10.934
74778W        W43119  20.060   6.195  14.014
74779W        W43120  21.716  17.289   0.458
74780W        W43121  24.604  35.959  13.827
74781W        W43122  13.110  33.083   0.366
74782W        W43123  14.142   9.285  11.073
74783W        W43124  29.116  35.455   2.737
74784W        W43125  12.762  39.346   2.372
74785W        W43126   2.379   4.927   4.699
74786W        W43127   6.779  17.248  13.429
74787W        W43128  14.173  37.369   0.750
74788W        W43129  14.672   3.329  10.134
74789W        W43130  29.599  35.873  10.614
74790W        W43131   2.841   4.411   4.224
74791W        W43132  41.949  30.639  12.505
74792W        W43133   5.892  18.118  12.972
74793W        W43134   9.369  38.047  13.008
74794W        W43135  22.684   8.837  10.495
74795W        W43136  24.215  34.098   2.783
74796W        W43137   1.248  35.511   4.239
74797W        W43138  22.020  40.801  14.501
74798W        W43139  14.273  40.850  11.467
74799W        W43140  39.830  17.794   0.891
74800W        W43141  25.705   6.358   0.913
74801W        W43142  35.604  22.603  10.608
74802W        W43143  36.912  13.630   2.719
74803W        W43144  27.054  41.848  14.846
74804W        W43145  10.651  31.440  12.894
74805W        W43146  11.771   9.360   3.756
74806W        W43147   6.368  22.583   4.292
74807W        W43148   6.767  34.400  14.869
74808W        W43149  21.594  11.302  12.444
74809W        W43150  10.186   1.387   2.707
74810W        W43151  30.111  28.126  14.867
74811W        W43152  21.092  39.341  14.390
74812W        W43153  34.546  22.538  14.511
74813W        W43154  27.197  36.447  14.297
74814W        W43155   9.362   7.735   2.719
74815W        W43156  24.650  29.612   4.298
74816W        W43157  29.514   6.817   4.768
74817W        W43158  30.592  31.584   4.716
74818W        W43159  24.630  24.634  10.614
74819W        W43160  19.619  23.150   1.900
74820W        W43161  21.586  27.651  13.014
74821W        W43162  24.047  21.223  10.637
74822W        W43163  38.028  25.653   1.896
74823W        W43164  14.268  34.378   4.219
74824W        W43165  31.012  21.757  12.426
74825W        W43166  11.628  43.906  14.003
74826W        W43167  26.628   8.394   4.632
74827W        W43168  11.806  31.940   4.818
74828W        W43169  26.464  15.185   4.195
74829W        W43170  19.696  34.094  10.950
74830W        W43171   5.246  27.058  14.847
74831W        W43172   9.828  18.710   3.157
74832W        W43173  17.562  44.467   3.800
74833W        W43174  24.613  28.985   1.769
74834W        W43175  10.346   2.902  10.415
74835W        W43176  37.398   6.815   4.658
74836W        W43177   5.203  43.322  13.458
74837W        W43178  12.299  24.632   0.952
74838W        W43179  30.997   8.853   0.284
74839W        W43180  23.510  35.494   4.123
74840W        W43181  29.437  42.877   5.131
74841W        W43182  16.176   9.867   0.890
74842W        W43183   0.840   1.307   2.672
74843W        W43184   5.338  30.035   1.843
74844W        W43185  33.509  12.613  14.764
74845W        W43186  17.105  23.156   4.689
74846W        W43187  11.833  42.852  11.398
74847W        W43188  41.383  26.130   0.247
74848W        W43189  32.101   2.723  12.090
74849W        W43190   9.708   2.753   0.943
74850W        W43191  17.709  32.009  12.474
74851W        W43192  26.586   9.177  12.841
74852W        W43193   7.176  24.720   0.393
74853W        W43194  35.011   9.348  12.391
74854W        W43195  17.152  15.750   0.349
74855W        W43196   5.259   9.742  12.033
74856W        W43197   5.770  44.331   3.645
74857W        W43198   7.402   1.896  13.332
74858W        W43199  18.711  19.780   4.608
74859W        W43200  26.992  17.723  11.504
74860W        W43201  43.845   7.194   3.829
74861W        W43202  22.702  10.844  13.362
74862W        W43203   3.790  29.924   2.281
74863W        W43204  27.640   8.376   1.391
74864W        W43205   8.395   8.271  10.950
74865W        W43206   5.389  21.017  12.867
74866W        W43207  34.575  42.776   1.822
74867W        W43208  41.442   4.881  14.377
74868W        W43209  26.587  21.540  10.531
74869W        W43210  17.754  12.736  10.442
74870W        W43211  24.993   0.392  14.013
74871W        W43212  39.464   3.392   1.320
74872W        W43213  37.939  38.037   2.723
74873W        W43214   3.744  27.953   0.957
74874W        W43215  25.573  40.032   1.328
74875W        W43216   5.716  23.171  10.893
74876W        W43217  27.651  15.194   0.774
74877W        W43218  24.004  17.176  12.877
74878W        W43219   3.320  17.683   3.640
74879W        W43220   1.290  19.745  13.518
74880W        W43221  11.733  34.986   3.355
74881W        W43222  26.480  22.578   4.664
74882W        W43223   1.259  36.991  12.929
74883W        W43224  19.196   4.427  10.972
74884W        W43225  10.303   9.856   9.452
74885W        W43226  13.611   9.672   3.211
74886W        W43227  16.676   3.910   2.250
74887W        W43228  44.950  20.216  10.444
74888W        W43229   1.354  41.899  11.898
74889W        W43230  16.612  28.017  13.879
74890W        W43231  16.583  42.362   3.320
74891W        W43232  40.449  31.140   1.761
74892W        W43233  44.450  17.604   2.851
74893W        W43234   7.720  13.680   0.366
74894W        W43235   5.400   6.204  14.307
74895W        W43236   3.294  37.412   2.702
74896W        W43237  34.948   5.808  13.823
74897W        W43238  43.448   7.335  14.469
74898W        W43239  11.135  28.549  10.478
74899W        W43240  39.000  12.716   4.236
74900W        W43241   8.731  41.852   5.261
74901W        W43242   1.385  41.995   3.282
74902W        W43243  33.018   7.276  12.950
74903W        W43244  17.720  10.377  13.478
74904W        W43245  32.511   6.743   4.834
74905W        W43246  19.567  36.955  12.382
74906W        W43247   7.789  44.333  14.304
74907W        W43248  36.988  13.303   4.237
74908W        W43249  30.977  37.508   2.418
74909W        W43250  14.225  26.614   0.304
74910W        W43251  32.544  38.857   3.834
74911W        W43252  30.131   5.728  11.562
74912W        W43253  31.936  42.500   9.926
74913W        W43254  42.024  21.070  12.489
74914W        W43255  18.204   7.702  13.337
74915W        W43256  40.527   2.940  11.561
74916W        W43257  35.586  19.614  12.389
74917W        W43258  28.173  17.769  13.511
74918W        W43259   2.250  27.653   1.289
74919W        W43260  40.990  39.424  11.429
74920W        W43261  14.313  40.806   0.472
74921W        W43262  12.626  11.293   4.598
74922W        W43263   9.393   7.719   0.371
74923W        W43264  28.134  33.618   4.647
74924W        W43265  18.180   6.880   2.415
74925W        W43266  37.495  13.183   1.732
74926W        W43267  31.940  17.594  14.947
74927W        W43268   9.760   8.834   2.309
74928W        W43269  15.323   4.722   0.395
74929W        W43270  22.241   5.236  11.914
74930W        W43271  27.644  26.039  11.560
74931W        W43272  43.319   0.280  13.478
74932W        W43273   1.850  19.572  10.008
74933W        W43274  29.442  24.072   1.277
74934W        W43275  21.568  15.304   4.344
74935W        W43276  13.350  13.630   4.303
74936W        W43277  38.827  20.729   4.777
74937W        W43278  13.842  16.648  14.869
74938W        W43279   4.424  33.461  14.336
74939W        W43280  15.800   2.910  12.566
74940W        W43281  22.184  15.797  12.982
74941W        W43282  18.667  20.570   0.875
74942W        W43283  15.582  24.127   2.335
74943W        W43284   2.465  15.106   4.721
74944W        W43285   2.858  40.389  12.368
74945W        W43286  32.529  10.742  12.025
74946W        W43287  15.729  13.668  14.292
74947W        W43288  29.067  38.041  13.546
74948W        W43289  19.253  27.986  10.441
74949W        W43290  38.075  43.791  13.001
74950W        W43291  39.816  26.547   3.681
74951W        W43292   6.831  20.140  10.947
74952W        W43293   9.884  23.592  12.381
74953W        W43294  20.654  32.896  11.938
74954W        W43295  22.576  28.449   1.830
74955W        W43296   4.703  41.999  11.518
74956W        W43297   3.351  28.128  13.309
74957W        W43298   5.371   9.879  13.820
74958W        W43299  23.086  36.423   0.795
74959W        W43300  40.371  40.470   4.789
74960W        W43301  20.037   4.724   0.910
74961W        W43302  20.165  26.556   2.807
74962W        W43303  29.065  29.500   1.431
74963W        W43304   8.656  37.840   2.395
74964W        W43305   7.753  22.617  13.345
74965W        W43306  28.154  13.710   0.308
74966W        W43307  43.001   1.300   3.301
74967W        W43308  16.149  28.650  12.942
74968W        W43309  14.603   7.336   1.719
74969W        W43310  25.060  33.100  12.884
74970W        W43311  21.177  14.247  12.380
74971W        W43312  15.308  28.993   0.744
74972W        W43313  17.290   7.751  14.961
74973W        W43314  38.399  27.071   0.256
74974W        W43315   0.431  42.913  11.613
74975W        W43316  34.587  20.126  14.950
74976W        W43317   6.295   5.292  12.845
74977W        W43318  31.516  27.021  11.406
74978W        W43319  38.053  22.622   2.895
74979W        W43320  42.357  25.151  14.303
74980W        W43321  40.887  39.979  11.598
74981W        W43322  23.105  34.079   0.351
74982W        W43323  21.536   6.875   1.922
74983W        W43324   0.770  11.191  12.345
74984W        W43325  17.098  34.375  12.039
74985W        W43326   1.831   2.882  14.357
74986W        W43327   3.949  25.711   0.347
74987W        W43328  28.123  42.837   1.321
74988W        W43329  31.455  21.066   4.121
74989W        W43330   5.723   7.333  11.945
74990W        W43331  13.778  42.965  13.035
74991W        W43332  36.520  39.391   2.852
74992W        W43333  37.908   9.840   2.360
74993W        W43334  19.682  15.147   3.775
74994W        W43335  12.725  28.965  12.913
74995W        W43336  21.528  10.739   4.701
74996W        W43337  40.013  29.453  12.906
74997W        W43338  33.984  19.595  11.903
74998W        W43339  13.286   9.866  13.790
74999W        W43340   2.895  16.103  12.469
75000W        W43341   3.908  22.997  13.492
75001W        W43342   8.691   2.359  11.513
75002W        W43343  42.392  11.737   3.232
75003W        W43344  39.326  11.205  11.464
75004W        W43345  30.153  43.884  14.395
75005W        W43346  26.459  18.666  12.574
75006W        W43347  39.515  28.648  12.402
75007W        W43348  41.952  10.775  13.875
75008W        W43349  15.786  37.501  14.981
75009W        W43350  12.683  39.877  13.308
75010W        W43351  42.329   1.445  11.931
75011W        W43352  17.637  20.706  11.946
75012W        W43353  25.193  26.116   3.356
75013W        W43354  37.481  19.145   3.176
75014W        W43355   9.392  12.818  14.807
75015W        W43356   3.336   6.355  14.402
75016W        W43357  15.176  36.541  11.977
75017W        W43358  21.515  29.491  14.367
75018W        W43359   1.450  10.355   1.317
75019W        W43360   9.781  29.973   0.460
75020W        W43361  21.100  11.645   0.935
75021W        W43362  14.110  26.081  13.981
75022W        W43363  25.608  24.116  14.393
75023W        W43364   5.896  15.321   2.860
75024W        W43365   6.289  42.370   4.288
75025W        W43366  25.658   5.712   2.245
75026W        W43367  29.467  37.976   3.158
75027W        W43368  25.125  16.658  10.017
75028W        W43369  35.052  31.002  10.922
75029W        W43370  32.113  27.965  12.435
75030W        W43371   5.382  38.427   0.823
75031W        W43372  14.331  16.790   0.382
75032W        W43373  13.676   3.320  12.549
75033W        W43374  30.657  12.767   3.190
75034W        W43375  43.830  13.815  11.460
75035W        W43376  39.027  43.921   3.358
75036W        W43377  32.034  22.091  13.311
75037W        W43378  38.063  27.130   3.314
75038W        W43379  33.046  33.028  11.018
75039W        W43380  26.972  10.226  12.513
75040W        W43381  11.275  25.550   1.895
75041W        W43382  13.678  44.297   3.790
75042W        W43383  21.540  39.403   0.908
75043W        W43384  25.213  42.500  14.977
75044W        W43385  36.951   5.274   3.793
75045W        W43386  39.946  25.554  14.000
75046W        W43387  11.683  43.475  13.045
75047W        W43388  37.974   4.208  14.952
75048W        W43389  30.503  13.113   3.316
75049W        W43390   3.750  21.572  13.036
75050W        W43391  40.377  39.348   1.420
75051W        W43392  29.174  37.557  14.894
75052W        W43393   2.258  28.543  11.515
75053W        W43394  13.135  19.757   4.352
75054W        W43395   7.865   0.881   0.399
75055W        W43396  28.529  27.042   0.806
75056W        W43397  29.453  11.349  11.528
75057W        W43398  14.779  20.760   3.796
75058W        W43399   3.869  20.718   3.295
75059W        W43400  13.203  22.698  11.856
75060W        W43401   4.907  25.489  12.839
75061W        W43402  13.674  26.678   0.951
75062W        W43403   2.871   0.855  11.585
75063W        W43404  16.241  32.540  12.008
75064W        W43405   9.771  16.226  13.930
75065W        W43406  12.209  22.082  12.846
75066W        W43407  18.660  27.043   4.351
75067W        W43408  33.120  26.131  11.396
75068W        W43409  39.929  17.572  14.997
75069W        W43410   5.391  35.938   0.796
75070W        W43411  16.647  20.713   1.271
75071W        W43412  32.921   5.845  14.850
75072W        W43413  12.155   4.739   3.784
75073W        W43414  25.218  41.415  11.099
75074W        W43415  36.904  31.416   2.703
75075W        W43416   4.237  21.620  13.978
75076W        W43417  39.401  31.401  13.038
75077W        W43418  29.563  23.238   2.404
75078W        W43419   0.494  10.384   1.234
75079W        W43420  35.446  22.150  13.902
75080W        W43421  37.063   2.227  11.993
75081W        W43422  33.125  33.041   0.947
75082W        W43423  20.609  27.175   3.631
75083W        W43424  37.544  22.689  10.597
75084W        W43425  42.028  34.452   2.734
75085W        W43426  26.509  22.996   1.899
75086W        W43427  44.263   3.389  14.916
75087W        W43428  26.504  34.035   0.861
75088W        W43429  38.046  43.767  13.963
75089W        W43430  41.915  42.403   0.400
75090W        W43431  14.730  35.371  11.569
75091W        W43432  34.108  31.107   4.726
75092W        W43433  18.266  38.040  11.104
75093W        W43434  23.136   7.680   0.350
75094W        W43435  35.593  44.799  13.844
75095W        W43436   6.684  43.937  11.064
75096W        W43437  13.690  33.439  11.591
75097W        W43438  17.655  31.056   0.293
75098W        W43439  29.458  41.515  11.578
75099W        W43440   1.347  25.601  11.371
75100W        W43441  21.093   6.208  12.344
75101W        W43442   0.763  38.859   3.836
75102W        W43443  44.269  16.252  11.943
75103W        W43444  27.666  12.211   2.183
75104W        W43445  15.227  11.791  11.395
75105W        W43446  38.534  15.201   2.789
75106W        W43447  17.203  22.671   3.710
75107W        W43448  23.221  17.307  13.878
75108W        W43449  33.612  19.579   4.804
75109W        W43450   7.793  15.150  12.828
75110W        W43451   2.917  36.404   3.852
75111W        W43452  39.032   6.279   2.703
75112W        W43453  19.550  41.986   4.240
75113W        W43454   9.887   8.218   0.883
75114W        W43455  34.537  33.975  12.020
75115W        W43456  39.901  19.581   3.343
75116W        W43457  15.597  41.805  14.947
75117W        W43458  43.509  39.018   0.461
75118W        W43459  43.802  43.991  13.423
75119W        W43460   8.203  33.428   1.891
75120W        W43461  39.391   0.278   0.891
75121W        W43462  10.839  21.522  13.831
75122W        W43463  15.235  12.316  12.972
75123W        W43464  33.560  18.715  10.641
75124W        W43465   8.684   5.762  14.467
75125W        W43466  28.617  24.584  12.883
75126W        W43467   3.833  20.676  11.971
75127W        W43468  44.844  25.997  14.816
75128W        W43469  12.127  32.438  11.481
75129W        W43470  19.697  39.440   2.245
75130W        W43471  16.599   9.355  10.440
75131W        W43472  24.590  32.960  10.472
75132W        W43473  24.150  35.855  10.889
75133W        W43474   3.711   6.289   2.180
75134W        W43475   3.368  19.163   3.793
75135W        W43476  42.375  34.043   1.901
75136W        W43477  41.477   1.862  13.529
75137W        W43478  42.490  37.431  13.357
75138W        W43479   3.855  26.668   2.269
75139W        W43480  39.418  24.672   4.196
75140W        W43481  18.162  17.095  11.544
75141W        W43482  34.387  29.955   2.314
75142W        W43483  44.382  16.704   4.771
75143W        W43484   7.348   8.784  13.428
75144W        W43485  20.532  13.107   1.376
75145W        W43486  15.604  43.492   3.716
75146W        W43487  37.890  28.547  11.122
75147W        W43488   9.265  30.946  13.346
75148W        W43489  13.703   3.866  14.307
75149W        W43490  20.532  37.338   3.730
75150W        W43491   3.369  26.066   3.238
75151W        W43492  29.169  29.067   3.721
75152W        W43493   4.832  37.893  13.539
75153W        W43494  14.622  23.000  12.475
75154W        W43495  13.217  20.105  10.942
75155W        W43496  24.566  28.476   5.570
75156W        W43497  37.415  17.737   2.818
75157W        W43498  27.969   4.920  11.525
75158W        W43499  14.685  19.649  14.343
75159W        W43500  31.466  44.281   1.321
75160W        W43501  25.510  25.538  12.846
75161W        W43502  39.437   8.312   3.186
75162W        W43503  34.890  34.375   4.691
75163W        W43504   0.876  18.183  12.921
75164W        W43505  20.260   5.704   2.278
75165W        W43506  25.604  28.098   4.190
75166W        W43507   4.840   3.905  10.523
75167W        W43508  21.687   5.397   1.398
75168W        W43509  22.088  26.595   3.695
75169W        W43510  12.128  37.036   0.269
75170W        W43511   6.705  16.150   2.775
75171W        W43512   5.319   0.413   3.190
75172W        W43513  38.530  36.886   0.748
75173W        W43514  20.235  18.589   3.241
75174W        W43515   0.814  23.015   1.852
75175W        W43516  36.844   5.910  13.462
75176W        W43517  15.292   7.364   1.256
75177W        W43518  33.463   8.840   3.176
75178W        W43519  25.966  32.011  12.551
75179W        W43520   2.458  38.416  13.540
75180W        W43521  27.070  31.997   2.326
75181W        W43522  29.102  31.965  11.902
75182W        W43523  17.661  23.614   1.378
75183W        W43524  25.623   5.423  10.476
75184W        W43525   8.404  32.124  12.033
75185W        W43526  14.315  25.046   0.954
75186W        W43527  21.671  30.498   2.213
75187W        W43528  23.234   4.379  12.957
75188W        W43529  40.519  39.406  14.982
75189W        W43530  34.873  24.019  11.927
75190W        W43531  43.387  36.989  11.965
75191W        W43532  15.757  17.632  14.795
75192W        W43533  29.048  36.568  14.926
75193W        W43534  39.850  22.645   0.931
75194W        W43535  26.633  37.967   3.325
75195W        W43536  41.984  43.883  14.276
75196W        W43537  27.601  18.684   2.852
75197W        W43538  16.234   6.352  14.902
75198W        W43539  22.693   1.436   0.961
75199W        W43540   2.460   1.950  14.808
75200W        W43541   7.725  14.724   1.768
75201W        W43542  43.406  11.727   2.381
75202W        W43543  12.131  39.003   1.330
75203W        W43544  43.462  31.567   2.738
75204W        W43545  35.430  25.634  12.447
75205W        W43546   1.370  16.617   5.712
75206W        W43547  20.599  26.136   4.118
75207W        W43548   0.986  37.478   2.898
75208W        W43549   2.727  43.416   4.148
75209W        W43550  12.181  16.257  14.876
75210W        W43551  16.304  28.108  14.516
75211W        W43552   3.413   0.770   3.646
75212W        W43553   2.742  11.811   3.282
75213W        W43554  26.599  35.470   0.433
75214W        W43555  18.089  31.141   0.345
75215W        W43556   1.910  13.611   2.817
75216W        W43557  40.891  30.596   1.252
75217W        W43558  37.943  20.573  14.821
75218W        W43559  15.088  11.794  14.818
75219W        W43560  12.301   6.779   1.379
75220W        W43561  36.923   7.227   3.280
75221W        W43562   7.183  26.957  13.942
75222W        W43563  16.612   0.748  13.382
75223W        W43564  27.494   7.676   0.435
75224W        W43565  14.124   4.823  11.440
75225W        W43566  36.397  18.266   4.779
75226W        W43567   1.953  42.861  13.411
75227W        W43568   3.745  14.739  12.953
75228W        W43569  23.705  17.088   5.114
75229W        W43570  20.768   3.867   4.758
75230W        W43571  44.990  23.135  10.452
75231W        W43572  30.096  33.383  13.466
75232W        W43573  39.977  33.985   3.705
75233W        W43574   0.490  13.742   1.263
75234W        W43575  37.549  33.395  12.857
75235W        W43576   3.752  25.089  10.147
75236W        W43577  16.288  27.144  14.984
75237W        W43578  37.516   2.903   4.787
75238W        W43579  17.245  27.170  12.018
75239W        W43580  15.775  41.300   0.927
75240W        W43581  38.879   6.271   1.369
75241W        W43582  26.604  13.806   2.344
75242W        W43583  30.470  42.840  12.856
75243W        W43584   9.703  17.098  10.994
75244W        W43585  10.159  41.468  11.481
75245W        W43586  22.183   2.784  10.892
75246W        W43587  16.212  12.793   0.291
75247W        W43588  19.117  14.266   0.474
75248W        W43589  44.842  31.896  12.957
75249W        W43590  42.362  15.119   2.871
75250W        W43591  26.568   0.466   5.095
75251W        W43592  40.893  35.391  13.407
75252W        W43593  33.074  24.183   2.761
75253W        W43594   3.225  17.683  13.359
75254W        W43595  16.610  32.563   1.335
75255W        W43596  15.238  36.377  10.520
75256W        W43597   9.263  27.064   1.925
75257W        W43598  44.282  38.374   4.127
75258W        W43599  30.142  12.238   0.301
75259W        W43600  18.167  20.182   3.794
75260W        W43601  14.811  33.602  14.380
75261W        W43602  37.468   9.714  10.406
75262W        W43603  36.012  42.341  12.429
75263W        W43604   1.390  12.272   0.426
75264W        W43605  16.805  20.234  13.796
75265W        W43606  40.533  41.918  12.527
75266W        W43607  18.728  21.030  13.357
75267W        W43608  43.935   6.398  11.907
75268W        W43609  16.286   6.725   1.443
75269W        W43610  29.624  24.099   2.710
75270W        W43611  36.045  23.650  11.103
75271W        W43612  35.027  44.315   3.702
75272W        W43613  25.060  22.202   1.415
75273W        W43614  37.958  40.973   2.306
75274W        W43615  39.825  27.057  14.893
75275W        W43616   4.283  31.021   0.342
75276W        W43617  41.491  21.709  13.017
75277W        W43618  34.015  39.873   1.274
75278W        W43619  42.996  10.751  12.904
75279W        W43620  30.412  24.180   3.658
75280W        W43621  20.538  13.144   3.682
75281W        W43622  22.564  27.118  14.452
75282W        W43623  39.405  41.312   2.794
75283W        W43624  35.070  42.986  12.875
75284W        W43625  25.005   6.395  13.362
75285W        W43626  39.529  10.359  13.860
75286W        W43627  29.567  35.079   2.181
75287W        W43628  12.301  34.997   0.924
75288W        W43629  15.669   6.860  11.552
75289W        W43630  33.529   2.836  11.883
75290W        W43631  28.954  13.753  14.866
75291W        W43632  35.431   4.328  12.010
75292W        W43633  25.130  34.432  14.285
75293W        W43634   9.797  32.057  13.018
75294W        W43635   3.263  39.391  11.083
75295W        W43636  43.915  34.525  11.076
75296W        W43637  24.060  27.569   0.351
75297W        W43638  42.950  29.565  13.910
75298W        W43639  23.705   0.844   4.725
75299W        W43640  14.233  28.937   2.686
75300W        W43641   1.463  31.570   4.189
75301W        W43642  38.559  40.049  11.421
75302W        W43643   5.755  10.140   1.450
75303W        W43644   7.403  26.981   4.344
75304W        W43645  18.617   2.728   2.732
75305W        W43646  11.805  44.755   1.368
75306W        W43647   9.694  33.574  14.384
75307W        W43648  33.408  20.578   0.878
75308W        W43649  40.873   2.388   0.830
75309W        W43650  28.522   1.420   4.170
75310W        W43651  22.184  39.951   4.810
75311W        W43652  39.472   7.727  13.365
75312W        W43653  33.905  42.408   3.322
75313W        W43654  12.800  38.538  10.089
75314W        W43655   3.778  31.934   4.729
75315W        W43656  29.523  23.596   2.777
75316W        W43657  27.627  41.020   0.433
75317W        W43658  29.429  14.722   2.798
75318W        W43659  40.424   4.257  12.534
75319W        W43660  30.023  40.004  10.947
75320W        W43661  26.088  40.897   1.916
75321W        W43662  23.033  36.047  10.531
75322W        W43663  32.891  26.684  12.471
75323W        W43664  11.817   1.800  12.827
75324W        W43665   5.223  18.206   3.671
75325W        W43666  10.294  37.000  13.458
75326W        W43667  38.882  37.400   0.446
75327W        W43668   4.309   7.907   0.885
75328W        W43669  38.561   4.765  11.551
75329W        W43670  40.882  13.191   3.792
75330W        W43671   6.685  33.975  13.826
75331W        W43672  36.971  33.874  10.572
75332W        W43673  13.660  23.175  10.919
75333W        W43674   6.818   0.818  13.064
75334W        W43675   8.862   0.890   4.207
75335W        W43676  23.673   8.889   0.337
75336W        W43677  25.503  36.524   4.739
75337W        W43678  19.610  17.658   3.722
75338W        W43679   8.365  30.447  12.907
75339W        W43680  30.132  28.091  14.012
75340W        W43681  14.756   4.726   4.284
75341W        W43682  40.820  12.292   4.255
75342W        W43683  14.786  15.612   4.155
75343W        W43684  37.364  13.109   3.842
75344W        W43685  12.718   2.941   2.382
75345W        W43686  14.604  32.394  10.547
75346W        W43687   9.247  34.070  11.084
75347W        W43688  15.656  30.484   1.434
75348W        W43689   1.768   0.467  12.858
75349W        W43690  38.847  25.048  13.492
75350W        W43691   0.870  38.988  13.011
75351W        W43692  42.798  43.301   5.229
75352W        W43693  28.064  26.553  11.951
75353W        W43694  25.689  39.979  12.368
75354W        W43695  35.034   1.924   1.773
75355W        W43696   7.193   9.298   1.793
75356W        W43697  10.333  19.086   3.231
75357W        W43698  24.079  41.898   4.604
75358W        W43699  28.079  18.605  11.114
75359W        W43700   3.333  38.842  13.057
75360W        W43701  33.068  21.060   0.916
75361W        W43702  12.674  40.915   4.318
75362W        W43703  25.117  27.619  13.313
75363W        W43704  15.274  42.780  10.488
75364W        W43705  20.063   4.255  13.375
75365W        W43706   2.755  31.131   3.822
75366W        W43707  24.134  36.393   3.230
75367W        W43708   1.935   2.835   4.815
75368W        W43709  30.538   9.650  13.463
75369W        W43710  11.741  19.276  11.580
75370W        W43711  16.180   3.302   4.758
75371W        W43712  12.708  33.556   3.803
75372W        W43713  14.819  29.007   4.756
75373W        W43714  11.150  23.725   1.346
75374W        W43715   5.326  33.903   2.707
75375W        W43716  35.501  29.601   0.436
75376W        W43717  14.763   5.419   1.241
75377W        W43718  38.440  27.101   2.667
75378W        W43719   9.295  15.765   2.409
75379W        W43720  22.183  37.933   4.333
75380W        W43721  23.504  27.965  12.518
75381W        W43722  29.175  44.966  13.887
75382W        W43723  34.883   4.376  14.406
75383W        W43724  36.389   0.258  13.827
75384W        W43725  19.577   8.893   0.864
75385W        W43726  13.807  40.050  14.003
75386W        W43727   7.179  25.628   1.274
75387W        W43728  10.166  34.006  14.394
75388W        W43729   0.850  12.316  13.889
75389W        W43730  35.936  13.728  13.441
75390W        W43731  35.003   9.259  12.884
75391W        W43732   4.217   7.892   0.293
75392W        W43733   1.238  11.842   1.427
75393W        W43734   6.737  14.174   2.731
75394W        W43735  23.150  10.763   2.838
75395W        W43736   8.742  13.737   2.818
75396W        W43737  38.543   7.318   3.634
75397W        W43738  12.641  24.146  14.335
75398W        W43739   2.948  21.045   3.717
75399W        W43740   4.378  30.514  12.470
75400W        W43741  27.652  36.037   4.773
75401W        W43742  15.769  38.976   5.246
75402W        W43743  32.125  35.411   3.209
75403W        W43744  44.318   3.339  14.477
75404W        W43745  18.584  31.647  10.600
75405W        W43746   4.871  40.947   3.705
75406W        W43747   8.691  35.452  13.527
75407W        W43748   3.282  13.661   3.841
75408W        W43749   2.331  19.081   5.219
75409W        W43750  44.407  15.272   1.316
75410W        W43751  15.278  34.420  11.441
75411W        W43752  21.032  20.258  12.875
75412W        W43753  18.664  20.675   5.313
75413W        W43754   1.926  27.468  13.039
75414W        W43755  14.125  29.494  14.868
75415W        W43756  20.542   8.161  10.956
75416W        W43757  10.353  33.615   1.358
75417W        W43758   8.706  44.342  11.039
75418W        W43759  31.029  24.222   1.401
75419W        W43760  33.934  29.163  10.408
75420W        W43761  33.384  36.447  10.463
75421W        W43762   2.842  19.722   0.789
75422W        W43763  44.394  10.294  14.492
75423W        W43764  18.130   7.772   1.753
75424W        W43765  10.211  43.864   1.386
75425W        W43766  22.671  36.565  13.935
75426W        W43767  23.519  27.190  14.975
75427W        W43768  38.989   7.781   4.670
75428W        W43769  43.814  44.286   3.738
75429W        W43770  36.499  19.237  13.542
75430W        W43771  21.261  18.066   2.843
75431W        W43772  10.211   7.776   2.302
75432W        W43773   1.971  19.197  11.483
75433W        W43774   2.847  28.149  14.844
75434W        W43775  39.001  25.686   3.850
75435W        W43776  42.919  40.813  14.828
75436W        W43777  34.889  42.879  11.964
75437W        W43778  43.869  23.493  13.417
75438W        W43779  36.591  28.104  14.839
75439W        W43780   2.948  19.130  13.871
75440W        W43781  23.649  26.550  14.368
75441W        W43782  21.023   5.786  11.473
75442W        W43783  40.870  25.070   0.307
75443W        W43784  31.563  10.220  10.570
75444W        W43785  31.118  40.882  14.311
75445W        W43786  26.134  15.707   5.257
75446W        W43787  44.400  32.048  14.957
75447W        W43788  26.468  22.719   3.647
75448W        W43789  39.368  21.539  14.441
75449W        W43790  10.798  37.357   3.192
75450W        W43791  38.494   6.718  11.097
75451W        W43792  23.598  29.162  10.947
75452W        W43793   1.328  26.034   1.716
75453W        W43794  21.205  29.998   4.736
75454W        W43795  42.937   9.742  13.358
75455W        W43796  35.999  14.661   2.852
75456W        W43797  38.948  20.569  14.938
75457W        W43798   9.217  30.486   5.312
75458W        W43799   9.271  35.042  11.077
75459W        W43800  16.607  36.376  11.509
75460W        W43801  34.090   7.747  10.996
75461W        W43802  25.622  16.601   1.781
75462W        W43803  38.531  44.325   1.423
75463W        W43804  15.181  31.492  10.070
75464W        W43805  26.586  20.121   1.797
75465W        W43806   3.741  16.149   3.802
75466W        W43807  37.544  12.709  11.105
75467W        W43808  41.872  33.006   0.751
75468W        W43809  26.102  21.064   1.427
75469W        W43810  43.861  36.436   4.733
75470W        W43811  16.656  16.265   1.935
75471W        W43812  30.634  13.147  12.965
75472W        W43813  23.717  37.845   4.140
75473W        W43814  20.660  41.991   1.296
75474W        W43815  38.819  23.674   2.814
75475W        W43816  13.317  42.497  12.082
75476W        W43817  22.677   1.788   0.392
75477W        W43818  41.959   3.418  13.974
75478W        W43819  33.495  26.603   3.223
75479W        W43820  37.515  10.745  14.803
75480W        W43821  37.440  36.371  14.933
75481W        W43822  25.129   9.718  12.923
75482W        W43823  14.116  12.158   2.227
75483W        W43824  18.637  11.833   3.232
75484W        W43825   0.956  25.966  12.398
75485W        W43826  33.456  17.660  11.401
75486W        W43827  24.682   0.861   4.125
75487W        W43828  29.006  20.223   4.666
75488W        W43829  19.092   0.306  13.037
75489W        W43830  23.718  29.430  11.459
75490W        W43831  35.966  16.284   4.165
75491W        W43832   3.756  17.147   2.776
75492W        W43833   6.821   8.316  14.379
75493W        W43834  11.855  25.093   4.148
75494W        W43835  34.379  24.553   3.334
75495W        W43836  43.480   6.709  13.478
75496W        W43837  39.371  37.474   3.363
75497W        W43838  33.525  33.601   0.865
75498W        W43839  16.723  28.179  12.454
75499W        W43840   1.808  11.781   3.858
75500W        W43841  13.775  24.675   0.296
75501W        W43842  19.739  38.509   1.745
75502W        W43843  25.988  43.856   1.251
75503W        W43844  25.199  38.010   4.263
75504W        W43845  31.056   0.467  12.437
75505W        W43846  38.335   5.199  12.562
75506W        W43847  28.485  26.143  11.085
75507W        W43848  31.083  18.573   0.828
75508W        W43849   3.813  15.738   3.325
75509W        W43850  36.529  12.260   1.750
75510W        W43851  15.780  27.014  11.111
75511W        W43852   5.197   3.245  11.017
75512W        W43853  26.203  28.108   3.380
75513W        W43854  11.312  26.063   2.777
75514W        W43855   5.285  30.538   2.357
75515W        W43856   2.417  38.556   3.801
75516W        W43857  33.074  21.702   2.757
75517W        W43858   8.291  24.049   0.284
75518W        W43859  39.412  40.535   3.173
75519W        W43860   6.832  31.552  12.485
75520W        W43861   7.702  26.670  13.313
75521W        W43862  27.038  15.251  11.879
75522W        W43863  43.454  44.401   3.745
75523W        W43864  27.980  22.617  13.818
75524W        W43865  41.824  36.949  10.572
75525W        W43866  40.526  23.610   2.859
75526W        W43867  26.563  18.073   0.859
75527W        W43868   8.868  17.258   2.308
75528W        W43869  21.596   0.774   3.718
75529W        W43870  41.037  42.031   2.275
75530W        W43871  35.407   8.207   1.219
75531W        W43872  11.624   7.850   1.293
75532W        W43873  24.551  27.664   2.243
75533W        W43874  26.600   7.855   2.864
75534W        W43875   1.767  17.236   2.271
75535W        W43876  43.374   6.801   3.319
75536W        W43877  31.064  23.240  11.085
75537W        W43878   1.734   9.335  13.914
75538W        W43879  10.270  35.414  11.072
75539W        W43880  26.976  29.593   3.244
75540W        W43881   9.209  20.178   3.791
75541W        W43882  11.624  33.453  11.583
75542W        W43883  21.616   7.795   2.672
75543W        W43884  26.644  28.151   2.752
75544W        W43885  36.514  34.961   3.752
75545W        W43886  28.964   9.286   4.771
75546W        W43887  15.588  12.648   3.255
75547W        W43888  32.567  40.046   1.305
75548W        W43889  32.447  28.101   4.665
75549W        W43890  30.113  23.530   0.957
75550W        W43891  34.407  11.771  11.064
75551W        W43892  21.118  25.125  14.428
75552W        W43893  37.925  17.566  13.978
75553W        W43894  40.549  40.886   2.797
75554W        W43895  18.744  34.531  10.414
75555W        W43896   6.387  27.525  12.095
75556W        W43897  35.963  17.117  13.864
75557W        W43898  29.944   9.768   4.824
75558W        W43899  42.824  24.024   1.298
75559W        W43900   2.813  29.169  13.500
75560W        W43901  30.533  43.944   0.472
75561W        W43902  32.951  39.881   9.978
75562W        W43903  36.004  18.634   1.377
75563W        W43904   7.310  11.860  11.408
75564W        W43905  29.968   1.766  11.586
75565W        W43906   9.738  28.057   0.902
75566W        W43907   7.673  26.563  10.052
75567W        W43908   1.394   9.656  14.769
75568W        W43909  28.077  25.154   3.869
75569W        W43910  38.384  29.162  11.595
75570W        W43911   7.292  16.681   1.353
75571W        W43912  27.575  13.810  11.388
75572W        W43913  14.723   5.209  13.307
75573W        W43914  29.060  31.420  12.413
75574W        W43915  22.713  43.495   1.403
75575W        W43916  29.999   0.482   0.360
75576W        W43917  34.478  37.467   4.117
75577W        W43918  26.071  13.206  10.411
75578W        W43919  14.674  28.983  12.507
75579W        W43920  22.025  15.114   4.731
75580W        W43921   9.730  33.074  11.586
75581W        W43922  25.680  30.081  13.354
75582W        W43923  21.640  11.703  14.426
75583W        W43924  30.165   4.339   4.172
75584W        W43925  34.101  14.180   0.334
75585W        W43926  31.020  42.914   0.854
75586W        W43927  22.657  10.673  10.494
75587W        W43928   0.448   6.857  13.919
75588W        W43929  27.967  36.008  11.083
75589W        W43930   1.352   5.248  13.982
75590W        W43931  35.068  44.343  13.907
75591W        W43932  29.523  11.855   0.749
75592W        W43933  31.538  10.165   4.780
75593W        W43934  38.902   0.971  13.035
75594W        W43935  13.305  23.680  12.890
75595W        W43936   3.217   3.715  10.458
75596W        W43937   8.746   2.254   2.822
75597W        W43938  16.733   0.960   4.715
75598W        W43939  27.082  26.121   9.942
75599W        W43940  34.940   3.792  12.359
75600W        W43941  43.399   3.749  11.917
75601W        W43942   8.885  38.454   2.313
75602W        W43943  13.734  15.774   4.782
75603W        W43944  39.864  22.541   1.931
75604W        W43945  15.276  39.977   9.979
75605W        W43946  26.003   9.654  12.390
75606W        W43947  26.702  15.639  13.895
75607W        W43948   3.216   8.199   2.248
75608W        W43949  44.989  43.773  14.979
75609W        W43950  12.280  19.186  11.093
75610W        W43951  15.241  14.323  13.835
75611W        W43952  22.127   5.302   4.676
75612W        W43953  37.962  33.911  10.958
75613W        W43954  38.355   6.424   3.276
75614W        W43955  16.168   6.715  12.448
75615W        W43956  14.178  28.615  11.040
75616W        W43957  18.094  14.825  10.634
75617W        W43958  19.629  18.213   2.871
75618W        W43959  15.633   6.751  13.496
75619W        W43960   0.772   0.875   5.100
75620W        W43961   5.825  44.909  12.350
75621W        W43962  26.486  11.255  12.575
75622W        W43963  40.820  36.920  11.120
75623W        W43964  19.039  42.894  11.932
75624W        W43965   0.854  16.752   3.165
75625W        W43966  18.606  29.455   3.730
75626W        W43967  37.903  17.609   1.923
75627W        W43968   7.244  34.389  12.371
75628W        W43969  35.361   5.884  11.113
75629W        W43970  19.614  19.058  14.309
75630W        W43971   4.764  22.110  11.967
75631W        W43972  18.682  36.406  11.949
75632W        W43973  37.473  42.956   3.148
75633W        W43974   6.202  27.148   3.229
75634W        W43975  38.968   4.889  14.870
75635W        W43976  22.047  36.009   0.771
75636W        W43977  40.409  13.157  14.504
75637W        W43978  44.976   2.734   1.324
75638W        W43979  35.423  23.997   4.138
75639W        W43980  32.913   8.844   0.754
75640W        W43981  41.985  19.599   2.885
75641W        W43982  32.061  34.091   1.233
75642W        W43983  34.978   2.792  12.465
75643W        W43984   9.703  42.288  12.825
75644W        W43985  28.654  14.266  14.029
75645W        W43986  32.951  14.118  10.976
75646W        W43987  16.716  15.783   4.699
75647W        W43988   2.236   2.886   4.776
75648W        W43989  26.098  10.342  13.054
75649W        W43990  21.740  26.583  12.841
75650W        W43991  34.107  10.878  10.892
75651W        W43992  32.011  21.694  11.949
75652W        W43993   4.259  13.293  13.882
75653W        W43994  11.758   6.335   1.220
75654W        W43995  23.027  13.708  11.398
75655W        W43996   8.861   7.784  11.994
75656W        W43997  17.731   3.750  11.484
75657W        W43998  24.537  27.961   0.337
75658W        W43999   7.883  41.861   3.646
75659W        W44000   1.895  12.755   0.890
75660W        W44001  39.549  19.747   0.415
75661W        W44002  14.684  33.594   0.823
75662W        W44003  40.800  21.544  11.400
75663W        W44004  36.571   2.461  11.974
75664W        W44005  27.180  12.829  14.501
75665W        W44006  42.984  16.597  10.562
75666W        W44007  43.792  20.245   4.662
75667W        W44008   8.753  23.015  12.520
75668W        W44009  10.719  29.964  14.007
75669W        W44010  41.794  19.744  14.344
75670W        W44011  31.580  38.845  14.893
75671W        W44012   2.390  20.544   3.776
75672W        W44013  44.754  13.614   3.305
75673W        W44014  41.434  32.604  13.004
75674W        W44015  42.434  31.033   4.684
75675W        W44016  36.952   3.727  14.939
75676W        W44017  20.259  21.514  10.891
75677W        W44018  34.889  39.349  13.858
75678W        W44019   8.900  21.554   1.776
75679W        W44020   9.390  43.831   4.785
75680W        W44021  14.127   5.330   2.703
75681W        W44022  31.424   3.849  13.869
75682W        W44023  23.081  23.039  13.360
75683W        W44024  14.697   7.906   4.172
75684W        W44025  12.785  17.783  13.529
75685W        W44026  38.483  35.535  12.003
75686W        W44027  29.086  20.652  10.999
75687W        W44028  31.450  43.913   0.316
75688W        W44029  31.015  35.992   0.826
75689W        W44030  39.442  21.621   3.243
75690W        W44031  44.927  27.688   4.120
75691W        W44032   8.723  41.423  14.475
75692W        W44033  24.667  21.589  13.922
75693W        W44034  21.108  38.566   2.393
75694W        W44035  20.553  43.314   2.229
75695W        W44036  28.044   2.299  11.994
75696W        W44037  16.627   6.732  14.464
75697W        W44038  33.518   3.933  10.494
75698W        W44039  17.198  32.018   1.347
75699W        W44040   1.737   1.304  10.592
75700W        W44041  32.895   6.766   2.810
75701W        W44042  35.882  30.575  14.848
75702W        W44043   2.949   2.870   0.843
75703W        W44044  31.091  33.467   4.733
75704W        W44045  14.249  37.856  11.459
75705W        W44046  32.528  15.742   3.294
75706W        W44047  37.001  17.203  14.941
75707W        W44048  42.933  19.166  12.452
75708W        W44049  23.022  42.342   1.756
75709W        W44050  37.454   7.857  11.882
75710W        W44051   1.959  16.312  13.020
75711W        W44052  44.987  29.013  12.967
75712W        W44053  28.516  17.143   4.702
75713W        W44054  22.165  34.437   1.811
75714W        W44055   3.815  12.717   4.667
75715W        W44056  42.369  35.008   4.226
75716W        W44057  37.547  42.786  10.020
75717W        W44058  41.014  35.457  12.970
75718W        W44059  13.124  30.560  13.308
75719W        W44060   7.679  35.869   0.777
75720W        W44061  41.395  44.470   3.265
75721W        W44062  36.975  40.895  11.117
75722W        W44063  41.949  39.472   2.760
75723W        W44064   6.267  29.667   2.203
75724W        W44065  10.862  33.949   3.280
75725W        W44066   4.716  16.606  11.964
75726W        W44067  38.055  26.590  11.453
75727W        W44068  13.753  44.491  14.859
75728W        W44069   3.783   6.327  10.451
75729W        W44070   3.952  32.936  14.884
75730W        W44071  41.373   6.886   4.318
75731W        W44072  27.078  39.471   2.220
75732W        W44073  10.743  25.621   2.766
75733W        W44074  26.022   3.900  13.464
75734W        W44075  43.994  40.476   3.648
75735W        W44076  33.035  36.854   1.284
75736W        W44077   0.392  35.483   4.283
75737W        W44078  32.495  37.019   1.329
75738W        W44079  15.113  14.279  11.966
75739W        W44080  40.929   5.787   1.846
75740W        W44081  26.600  35.910  10.098
75741W        W44082  27.172   1.905   0.817
75742W        W44083  32.539  42.332  14.903
75743W        W44084  41.864   2.392  12.068
75744W        W44085  35.026  25.616  14.328
75745W        W44086  42.379  11.754  12.444
75746W        W44087   4.270   1.948  12.070
75747W        W44088  40.375  12.129   3.830
75748W        W44089   6.262  32.393   2.764
75749W        W44090  43.330  41.879  13.376
75750W        W44091   0.469   9.824  14.798
75751W        W44092  33.896  17.769  11.585
75752W        W44093   3.403  16.311  12.532
75753W        W44094  18.609  36.065  10.549
75754W        W44095  33.487  32.480   1.288
75755W        W44096  42.392   4.716  14.003
75756W        W44097  39.460  11.287   3.775
75757W        W44098  10.878   4.393  14.419
75758W        W44099   9.840   8.214   2.723
75759W        W44100  13.748  41.807  13.361
75760W        W44101  29.537  17.698   3.772
75761W        W44102  23.560  19.206   2.692
75762W        W44103  42.853  31.128   0.754
75763W        W44104   0.806  37.450  12.006
75764W        W44105  15.085  32.578  11.455
75765W        W44106  16.188  23.683  12.422
75766W        W44107  24.040  13.708  11.558
75767W        W44108  38.508  38.823   2.279
75768W        W44109  21.635  12.786   4.699
75769W        W44110  27.980   1.380  11.073
75770W        W44111  36.965   6.314  12.003
75771W        W44112  35.446  37.410   4.626
75772W        W44113  16.710  10.769  13.358
75773W        W44114  34.864  14.157   9.939
75774W        W44115  20.712   7.225  10.491
75775W        W44116  19.125  20.678   1.347
75776W        W44117   7.826  21.735  13.524
75777W        W44118  23.729   2.733  12.401
75778W        W44119   1.433  14.770  11.944
75779W        W44120  19.282  17.605  13.974
75780W        W44121  30.464  34.428  10.566
75781W        W44122  31.535  43.971   1.814
75782W        W44123  34.865  38.430  14.465
75783W        W44124  25.494  17.185   1.315
75784W        W44125  24.581   8.742  10.547
75785W        W44126  20.627   6.749   2.198
75786W        W44127  41.028  25.633   3.194
75787W        W44128   4.901  35.086   4.768
75788W        W44129  40.331  44.458   4.346
75789W        W44130  14.642  23.229  11.125
75790W        W44131   2.430  11.763  12.517
75791W        W44132  10.381   0.885   1.227
75792W        W44133  18.085   2.357  11.072
75793W        W44134  25.523  18.083   4.641
75794W        W44135  38.551  26.096   1.890
75795W        W44136   1.476  23.581  12.381
75796W        W44137  13.792  22.702   4.813
75797W        W44138  39.421  35.012   4.761
75798W        W44139  25.639  41.360  13.836
75799W        W44140  24.173  20.097  11.598
75800W        W44141  38.056  27.515  10.606
75801W        W44142   3.924  18.719   3.238
75802W        W44143  28.494  37.896  14.847
75803W        W44144  33.084  27.685  13.931
75804W        W44145  34.909   2.869   2.820
75805W        W44146   0.865  42.859  11.934
75806W        W44147  24.198  26.029   0.736
75807W        W44148   2.761  27.977   2.390
75808W        W44149  21.248  41.450   4.616
75809W        W44150   2.273   2.784  12.922
75810W        W44151  19.710  17.706  12.481
75811W        W44152  28.116  37.542  13.826
75812W        W44153   8.395  14.141   0.434
75813W        W44154  23.615  36.850   4.635
75814W        W44155  12.786  33.022  14.510
75815W        W44156  13.826  14.771  10.942
75816W        W44157  15.603  29.976   4.128
75817W        W44158  19.272  24.626  13.029
75818W        W44159  28.557  40.016  13.848
75819W        W44160  34.508  35.866   3.347
75820W        W44161  44.497   3.710   3.335
75821W        W44162  15.196  34.547   0.739
75822W        W44163  23.627  12.329  14.793
75823W        W44164  24.506  42.828   1.266
75824W        W44165  33.019   1.253   1.255
75825W        W44166  15.605  20.211  14.969
75826W        W44167  23.045  39.912   0.297
75827W        W44168  38.342   5.285   1.790
75828W        W44169   4.443  27.137  12.034
75829W        W44170  44.831  13.312  13.422
75830W        W44171  35.954  10.293   5.168
75831W        W44172  44.303  21.731   1.450
75832W        W44173  27.061   0.302  11.119
75833W        W44174  25.118  17.680   3.381
75834W        W44175  44.466   7.201  12.858
75835W        W44176  26.036   7.711   3.365
75836W        W44177  14.171  26.629   4.188
75837W        W44178  26.121   7.185   1.914
75838W        W44179  26.054  33.094   4.770
75839W        W44180  34.015  25.706   3.304
75840W        W44181   3.825   9.363  10.971
75841W        W44182  23.619   0.949  13.050
75842W        W44183  32.607  17.217  13.045
75843W        W44184  28.608   3.301  12.989
75844W        W44185  21.512  26.007  13.442
75845W        W44186   2.770   6.286   4.737
75846W        W44187  24.648  41.536   0.940
75847W        W44188  11.693  36.588   3.315
75848W        W44189  44.899  32.422   1.260
75849W        W44190  20.582  16.114   4.217
75850W        W44191  37.870   6.806  13.461
75851W        W44192  15.695  44.363  11.964
75852W        W44193   7.772  17.598   0.418
75853W        W44194  23.995  28.994  10.037
75854W        W44195  24.670   3.287  13.833
75855W        W44196  28.989   2.396  10.519
75856W        W44197  18.766   4.291   3.245
75857W        W44198  19.275  27.645   1.438
75858W        W44199  34.386  18.691   4.810
75859W        W44200  39.833  16.072  10.535
75860W        W44201   9.255   1.253  11.985
75861W        W44202  43.804  34.606  13.544
75862W        W44203   5.709  25.093  11.929
75863W        W44204  12.755  11.653   3.360
75864W        W44205   2.738  32.440  10.496
75865W        W44206  23.212  16.811   1.887
75866W        W44207  17.253  44.330   3.187
75867W        W44208  12.730  39.324  11.999
75868W        W44209  31.605  11.258  14.928
75869W        W44210  44.942  38.439   3.206
75870W        W44211  16.645  14.619   3.651
75871W        W44212  16.240  37.050   3.657
75872W        W44213  38.852  19.156   0.427
75873W        W44214  10.222  31.647  13.954
75874W        W44215  31.578  32.048   2.838
75875W        W44216  34.601  24.984   0.255
75876W        W44217  41.519  40.467  13.471
75877W        W44218  36.566  33.505  14.883
75878W        W44219  39.988   6.396  13.409
75879W        W44220  29.930   3.711   3.805
75880W        W44221  42.378  41.416  10.967
75881W        W44222  29.489  28.942   0.739
75882W        W44223  40.462  34.497  10.434
75883W        W44224  21.237  39.939  10.498
75884W        W44225  23.111  41.466   0.297
75885W        W44226  11.153  33.411  11.556
75886W        W44227   1.304   4.740  13.978
75887W        W44228   3.280  13.348  13.827
75888W        W44229  42.341  24.495   1.885
75889W        W44230  31.031   0.864   3.174
75890W        W44231  17.245  24.594   9.502
75891W        W44232  31.574   0.798  14.346
75892W        W44233  25.070  38.540  14.396
75893W        W44234  25.027   9.391  10.511
75894W        W44235   8.325  26.020  12.399
75895W        W44236  27.125  26.660   3.779
75896W        W44237  35.504  19.105  11.105
75897W        W44238  34.873   7.390   0.308
75898W        W44239   8.337  37.437  10.519
75899W        W44240  16.611  11.727  14.910
75900W        W44241   0.358  23.490   4.117
75901W        W44242  19.697  30.005  13.517
75902W        W44243  24.061  39.529   4.700
75903W        W44244  21.591  19.128   0.361
75904W        W44245  31.575  14.283  13.990
75905W        W44246   2.947  22.126   3.657
75906W        W44247  36.440  32.475   4.675
75907W        W44248   7.382  28.536  10.643
75908W        W44249  31.590   6.905   0.963
75909W        W44250  25.543   0.279  13.442
75910W        W44251  28.089  36.547  11.391
75911W        W44252  10.206  26.068  14.781
75912W        W44253  35.524  17.186  12.469
75913W        W44254  28.455  20.239   0.796
75914W        W44255  12.827  14.759   1.324
75915W        W44256  30.580  10.382   5.118
75916W        W44257  23.643  22.127  12.507
75917W        W44258  18.090  31.497  12.923
75918W        W44259   2.355  13.662   2.224
75919W        W44260  36.918  24.124  10.944
75920W        W44261  34.415  42.452  12.921
75921W        W44262  42.900   8.226  14.466
75922W        W44263   8.240   9.218  12.964
75923W        W44264  35.888   6.329   3.169
75924W        W44265  41.326   2.826  11.486
75925W        W44266  31.958  14.131  13.819
75926W        W44267  25.149   4.308  13.929
75927W        W44268  14.246  28.528   1.429
75928W        W44269   0.927  23.018  14.330
75929W        W44270  28.583  28.961  10.573
75930W        W44271  36.969  38.424   2.813
75931W        W44272  36.490  36.004   2.724
75932W        W44273   3.336   8.206   4.834
75933W        W44274  37.069  17.776  12.419
75934W        W44275   6.897   8.778   0.814
75935W        W44276  43.290  37.967  11.592
75936W        W44277  39.879  40.798   4.241
75937W        W44278  31.961  10.804  12.942
75938W        W44279  31.536  38.441   0.800
75939W        W44280   7.232  32.946  13.390
75940W        W44281  29.945  33.000  13.019
75941W        W44282  13.329  24.572   3.197
75942W        W44283   6.313   4.762   3.688
75943W        W44284  43.408  43.497  11.597
75944W        W44285  29.150  37.526  14.366
75945W        W44286  24.097  41.919  10.926
75946W        W44287  19.709   7.265  11.874
75947W        W44288  15.190  35.879  14.453
75948W        W44289  27.167  22.650  14.419
75949W        W44290  18.748  22.097  11.020
75950W        W44291   8.776  35.458  11.532
75951W        W44292   8.212   7.794   1.393
75952W        W44293  22.141   4.337  12.087
75953W        W44294   5.742   0.478   0.311
75954W        W44295  11.250  15.294  13.992
75955W        W44296  32.522  35.385   3.657
75956W        W44297   9.773  15.753   4.242
75957W        W44298  11.806  27.113  11.962
75958W        W44299  43.490  21.175  13.522
75959W        W44300  42.391  23.169   4.171
75960W        W44301   1.957  12.300   1.912
75961W        W44302  11.714  33.076   2.887
75962W        W44303  40.843  14.799   0.443
75963W        W44304  40.028   7.676  12.474
75964W        W44305  16.104  24.671   2.229
75965W        W44306  22.686  14.636  10.529
75966W        W44307   7.721  20.090   2.665
75967W        W44308  25.467  10.243   1.289
75968W        W44309  43.486  28.033   4.305
75969W        W44310  26.094  41.901  11.904
75970W        W44311  27.582  21.061   0.933
75971W        W44312  32.419   6.777   0.856
75972W        W44313  27.020  36.058   1.417
75973W        W44314  24.597   9.393   4.829
75974NA+    NA+44315  26.031  14.800  14.310
75975NA+    NA+44316  42.322   8.672  14.502
75976NA+    NA+44317  38.008  33.403  13.356
75977NA+    NA+44318  34.955  34.968  10.630
75978NA+    NA+44319  22.097  43.481  10.947
75979NA+    NA+44320  18.257  32.501  13.413
75980NA+    NA+44321  24.530  25.198   2.844
75981NA+    NA+44322  36.957  27.981   0.937
75982NA+    NA+44323  17.655  12.649   2.252
75983NA+    NA+44324   4.872  34.573   2.198
75984NA+    NA+44325   0.313  14.319   4.305
75985NA+    NA+44326  17.664  29.921   2.321
75986NA+    NA+44327  25.096   1.839  14.828
75987NA+    NA+44328   4.756  30.976   2.179
75988NA+    NA+44329  26.489  39.987  10.897
75989NA+    NA+44330   9.272  25.694   4.123
75990NA+    NA+44331  15.682   1.387   0.957
75991NA+    NA+44332  42.809   5.835   2.267
75992NA+    NA+44333   3.884   1.262  11.397
75993NA+    NA+44334   0.906   4.433   4.180
75994NA+    NA+44335  18.103  10.337  11.931
75995NA+    NA+44336  27.063  13.225  11.455
75996NA+    NA+44337   3.754  34.118  13.538
75997NA+    NA+44338   1.360  15.321   0.833
75998NA+    NA+44339  30.568  16.300   0.340
75999NA+    NA+44340  24.133  13.280  11.482
76000NA+    NA+44341  13.775   9.308  10.989
76001NA+    NA+44342  38.835  11.808  10.593
76002NA+    NA+44343   3.795  15.670  14.304
76003NA+    NA+44344  12.195   3.357   1.769
76004NA+    NA+44345  32.082  19.758  11.900
76005NA+    NA+44346  13.633  38.351  12.412
76006NA+    NA+44347  36.403   4.777   3.307
76007NA+    NA+44348  32.115  38.390  14.988
76008NA+    NA+44349  27.116  24.104   1.871
76009NA+    NA+44350  43.431   3.747   0.303
76010NA+    NA+44351  40.492  28.625  10.482
76011NA+    NA+44352  41.334  20.113   0.964
76012NA+    NA+44353  35.898  14.646   1.787
76013NA+    NA+44354  28.987  37.025  12.565
76014NA+    NA+44355  44.349   7.339  13.361
76015NA+    NA+44356   5.271  23.528   4.732
76016NA+    NA+44357  27.944  21.026   2.193
76017NA+    NA+44358  18.231  42.820  13.864
76018NA+    NA+44359  41.358  42.498   5.676
76019NA+    NA+44360  43.328  21.055   3.255
76020NA+    NA+44361  39.827   4.409  14.860
76021NA+    NA+44362  13.837  25.042   3.837
76022NA+    NA+44363  19.751  14.177  10.644
76023NA+    NA+44364  40.353  34.104   3.307
76024NA+    NA+44365  37.351  40.322  14.025
76025NA+    NA+44366  43.928  42.781  10.562
76026NA+    NA+44367  15.154  10.801   2.859
76027NA+    NA+44368  30.985  32.564  13.792
76028NA+    NA+44369   3.403  13.150  12.560
76029NA+    NA+44370  33.040  21.101   4.144
76030NA+    NA+44371   6.210  32.570   1.335
76031NA+    NA+44372  19.280  33.112  14.919
76032NA+    NA+44373  39.837  39.416   2.767
76033NA+    NA+44374  20.118  22.659  10.088
76034NA+    NA+44375   9.826  36.026  12.415
76035NA+    NA+44376  35.575  32.076   0.807
76036NA+    NA+44377  21.194  32.969   4.232
76037NA+    NA+44378   6.861  41.402  12.566
76038NA+    NA+44379  14.226  15.817  12.069
76039NA+    NA+44380  27.148  31.947   4.151
76040NA+    NA+44381   1.464  32.932  11.463
76041NA+    NA+44382  31.115  31.136   2.898
76042NA+    NA+44383  14.591   2.366   3.811
76043NA+    NA+44384  33.523  39.814   0.899
76044NA+    NA+44385  33.072  34.076  13.525
76045NA+    NA+44386  40.901  26.189   3.824
76046NA+    NA+44387  33.537  42.352  12.953
76047NA+    NA+44388   0.463  36.449  10.931
76048NA+    NA+44389  38.064   7.847   2.266
76049NA+    NA+44390  19.270   7.366  14.983
76050NA+    NA+44391  16.803  13.204   2.233
76051NA+    NA+44392  39.915  41.959   4.119
76052NA+    NA+44393  12.682  42.792  13.004
76053NA+    NA+44394  28.631  23.186   1.810
76054NA+    NA+44395   2.954  31.469  13.399
76055NA+    NA+44396  10.249  27.604   0.427
76056NA+    NA+44397  14.794  21.691  13.335
76057NA+    NA+44398  14.274  11.707  11.539
76058NA+    NA+44399  10.859  31.064   2.868
76059NA+    NA+44400  28.644  26.693   0.956
76060NA+    NA+44401  15.594  23.235   2.738
76061NA+    NA+44402  29.495  30.043   0.807
76062NA+    NA+44403  27.152  21.089  11.127
76063NA+    NA+44404  27.114  42.799   0.273
76064NA+    NA+44405  12.147   8.359  11.932
76065NA+    NA+44406  36.466  11.302  14.436
76066NA+    NA+44407  35.874  41.462  11.970
76067NA+    NA+44408  39.363  17.129  13.422
76068NA+    NA+44409  34.086   2.722  12.846
76069NA+    NA+44410  40.446  29.114  11.594
76070NA+    NA+44411  10.779  14.670   1.411
76071NA+    NA+44412  18.277   1.892  11.402
76072NA+    NA+44413  29.919  15.085   1.213
76073NA+    NA+44414   0.290   4.783   0.939
76074NA+    NA+44415  41.938  27.067   0.744
76075NA+    NA+44416  39.031  16.712   3.822
76076NA+    NA+44417   4.339  28.027   2.414
76077NA+    NA+44418  21.578  15.115   0.769
76078NA+    NA+44419   2.448  14.150   9.932
76079NA+    NA+44420  36.978  14.263  13.398
76080NA+    NA+44421   5.394  41.298  12.481
76081NA+    NA+44422  27.072   3.850   1.894
76082NA+    NA+44423  13.819   1.285  11.433
76083NA+    NA+44424  35.383  21.596  14.859
76084NA+    NA+44425  24.515   4.447  12.417
76085NA+    NA+44426  13.106  17.745   3.378
76086NA+    NA+44427  20.625  20.094  10.620
76087NA+    NA+44428  28.155  25.975   2.414
76088NA+    NA+44429   5.805  32.418   4.666
76089NA+    NA+44430  13.138   1.858  13.046
76090NA+    NA+44431   2.729  13.750  13.325
76091NA+    NA+44432  37.960  30.486   0.885
76092NA+    NA+44433  27.665  20.759   3.839
76093NA+    NA+44434  37.834  42.795   4.715
76094NA+    NA+44435  38.432  35.533  11.391
76095NA+    NA+44436  38.871  17.224   3.831
76096NA+    NA+44437  28.018  15.612  14.006
76097NA+    NA+44438  42.927  38.000  14.317
76098NA+    NA+44439  43.347  30.548   2.390
76099NA+    NA+44440  35.439  28.163  11.967
76100NA+    NA+44441  30.420  31.977  12.385
76101NA+    NA+44442  19.747   5.331  11.469
76102NA+    NA+44443   5.268  35.564  12.962
76103NA+    NA+44444  28.509  41.355  11.075
76104NA+    NA+44445  32.449  12.195   2.315
76105NA+    NA+44446  27.170   6.360  14.012
76106NA+    NA+44447   8.766   6.262   3.656
76107NA+    NA+44448  18.778  38.341  12.352
76108NA+    NA+44449  29.100  33.416   0.370
76109NA+    NA+44450  42.812   6.237  11.569
76110NA+    NA+44451  44.848  18.687   2.785
76111NA+    NA+44452   3.804   7.905  12.084
76112NA+    NA+44453  37.870  37.446  12.439
76113NA+    NA+44454   1.270  13.232  11.537
76114NA+    NA+44455   2.384  39.384  14.844
76115NA+    NA+44456  23.126  33.402  13.891
76116NA+    NA+44457  16.091  24.075  10.960
76117NA+    NA+44458  15.632  14.758  12.415
76118NA+    NA+44459  25.596   1.320  10.405
76119NA+    NA+44460  31.959  44.487   2.860
76120NA+    NA+44461  29.478   3.776  12.884
76121NA+    NA+44462   0.814  25.115  13.322
76122NA+    NA+44463  23.558  40.332  12.907
76123NA+    NA+44464   3.743  12.655   1.256
76124NA+    NA+44465  28.510  42.003   3.673
76125NA+    NA+44466  30.513  44.285  12.405
76126NA+    NA+44467  12.279  12.329  12.418
76127NA+    NA+44468  39.435  26.472  14.277
76128NA+    NA+44469  31.606   2.903  11.089
76129NA+    NA+44470  39.029   5.249   1.776
76130NA+    NA+44471  11.146  13.264  13.469
76131NA+    NA+44472  40.884  39.357   2.391
76132NA+    NA+44473  17.721  14.616   4.333
76133NA+    NA+44474  15.228  44.311   1.265
76134NA+    NA+44475  33.097   7.349  11.931
76135NA+    NA+44476  41.396   8.756  11.863
76136NA+    NA+44477  10.856  37.411   4.678
76137NA+    NA+44478  16.574  39.447   2.310
76138NA+    NA+44479  26.578  11.276  11.445
76139NA+    NA+44480  30.110  28.602   0.852
76140NA+    NA+44481  38.547  35.891   2.204
76141NA+    NA+44482   8.678  20.704   1.447
76142NA+    NA+44483   2.306  35.062   3.631
76143NA+    NA+44484   5.720  17.627  13.455
76144NA+    NA+44485   2.935  33.017  10.557
76145NA+    NA+44486  33.930  30.481  11.529
76146NA+    NA+44487   4.392   0.904  11.888
76147NA+    NA+44488  43.831  42.289   4.230
76148NA+    NA+44489  12.754  24.112   0.881
76149NA+    NA+44490  38.910  22.711   4.724
76150NA+    NA+44491  20.110  23.490   0.913
76151NA+    NA+44492  35.549  13.787   4.670
76152NA+    NA+44493   6.203  44.939  14.815
76153NA+    NA+44494  32.450  42.413  11.991
76154NA+    NA+44495  43.996  23.026  10.636
76155NA+    NA+44496  25.636   4.248  14.888
76156NA+    NA+44497  13.770  10.871  10.489
76157NA+    NA+44498  23.698  29.997  13.875
76158NA+    NA+44499  22.698   8.282   0.960
76159NA+    NA+44500  35.416  43.512   3.322
76160NA+    NA+44501  24.619  44.408   1.748
76161NA+    NA+44502  26.040  29.476  14.798
76162NA+    NA+44503  17.145  27.566   2.851
76163NA+    NA+44504  39.899  15.822   4.695
76164NA+    NA+44505  13.174  17.610   1.294
76165NA+    NA+44506  10.176  11.814  11.992
76166NA+    NA+44507  43.278  37.543   2.768
76167NA+    NA+44508   4.826  25.649  11.910
76168NA+    NA+44509  20.056  16.097   1.271
76169NA+    NA+44510  38.038  33.987   3.691
76170NA+    NA+44511   0.812  14.211  10.430
76171NA+    NA+44512  11.783  34.479  10.973
76172NA+    NA+44513  22.600  31.554  13.472
76173NA+    NA+44514  22.112  17.615  14.791
76174NA+    NA+44515  38.836  23.010   2.317
76175NA+    NA+44516  32.956   9.778  14.762
76176NA+    NA+44517  40.823  42.912   5.747
76177NA+    NA+44518  10.372   9.785   0.920
76178NA+    NA+44519  19.686   4.409  11.884
76179NA+    NA+44520  36.022  10.315   0.797
76180NA+    NA+44521  30.502   7.250  12.078
76181NA+    NA+44522  13.830  33.620  13.881
76182NA+    NA+44523  17.274  28.006  12.940
76183NA+    NA+44524  25.119   4.342   4.682
76184NA+    NA+44525  10.699  29.170  12.022
76185NA+    NA+44526  14.786  36.070  10.958
76186NA+    NA+44527  44.950  21.553  13.928
76187NA+    NA+44528   4.940  22.067  13.402
76188NA+    NA+44529  22.123  24.595  14.845
76189NA+    NA+44530  32.423  31.123   4.236
76190NA+    NA+44531  17.272   2.832  12.363
76191NA+    NA+44532  32.479   7.290   1.697
76192NA+    NA+44533  31.018   8.654  13.356
76193NA+    NA+44534  12.225  44.382   3.309
76194NA+    NA+44535  13.266   4.795  14.817
76195NA+    NA+44536  36.075   4.821  12.364
76196NA+    NA+44537  41.831  11.353  10.432
76197NA+    NA+44538  12.202  42.934   4.124
76198NA+    NA+44539   4.786  34.968  13.312
76199NA+    NA+44540  37.409  14.810  13.859
76200NA+    NA+44541  21.021  28.042   0.430
76201NA+    NA+44542  11.691  33.493   4.263
76202NA+    NA+44543  20.125  31.407   4.155
76203NA+    NA+44544  30.553   0.869  13.807
76204NA+    NA+44545  36.070  25.555   3.655
76205NA+    NA+44546  25.540  29.948   4.831
76206NA+    NA+44547  36.985  17.171   0.482
76207NA+    NA+44548   6.695  32.492  13.543
76208NA+    NA+44549  41.428  44.905   3.798
76209NA+    NA+44550  44.466  33.507   1.853
76210NA+    NA+44551  25.673   3.788   4.165
76211NA+    NA+44552   0.305  18.714   3.372
76212NA+    NA+44553  44.993  18.266   1.894
76213NA+    NA+44554   8.198  26.993  12.078
76214NA+    NA+44555  11.689  15.670   4.759
76215NA+    NA+44556   0.420   8.336  11.529
76216NA+    NA+44557  34.921  32.559  12.043
76217NA+    NA+44558  24.568   4.708  10.558
76218NA+    NA+44559  20.118  15.229   2.330
76219NA+    NA+44560  34.066  43.297   0.811
76220NA+    NA+44561  11.140  13.310   2.768
76221NA+    NA+44562   3.761  21.028  11.052
76222NA+    NA+44563  14.762  12.699   2.396
76223NA+    NA+44564   2.320  36.521  13.423
76224NA+    NA+44565   8.272  16.185  11.947
76225NA+    NA+44566  33.500  12.656  11.439
76226NA+    NA+44567  20.116   5.864  11.507
76227NA+    NA+44568  43.495  10.345  11.026
76228NA+    NA+44569  20.252  38.398   4.636
76229NA+    NA+44570  39.039  39.002   0.745
76230NA+    NA+44571  18.235  28.156  14.960
76231NA+    NA+44572  39.368   4.790  13.406
76232NA+    NA+44573  37.915  38.892   0.315
76233NA+    NA+44574  23.643  36.504   2.754
76234NA+    NA+44575  14.302  23.995   5.171
76235NA+    NA+44576  18.760  28.563  11.885
76236NA+    NA+44577   6.828  17.243   1.310
76237NA+    NA+44578  39.393  36.557  11.437
76238NA+    NA+44579   3.434   2.379  11.083
76239NA+    NA+44580  42.342  43.986   0.756
76240NA+    NA+44581   6.311   4.752   2.190
76241NA+    NA+44582   5.741  11.281  13.457
76242NA+    NA+44583  22.742  30.540  13.819
76243NA+    NA+44584  30.072  43.917   3.722
76244NA+    NA+44585  38.549   3.800  11.512
76245NA+    NA+44586  36.525  25.558   3.224
76246NA+    NA+44587   6.391  15.190  10.933
76247NA+    NA+44588  40.492  44.970   1.443
76248NA+    NA+44589  24.044  42.520   1.300
76249NA+    NA+44590  37.976  31.600  14.885
76250NA+    NA+44591  10.838  38.984   4.779
76251NA+    NA+44592  31.904  14.664   1.275
76252NA+    NA+44593  22.122  14.168  14.417
76253NA+    NA+44594  42.900  10.341   3.271
76254NA+    NA+44595  13.838  26.698  11.526
76255NA+    NA+44596   4.848  36.888  13.502
76256NA+    NA+44597  19.262  29.512   0.812
76257NA+    NA+44598   4.334  21.049   2.837
76258NA+    NA+44599  14.154   3.325  10.407
76259NA+    NA+44600  40.372   7.316   0.332
76260NA+    NA+44601  22.023  42.293   1.309
76261NA+    NA+44602  44.958  32.950  10.573
76262NA+    NA+44603   0.291  15.621   9.964
76263NA+    NA+44604  44.768  35.094  11.057
76264NA+    NA+44605  17.801  14.106   0.901
76265NA+    NA+44606  41.903  23.166  14.394
76266NA+    NA+44607  13.727  40.966   0.883
76267NA+    NA+44608  21.599  36.426  13.845
76268NA+    NA+44609  31.439  29.457  14.973
76269NA+    NA+44610  20.071  16.794   4.654
76270NA+    NA+44611  33.507   1.935   1.316
76271NA+    NA+44612  13.186  13.149   4.673
76272NA+    NA+44613  33.542  18.143  10.581
76273NA+    NA+44614  39.334  20.727  12.530
76274NA+    NA+44615  33.084  39.448   9.484
76275NA+    NA+44616  25.187   2.928   1.725
76276NA+    NA+44617  28.592  30.987  13.961
76277NA+    NA+44618  16.136  32.015   9.971
76278NA+    NA+44619  28.618  15.146  13.919
76279NA+    NA+44620  23.170  25.117   1.913
76280NA+    NA+44621   4.445  33.476   4.785
76281NA+    NA+44622  10.684  30.495   2.681
76282NA+    NA+44623  32.595  33.598  14.997
76283NA+    NA+44624  42.336  19.153   3.238
76284NA+    NA+44625  29.963  39.527   4.646
76285NA+    NA+44626  25.647  21.591  14.962
76286NA+    NA+44627  11.700   3.364   3.639
76287NA+    NA+44628  14.312  19.622   3.709
76288NA+    NA+44629  10.684   2.366   1.747
76289NA+    NA+44630  16.636  18.685   4.715
76290NA+    NA+44631  44.933  10.254   1.775
76291NA+    NA+44632  19.224  36.906   1.254
76292NA+    NA+44633  20.175   6.747  11.078
76293NA+    NA+44634  44.479   0.248   0.304
76294NA+    NA+44635  11.623  12.701  14.490
76295NA+    NA+44636  25.157  36.066   2.762
76296NA+    NA+44637   9.219  30.063   3.744
76297NA+    NA+44638  22.070   0.846  13.035
76298NA+    NA+44639  16.188   4.211   3.194
76299NA+    NA+44640  44.849  27.589  12.374
76300NA+    NA+44641  27.146  29.658   1.281
76301NA+    NA+44642  13.139  20.093   2.376
76302NA+    NA+44643  41.536  16.116   2.339
76303NA+    NA+44644  33.935  11.864  12.998
76304NA+    NA+44645   3.919  29.930   1.368
76305NA+    NA+44646   2.344  30.012   4.675
76306NA+    NA+44647  11.175  28.089  12.553
76307NA+    NA+44648  32.055   7.171   2.854
76308NA+    NA+44649  26.474   0.439   2.693
76309NA+    NA+44650  38.824   6.876   0.741
76310NA+    NA+44651  36.571  36.520  13.922
76311NA+    NA+44652  33.598  26.983   1.268
76312NA+    NA+44653  36.937  26.564   4.692
76313NA+    NA+44654  20.747   7.775  11.031
76314NA+    NA+44655  32.531  10.370   4.702
76315NA+    NA+44656  42.412  29.001  14.774
76316NA+    NA+44657  28.590  28.611  10.527
76317NA+    NA+44658  23.038  16.566   2.414
76318NA+    NA+44659   7.691  28.034   0.351
76319NA+    NA+44660   2.790  33.075   3.230
76320NA+    NA+44661  34.515  34.470   4.195
76321NA+    NA+44662   2.397  40.838  11.435
76322NA+    NA+44663  10.750  44.818  13.884
76323NA+    NA+44664  20.628  36.903   4.351
76324NA+    NA+44665   7.852  41.946   1.271
76325NA+    NA+44666  37.403  33.597  11.595
76326NA+    NA+44667  28.046  28.528   2.355
76327NA+    NA+44668   7.866  11.811   2.734
76328NA+    NA+44669  37.961  16.793   4.165
76329NA+    NA+44670  34.454  20.544  12.520
76330NA+    NA+44671  33.044   0.882  12.397
76331NA+    NA+44672  24.193  16.318   3.750
76332NA+    NA+44673  43.799  27.530  13.947
76333NA+    NA+44674  35.023  26.523   2.782
76334NA+    NA+44675  20.061  14.094   2.234
76335NA+    NA+44676  35.886  32.565  14.903
76336NA+    NA+44677  27.998  39.321   2.242
76337NA+    NA+44678  20.186  22.709   3.234
76338NA+    NA+44679  19.199  36.429  13.315
76339NA+    NA+44680  30.553  36.553  10.486
76340NA+    NA+44681   4.725  27.977  10.565
76341NA+    NA+44682  12.620  42.024   0.292
76342NA+    NA+44683  34.906   0.418  13.051
76343NA+    NA+44684  40.896  40.992   4.239
76344NA+    NA+44685  33.609  27.005   4.327
76345NA+    NA+44686   8.402  16.713  14.815
76346NA+    NA+44687  21.749  38.995   1.843
76347NA+    NA+44688   6.329  12.616  14.866
76348NA+    NA+44689  39.885  37.869   1.319
76349NA+    NA+44690   2.864  14.708  13.487
76350NA+    NA+44691  26.159   2.419  13.875
76351NA+    NA+44692   0.872  18.169   1.698
76352NA+    NA+44693  24.532  20.675   3.341
76353NA+    NA+44694  30.604  42.935   3.719
76354NA+    NA+44695  27.159  18.172   2.698
76355NA+    NA+44696  44.964  21.712   0.730
76356NA+    NA+44697  20.186  17.152   9.938
76357NA+    NA+44698  40.899  11.674   1.697
76358NA+    NA+44699  38.551  24.213  12.431
76359NA+    NA+44700   2.365  15.203  14.321
76360NA+    NA+44701  21.692  42.898  14.399
76361NA+    NA+44702  32.394   1.422  14.512
76362NA+    NA+44703  41.010  18.283   1.284
76363NA+    NA+44704  37.357  36.440   0.781
76364NA+    NA+44705  38.021   0.942   1.213
76365NA+    NA+44706  18.698  41.426   1.874
76366NA+    NA+44707  28.110  38.450   2.770
76367NA+    NA+44708  10.841  17.191  11.922
76368NA+    NA+44709  41.819  36.555  13.492
76369NA+    NA+44710  24.196  15.145   1.712
76370NA+    NA+44711  23.103  18.259   1.774
76371NA+    NA+44712  12.186  22.039  14.403
76372NA+    NA+44713  35.087  21.056  10.937
76373NA+    NA+44714  25.676  26.701  14.285
76374NA+    NA+44715  29.500   2.808  11.538
76375NA+    NA+44716  14.798  29.550  11.958
76376NA+    NA+44717  24.671  41.936   4.837
76377NA+    NA+44718  30.971  14.195  14.987
76378NA+    NA+44719   1.733   2.435   1.888
76379NA+    NA+44720   9.684  22.546  13.401
76380NA+    NA+44721  18.645  11.706  12.008
76381NA+    NA+44722  28.131  24.142   5.296
76382NA+    NA+44723  32.505  25.578  12.348
76383NA+    NA+44724  43.274  20.055  11.372
76384NA+    NA+44725  26.008  30.642   2.896
76385NA+    NA+44726  40.976   1.768   4.706
76386NA+    NA+44727  21.734  44.757  11.054
76387NA+    NA+44728   4.785   2.461  11.047
76388NA+    NA+44729  20.636  38.426   2.668
76389NA+    NA+44730  15.820  11.661  13.423
76390NA+    NA+44731  41.537   5.862   3.636
76391NA+    NA+44732  26.041   6.773   1.451
76392NA+    NA+44733   7.800   5.231   1.399
76393NA+    NA+44734  15.125  36.491   0.861
76394NA+    NA+44735  40.897  22.234  11.393
76395NA+    NA+44736  18.771   3.761  14.477
76396NA+    NA+44737   2.366   7.411   0.925
76397NA+    NA+44738   6.226  21.137   0.942
76398NA+    NA+44739   6.909  41.919  14.786
76399NA+    NA+44740  32.045  35.885   4.226
76400NA+    NA+44741   0.256  13.738  13.523
76401NA+    NA+44742  28.959  14.590   0.912
76402NA+    NA+44743  29.021  41.864   4.617
76403NA+    NA+44744   3.850  13.305   3.187
76404NA+    NA+44745  42.859  42.525   3.747
76405NA+    NA+44746  19.127  22.158   4.783
76406NA+    NA+44747  38.510  35.419   2.815
76407NA+    NA+44748  21.612  42.510  14.884
76408NA+    NA+44749  20.133  32.904   1.219
76409NA+    NA+44750  23.991  38.065   2.240
76410NA+    NA+44751  23.686   7.744   1.861
76411NA+    NA+44752  32.000  31.616  13.833
76412NA+    NA+44753  20.246  34.987  11.126
76413NA+    NA+44754  37.505  12.823  10.623
76414NA+    NA+44755  35.873  30.147   3.661
76415NA+    NA+44756  28.101  38.010   0.745
76416NA+    NA+44757  19.642  13.739  12.368
76417NA+    NA+44758  26.052  29.105   5.759
76418NA+    NA+44759  24.987  22.142  14.765
76419NA+    NA+44760  32.506  10.705   0.314
76420NA+    NA+44761  14.122  33.518  12.078
76421NA+    NA+44762  18.681  39.034  12.494
76422NA+    NA+44763  41.828  32.390  13.978
76423NA+    NA+44764  16.648  10.297  14.491
76424NA+    NA+44765  37.519  29.551  12.045
76425NA+    NA+44766  38.969  16.722   1.905
76426NA+    NA+44767  42.445  32.925   2.301
76427NA+    NA+44768  18.059  37.034   0.792
76428NA+    NA+44769  34.536  19.122  13.351
76429NA+    NA+44770  44.332  39.321  11.105
76430NA+    NA+44771  11.317  19.571   2.248
76431NA+    NA+44772  42.334   0.487   4.226
76432NA+    NA+44773  20.102   1.458  14.319
76433NA+    NA+44774  32.135  36.084  14.974
76434NA+    NA+44775   1.329   9.387  11.046
76435NA+    NA+44776  36.405  21.135  11.008
76436NA+    NA+44777  18.679   3.281   2.185
76437NA+    NA+44778   2.432  13.247  14.497
76438NA+    NA+44779   0.296   6.408  10.613
76439NA+    NA+44780  27.116  13.302   2.871
76440NA+    NA+44781  43.819   1.745   0.284
76441NA+    NA+44782  19.735  16.157  14.419
76442NA+    NA+44783   4.310   7.902   2.786
76443NA+    NA+44784  41.508  20.663  13.835
76444NA+    NA+44785   2.429   8.747  14.308
76445NA+    NA+44786  44.913  16.807  12.407
76446NA+    NA+44787  20.553  15.187  12.507
76447NA+    NA+44788  19.046  15.095  11.938
76448NA+    NA+44789   2.420  26.999   2.328
76449NA+    NA+44790   8.863  11.251  12.914
76450NA+    NA+44791  17.107  13.735   3.324
76451NA+    NA+44792   8.189  19.564  12.886
76452NA+    NA+44793  23.043  41.970   0.801
76453NA+    NA+44794   3.326  28.105   5.243
76454NA+    NA+44795  21.580  17.667   2.895
76455NA+    NA+44796  33.027  23.187   2.892
76456NA+    NA+44797  39.504  35.910  11.435
76457NA+    NA+44798  32.473   2.350  11.965
76458NA+    NA+44799  43.415  43.786  13.954
76459NA+    NA+44800  10.661  36.087  13.543
76460NA+    NA+44801  41.795  31.604  11.121
76461NA+    NA+44802   6.788  44.754   0.293
76462NA+    NA+44803  44.802  10.759   1.256
76463NA+    NA+44804  17.236  14.095   2.320
76464NA+    NA+44805  30.617  31.555   2.709
76465NA+    NA+44806  32.581   5.288  12.479
76466NA+    NA+44807  22.532  16.722   0.434
76467NA+    NA+44808   4.872  32.565   5.110
76468NA+    NA+44809  21.736   9.707   0.288
76469NA+    NA+44810   0.340  40.987  14.344
76470NA+    NA+44811   1.276  44.793  10.932
76471NA+    NA+44812   2.375  16.260  12.555
76472NA+    NA+44813  16.241   2.275   4.635
76473NA+    NA+44814   0.764   8.223   1.353
76474NA+    NA+44815  34.908  15.731   4.834
76475NA+    NA+44816  37.536  27.611   1.415
76476NA+    NA+44817  33.912  36.538   4.338
76477NA+    NA+44818  19.253  26.996   3.712
76478NA+    NA+44819  30.964   3.283   4.709
76479NA+    NA+44820  21.672  44.339   4.181
76480NA+    NA+44821  32.450  37.443   0.895
76481NA+    NA+44822  18.704  13.677  14.440
76482NA+    NA+44823  31.035  16.662   4.743
76483NA+    NA+44824  25.569  21.231  11.570
76484NA+    NA+44825   7.234  38.548   4.730
76485NA+    NA+44826  19.665   5.721   4.215
76486NA+    NA+44827   8.313  17.071   0.380
76487NA+    NA+44828   4.401  44.488  12.489
76488NA+    NA+44829  38.982  30.084  12.041
76489NA+    NA+44830  24.580  13.772   2.872
76490NA+    NA+44831  42.817  23.643  11.474
76491NA+    NA+44832  21.041   7.223  14.915
76492NA+    NA+44833   9.149   2.872   3.384
76493NA+    NA+44834  21.593   5.834  13.510
76494NA+    NA+44835   9.814  13.182   3.301
76495NA+    NA+44836  17.718  17.236  13.502
76496NA+    NA+44837  17.610   5.353  13.809
76497NA+    NA+44838  41.447   4.391  11.558
76498NA+    NA+44839  42.468  30.499  11.579
76499NA+    NA+44840  44.323  25.057  10.435
76500NA+    NA+44841  22.211  12.124   4.325
76501NA+    NA+44842  29.991  12.182   4.138
76502NA+    NA+44843   9.853  36.071  13.906
76503NA+    NA+44844  21.242  32.440   2.811
76504NA+    NA+44845   1.860  39.460  11.010
76505NA+    NA+44846  38.552   3.373   3.290
76506NA+    NA+44847  12.637   3.876   4.298
76507NA+    NA+44848  38.072   6.396  10.597
76508NA+    NA+44849  35.416   2.414   2.317
76509NA+    NA+44850   7.909  19.279  14.332
76510NA+    NA+44851  34.889  44.291   1.394
76511NA+    NA+44852  19.048   8.793  14.849
76512NA+    NA+44853  37.442  11.860  10.412
76513NA+    NA+44854  29.135  37.877  13.904
76514NA+    NA+44855  15.223  27.012  11.465
76515NA+    NA+44856  22.152  37.384  11.856
76516NA+    NA+44857   1.902   4.853  13.830
76517NA+    NA+44858  28.441  22.685  10.626
76518NA+    NA+44859  32.539  28.513   4.327
76519NA+    NA+44860   8.845  42.301   3.713
76520NA+    NA+44861   9.828  20.534  11.918
76521NA+    NA+44862  39.349   2.450   0.741
76522NA+    NA+44863  37.014  16.656  14.289
76523NA+    NA+44864   2.423   0.895   1.934
76524NA+    NA+44865  23.043  42.882   1.889
76525NA+    NA+44866   0.745  33.073  12.891
76526NA+    NA+44867  27.155   3.815   0.835
76527NA+    NA+44868  14.639   3.447  10.927
76528NA+    NA+44869  41.896  10.784   1.347
76529NA+    NA+44870  16.089  14.263  11.926
76530NA+    NA+44871   5.226  43.785  14.820
76531NA+    NA+44872  11.268  17.076  10.537
76532NA+    NA+44873  20.270  25.549   1.309
76533NA+    NA+44874  28.051  12.141  13.431
76534NA+    NA+44875  22.685  40.852   4.258
76535NA+    NA+44876  14.644   8.843  14.349
76536NA+    NA+44877  25.028  32.617   2.765
76537NA+    NA+44878  22.183   8.693   0.407
76538NA+    NA+44879  16.691  25.616  11.959
76539NA+    NA+44880  20.058  44.905  10.898
76540NA+    NA+44881  27.987  37.379   5.211
76541NA+    NA+44882  30.617   2.814  12.857
76542NA+    NA+44883  38.029  36.386  11.541
76543NA+    NA+44884   1.951  30.053   3.381
76544NA+    NA+44885  42.433  38.827   3.807
76545NA+    NA+44886  34.565  14.603   0.867
76546NA+    NA+44887   5.728  41.466   2.860
76547NA+    NA+44888  24.170   7.721   3.180
76548NA+    NA+44889  37.394  32.439   4.199
76549NA+    NA+44890  39.927  34.608  13.935
76550NA+    NA+44891   7.323  32.418   0.471
76551NA+    NA+44892  35.557  16.809   0.426
76552NA+    NA+44893  12.660   7.368   1.730
76553NA+    NA+44894  10.691  10.636  12.853
76554NA+    NA+44895  12.150  20.616   3.754
76555NA+    NA+44896  18.077  29.108   2.337
76556NA+    NA+44897  18.277  21.135   3.833
76557NA+    NA+44898  37.449  25.583  14.860
76558NA+    NA+44899  43.784   2.806   2.240
76559NA+    NA+44900  15.096  28.465  12.070
76560NA+    NA+44901  32.130  29.666  10.461
76561NA+    NA+44902  44.837   0.304   0.952
76562NA+    NA+44903  19.117  16.168   4.323
76563NA+    NA+44904  29.086  38.440   2.245
76564NA+    NA+44905  38.335   6.772  10.532
76565NA+    NA+44906  27.188  10.186   0.401
76566NA+    NA+44907  34.960  29.940   4.300
76567NA+    NA+44908  20.146  13.248  14.821
76568NA+    NA+44909  32.405  20.220   3.187
76569NA+    NA+44910  10.282  14.612  10.962
76570NA+    NA+44911   7.294  22.073   4.809
76571NA+    NA+44912  14.100  16.807  12.417
76572NA+    NA+44913  15.808  25.579   1.901
76573NA+    NA+44914  28.505  29.009  14.320
76574NA+    NA+44915  13.266  19.601   2.755
76575NA+    NA+44916  33.029  11.280  14.845
76576NA+    NA+44917  17.716  29.634  11.461
76577NA+    NA+44918  42.521   4.705   1.309
76578NA+    NA+44919  14.107  37.369   4.653
76579NA+    NA+44920  10.238  34.878   0.314
76580NA+    NA+44921  14.273  27.043  14.369
76581NA+    NA+44922  14.162  36.946  11.094
76582NA+    NA+44923  14.704  16.201   1.911
76583NA+    NA+44924  14.790  35.467   3.206
76584NA+    NA+44925  16.259   9.378  13.793
76585NA+    NA+44926   2.943  26.079   4.325
76586NA+    NA+44927   6.257  12.766  13.321
76587NA+    NA+44928   0.435   8.402  14.929
76588NA+    NA+44929   6.266  36.578  14.023
76589NA+    NA+44930  13.843  22.134   3.784
76590NA+    NA+44931  42.895  29.011  10.048
76591NA+    NA+44932  36.487  17.157  13.359
76592NA+    NA+44933  16.146  26.066  11.405
76593NA+    NA+44934   9.311  41.846   2.766
76594NA+    NA+44935  43.814  42.828   4.598
76595NA+    NA+44936  39.810  23.160   2.378
76596NA+    NA+44937  27.559  31.921   1.390
76597NA+    NA+44938   2.317   5.898   2.248
76598NA+    NA+44939  29.105  14.714  10.552
76599NA+    NA+44940  30.655  30.129   4.766
76600NA+    NA+44941  25.995  27.490  11.100
76601NA+    NA+44942  37.973  27.680   3.191
76602NA+    NA+44943  20.745  20.628   3.784
76603NA+    NA+44944  42.866  23.713  13.011
76604NA+    NA+44945   5.228  26.622  11.995
76605NA+    NA+44946  10.781  15.640   4.779
76606NA+    NA+44947  25.679  30.101  12.463
76607NA+    NA+44948  13.277   9.371  12.970
76608NA+    NA+44949  36.485  24.038   1.715
76609NA+    NA+44950   4.797  31.645   1.746
76610NA+    NA+44951   8.366  16.806  10.492
76611NA+    NA+44952  32.070  37.830   2.239
76612NA+    NA+44953  19.270  13.811   3.263
76613NA+    NA+44954  18.072  33.581  11.545
76614NA+    NA+44955   6.816  39.993  13.429
76615NA+    NA+44956  27.492  42.814   0.294
76616NA+    NA+44957  33.471  21.634   4.648
76617NA+    NA+44958  14.330  39.013   0.843
76618NA+    NA+44959  20.046  15.709   0.836
76619NA+    NA+44960  29.117  37.073   1.860
76620NA+    NA+44961  34.064  38.915   1.266
76621NA+    NA+44962  34.076  31.141   0.794
76622NA+    NA+44963  18.688  41.955  12.576
76623NA+    NA+44964  26.470  18.212  11.003
76624NA+    NA+44965  38.929  13.217   2.367
76625NA+    NA+44966  40.010  39.863   5.599
76626NA+    NA+44967  32.585  11.741   1.281
76627NA+    NA+44968  14.303  27.082   3.776
76628NA+    NA+44969  30.603  10.297  12.534
76629NA+    NA+44970  22.104  39.406   2.185
76630NA+    NA+44971   4.728  26.053   3.870
76631NA+    NA+44972   9.681  17.593   1.275
76632NA+    NA+44973  22.505  13.774  11.967
76633NA+    NA+44974   8.366   9.792   4.285
76634NA+    NA+44975  41.452  13.653  11.558
76635NA+    NA+44976  10.674  36.544  12.856
76636NA+    NA+44977   4.819  24.644  12.076
76637NA+    NA+44978   0.317  32.937   0.461
76638NA+    NA+44979  12.312  20.751   0.768
76639NA+    NA+44980  24.617   9.348  14.875
76640NA+    NA+44981  39.397  39.858  13.496
76641NA+    NA+44982  37.350  34.959   1.339
76642NA+    NA+44983   0.445  24.519  14.516
76643NA+    NA+44984   3.426   2.836   0.375
76644NA+    NA+44985   8.219  27.969  14.342
76645NA+    NA+44986  42.366   0.829  11.499
76646NA+    NA+44987   9.768  14.605  13.537
76647NA+    NA+44988  18.282  42.959  10.563
76648NA+    NA+44989  33.503  31.993  11.555
76649NA+    NA+44990   8.188  32.062  10.979
76650NA+    NA+44991   8.899  18.686  12.555
76651NA+    NA+44992   9.720  33.972   4.679
76652NA+    NA+44993  12.297  17.569   4.147
76653NA+    NA+44994  44.860  23.520   0.873
76654NA+    NA+44995  38.937   7.298  11.485
76655NA+    NA+44996  11.813  22.106   0.346
76656NA+    NA+44997  21.735   5.382   2.311
76657NA+    NA+44998  14.222   2.769   3.215
76658NA+    NA+44999  43.812  43.419  10.634
76659NA+    NA+45000  15.098   1.376   2.293
76660NA+    NA+45001  30.608  39.350   1.729
76661NA+    NA+45002  17.578   9.761  13.522
76662NA+    NA+45003   6.796   6.386  12.075
76663NA+    NA+45004   0.375  44.913  12.985
76664NA+    NA+45005   3.252  15.625  11.516
76665NA+    NA+45006   6.738  29.487  11.060
76666NA+    NA+45007  16.684  24.163  13.000
76667NA+    NA+45008  24.053  16.625   3.293
76668NA+    NA+45009   2.855  11.864  10.583
76669NA+    NA+45010  15.296   8.309  13.953
76670NA+    NA+45011   1.959  43.388   4.720
76671NA+    NA+45012  41.436  17.216   0.414
76672NA+    NA+45013  27.568   8.714  13.015
76673NA+    NA+45014   7.909   9.276   2.831
76674NA+    NA+45015  31.131  12.350   4.120
76675NA+    NA+45016  17.167  17.142   3.817
76676NA+    NA+45017  21.058  25.992  14.785
76677NA+    NA+45018  44.798  44.775  10.971
76678NA+    NA+45019  36.475  18.664  11.917
76679NA+    NA+45020  24.993   1.438  13.064
76680NA+    NA+45021  17.100  42.836  10.060
76681NA+    NA+45022  40.030   2.783   1.823
76682NA+    NA+45023   9.860  42.991  10.491
76683NA+    NA+45024  32.013  22.089   3.184
76684NA+    NA+45025  37.870  44.918   0.476
76685NA+    NA+45026   4.234  17.119  11.980
76686NA+    NA+45027  27.472   6.690  14.936
76687NA+    NA+45028   9.272  14.787   0.813
76688NA+    NA+45029  42.464   1.262  12.416
76689NA+    NA+45030  29.626   1.270  11.594
76690NA+    NA+45031  42.940  24.672  10.500
76691NA+    NA+45032  34.017   3.899   2.292
76692NA+    NA+45033  33.484  15.303  11.396
76693NA+    NA+45034  18.198  25.490   0.815
76694NA+    NA+45035  21.696  18.243  14.869
76695NA+    NA+45036   1.884  18.686   1.750
76696NA+    NA+45037  38.419  39.485   2.783
76697NA+    NA+45038  26.492   4.419  11.390
76698NA+    NA+45039  14.629  23.074  13.906
76699NA+    NA+45040   7.809  14.821  11.542
76700NA+    NA+45041  31.648  23.503   1.220
76701NA+    NA+45042  11.739  33.946   3.189
76702NA+    NA+45043   3.934  25.966   0.785
76703NA+    NA+45044  13.219  10.156  10.450
76704NA+    NA+45045  13.217  40.968   4.649
76705NA+    NA+45046  21.615  39.517   4.809
76706NA+    NA+45047   0.975   9.215  12.068
76707NA+    NA+45048   8.224  36.994   3.718
76708NA+    NA+45049  35.555  36.963   4.147
76709NA+    NA+45050  16.751   4.915  11.509
76710NA+    NA+45051  42.430  26.092   1.864
76711NA+    NA+45052  29.078  43.271  10.432
76712NA+    NA+45053  26.633  29.443  13.956
76713NA+    NA+45054  27.680  31.020  11.982
76714NA+    NA+45055  39.982  14.678  11.885
76715NA+    NA+45056  36.512  41.831   0.370
76716NA+    NA+45057  41.401  26.113   1.738
76717NA+    NA+45058  12.774  43.841   1.767
76718NA+    NA+45059  27.103  42.856   3.149
76719NA+    NA+45060  40.873   7.200  13.824
76720NA+    NA+45061   9.713  37.395   5.215
76721NA+    NA+45062  13.654  20.640   4.277
76722NA+    NA+45063  21.216  19.684   1.808
76723NA+    NA+45064  30.936  14.122  14.302
76724NA+    NA+45065  15.174   9.352   4.235
76725NA+    NA+45066  10.312  21.146   0.380
76726NA+    NA+45067  33.930  14.293  10.523
76727NA+    NA+45068  35.471   6.816  10.529
76728NA+    NA+45069  41.917  24.546  10.954
76729NA+    NA+45070  23.218  15.713  14.984
76730NA+    NA+45071  18.695  27.637   4.619
76731NA+    NA+45072   9.685  43.320  14.389
76732NA+    NA+45073   3.918  15.596   2.862
76733NA+    NA+45074  25.033  17.278  11.511
76734NA+    NA+45075  30.970  20.542   2.677
76735NA+    NA+45076  15.129  14.793  11.411
76736NA+    NA+45077   2.445  34.369  13.815
76737NA+    NA+45078  33.559  19.686   1.385
76738NA+    NA+45079  15.231  15.758   1.872
76739NA+    NA+45080  33.092  41.306   5.309
76740NA+    NA+45081   0.988  29.110  11.058
76741NA+    NA+45082  16.575  28.458  10.579
76742NA+    NA+45083  35.569  13.311   4.670
76743NA+    NA+45084  38.026  34.447  11.006
76744NA+    NA+45085   3.403  37.035   3.638
76745NA+    NA+45086   6.233   5.714  13.529
76746NA+    NA+45087   9.860   6.795  14.426
76747NA+    NA+45088  40.430  28.100  10.002
76748NA+    NA+45089  20.522  21.084   2.758
76749NA+    NA+45090  27.579   1.385  10.643
76750NA+    NA+45091   6.328  17.735  11.866
76751NA+    NA+45092  33.911   8.821  13.830
76752NA+    NA+45093  33.502  21.757   2.330
76753NA+    NA+45094  13.701  17.567   2.720
76754NA+    NA+45095  40.981  14.702  14.379
76755NA+    NA+45096  10.291  12.268   4.613
76756NA+    NA+45097   5.773   6.392  12.568
76757NA+    NA+45098   8.723  14.729   1.278
76758NA+    NA+45099  18.584  36.387  12.447
76759NA+    NA+45100  15.321  33.434   5.225
76760NA+    NA+45101  40.880  25.177  11.976
76761NA+    NA+45102  22.210   5.250  10.568
76762NA+    NA+45103  29.519  19.541  14.510
76763NA+    NA+45104  44.400  27.002  11.409
76764NA+    NA+45105  43.378  28.957  10.950
76765NA+    NA+45106  15.730   2.297  14.860
76766NA+    NA+45107  21.630  43.273   4.299
76767NA+    NA+45108  31.571  24.666   0.831
76768NA+    NA+45109  30.146   2.786   3.663
76769NA+    NA+45110  31.425  18.188   3.376
76770NA+    NA+45111   2.877  16.123  12.974
76771NA+    NA+45112  12.317  43.885  13.983
76772NA+    NA+45113  19.714  43.951   3.644
76773NA+    NA+45114  39.944  24.580  14.419
76774NA+    NA+45115  35.511   1.745  14.380
76775NA+    NA+45116   6.272  37.851  13.986
76776NA+    NA+45117   3.331  14.291  11.579
76777NA+    NA+45118  44.393   1.259  13.908
76778NA+    NA+45119  40.478  27.563   1.818
76779NA+    NA+45120  33.483  20.264   4.633
76780NA+    NA+45121  13.832  15.165  11.050
76781NA+    NA+45122   6.256  31.629   0.942
76782NA+    NA+45123  17.648  21.729  11.860
76783NA+    NA+45124  35.378  13.688  10.978
76784NA+    NA+45125   9.376  19.090   1.751
76785NA+    NA+45126  23.227  13.214   2.850
76786NA+    NA+45127  37.359  22.212  11.029
76787NA+    NA+45128  41.802  37.551   1.243
76788NA+    NA+45129  29.027  41.529   1.371
76789NA+    NA+45130  22.021  37.877  13.935
76790NA+    NA+45131   1.304  32.534   1.901
76791NA+    NA+45132  20.096  12.849  11.968
76792NA+    NA+45133  32.613  23.559   0.311
76793NA+    NA+45134  42.899  35.372  11.050
76794NA+    NA+45135   7.716  32.942  14.001
76795NA+    NA+45136  42.510   0.933   3.821
76796NA+    NA+45137   0.862   7.698   1.424
76797NA+    NA+45138  17.768  35.007   2.822
76798NA+    NA+45139   4.298  16.229  12.071
76799NA+    NA+45140  38.884  17.183  10.602
76800NA+    NA+45141   1.448  21.526  14.857
76801NA+    NA+45142  38.997   3.868  12.345
76802NA+    NA+45143  39.029  37.895   2.900
76803NA+    NA+45144  11.128  42.514   4.730
76804NA+    NA+45145  31.042   5.900   1.312
76805NA+    NA+45146  27.609  34.996  13.349
76806NA+    NA+45147   4.915  18.649   3.306
76807NA+    NA+45148  37.367  38.350  11.508
76808NA+    NA+45149  40.386  42.839   3.644
76809NA+    NA+45150   5.275   2.325   2.851
76810NA+    NA+45151  27.549   9.285   0.295
76811NA+    NA+45152  10.834   0.789   4.323
76812NA+    NA+45153  24.072  23.578  14.421
76813NA+    NA+45154   2.283  35.584   4.132
76814NA+    NA+45155  37.074  29.525   0.278
76815NA+    NA+45156  13.666  16.582   3.159
76816NA+    NA+45157  38.480   3.919   2.804
76817NA+    NA+45158   9.207  17.625  11.396
76818NA+    NA+45159   0.820  41.451   9.928
76819NA+    NA+45160  26.692   2.421   3.739
76820NA+    NA+45161   3.279  20.161  14.458
76821NA+    NA+45162  37.836   4.340  13.377
76822NA+    NA+45163   0.910  19.773  12.889
76823NA+    NA+45164  20.145  25.193   0.244
76824NA+    NA+45165  28.586  37.064   2.195
76825NA+    NA+45166  12.351  17.725  11.499
76826NA+    NA+45167  10.859  14.831  11.546
76827NA+    NA+45168  35.392  41.917  14.959
76828NA+    NA+45169  11.145  32.888   0.278
76829NA+    NA+45170  13.220  15.660   2.186
76830NA+    NA+45171  37.837  19.052  13.530
76831NA+    NA+45172  11.187  44.453  13.439
76832NA+    NA+45173  19.720  36.897  13.355
76833NA+    NA+45174  30.004  43.352  13.450
76834NA+    NA+45175   8.333   5.703  14.972
76835NA+    NA+45176  15.652  11.275   0.764
76836NA+    NA+45177   5.436   4.732  14.833
76837NA+    NA+45178  38.534  20.694  12.512
76838NA+    NA+45179  39.824   4.888   3.796
76839NA+    NA+45180  18.651  23.194  12.079
76840NA+    NA+45181  20.685  14.796   2.840
76841NA+    NA+45182  27.607   5.408  14.914
76842NA+    NA+45183  32.985  29.521  14.415
76843NA+    NA+45184  30.031   3.321   3.682
76844NA+    NA+45185  40.935   3.791   1.221
76845NA+    NA+45186   3.291  11.748   0.893
76846NA+    NA+45187  13.770  27.006  10.562
76847NA+    NA+45188  15.164   7.328   0.459
76848NA+    NA+45189  27.118  37.558  10.543
76849NA+    NA+45190  41.523  30.447  13.356
76850NA+    NA+45191  10.734  35.538  12.481
76851NA+    NA+45192  26.996  21.112  10.104
76852NA+    NA+45193  41.998   8.370   3.798
76853NA+    NA+45194   3.757  41.890   1.701
76854NA+    NA+45195  38.429  29.953  12.861
76855NA+    NA+45196   8.685   0.437   4.758
76856NA+    NA+45197  44.896  16.204   4.294
76857NA+    NA+45198  11.371  26.645  12.830
76858NA+    NA+45199  27.567  42.436   1.768
76859NA+    NA+45200   9.696   3.953   3.807
76860NA+    NA+45201  35.416  31.947   2.895
76861NA+    NA+45202  42.993  42.015   0.892
76862NA+    NA+45203   4.708   0.321   3.202
76863NA+    NA+45204   3.241  43.909   3.864
76864NA+    NA+45205   6.779   9.275  11.513
76865NA+    NA+45206  41.037  43.405   4.700
76866NA+    NA+45207  14.607  20.587   1.886
76867NA+    NA+45208  40.955  18.256   2.688
76868NA+    NA+45209  11.331  28.930   3.744
76869NA+    NA+45210  12.615  44.809   4.599
76870NA+    NA+45211  38.413  12.823  11.609
76871NA+    NA+45212  44.417  29.556   3.331
76872NA+    NA+45213  24.685  28.154   0.778
76873NA+    NA+45214   5.255   8.774   0.743
76874NA+    NA+45215  25.010  21.651  12.417
76875NA+    NA+45216  38.452  39.500   4.189
76876NA+    NA+45217  43.936  12.771   0.442
76877NA+    NA+45218   4.864  28.640  14.348
76878NA+    NA+45219  39.029  35.442   1.734
76879NA+    NA+45220  20.694   4.233   0.843
76880NA+    NA+45221  22.713  37.054  13.547
76881NA+    NA+45222  14.126  22.246  13.454
76882NA+    NA+45223   1.334  13.818   3.836
76883NA+    NA+45224  43.896  41.960  14.383
76884NA+    NA+45225  41.947  29.561   0.382
76885NA+    NA+45226   1.839   4.842   4.207
76886NA+    NA+45227  43.377  25.557   0.772
76887NA+    NA+45228   0.265  18.162  11.069
76888NA+    NA+45229   8.306  29.112  14.507
76889NA+    NA+45230  26.022  25.136   2.743
76890NA+    NA+45231   4.237   8.672   3.246
76891NA+    NA+45232  20.648  36.918  13.048
76892NA+    NA+45233  23.039   4.314   1.762
76893NA+    NA+45234  37.858   9.644   2.788
76894NA+    NA+45235   8.378   8.354   1.349
76895NA+    NA+45236  38.364  31.510   0.324
76896NA+    NA+45237  40.054  37.986  11.477
76897NA+    NA+45238   1.387  38.385  13.513
76898NA+    NA+45239  13.302  27.005  12.011
76899NA+    NA+45240  31.052   5.367   3.712
76900NA+    NA+45241  41.961  26.032  12.507
76901NA+    NA+45242  40.918  30.531  11.600
76902NA+    NA+45243  32.441   2.466   3.237
76903NA+    NA+45244  21.258  25.699   4.818
76904NA+    NA+45245  38.005  15.642   1.289
76905NA+    NA+45246  19.218  41.861  11.537
76906NA+    NA+45247  33.011   6.369  14.968
76907NA+    NA+45248  13.177   6.915   2.216
76908NA+    NA+45249  30.473   9.327  12.849
76909NA+    NA+45250  29.019   2.749  12.017
76910NA+    NA+45251  20.729  17.573   3.149
76911NA+    NA+45252  30.639  20.636  11.050
76912NA+    NA+45253   7.217  39.443   3.651
76913NA+    NA+45254  20.241  24.119   0.730
76914NA+    NA+45255  23.661  35.584   3.786
76915NA+    NA+45256  10.363  29.051  11.591
76916NA+    NA+45257   9.705  32.572   1.838
76917NA+    NA+45258  35.856   5.727   4.322
76918NA+    NA+45259  36.879   5.833  10.594
76919NA+    NA+45260  24.504  42.877  11.869
76920NA+    NA+45261  20.032  44.887  12.991
76921NA+    NA+45262   8.186  38.050   1.406
76922NA+    NA+45263  14.702  32.925  11.544
76923NA+    NA+45264  35.393  37.487   4.301
76924NA+    NA+45265  15.740  12.659   1.377
76925NA+    NA+45266  33.055   0.849   3.695
76926NA+    NA+45267  10.676  23.555   2.880
76927NA+    NA+45268  17.174  43.488   3.191
76928NA+    NA+45269  30.434  37.986   1.217
76929NA+    NA+45270  15.785  22.634  11.088
76930NA+    NA+45271  16.571  10.152   3.868
76931NA+    NA+45272   8.720  26.520   2.250
76932NA+    NA+45273   1.817  14.755   3.669
76933NA+    NA+45274  22.658   3.287  10.482
76934NA+    NA+45275  18.546  30.558  12.343
76935NA+    NA+45276  27.184  32.545   1.882
76936NA+    NA+45277  19.279  43.957  13.358
76937NA+    NA+45278  17.297   7.298   0.432
76938NA+    NA+45279  36.526  22.243   4.683
76939NA+    NA+45280   8.348  38.374   3.223
76940NA+    NA+45281  14.591  35.025  13.050
76941NA+    NA+45282  36.425   1.977  13.817
76942NA+    NA+45283  28.170  26.116  14.907
76943NA+    NA+45284  44.798  40.485  10.954
76944NA+    NA+45285  32.003  29.440  11.912
76945NA+    NA+45286  29.441  36.414  10.988
76946NA+    NA+45287   4.353  20.745   3.242
76947NA+    NA+45288   4.835  10.776  14.909
76948NA+    NA+45289  38.370  17.260   4.222
76949NA+    NA+45290  10.847  28.551   3.831
76950NA+    NA+45291  23.093   2.953  11.021
76951NA+    NA+45292  28.520   4.787   1.311
76952NA+    NA+45293  22.601  23.512  14.305
76953NA+    NA+45294  35.947  23.521  14.858
76954NA+    NA+45295  11.188  32.532   2.862
76955NA+    NA+45296  34.421   9.668   3.686
76956NA+    NA+45297  37.912  17.066  12.431
76957NA+    NA+45298  35.877  21.240   1.247
76958NA+    NA+45299   6.776  38.344  13.397
76959NA+    NA+45300  19.251  25.474  11.490
76960NA+    NA+45301  14.590  14.696   3.726
76961NA+    NA+45302  36.922  32.460  12.477
76962NA+    NA+45303  40.820   7.873   2.305
76963NA+    NA+45304  21.584  41.028   2.350
76964NA+    NA+45305   1.408  34.422   1.282
76965NA+    NA+45306  25.516  42.014  12.381
76966NA+    NA+45307  43.975  41.531  12.024
76967NA+    NA+45308  12.759  38.497   9.479
76968NA+    NA+45309   0.872   2.239   4.327
76969NA+    NA+45310  11.208  17.666   3.192
76970NA+    NA+45311   6.257  33.935  13.446
76971NA+    NA+45312   0.950  10.205   4.143
76972NA+    NA+45313  25.604  42.387  11.027
76973NA+    NA+45314  40.044  39.856  13.442
76974NA+    NA+45315  22.745   3.340  11.511
76975NA+    NA+45316   1.804  20.570   2.843
76976NA+    NA+45317   1.242  39.526  14.326
76977NA+    NA+45318  14.785   0.891   0.810
76978NA+    NA+45319  44.791  37.482   0.360
76979NA+    NA+45320  42.439  24.059  11.387
76980NA+    NA+45321  38.894  12.167   1.210
76981NA+    NA+45322  29.545   4.212   0.821
76982NA+    NA+45323   6.706   0.251   1.447
76983NA+    NA+45324  43.947  39.061  14.919
76984NA+    NA+45325  18.600  44.883  10.451
76985NA+    NA+45326  29.944  22.080   1.237
76986NA+    NA+45327  14.768   7.271  14.777
76987NA+    NA+45328  35.539   8.216   2.326
76988NA+    NA+45329  30.488  32.081   0.245
76989NA+    NA+45330  13.316  21.619  11.518
76990NA+    NA+45331  37.484  16.717  13.980
76991NA+    NA+45332  11.769  43.355   2.834
76992NA+    NA+45333   6.332  18.743  11.483
76993NA+    NA+45334   6.904   7.694  13.447
76994NA+    NA+45335  19.163  40.379  13.000
76995NA+    NA+45336  27.062   5.201   2.689
76996NA+    NA+45337  40.820  13.762  14.888
76997NA+    NA+45338  44.272  23.174   2.380
76998NA+    NA+45339  22.695  28.055  10.138
76999NA+    NA+45340  24.527  32.603  11.115
77000NA+    NA+45341  18.203   4.898  14.877
77001NA+    NA+45342   1.838  10.335   2.261
77002NA+    NA+45343  10.758  25.698  12.942
77003NA+    NA+45344  16.130  24.142   0.438
77004NA+    NA+45345   4.448   6.903   0.385
77005NA+    NA+45346  25.534   3.774   2.881
77006NA+    NA+45347   6.903  15.228  12.451
77007NA+    NA+45348  19.280   5.383   0.436
77008NA+    NA+45349  40.015   0.323   2.741
77009NA+    NA+45350  14.712  30.613   4.606
77010NA+    NA+45351  26.479  40.853   4.826
77011NA+    NA+45352  14.601   6.356   3.284
77012NA+    NA+45353  32.038   9.274  13.791
77013NA+    NA+45354  44.380  28.504   4.238
77014NA+    NA+45355  11.780   3.297   0.437
77015NA+    NA+45356  14.703  20.545  13.417
77016NA+    NA+45357  22.591   5.930   4.142
77017NA+    NA+45358  30.102  36.363  13.856
77018NA+    NA+45359  30.093   9.760   0.789
77019NA+    NA+45360  22.663   8.701  10.040
77020NA+    NA+45361  41.873  43.287  11.917
77021NA+    NA+45362   7.317  14.729   0.853
77022NA+    NA+45363  18.726  16.790   0.731
77023NA+    NA+45364  37.851  35.047   0.461
77024NA+    NA+45365  31.472   6.916  10.420
77025NA+    NA+45366  32.570   5.800  11.092
77026NA+    NA+45367  25.986  16.682   1.259
77027NA+    NA+45368  41.328  15.240   3.258
77028NA+    NA+45369  18.672   1.800  12.983
77029NA+    NA+45370  20.683  34.372   2.334
77030NA+    NA+45371  16.763  39.315  10.944
77031NA+    NA+45372  22.686  13.759   2.697
77032NA+    NA+45373  41.863   8.802  13.854
77033NA+    NA+45374   5.735  41.469  12.070
77034NA+    NA+45375  22.710  27.674  12.864
77035NA+    NA+45376  36.523  36.498  11.040
77036NA+    NA+45377  42.290  41.042  13.467
77037NA+    NA+45378  20.545  24.152   2.764
77038NA+    NA+45379  15.252  37.454   4.233
77039NA+    NA+45380   9.812  31.974  12.580
77040NA+    NA+45381  42.314  41.302   3.644
77041NA+    NA+45382   9.828  19.220  13.829
77042NA+    NA+45383   7.364  22.162   0.930
77043NA+    NA+45384  37.534   3.375   0.919
77044NA+    NA+45385  19.623  43.777  12.052
77045NA+    NA+45386   6.358  38.898   2.728
77046NA+    NA+45387  14.755  37.567  13.045
77047NA+    NA+45388  26.173  35.454  13.826
77048NA+    NA+45389  40.541  36.348  13.393
77049NA+    NA+45390  18.052  40.450  10.932
77050NA+    NA+45391  38.842  39.908   1.792
77051NA+    NA+45392  27.688  37.021   0.429
77052NA+    NA+45393  28.999  15.734  14.286
77053NA+    NA+45394  27.597  41.797  10.932
77054NA+    NA+45395  33.120  31.622  14.286
77055NA+    NA+45396  27.194  14.238   1.892
77056NA+    NA+45397  18.757  23.191   9.630
77057NA+    NA+45398   4.317  13.313   3.233
77058NA+    NA+45399  11.723  13.817  11.863
77059NA+    NA+45400  25.976  41.928  12.925
77060NA+    NA+45401  34.969  42.983   2.663
77061NA+    NA+45402  16.707  23.525  12.550
77062NA+    NA+45403  36.045  16.210   1.714
77063NA+    NA+45404   2.297   4.443   1.380
77064NA+    NA+45405  11.238  42.880  11.941
77065NA+    NA+45406  32.923  16.092  12.924
77066NA+    NA+45407  33.441   5.301   2.834
77067NA+    NA+45408  19.130   1.745  14.443
77068NA+    NA+45409   8.786  35.928  10.626
77069NA+    NA+45410   0.817  31.934  14.493
77070NA+    NA+45411   1.366  32.888   2.294
77071NA+    NA+45412  33.468  14.098   2.852
77072NA+    NA+45413  31.981  34.532  12.457
77073NA+    NA+45414  15.225  27.126   2.778
77074NA+    NA+45415  13.319  21.207   1.835
77075NA+    NA+45416   2.389  39.064  11.883
77076NA+    NA+45417   5.762  17.203  14.449
77077NA+    NA+45418  35.582  36.847   2.411
77078NA+    NA+45419  30.601  18.714  14.031
77079NA+    NA+45420   3.381  21.625  11.015
77080NA+    NA+45421  15.704  17.275  12.920
77081NA+    NA+45422  32.620  32.127   3.740
77082NA+    NA+45423  40.508   6.366  11.465
77083NA+    NA+45424  22.730  25.140  12.474
77084NA+    NA+45425   6.821   9.202  13.312
77085NA+    NA+45426  28.658  11.833  14.921
77086NA+    NA+45427  18.276  15.227   2.325
77087NA+    NA+45428   8.834  26.190   2.218
77088NA+    NA+45429  34.908  10.828  12.503
77089NA+    NA+45430  19.604  40.454  14.341
77090NA+    NA+45431  17.136  12.835   1.355
77091NA+    NA+45432  37.016  17.092  13.975
77092NA+    NA+45433  15.187  14.191   3.689
77093NA+    NA+45434  16.136  42.803  13.971
77094NA+    NA+45435  24.665  40.850   1.822
77095NA+    NA+45436   3.830  38.972  12.543
77096NA+    NA+45437  29.536  22.032  10.456
77097NA+    NA+45438   7.890  35.477   4.831
77098NA+    NA+45439  28.629  19.114  14.902
77099NA+    NA+45440  14.781  32.076   1.310
77100NA+    NA+45441  27.537  32.109   0.777
77101NA+    NA+45442  42.412   3.756  13.914
77102NA+    NA+45443   0.370  18.697  14.830
77103NA+    NA+45444   1.842   2.762   4.258
77104NA+    NA+45445   0.393  17.662  12.006
77105NA+    NA+45446  11.347  13.725   1.730
77106NA+    NA+45447  15.113  44.456  13.904
77107NA+    NA+45448   3.911   5.745  14.339
77108NA+    NA+45449  40.853  28.542  14.880
77109NA+    NA+45450   8.676  10.698  14.021
77110NA+    NA+45451  36.030  22.670   0.326
77111NA+    NA+45452  27.575   7.324   4.627
77112NA+    NA+45453   5.901  32.587   2.791
77113NA+    NA+45454  16.138  23.988  11.923
77114NA+    NA+45455  23.637  28.674  10.027
77115NA+    NA+45456   7.362  31.090  14.998
77116NA+    NA+45457  43.349   6.696  12.469
77117NA+    NA+45458  23.553  24.181   2.800
77118NA+    NA+45459  32.432  12.201  14.331
77119NA+    NA+45460  10.327  15.149   0.318
77120NA+    NA+45461  27.135  43.923  10.581
77121NA+    NA+45462   3.458   2.379   4.162
77122NA+    NA+45463  33.880  24.606   3.779
77123NA+    NA+45464  30.143   5.915   4.696
77124NA+    NA+45465   9.702  32.112   0.334
77125NA+    NA+45466  12.644  10.262  13.862
77126NA+    NA+45467  28.025  33.029  10.024
77127NA+    NA+45468  34.916   9.868  12.515
77128NA+    NA+45469   1.935  43.421   2.178
77129NA+    NA+45470  37.950  31.438   2.863
77130NA+    NA+45471   7.324   2.775   3.369
77131NA+    NA+45472   8.692  31.535   3.324
77132NA+    NA+45473   6.748   2.910   4.827
77133NA+    NA+45474  28.681  42.346  14.892
77134NA+    NA+45475   8.692  31.602  14.479
77135NA+    NA+45476  22.180  29.002   1.290
77136NA+    NA+45477  14.827  37.994  13.006
77137NA+    NA+45478  37.427   2.299  13.524
77138NA+    NA+45479  21.748  38.038  13.894
77139NA+    NA+45480  38.359  13.621  13.478
77140NA+    NA+45481  12.776   7.237   3.744
77141NA+    NA+45482  27.649  23.206  13.509
77142NA+    NA+45483   2.919  18.186  10.069
77143NA+    NA+45484  25.999  27.581   2.818
77144NA+    NA+45485   0.951   1.325   1.931
77145NA+    NA+45486  20.249  30.489   3.695
77146NA+    NA+45487  41.995   9.863  11.427
77147NA+    NA+45488  40.900  33.511  13.844
77148NA+    NA+45489   9.355  24.015  14.010
77149NA+    NA+45490  10.693  16.146   3.279
77150NA+    NA+45491  25.478  28.947  12.517
77151NA+    NA+45492   5.874   5.748   2.322
77152NA+    NA+45493   7.704  12.179  14.306
77153NA+    NA+45494  38.439   2.262  11.445
77154NA+    NA+45495   2.727  29.625   1.396
77155NA+    NA+45496  39.512   8.214  11.493
77156NA+    NA+45497  21.115  11.224   4.251
77157NA+    NA+45498  18.181  44.334   2.674
77158NA+    NA+45499  14.768  38.041  11.488
77159NA+    NA+45500   1.868  38.895  11.414
77160NA+    NA+45501  23.679  22.087   4.150
77161NA+    NA+45502   4.813   1.295  11.548
77162NA+    NA+45503   3.924   9.377  12.571
77163NA+    NA+45504  37.562  22.675  12.537
77164NA+    NA+45505  37.906  42.800   1.290
77165NA+    NA+45506  20.555  41.308   4.307
77166NA+    NA+45507  11.666  11.248  11.060
77167NA+    NA+45508  21.551  23.055  10.444
77168NA+    NA+45509  29.542  32.942  11.051
77169NA+    NA+45510  11.366   6.408  13.354
77170NA+    NA+45511  27.590  32.998  12.430
77171NA+    NA+45512  32.445  19.286  11.048
77172NA+    NA+45513  39.324  10.231   0.957
77173NA+    NA+45514  12.200   4.797  14.892
77174NA+    NA+45515  40.014  36.556   0.443
77175NA+    NA+45516  41.478  31.468  12.833
77176NA+    NA+45517  17.724  36.505  10.497
77177NA+    NA+45518   6.214   8.658  10.568
77178NA+    NA+45519  18.686  24.588  11.565
77179NA+    NA+45520  40.859   0.274  11.490
77180NA+    NA+45521  11.139  11.633  11.459
77181NA+    NA+45522   9.260   5.390  12.963
77182NA+    NA+45523  17.680  14.185  11.013
77183NA+    NA+45524  11.709  39.971   9.485
77184NA+    NA+45525  16.115  34.592  12.940
77185NA+    NA+45526   0.976  38.909   2.753
77186NA+    NA+45527  13.206  26.084   1.438
77187NA+    NA+45528  43.892  34.470   3.195
77188NA+    NA+45529  40.481  38.860  12.912
77189NA+    NA+45530  41.413  39.849  13.438
77190NA+    NA+45531  32.124  12.186  14.283
77191NA+    NA+45532  34.029  29.042  14.489
77192NA+    NA+45533   9.853  41.315  13.042
77193NA+    NA+45534   1.393  28.635  13.026
77194NA+    NA+45535  44.965  44.865  14.912
77195NA+    NA+45536   0.320  10.181  14.402
77196NA+    NA+45537  37.073  37.542  11.423
77197NA+    NA+45538  31.956  41.043  12.382
77198NA+    NA+45539  18.696  23.072  10.404
77199NA+    NA+45540   8.334  19.779  12.005
77200NA+    NA+45541  41.999   0.289   2.372
77201NA+    NA+45542  23.180  10.295   1.218
77202NA+    NA+45543   7.266  43.978   1.386
77203NA+    NA+45544   4.286  18.246   0.320
77204NA+    NA+45545   4.764  30.529  11.123
77205NA+    NA+45546  17.741  28.176   2.894
77206NA+    NA+45547   4.829  29.432   1.278
77207NA+    NA+45548  40.321  10.291   4.786
77208NA+    NA+45549  36.451  16.266  12.418
77209NA+    NA+45550  34.495   5.819   2.321
77210NA+    NA+45551  15.281  19.660  13.358
77211NA+    NA+45552  13.665  16.764   0.474
77212NA+    NA+45553  18.096  14.160   1.366
77213NA+    NA+45554  32.988  22.111  13.999
77214NA+    NA+45555  36.545  41.478  10.538
77215NA+    NA+45556  20.653   7.796  14.862
77216NA+    NA+45557   0.322   9.717   1.378
77217NA+    NA+45558  15.744   7.401   3.372
77218NA+    NA+45559  24.178  38.062   4.348
77219NA+    NA+45560  27.059  44.293  11.085
77220NA+    NA+45561  31.620  12.219  14.012
77221NA+    NA+45562  36.938  30.590   3.809
77222NA+    NA+45563   9.711  38.328  13.392
77223NA+    NA+45564   6.267  20.090   0.919
77224NA+    NA+45565   0.460  18.104  10.514
77225NA+    NA+45566  44.322  30.144   0.285
77226NA+    NA+45567  32.133  33.969   2.222
77227NA+    NA+45568  29.520  11.763  11.893
77228NA+    NA+45569  19.627  21.578   4.748
77229NA+    NA+45570  22.253  29.106   0.425
77230NA+    NA+45571   1.735  32.038  13.888
77231NA+    NA+45572  20.102   3.793  10.549
77232NA+    NA+45573   6.822  31.020  14.514
77233NA+    NA+45574  28.186  15.131  12.922
77234NA+    NA+45575  37.548  14.651   2.821
77235NA+    NA+45576  17.701  15.794  14.788
77236NA+    NA+45577  42.376   2.941  13.857
77237NA+    NA+45578   8.261  31.506   2.327
77238NA+    NA+45579  32.577  15.302  12.073
77239NA+    NA+45580   3.851  27.192   0.797
77240NA+    NA+45581   7.290  21.679  14.498
77241NA+    NA+45582  23.643  43.865  13.030
77242NA+    NA+45583  22.061  29.657   1.877
77243NA+    NA+45584   6.368   2.730   4.739
77244NA+    NA+45585   3.238  34.901   4.737
77245NA+    NA+45586  15.763  31.099   2.833
77246NA+    NA+45587  32.030  31.640   3.158
77247NA+    NA+45588   7.207   2.873   4.661
77248NA+    NA+45589  13.343  10.768   1.411
77249NA+    NA+45590  17.067  27.462  14.309
77250NA+    NA+45591  18.565  10.699   0.484
77251NA+    NA+45592  16.306  44.812  12.852
77252NA+    NA+45593  23.621  43.445  14.372
77253NA+    NA+45594  44.306  30.101   0.921
77254NA+    NA+45595   1.259   3.918   2.180
77255NA+    NA+45596   4.738  42.019  12.900
77256NA+    NA+45597   8.692  10.229   5.099
77257NA+    NA+45598  29.017   0.250   4.144
77258NA+    NA+45599  36.930  19.718   1.886
77259NA+    NA+45600  12.357  32.427   3.240
77260NA+    NA+45601   7.720   3.850  13.531
77261NA+    NA+45602  36.862  31.540   3.703
77262NA+    NA+45603   6.363   5.224  13.338
77263NA+    NA+45604  27.478  36.416   0.388
77264NA+    NA+45605  20.151  18.573  14.456
77265NA+    NA+45606   7.714  16.740   3.352
77266NA+    NA+45607  32.435  12.343  14.827
77267NA+    NA+45608  16.781  14.816  10.635
77268NA+    NA+45609  24.661  39.963  11.561
77269NA+    NA+45610  24.112  30.146   1.728
77270NA+    NA+45611  40.341  20.046   2.830
77271NA+    NA+45612   4.231  32.907  11.070
77272NA+    NA+45613  13.166  33.002   1.860
77273NA+    NA+45614  42.942  42.520   1.220
77274NA+    NA+45615   7.751  18.717   3.280
77275NA+    NA+45616  16.658   5.802  14.421
77276NA+    NA+45617  25.128  20.156   3.242
77277NA+    NA+45618  25.620  37.929  13.340
77278NA+    NA+45619  40.912  41.444   0.839
77279NA+    NA+45620  11.864  24.657  13.518
77280NA+    NA+45621   1.761  33.079  13.020
77281NA+    NA+45622  23.119  35.034   4.118
77282NA+    NA+45623  30.513  18.789  10.404
77283NA+    NA+45624  35.427  15.313   1.260
77284NA+    NA+45625   9.364  33.536   3.868
77285NA+    NA+45626  42.514  22.698  13.475
77286NA+    NA+45627  30.414  41.818  13.032
77287NA+    NA+45628  25.116  17.640   1.219
77288NA+    NA+45629   1.928  37.036   0.254
77289NA+    NA+45630   1.893  12.307   3.753
77290NA+    NA+45631  26.168  43.789   0.476
77291NA+    NA+45632  23.061  17.786   2.841
77292NA+    NA+45633  10.356  41.433   0.479
77293NA+    NA+45634  35.982  38.521   4.303
77294NA+    NA+45635   9.840   6.356   2.702
77295NA+    NA+45636   0.762  21.600  13.484
77296NA+    NA+45637  29.647  11.141   0.401
77297NA+    NA+45638  35.938  34.438  14.432
77298NA+    NA+45639  13.824  41.796   5.187
77299NA+    NA+45640  35.386  21.664   1.769
77300NA+    NA+45641  41.495  34.951   3.830
77301NA+    NA+45642  41.907  30.438  14.931
77302NA+    NA+45643  12.125  31.440   4.242
77303NA+    NA+45644   0.757  34.597   0.886
77304NA+    NA+45645  21.121  35.375  13.436
77305NA+    NA+45646  32.113   5.234  12.075
77306NA+    NA+45647  21.063  18.083  11.925
77307NA+    NA+45648  41.842  23.030  12.381
77308NA+    NA+45649  19.217  38.908  14.437
77309NA+    NA+45650  37.502  34.433  14.383
77310NA+    NA+45651   8.403   0.921   3.298
77311NA+    NA+45652   8.866  32.930   3.314
77312NA+    NA+45653  12.150  33.070  12.490
77313NA+    NA+45654  25.011  35.979  13.361
77314NA+    NA+45655  43.854  22.696   4.788
77315NA+    NA+45656  33.617  26.483   1.816
77316NA+    NA+45657  36.855  14.158   3.266
77317NA+    NA+45658  40.549  29.059   0.829
77318NA+    NA+45659  33.995  40.405   1.865
77319NA+    NA+45660  23.638  10.786  11.606
77320NA+    NA+45661  13.824  21.110   3.337
77321NA+    NA+45662   4.912  23.536   2.268
77322NA+    NA+45663  39.968  30.951  11.493
77323NA+    NA+45664  22.587  44.471   3.652
77324NA+    NA+45665  43.810  25.127   0.812
77325NA+    NA+45666  24.499  28.144   3.265
77326NA+    NA+45667  16.233  27.509  14.472
77327NA+    NA+45668   4.826  24.111  13.328
77328NA+    NA+45669  19.270  43.298   2.278
77329NA+    NA+45670  30.072  32.541  12.917
77330NA+    NA+45671   3.436   0.907  10.889
77331NA+    NA+45672  23.562  24.059   3.630
77332NA+    NA+45673  27.116  41.919   1.784
77333NA+    NA+45674   8.714  38.057  13.440
77334NA+    NA+45675   2.298  36.908   0.450
77335NA+    NA+45676  13.244  43.988   4.625
77336NA+    NA+45677  26.493  37.937   1.871
77337NA+    NA+45678  40.400  21.756  12.400
77338NA+    NA+45679  35.914  42.897   5.223
77339NA+    NA+45680  10.276  34.419  13.879
77340NA+    NA+45681   4.879   0.868  14.867
77341NA+    NA+45682  28.633  28.946   0.915
77342NA+    NA+45683   8.250  16.122  14.280
77343NA+    NA+45684  28.066   9.172   1.716
77344NA+    NA+45685  15.671   4.814   2.335
77345NA+    NA+45686  36.585  11.624   1.706
77346NA+    NA+45687  17.660  24.616   2.690
77347NA+    NA+45688  28.025  29.985  10.599
77348NA+    NA+45689   5.363  30.469   4.783
77349NA+    NA+45690  27.966   2.296   4.636
77350NA+    NA+45691   7.823  37.341  12.432
77351NA+    NA+45692  42.464   5.265   1.763
77352NA+    NA+45693  23.109  41.955  13.798
77353NA+    NA+45694  16.760  43.018   2.372
77354NA+    NA+45695  42.374  20.220   1.783
77355NA+    NA+45696  35.539  18.288   4.258
77356NA+    NA+45697  34.996  22.713   1.232
77357NA+    NA+45698   8.332  24.008  13.363
77358NA+    NA+45699  11.309  12.636   2.761
77359NA+    NA+45700  14.808   5.929   1.868
77360NA+    NA+45701  37.011  20.578  14.849
77361NA+    NA+45702  19.582  33.577   2.275
77362NA+    NA+45703   7.766  24.046  13.469
77363NA+    NA+45704   8.878  13.729  10.589
77364NA+    NA+45705   2.350   0.308  12.045
77365NA+    NA+45706  36.928  18.657  14.424
77366NA+    NA+45707  25.971  22.605   4.765
77367NA+    NA+45708   9.162  11.199   0.415
77368NA+    NA+45709  33.014  25.098  12.547
77369NA+    NA+45710  24.050  27.060   0.482
77370NA+    NA+45711  44.358  40.814  12.004
77371NA+    NA+45712  20.725  32.629  12.570
77372NA+    NA+45713  41.831  39.991   0.426
77373NA+    NA+45714  38.024   5.886   4.782
77374NA+    NA+45715  37.447  38.958  12.340
77375NA+    NA+45716  25.084  12.230   4.143
77376NA+    NA+45717  15.810  11.286  10.448
77377NA+    NA+45718  11.864  16.088  14.808
77378NA+    NA+45719  34.477  44.258   3.794
77379NA+    NA+45720  30.036  33.132   1.350
77380NA+    NA+45721  41.450  28.592   4.353
77381NA+    NA+45722  31.106   2.895  12.970
77382NA+    NA+45723   7.816   1.755   1.450
77383NA+    NA+45724  38.073   1.237  12.013
77384NA+    NA+45725  16.256   6.249  12.996
77385NA+    NA+45726   7.399  43.273  12.013
77386NA+    NA+45727  39.415  25.664   1.387
77387NA+    NA+45728  10.301  22.533  13.485
77388NA+    NA+45729  38.979   3.296   0.366
77389NA+    NA+45730  24.503  18.734  12.003
77390NA+    NA+45731  18.248   6.741  14.475
77391NA+    NA+45732  42.317  36.580  13.379
77392NA+    NA+45733  14.656  28.956   1.756
77393NA+    NA+45734  29.039  36.529   2.864
77394NA+    NA+45735   4.375   4.274  13.853
77395NA+    NA+45736  19.100  42.459   2.894
77396NA+    NA+45737  17.105   1.930   3.306
77397NA+    NA+45738   6.764  33.582  13.044
77398NA+    NA+45739   9.732   1.902  12.570
77399NA+    NA+45740  35.016  34.058   3.693
77400NA+    NA+45741  43.980   3.242  11.079
77401NA+    NA+45742  11.243  21.515   1.700
77402NA+    NA+45743   7.324  27.111  13.050
77403NA+    NA+45744   8.235   1.430   1.341
77404NA+    NA+45745  24.648  19.766  11.028
77405NA+    NA+45746  19.549  31.983  11.909
77406NA+    NA+45747   1.244  41.330  13.482
77407NA+    NA+45748  22.056  18.185   5.302
77408NA+    NA+45749   3.230  39.510  12.414
77409NA+    NA+45750  26.670   5.837  10.901
77410NA+    NA+45751  29.561   8.675   0.443
77411NA+    NA+45752  37.432  22.080   2.397
77412NA+    NA+45753  42.354   2.878   3.164
77413NA+    NA+45754   3.288  17.622  11.559
77414NA+    NA+45755  18.112  40.415  12.465
77415NA+    NA+45756  11.232  25.653  14.432
77416NA+    NA+45757  21.222  20.093  10.417
77417NA+    NA+45758   7.706  36.427  11.098
77418NA+    NA+45759  37.033   8.886   3.654
77419NA+    NA+45760   4.376  33.580   3.265
77420NA+    NA+45761  27.036   2.962  13.934
77421NA+    NA+45762  40.396   3.433   4.320
77422NA+    NA+45763  38.070  22.563  12.834
77423NA+    NA+45764  17.152  27.670   2.268
77424NA+    NA+45765  18.122   4.906  10.946
77425NA+    NA+45766  21.134  40.408  13.941
77426NA+    NA+45767  41.473  41.042   5.649
77427NA+    NA+45768  22.199  17.587   4.266
77428NA+    NA+45769  11.796  31.419   3.220
77429NA+    NA+45770  25.113  10.153   3.234
77430NA+    NA+45771  18.647  36.388   2.207
77431NA+    NA+45772  17.619  21.128  13.515
77432NA+    NA+45773   3.727  38.001   4.115
77433NA+    NA+45774  25.115  26.556   2.855
77434NA+    NA+45775  24.153  14.283  14.770
77435NA+    NA+45776  12.325  31.032  13.434
77436NA+    NA+45777  11.805  22.713  12.057
77437NA+    NA+45778  12.324   0.933  10.621
77438NA+    NA+45779   5.787  25.095   5.111
77439NA+    NA+45780  36.930   8.669   2.364
77440NA+    NA+45781  43.991   0.387   0.252
77441NA+    NA+45782  39.365  30.512  14.792
77442NA+    NA+45783  31.108  31.502  12.467
77443NA+    NA+45784  39.489  16.675  12.538
77444NA+    NA+45785   5.702   5.909  14.864
77445NA+    NA+45786  12.121   3.933   0.294
77446NA+    NA+45787  36.508  10.673   4.308
77447NA+    NA+45788  26.617  10.309  10.521
77448NA+    NA+45789  29.932  24.012   3.205
77449NA+    NA+45790   7.185  36.500   5.236
77450NA+    NA+45791  43.974  27.542   0.865
77451NA+    NA+45792  34.559  26.606   1.305
77452NA+    NA+45793  21.218  29.088  11.086
77453NA+    NA+45794  25.021   7.847  11.434
77454NA+    NA+45795   2.456  32.420  10.416
77455NA+    NA+45796  43.370  21.564   1.713
77456NA+    NA+45797  44.847  18.162  10.632
77457NA+    NA+45798   7.903  37.971  14.297
77458NA+    NA+45799  14.274   9.652   1.846
77459NA+    NA+45800  38.028   9.714  13.324
77460NA+    NA+45801  27.149   3.819   2.323
77461NA+    NA+45802  40.913   2.298   2.796
77462NA+    NA+45803  37.880  23.178   3.153
77463NA+    NA+45804   2.400  27.118   3.245
77464NA+    NA+45805  27.537   0.469   0.893
77465NA+    NA+45806  35.107   7.278  10.128
77466NA+    NA+45807  21.716  20.121   0.379
77467NA+    NA+45808   7.882  25.190  11.375
77468NA+    NA+45809   9.372  35.896   1.451
77469NA+    NA+45810  37.984  31.138   1.782
77470NA+    NA+45811   0.871  22.050  11.862
77471NA+    NA+45812   7.318  44.414  10.484
77472NA+    NA+45813   2.778   0.881  12.519
77473NA+    NA+45814  23.048  15.639   1.423
77474NA+    NA+45815  32.582  35.503   4.798
77475NA+    NA+45816  34.507   0.451  12.459
77476NA+    NA+45817  22.678  17.244   1.831
77477NA+    NA+45818  25.176  44.374  11.095
77478NA+    NA+45819  22.590   1.246  11.536
77479NA+    NA+45820  27.618   9.702   0.469
77480NA+    NA+45821  13.604  34.001  10.558
77481NA+    NA+45822  35.455  37.972  14.891
77482NA+    NA+45823  16.792  24.090  12.506
77483NA+    NA+45824  12.270   4.711  11.436
77484NA+    NA+45825   9.805  42.916   1.281
77485NA+    NA+45826   6.230  19.040   0.958
77486NA+    NA+45827  32.040   0.384  10.997
77487NA+    NA+45828  37.569  26.630  14.353
77488NA+    NA+45829  10.850  12.656  12.485
77489NA+    NA+45830  17.557  11.835   2.835
77490NA+    NA+45831  14.144  24.124  12.359
77491NA+    NA+45832  17.273  34.960   0.752
77492NA+    NA+45833  43.324   3.833  14.434
77493NA+    NA+45834   5.788  15.140  12.910
77494NA+    NA+45835   9.286   9.829   1.335
77495NA+    NA+45836  41.925  21.707   4.704
77496NA+    NA+45837   9.852  22.655  10.946
77497NA+    NA+45838  38.850  43.878   3.667
77498NA+    NA+45839   3.932  44.932   3.371
77499NA+    NA+45840  38.915  32.592  11.523
77500NA+    NA+45841  38.478   0.313  12.899
77501NA+    NA+45842  10.741  25.484  14.866
77502NA+    NA+45843  23.714   0.963   2.883
77503NA+    NA+45844  12.741  26.557   1.799
77504NA+    NA+45845   7.213  10.806  12.847
77505NA+    NA+45846  34.076  11.704   1.769
77506NA+    NA+45847   0.248  19.186   2.793
77507NA+    NA+45848   6.878  33.960   0.748
77508NA+    NA+45849  14.120  41.833   1.225
77509NA+    NA+45850  29.093  22.614   1.382
77510NA+    NA+45851  29.511   5.256  13.474
77511NA+    NA+45852   1.854  44.492  13.497
77512NA+    NA+45853   6.247   7.187   1.870
77513NA+    NA+45854  36.060   9.866   3.285
77514NA+    NA+45855  11.836  13.186   1.782
77515NA+    NA+45856   4.235  27.984  12.915
77516NA+    NA+45857  38.424   4.288  11.604
77517NA+    NA+45858  18.655  29.669   2.253
77518NA+    NA+45859  44.858  12.212   1.406
77519NA+    NA+45860  41.017   0.837  10.905
77520NA+    NA+45861   8.796  15.299   4.220
77521NA+    NA+45862  14.737  20.713  14.910
77522NA+    NA+45863  17.242  17.103   4.751
77523NA+    NA+45864  32.540  33.915  13.871
77524NA+    NA+45865  42.980   5.782  10.614
77525NA+    NA+45866  24.561  14.723  11.494
77526NA+    NA+45867  13.648   2.419   4.704
77527NA+    NA+45868  16.295  20.217  13.441
77528NA+    NA+45869   0.426  17.268   4.119
77529NA+    NA+45870   7.240  20.188   4.340
77530NA+    NA+45871  22.104  27.568   0.801
77531NA+    NA+45872  41.998  31.449  10.593
77532NA+    NA+45873  26.123  17.618   3.232
77533NA+    NA+45874  12.172   0.255   4.302
77534NA+    NA+45875  30.621  16.573  11.582
77535NA+    NA+45876  43.388  39.529   3.313
77536NA+    NA+45877  31.063  40.015   1.237
77537NA+    NA+45878  14.176   5.375  13.409
77538NA+    NA+45879  28.052  14.284  11.082
77539NA+    NA+45880  35.445  16.767  10.986
77540NA+    NA+45881  25.015  19.266  13.361
77541NA+    NA+45882   6.228  29.156  14.291
77542NA+    NA+45883  43.279  16.180   3.169
77543NA+    NA+45884   0.322  20.555  11.876
77544NA+    NA+45885   1.422  14.632   4.768
77545NA+    NA+45886   8.271  13.675  12.406
77546NA+    NA+45887  39.359  27.460  12.546
77547NA+    NA+45888  27.514  26.659   1.707
77548NA+    NA+45889  35.444  31.034  10.444
77549NA+    NA+45890  15.784  35.574  12.429
77550NA+    NA+45891  17.727  44.789   2.283
77551NA+    NA+45892  40.050  24.670  10.611
77552NA+    NA+45893   6.848  13.351  13.807
77553NA+    NA+45894  31.960  24.989   2.698
77554NA+    NA+45895  15.684  13.621  11.478
77555NA+    NA+45896  31.611   7.903   1.422
77556NA+    NA+45897  35.547  12.163  10.540
77557NA+    NA+45898  38.380  41.301   4.319
77558NA+    NA+45899  31.080   4.786   1.883
77559NA+    NA+45900  21.113  33.602  13.522
77560NA+    NA+45901   5.382  24.482  13.433
77561NA+    NA+45902  38.009   5.812  14.983
77562NA+    NA+45903  15.190  33.431  14.891
77563NA+    NA+45904  25.514  20.230   1.853
77564NA+    NA+45905   7.229  26.004   2.847
77565NA+    NA+45906  35.883  16.172   2.241
77566NA+    NA+45907  42.823  18.161   4.281
77567NA+    NA+45908  10.288  14.150  12.952
77568NA+    NA+45909  17.075  19.593  13.395
77569NA+    NA+45910  41.922  11.287   9.967
77570NA+    NA+45911  21.591  34.867  10.461
77571NA+    NA+45912  26.052  33.474   0.309
77572NA+    NA+45913  44.427  12.850   1.855
77573NA+    NA+45914   9.879   8.718   1.224
77574NA+    NA+45915  23.595  33.090  12.975
77575NA+    NA+45916  20.072   1.817  14.308
77576NA+    NA+45917  21.714  40.502   0.842
77577NA+    NA+45918  28.468   6.411  13.049
77578NA+    NA+45919  41.292  10.142  10.462
77579NA+    NA+45920  10.208  24.652  11.412
77580NA+    NA+45921  39.384  26.200  14.901
77581NA+    NA+45922  31.036  41.500   2.867
77582NA+    NA+45923  15.617   1.315  10.982
77583NA+    NA+45924  35.414   9.167   4.180
77584NA+    NA+45925   7.768  25.107   4.763
77585NA+    NA+45926  21.565   4.839  12.502
77586NA+    NA+45927  31.598  43.001  11.980
77587NA+    NA+45928  23.080  37.354  10.928
77588NA+    NA+45929  16.746  15.130   2.757
77589NA+    NA+45930  40.948  10.182  11.857
77590NA+    NA+45931  11.842  13.239  11.070
77591NA+    NA+45932  38.837  41.913   1.414
77592NA+    NA+45933  36.420  16.715  13.916
77593NA+    NA+45934   8.876   1.906  10.572
77594NA+    NA+45935   0.760  15.799  12.879
77595NA+    NA+45936   5.243   3.300   3.866
77596NA+    NA+45937  17.101  36.083   3.289
77597NA+    NA+45938  33.926  29.663  13.976
77598NA+    NA+45939  27.525  39.389   0.282
77599NA+    NA+45940  16.703  40.376   4.724
77600NA+    NA+45941  44.496  32.540  11.403
77601NA+    NA+45942  44.940  17.140  12.902
77602NA+    NA+45943   3.781  36.867   0.834
77603NA+    NA+45944  24.198  16.743   4.263
77604NA+    NA+45945  29.460  19.119   2.273
77605NA+    NA+45946   4.409   1.895  11.565
77606NA+    NA+45947   8.249  10.143  14.967
77607NA+    NA+45948   6.250  18.231  11.940
77608NA+    NA+45949  36.396   5.208  14.901
77609NA+    NA+45950  20.573   9.722   1.410
77610NA+    NA+45951  30.103  42.353   4.250
77611NA+    NA+45952   9.863  22.164  14.994
77612NA+    NA+45953  20.667  17.699  14.459
77613NA+    NA+45954   8.202  37.392  12.016
77614NA+    NA+45955  25.533  28.602  10.514
77615NA+    NA+45956  27.560  20.615   2.831
77616NA+    NA+45957   0.787  24.174  11.558
77617NA+    NA+45958   9.773  38.413  11.056
77618NA+    NA+45959  13.321   0.942   4.738
77619NA+    NA+45960  38.435  25.031   1.793
77620NA+    NA+45961   0.813  35.090   2.715
77621NA+    NA+45962  37.403  28.098   0.773
77622NA+    NA+45963   7.849  21.173  14.811
77623NA+    NA+45964  41.876   4.330  12.991
77624NA+    NA+45965  21.213  23.141  14.476
77625NA+    NA+45966  11.329  24.086  14.806
77626NA+    NA+45967   5.814   6.864   3.724
77627NA+    NA+45968  23.666   5.242  14.913
77628NA+    NA+45969  15.708  42.347  12.030
77629NA+    NA+45970   7.280  11.219   2.827
77630NA+    NA+45971  15.619  38.557  12.354
77631NA+    NA+45972  42.800  38.504   0.818
77632NA+    NA+45973  16.083  42.800   0.794
77633NA+    NA+45974  30.112   1.418   0.898
77634NA+    NA+45975  31.575  14.308  14.465
77635NA+    NA+45976  39.479  44.761   3.172
77636NA+    NA+45977   8.865  15.727   5.155
77637NA+    NA+45978  17.623  23.053   4.135
77638NA+    NA+45979  25.551   5.733  10.622
77639NA+    NA+45980   6.262  30.923  13.421
77640NA+    NA+45981   8.167   4.891  12.835
77641NA+    NA+45982  33.563  20.589   1.935
77642NA+    NA+45983  18.689  22.549   3.378
77643NA+    NA+45984  34.057  16.137   2.778
77644NA+    NA+45985  40.027  22.221  11.861
77645NA+    NA+45986  19.603  13.666  14.485
77646NA+    NA+45987  43.459  17.771   4.768
77647NA+    NA+45988  42.395  38.558  14.032
77648NA+    NA+45989  40.402  37.545   3.807
77649NA+    NA+45990  13.714  25.552  12.507
77650NA+    NA+45991   4.405   9.367  13.517
77651NA+    NA+45992  41.402  28.659  12.905
77652NA+    NA+45993  33.042  40.896  13.025
77653NA+    NA+45994  37.842  21.709  10.499
77654NA+    NA+45995  10.359  10.341   5.195
77655NA+    NA+45996  42.842   5.263  14.353
77656NA+    NA+45997  32.102   4.231   2.303
77657NA+    NA+45998  24.222  32.020  12.897
77658NA+    NA+45999  44.286  42.330   2.819
77659NA+    NA+46000  27.674  23.173   1.326
77660NA+    NA+46001  34.038  14.814  12.362
77661NA+    NA+46002  36.863  18.652  14.895
77662NA+    NA+46003   6.868  10.362  11.486
77663NA+    NA+46004  19.748  16.290  12.874
77664NA+    NA+46005  13.741  22.674  13.842
77665NA+    NA+46006   3.370  29.605  10.451
77666NA+    NA+46007  12.809  17.290  12.958
77667NA+    NA+46008  13.712  36.383  13.510
77668NA+    NA+46009  22.588   7.334  10.600
77669NA+    NA+46010  27.501   1.951  14.801
77670NA+    NA+46011  43.411   1.251   4.607
77671NA+    NA+46012  11.175  40.409   1.713
77672NA+    NA+46013  19.264  24.709   1.272
77673NA+    NA+46014  13.175  34.049   1.778
77674NA+    NA+46015  36.499  28.114  10.420
77675NA+    NA+46016  41.016  10.155   3.375
77676NA+    NA+46017  42.425  35.538   1.709
77677NA+    NA+46018  21.088  30.536   4.600
77678NA+    NA+46019   7.353  41.520  14.884
77679NA+    NA+46020  14.761  37.904  10.616
77680NA+    NA+46021  37.007  44.466   2.214
77681NA+    NA+46022  11.637  36.026   1.793
77682NA+    NA+46023  36.487   9.363   1.382
77683NA+    NA+46024  42.526  12.251  14.941
77684NA+    NA+46025   0.878  35.024  14.946
77685NA+    NA+46026  41.475   7.215  12.948
77686NA+    NA+46027  34.934  15.273  11.442
77687NA+    NA+46028  16.765   0.384   3.766
77688NA+    NA+46029   2.291  29.460   4.631
77689NA+    NA+46030   4.317  17.682  13.340
77690NA+    NA+46031   4.374   9.861  12.056
77691NA+    NA+46032  11.773  39.537   9.446
77692NA+    NA+46033  39.318  32.604   1.449
77693NA+    NA+46034  39.505  20.255  12.376
77694NA+    NA+46035   8.218  11.819  13.974
77695NA+    NA+46036  33.527  27.632   2.864
77696NA+    NA+46037  37.353  26.067  14.340
77697NA+    NA+46038   0.375  28.117  14.434
77698NA+    NA+46039   0.250  19.558   1.292
77699NA+    NA+46040  12.724  25.032  14.386
77700NA+    NA+46041   7.374  19.632  12.038
77701NA+    NA+46042   2.268  29.150   2.293
77702NA+    NA+46043  13.205  21.065  11.020
77703NA+    NA+46044   4.937  43.414  10.530
77704NA+    NA+46045   6.750   3.862   0.851
77705NA+    NA+46046  41.013  19.165   3.349
77706NA+    NA+46047  11.715   1.870  13.409
77707NA+    NA+46048  10.725   3.452   0.951
77708NA+    NA+46049  25.608  22.619   3.785
77709NA+    NA+46050  37.430  21.741  11.051
77710NA+    NA+46051  28.110   1.817  13.533
77711NA+    NA+46052  36.390  40.540  10.905
77712NA+    NA+46053  22.547  16.082  13.796
77713NA+    NA+46054  36.399  34.524   0.433
77714NA+    NA+46055   4.409  17.754   2.335
77715NA+    NA+46056  18.245  16.783  13.985
77716NA+    NA+46057   6.306  25.589   4.797
77717NA+    NA+46058  31.057  36.396   3.630
77718NA+    NA+46059  18.769  32.051   4.649
77719NA+    NA+46060  16.226  33.976   5.116
77720NA+    NA+46061  28.475  11.838   4.352
77721NA+    NA+46062  23.581  39.023  14.342
77722NA+    NA+46063  43.829  28.624   1.423
77723NA+    NA+46064  24.216  31.981   1.902
77724NA+    NA+46065  24.519  17.194   2.814
77725NA+    NA+46066  44.358   6.785   0.312
77726NA+    NA+46067  10.259  14.235   4.645
77727NA+    NA+46068  20.271   5.929  13.010
77728NA+    NA+46069  27.463  37.972   4.757
77729NA+    NA+46070  21.635   5.367  12.374
77730NA+    NA+46071  37.831   5.287   4.758
77731NA+    NA+46072  11.758  39.454  12.863
77732NA+    NA+46073  32.115   4.223   3.271
77733NA+    NA+46074  29.654  44.467   4.741
77734NA+    NA+46075  30.435  30.438   0.961
77735NA+    NA+46076  14.747  42.324  12.366
77736NA+    NA+46077  15.597   3.738   4.822
77737NA+    NA+46078  17.562   6.782  14.374
77738NA+    NA+46079   6.809  13.669   3.363
77739NA+    NA+46080  19.164  13.626   2.662
77740NA+    NA+46081  26.663  18.693   2.815
77741NA+    NA+46082  26.964   1.746  12.344
77742NA+    NA+46083  23.643  33.421   4.637
77743NA+    NA+46084  14.793   9.746   2.189
77744NA+    NA+46085  21.163  12.337  13.337
77745NA+    NA+46086  14.766   7.839   3.217
77746NA+    NA+46087  31.113  21.115   3.709
77747NA+    NA+46088  36.865  16.200  10.607
77748NA+    NA+46089  26.195  21.027  10.030
77749NA+    NA+46090  13.752  34.463   2.874
77750NA+    NA+46091  15.687  26.654  14.832
77751NA+    NA+46092  25.709   0.911  12.998
77752NA+    NA+46093  29.557  14.825   3.183
77753NA+    NA+46094  39.955  11.681   1.435
77754NA+    NA+46095  35.094  10.697   4.726
77755NA+    NA+46096  40.813  33.092   2.668
77756NA+    NA+46097  43.319  33.966  14.430
77757NA+    NA+46098  44.466  12.139  10.467
77758NA+    NA+46099  17.260   8.272  14.814
77759NA+    NA+46100  16.111  35.937  13.333
77760NA+    NA+46101  37.880  17.219  14.379
77761NA+    NA+46102  44.307  25.057   4.692
77762NA+    NA+46103  35.451   4.914  11.483
77763NA+    NA+46104  31.992  44.900  13.893
77764NA+    NA+46105   6.843  23.034   4.263
77765NA+    NA+46106   1.960  16.264   2.373
77766NA+    NA+46107  16.586  39.813  11.574
77767NA+    NA+46108  11.347  12.764   1.764
77768NA+    NA+46109   3.282  23.719   3.649
77769NA+    NA+46110  36.070  33.530  12.941
77770NA+    NA+46111   1.972  25.085  10.411
77771NA+    NA+46112   7.409  38.423   2.847
77772NA+    NA+46113   5.749   0.761  10.570
77773NA+    NA+46114  28.132   5.276  10.141
77774NA+    NA+46115  23.098  31.501   3.180
77775NA+    NA+46116  17.693  38.036   2.304
77776NA+    NA+46117  17.734   6.317  14.807
77777NA+    NA+46118  30.484   2.255  10.920
77778NA+    NA+46119  25.633  19.190  14.927
77779NA+    NA+46120  30.452  24.155   4.161
77780NA+    NA+46121  21.732  16.791   0.835
77781NA+    NA+46122  32.898  41.538   4.610
77782NA+    NA+46123  20.612  34.873  14.993
77783NA+    NA+46124  10.261   2.379   3.301
77784NA+    NA+46125  37.886  40.303   4.805
77785NA+    NA+46126   6.375  36.067   2.712
77786NA+    NA+46127  24.153   4.829  11.050
77787NA+    NA+46128  10.811  13.719   4.714
77788NA+    NA+46129  16.760   4.346   1.383
77789NA+    NA+46130  17.099   5.805  10.593
77790NA+    NA+46131  40.945  16.668  12.397
77791NA+    NA+46132   8.786  32.574   1.904
77792NA+    NA+46133  30.451   2.379   4.651
77793NA+    NA+46134   7.240  17.652   4.695
77794NA+    NA+46135  12.138   5.733  11.090
77795NA+    NA+46136  28.154  41.044  13.494
77796NA+    NA+46137  31.576  12.848   0.455
77797NA+    NA+46138   7.793   9.825   0.396
77798NA+    NA+46139   5.277  11.691  12.981
77799NA+    NA+46140  11.868  12.791  12.829
77800NA+    NA+46141   1.415  30.109   0.955
77801NA+    NA+46142   9.693   4.300  13.540
77802NA+    NA+46143  33.089  22.591  13.462
77803NA+    NA+46144   9.198  18.699  13.991
77804NA+    NA+46145  33.103  25.209   2.230
77805NA+    NA+46146  42.516  20.047   0.446
77806NA+    NA+46147  13.232   1.250   0.777
77807CL-    CL-46148  23.002  44.407  14.485
77808CL-    CL-46149   5.336  21.699   2.246
77809CL-    CL-46150  27.539  34.482   1.308
77810CL-    CL-46151   6.774  18.271   2.713
77811CL-    CL-46152  13.751  23.722   1.781
77812CL-    CL-46153  30.147   5.216   0.910
77813CL-    CL-46154  22.081  18.263   2.214
77814CL-    CL-46155  44.293   7.397  10.049
77815CL-    CL-46156  32.910   4.907   1.282
77816CL-    CL-46157   9.378  30.544   1.925
77817CL-    CL-46158   5.848  19.753  11.391
77818CL-    CL-46159  44.829  23.206  13.440
77819CL-    CL-46160  16.718  35.005  11.550
77820CL-    CL-46161  17.609  37.861   1.733
77821CL-    CL-46162  30.433  40.422   0.331
77822CL-    CL-46163  26.558   3.900   1.899
77823CL-    CL-46164  37.471  32.068   4.266
77824CL-    CL-46165  29.561  18.548   1.735
77825CL-    CL-46166  27.458  15.717  11.433
77826CL-    CL-46167   4.908   8.899  14.434
77827CL-    CL-46168  23.028  40.460   1.786
77828CL-    CL-46169  44.992  19.041   2.900
77829CL-    CL-46170  37.495  20.107   3.667
77830CL-    CL-46171  30.053  18.263   2.186
77831CL-    CL-46172  17.217   3.441   1.422
77832CL-    CL-46173  28.680   4.223  14.464
77833CL-    CL-46174  15.251   7.745   1.854
77834CL-    CL-46175  29.084  15.115  11.540
77835CL-    CL-46176  39.044   2.825   4.614
77836CL-    CL-46177  44.406  38.568  11.080
77837CL-    CL-46178  33.874  15.094   3.230
77838CL-    CL-46179  14.262   3.846  11.545
77839CL-    CL-46180   3.901  28.452  11.980
77840CL-    CL-46181  30.931  40.348   3.305
77841CL-    CL-46182  17.153  23.499   1.897
77842CL-    CL-46183   5.770  23.137  14.280
77843CL-    CL-46184  43.959  18.700   9.934
77844CL-    CL-46185  35.498   3.776  14.951
77845CL-    CL-46186   7.329  16.302  12.563
77846CL-    CL-46187  18.119  21.546   4.246
77847CL-    CL-46188  43.500  30.004   1.792
77848CL-    CL-46189  39.364  14.658   3.666
77849CL-    CL-46190  31.115  32.065  10.057
77850CL-    CL-46191  20.573  24.531   3.664
77851CL-    CL-46192  37.556  24.668   3.224
77852CL-    CL-46193  13.819   3.325  11.993
77853CL-    CL-46194  13.192  29.552   1.304
77854CL-    CL-46195  23.619  42.892  14.417
77855CL-    CL-46196   0.441   4.735   3.809
77856CL-    CL-46197  24.649  17.671  11.096
77857CL-    CL-46198  34.486  29.632   0.292
77858CL-    CL-46199   1.779   2.295  14.810
77859CL-    CL-46200  40.870   7.674   4.275
77860CL-    CL-46201   3.932  36.020  13.881
77861CL-    CL-46202  20.709  40.802   3.737
77862CL-    CL-46203  10.651  11.193  11.416
77863CL-    CL-46204  14.776  40.355   5.640
77864CL-    CL-46205  14.626  13.229  11.605
77865CL-    CL-46206   8.313  14.823  14.976
77866CL-    CL-46207  21.020  21.158  13.929
77867CL-    CL-46208   5.914  13.231  10.572
77868CL-    CL-46209  23.510   4.264  10.989
77869CL-    CL-46210   2.236   7.279   0.250
77870CL-    CL-46211   6.240   2.368   0.377
77871CL-    CL-46212  14.803  39.034   0.248
77872CL-    CL-46213  34.931  26.532   4.209
77873CL-    CL-46214  34.585  24.512  13.520
77874CL-    CL-46215  20.587   6.303   2.266
77875CL-    CL-46216  15.228  34.982  10.526
77876CL-    CL-46217  42.428  19.054   4.354
77877CL-    CL-46218  29.493  14.303   1.905
77878CL-    CL-46219  34.002  21.122   0.428
77879CL-    CL-46220  31.094  41.885  13.050
77880CL-    CL-46221   6.681  20.029  12.359
77881CL-    CL-46222  16.148  22.018  14.463
77882CL-    CL-46223  29.134  28.592  12.400
77883CL-    CL-46224  24.508  10.270  13.411
77884CL-    CL-46225  20.727  20.074   3.331
77885CL-    CL-46226  44.358  38.422  11.491
77886CL-    CL-46227  25.632   8.684   1.835
77887CL-    CL-46228   1.781   3.897  13.372
77888CL-    CL-46229  37.438   0.862   5.188
77889CL-    CL-46230  30.964  16.788   1.894
77890CL-    CL-46231  35.441  31.959  12.394
77891CL-    CL-46232  25.669  24.100   1.436
77892CL-    CL-46233  17.157  13.772   0.766
77893CL-    CL-46234  37.340  16.184  13.374
77894CL-    CL-46235  21.699  33.407   2.354
77895CL-    CL-46236  20.133  25.019   5.095
77896CL-    CL-46237  39.373  26.147  11.029
77897CL-    CL-46238  27.961  43.326  10.487
77898CL-    CL-46239  41.439  11.706  12.572
77899CL-    CL-46240  39.956  19.090  10.628
77900CL-    CL-46241  29.539  14.196   0.305
77901CL-    CL-46242  19.149  22.153   3.755
77902CL-    CL-46243  43.861  30.607  13.883
77903CL-    CL-46244  24.179  41.470  10.119
77904CL-    CL-46245   6.240  36.940  13.031
77905CL-    CL-46246  26.089   9.747   2.725
77906CL-    CL-46247  15.261  13.794   4.789
77907CL-    CL-46248  40.466  34.117  12.458
77908CL-    CL-46249  43.307   7.207  11.520
77909CL-    CL-46250  32.619  11.327   4.119
77910CL-    CL-46251  15.610  41.414  12.527
77911CL-    CL-46252  28.460  30.921  10.493
77912CL-    CL-46253  43.375  23.535  14.504
77913CL-    CL-46254  38.984  12.810   1.878
77914CL-    CL-46255  33.879  15.244   2.367
77915CL-    CL-46256   0.796   0.255   3.259
77916CL-    CL-46257   4.256   0.880   2.893
77917CL-    CL-46258   0.340  24.223  12.550
77918CL-    CL-46259  10.216   1.249  14.958
77919CL-    CL-46260  28.566  26.568   3.351
77920CL-    CL-46261  19.694  21.029   1.758
77921CL-    CL-46262  16.678  39.464  11.600
77922CL-    CL-46263   1.280  14.170  12.945
77923CL-    CL-46264  41.004   9.735  12.426
77924CL-    CL-46265  17.125   4.833   4.243
77925CL-    CL-46266  12.163  44.988   2.727
77926CL-    CL-46267  19.540  14.829  10.410
77927CL-    CL-46268  28.002   0.415  12.854
77928CL-    CL-46269  22.226   8.192   1.314
77929CL-    CL-46270  37.348   8.271  11.048
77930CL-    CL-46271  36.403  34.904   1.785
77931CL-    CL-46272  26.515  40.525  13.962
77932CL-    CL-46273  15.248  42.944   2.753
77933CL-    CL-46274  14.766  28.995  11.857
77934CL-    CL-46275  24.195  41.524   2.809
77935CL-    CL-46276   7.788  24.987  14.467
77936CL-    CL-46277  31.087  36.938  12.406
77937CL-    CL-46278  41.030  25.688   0.438
77938CL-    CL-46279   1.753  32.913   1.424
77939CL-    CL-46280   8.368   8.212   0.879
77940CL-    CL-46281  12.681  41.497   2.209
77941CL-    CL-46282  26.201  29.138   4.704
77942CL-    CL-46283  21.739  31.633   3.850
77943CL-    CL-46284  34.003   7.698   0.853
77944CL-    CL-46285  29.488  14.702  10.469
77945CL-    CL-46286  10.758   0.912   3.690
77946CL-    CL-46287  40.031  18.277   2.750
77947CL-    CL-46288  17.143  33.109  14.013
77948CL-    CL-46289  23.500  18.245  11.077
77949CL-    CL-46290  39.065  30.935  11.091
77950CL-    CL-46291  33.427  36.514  12.497
77951CL-    CL-46292  40.503  30.535   1.697
77952CL-    CL-46293  26.963  44.319  14.490
77953CL-    CL-46294  16.203  10.303   1.387
77954CL-    CL-46295  26.700  42.026  13.494
77955CL-    CL-46296   2.469  34.404   0.779
77956CL-    CL-46297  35.382  22.539   1.702
77957CL-    CL-46298  11.723  23.160   2.750
77958CL-    CL-46299   3.385  21.642   3.777
77959CL-    CL-46300  43.910  33.979   4.173
77960CL-    CL-46301  36.365  18.785  12.954
77961CL-    CL-46302  43.314  26.530  10.464
77962CL-    CL-46303   0.747  15.108  14.825
77963CL-    CL-46304   6.290  30.000  14.297
77964CL-    CL-46305   7.818   3.245  12.938
77965CL-    CL-46306   3.256  31.902   5.265
77966CL-    CL-46307  23.097  19.696   4.186
77967CL-    CL-46308  11.818  21.190  13.061
77968CL-    CL-46309   1.262  37.367   0.951
77969CL-    CL-46310  38.006  37.405   1.791
77970CL-    CL-46311  39.878  44.988   0.259
77971CL-    CL-46312   9.734  33.518   3.859
77972CL-    CL-46313  21.157  31.128   2.690
77973CL-    CL-46314   2.931  27.184   0.819
77974CL-    CL-46315  23.165   9.383   1.883
77975CL-    CL-46316  15.239   3.420   2.700
77976CL-    CL-46317  31.079  10.383   4.312
77977CL-    CL-46318  18.706  19.684   0.955
77978CL-    CL-46319   4.821  13.339  11.604
77979CL-    CL-46320  15.674  18.069  14.976
77980CL-    CL-46321  18.286  40.978   4.286
77981CL-    CL-46322   2.786  15.611  11.993
77982CL-    CL-46323  12.212   7.667   3.310
77983CL-    CL-46324  34.544  36.977  10.917
77984CL-    CL-46325  34.933  20.764  11.385
77985CL-    CL-46326  13.228  14.222   4.228
77986CL-    CL-46327   4.763  29.614  12.011
77987CL-    CL-46328  33.927  27.659   2.220
77988CL-    CL-46329  17.646  17.751  11.928
77989CL-    CL-46330  27.084  44.383  13.538
77990CL-    CL-46331  41.497  27.192   1.840
77991CL-    CL-46332  40.544  24.093  11.983
77992CL-    CL-46333   9.265  28.644   3.278
77993CL-    CL-46334  26.633   2.353   0.410
77994CL-    CL-46335  33.468  13.143  10.611
77995CL-    CL-46336  35.928  20.089  12.998
77996CL-    CL-46337   5.324  32.491  11.434
77997CL-    CL-46338  10.289  25.492   2.299
77998CL-    CL-46339  24.712  36.999   0.904
77999CL-    CL-46340  37.515   3.740   4.820
78000CL-    CL-46341  31.901  14.324   2.382
78001CL-    CL-46342  12.264  42.969  14.286
78002CL-    CL-46343  12.289  12.679  12.933
78003CL-    CL-46344  16.133  31.901  11.457
78004CL-    CL-46345   7.223  13.316  13.443
78005CL-    CL-46346  15.637  37.975   2.865
78006CL-    CL-46347  40.922  18.214   1.824
78007CL-    CL-46348  27.673  16.249  12.981
78008CL-    CL-46349   1.877  44.778  11.553
78009CL-    CL-46350  16.093  30.106  13.872
78010CL-    CL-46351  24.546  26.033   5.713
78011CL-    CL-46352  20.552  22.601  11.990
78012CL-    CL-46353  12.650  42.413  11.579
78013CL-    CL-46354  37.883  20.063  14.482
78014CL-    CL-46355  32.907  26.961  12.938
78015CL-    CL-46356   7.685  25.566  10.630
78016CL-    CL-46357  44.408  35.072   0.476
78017CL-    CL-46358  36.055  43.781  13.314
78018CL-    CL-46359   5.330  27.496   2.328
78019CL-    CL-46360  25.504   1.811   4.645
78020CL-    CL-46361  28.965  23.217  10.444
78021CL-    CL-46362   6.895  30.936   2.254
78022CL-    CL-46363   0.382  22.080  11.945
78023CL-    CL-46364  23.221   9.318  13.498
78024CL-    CL-46365   7.304  31.948   4.641
78025CL-    CL-46366  18.230  15.682  11.070
78026CL-    CL-46367  22.549  41.457   1.806
78027CL-    CL-46368   9.807  34.088  12.365
78028CL-    CL-46369  13.649  28.455   1.894
78029CL-    CL-46370  33.036  28.670   0.886
78030CL-    CL-46371   4.432  25.097  14.397
78031CL-    CL-46372   0.263  30.031  13.955
78032CL-    CL-46373   0.461  26.597   3.330
78033CL-    CL-46374  11.726  29.655  13.948
78034CL-    CL-46375  14.103  20.223  11.573
78035CL-    CL-46376  37.516  22.709   0.745
78036CL-    CL-46377  12.679  10.748   4.831
78037CL-    CL-46378   0.273  26.959   3.795
78038CL-    CL-46379  11.341  42.871   0.742
78039CL-    CL-46380  29.594  43.879   4.323
78040CL-    CL-46381  44.426  24.042   2.395
78041CL-    CL-46382  18.116  28.984   0.943
78042CL-    CL-46383  13.298  16.228   2.671
78043CL-    CL-46384  19.131  15.731   1.402
78044CL-    CL-46385  16.592  22.719  14.497
78045CL-    CL-46386   2.873   1.940  12.065
78046CL-    CL-46387  22.538  27.118   0.437
78047CL-    CL-46388  10.354  32.417   3.793
78048CL-    CL-46389   1.397  29.957   4.633
78049CL-    CL-46390   6.725  29.978  11.106
78050CL-    CL-46391   8.218  36.856  13.995
78051CL-    CL-46392  43.879   9.687   4.743
78052CL-    CL-46393  25.477  43.956  13.981
78053CL-    CL-46394  36.549  29.078   1.373
78054CL-    CL-46395  32.503  36.478  12.082
78055CL-    CL-46396  16.252  13.208  14.488
78056CL-    CL-46397  22.120   7.388  11.598
78057CL-    CL-46398  32.122  11.169   2.774
78058CL-    CL-46399  28.586  32.568   0.757
78059CL-    CL-46400  19.553  18.153  12.078
78060CL-    CL-46401   8.351   2.955  14.856
78061CL-    CL-46402   7.375  30.035   4.224
78062CL-    CL-46403   4.867   0.392   0.302
78063CL-    CL-46404  14.825  10.814   1.893
78064CL-    CL-46405  40.362   9.864   3.381
78065CL-    CL-46406  42.000   7.199  13.401
78066CL-    CL-46407  32.068  36.427   4.240
78067CL-    CL-46408   7.767  43.321   1.794
78068CL-    CL-46409  34.600  24.498  11.929
78069CL-    CL-46410   5.889  22.133   3.280
78070CL-    CL-46411  26.132  23.711   3.332
78071CL-    CL-46412  15.783   9.337   2.887
78072CL-    CL-46413   0.907  33.493  12.360
78073CL-    CL-46414  40.961  40.824  11.896
78074CL-    CL-46415  21.233   6.210   0.870
78075CL-    CL-46416  23.116   6.257   3.253
78076CL-    CL-46417  16.674  40.513  14.302
78077CL-    CL-46418  13.310  41.789  13.839
78078CL-    CL-46419  43.308  28.158   3.696
78079CL-    CL-46420  10.279  27.511   0.816
78080CL-    CL-46421  10.761   3.381  10.434
78081CL-    CL-46422   4.326   4.720   9.936
78082CL-    CL-46423  35.380  22.720   2.369
78083CL-    CL-46424  35.103  15.683  12.923
78084CL-    CL-46425  36.517   0.875  13.993
78085CL-    CL-46426  11.778   3.806  14.491
78086CL-    CL-46427  11.176  35.464   3.733
78087CL-    CL-46428  43.967  30.546   2.673
78088CL-    CL-46429   5.889  41.802  14.464
78089CL-    CL-46430  30.911  42.999   1.435
78090CL-    CL-46431  20.269  37.438   1.214
78091CL-    CL-46432  36.464  35.949   0.287
78092CL-    CL-46433  35.422  26.494   2.695
78093CL-    CL-46434  37.870   2.278  14.412
78094CL-    CL-46435  40.357  44.498  13.320
78095CL-    CL-46436  14.593  23.560   2.791
78096CL-    CL-46437  10.141  18.133   3.809
78097CL-    CL-46438  33.933   5.262   2.799
78098CL-    CL-46439  37.046  33.456   2.181
78099CL-    CL-46440  12.644  26.963  13.427
78100CL-    CL-46441  20.241   5.774  13.902
78101CL-    CL-46442   5.737  20.166   3.762
78102CL-    CL-46443  25.620  16.273  14.929
78103CL-    CL-46444  38.922  25.499  13.406
78104CL-    CL-46445  16.702  13.227   0.364
78105CL-    CL-46446  20.538   9.717  11.509
78106CL-    CL-46447  15.718  21.599  11.382
78107CL-    CL-46448  17.245  19.597   4.685
78108CL-    CL-46449  44.413  29.653  12.376
78109CL-    CL-46450  38.936  16.571  10.983
78110CL-    CL-46451  34.869  14.281   3.347
78111CL-    CL-46452  14.331   2.886   3.806
78112CL-    CL-46453  35.872  36.588  11.493
78113CL-    CL-46454  39.543  25.591   2.844
78114CL-    CL-46455  33.941  39.047   3.770
78115CL-    CL-46456   3.820  18.099   2.854
78116CL-    CL-46457  33.421  15.179  12.967
78117CL-    CL-46458  21.528  43.276   0.741
78118CL-    CL-46459  38.973  18.165  14.488
78119CL-    CL-46460   6.363  15.166   3.297
78120CL-    CL-46461  19.252  10.232   4.130
78121CL-    CL-46462   0.304  12.716   2.279
78122CL-    CL-46463  29.017   6.829  13.419
78123CL-    CL-46464   7.297  39.911  11.046
78124CL-    CL-46465  11.263  33.077   2.229
78125CL-    CL-46466  20.058   3.277   5.244
78126CL-    CL-46467  20.267  24.231  10.516
78127CL-    CL-46468  35.107   8.254  11.921
78128CL-    CL-46469  10.352  25.015  11.452
78129CL-    CL-46470  29.445  34.040  14.368
78130CL-    CL-46471  23.062  14.827   0.372
78131CL-    CL-46472  15.671   0.784  11.528
78132CL-    CL-46473  17.563  20.074  12.959
78133CL-    CL-46474  41.387  33.488  12.427
78134CL-    CL-46475  18.146  12.620  11.381
78135CL-    CL-46476  12.771  27.089  14.423
78136CL-    CL-46477  16.279  27.548   1.798
78137CL-    CL-46478  14.292   8.239  14.349
78138CL-    CL-46479   4.759  27.956   3.327
78139CL-    CL-46480  40.811   6.262  13.326
78140CL-    CL-46481  15.629   9.886   5.267
78141CL-    CL-46482  32.614   7.286  12.395
78142CL-    CL-46483  44.434  35.951  11.404
78143CL-    CL-46484  17.080  34.478   1.725
78144CL-    CL-46485  27.192   6.854  13.313
78145CL-    CL-46486  10.358  22.013   3.152
78146CL-    CL-46487  13.815  11.211   4.721
78147CL-    CL-46488  30.134  35.049  13.032
78148CL-    CL-46489   8.775  14.237  10.953
78149CL-    CL-46490   9.789  24.219  10.643
78150CL-    CL-46491  40.994   1.882   3.324
78151CL-    CL-46492  36.516   7.218   2.839
78152CL-    CL-46493  26.658  32.403  14.994
78153CL-    CL-46494   8.237  22.739  12.449
78154CL-    CL-46495  17.091  28.463  14.825
78155CL-    CL-46496  37.570  37.343   0.250
78156CL-    CL-46497  27.955   0.481  12.534
78157CL-    CL-46498  26.676   2.961   3.775
78158CL-    CL-46499  33.910  16.726  14.512
78159CL-    CL-46500  24.523  29.933   0.317
78160CL-    CL-46501  27.659  25.176   3.804
78161CL-    CL-46502  21.176  41.020  14.814
78162CL-    CL-46503   0.834  43.892  10.526
78163CL-    CL-46504  40.392  12.206  12.485
78164CL-    CL-46505   2.463  25.086   4.786
78165CL-    CL-46506  27.493   7.411  10.586
78166CL-    CL-46507   1.352  31.143  10.532
78167CL-    CL-46508  13.620  29.635  12.504
78168CL-    CL-46509  40.412  31.990   1.396
78169CL-    CL-46510  20.112  39.336  14.432
78170CL-    CL-46511  26.067   4.816   3.328
78171CL-    CL-46512   0.394  31.422  14.764
78172CL-    CL-46513  12.247  36.893  14.428
78173CL-    CL-46514   8.835  25.636   3.253
78174CL-    CL-46515  44.305  28.974  10.094
78175CL-    CL-46516  12.324  14.126  14.032
78176CL-    CL-46517  13.706   4.257  11.003
78177CL-    CL-46518  36.991   9.801  12.905
78178CL-    CL-46519   0.835  20.111  12.457
78179CL-    CL-46520  20.743  17.213  14.015
78180CL-    CL-46521  10.301  20.583  14.942
78181CL-    CL-46522  10.760  35.554   0.903
78182CL-    CL-46523  14.270  25.469  11.060
78183CL-    CL-46524  17.626   0.431  10.979
78184CL-    CL-46525  24.480  13.797  14.998
78185CL-    CL-46526   5.225  22.687  10.902
78186CL-    CL-46527   4.373  10.303  14.851
78187CL-    CL-46528  18.629  20.152  11.556
78188CL-    CL-46529  19.604  30.609  11.581
78189CL-    CL-46530  44.280  12.205   4.749
78190CL-    CL-46531   6.694  32.949  14.329
78191CL-    CL-46532  37.468  14.205   1.868
78192CL-    CL-46533   6.245   2.254  14.315
78193CL-    CL-46534  36.007  17.598   4.794
78194CL-    CL-46535  34.461  23.187  12.082
78195CL-    CL-46536  15.806  18.785   5.185
78196CL-    CL-46537  29.478  39.366   1.295
78197CL-    CL-46538   2.763  44.896   4.779
78198CL-    CL-46539  15.165  29.138   2.878
78199CL-    CL-46540  29.966  43.936   4.667
78200CL-    CL-46541   5.418  26.184   2.252
78201CL-    CL-46542  35.499  34.399   2.309
78202CL-    CL-46543  29.029  27.029  10.580
78203CL-    CL-46544  42.855  20.763   1.724
78204CL-    CL-46545  32.143   2.906  10.978
78205CL-    CL-46546  25.181  17.144   2.761
78206CL-    CL-46547  12.698  13.188  10.602
78207CL-    CL-46548  37.911   2.285  12.062
78208CL-    CL-46549  14.632  34.879   0.810
78209CL-    CL-46550  38.439  12.137   3.808
78210CL-    CL-46551  32.413  13.106  11.117
78211CL-    CL-46552   1.341  18.583  11.931
78212CL-    CL-46553  13.123  39.861  12.436
78213CL-    CL-46554  21.708  23.709  12.426
78214CL-    CL-46555  23.590  44.762  11.046
78215CL-    CL-46556  35.557  14.239   1.886
78216CL-    CL-46557  17.594   7.204   3.266
78217CL-    CL-46558  36.353  14.110  11.880
78218CL-    CL-46559   2.952   4.743  10.589
78219CL-    CL-46560   6.352  22.250   3.818
78220CL-    CL-46561  16.806  37.076   1.911
78221CL-    CL-46562  20.557  14.121   0.372
78222CL-    CL-46563  15.101  15.661  13.325
78223CL-    CL-46564  18.228  27.148  11.024
78224CL-    CL-46565  33.971  14.246  13.811
78225CL-    CL-46566  29.160  18.602  11.920
78226CL-    CL-46567   5.872  22.236   2.324
78227CL-    CL-46568  41.457  18.213   3.363
78228CL-    CL-46569  27.180  11.806   0.733
78229CL-    CL-46570  23.005  28.564   4.353
78230CL-    CL-46571  30.565  26.523   2.285
78231CL-    CL-46572  21.590   9.805  11.023
78232CL-    CL-46573   4.246  19.244   1.416
78233CL-    CL-46574  20.766  10.859  13.523
78234CL-    CL-46575  23.511  10.690  13.923
78235CL-    CL-46576  11.182  17.581  12.933
78236CL-    CL-46577  31.637  40.494   1.858
78237CL-    CL-46578  30.557  42.316  14.953
78238CL-    CL-46579  12.256  25.673   0.311
78239CL-    CL-46580  25.547  10.137  13.346
78240CL-    CL-46581  15.599  34.475   2.418
78241CL-    CL-46582  44.296  37.549   3.196
78242CL-    CL-46583  11.152  10.221   9.509
78243CL-    CL-46584  18.173  30.920   2.402
78244CL-    CL-46585  41.405  36.959  11.981
78245CL-    CL-46586  41.936   6.909   2.202
78246CL-    CL-46587  41.848  12.621  12.545
78247CL-    CL-46588  42.839  37.861   3.165
78248CL-    CL-46589  26.085  10.850  13.887
78249CL-    CL-46590   7.251  13.226  10.473
78250CL-    CL-46591  27.033  43.021  11.970
78251CL-    CL-46592   3.427  12.318   4.269
78252CL-    CL-46593   8.804  26.682   1.768
78253CL-    CL-46594  33.043   3.215   1.361
78254CL-    CL-46595  39.464  34.397  14.809
78255CL-    CL-46596  23.138   1.461  11.921
78256CL-    CL-46597  32.511  20.087  11.505
78257CL-    CL-46598  33.589  12.357  10.634
78258CL-    CL-46599  16.204  34.392  11.500
78259CL-    CL-46600  35.873   5.762  14.005
78260CL-    CL-46601  37.466  18.158   0.312
78261CL-    CL-46602  21.066   3.381   1.911
78262CL-    CL-46603   6.825  18.730   1.790
78263CL-    CL-46604  31.621  27.540   3.212
78264CL-    CL-46605  26.052   8.251  13.864
78265CL-    CL-46606  19.675  29.151   4.216
78266CL-    CL-46607  33.616  20.746  11.856
78267CL-    CL-46608  36.428  14.118   0.850
78268CL-    CL-46609  15.292  26.965  14.807
78269CL-    CL-46610   5.707  22.580   1.926
78270CL-    CL-46611  19.073  20.152  11.591
78271CL-    CL-46612   0.373   8.701   3.782
78272CL-    CL-46613  25.667  30.064   4.245
78273CL-    CL-46614  43.346  30.130   3.340
78274CL-    CL-46615  44.833  21.158  13.856
78275CL-    CL-46616   6.197  35.108  14.860
78276CL-    CL-46617  43.773  38.924   1.382
78277CL-    CL-46618   4.283  42.324   1.276
78278CL-    CL-46619  24.562   2.932   4.275
78279CL-    CL-46620  31.488  33.050  10.944
78280CL-    CL-46621  36.511  14.302   1.271
78281CL-    CL-46622  36.464  35.442   1.875
78282CL-    CL-46623  42.353  38.451   3.697
78283CL-    CL-46624  23.038  44.959  10.527
78284CL-    CL-46625  17.678  42.977   4.642
78285CL-    CL-46626   7.175  23.530  10.405
78286CL-    CL-46627  40.511  16.239   1.871
78287CL-    CL-46628  17.182   6.269  11.959
78288CL-    CL-46629   2.327  18.727   1.908
78289CL-    CL-46630  19.707  11.754   0.798
78290CL-    CL-46631  26.575   7.231   2.342
78291CL-    CL-46632  12.353  44.950  13.329
78292CL-    CL-46633  28.543   2.873   1.353
78293CL-    CL-46634  37.516  29.521  13.317
78294CL-    CL-46635  39.317  41.373   0.788
78295CL-    CL-46636  42.029  43.809   3.746
78296CL-    CL-46637  42.828  38.525  13.988
78297CL-    CL-46638   4.916   8.257   1.257
78298CL-    CL-46639  32.449  41.899  13.982
78299CL-    CL-46640   0.766  23.168   1.400
78300CL-    CL-46641  37.941  21.052  13.470
78301CL-    CL-46642   8.685  31.622   0.262
78302CL-    CL-46643  41.439  36.456  10.637
78303CL-    CL-46644  20.206  37.572   4.686
78304CL-    CL-46645  28.185  42.924   3.177
78305CL-    CL-46646  41.424  35.098   4.653
78306CL-    CL-46647  33.414   0.985   1.820
78307CL-    CL-46648  14.306  19.122   1.275
78308CL-    CL-46649  15.691  25.158  10.406
78309CL-    CL-46650  36.021  30.035   1.916
78310CL-    CL-46651  27.020  10.202  10.505
78311CL-    CL-46652  44.912  31.135   2.333
78312CL-    CL-46653   3.311   0.477   4.219
78313CL-    CL-46654  23.143  12.849  10.589
78314CL-    CL-46655  35.901   7.317  12.001
78315CL-    CL-46656  35.490  31.141   2.326
78316CL-    CL-46657  21.668  36.490   3.785
78317CL-    CL-46658  32.577  20.721   1.702
78318CL-    CL-46659  14.605  39.991  11.386
78319CL-    CL-46660  14.779  41.454  10.600
78320CL-    CL-46661  43.390  32.122   0.887
78321CL-    CL-46662  39.451  13.654  13.346
78322CL-    CL-46663   5.787  14.820   2.193
78323CL-    CL-46664  40.952  20.572   1.316
78324CL-    CL-46665  16.765  25.981  13.973
78325CL-    CL-46666  18.567  25.068   2.395
78326CL-    CL-46667  24.019   9.301  13.319
78327CL-    CL-46668  21.135  22.011   1.286
78328CL-    CL-46669  44.941  16.642  14.944
78329CL-    CL-46670  38.842  16.109   2.200
78330CL-    CL-46671  21.678  24.680   2.870
78331CL-    CL-46672  19.282  43.380   0.360
78332CL-    CL-46673  18.716  22.231   2.724
78333CL-    CL-46674  24.578   0.268   2.768
78334CL-    CL-46675  38.378  13.186  11.593
78335CL-    CL-46676  32.047  29.927   3.167
78336CL-    CL-46677  23.121  40.965   3.838
78337CL-    CL-46678   8.769   6.785   4.838
78338CL-    CL-46679  42.467  15.581   4.139
78339CL-    CL-46680  42.852  17.758  11.892
78340CL-    CL-46681  10.156   3.814   4.780
78341CL-    CL-46682  11.700   5.285  11.990
78342CL-    CL-46683   3.275  36.366   4.273
78343CL-    CL-46684  20.606   4.363  14.420
78344CL-    CL-46685  36.895  15.733  11.110
78345CL-    CL-46686  35.599   3.941  11.022
78346CL-    CL-46687  13.725  18.572   4.722
78347CL-    CL-46688  20.632   7.681  12.968
78348CL-    CL-46689  44.905  33.030  12.531
78349CL-    CL-46690  43.850  23.641   2.870
78350CL-    CL-46691  40.414  36.576  12.340
78351CL-    CL-46692  13.747  20.748   0.757
78352CL-    CL-46693   8.795  37.353   3.240
78353CL-    CL-46694   8.269   3.265   1.832
78354CL-    CL-46695  44.311  21.754   3.241
78355CL-    CL-46696   9.341  12.758   3.845
78356CL-    CL-46697  12.234  25.159   1.926
78357CL-    CL-46698  34.930  44.879   0.468
78358CL-    CL-46699  40.863  19.175  12.010
78359CL-    CL-46700  14.184  30.625   1.873
78360CL-    CL-46701  10.308  43.462  12.958
78361CL-    CL-46702   9.276  19.593  12.535
78362CL-    CL-46703  18.632  21.233  11.105
78363CL-    CL-46704  21.634   1.436   2.767
78364CL-    CL-46705   5.243  42.986   2.377
78365CL-    CL-46706   1.784   4.257   2.413
78366CL-    CL-46707  13.794  37.979   3.239
78367CL-    CL-46708   4.941   1.247   3.360
78368CL-    CL-46709  25.515  27.634  11.496
78369CL-    CL-46710   3.413   1.457   3.862
78370CL-    CL-46711  34.465  22.232   0.376
78371CL-    CL-46712  17.638  19.774  12.825
78372CL-    CL-46713  39.467  24.978   4.657
78373CL-    CL-46714  31.442  30.948  14.511
78374CL-    CL-46715  44.915  30.565   1.264
78375CL-    CL-46716  32.610  28.968   2.720
78376CL-    CL-46717  12.713  22.542  11.415
78377CL-    CL-46718  20.553   9.283  10.540
78378CL-    CL-46719  10.231  10.679   0.305
78379CL-    CL-46720  25.033  13.153  12.395
78380CL-    CL-46721   3.796  42.298   1.233
78381CL-    CL-46722  29.141  44.479  13.327
78382CL-    CL-46723  13.107  42.283  12.967
78383CL-    CL-46724  18.761   1.261   2.715
78384CL-    CL-46725  10.689  19.719   2.835
78385CL-    CL-46726  12.227   3.329  14.313
78386CL-    CL-46727  36.475  26.489   5.304
78387CL-    CL-46728  26.460  43.804  14.009
78388CL-    CL-46729  37.344  33.450   2.844
78389CL-    CL-46730  13.155  33.562  13.313
78390CL-    CL-46731  42.929  31.420   1.890
78391CL-    CL-46732  13.222   6.225  11.048
78392CL-    CL-46733  30.017  27.532   1.241
78393CL-    CL-46734  18.292  29.657  14.892
78394CL-    CL-46735  26.062  26.695   5.798
78395CL-    CL-46736  32.077  34.084  14.435
78396CL-    CL-46737   0.911  13.266   3.309
78397CL-    CL-46738  37.580   7.714   4.838
78398CL-    CL-46739  31.137  15.796  14.345
78399CL-    CL-46740  18.748   5.312   4.831
78400CL-    CL-46741  13.169  27.070  13.350
78401CL-    CL-46742  38.469  30.027   2.301
78402CL-    CL-46743  35.394  39.012  14.302
78403CL-    CL-46744  11.726   5.924  14.448
78404CL-    CL-46745  44.780  26.088  11.049
78405CL-    CL-46746   8.367  26.489   4.279
78406CL-    CL-46747   1.931  20.130   5.584
78407CL-    CL-46748  16.577   0.958   2.832
78408CL-    CL-46749   0.987  24.067  14.403
78409CL-    CL-46750  44.936  11.650  12.939
78410CL-    CL-46751  14.124   7.824  14.383
78411CL-    CL-46752  37.836  39.552   2.299
78412CL-    CL-46753  17.285  41.999  12.021
78413CL-    CL-46754  12.782   7.840  11.399
78414CL-    CL-46755  37.004  38.076  14.307
78415CL-    CL-46756  27.943  28.439  13.031
78416CL-    CL-46757  38.001  10.815   4.671
78417CL-    CL-46758   1.849   8.245   4.679
78418CL-    CL-46759  24.115  39.342  13.907
78419CL-    CL-46760   0.262  24.024   2.852
78420CL-    CL-46761  16.238  12.290   3.182
78421CL-    CL-46762   7.242  23.105  10.422
78422CL-    CL-46763  27.061   3.350  13.353
78423CL-    CL-46764  14.750  32.100  11.997
78424CL-    CL-46765  14.780  35.456  12.547
78425CL-    CL-46766  18.639  27.469   3.383
78426CL-    CL-46767   5.741  19.065   3.165
78427CL-    CL-46768   2.276   4.904  12.067
78428CL-    CL-46769   3.842  18.734   0.799
78429CL-    CL-46770  10.345  20.192   3.295
78430CL-    CL-46771  37.541  27.500   4.719
78431CL-    CL-46772   2.855  23.239  12.026
78432CL-    CL-46773   0.842  19.777  14.510
78433CL-    CL-46774  29.168   6.311  12.365
78434CL-    CL-46775   8.240  14.689   2.735
78435CL-    CL-46776  10.878   9.222   5.164
78436CL-    CL-46777  31.064  26.207   0.354
78437CL-    CL-46778   9.786  16.275   0.757
78438CL-    CL-46779  32.440  38.404   2.784
78439CL-    CL-46780  24.998  14.111  11.562
78440CL-    CL-46781  25.024  21.148  14.917
78441CL-    CL-46782  14.288  44.832   3.230
78442CL-    CL-46783  11.794   7.679  13.796
78443CL-    CL-46784   8.351  35.001   2.771
78444CL-    CL-46785  41.471   2.385  12.906
78445CL-    CL-46786  32.634  27.978   2.392
78446CL-    CL-46787  33.934  15.579  13.807
78447CL-    CL-46788  13.285  37.060  10.887
78448CL-    CL-46789  37.053  19.706   3.215
78449CL-    CL-46790  36.368  24.634   0.453
78450CL-    CL-46791  43.271  11.629  10.582
78451CL-    CL-46792  16.106  13.724   4.321
78452CL-    CL-46793   8.670  44.944  10.616
78453CL-    CL-46794  33.409   4.907   0.276
78454CL-    CL-46795   6.265  11.360  11.971
78455CL-    CL-46796  35.576  26.654  11.871
78456CL-    CL-46797  21.062   3.360  10.046
78457CL-    CL-46798   9.302  16.237  14.928
78458CL-    CL-46799  10.870  19.181   3.246
78459CL-    CL-46800   3.921  43.475   4.210
78460CL-    CL-46801   6.201  10.725  14.785
78461CL-    CL-46802  18.594  41.919   3.289
78462CL-    CL-46803   1.919   1.261  12.432
78463CL-    CL-46804  38.917  24.601   1.914
78464CL-    CL-46805  26.043  17.568   0.366
78465CL-    CL-46806  14.796  26.044   1.328
78466CL-    CL-46807   4.776  33.064   2.702
78467CL-    CL-46808  12.696  18.579  13.018
78468CL-    CL-46809  21.720  23.673   0.369
78469CL-    CL-46810  17.067   0.858  12.074
78470CL-    CL-46811  44.941   6.791  12.943
78471CL-    CL-46812  10.659  25.203   0.267
78472CL-    CL-46813   4.813  11.186   1.836
78473CL-    CL-46814  24.586  10.330   4.735
78474CL-    CL-46815  33.423  16.580   0.252
78475CL-    CL-46816  34.394  36.072  11.107
78476CL-    CL-46817  35.921  38.417  11.874
78477CL-    CL-46818   5.412  26.507   2.390
78478CL-    CL-46819  12.128  10.794   0.255
78479CL-    CL-46820  29.030  31.145  14.830
78480CL-    CL-46821  18.607  13.133  11.103
78481CL-    CL-46822  21.117   9.271  11.089
78482CL-    CL-46823  23.153  11.672   1.840
78483CL-    CL-46824   2.921  40.939  14.951
78484CL-    CL-46825  20.612  12.323   1.281
78485CL-    CL-46826  37.429  22.044   0.358
78486CL-    CL-46827  42.430   3.347   4.191
78487CL-    CL-46828   8.392  37.040   1.445
78488CL-    CL-46829  36.047  17.667  11.584
78489CL-    CL-46830  32.986  22.747  11.064
78490CL-    CL-46831  22.138  21.543   4.345
78491CL-    CL-46832  25.684  15.760  10.002
78492CL-    CL-46833  28.158   4.857   2.799
78493CL-    CL-46834  28.479  31.997   1.726
78494CL-    CL-46835  32.464   3.935   4.150
78495CL-    CL-46836  34.003  14.811  11.068
78496CL-    CL-46837  13.762  19.639  13.517
78497CL-    CL-46838  29.576  23.081  10.508
78498CL-    CL-46839  20.646  38.843  12.402
78499CL-    CL-46840  35.492   3.303   4.270
78500CL-    CL-46841  36.946  40.421   0.879
78501CL-    CL-46842   0.907  24.492   4.647
78502CL-    CL-46843  16.599  17.178  11.450
78503CL-    CL-46844   7.351  15.217  13.502
78504CL-    CL-46845  34.950  32.392   3.321
78505CL-    CL-46846  24.072  10.800  14.328
78506CL-    CL-46847  43.831  43.401  10.956
78507CL-    CL-46848  35.359   4.910  11.865
78508CL-    CL-46849   7.266   2.284   1.336
78509CL-    CL-46850  43.874  31.038  10.624
78510CL-    CL-46851  37.000  31.907  12.470
78511CL-    CL-46852  15.314   3.718   2.410
78512CL-    CL-46853   6.322  40.451  11.522
78513CL-    CL-46854  30.998  21.225   5.281
78514CL-    CL-46855  17.227  42.875   4.741
78515CL-    CL-46856  26.172   0.330  11.460
78516CL-    CL-46857   4.929  11.716  10.643
78517CL-    CL-46858  41.291  30.928  12.995
78518CL-    CL-46859  34.971  10.145   4.764
78519CL-    CL-46860   5.192  16.664   1.803
78520CL-    CL-46861  13.137  34.573   2.348
78521CL-    CL-46862  26.079  30.656  12.039
78522CL-    CL-46863  22.696  28.633  10.929
78523CL-    CL-46864  11.214  43.299   4.279
78524CL-    CL-46865  15.648   3.870   0.910
78525CL-    CL-46866   8.357  22.995  14.851
78526CL-    CL-46867  30.095  30.462  11.959
78527CL-    CL-46868  40.805   0.880   1.745
78528CL-    CL-46869  12.201   4.826   2.847
78529CL-    CL-46870  18.128   7.348  11.424
78530CL-    CL-46871  44.411   2.807   4.660
78531CL-    CL-46872  17.632  44.354   1.425
78532CL-    CL-46873   7.887   2.775   0.349
78533CL-    CL-46874  43.017  28.453  11.430
78534CL-    CL-46875  33.918   8.363   1.375
78535CL-    CL-46876  30.654  39.402  14.830
78536CL-    CL-46877  15.768  22.192   4.295
78537CL-    CL-46878   9.249  26.063   2.209
78538CL-    CL-46879  38.019  14.222  11.393
78539CL-    CL-46880  37.846  44.317   3.688
78540CL-    CL-46881  27.005  33.949  13.910
78541CL-    CL-46882  30.600  38.871   2.276
78542CL-    CL-46883  44.320  40.009  11.449
78543CL-    CL-46884   9.174  34.979  10.504
78544CL-    CL-46885  33.956  16.572   0.849
78545CL-    CL-46886  25.638  15.586   2.240
78546CL-    CL-46887  26.981  30.965   2.204
78547CL-    CL-46888  14.750  30.632   1.856
78548CL-    CL-46889   6.829  25.679  12.042
78549CL-    CL-46890  13.615  35.515  14.375
78550CL-    CL-46891  37.409  37.069  14.795
78551CL-    CL-46892  40.446  10.245   0.431
78552CL-    CL-46893  17.098   2.398   4.205
78553CL-    CL-46894   2.443  12.334  14.847
78554CL-    CL-46895  44.310   7.360  13.987
78555CL-    CL-46896  13.704  10.345  11.088
78556CL-    CL-46897  30.421   5.371   3.726
78557CL-    CL-46898  37.907  18.658   1.879
78558CL-    CL-46899  23.581  17.107   0.461
78559CL-    CL-46900  41.450  10.153   2.738
78560CL-    CL-46901  15.809  28.081  14.952
78561CL-    CL-46902   9.238  24.997  12.534
78562CL-    CL-46903   7.837  31.001   3.171
78563CL-    CL-46904  27.012  25.150  12.884
78564CL-    CL-46905  29.995  32.482  11.529
78565CL-    CL-46906  20.637  17.242  14.986
78566CL-    CL-46907   8.316  20.686   4.234
78567CL-    CL-46908  33.515  15.797  14.299
78568CL-    CL-46909  38.379  38.843  12.519
78569CL-    CL-46910   6.403  30.155   0.276
78570CL-    CL-46911  38.838  32.948  14.448
78571CL-    CL-46912  22.589  29.489   1.288
78572CL-    CL-46913  10.870  11.138  13.454
78573CL-    CL-46914  27.557  27.595   2.740
78574CL-    CL-46915  31.026  27.077  14.468
78575CL-    CL-46916  29.484  40.304   0.291
78576CL-    CL-46917  30.011  11.269   3.643
78577CL-    CL-46918  41.869  32.460  10.987
78578CL-    CL-46919  12.636  30.653   0.289
78579CL-    CL-46920  11.802  11.259  10.508
78580CL-    CL-46921  34.866  20.531   2.218
78581CL-    CL-46922  35.955  40.471   1.327
78582CL-    CL-46923  34.005   7.851   4.230
78583CL-    CL-46924  39.857  27.135   4.126
78584CL-    CL-46925  43.921  11.291  10.495
78585CL-    CL-46926  35.007  28.495   3.316
78586CL-    CL-46927  12.613  41.465   0.898
78587CL-    CL-46928  32.503  27.146  14.338
78588CL-    CL-46929  37.053   7.350   4.187
78589CL-    CL-46930  14.174  20.236  13.329
78590CL-    CL-46931  37.540  21.206   4.670
78591CL-    CL-46932  14.808  34.974   3.847
78592CL-    CL-46933  26.466  18.241   3.671
78593CL-    CL-46934  20.726  13.224  13.394
78594CL-    CL-46935  21.256   2.827  12.042
78595CL-    CL-46936   8.372   2.468   2.862
78596CL-    CL-46937  14.220  12.168   4.297
78597CL-    CL-46938  10.875  13.329  10.090
78598CL-    CL-46939  38.010  43.450   1.857
78599CL-    CL-46940  29.666  26.479   0.436
78600CL-    CL-46941  32.019  14.214  11.434
78601CL-    CL-46942   7.820  13.234  13.333
78602CL-    CL-46943   2.247  17.609  14.370
78603CL-    CL-46944   2.885  20.167   0.258
78604CL-    CL-46945  43.896  20.622   9.651
78605CL-    CL-46946  14.688  25.623  10.524
78606CL-    CL-46947  10.776  37.468  13.400
78607CL-    CL-46948  17.779  26.585   2.265
78608CL-    CL-46949  12.707  42.972   4.803
78609CL-    CL-46950  16.668  29.433  14.460
78610CL-    CL-46951  32.397   0.815  12.043
78611CL-    CL-46952   2.720   4.346   3.273
78612CL-    CL-46953  17.210  40.053  10.641
78613CL-    CL-46954  31.417   2.805  12.541
78614CL-    CL-46955  41.819  13.142  10.945
78615CL-    CL-46956  14.330  20.034  10.935
78616CL-    CL-46957   8.746  28.131  13.544
78617CL-    CL-46958  24.516   3.354  10.963
78618CL-    CL-46959  36.526  42.523  14.398
78619CL-    CL-46960  38.427  26.531  14.947
78620CL-    CL-46961  31.004  17.179   4.638
78621CL-    CL-46962  11.298  16.626   1.416
78622CL-    CL-46963  39.838  18.604   1.919
78623CL-    CL-46964  32.961  28.653  12.032
78624CL-    CL-46965  32.434  40.001   2.889
78625CL-    CL-46966  10.825  24.008   3.305
78626CL-    CL-46967  23.103  14.677   4.187
78627CL-    CL-46968  40.471  20.048   1.346
78628CL-    CL-46969  40.437  39.838   9.927
78629CL-    CL-46970  14.706  44.289   4.179
78630CL-    CL-46971   4.757  37.856   1.337
78631CL-    CL-46972  12.619  18.082   2.792
78632CL-    CL-46973  40.501  15.744   2.214
78633CL-    CL-46974  33.482   8.168   3.869
78634CL-    CL-46975  40.506  18.101   1.281
78635CL-    CL-46976   8.682  20.236   4.792
78636CL-    CL-46977  32.463  10.166   4.237
78637CL-    CL-46978  44.957   2.363   3.354
78638CL-    CL-46979  25.527  14.802   0.875
78639CL-    CL-46980  29.020  19.568  13.323
78640CL-    CL-46981  38.068  22.656   3.772
78641CL-    CL-46982  11.301   8.373  12.390
78642CL-    CL-46983  34.419  20.159   3.358
78643CL-    CL-46984  36.354  27.037   2.828
78644CL-    CL-46985  13.134   8.392   4.273
78645CL-    CL-46986   5.285  20.150   0.839
78646CL-    CL-46987  44.825   3.287  14.434
78647CL-    CL-46988  36.884  18.220   2.224
78648CL-    CL-46989   3.771  26.038   2.734
78649CL-    CL-46990  15.687  22.655   4.245
78650CL-    CL-46991   7.214  44.008  14.801
78651CL-    CL-46992  22.616  16.206  12.483
78652CL-    CL-46993  22.246  33.593   2.801
78653CL-    CL-46994   3.239  42.921  13.536
78654CL-    CL-46995  42.410  33.959  13.426
78655CL-    CL-46996   6.312  20.178   4.258
78656CL-    CL-46997  18.661   1.904   5.248
78657CL-    CL-46998  38.854  10.708   1.250
78658CL-    CL-46999  10.190  12.208   3.379
78659CL-    CL-47000   5.291  29.067   4.151
78660CL-    CL-47001  21.692  28.655  13.432
78661CL-    CL-47002  22.511  14.664  13.800
78662CL-    CL-47003  16.763  27.947  12.918
78663CL-    CL-47004   2.905  10.188   3.280
78664CL-    CL-47005   3.710  44.340  10.149
78665CL-    CL-47006  11.155  29.144   2.354
78666CL-    CL-47007   7.811  30.570  11.523
78667CL-    CL-47008  20.242  26.514  14.374
78668CL-    CL-47009  25.085  29.028  10.091
78669CL-    CL-47010  36.442   0.326   4.182
78670CL-    CL-47011  21.097  43.485   1.889
78671CL-    CL-47012  42.824  36.582   0.308
78672CL-    CL-47013  36.491  16.243  11.089
78673CL-    CL-47014  18.698   3.934   1.698
78674CL-    CL-47015  40.006  20.603  13.817
78675CL-    CL-47016  13.669  21.710  13.016
78676CL-    CL-47017  11.264  37.432  10.639
78677CL-    CL-47018  44.981  19.587  10.904
78678CL-    CL-47019   0.448  15.813   3.209
78679CL-    CL-47020  29.953   5.413  12.857
78680CL-    CL-47021  26.497  23.582  11.391
78681CL-    CL-47022   2.727  44.870   0.316
78682CL-    CL-47023  11.754  34.914   1.872
78683CL-    CL-47024  26.068  37.858   1.411
78684CL-    CL-47025   8.819  26.952   2.258
78685CL-    CL-47026  44.449  43.445  13.044
78686CL-    CL-47027  38.975  24.173  13.347
78687CL-    CL-47028  17.272  37.900  14.800
78688CL-    CL-47029  37.445  26.077  12.898
78689CL-    CL-47030   4.737  20.132  13.814
78690CL-    CL-47031  37.414  14.794  12.366
78691CL-    CL-47032   1.890  22.114   1.726
78692CL-    CL-47033  28.627  25.130  12.412
78693CL-    CL-47034  33.412   5.413  11.536
78694CL-    CL-47035   6.410  21.036  10.895
78695CL-    CL-47036   2.962  20.107   3.378
78696CL-    CL-47037  18.251  22.132  13.382
78697CL-    CL-47038  32.490  18.746  13.989
78698CL-    CL-47039  26.586  21.050   0.465
78699CL-    CL-47040   5.368  35.883  11.881
78700CL-    CL-47041  18.657  39.417   3.381
78701CL-    CL-47042   3.363  10.383  11.946
78702CL-    CL-47043   2.282  19.677  11.127
78703CL-    CL-47044  37.938  19.111   1.823
78704CL-    CL-47045  34.508  20.232  13.043
78705CL-    CL-47046  13.122  11.818  12.855
78706CL-    CL-47047  25.496   4.408   0.324
78707CL-    CL-47048   8.753  41.476  12.899
78708CL-    CL-47049  29.533  19.536  11.446
78709CL-    CL-47050  27.655  34.032  11.023
78710CL-    CL-47051  26.456  29.082  11.588
78711CL-    CL-47052  22.556  27.072   1.916
78712CL-    CL-47053  22.638  29.002   4.752
78713CL-    CL-47054   1.375   3.286  14.320
78714CL-    CL-47055  29.085  18.234   1.316
78715CL-    CL-47056  42.932   1.292  11.387
78716CL-    CL-47057  36.944  41.941  13.831
78717CL-    CL-47058  36.977  26.992   2.226
78718CL-    CL-47059   1.951  14.235  11.549
78719CL-    CL-47060  24.049  28.539  11.048
78720CL-    CL-47061   8.797  32.458  12.960
78721CL-    CL-47062  33.078  11.775   3.367
78722CL-    CL-47063  40.849  41.411   5.108
78723CL-    CL-47064   7.237  40.504  11.073
78724CL-    CL-47065  28.178  30.969   2.765
78725CL-    CL-47066   1.265  23.582   2.745
78726CL-    CL-47067  36.848  25.089  13.466
78727CL-    CL-47068  12.134  15.688  14.934
78728CL-    CL-47069  30.926  33.899  14.775
78729CL-    CL-47070  23.706   1.928  10.598
78730CL-    CL-47071  42.883   2.932  12.041
78731CL-    CL-47072   6.733  29.147   2.311
78732CL-    CL-47073  22.181  14.121  13.336
78733CL-    CL-47074  36.400  43.022  11.429
78734CL-    CL-47075  33.472  34.873  11.063
78735CL-    CL-47076   8.332  27.155  10.596
78736CL-    CL-47077   0.758  27.577  11.113
78737CL-    CL-47078   3.869  12.306  11.071
78738CL-    CL-47079  35.445   4.419   2.694
78739CL-    CL-47080   3.241  43.337  13.912
78740CL-    CL-47081   7.403  30.071   3.345
78741CL-    CL-47082  43.396  44.808   1.872
78742CL-    CL-47083  39.532   0.744  12.831
78743CL-    CL-47084  40.901  30.116  12.982
78744CL-    CL-47085   6.811  38.032   0.305
78745CL-    CL-47086   4.295  29.068   2.677
78746CL-    CL-47087  17.760  10.145   3.254
78747CL-    CL-47088  20.669  25.183   0.289
78748CL-    CL-47089  14.820   9.808   4.201
78749CL-    CL-47090  21.548  36.926  10.999
78750CL-    CL-47091  10.261  44.488   0.920
78751CL-    CL-47092  41.445  35.951  12.961
78752CL-    CL-47093  10.152  24.518   0.347
78753CL-    CL-47094  24.184  19.715  10.461
78754CL-    CL-47095  24.197  26.592  13.548
78755CL-    CL-47096  14.773  10.172  10.482
78756CL-    CL-47097  38.980  38.551   0.927
78757CL-    CL-47098  36.860   0.324  10.468
78758CL-    CL-47099  13.325  38.872   0.282
78759CL-    CL-47100  44.483  12.680  12.536
78760CL-    CL-47101   0.846  28.093   2.364
78761CL-    CL-47102  16.088  40.881   3.853
78762CL-    CL-47103  44.759  26.583  13.813
78763CL-    CL-47104  30.040   1.930  14.809
78764CL-    CL-47105  43.360   7.292   0.372
78765CL-    CL-47106  29.923  19.280  10.888
78766CL-    CL-47107  37.538  14.792   0.425
78767CL-    CL-47108   9.281  13.193  13.351
78768CL-    CL-47109  12.217   4.714   4.211
78769CL-    CL-47110  38.361  24.666   1.327
78770CL-    CL-47111  33.512  33.886  14.443
78771CL-    CL-47112  31.485  12.771   4.716
78772CL-    CL-47113   4.226  23.499   2.265
78773CL-    CL-47114  41.943  10.761   0.354
78774CL-    CL-47115  10.240  13.820  11.020
78775CL-    CL-47116  17.161  41.439  12.992
78776CL-    CL-47117  37.954  28.458   4.324
78777CL-    CL-47118   3.323  20.091  12.087
78778CL-    CL-47119  11.747   6.384   4.285
78779CL-    CL-47120  23.146  40.395   2.879
78780CL-    CL-47121  33.521  17.280   5.109
78781CL-    CL-47122  40.851  25.100   3.337
78782CL-    CL-47123  29.439  23.616   0.348
78783CL-    CL-47124  28.676  36.405   1.326
78784CL-    CL-47125   7.179  44.319  13.896
78785CL-    CL-47126  20.554  16.086  10.461
78786CL-    CL-47127  36.064  21.099   4.182
78787CL-    CL-47128  37.358  24.080  10.498
78788CL-    CL-47129  23.597  40.051   4.824
78789CL-    CL-47130  15.215  14.830   1.258
78790CL-    CL-47131  42.963  13.229  12.831
78791CL-    CL-47132  10.319  36.023   3.857
78792CL-    CL-47133  18.642  25.713  14.438
78793CL-    CL-47134   8.693  24.161  14.394
78794CL-    CL-47135  40.450   6.356   3.216
78795CL-    CL-47136  13.822  14.123   0.323
78796CL-    CL-47137  10.138  28.492  13.019
78797CL-    CL-47138  40.516  19.228  10.439
78798CL-    CL-47139  13.690   3.840  12.463
78799CL-    CL-47140  13.327  12.169  14.781
78800CL-    CL-47141  42.968  24.522   0.243
78801CL-    CL-47142  33.116  30.011   1.220
78802CL-    CL-47143  18.254  31.502   0.270
78803CL-    CL-47144   5.321   7.881   2.843
78804CL-    CL-47145  40.994  24.183   0.332
78805CL-    CL-47146  21.257  19.039  13.426
78806CL-    CL-47147  19.629  22.730   2.186
78807CL-    CL-47148  37.020   9.880   3.240
78808CL-    CL-47149  43.441  24.146  10.892
78809CL-    CL-47150  41.507  41.880  14.950
78810CL-    CL-47151  39.994   0.828   2.702
78811CL-    CL-47152  16.299  26.618   4.650
78812CL-    CL-47153   6.418  36.028   4.279
78813CL-    CL-47154  18.066  43.948   1.215
78814CL-    CL-47155  12.278  29.451  14.493
78815CL-    CL-47156   0.369   8.363   4.310
78816CL-    CL-47157  28.583  29.525   0.937
78817CL-    CL-47158   7.728  28.091  11.121
78818CL-    CL-47159   1.353  26.696  11.605
78819CL-    CL-47160   6.810   5.236  11.391
78820CL-    CL-47161  20.559  16.139   3.786
78821CL-    CL-47162  39.046  10.696  12.448
78822CL-    CL-47163  16.127  11.255   1.385
78823CL-    CL-47164  43.350  22.741  11.974
78824CL-    CL-47165  36.393  18.711   1.697
78825CL-    CL-47166  29.556  15.788   4.201
78826CL-    CL-47167  31.959   1.814   9.974
78827CL-    CL-47168  35.562  33.975   1.900
78828CL-    CL-47169   4.323   2.871   1.832
78829CL-    CL-47170  37.030  31.064   2.759
78830CL-    CL-47171  40.860  18.249  14.508
78831CL-    CL-47172  16.787   7.741  14.439
78832CL-    CL-47173  23.175   8.823   3.220
78833CL-    CL-47174  18.561   8.786   2.400
78834CL-    CL-47175  42.426  38.509  11.048
78835CL-    CL-47176  28.626  34.011   3.384
78836CL-    CL-47177  13.827  17.141  11.428
78837CL-    CL-47178  11.659  44.394  14.022
78838CL-    CL-47179  21.152  12.218   2.344
78839CL-    CL-47180   2.452  39.932  13.380
78840CL-    CL-47181  23.606  21.640  14.778
78841CL-    CL-47182   2.754  32.591  14.775
78842CL-    CL-47183   1.737  37.416   3.851
78843CL-    CL-47184  12.325   4.206   4.288
78844CL-    CL-47185  42.458   6.209   4.314
78845CL-    CL-47186  10.752  44.271   9.930
78846CL-    CL-47187  40.322  10.171   0.934
78847CL-    CL-47188  20.052  29.033  11.932
78848CL-    CL-47189   1.352  31.025   1.879
78849CL-    CL-47190  31.482   8.852   2.777
78850CL-    CL-47191  21.753  18.692   3.666
78851CL-    CL-47192   4.908   6.258   3.184
78852CL-    CL-47193   1.342   6.268   2.225
78853CL-    CL-47194   8.831  43.860   2.809
78854CL-    CL-47195   4.419  11.853   3.845
78855CL-    CL-47196   6.308   3.336   1.373
78856CL-    CL-47197  41.930   9.280   0.776
78857CL-    CL-47198  43.955  44.879  13.336
78858CL-    CL-47199  29.448  32.401   2.249
78859CL-    CL-47200   6.725  34.413   4.221
78860CL-    CL-47201  27.537  25.204   2.902
78861CL-    CL-47202   7.851   9.844  12.473
78862CL-    CL-47203  23.676  10.802   0.872
78863CL-    CL-47204  20.537   5.795  11.921
78864CL-    CL-47205  15.809   2.823   3.773
78865CL-    CL-47206   3.295  27.985   3.178
78866CL-    CL-47207  43.837  32.016   2.841
78867CL-    CL-47208  39.050  21.077   1.327
78868CL-    CL-47209  19.273   8.819  11.978
78869CL-    CL-47210  23.234  10.263  13.385
78870CL-    CL-47211  22.061  30.953  13.899
78871CL-    CL-47212  18.673  35.087  14.902
78872CL-    CL-47213   0.956  23.229   4.696
78873CL-    CL-47214  15.105  44.504   2.794
78874CL-    CL-47215  10.762  13.105   4.673
78875CL-    CL-47216  20.261  29.063   3.244
78876CL-    CL-47217  27.689  38.420   3.239
78877CL-    CL-47218   1.269  10.754  14.502
78878CL-    CL-47219  41.402  20.626  11.079
78879CL-    CL-47220  25.155  43.768  11.576
78880CL-    CL-47221  28.651  29.482  11.449
78881CL-    CL-47222  18.679  24.634  14.770
78882CL-    CL-47223  44.358   8.815   0.280
78883CL-    CL-47224  29.551  20.048  11.490
78884CL-    CL-47225  23.016  31.100  14.768
78885CL-    CL-47226  31.527  15.246  14.926
78886CL-    CL-47227  28.558   2.901   1.797
78887CL-    CL-47228   8.851  15.310   2.800
78888CL-    CL-47229  41.941  20.139  11.049
78889CL-    CL-47230  20.736  29.167   0.891
78890CL-    CL-47231  12.295  44.430   1.318
78891CL-    CL-47232   8.273  39.907   3.159
78892CL-    CL-47233  39.914  29.003  10.486
78893CL-    CL-47234  44.411  15.282   3.173
78894CL-    CL-47235  36.523  19.647   1.262
78895CL-    CL-47236  13.295  11.350   0.741
78896CL-    CL-47237  25.581  26.160   5.318
78897CL-    CL-47238  22.192  31.901   1.375
78898CL-    CL-47239  28.020   5.276   1.885
78899CL-    CL-47240   4.758  16.728   2.215
78900CL-    CL-47241   8.309  15.702   0.875
78901CL-    CL-47242  12.692  13.781   0.453
78902CL-    CL-47243  11.192  20.633  13.544
78903CL-    CL-47244   6.220  39.385  10.506
78904CL-    CL-47245  40.039  42.949  10.994
78905CL-    CL-47246   8.746  34.866   1.258
78906CL-    CL-47247  15.729   2.788  13.403
78907CL-    CL-47248  37.512  37.835  13.313
78908CL-    CL-47249  36.566  28.473  14.391
78909CL-    CL-47250  11.136   5.784   2.195
78910CL-    CL-47251   0.304  25.120   1.750
78911CL-    CL-47252  25.524  16.580  10.127
78912CL-    CL-47253  24.514  20.712  10.955
78913CL-    CL-47254  40.347   2.840  14.027
78914CL-    CL-47255  24.097  18.164  11.545
78915CL-    CL-47256  29.538  12.789   4.263
78916CL-    CL-47257   3.919  40.459   4.600
78917CL-    CL-47258  35.931  37.012  14.015
78918CL-    CL-47259  16.674  32.141   0.831
78919CL-    CL-47260   4.756  21.740   0.795
78920CL-    CL-47261   0.962  44.362  13.328
78921CL-    CL-47262  23.240   3.292   0.446
78922CL-    CL-47263  21.186   0.275  11.985
78923CL-    CL-47264  41.920  20.257  13.831
78924CL-    CL-47265   2.382  16.676  14.853
78925CL-    CL-47266  42.331  37.924  13.054
78926CL-    CL-47267  22.572  37.842   1.891
78927CL-    CL-47268  32.093  13.348   5.118
78928CL-    CL-47269  15.124  34.943  14.371
78929CL-    CL-47270   0.323  33.446  11.102
78930CL-    CL-47271  27.475   6.231  12.569
78931CL-    CL-47272  27.133   6.686   0.827
78932CL-    CL-47273  37.560  19.145  14.402
78933CL-    CL-47274  31.090  28.530   4.633
78934CL-    CL-47275  42.424  37.058   1.847
78935CL-    CL-47276  17.582  36.033   2.205
78936CL-    CL-47277  26.192  34.383   0.416
78937CL-    CL-47278  42.414  26.640  11.109
78938CL-    CL-47279  21.261  38.897  13.442
78939CL-    CL-47280  21.694   2.261   3.801
78940CL-    CL-47281  37.052  28.969   3.699
78941CL-    CL-47282  24.636   5.710  13.483
78942CL-    CL-47283  26.139   5.404   4.690
78943CL-    CL-47284   2.382  34.562   1.902
78944CL-    CL-47285   1.940   1.785  14.956
78945CL-    CL-47286  30.492  33.101   2.844
78946CL-    CL-47287  29.154   9.312  12.442
78947CL-    CL-47288  10.186   9.864   2.859
78948CL-    CL-47289   9.752   9.328  11.603
78949CL-    CL-47290  19.734  30.565  13.511
78950CL-    CL-47291  29.614  39.321  13.438
78951CL-    CL-47292  15.676  24.032   0.845
78952CL-    CL-47293   3.754  39.316  14.856
78953CL-    CL-47294  18.567  19.098  14.432
78954CL-    CL-47295   3.245  43.924  10.632
78955CL-    CL-47296  18.103  22.070  11.974
78956CL-    CL-47297   9.830  12.735  14.450
78957CL-    CL-47298   9.870  30.139   2.287
78958CL-    CL-47299  22.519   1.434   4.745
78959CL-    CL-47300  10.281  21.128   9.935
78960CL-    CL-47301  22.125  37.547  11.507
78961CL-    CL-47302  32.393   7.176  11.515
78962CL-    CL-47303  29.098  26.190   1.718
78963CL-    CL-47304   0.474   6.291   0.293
78964CL-    CL-47305  22.596  28.094  13.325
78965CL-    CL-47306  41.006  26.080   1.386
78966CL-    CL-47307  42.795  44.938  11.958
78967CL-    CL-47308  37.046  10.793  12.027
78968CL-    CL-47309  12.348  20.552   2.284
78969CL-    CL-47310  25.109  16.191  12.883
78970CL-    CL-47311   3.837  27.630   0.449
78971CL-    CL-47312  39.366  39.843   2.180
78972CL-    CL-47313   1.469  19.132   9.932
78973CL-    CL-47314  21.209  24.067   1.217
78974CL-    CL-47315  17.117  19.638  13.018
78975CL-    CL-47316  18.710  36.403   3.743
78976CL-    CL-47317   1.379  21.260   2.765
78977CL-    CL-47318  39.462  13.271   4.185
78978CL-    CL-47319  12.613  12.764   2.360
78979CL-    CL-47320  23.669   6.769  12.499
78980CL-    CL-47321  12.856   5.324   3.302
78981CL-    CL-47322  34.905  25.175  10.990
78982CL-    CL-47323  28.622  32.618   2.791
78983CL-    CL-47324   3.810   5.690  12.895
78984CL-    CL-47325  35.425  37.876  12.876
78985CL-    CL-47326  30.986   4.940  14.303
78986CL-    CL-47327  33.613  11.267   2.683
78987CL-    CL-47328   9.766  25.123   1.791
78988CL-    CL-47329  44.815   7.264   2.667
78989CL-    CL-47330  23.632  41.977  12.838
78990CL-    CL-47331  33.934  30.950  11.965
78991CL-    CL-47332  37.389  29.430   3.801
78992CL-    CL-47333  24.659  30.516   2.362
78993CL-    CL-47334  30.554  30.081  13.546
78994CL-    CL-47335   0.248  37.067   0.253
78995CL-    CL-47336  26.629  23.661   1.827
78996CL-    CL-47337   7.411  38.044  12.371
78997CL-    CL-47338   2.748  28.459   1.888
78998CL-    CL-47339  11.816  43.489  14.875
78999CL-    CL-47340  27.965  15.614  14.991
79000CL-    CL-47341   1.876   7.235   3.288
79001CL-    CL-47342  19.664  11.362   1.323
79002CL-    CL-47343  26.092   5.757   4.669
79003CL-    CL-47344  29.078  15.231  12.503
79004CL-    CL-47345  31.117  37.509  14.827
79005CL-    CL-47346  19.278   8.236  10.434
79006CL-    CL-47347  44.844  18.681  13.497
79007CL-    CL-47348  24.696   7.710   2.808
79008CL-    CL-47349  28.973  21.632   1.908
79009CL-    CL-47350   6.758  27.187  13.004
79010CL-    CL-47351  36.851  24.064   1.356
79011CL-    CL-47352  33.589  33.533   4.136
79012CL-    CL-47353  19.241   2.878   3.182
79013CL-    CL-47354   8.761  11.791  12.050
79014CL-    CL-47355  15.097  32.560   3.224
79015CL-    CL-47356  43.270   4.925  14.016
79016CL-    CL-47357  36.964  13.308   3.162
79017CL-    CL-47358   6.333  14.308   5.157
79018CL-    CL-47359  25.011   3.284   4.336
79019CL-    CL-47360   7.383  12.246   4.353
79020CL-    CL-47361  37.844   0.289  14.901
79021CL-    CL-47362   9.837   3.458   5.184
79022CL-    CL-47363  10.799   3.308  11.033
79023CL-    CL-47364  32.477  38.823   1.761
79024CL-    CL-47365  42.897  15.809   1.314
79025CL-    CL-47366  25.598  40.327   1.423
79026CL-    CL-47367  40.870  26.670  12.907
79027CL-    CL-47368   1.890  30.944  13.432
79028CL-    CL-47369  12.651  23.182   1.450
79029CL-    CL-47370  24.608  16.711   0.438
79030CL-    CL-47371   7.753  12.275  11.109
79031CL-    CL-47372  19.101  29.493  13.051
79032CL-    CL-47373  15.203   0.422  10.981
79033CL-    CL-47374  19.565  43.924  12.425
79034CL-    CL-47375   9.242  29.093   3.835
79035CL-    CL-47376  36.534  41.385   0.773
79036CL-    CL-47377  43.933  13.236   2.808
79037CL-    CL-47378   4.840  18.222   0.873
79038CL-    CL-47379  29.038   1.370  14.885
79039CL-    CL-47380  24.528  23.077   2.296
79040CL-    CL-47381  21.669  33.008   4.646
79041CL-    CL-47382  44.926   7.262  12.050
79042CL-    CL-47383  12.177   2.911   4.123
79043CL-    CL-47384  15.698   9.872  12.977
79044CL-    CL-47385  34.045  13.345   4.196
79045CL-    CL-47386  44.355  39.949   2.821
79046CL-    CL-47387  33.533  20.268  12.823
79047CL-    CL-47388  15.271  18.695  12.509
79048CL-    CL-47389   9.711   8.873   0.425
79049CL-    CL-47390   9.703  36.575  12.902
79050CL-    CL-47391   8.881  13.835  11.002
79051CL-    CL-47392  15.232  31.520   5.719
79052CL-    CL-47393  20.171  31.518  12.361
79053CL-    CL-47394  24.576   6.407   2.701
79054CL-    CL-47395   2.372  22.729  13.880
79055CL-    CL-47396  25.173  15.702   0.269
79056CL-    CL-47397   1.815  13.694  13.373
79057CL-    CL-47398  18.586  34.960   3.780
79058CL-    CL-47399   6.314  19.733   0.783
79059CL-    CL-47400  39.334  43.974   3.637
79060CL-    CL-47401  21.675  13.257  13.791
79061CL-    CL-47402  41.325  28.113   3.204
79062CL-    CL-47403  33.414  43.394  14.356
79063CL-    CL-47404  35.452  12.639  14.346
79064CL-    CL-47405  37.435  16.642   2.863
79065CL-    CL-47406  43.462  25.211   2.802
79066CL-    CL-47407   8.229  11.145  10.896
79067CL-    CL-47408  26.994  29.588  13.419
79068CL-    CL-47409   9.183   0.914   0.402
79069CL-    CL-47410  13.211   7.839   3.665
79070CL-    CL-47411  38.521  37.001   2.414
79071CL-    CL-47412   7.867   8.707   0.966
79072CL-    CL-47413  21.173  41.493   0.396
79073CL-    CL-47414  23.716  17.757   1.378
79074CL-    CL-47415  35.544  38.036   2.809
79075CL-    CL-47416   4.805   4.399  14.994
79076CL-    CL-47417  18.164  38.438   3.268
79077CL-    CL-47418  25.668  42.014  14.404
79078CL-    CL-47419  21.064  17.648   0.735
79079CL-    CL-47420  31.944  41.528   0.467
79080CL-    CL-47421  11.725  12.780   9.668
79081CL-    CL-47422  35.007  20.649   1.810
79082CL-    CL-47423  24.132  36.847   3.755
79083CL-    CL-47424  21.718  27.621   0.941
79084CL-    CL-47425  10.806   2.904   4.830
79085CL-    CL-47426  35.489  24.517   1.378
79086CL-    CL-47427  18.083  34.556   3.331
79087CL-    CL-47428  41.974  31.480   3.206
79088CL-    CL-47429   0.859  32.490  13.380
79089CL-    CL-47430  35.943   3.371  11.019
79090CL-    CL-47431  36.555  22.188   2.760
79091CL-    CL-47432   8.327  41.295   4.830
79092CL-    CL-47433  43.826  12.337   4.338
79093CL-    CL-47434  30.459  18.688  14.832
79094CL-    CL-47435  40.873  31.585  14.030
79095CL-    CL-47436  21.630   4.924  14.809
79096CL-    CL-47437   8.790  34.015   4.667
79097CL-    CL-47438  14.313  21.025   0.852
79098CL-    CL-47439  15.710  21.573   3.336
79099CL-    CL-47440  20.571  31.944   3.635
79100CL-    CL-47441   7.235  28.474  11.558
79101CL-    CL-47442  42.343  42.897  10.906
79102CL-    CL-47443  13.734   8.782   4.706
79103CL-    CL-47444  14.236  41.860   3.804
79104CL-    CL-47445  28.542   9.360   4.266
79105CL-    CL-47446  31.638  30.907   1.920
79106CL-    CL-47447   0.909  37.869  11.936
79107CL-    CL-47448  26.957  20.190   1.397
79108CL-    CL-47449  43.500  22.123  12.036
79109CL-    CL-47450  23.736  44.984   2.866
79110CL-    CL-47451  25.532  26.545   5.764
79111CL-    CL-47452   0.872  24.620   0.879
79112CL-    CL-47453  22.632  20.109  13.425
79113CL-    CL-47454  42.827  35.490   4.158
79114CL-    CL-47455   2.806  30.597   2.208
79115CL-    CL-47456  16.238   6.823   0.834
79116CL-    CL-47457   4.278  12.344  11.946
79117CL-    CL-47458  15.620   2.435  13.994
79118CL-    CL-47459  32.995  25.540  14.360
79119CL-    CL-47460  35.955  22.528  13.427
79120CL-    CL-47461   3.914  42.980  13.375
79121CL-    CL-47462  42.019  23.545  13.022
79122CL-    CL-47463  36.511  32.567   1.847
79123CL-    CL-47464  22.182  43.353   1.353
79124CL-    CL-47465   5.825  27.538  13.064
79125CL-    CL-47466  20.046  21.520   2.868
79126CL-    CL-47467  29.989  11.840   1.918
79127CL-    CL-47468  14.116   2.448   5.172
79128CL-    CL-47469   0.253  13.764  14.817
79129CL-    CL-47470  26.601  29.643  13.465
79130CL-    CL-47471  14.767   1.316   2.374
79131CL-    CL-47472  16.612  11.370   3.216
79132CL-    CL-47473  14.141  44.759   1.718
79133CL-    CL-47474  41.365   0.476   0.905
79134CL-    CL-47475  44.995  20.584  14.939
79135CL-    CL-47476  11.315  15.270  14.763
79136CL-    CL-47477  44.840   4.897  12.479
79137CL-    CL-47478  40.006  43.409   1.406
79138CL-    CL-47479   1.242  29.597   3.265
79139CL-    CL-47480   8.768  40.366  14.319
79140CL-    CL-47481  28.104  21.560  13.816
79141CL-    CL-47482  44.968  32.023   1.809
79142CL-    CL-47483  37.496  39.927  14.841
79143CL-    CL-47484  21.673  25.686  14.807
79144CL-    CL-47485   8.726   8.181   2.215
79145CL-    CL-47486  35.993  29.549   1.798
79146CL-    CL-47487  43.952   2.241   4.609
79147CL-    CL-47488  14.632   0.476   4.739
79148CL-    CL-47489  15.748  12.163  12.866
79149CL-    CL-47490  36.575  32.485  11.483
79150CL-    CL-47491  27.673  27.068   3.358
79151CL-    CL-47492   4.760  28.488   4.250
79152CL-    CL-47493   8.762  40.343  14.007
79153CL-    CL-47494   9.717  30.021  13.472
79154CL-    CL-47495   4.721  10.206   0.418
79155CL-    CL-47496  25.647  14.644   4.155
79156CL-    CL-47497  25.965  35.030   3.782
79157CL-    CL-47498  16.316   1.945   0.289
79158CL-    CL-47499  16.196  44.268   4.836
79159CL-    CL-47500  43.855  30.102   3.188
79160CL-    CL-47501   6.185  18.759  10.599
79161CL-    CL-47502  14.695  42.328  14.429
79162CL-    CL-47503   2.404   1.851   2.773
79163CL-    CL-47504  13.623  25.019   3.318
79164CL-    CL-47505   6.276   6.743   0.919
79165CL-    CL-47506  29.083  15.613   4.315
79166CL-    CL-47507  14.645  39.915  12.448
79167CL-    CL-47508   4.800  30.988  14.463
79168CL-    CL-47509  32.492  12.814   4.168
79169CL-    CL-47510   6.798  16.755  10.940
79170CL-    CL-47511  40.836   8.367   3.671
79171CL-    CL-47512  40.388  22.657  12.919
79172CL-    CL-47513  19.696  20.267  12.075
79173CL-    CL-47514  26.986  20.187   0.959
79174CL-    CL-47515  26.633   0.882   1.823
79175CL-    CL-47516  30.081  17.652   3.863
79176CL-    CL-47517  33.618  36.905  14.307
79177CL-    CL-47518  22.581  12.808  11.384
79178CL-    CL-47519  22.569  24.103   2.261
79179CL-    CL-47520   2.732  44.756   3.220
79180CL-    CL-47521  36.956  22.207   3.183
79181CL-    CL-47522  23.670  41.803  14.321
79182CL-    CL-47523  17.064   5.369   1.245
79183CL-    CL-47524  12.230  42.874  11.407
79184CL-    CL-47525  32.396   6.284   3.321
79185CL-    CL-47526  29.947  29.062   2.273
79186CL-    CL-47527   9.173  41.014   3.732
79187CL-    CL-47528  38.861  44.979  13.024
79188CL-    CL-47529   7.362  36.088   0.339
79189CL-    CL-47530  28.651  13.759   3.830
79190CL-    CL-47531  21.127  14.335   4.811
79191CL-    CL-47532  34.119   7.233   4.616
79192CL-    CL-47533  42.876  38.414  10.556
79193CL-    CL-47534  20.662  42.992  10.979
79194CL-    CL-47535  19.534  10.187  10.548
79195CL-    CL-47536  42.283  17.201   2.181
79196CL-    CL-47537   8.691  25.969  12.858
79197CL-    CL-47538  30.047  43.371   3.282
79198CL-    CL-47539  13.237  25.564  14.873
79199CL-    CL-47540  25.654  13.179  13.393
79200CL-    CL-47541   4.757  37.370  14.824
79201CL-    CL-47542  40.963   6.695   0.319
79202CL-    CL-47543  35.495  40.426  11.557
79203CL-    CL-47544  36.916  18.762  12.340
79204CL-    CL-47545  30.536  39.535   1.332
79205CL-    CL-47546   4.827   8.668  14.765
79206CL-    CL-47547  36.556  28.979   3.738
79207CL-    CL-47548  22.049  37.041  13.027
79208CL-    CL-47549  26.047  20.182  12.939
79209CL-    CL-47550  36.927  27.155  11.610
79210CL-    CL-47551  13.336  12.123  11.111
79211CL-    CL-47552   1.368  43.984  10.534
79212CL-    CL-47553   1.900  16.689  12.469
79213CL-    CL-47554   6.740   6.771   2.386
79214CL-    CL-47555  37.082   5.368  10.549
79215CL-    CL-47556  40.488  35.898   5.099
79216CL-    CL-47557  13.282  33.129   3.218
79217CL-    CL-47558  42.383  25.634   4.809
79218CL-    CL-47559  40.045   0.755  11.490
79219CL-    CL-47560  13.319  44.907  12.941
79220CL-    CL-47561  35.006  14.655  11.028
79221CL-    CL-47562  41.867  18.162  11.424
79222CL-    CL-47563  34.032  13.158   3.381
79223CL-    CL-47564  24.713  38.355  14.443
79224CL-    CL-47565  17.685   0.256   2.707
79225CL-    CL-47566  16.264   4.325  14.906
79226CL-    CL-47567  13.199  35.082  13.033
79227CL-    CL-47568   5.815  24.515   3.733
79228CL-    CL-47569  36.083  31.461   4.141
79229CL-    CL-47570  30.610  11.205   4.344
79230CL-    CL-47571  36.372  33.018  11.494
79231CL-    CL-47572  28.522  38.888  14.891
79232CL-    CL-47573  39.009  33.058   3.313
79233CL-    CL-47574  40.502  29.174  14.393
79234CL-    CL-47575  37.506   0.442  10.156
79235CL-    CL-47576  43.401  38.413  14.799
79236CL-    CL-47577   6.323  30.427   3.738
79237CL-    CL-47578  21.598  13.784   0.447
79238CL-    CL-47579  15.639  23.554   3.151
79239CL-    CL-47580  15.199   9.295   0.310
79240CL-    CL-47581   3.952  18.131   9.987
79241CL-    CL-47582   6.685   6.800   3.189
79242CL-    CL-47583   4.699  36.468   3.343
79243CL-    CL-47584  24.713  35.369   4.166
79244CL-    CL-47585  38.431  30.017   2.672
79245CL-    CL-47586  23.492  39.899  10.644
79246CL-    CL-47587  43.464   0.782   2.903
79247CL-    CL-47588  24.550  26.167  10.126
79248CL-    CL-47589  41.025  12.818   3.196
79249CL-    CL-47590  23.999  42.983   4.351
79250CL-    CL-47591   1.419  32.506   2.812
79251CL-    CL-47592  15.674  13.288  13.321
79252CL-    CL-47593  32.116  34.023  12.046
79253CL-    CL-47594  24.145  30.907   3.675
79254CL-    CL-47595  30.080   1.471   3.258
79255CL-    CL-47596  40.982   4.821   2.691
79256CL-    CL-47597   5.318  32.062  13.505
79257CL-    CL-47598  38.550   0.360  12.453
79258CL-    CL-47599   5.263   9.347   4.182
79259CL-    CL-47600  40.394   2.266  14.983
79260CL-    CL-47601  10.165   2.868  12.444
79261CL-    CL-47602  42.988  43.401   0.735
79262CL-    CL-47603  28.931  12.719   3.214
79263CL-    CL-47604  42.495  35.882   3.210
79264CL-    CL-47605  19.626  22.697   0.746
79265CL-    CL-47606   9.748  26.553  11.034
79266CL-    CL-47607  24.718  17.142  13.508
79267CL-    CL-47608  24.006  20.597  11.559
79268CL-    CL-47609  11.346  39.026   1.270
79269CL-    CL-47610  21.112  37.525   1.874
79270CL-    CL-47611   5.796  33.096  13.047
79271CL-    CL-47612   1.806  26.684   0.436
79272CL-    CL-47613   1.473  41.517   3.362
79273CL-    CL-47614  24.530  18.698  13.417
79274CL-    CL-47615   4.838  26.504  12.422
79275CL-    CL-47616  37.428  38.491  14.327
79276CL-    CL-47617  10.716  44.791  13.519
79277CL-    CL-47618   6.742   0.467   2.304
79278CL-    CL-47619   3.345  40.312   2.851
79279CL-    CL-47620  33.589  32.112   4.194
79280CL-    CL-47621   4.334  29.567   4.319
79281CL-    CL-47622  10.363  10.792   1.449
79282CL-    CL-47623  28.453  13.774   4.172
79283CL-    CL-47624  22.107  23.610  11.553
79284CL-    CL-47625  28.018   2.313  10.409
79285CL-    CL-47626  19.131  26.191  13.513
79286CL-    CL-47627  16.687  41.830  14.888
79287CL-    CL-47628  25.600  36.590   2.856
79288CL-    CL-47629  14.753  10.701   2.177
79289CL-    CL-47630  32.105  27.681  11.583
79290CL-    CL-47631  32.528  14.235   4.126
79291CL-    CL-47632  21.663  15.145  11.005
79292CL-    CL-47633  31.426  40.941   5.206
79293CL-    CL-47634  43.432  33.534   0.386
79294CL-    CL-47635  20.213  17.224  10.531
79295CL-    CL-47636   1.854  16.282  14.282
79296CL-    CL-47637  37.529  38.480  14.930
79297CL-    CL-47638  43.856  23.111  11.874
79298CL-    CL-47639   1.745   2.958   3.672
79299CL-    CL-47640  16.647  24.502   2.407
79300CL-    CL-47641   3.315  17.082   4.641
79301CL-    CL-47642  14.608  12.702  14.339
79302CL-    CL-47643  14.236  22.056   2.275
79303CL-    CL-47644  24.045   2.833  14.794
79304CL-    CL-47645  41.348  21.545   3.871
79305CL-    CL-47646  44.491  36.918  13.822
79306CL-    CL-47647   7.360   5.790   2.676
79307CL-    CL-47648  22.177   6.293  14.315
79308CL-    CL-47649  14.611   5.374   2.194
79309CL-    CL-47650  37.422   3.931  14.417
79310CL-    CL-47651  35.541  39.810   3.238
79311CL-    CL-47652   3.772   3.432  11.441
79312CL-    CL-47653   6.299  38.860  12.383
79313CL-    CL-47654  33.409   8.770   2.391
79314CL-    CL-47655  12.762   3.217  12.350
79315CL-    CL-47656  23.147   4.805  12.089
79316CL-    CL-47657  25.049  18.748   1.393
79317CL-    CL-47658   5.691  17.264  11.035
79318CL-    CL-47659  44.761  18.658   3.671
79319CL-    CL-47660   4.301   1.379  12.404
79320CL-    CL-47661  17.756  20.570   3.355
79321CL-    CL-47662  32.986   7.783  11.958
79322CL-    CL-47663   3.421   3.219  12.034
79323CL-    CL-47664  22.580  24.147  14.010
79324CL-    CL-47665   7.851   8.827  10.483
79325CL-    CL-47666  14.284  32.918   1.291
79326CL-    CL-47667   5.759  40.498   0.346
79327CL-    CL-47668  20.247  44.972   1.366
79328CL-    CL-47669  38.992  27.686   2.873
79329CL-    CL-47670   9.836  17.198   3.243
79330CL-    CL-47671  27.565  33.407   0.401
79331CL-    CL-47672  44.317  27.960   1.753
79332CL-    CL-47673  39.380  36.378   1.339
79333CL-    CL-47674  40.831  16.623   3.647
79334CL-    CL-47675   0.352  19.072   2.228
79335CL-    CL-47676  40.487  41.336   1.247
79336CL-    CL-47677  24.107  21.033  10.913
79337CL-    CL-47678  17.077  11.665  11.596
79338CL-    CL-47679  40.926  16.677  12.074
79339CL-    CL-47680   4.309  35.974   1.782
79340CL-    CL-47681  23.601   0.341  12.487
79341CL-    CL-47682   6.800   1.871   3.201
79342CL-    CL-47683  21.179  26.148   1.732
79343CL-    CL-47684  14.231  24.058   2.248
79344CL-    CL-47685   8.367  30.094  11.914
79345CL-    CL-47686  21.595   0.777  11.530
79346CL-    CL-47687  16.314  13.258  10.523
79347CL-    CL-47688   0.886  36.580  12.502
79348CL-    CL-47689  23.067  17.204  12.371
79349CL-    CL-47690  26.676   7.345  11.108
79350CL-    CL-47691  14.296  23.210   0.844
79351CL-    CL-47692   3.381  41.897  14.788
79352CL-    CL-47693  26.587  29.019   0.406
79353CL-    CL-47694  20.072   1.794  10.948
79354CL-    CL-47695  11.744  25.504   3.721
79355CL-    CL-47696  35.010  21.256  10.099
79356CL-    CL-47697  37.057  13.107   2.855
79357CL-    CL-47698  29.462  22.636  14.496
79358CL-    CL-47699  44.938  37.395   2.338
79359CL-    CL-47700  25.135  15.668  14.441
79360CL-    CL-47701  26.139  11.140   2.748
79361CL-    CL-47702  16.729  42.896  14.280
79362CL-    CL-47703  32.032   3.451   0.800
79363CL-    CL-47704   2.441  30.913   3.859
79364CL-    CL-47705  24.170  27.035  12.054
79365CL-    CL-47706  10.744   6.764  13.508
79366CL-    CL-47707  24.117  40.859  10.977
79367CL-    CL-47708  40.352  39.552  11.548
79368CL-    CL-47709  36.845   3.269  10.463
79369CL-    CL-47710  26.129   4.431   2.761
79370CL-    CL-47711  42.787  18.620  13.518
79371CL-    CL-47712  22.587   1.422  14.783
79372CL-    CL-47713  21.513  42.380  11.032
79373CL-    CL-47714  11.804  14.665   4.606
79374CL-    CL-47715  14.312  44.832   2.719
79375CL-    CL-47716   6.697  40.979  12.028
79376CL-    CL-47717  20.654  23.671   1.935
79377CL-    CL-47718  43.912  42.785  13.053
79378CL-    CL-47719  39.436  25.695   0.456
79379CL-    CL-47720  28.616  14.801   1.805
79380CL-    CL-47721  19.223  40.486  11.543
79381CL-    CL-47722  14.325  35.079   4.631
79382CL-    CL-47723  41.505  16.255  12.555
79383CL-    CL-47724   4.301  15.261  11.401
79384CL-    CL-47725   1.334  10.668   2.735
79385CL-    CL-47726  15.791  31.083   0.797
79386CL-    CL-47727  31.518  12.147   4.659
79387CL-    CL-47728  41.519  28.110   4.196
79388CL-    CL-47729  17.595  33.556  14.907
79389CL-    CL-47730  24.551  38.887   0.966
79390CL-    CL-47731  26.629  13.332   4.672
79391CL-    CL-47732  28.479  44.503   3.314
79392CL-    CL-47733  22.697   3.285  11.968
79393CL-    CL-47734  28.472   7.395  12.021
79394CL-    CL-47735  29.550  27.449   1.856
79395CL-    CL-47736  11.728  10.726   4.652
79396CL-    CL-47737  25.706  29.106   0.346
79397CL-    CL-47738  10.208  11.860  14.489
79398CL-    CL-47739  27.096  29.586   2.877
79399CL-    CL-47740   0.311  36.866  13.857
79400CL-    CL-47741  36.350  39.888   0.845
79401CL-    CL-47742  15.605  28.059   0.410
79402CL-    CL-47743  29.054  10.818   1.225
79403CL-    CL-47744  42.962  42.964   2.785
79404CL-    CL-47745  16.712  40.360  13.363
79405CL-    CL-47746  13.154  20.645  12.838
79406CL-    CL-47747  37.893  38.919   0.879
79407CL-    CL-47748  33.418  21.123  13.465
79408CL-    CL-47749  42.856  35.364   2.806
79409CL-    CL-47750  23.137  18.718  11.002
79410CL-    CL-47751  28.080  30.480   5.180
79411CL-    CL-47752  14.188  44.347   4.330
79412CL-    CL-47753  31.104  38.394  11.989
79413CL-    CL-47754  38.509   2.942   2.184
79414CL-    CL-47755  32.063  16.608  14.357
79415CL-    CL-47756   7.786  37.938  11.056
79416CL-    CL-47757  23.208  36.926   0.308
79417CL-    CL-47758   7.697   9.384  12.529
79418CL-    CL-47759   4.869  10.723  13.312
79419CL-    CL-47760  20.537  36.545  14.399
79420CL-    CL-47761  27.008  43.336  11.884
79421CL-    CL-47762  19.123  24.634  13.506
79422CL-    CL-47763   1.977  42.332   2.283
79423CL-    CL-47764  37.338  28.508   0.332
79424CL-    CL-47765   0.901  34.973  13.965
79425CL-    CL-47766  40.332  41.388  14.468
79426CL-    CL-47767  19.587  41.936   5.230
79427CL-    CL-47768  14.804  41.862   4.323
79428CL-    CL-47769  41.854   3.861  10.990
79429CL-    CL-47770  30.600  15.100  13.331
79430CL-    CL-47771  30.943   2.948  11.916
79431CL-    CL-47772  22.718   3.805  10.557
79432CL-    CL-47773   9.309  15.296   0.775
79433CL-    CL-47774  27.689   1.747   3.761
79434CL-    CL-47775  30.086  26.674  13.887
79435CL-    CL-47776  42.836  10.879   0.335
79436CL-    CL-47777  34.042  18.704  12.081
79437CL-    CL-47778  17.735   5.818   1.376
79438CL-    CL-47779   5.734  22.583  13.488
79439CL-    CL-47780  18.204  18.055  14.882
79440CL-    CL-47781   5.792   4.790   4.673
79441CL-    CL-47782  28.473  10.838   0.332
79442CL-    CL-47783  33.116   9.353  14.987
79443CL-    CL-47784  39.399  33.921   2.751
79444CL-    CL-47785  24.205  42.789  11.924
79445CL-    CL-47786   0.435  10.177   0.832
79446CL-    CL-47787   5.432  13.769  11.518
79447CL-    CL-47788  13.338  17.561  14.493
79448CL-    CL-47789  10.370  42.353  11.601
79449CL-    CL-47790  23.234  27.626  14.474
79450CL-    CL-47791  21.549  36.538  14.838
79451CL-    CL-47792  38.426  16.118  12.551
79452CL-    CL-47793  22.060  13.198   4.115
79453CL-    CL-47794  34.517  44.318  10.946
79454CL-    CL-47795  17.303  32.625   2.266
79455CL-    CL-47796  11.360  33.067   4.838
79456CL-    CL-47797  28.162  24.075   3.844
79457CL-    CL-47798  37.878   6.728   0.852
79458CL-    CL-47799  20.230  12.787   3.657
79459CL-    CL-47800  15.220  40.900  13.376
79460CL-    CL-47801  22.562   8.893   3.237
79461CL-    CL-47802  35.932  35.396   2.700
79462CL-    CL-47803   7.903  35.051  12.867
79463CL-    CL-47804  42.997  39.507  13.867
79464CL-    CL-47805  20.154  43.497  11.874
79465CL-    CL-47806  10.244   9.292   3.335
79466CL-    CL-47807  14.158  11.369  11.006
79467CL-    CL-47808  16.304  19.744  10.539
79468CL-    CL-47809  28.985   0.320   1.773
79469CL-    CL-47810  17.270  41.960   1.714
79470CL-    CL-47811  41.044  16.767  14.787
79471CL-    CL-47812  27.503  30.612  12.545
79472CL-    CL-47813  38.830   0.303  12.958
79473CL-    CL-47814  44.362  32.589  10.569
79474CL-    CL-47815  36.092  26.647   3.215
79475CL-    CL-47816   4.760  14.823   3.672
79476CL-    CL-47817  30.446  26.458   3.827
79477CL-    CL-47818  25.126  21.542   4.793
79478CL-    CL-47819  31.079  43.465  10.628
79479CL-    CL-47820  17.764  34.408   3.838
79480CL-    CL-47821  11.281  20.593   0.477
79481CL-    CL-47822  15.083   0.327  14.449
79482CL-    CL-47823  31.944  22.231   0.448
79483CL-    CL-47824  26.687  30.147   0.248
79484CL-    CL-47825  20.649  39.509  10.617
79485CL-    CL-47826  17.189  19.109   0.305
79486CL-    CL-47827  12.262  19.098  11.863
79487CL-    CL-47828  28.502   5.214  12.014
79488CL-    CL-47829  12.710  43.955  14.387
79489CL-    CL-47830   4.876   2.802   1.314
79490CL-    CL-47831  40.529  32.093  12.427
79491CL-    CL-47832  42.838  39.000  10.950
79492CL-    CL-47833  14.335   8.323  10.908
79493CL-    CL-47834  12.205  16.251  11.588
79494CL-    CL-47835   9.256   3.225  13.838
79495CL-    CL-47836  29.606  34.949  10.997
79496CL-    CL-47837  26.121  31.600  10.967
79497CL-    CL-47838  30.653  16.265  12.453
79498CL-    CL-47839  10.367  28.976  13.982
79499CL-    CL-47840  30.992   7.716  10.582
79500CL-    CL-47841  31.986  34.023  13.022
79501CL-    CL-47842  31.402  27.577   4.244
79502CL-    CL-47843   1.877   1.419  14.855
79503CL-    CL-47844   0.432  44.471  12.522
79504CL-    CL-47845  29.473  12.125   4.817
79505CL-    CL-47846  11.665   2.424  14.867
79506CL-    CL-47847  21.609   3.290  11.485
79507CL-    CL-47848  31.970  16.656   4.174
79508CL-    CL-47849  24.999  13.815  10.441
79509CL-    CL-47850  36.401  25.633   2.700
79510CL-    CL-47851  14.328   1.759  14.366
79511CL-    CL-47852  28.458  27.119   2.318
79512CL-    CL-47853   7.836   7.834  13.979
79513CL-    CL-47854   7.721  14.277   4.190
79514CL-    CL-47855  13.310  29.566   0.904
79515CL-    CL-47856  38.889  42.477  14.344
79516CL-    CL-47857  41.370  41.940  11.526
79517CL-    CL-47858  34.575  15.143  11.410
79518CL-    CL-47859  27.673  30.524  14.018
79519CL-    CL-47860  34.917   8.261  12.576
79520CL-    CL-47861  43.008  14.770   3.658
79521CL-    CL-47862  38.377   4.216  14.833
79522CL-    CL-47863  18.207   3.431   3.655
79523CL-    CL-47864   6.826  32.902   4.806
79524CL-    CL-47865  16.694   5.755   1.758
79525CL-    CL-47866  39.380  39.898   0.441
79526CL-    CL-47867  29.610  41.795   4.216
79527CL-    CL-47868  15.741  19.575  12.873
79528CL-    CL-47869   1.256  38.543   1.740
79529CL-    CL-47870  12.318  37.568  13.951
79530CL-    CL-47871  26.146  45.000   4.681
79531CL-    CL-47872  24.549  30.042  14.416
79532CL-    CL-47873  42.290   5.747   3.157
79533CL-    CL-47874  41.390  35.961  13.494
79534CL-    CL-47875  40.313   7.279   0.772
79535CL-    CL-47876  43.447  36.462  11.469
79536CL-    CL-47877  24.502   0.363  11.516
79537CL-    CL-47878  16.138  35.601  13.824
79538CL-    CL-47879  12.349  11.296  10.496
79539CL-    CL-47880  15.635  23.614   9.973
79540CL-    CL-47881  15.260   1.770  12.475
79541CL-    CL-47882  32.992  16.195  14.961
79542CL-    CL-47883  29.563   4.419   3.820
79543CL-    CL-47884  27.580   3.325   5.212
79544CL-    CL-47885  14.233   5.730   3.711
79545CL-    CL-47886  12.795  31.466  13.387
79546CL-    CL-47887  17.621  33.592  14.031
79547CL-    CL-47888  15.159  42.452   1.218
79548CL-    CL-47889   7.717  23.709   4.345
79549CL-    CL-47890  24.225   9.222   4.154
79550CL-    CL-47891  33.400  13.298   4.295
79551CL-    CL-47892  16.567  32.597  10.946
79552CL-    CL-47893  15.134   3.898  14.465
79553CL-    CL-47894   2.824  39.880  13.999
79554CL-    CL-47895  19.710  20.653   1.363
79555CL-    CL-47896   5.756  33.047  14.396
79556CL-    CL-47897   9.345  11.169   0.777
79557CL-    CL-47898  39.862  17.182   3.846
79558CL-    CL-47899  43.352  24.645   2.259
79559CL-    CL-47900   6.373  21.027  13.337
79560CL-    CL-47901  18.189  20.724  11.896
79561CL-    CL-47902   5.899  10.714   4.194
79562CL-    CL-47903  36.563   9.382   0.856
79563CL-    CL-47904  10.216  39.046   9.920
79564CL-    CL-47905   9.707  20.222  14.350
79565CL-    CL-47906  11.753  27.489  10.951
79566CL-    CL-47907  39.462  39.033  14.897
79567CL-    CL-47908  37.965  13.183   3.299
79568CL-    CL-47909   7.261  41.446  13.309
79569CL-    CL-47910  28.680  11.665   3.369
79570CL-    CL-47911   5.762  41.468  12.975
79571CL-    CL-47912  26.122  44.007   0.881
79572CL-    CL-47913  18.224  40.499   3.158
79573CL-    CL-47914  10.230  23.608   4.247
79574CL-    CL-47915  33.091   1.857   4.179
79575CL-    CL-47916  11.686  38.568   4.641
79576CL-    CL-47917  32.083  21.756  14.858
79577CL-    CL-47918  23.637  41.341   0.399
79578CL-    CL-47919  32.060  37.343  12.375
79579CL-    CL-47920  40.445  12.231   2.689
79580CL-    CL-47921  30.121  26.558  13.329
79581CL-    CL-47922  41.297   2.863  12.012
79582CL-    CL-47923  16.690  24.603   5.678
79583CL-    CL-47924   6.332  35.037   2.833
79584CL-    CL-47925  14.318   0.944   3.191
79585CL-    CL-47926  30.471  18.138   0.867
79586CL-    CL-47927  13.839  19.727   3.852
79587CL-    CL-47928   0.480  35.970  11.869
79588CL-    CL-47929  38.053   8.809  11.531
79589CL-    CL-47930  15.786  30.564   3.244
79590CL-    CL-47931  38.985  42.513  13.398
79591CL-    CL-47932   3.831  14.812  12.444
79592CL-    CL-47933  15.115  17.643   0.783
79593CL-    CL-47934  35.980  31.111   3.764
79594CL-    CL-47935   5.308  11.840  13.979
79595CL-    CL-47936  28.951   1.921   2.754
79596CL-    CL-47937  16.134  43.908  13.395
79597CL-    CL-47938  35.367  43.300  11.924
79598CL-    CL-47939   0.294  16.717   4.315
79599CL-    CL-47940   5.693  16.139   3.173
79600CL-    CL-47941  23.139  35.859  14.814
79601CL-    CL-47942   9.299  42.473   1.245
79602CL-    CL-47943   8.744   5.894   2.396
79603CL-    CL-47944  35.024  30.071   3.218
79604CL-    CL-47945  11.216  27.039   0.430
79605CL-    CL-47946  21.557  38.349   1.445
79606CL-    CL-47947  13.312  15.591   4.331
79607CL-    CL-47948  17.289  28.137  10.998
79608CL-    CL-47949  40.801  17.609  13.372
79609CL-    CL-47950  31.966  35.030  13.858
79610CL-    CL-47951  30.016  13.820   3.751
79611CL-    CL-47952  29.025  15.657   3.847
79612CL-    CL-47953  29.146   6.687   0.340
79613CL-    CL-47954  25.184  25.967   2.767
79614CL-    CL-47955   2.877  21.668  10.569
79615CL-    CL-47956  32.569  27.510  10.624
79616CL-    CL-47957  42.786  27.662   0.819
79617CL-    CL-47958  26.686  12.636  13.543
79618CL-    CL-47959  15.312  40.549   1.384
79619CL-    CL-47960  24.217  17.148  13.880
79620CL-    CL-47961  34.576  30.597  12.380
79621CL-    CL-47962  21.067   3.926   0.922
79622CL-    CL-47963   1.803  40.399   1.384
79623CL-    CL-47964  33.601  43.912  11.046
79624CL-    CL-47965   7.410  38.827   4.207
79625CL-    CL-47966  15.669  26.467   3.291
79626CL-    CL-47967  31.550  22.137  11.052
79627CL-    CL-47968  31.968  37.493   4.762
79628CL-    CL-47969  11.242   6.775   4.682
79629CL-    CL-47970  24.079  28.073  12.053
79630CL-    CL-47971   6.684  37.970  11.085
79631CL-    CL-47972  11.232  25.166  10.470
79632CL-    CL-47973  10.156  32.509  13.839
79633CL-    CL-47974  16.714  24.218   0.937
79634CL-    CL-47975  33.131  19.231   4.286
79635CL-    CL-47976   8.175  17.190   4.701
79636CL-    CL-47977  10.173  29.108  14.808
79637CL-    CL-47978   3.843  39.388  12.382
79638CL-    CL-47979  19.119  33.943   4.759
79639CL-    CL-47980   6.260  43.989  11.911
  45.00000  45.00000  15.00000   0.00000   0.00000   0.00000   0.00000   0.00000   0.00000

